/*--------------------------------*- C++ -*----------------------------------*\
| =========                 |                                                 |
| \\      /  F ield         | OpenFOAM: The Open Source CFD Toolbox           |
|  \\    /   O peration     | Version:  2306                                  |
|   \\  /    A nd           | Website:  www.openfoam.com                      |
|    \\/     M anipulation  |                                                 |
\*---------------------------------------------------------------------------*/
FoamFile
{
    version     2.0;
    format      ascii;
    arch        "LSB;label=32;scalar=64";
    class       volScalarField;
    location    "0.00096";
    object      h;
}
// * * * * * * * * * * * * * * * * * * * * * * * * * * * * * * * * * * * * * //

dimensions      [0 2 -2 0 0 0 0];

internalField   nonuniform List<scalar> 
531
(
3683.19666
9775.53114
6494.26701
-4632.39522
-4597.81751
3867.58115
9662.57194
5512.86733
-4867.72834
-4747.34149
4422.57822
9543.71198
2064.89859
-2991.7124
4854.47542
9717.5454
1306.58397
-3082.13313
5146.97987
9702.29173
2406.24966
-5290.90044
-4796.78252
5151.3098
9637.91102
3604.46481
-4945.22618
-4376.49269
5214.52129
9944.5989
9855.14648
9924.43255
9952.38212
5363.04191
-3767.22441
-4272.60141
-4060.49893
-4546.41105
-4498.43306
4894.02188
9473.44797
5348.65346
-3827.87879
-4101.71814
4970.51492
9924.33059
9917.1415
2391.74994
-4536.99877
-4830.732
5501.091
9063.1259
1992.37127
-2164.19149
4570.60836
8913.56862
3020.73131
-3947.76507
-4751.06973
-4656.56682
3634.59111
9297.97927
9600.18162
9926.2201
9751.79473
3240.72903
-3597.18649
-4576.07317
-4522.872
3365.59772
8851.09117
5628.89974
-3017.17566
-4033.14162
3492.61699
8992.93037
6045.5686
-2856.80669
-3976.95224
3623.31638
9055.44148
5809.27519
-3023.50502
-4054.34041
3649.76031
9116.00029
5658.20499
-3129.4497
-4049.77764
3697.61527
9224.95226
5756.95532
-3134.82075
-4006.10002
3803.98891
9350.73913
5898.77501
-3163.13513
-4002.79706
3868.86572
9458.02433
5934.67646
-3268.2946
-4079.43309
3923.64872
9535.02472
5750.78306
-3478.88935
-4223.40343
3877.20065
9581.8968
5458.26846
-3672.21164
-4134.96256
3327.74779
9998.26047
10051.6488
3035.73383
-4019.18318
-4627.13249
-4384.46187
5306.07481
9468.02156
3608.82768
-4464.41763
-4169.20598
7176.66028
9439.44475
290.987089
-2462.85547
6656.39509
9448.06262
1592.67754
-5019.95917
-3421.53399
8917.96553
9280.62459
77.4035629
-5133.92897
-3203.51314
9313.66397
8786.6944
-1509.16957
-1142.71262
9076.32543
9275.29891
-760.52221
-4863.84563
-2232.36521
9418.52706
9250.70719
-176.569947
-4692.03903
-1833.57357
9398.01394
9223.95144
-121.151973
-4627.33027
-1518.73653
9383.17909
9198.83429
-132.907062
-4561.38631
-1372.64241
9439.69194
9212.05319
328.265783
-4663.60782
-4724.38085
-1660.1833
9220.42097
8064.02325
-1290.12056
-63.2189709
9266.49646
9000.03006
-1136.22643
-4851.19961
-1332.23942
9161.76627
8965.64002
-578.174369
-4834.9669
-1433.34919
9072.597
8904.22516
-878.523398
-4925.16348
-1745.51381
9119.52241
8445.20617
-1588.04573
-1152.72827
8860.31079
8979.62357
-1074.88269
-5016.28982
-1874.38087
9098.52762
9012.65126
-794.843218
-4916.43519
-1925.75547
9114.92112
9046.93696
-931.089299
-4986.52801
-2311.83253
9176.86736
9157.74597
-1539.72977
-2048.17361
8347.71769
9238.81324
-662.845274
-5101.48736
-2313.95815
9235.0658
9237.91564
-797.447625
-5036.81478
-2515.22179
9273.93829
9301.16369
-1216.26636
-2693.5367
4915.88067
10308.8013
9679.09164
1113.3529
-2707.38497
-2253.80449
-329.726257
238.42855
9.15197094
-1847.36158
-3359.56292
-1898.90808
9036.17579
10496.4901
9200.09309
-1912.63875
-3011.53268
7036.04909
9433.89512
31.8742846
-5864.75871
-4561.09303
8737.4586
9558.66082
-1153.85819
-3663.63384
6517.37548
9673.70436
-1077.30446
-3825.13948
7180.44258
9781.78775
-1799.00919
-3854.87783
8157.60972
9738.97826
-554.418497
-6084.62119
-5353.98976
9260.32175
10023.7122
-1545.0249
-3412.71333
8419.80358
9917.35388
-113.299553
-5584.97403
-4968.36866
9077.38079
10074.894
-1022.5814
-2994.01323
8211.60719
9947.85297
254.167626
-5215.45013
-4279.92639
8887.71248
9962.02869
356.245413
-5183.64833
-4675.32171
8747.7035
9874.78282
-277.654249
-2343.57012
7704.78652
9909.80295
441.975493
-5034.147
-4034.66192
8451.85907
9784.24719
730.15011
-5126.29429
-4521.03357
8309.52682
9458.4688
112.826272
-1922.22519
7237.19284
9654.48212
778.890247
-4914.7165
-3920.66777
8102.15198
9521.08745
972.949688
-4981.10163
-4243.24148
8040.39061
9195.02775
355.787966
-1576.62312
7043.17577
9469.58434
1188.91461
-4600.9109
-3536.33297
8001.32644
9437.73986
1456.02165
-4481.89123
-3508.86619
7912.54179
9405.92817
1404.69546
-4569.02247
-3858.35925
7825.17302
9149.31049
1125.51984
-767.297157
6902.83384
9945.56143
4104.73118
-2305.03833
-2995.43511
-2946.47949
-3559.1772
-2265.55463
8356.89035
9749.67682
2080.01244
-4298.172
-4163.0388
7683.30612
9118.65476
809.863224
-2207.58057
6003.36005
9034.33373
448.815397
-2200.28579
6140.38269
9341.07978
421.50373
-5579.83862
-4899.02713
7699.40265
9085.48518
242.555438
-2044.17128
6585.16645
9490.4654
-27.8811066
-5542.40655
-4505.94138
8138.55816
9181.65081
-184.254015
-2036.72793
7172.14868
9560.72382
-652.518591
-5627.63181
-4226.82408
8354.20963
9091.44826
-783.62737
-2173.3518
7576.40744
9432.92474
-1454.90873
-5984.40468
-4135.12573
8369.12455
8742.47181
-1654.59164
-2676.02923
7794.75907
8534.79927
-2012.56235
-2589.06188
7905.41555
8376.76975
-2070.54519
-2293.96001
7995.0558
8995.52032
-2152.47331
-5940.98703
-3222.49657
8248.51163
8034.36604
-1840.91157
-1738.94063
8266.97156
7824.15382
-1811.35216
-1305.50889
8354.02404
8907.59594
-1987.26687
-5229.7898
-2042.59632
8431.59361
7668.9801
-1102.655
-274.703186
8719.23969
9092.81711
-1719.12373
-4364.43535
-664.155973
9100.30796
9172.14893
-1074.27677
-4563.66959
-4598.17396
-403.482488
9297.24883
8754.26943
-2854.54183
-5501.45065
-648.622967
9371.63256
6593.17608
-2822.45506
-391.881508
9123.65093
6012.14312
-3073.82204
358.422585
9400.4602
5452.849
-3350.12994
613.240462
9591.3249
7311.9718
-5677.22634
-6167.27789
-560.652355
9463.41089
5520.82307
-3456.69569
-263.878682
9325.70682
5951.92419
-3554.47087
-664.118726
9348.49504
6601.10443
-3414.84055
-1050.49207
9399.82173
7307.51935
-3095.44166
-1106.93598
9495.53682
8915.46196
-2855.50813
-5610.52598
-2270.49717
9756.29341
9268.58457
-1769.29665
-5405.18433
-2556.71922
9840.83207
9553.19894
-1247.39395
-5816.80644
-3397.35656
9407.12205
10015.8618
9926.05684
9707.74517
-196.024175
-4447.15292
-4889.95168
-4122.43415
9855.73223
9834.99251
-757.213019
-5550.2262
-3758.72937
9914.59312
9978.85019
-240.220283
-5215.38173
-3292.60133
9958.4337
10079.41
-24.524567
-4988.66591
-2962.36221
9999.50866
10098.6051
-157.702136
-5080.08886
-3267.89076
9972.14039
10001.5024
-475.091439
-5438.16505
-3889.65765
9910.01717
9835.89704
-798.124191
-6252.92875
-4452.93058
9024.20637
9823.23673
9706.97771
)
;

boundaryField
{
    closed
    {
        type            lookUpEnthalpy;
        h0              nonuniform List<scalar> 0();
        value           nonuniform List<scalar> 0();
    }
    open
    {
        type            zeroGradient;
    }
    sides
    {
        type            empty;
    }
    procBoundary3to2
    {
        type            processor;
        value           uniform -4456.92863;
    }
    procBoundary3to4
    {
        type            processor;
        value           uniform 9459.28926;
    }
}


// ************************************************************************* //
