/*--------------------------------*- C++ -*----------------------------------*\
| =========                 |                                                 |
| \\      /  F ield         | OpenFOAM: The Open Source CFD Toolbox           |
|  \\    /   O peration     | Version:  2306                                  |
|   \\  /    A nd           | Website:  www.openfoam.com                      |
|    \\/     M anipulation  |                                                 |
\*---------------------------------------------------------------------------*/
FoamFile
{
    version     2.0;
    format      ascii;
    arch        "LSB;label=32;scalar=64";
    class       volScalarField;
    location    "0.00096";
    object      p;
}
// * * * * * * * * * * * * * * * * * * * * * * * * * * * * * * * * * * * * * //

dimensions      [1 -1 -2 0 0 0 0];

internalField   nonuniform List<scalar> 
531
(
101808.4
101806.689
101805.229
101807.424
101802.761
101794.992
101786.367
101776.332
101764.62
101751.739
101738.215
101723.78
101706.9
101688.854
101670.553
101651.867
101630.926
101608.723
101585.684
101563.199
101539.187
101513.661
101487.033
101461.383
101436.163
101409.812
101381.93
101353.096
101325.499
101298.59
101271.248
101243.907
101216.824
101189.837
101161.254
101132.914
101106.094
101081.902
101064.895
101025.129
101008.046
100988.407
100967.82
100948.292
100930.312
100915.325
100902.847
100893.092
100884.571
100878.627
100876.099
100875.904
100877.952
100880.582
100884.581
100890.161
100898.506
100909.023
100922.647
100939.349
100958.456
100977.469
100997.742
101019.422
101042.641
101067.345
101092.235
101118.39
101146.198
101175.529
101204.196
101233.802
101264.175
101295.978
101328.272
101358.587
101388.413
101417.777
101447.476
101476.585
101503.1
101528.485
101552.648
101576.406
101599.152
101619.56
101638.893
101656.802
101673.864
101689.378
101702.313
101713.606
101722.67
101730.208
101735.915
101739.495
101741.66
101741.512
101739.8
101736.521
101731.94
101726.6
101719.356
101710.991
101701.737
101692.234
101682.959
101672.685
101662.165
101651.736
101642.252
101634.165
101626.462
101619.514
101614.316
101610.225
101607.895
101607.422
101608.505
101611.357
101615.976
101621.848
101628.685
101637.778
101648.623
101660.694
101673.371
101685.83
101700.12
101714.931
101730.374
101745.077
101761.498
101778.835
101797.193
101814.004
101832.146
101850.722
101868.722
101886.419
101901.144
101915.314
101928.083
101938.012
101943.068
101943.597
101937.036
101925.595
101919.447
101919.807
101929.131
101938.012
101942.952
101944.588
101943.635
101941.458
101937.344
101932.656
101928.511
101923.963
101918.674
101911.023
101901.097
101889.568
101876.863
101864.663
101852.643
101841.403
101830.441
101819.127
101807.056
101794.48
101781.034
101768.011
101755.813
101744.264
101732.622
101721.668
101711.783
101702.555
101693.484
101683.48
101672.876
101661.929
101650.697
101639.258
101627.053
101614.734
101602.714
101591.257
101580.509
101569.849
101560.305
101552.15
101544.934
101538.077
101531.832
101526.292
101521.674
101517.655
101513.905
101510.809
101508.287
101506.387
101504.486
101502.147
101499.54
101496.539
101493.42
101490.097
101486.288
101482.497
101479.313
101476.287
101473.962
101471.109
101469.291
101467.631
101465.985
101464.041
101462.114
101460.006
101458.131
101455.829
101452.971
101449.608
101445.526
101440.866
101435.156
101428.084
101419.717
101409.911
101398.892
101386.845
101373.947
101360.355
101346.255
101331.821
101317.258
101302.82
101288.575
101274.172
101260.284
101246.674
101234.45
101222.699
101211.121
101199.419
101188.838
101178.349
101168.064
101157.921
101147.666
101138.32
101129.193
101120.386
101111.718
101104.205
101097.255
101090.898
101085.008
101079.895
101075.66
101072.071
101068.967
101066.809
101065.053
101064.038
101063.339
101062.787
101062.274
101061.992
101061.613
101060.944
101060.207
101058.966
101057.63
101056
101054.079
101051.771
101049.341
101046.747
101043.947
101041.473
101038.803
101036.484
101034.505
101032.914
101032.128
101031.59
101031.888
101032.973
101034.698
101036.925
101039.873
101043.506
101047.709
101052.387
101057.154
101062.758
101069.136
101076.316
101084.016
101092.076
101101.357
101111.79
101123.161
101134.843
101147.768
101161.966
101177.297
101192.691
101208.055
101224.225
101240.809
101257.374
101272.819
101288.223
101303.434
101318.167
101332.168
101344.704
101357.215
101369.915
101382.9
101395.64
101407.171
101419.516
101432.382
101445.623
101458.448
101469.449
101480.629
101491.493
101501.927
101511.362
101518.649
101525.684
101532.523
101538.703
101543.695
101548.388
101553.101
101557.864
101562.819
101568.117
101573.971
101580.42
101586.925
101594.549
101603.169
101612.795
101622.773
101631.762
101641.566
101652.128
101663.432
101674.009
101684.616
101695.547
101706.686
101716.371
101725.635
101734.892
101744.395
101753.165
101760.277
101767.262
101773.768
101782.934
101790.702
101798.462
101806.858
101816.077
101825.313
101833.38
101841.346
101848.388
101858.597
101866.718
101874.38
101882.165
101890.34
101898.481
101905.976
101913.481
101921.072
101928.236
101933.908
101938.294
101941.253
101942.658
101942.615
101940.406
101937.035
101934.061
101932.043
101930.928
101929.134
101926.574
101922.104
101917.267
101913.579
101910.53
101911.365
101915.357
101922.46
101926.319
101931.249
101937.872
101946.255
101964.512
101985.521
102003.869
102018.383
102029.631
102040.285
102050.592
102064.993
102092.001
102120.206
102159.043
102198.923
102232.485
102258.795
102279.026
102293.197
102308.018
102331.5
102345.359
102366.348
102390.644
102410.137
102419.967
102420.6
102413.193
102394.332
102369.001
102340.219
102304.931
102261.628
102211.546
102153.652
102090.814
102014.446
101925.847
101827.221
101725.27
101601.542
101478.261
101352.235
101225.577
101092.883
100962.917
100835.959
100713.642
100590.216
100462.469
100340.647
100225.07
100119.579
100017.674
99926.1647
99845.3817
99781.3604
99732.3477
99703.4333
99692.0084
99697.6465
99718.3587
99751.6122
99795.5989
99850.9583
99921.5016
100000.092
100082.526
100165.082
100244.231
100318.216
100373.917
100464.945
100538.613
100602.266
100660.218
100714.672
100760.817
100803.087
100842.167
100878.37
100912.708
100942.337
100970.809
100998.394
101025.346
101052.038
101078.517
101105.302
101131.852
101155.705
101179.378
101203.209
101227.013
101250.651
101271.76
101292.705
101313.621
101334.421
101354.868
101373.084
101391.087
101409.028
101426.767
101444.068
101459.377
101474.443
101489.394
101504.018
101518.175
101530.479
101542.558
101554.456
101565.949
101577.011
101586.375
101595.563
101604.515
101613.01
101621.123
101627.79
101634.322
101640.446
)
;

boundaryField
{
    closed
    {
        type            zeroGradient;
    }
    open
    {
        type            waveTransmissive;
        gamma           1.25;
        fieldInf        101325;
        lInf            1;
        value           nonuniform List<scalar> 0();
    }
    sides
    {
        type            empty;
    }
    procBoundary3to2
    {
        type            processor;
        value           uniform 101808.247;
    }
    procBoundary3to4
    {
        type            processor;
        value           uniform 101646.179;
    }
}


// ************************************************************************* //
