/*--------------------------------*- C++ -*----------------------------------*\
| =========                 |                                                 |
| \\      /  F ield         | OpenFOAM: The Open Source CFD Toolbox           |
|  \\    /   O peration     | Version:  2306                                  |
|   \\  /    A nd           | Website:  www.openfoam.com                      |
|    \\/     M anipulation  |                                                 |
\*---------------------------------------------------------------------------*/
FoamFile
{
    version     2.0;
    format      ascii;
    arch        "LSB;label=32;scalar=64";
    class       volScalarField;
    location    "0.00096";
    object      rho;
}
// * * * * * * * * * * * * * * * * * * * * * * * * * * * * * * * * * * * * * //

dimensions      [1 -3 0 0 0 0 0];

internalField   nonuniform List<scalar> 
531
(
0.935089463
0.907353194
0.921073139
0.957253636
0.957098844
0.93427391
0.907202812
0.926284101
0.958279363
0.957453633
0.931381254
0.906296029
0.938221588
0.946046729
0.928502109
0.904820057
0.938908246
0.945842519
0.926239957
0.904163666
0.935877314
0.958575885
0.955154886
0.925469108
0.903352214
0.93129419
0.955218079
0.95131136
0.924177183
0.902581346
0.902628584
0.901868616
0.90184018
0.92280237
0.945823223
0.948692948
0.947111945
0.949933757
0.949505907
0.922695393
0.90075461
0.920611791
0.944399617
0.945872844
0.921631887
0.899153999
0.898284584
0.929944754
0.948116618
0.949831005
0.9175461
0.898991657
0.93052431
0.933546781
0.922063286
0.899990309
0.928438439
0.944557749
0.949610642
0.949290666
0.926803785
0.901321356
0.900777336
0.899574181
0.899413487
0.92937963
0.944145166
0.950402896
0.950488474
0.929600198
0.903850189
0.921957057
0.942236014
0.94878443
0.930719203
0.90509764
0.921593518
0.94270146
0.949865031
0.931609617
0.906188391
0.924104194
0.94495703
0.951545257
0.932652598
0.906963777
0.925802389
0.94656749
0.952420008
0.933388185
0.907462419
0.926001758
0.947213538
0.952673988
0.933530288
0.907546675
0.925537678
0.947560858
0.952747844
0.933408141
0.90723693
0.925155169
0.947993467
0.952961126
0.932970862
0.906558793
0.925586239
0.948842133
0.953402501
0.93268559
0.905698991
0.92612157
0.949589527
0.952387815
0.93418596
0.904940515
0.904649694
0.93496541
0.951563222
0.955350796
0.953951588
0.926320331
0.906442252
0.933608287
0.954884929
0.952952823
0.915963088
0.906489433
0.939729158
0.943084422
0.919101146
0.907745189
0.939340728
0.959688903
0.949660414
0.906662904
0.909129682
0.941645411
0.961241309
0.949218345
0.907054494
0.910984606
0.9422974
0.944118753
0.907305819
0.910343069
0.942975608
0.959903512
0.94536592
0.907173208
0.910674558
0.94293368
0.958994923
0.94550847
0.907406168
0.910985653
0.942857314
0.958492585
0.945195327
0.907165174
0.910990209
0.942695529
0.957790998
0.944938612
0.906672048
0.910073702
0.941063223
0.957770917
0.95814954
0.944353861
0.906643551
0.914271264
0.940812289
0.941771428
0.905293032
0.909780885
0.941294842
0.958003735
0.943063465
0.905495055
0.90912479
0.940705251
0.957470786
0.942585939
0.905127387
0.908485495
0.94040123
0.957536091
0.94219779
0.904970745
0.908900646
0.938665555
0.939988095
0.904741502
0.907011916
0.939494664
0.957358205
0.941195796
0.904118868
0.906476357
0.939169189
0.956533711
0.940827517
0.903809045
0.906003355
0.939221619
0.956892062
0.940941763
0.903910424
0.904621184
0.937722301
0.938702665
0.906015294
0.905031413
0.938828256
0.957331323
0.940412069
0.902992385
0.904494516
0.938992734
0.956812389
0.941189544
0.902766639
0.902872236
0.938709395
0.942034731
0.926785677
0.902113716
0.903451831
0.937292137
0.941811316
0.939155511
0.937545474
0.937397968
0.936746419
0.938478495
0.945109443
0.938961978
0.903630821
0.901112631
0.903688689
0.937223299
0.942150799
0.911291379
0.90212171
0.936289784
0.959866977
0.950972383
0.902008999
0.900191379
0.935404212
0.945165436
0.914499835
0.900081745
0.935102876
0.945798177
0.909055434
0.899916292
0.934406872
0.945725464
0.901740628
0.900386992
0.934838366
0.959764607
0.954752789
0.901532494
0.899334788
0.934680919
0.942753128
0.901728118
0.899886412
0.934574832
0.95641476
0.952313395
0.902118937
0.899033754
0.934533203
0.940168344
0.902694452
0.89951445
0.93425484
0.953871382
0.947918742
0.901856014
0.899473393
0.93419153
0.95358132
0.95026644
0.902636845
0.898461697
0.933990233
0.936087159
0.904769198
0.899388708
0.934047225
0.952783469
0.94646389
0.902888122
0.899695035
0.934120791
0.953666048
0.94980715
0.903915454
0.899544227
0.93447081
0.935306305
0.909114036
0.900564214
0.934931829
0.953253632
0.946995308
0.904778013
0.901328738
0.935389908
0.954460274
0.949790131
0.905954549
0.901854636
0.936148085
0.936833866
0.912844728
0.902682594
0.936412425
0.953232515
0.946519591
0.907086412
0.903164267
0.936483609
0.953037349
0.946937961
0.908392259
0.903832598
0.937162194
0.954142835
0.949646138
0.910010947
0.904014522
0.937591172
0.938988117
0.917082412
0.903852366
0.931450858
0.940692177
0.944830253
0.944589376
0.948424034
0.940557638
0.908362557
0.904565563
0.936944757
0.953402814
0.952622814
0.912648646
0.905094749
0.939439015
0.940900418
0.922837761
0.905497318
0.940562423
0.941266256
0.922221979
0.906295834
0.941139834
0.962982038
0.958548854
0.91401805
0.906358256
0.941124077
0.941052767
0.920761493
0.907031217
0.942116896
0.963474687
0.956706752
0.912155975
0.907003813
0.941890341
0.941691945
0.918166014
0.907780085
0.943203115
0.964740841
0.955623901
0.912036772
0.90797745
0.942872209
0.943174872
0.916110269
0.908459549
0.94443582
0.967654386
0.955503628
0.912489919
0.909229396
0.943416442
0.946349633
0.91465941
0.910180054
0.943363846
0.945747922
0.913630763
0.910832111
0.943190846
0.943810494
0.912688255
0.909056124
0.944931102
0.967201945
0.949689783
0.913082399
0.912845663
0.943482553
0.943635593
0.912328238
0.915654689
0.944159764
0.943974562
0.912699912
0.911096279
0.946272992
0.964269301
0.946355628
0.915114961
0.919299495
0.946132878
0.945954643
0.913900667
0.913192079
0.947817517
0.960754701
0.947422894
0.915130424
0.914252067
0.947548724
0.962714817
0.962741647
0.947556195
0.91321684
0.915314431
0.950949386
0.967348109
0.947179688
0.910860967
0.924179818
0.948001823
0.943937042
0.907514595
0.924274749
0.945706739
0.939111912
0.902672989
0.92229767
0.942649842
0.933883075
0.89745414
0.908663479
0.952722965
0.954388222
0.930195863
0.893612962
0.911588239
0.933267673
0.925759842
0.889495909
0.906863933
0.931197877
0.924030802
0.887973483
0.903022839
0.930230775
0.924550581
0.888642052
0.900995294
0.930200537
0.926481091
0.890581837
0.896040456
0.93175921
0.9494573
0.930662238
0.894164263
0.898187829
0.931028776
0.951357222
0.934498388
0.89662746
0.899958183
0.93314467
0.956174471
0.941264449
0.898525412
0.899462214
0.89961355
0.900755379
0.934182523
0.949304701
0.95218313
0.947730092
0.899463543
0.902093295
0.936592926
0.957603541
0.946585766
0.900764011
0.902482628
0.937224967
0.956456472
0.944748935
0.901679391
0.903196724
0.937975009
0.955889299
0.943599859
0.902498603
0.903855659
0.938748218
0.957185176
0.946120933
0.903082805
0.904584338
0.939490149
0.960021297
0.950445984
0.903382513
0.905699105
0.940132234
0.966053411
0.954324721
0.904530777
0.906181784
0.905843331
)
;

boundaryField
{
    closed
    {
        type            calculated;
        value           nonuniform List<scalar> 0();
    }
    open
    {
        type            calculated;
        value           nonuniform List<scalar> 0();
    }
    sides
    {
        type            empty;
    }
    procBoundary3to2
    {
        type            processor;
        value           uniform 0.956309929;
    }
    procBoundary3to4
    {
        type            processor;
        value           uniform 0.906906543;
    }
}


// ************************************************************************* //
