/*--------------------------------*- C++ -*----------------------------------*\
| =========                 |                                                 |
| \\      /  F ield         | OpenFOAM: The Open Source CFD Toolbox           |
|  \\    /   O peration     | Version:  2306                                  |
|   \\  /    A nd           | Website:  www.openfoam.com                      |
|    \\/     M anipulation  |                                                 |
\*---------------------------------------------------------------------------*/
FoamFile
{
    version     2.0;
    format      ascii;
    arch        "LSB;label=32;scalar=64";
    class       volScalarField;
    location    "0.00096";
    object      T;
}
// * * * * * * * * * * * * * * * * * * * * * * * * * * * * * * * * * * * * * //

dimensions      [0 0 0 1 0 0 0];

internalField   nonuniform List<scalar> 
531
(
330.621545
339.625834
334.808878
324.277675
324.329018
330.799615
339.600543
333.101499
323.783077
324.03029
331.463797
339.720098
329.482268
327.715576
332.129276
340.061768
329.178141
327.532243
332.58044
340.008842
329.700991
322.870706
323.949169
332.474113
339.878133
330.614312
323.60303
324.836469
332.49312
339.739725
339.617031
339.824249
339.745514
332.541688
326.115246
325.04419
325.497375
324.454467
324.551179
332.107129
339.389158
332.64497
325.98859
325.411349
332.169513
339.742113
340.034638
329.705888
324.453762
323.833428
333.267468
339.565372
329.57574
329.447811
331.894421
339.210448
330.11876
325.735784
324.036271
324.215173
330.693993
339.044233
339.360161
339.938374
340.059588
330.285338
326.472431
324.402671
324.48399
330.451672
338.795763
332.922269
327.675877
325.54858
330.546465
338.863492
333.469042
328.004844
325.667353
330.680425
338.947639
333.08903
327.664401
325.502915
330.704909
339.056228
332.877187
327.445747
325.514023
330.736898
339.161291
333.023787
327.434392
325.607546
330.824957
339.271249
333.24373
327.375734
325.614035
330.868253
339.377003
333.318706
327.158303
325.449409
330.906964
339.510474
333.064292
326.719388
325.140867
330.858078
339.675045
332.761349
326.314036
325.339057
330.352493
339.906494
340.01663
330.139962
325.584744
324.294338
324.799757
332.662224
339.329843
330.578376
324.600885
325.269892
336.051551
339.503675
329.439144
328.820806
335.218319
339.226046
329.434728
323.374727
326.80776
339.811636
338.973532
329.27398
323.13083
327.228213
340.007125
338.489115
329.675884
328.893012
340.024953
338.889542
329.265544
323.760431
328.574036
340.037986
338.710811
329.138972
324.129069
328.517981
340.027508
338.630952
329.153694
324.268307
328.508646
340.050968
338.548549
329.122343
324.408354
328.42933
340.086143
338.715632
329.461094
324.210291
324.056992
328.472662
339.83222
336.929621
329.679071
328.932825
340.181023
338.390981
329.268105
323.762895
328.512369
339.908716
338.463949
329.189845
323.79081
328.543892
339.861736
338.515524
329.1733
323.583142
328.553917
339.724301
338.099923
329.820998
329.154549
339.646878
338.766024
329.253918
323.376952
328.703266
339.810936
338.881873
329.229378
323.593707
328.796496
339.879724
339.022289
329.195685
323.43483
328.793324
339.803869
339.516977
329.879376
329.579999
338.845678
339.321971
329.185374
323.188877
328.904828
340.07584
339.492798
329.112356
323.337014
328.619278
340.134937
340.089686
329.285682
328.327745
332.037872
340.45123
339.841285
329.13694
328.320533
329.174441
329.347489
329.211283
329.50025
329.173685
326.987067
328.883412
339.290538
340.385832
339.189826
329.371888
327.726415
336.320999
339.635461
329.093276
321.468163
324.451796
339.437471
340.202495
329.54435
326.3336
335.007167
340.121078
329.503498
325.993926
336.650524
340.080642
329.821423
325.931459
339.1124
339.810085
329.285621
321.037794
322.739344
339.265571
340.199578
329.533578
326.855719
339.073458
339.964123
329.230767
322.160269
323.559144
338.994758
340.301152
329.45344
327.715052
338.645756
340.075377
329.2166
322.987403
325.026105
339.008497
340.048308
329.1624
323.049794
324.179478
338.658668
340.404478
329.402356
329.042851
337.815801
340.068369
329.213826
323.360145
325.545942
338.595243
340.004579
329.18396
323.142644
324.490928
338.291501
340.143859
329.369788
329.540396
336.663971
339.920487
329.155807
323.592686
325.786721
338.307637
339.861017
329.201113
323.435381
325.086916
338.123638
339.894052
329.384927
329.619904
336.067702
339.802085
329.214357
324.278133
326.607652
338.107968
339.827004
329.346505
324.545568
326.666265
337.866578
339.779445
329.312593
324.355571
325.920165
337.494681
339.846881
329.416919
329.368222
335.308253
340.090864
330.974916
329.112362
327.729141
327.820542
326.559609
329.248452
338.294252
339.941215
329.629352
324.963197
325.259684
336.965146
339.815129
329.171055
329.387854
333.852842
339.794741
328.96637
329.397784
334.167364
339.670415
328.88684
322.105691
323.651487
336.90053
339.76545
329.119833
329.716536
334.84354
339.660432
328.895129
322.173375
324.513846
337.704011
339.779279
329.203885
329.735345
335.880563
339.641502
328.904746
321.983037
325.122393
337.977927
339.643093
329.224087
329.463317
336.735434
339.595235
328.83967
321.175046
325.326294
337.957664
339.239013
329.292146
328.428242
337.210736
338.81818
329.361697
328.608596
337.51285
338.503459
329.385632
329.213062
337.785797
339.250814
328.741485
321.280752
327.251198
337.727375
337.835197
329.408079
329.402563
338.214979
337.138618
329.371893
329.374245
338.243338
338.970995
328.796291
322.909117
329.02412
337.839908
336.587318
329.272669
329.220685
338.65623
339.021549
329.006091
324.826531
329.046356
338.566386
338.974752
329.296597
324.397513
324.349425
329.031266
339.24394
338.283395
327.997041
322.311808
328.546218
339.418763
334.64509
328.114186
328.725986
339.555533
333.584177
327.583038
328.790912
339.823272
332.79101
326.984446
328.910939
340.086669
335.614672
321.902716
320.889025
328.368096
339.449917
332.985058
326.769098
328.538774
339.719101
333.504661
326.565507
328.510212
339.782945
334.483039
326.861628
328.583056
339.888549
335.577362
327.528526
328.754167
340.14019
338.233284
328.033633
322.128041
328.732235
340.10172
338.737451
329.331328
322.589237
328.546788
340.177811
339.000292
329.257239
321.643285
326.858715
340.016284
339.824942
339.850749
339.476496
329.379255
324.663468
323.741278
325.366678
340.441601
339.505345
329.096614
322.2804
326.127215
340.344929
339.761627
329.127591
323.021749
327.092608
340.344694
339.83609
329.125455
323.515069
327.770291
340.329673
339.870527
329.149041
323.319443
327.145931
340.345004
339.812127
329.172872
322.545772
325.857156
340.413618
339.545677
329.17876
320.643452
324.67143
340.006686
339.491552
339.628468
)
;

boundaryField
{
    closed
    {
        type            fixedValue;
        value           nonuniform List<scalar> 0();
    }
    open
    {
        type            zeroGradient;
    }
    sides
    {
        type            empty;
    }
    procBoundary3to2
    {
        type            processor;
        value           uniform 324.623251;
    }
    procBoundary3to4
    {
        type            processor;
        value           uniform 339.210652;
    }
}


// ************************************************************************* //
