/*--------------------------------*- C++ -*----------------------------------*\
| =========                 |                                                 |
| \\      /  F ield         | OpenFOAM: The Open Source CFD Toolbox           |
|  \\    /   O peration     | Version:  2306                                  |
|   \\  /    A nd           | Website:  www.openfoam.com                      |
|    \\/     M anipulation  |                                                 |
\*---------------------------------------------------------------------------*/
FoamFile
{
    version     2.0;
    format      ascii;
    arch        "LSB;label=32;scalar=64";
    class       volScalarField;
    location    "0.00114";
    object      prefDh_H2O;
}
// * * * * * * * * * * * * * * * * * * * * * * * * * * * * * * * * * * * * * //

dimensions      [1 1 -3 0 0 0 0];

internalField   nonuniform List<scalar> 
530
(
91.2690169
89.8818285
89.8162727
89.8193023
89.8195699
89.8195746
89.8195748
89.8195748
89.8195748
89.8195748
89.8195748
89.8195748
89.8195748
89.8195748
89.8195748
89.8195748
89.8195748
89.8195748
89.8195748
89.8195748
89.8195748
89.8195748
89.8195748
89.8195748
89.8195748
89.8195748
89.8195748
89.8195748
89.8195748
89.8195748
89.8195748
89.8195748
89.8195748
89.8195748
89.8195748
89.8195748
89.8195748
89.8195748
89.8195748
89.8195748
89.8195748
89.8195748
89.8195748
89.8195748
89.8195748
89.8195748
89.8195748
89.8195748
89.8195748
89.8195748
89.8195748
89.8195748
89.8195748
89.8195748
89.8195748
89.8195748
89.8195748
89.8195748
89.8195748
89.8195748
89.8195748
89.8195748
89.8195748
89.8195748
89.8195748
89.8195747
89.8195747
89.8195745
89.8195742
89.8195726
89.8195708
89.8195681
89.8195512
89.819498
89.8196777
89.8194448
89.8175909
89.8167359
89.8294115
89.8455777
89.7917933
89.6708738
89.8126157
90.1301094
89.8512767
88.2549991
88.3709059
92.7234352
92.5355402
89.0511796
87.9066279
88.0750156
92.6804515
92.534084
89.3346191
87.8721845
88.0172923
92.3780709
92.3398762
92.5437152
90.4434158
87.9720357
87.9810746
87.9754195
87.9544058
90.7214154
92.3672214
92.381303
92.415815
90.9550718
87.9391547
88.4731144
92.3548753
92.692243
87.7749719
87.7455172
87.9576011
87.9769208
87.9808543
90.1645368
92.2589917
92.3623344
92.2204478
92.5099083
88.3997857
87.8823066
88.8572412
92.4055712
92.695181
87.6739401
87.8350256
91.8018018
90.3957044
87.9544923
88.5531665
92.3417472
92.7343408
87.9262725
88.3075887
92.3481517
92.2791928
87.9253699
88.5402522
92.3393199
92.2895829
90.9569501
87.7367465
87.9396899
91.553002
90.4351865
87.9291323
88.7944551
92.3105274
91.8862921
87.9753262
88.7710079
92.2293067
92.3224153
88.1899123
87.8507406
88.7446411
92.3900453
92.7088682
87.867767
88.0923721
92.4168124
92.5107416
87.7829376
87.8062528
92.9616646
92.3730763
91.1183664
88.0458026
88.3068556
92.3964554
92.572662
87.8328312
87.7867597
87.8510575
88.3858305
92.4229311
92.468187
87.9597843
88.1400489
92.3854928
92.8082681
87.9136318
88.2275128
92.312269
92.3057252
88.1786681
87.8319181
89.0271906
92.4059188
92.1975062
87.9456947
88.4402386
92.3181279
92.2699059
88.4713601
87.9228541
88.6159273
92.4332473
92.4180181
87.9615557
87.498459
87.9489977
92.9127073
92.498143
87.9784331
88.1417789
92.4546361
92.3364817
88.1137065
88.0648981
92.5637813
92.3337846
88.1306116
88.12678
92.5637862
92.3434241
88.0554534
87.7647263
88.6105177
92.4836795
92.7736754
88.1903312
89.4554526
90.9933874
88.2674078
88.2286346
92.6270055
92.2765992
88.2473012
88.0712334
92.8490012
92.3313859
88.3236523
88.1439588
92.9286829
92.4491374
88.2254709
87.5164945
87.7075825
92.9363573
92.4975552
88.1136081
87.9415617
92.7881123
92.3673041
88.466753
88.1735182
92.9076944
92.3262488
88.920225
87.8565858
87.9823603
92.8914728
92.3404952
88.1808077
87.9075406
92.3941867
92.3807317
89.7771393
87.9876732
87.9582981
93.003065
92.3293987
88.7193841
88.0262847
91.87074
92.4591319
88.8501258
87.9300091
87.8884104
87.8788343
92.3933695
92.3808731
88.8949407
88.0741789
91.1457043
92.4085018
92.3891871
88.7104575
87.8343394
88.1085607
92.1808633
92.3147709
92.3004856
89.163723
88.0634781
87.9645969
88.0275022
92.2242156
92.4459636
90.0014645
87.9083791
87.8152165
91.5863332
92.4563427
89.6388765
88.0768171
90.5186253
92.632821
90.0854266
87.886511
87.8354504
91.6220285
92.4796912
90.2368285
87.941625
88.0878099
92.7045387
92.7286798
88.2498286
88.0394067
91.0742012
92.4786134
91.0246617
88.1294837
87.9512513
90.5064764
92.6182293
90.6688235
87.895249
87.7912117
90.2296137
92.7504729
92.4382903
92.4535484
90.8587657
87.8513269
87.6054992
89.6544778
92.730389
90.3633886
88.0359748
89.387131
92.7612461
90.5630471
88.1486814
89.5790011
92.746332
91.0430501
88.0252558
87.7831383
89.788367
92.6589956
90.604143
88.0748704
89.3818728
92.6916303
90.7448613
88.2202507
89.5669086
92.6127722
92.859296
88.4484824
88.0482351
89.8978712
92.5847795
91.2157066
88.1548106
88.0006085
88.022354
87.9643134
87.9525561
90.5163849
92.562652
92.4454282
92.3430824
91.5314582
88.2627232
89.3810988
92.6174619
91.4175249
88.1433703
87.9672916
87.9788225
87.8673602
87.8533775
90.1235542
92.6067009
92.2893376
91.4327622
88.4096238
89.3381949
92.5287974
92.8070625
88.434617
87.9445131
89.3275304
92.6152962
91.5080307
88.1436029
89.0098339
92.6676856
91.7838954
87.9942381
87.5564136
88.2818699
92.879882
91.2756978
88.0388761
88.7199275
92.7044208
91.6590351
88.1654446
88.9068715
92.6331328
91.5999811
88.1833545
88.9484414
92.7267787
92.3634751
92.3926998
91.7027541
88.0384324
87.8613674
87.8583536
88.053088
89.4049126
89.0016926
88.2455266
89.7041242
92.6242108
92.2275688
92.314183
88.3338678
88.8717244
92.4915029
92.5372437
88.3190797
88.0148872
87.9402506
88.876687
92.5380673
92.2534406
88.2792701
88.8682813
92.4676861
92.3866603
89.0587445
87.9857293
88.9277554
92.5527603
92.8655004
88.0839269
87.7107914
88.7156456
92.60094
92.8022078
88.1235694
87.8017547
88.8016584
92.5784364
92.9322718
88.1674221
87.8134537
88.8965243
92.5558065
92.5116654
88.2718664
87.9569653
87.8654305
88.9040418
92.6681027
92.374871
92.435698
91.9835492
88.0841627
88.4288258
92.5727919
92.5318317
87.9750014
87.581702
88.3833139
92.6516256
92.3287392
88.0406759
88.3755675
92.5718318
92.5390779
88.0774996
88.414468
92.5542735
92.6025918
88.1118741
88.4512565
92.5315398
92.9543608
88.0897643
87.6835748
88.5565004
92.6065965
92.563141
88.0980127
88.4311837
92.541161
92.6945977
88.1106486
88.4266862
92.52674
92.8543916
88.1070916
87.7096832
88.5618022
92.6048523
92.6516035
88.1121751
88.437135
92.5455113
92.7182232
88.1081161
88.410454
92.5407895
92.8505448
88.0808169
87.6706737
88.4624028
92.6418757
92.5939661
88.0494895
88.3139824
92.5862739
92.7470472
88.07134
88.324785
92.5774035
92.8690005
)
;

boundaryField
{
    closed
    {
        type            calculated;
        value           uniform 120.256273;
    }
    open
    {
        type            calculated;
        value           nonuniform List<scalar> 0();
    }
    sides
    {
        type            empty;
    }
    procBoundary0to1
    {
        type            processor;
        value           uniform 88.1329216;
    }
}


// ************************************************************************* //
