/*--------------------------------*- C++ -*----------------------------------*\
| =========                 |                                                 |
| \\      /  F ield         | OpenFOAM: The Open Source CFD Toolbox           |
|  \\    /   O peration     | Version:  2306                                  |
|   \\  /    A nd           | Website:  www.openfoam.com                      |
|    \\/     M anipulation  |                                                 |
\*---------------------------------------------------------------------------*/
FoamFile
{
    version     2.0;
    format      ascii;
    arch        "LSB;label=32;scalar=64";
    class       volScalarField;
    location    "0.00114";
    object      prefDh_H2;
}
// * * * * * * * * * * * * * * * * * * * * * * * * * * * * * * * * * * * * * //

dimensions      [1 1 -3 0 0 0 0];

internalField   nonuniform List<scalar> 
530
(
47.2255302
31.66181
28.9720845
28.9214912
28.9167552
28.9165975
28.916587
28.9165866
28.9165866
28.9165866
28.9165866
28.9165866
28.9165866
28.9165866
28.9165866
28.9165866
28.9165866
28.9165866
28.9165866
28.9165866
28.9165866
28.9165866
28.9165866
28.9165866
28.9165866
28.9165866
28.9165866
28.9165866
28.9165866
28.9165866
28.9165866
28.9165866
28.9165866
28.9165866
28.9165866
28.9165866
28.9165866
28.9165866
28.9165866
28.9165866
28.9165866
28.9165866
28.9165866
28.9165866
28.9165866
28.9165866
28.9165866
28.9165866
28.9165866
28.9165866
28.9165866
28.9165866
28.9165866
28.9165866
28.9165866
28.9165866
28.9165866
28.9165866
28.9165866
28.9165866
28.9165866
28.9165866
28.9165867
28.9165868
28.9165873
28.9165887
28.9165925
28.9166031
28.9166207
28.916696
28.9167839
28.9171532
28.917521
28.9189549
28.9206233
28.9245915
28.9260561
28.9361929
28.9525561
29.0024073
28.9442066
28.9058498
29.0062543
29.4352033
29.0696038
28.9628571
28.7848555
37.7660382
38.0142983
28.6663009
24.3254652
27.0972797
37.976311
37.8561614
28.8474206
23.8626912
26.3043433
34.3342436
38.35173
37.5459369
29.8810702
25.3310295
25.5167945
25.5231352
25.3154994
30.379495
38.4048818
38.4212212
38.3050125
30.7584344
25.0363973
29.2823697
38.4964852
38.3623722
22.8776639
22.1681433
25.2861041
25.397992
25.7699383
29.5645097
38.7338523
38.2090138
38.7902232
38.0925791
28.9509507
24.0164994
28.8671769
38.2902357
38.6023284
21.4882723
23.6736159
32.7710254
29.8593053
24.983799
29.3847907
38.4173373
38.2863781
24.8908043
29.2707835
38.4875539
34.0997479
24.9403272
29.1664953
38.5094134
38.507137
30.7576566
22.5016211
25.3256606
32.1467919
29.8391084
24.8791986
28.8587783
38.6696001
33.0117938
25.8070635
28.9882998
38.731573
38.6904465
28.3799975
23.7555597
29.1059476
38.2610222
38.3231087
24.0968582
26.4717525
38.0837327
38.5368249
22.4035241
23.040903
36.8321546
37.8630321
31.1898728
26.1170986
29.2166416
38.0916425
38.407342
23.5435575
22.5533303
23.5823629
29.772617
38.0548271
38.7217241
25.2639867
26.8856097
38.2946961
37.6077867
24.9224459
28.1924594
38.544246
38.5294631
28.3789425
23.5294405
28.7549854
38.2403953
33.8667575
25.3162608
29.1271196
38.4118254
38.7782232
28.9069561
24.7688347
28.9262645
38.0793144
38.7354072
25.4998956
18.5207794
24.8084483
35.9175454
34.6745414
24.9931588
27.2038466
37.8930912
38.8513527
27.4814757
26.6588309
37.715096
38.895971
27.7670738
27.4042244
37.7494006
38.6475125
26.9458864
22.7255581
29.0958849
37.8182396
38.0216035
28.5149463
28.9108063
30.8815091
28.89375
28.8212505
37.4996599
39.1430238
28.7113603
26.8927564
36.8123585
38.7745697
29.0118199
27.4692682
36.3593084
38.215102
28.9516728
18.8964673
21.6226566
36.6157104
38.5308442
27.4239076
24.9035322
35.437871
38.6163466
28.8725167
28.0011006
35.7830774
38.3839639
28.6860362
23.7589815
25.5741604
36.7586041
39.1581213
28.3688735
24.8800159
34.3838716
38.2440156
29.1602726
25.475349
25.0831832
36.1264652
38.733495
28.7727213
26.2399999
32.9427395
38.1787323
28.6723973
24.8116708
24.0025189
23.7490249
34.3215338
38.4472078
28.7731761
26.8572329
31.2145013
38.0211886
38.4441706
28.1499818
22.8314035
27.194235
33.7340803
38.3159343
38.6202396
28.4543588
26.2757486
25.0885635
25.3988541
33.870766
37.939973
29.4063024
24.4160796
23.0709697
32.2290614
38.1291291
29.0157275
26.888157
29.8700334
37.5645622
29.3817206
24.1529809
23.3398131
32.3187619
37.9377049
29.6504284
24.9244133
26.7767975
35.2704935
35.3158214
29.092262
25.9676972
31.046181
37.9035183
31.0355907
27.6294319
24.887548
29.8608939
37.5712541
30.3471727
24.5517828
22.5944143
29.3757354
37.1003715
38.1343242
38.1347599
30.6696302
24.0130397
20.3871067
28.5640913
37.2840009
29.7664135
26.2219313
28.3471114
37.2687312
30.0704781
27.5288556
28.5830461
37.1431687
31.0321508
26.0837452
22.7272809
28.762664
37.5412772
30.171214
26.8505538
28.329228
37.6352312
30.3893696
28.5877843
28.7005963
37.5186756
35.6427457
28.9774152
25.9849373
28.971515
37.7830344
31.3852242
28.0582504
25.7845611
26.0869335
25.2345221
24.8164484
29.9288119
37.7207354
37.9051344
38.3328943
32.0974722
29.1461508
28.6417732
37.8693593
31.8315528
27.7791809
25.2454716
25.4527826
24.1276961
23.485177
29.1263591
37.4282558
38.622995
31.8694419
29.0957109
28.7743952
37.9902553
37.1590747
28.7915133
24.470371
28.460287
37.7322045
32.03877
27.4749336
28.6026991
37.8162445
32.7087726
25.9946195
19.3106325
28.5659597
37.2337641
31.4798948
25.7328696
28.6790176
37.4665913
32.4075271
27.5423858
28.6468552
37.6959307
32.2624355
27.7607733
28.5753613
37.7123725
38.5262581
38.3062363
32.517274
26.7323935
24.1820752
24.395096
26.7423446
28.7141065
28.527626
28.8699153
28.6686727
37.5130468
38.8611724
34.1098117
29.0553695
29.073136
38.2995896
34.7781624
29.2541813
25.8208784
24.8780033
28.6882448
38.0297191
33.9831344
29.2410804
28.9387419
38.2966735
38.5128342
28.660918
25.2037533
28.7595033
38.0841683
35.7500216
27.2088539
21.3278113
28.7065469
37.9039318
35.5523637
27.5611383
22.4575832
28.8438984
37.8499209
35.9309494
28.0524877
22.5779511
28.7944243
37.8297628
34.6986812
29.0162652
25.0318727
23.5571562
28.6472933
37.683303
38.3163183
37.8376073
33.2425999
26.6526158
29.4673215
38.2930026
34.7627511
25.7229627
19.6311283
28.9582009
37.7490444
34.2152217
25.915006
29.461986
38.0321886
34.8227347
26.4601757
29.5102832
38.017444
34.9954879
26.9065383
29.7874134
38.2059402
36.7098939
27.1856997
20.8091375
28.8842233
37.7569997
34.8877384
26.7372366
29.5467436
38.0649038
35.2709281
26.9660433
29.8229126
38.2157509
37.1313052
27.4309223
21.1684009
28.9161215
37.7198674
35.1459049
26.9307022
29.5975737
38.0029279
35.3345764
26.9482216
29.8836195
38.1703466
37.1344543
27.1528389
20.6655409
28.9430468
37.6466993
34.9838317
26.1428436
29.5357921
37.9376996
35.4412378
26.5022607
29.6163786
37.8838547
35.7893998
)
;

boundaryField
{
    closed
    {
        type            calculated;
        value           uniform 250.284004;
    }
    open
    {
        type            calculated;
        value           nonuniform List<scalar> 0();
    }
    sides
    {
        type            empty;
    }
    procBoundary0to1
    {
        type            processor;
        value           uniform 27.2789229;
    }
}


// ************************************************************************* //
