/*--------------------------------*- C++ -*----------------------------------*\
| =========                 |                                                 |
| \\      /  F ield         | OpenFOAM: The Open Source CFD Toolbox           |
|  \\    /   O peration     | Version:  2306                                  |
|   \\  /    A nd           | Website:  www.openfoam.com                      |
|    \\/     M anipulation  |                                                 |
\*---------------------------------------------------------------------------*/
FoamFile
{
    version     2.0;
    format      ascii;
    arch        "LSB;label=32;scalar=64";
    class       volScalarField;
    location    "0.00182";
    object      H;
}
// * * * * * * * * * * * * * * * * * * * * * * * * * * * * * * * * * * * * * //

dimensions      [0 0 0 0 0 0 0];

internalField   nonuniform List<scalar> 
531
(
4.62027361e-08
3.98283892e-08
1.3268277e-09
1.24745987e-09
3.14018641e-08
4.639668e-08
4.02981693e-08
1.32102376e-09
1.24700272e-09
3.27380628e-08
4.69968124e-08
4.12085123e-08
1.32805324e-09
1.21426764e-09
3.378078e-08
4.85310168e-08
4.19940685e-08
1.23784962e-09
1.23945856e-09
4.05784832e-08
4.02151771e-08
1.33848046e-09
1.24376629e-09
3.95295274e-08
3.96571643e-08
1.40594387e-09
1.20265129e-09
3.3664745e-08
4.86018392e-08
4.16962334e-08
1.18672738e-09
1.37228107e-09
1.14278816e-09
3.3670085e-08
4.79083889e-08
4.41359063e-08
5.72050451e-08
4.97528704e-08
9.67054164e-10
1.12232904e-09
9.9513086e-10
1.09644329e-09
1.14762115e-09
1.10629109e-09
2.28940088e-08
4.95327405e-08
4.45018082e-08
1.2932322e-09
1.11121763e-09
3.8519196e-08
5.40501592e-08
4.43330126e-08
1.15589615e-09
1.33148218e-09
1.15713541e-09
3.84155972e-08
4.21559978e-08
1.40767516e-09
1.18665503e-09
3.91183543e-08
3.74964039e-08
1.44214798e-09
1.28909329e-09
2.7454072e-08
3.89983541e-08
3.83642404e-08
4.26746609e-08
4.2850938e-08
4.97688292e-08
4.41125372e-08
1.22882409e-09
1.23307081e-09
1.30867236e-09
1.20925115e-09
3.44514631e-08
3.71108597e-08
1.45384616e-09
1.22406346e-09
3.05372525e-08
4.4730201e-08
3.95462704e-08
1.35652762e-09
1.18542797e-09
3.38728422e-08
4.72282393e-08
4.1744702e-08
1.33305968e-09
1.13034183e-09
3.47845718e-08
5.08621591e-08
4.20692411e-08
1.22043891e-09
1.36090811e-09
1.15681372e-09
3.52232111e-08
3.9752069e-08
1.44415022e-09
1.21265183e-09
3.43256464e-08
4.16447089e-08
4.44604432e-08
4.21107158e-08
1.2994758e-09
1.11561308e-09
4.12442561e-08
4.06114285e-08
1.38538347e-09
1.15406927e-09
3.48390128e-08
4.66618535e-08
4.1810863e-08
1.31386378e-09
1.15343397e-09
3.45617874e-08
4.79983472e-08
4.34951511e-08
1.28991441e-09
1.10039194e-09
3.70803091e-08
5.28272666e-08
4.63287799e-08
1.18981805e-09
1.15931893e-09
1.29721302e-09
1.11664342e-09
2.88166252e-08
4.82402006e-08
4.32567941e-08
1.27071766e-09
1.22044688e-09
4.00567661e-08
4.16732257e-08
1.40376554e-09
1.19340619e-09
3.42753792e-08
4.65095976e-08
4.32312122e-08
1.32676263e-09
1.2065477e-09
3.35924631e-08
4.68938654e-08
4.39876312e-08
1.33594158e-09
1.17472208e-09
3.28315263e-08
4.90079755e-08
4.32869958e-08
1.18698018e-09
1.36432473e-09
1.17562482e-09
3.23012962e-08
4.64590546e-08
4.31636274e-08
1.27816977e-09
1.27301024e-09
3.80666766e-08
4.08207325e-08
1.38022257e-09
1.26505849e-09
3.21093477e-08
4.47030242e-08
4.27959963e-08
1.33488312e-09
1.24676954e-09
3.02270185e-08
4.52881688e-08
4.28507707e-08
1.28886109e-09
1.2997429e-09
3.64160656e-08
3.88014646e-08
1.36674389e-09
1.31516427e-09
3.21989118e-08
3.97376215e-08
4.33237913e-08
4.3956548e-08
1.26573976e-09
1.18275349e-09
3.71219965e-08
5.18403721e-08
4.73427045e-08
1.10502831e-09
1.23301214e-09
1.17660558e-09
4.18638578e-08
4.14515045e-08
1.15366029e-09
3.94605735e-08
5.27207689e-08
1.20055325e-09
1.1488586e-09
1.21942395e-09
1.21052022e-09
4.22206997e-08
4.08271409e-08
1.19581303e-09
3.84189661e-08
4.8108236e-08
1.17658843e-09
1.27037308e-09
1.12944886e-09
3.53109159e-08
5.04398499e-08
4.87125889e-08
1.22937408e-09
1.13530004e-09
3.67054817e-08
5.28950677e-08
4.80688016e-08
1.09986414e-09
1.23296679e-09
1.17764315e-09
3.98655417e-08
4.06794989e-08
1.19902582e-09
3.70018913e-08
4.75383257e-08
1.19459569e-09
1.27133359e-09
1.13705202e-09
3.4567124e-08
4.91407427e-08
4.76915063e-08
1.2185793e-09
1.14956747e-09
3.69261189e-08
5.04823596e-08
4.97550137e-08
1.17047176e-09
1.05843515e-09
4.07597164e-08
6.00975555e-08
5.5196747e-08
9.52390922e-10
1.11232936e-09
9.73142337e-10
1.18438883e-09
1.07415561e-09
1.26728821e-09
1.13080756e-09
3.71464221e-08
4.58867889e-08
5.12154075e-08
5.0128386e-08
1.05911916e-09
1.01770576e-09
4.85280341e-08
4.59248317e-08
1.06112623e-09
1.29697903e-09
1.01600204e-09
2.92273975e-08
5.30683885e-08
4.23423802e-08
9.74778609e-10
3.78379397e-08
4.86148348e-08
1.19889557e-09
9.83768233e-10
4.37829056e-08
4.13956542e-08
1.09763069e-09
1.3289187e-09
1.03846132e-09
3.10273381e-08
4.9306685e-08
4.38425872e-08
1.20679138e-09
1.31885796e-09
1.085308e-09
3.33842622e-08
4.6248201e-08
4.4073665e-08
5.44689815e-08
5.13926667e-08
1.02647919e-09
1.17838384e-09
1.07598973e-09
1.26299066e-09
1.09757378e-09
3.85687661e-08
4.1149547e-08
1.27934522e-09
1.17083708e-09
3.55933888e-08
4.2959733e-08
4.60173814e-08
4.43452686e-08
1.16186152e-09
1.15509148e-09
4.14056368e-08
4.29559179e-08
1.26539191e-09
1.14610914e-09
3.55641659e-08
4.75226298e-08
4.54727721e-08
1.22028413e-09
1.19370208e-09
3.91447324e-08
4.37123475e-08
1.2781764e-09
1.16458982e-09
3.64118589e-08
4.97666915e-08
4.74220619e-08
1.15619956e-09
1.19125891e-09
4.40591526e-08
4.36020458e-08
1.11034054e-09
1.28957948e-09
1.15278178e-09
3.98401722e-08
4.34499612e-08
1.10867621e-09
1.32949974e-09
1.17213717e-09
3.60677937e-08
5.08016671e-08
4.85605828e-08
1.14296124e-09
1.22073032e-09
4.08205267e-08
4.41972852e-08
1.12524758e-09
1.25583501e-09
3.95892431e-08
4.20447201e-08
1.15344841e-09
1.25176782e-09
3.56735542e-08
4.27055625e-08
4.65547695e-08
4.65741878e-08
1.04510985e-09
1.18897427e-09
4.3110015e-08
4.46623507e-08
1.00811262e-09
1.19174409e-09
4.3834736e-08
4.42072493e-08
1.04959329e-09
1.23348244e-09
1.25978481e-09
1.24053684e-09
3.05746408e-08
4.16657847e-08
4.42318904e-08
4.45112868e-08
1.08085155e-09
1.15370116e-09
3.91562067e-08
5.20041693e-08
4.99994837e-08
1.07521979e-09
1.16610481e-09
4.41621688e-08
4.62754796e-08
1.05385344e-09
1.15691449e-09
4.57862801e-08
4.47804584e-08
1.06869831e-09
1.27736343e-09
1.11726368e-09
3.9216751e-08
4.47806522e-08
1.1911026e-09
1.19340892e-09
4.12211311e-08
4.34456031e-08
1.23617685e-09
1.17182472e-09
3.77723787e-08
4.85066504e-08
4.55722332e-08
1.2054949e-09
1.20721944e-09
4.0021527e-08
4.27404668e-08
1.27664719e-09
1.19132272e-09
3.67427879e-08
4.75399758e-08
4.44491329e-08
1.22533003e-09
1.21627229e-09
3.99870393e-08
4.26219797e-08
1.28857957e-09
1.18933074e-09
3.74554892e-08
4.83562029e-08
4.51956956e-08
1.19136508e-09
1.22482569e-09
4.13946561e-08
4.22845616e-08
1.20610831e-09
1.22099506e-09
4.13960072e-08
4.1328563e-08
1.23300689e-09
1.24116695e-09
4.09012125e-08
4.18091287e-08
1.25227826e-09
1.21727348e-09
3.79486688e-08
4.84765284e-08
4.53721939e-08
1.17648796e-09
1.20332639e-09
4.17604717e-08
4.26249059e-08
1.15931863e-09
1.21651978e-09
4.28438783e-08
4.10525041e-08
1.1805801e-09
1.3420871e-09
1.20675341e-09
3.80986251e-08
4.1962028e-08
1.27642969e-09
1.2527466e-09
3.54169206e-08
4.59059459e-08
4.31825341e-08
1.23298367e-09
1.28941429e-09
3.69624524e-08
3.8148897e-08
1.27317696e-09
1.32576847e-09
3.01764011e-08
3.84684168e-08
4.06210238e-08
4.02859033e-08
1.3029781e-09
1.29352935e-09
3.39821207e-08
4.03899236e-08
4.38470098e-08
4.11144759e-08
1.13513293e-09
3.54173382e-08
4.64492453e-08
1.19555386e-09
1.21413016e-09
4.07888758e-08
4.51215176e-08
1.1714966e-09
1.1685181e-09
3.93760625e-08
5.28065214e-08
4.936629e-08
1.04675783e-09
1.2480647e-09
1.12519041e-09
1.31854796e-09
1.2052407e-09
3.54240446e-08
4.60091918e-08
4.4296445e-08
1.21435397e-09
1.19053061e-09
3.39947131e-08
5.06696274e-08
4.2491597e-08
1.03811356e-09
3.80278374e-08
4.98180453e-08
1.08579528e-09
1.15654918e-09
4.59875593e-08
4.69254233e-08
1.00537248e-09
1.18271706e-09
1.17773271e-09
1.19814477e-09
3.84357092e-08
4.44890902e-08
1.1780862e-09
1.19361326e-09
3.69236611e-08
4.97373767e-08
4.68100204e-08
1.09022559e-09
1.28103481e-09
1.23606345e-09
3.80298701e-08
4.50117961e-08
4.94866622e-08
4.82605996e-08
1.04746038e-09
1.28544501e-09
1.13876916e-09
3.50159095e-08
4.42657544e-08
1.19454025e-09
1.27375781e-09
3.70659491e-08
3.91586654e-08
1.22738293e-09
1.31896904e-09
2.94479068e-08
3.85708961e-08
4.1422262e-08
4.15005682e-08
1.18885279e-09
1.24758456e-09
3.35456924e-08
4.46882289e-08
4.39722263e-08
1.23033999e-09
1.24059359e-09
3.23956056e-08
4.50857127e-08
4.45263833e-08
1.23199394e-09
1.21143137e-09
3.28296955e-08
4.73231413e-08
4.46699514e-08
1.10614877e-09
1.33468565e-09
1.23461966e-09
)
;

boundaryField
{
    closed
    {
        type            calculated;
        value           nonuniform List<scalar> 0();
    }
    open
    {
        type            calculated;
        value           nonuniform List<scalar> 0();
    }
    sides
    {
        type            empty;
    }
    procBoundary3to2
    {
        type            processor;
        value           uniform 3.09347764e-08;
    }
    procBoundary3to4
    {
        type            processor;
        value           uniform 3.35283014e-08;
    }
}


// ************************************************************************* //
