/*--------------------------------*- C++ -*----------------------------------*\
| =========                 |                                                 |
| \\      /  F ield         | OpenFOAM: The Open Source CFD Toolbox           |
|  \\    /   O peration     | Version:  2306                                  |
|   \\  /    A nd           | Website:  www.openfoam.com                      |
|    \\/     M anipulation  |                                                 |
\*---------------------------------------------------------------------------*/
FoamFile
{
    version     2.0;
    format      ascii;
    arch        "LSB;label=32;scalar=64";
    class       volScalarField;
    location    "0.00182";
    object      prefDZ_H2O;
}
// * * * * * * * * * * * * * * * * * * * * * * * * * * * * * * * * * * * * * //

dimensions      [1 -1 -1 0 0 0 0];

internalField   nonuniform List<scalar> 
531
(
-7.3446545e-07
-7.37013278e-07
-7.73573326e-07
-7.74196636e-07
-7.4256173e-07
-7.34387058e-07
-7.36779823e-07
-7.73612177e-07
-7.7421625e-07
-7.4131169e-07
-7.34063615e-07
-7.36472435e-07
-7.73580548e-07
-7.7445249e-07
-7.40237632e-07
-7.33572956e-07
-7.35968689e-07
-7.7424144e-07
-7.74280898e-07
-7.36733327e-07
-7.37159622e-07
-7.73496253e-07
-7.74188734e-07
-7.36960254e-07
-7.37531755e-07
-7.72993705e-07
-7.74494442e-07
-7.4031305e-07
-7.33633843e-07
-7.36034735e-07
-7.74601089e-07
-7.73181772e-07
-7.74951972e-07
-7.4053869e-07
-7.34264405e-07
-7.35326741e-07
-7.29954955e-07
-7.32842755e-07
-7.76357791e-07
-7.75123173e-07
-7.76122598e-07
-7.75299404e-07
-7.74901375e-07
-7.75227146e-07
-7.51407071e-07
-7.33062461e-07
-7.35247697e-07
-7.73837474e-07
-7.75240431e-07
-7.37532873e-07
-7.31122583e-07
-7.34914763e-07
-7.74931701e-07
-7.73534572e-07
-7.74931936e-07
-7.37541408e-07
-7.36258639e-07
-7.72997788e-07
-7.74629226e-07
-7.36937434e-07
-7.3833366e-07
-7.72760507e-07
-7.73779264e-07
-7.46451898e-07
-7.37768871e-07
-7.37652576e-07
-7.3613792e-07
-7.35810368e-07
-7.32890755e-07
-7.35176639e-07
-7.74383615e-07
-7.74272495e-07
-7.73730466e-07
-7.74439904e-07
-7.3972033e-07
-7.3848827e-07
-7.72600783e-07
-7.74311481e-07
-7.43374493e-07
-7.35098172e-07
-7.37031767e-07
-7.73357436e-07
-7.74661413e-07
-7.40220585e-07
-7.34013689e-07
-7.3614421e-07
-7.73535465e-07
-7.75086121e-07
-7.39362403e-07
-7.32521409e-07
-7.35864816e-07
-7.74426759e-07
-7.73287361e-07
-7.74895455e-07
-7.3900303e-07
-7.37328372e-07
-7.72679207e-07
-7.74383359e-07
-7.39781312e-07
-7.36629487e-07
-7.3500005e-07
-7.36242146e-07
-7.73822773e-07
-7.75142657e-07
-7.36368102e-07
-7.37055981e-07
-7.73132902e-07
-7.74849094e-07
-7.39357285e-07
-7.34442584e-07
-7.36198502e-07
-7.73647967e-07
-7.74889198e-07
-7.39716258e-07
-7.33824266e-07
-7.35583456e-07
-7.73828571e-07
-7.75301267e-07
-7.38418533e-07
-7.31708905e-07
-7.34332063e-07
-7.74656939e-07
-7.74827517e-07
-7.73806017e-07
-7.75146435e-07
-7.45154785e-07
-7.33718279e-07
-7.35552667e-07
-7.73997078e-07
-7.7437375e-07
-7.36948572e-07
-7.36552451e-07
-7.72994399e-07
-7.74560911e-07
-7.39829848e-07
-7.34423306e-07
-7.35543873e-07
-7.73560736e-07
-7.74501814e-07
-7.40574809e-07
-7.34162861e-07
-7.35378325e-07
-7.73506411e-07
-7.74717304e-07
-7.41198967e-07
-7.33448024e-07
-7.35433302e-07
-7.74628509e-07
-7.7324743e-07
-7.74712712e-07
-7.41760185e-07
-7.34522271e-07
-7.35584284e-07
-7.73923587e-07
-7.73977588e-07
-7.37809864e-07
-7.36860278e-07
-7.73164778e-07
-7.74013642e-07
-7.41920622e-07
-7.35125387e-07
-7.3585889e-07
-7.73517391e-07
-7.74161252e-07
-7.43720175e-07
-7.34966107e-07
-7.35699201e-07
-7.73838043e-07
-7.73763398e-07
-7.38541284e-07
-7.37751528e-07
-7.73257588e-07
-7.73582327e-07
-7.41860431e-07
-7.37476927e-07
-7.35615372e-07
-7.35572649e-07
-7.74046923e-07
-7.74657662e-07
-7.38336623e-07
-7.32218017e-07
-7.33970148e-07
-7.75274359e-07
-7.74232986e-07
-7.74710164e-07
-7.36428863e-07
-7.36697131e-07
-7.74965991e-07
-7.37367129e-07
-7.31644003e-07
-7.74594286e-07
-7.7491429e-07
-7.74418314e-07
-7.74434602e-07
-7.36166271e-07
-7.36940806e-07
-7.74635152e-07
-7.37873631e-07
-7.33726594e-07
-7.74761298e-07
-7.73909249e-07
-7.75114113e-07
-7.39360787e-07
-7.32814205e-07
-7.33515294e-07
-7.74266165e-07
-7.75010555e-07
-7.38738741e-07
-7.31815258e-07
-7.33771867e-07
-7.75307733e-07
-7.74211296e-07
-7.74684267e-07
-7.37367866e-07
-7.37145286e-07
-7.74587805e-07
-7.38641703e-07
-7.34054165e-07
-7.74601989e-07
-7.73886194e-07
-7.75018045e-07
-7.39925037e-07
-7.33496776e-07
-7.33996667e-07
-7.74331903e-07
-7.74878935e-07
-7.38808012e-07
-7.32930768e-07
-7.33149276e-07
-7.74714099e-07
-7.75567754e-07
-7.37150563e-07
-7.28623262e-07
-7.30585359e-07
-7.76441966e-07
-7.75186319e-07
-7.76257127e-07
-7.74615284e-07
-7.75451243e-07
-7.73936224e-07
-7.74973985e-07
-7.38649476e-07
-7.35021236e-07
-7.32430579e-07
-7.32919912e-07
-7.75656453e-07
-7.75855876e-07
-7.33640445e-07
-7.34730893e-07
-7.75630703e-07
-7.73693434e-07
-7.75908522e-07
-7.44878123e-07
-7.31794152e-07
-7.36056022e-07
-7.76254599e-07
-7.38253029e-07
-7.33697944e-07
-7.74561682e-07
-7.76088574e-07
-7.35669492e-07
-7.36696802e-07
-7.75355163e-07
-7.73439892e-07
-7.75713815e-07
-7.4312352e-07
-7.33486151e-07
-7.35430766e-07
-7.74477817e-07
-7.73544718e-07
-7.75315438e-07
-7.40903804e-07
-7.34927302e-07
-7.3548743e-07
-7.31091134e-07
-7.32109988e-07
-7.7590179e-07
-7.74682876e-07
-7.75479171e-07
-7.74002892e-07
-7.75264259e-07
-7.37877579e-07
-7.3682835e-07
-7.73949421e-07
-7.74681751e-07
-7.39004317e-07
-7.36184894e-07
-7.34585733e-07
-7.35356864e-07
-7.74875377e-07
-7.74825795e-07
-7.36641181e-07
-7.36113739e-07
-7.74060261e-07
-7.74887514e-07
-7.389757e-07
-7.34209399e-07
-7.34724704e-07
-7.7436365e-07
-7.745577e-07
-7.37565166e-07
-7.35767377e-07
-7.73956805e-07
-7.7476222e-07
-7.38560671e-07
-7.33200126e-07
-7.338207e-07
-7.74862907e-07
-7.74596563e-07
-7.35460444e-07
-7.35643197e-07
-7.75287309e-07
-7.73796161e-07
-7.749285e-07
-7.37189684e-07
-7.3569109e-07
-7.75278592e-07
-7.7347957e-07
-7.7477533e-07
-7.38712888e-07
-7.32643173e-07
-7.33297234e-07
-7.74946928e-07
-7.7439622e-07
-7.36869751e-07
-7.35323297e-07
-7.75086656e-07
-7.74084499e-07
-7.37353746e-07
-7.36361164e-07
-7.74850482e-07
-7.74093947e-07
-7.39058732e-07
-7.36222647e-07
-7.34500016e-07
-7.34446576e-07
-7.75692235e-07
-7.74590918e-07
-7.35982373e-07
-7.35319936e-07
-7.75972717e-07
-7.7456032e-07
-7.35581203e-07
-7.35530356e-07
-7.75693437e-07
-7.74218039e-07
-7.74045983e-07
-7.74165729e-07
-7.43530496e-07
-7.36727576e-07
-7.35450467e-07
-7.35407331e-07
-7.75433608e-07
-7.74860281e-07
-7.37478734e-07
-7.32244626e-07
-7.32779775e-07
-7.75451046e-07
-7.74801304e-07
-7.35557876e-07
-7.34550187e-07
-7.75659097e-07
-7.74842878e-07
-7.34698775e-07
-7.35229053e-07
-7.75574385e-07
-7.73882547e-07
-7.75182712e-07
-7.37472074e-07
-7.35261011e-07
-7.74622794e-07
-7.7454032e-07
-7.36530784e-07
-7.35888088e-07
-7.74280769e-07
-7.74710936e-07
-7.37989229e-07
-7.33744289e-07
-7.34628816e-07
-7.74471862e-07
-7.74472447e-07
-7.37198316e-07
-7.36114671e-07
-7.73952822e-07
-7.74564905e-07
-7.3846586e-07
-7.34139415e-07
-7.3513323e-07
-7.74325973e-07
-7.74396929e-07
-7.37141729e-07
-7.36187986e-07
-7.73871009e-07
-7.74579585e-07
-7.38050534e-07
-7.33819489e-07
-7.34682192e-07
-7.7456663e-07
-7.74365251e-07
-7.36656401e-07
-7.36135816e-07
-7.74487479e-07
-7.74362503e-07
-7.36486545e-07
-7.36626994e-07
-7.74306614e-07
-7.74195397e-07
-7.36576664e-07
-7.36473382e-07
-7.74154473e-07
-7.74388498e-07
-7.37757593e-07
-7.33690784e-07
-7.34589412e-07
-7.74691251e-07
-7.74540307e-07
-7.36372926e-07
-7.35967893e-07
-7.74859084e-07
-7.74419424e-07
-7.35745566e-07
-7.36667184e-07
-7.74733913e-07
-7.73407592e-07
-7.74514726e-07
-7.37686137e-07
-7.36367756e-07
-7.73977021e-07
-7.74121304e-07
-7.38689095e-07
-7.34765901e-07
-7.35443377e-07
-7.74254142e-07
-7.73878225e-07
-7.38333249e-07
-7.37883385e-07
-7.73960082e-07
-7.73525069e-07
-7.43826474e-07
-7.37870986e-07
-7.36772435e-07
-7.3706004e-07
-7.73751042e-07
-7.73783152e-07
-7.40202934e-07
-7.37137792e-07
-7.35495784e-07
-7.36720351e-07
-7.75079838e-07
-7.39014341e-07
-7.3446244e-07
-7.74565512e-07
-7.74408805e-07
-7.36679974e-07
-7.35158528e-07
-7.74757909e-07
-7.74756651e-07
-7.37285151e-07
-7.31840146e-07
-7.32980395e-07
-7.75685568e-07
-7.74159575e-07
-7.75074264e-07
-7.73580569e-07
-7.74445025e-07
-7.39018626e-07
-7.34908489e-07
-7.3531257e-07
-7.7438913e-07
-7.74599595e-07
-7.40287423e-07
-7.32777705e-07
-7.36147734e-07
-7.75800669e-07
-7.38030177e-07
-7.33108615e-07
-7.75401933e-07
-7.74841617e-07
-7.34605468e-07
-7.34323995e-07
-7.76059325e-07
-7.74636981e-07
-7.74700506e-07
-7.74536034e-07
-7.378183e-07
-7.35394865e-07
-7.74697445e-07
-7.74560004e-07
-7.38338702e-07
-7.33176336e-07
-7.3416402e-07
-7.75368633e-07
-7.73864962e-07
-7.74236928e-07
-7.38009341e-07
-7.352074e-07
-7.33050648e-07
-7.33695184e-07
-7.75762906e-07
-7.73827682e-07
-7.75042746e-07
-7.39305623e-07
-7.35436399e-07
-7.74581063e-07
-7.73930313e-07
-7.38315431e-07
-7.37661201e-07
-7.74331166e-07
-7.73550547e-07
-7.44572755e-07
-7.37927401e-07
-7.365305e-07
-7.36614347e-07
-7.74632111e-07
-7.74132939e-07
-7.40610704e-07
-7.35326389e-07
-7.35417812e-07
-7.74289561e-07
-7.74205375e-07
-7.41745853e-07
-7.3508976e-07
-7.35256909e-07
-7.74288868e-07
-7.74420555e-07
-7.4129395e-07
-7.34238535e-07
-7.35074913e-07
-7.75245871e-07
-7.73446151e-07
-7.74221217e-07
)
;

boundaryField
{
    closed
    {
        type            calculated;
        value           nonuniform List<scalar> 0();
    }
    open
    {
        type            calculated;
        value           nonuniform List<scalar> 0();
    }
    sides
    {
        type            empty;
    }
    procBoundary3to2
    {
        type            processor;
        value           uniform -7.43025493e-07;
    }
    procBoundary3to4
    {
        type            processor;
        value           uniform -7.40674623e-07;
    }
}


// ************************************************************************* //
