/*--------------------------------*- C++ -*----------------------------------*\
| =========                 |                                                 |
| \\      /  F ield         | OpenFOAM: The Open Source CFD Toolbox           |
|  \\    /   O peration     | Version:  2306                                  |
|   \\  /    A nd           | Website:  www.openfoam.com                      |
|    \\/     M anipulation  |                                                 |
\*---------------------------------------------------------------------------*/
FoamFile
{
    version     2.0;
    format      ascii;
    arch        "LSB;label=32;scalar=64";
    class       volScalarField;
    location    "0.00182";
    object      T;
}
// * * * * * * * * * * * * * * * * * * * * * * * * * * * * * * * * * * * * * //

dimensions      [0 0 0 1 0 0 0];

internalField   nonuniform List<scalar> 
531
(
322.880041
326.547096
340.272254
340.184998
328.908156
322.765609
326.257934
340.236761
340.255447
328.972715
322.382019
325.770806
340.344676
340.130619
328.828175
321.50959
325.230969
340.036679
340.272013
326.133192
326.483918
340.346636
340.014633
326.622731
326.880169
340.537985
339.889648
328.763552
321.493254
325.373457
339.783749
340.184011
339.76722
329.183482
322.017961
324.100986
316.046895
320.707219
339.780031
339.801013
339.713531
339.639432
339.708592
339.674764
329.77709
320.875457
323.916445
340.235059
339.940837
327.281194
318.074784
323.843426
340.17611
340.268466
340.223092
327.320856
325.308503
340.609516
339.916682
326.74928
328.076522
340.778673
339.82499
328.933901
327.2432
327.40025
325.0488
324.82935
320.712403
324.045742
340.346717
340.001797
340.313258
339.883925
329.044723
328.294486
340.534332
339.843227
328.857782
323.759228
326.655553
340.380008
340.022176
328.956555
322.260281
325.409634
340.326267
339.935827
328.969723
320.067049
325.152318
340.238856
340.23722
340.040706
329.067425
326.739918
340.530185
339.744619
328.940535
325.682379
323.829133
325.318232
340.388426
339.625088
325.70547
326.284429
340.423654
339.706982
329.051695
322.666674
325.411443
340.140087
339.880099
329.22246
321.840903
324.472128
340.078162
339.811774
328.264657
318.851314
322.775085
340.165158
339.810007
340.238667
339.687357
329.066663
321.693002
324.552678
340.134654
339.998051
326.432088
325.634575
340.470179
339.850412
328.94196
322.728535
324.55868
340.216443
340.071412
329.115453
322.463296
324.183638
340.3027
339.877702
328.929103
321.240924
324.486397
339.925767
340.186643
339.890643
329.0301
322.786714
324.603529
340.076603
340.130629
327.588661
326.108372
340.382087
340.003132
328.985286
323.781796
324.873166
340.312653
340.000165
328.948093
323.469262
324.777937
340.082218
340.142786
328.553353
327.303736
340.311564
339.896636
329.034211
326.822316
324.554632
324.279564
340.176805
339.902228
328.203659
319.483311
322.193298
339.863249
339.814845
339.916375
325.502092
325.789376
340.25165
326.864814
318.900461
340.272346
339.822642
340.16418
339.907397
325.239933
326.146053
340.284756
327.503848
321.758262
340.156059
339.719525
340.036651
329.397644
320.353507
321.404794
339.832349
339.758926
328.574106
318.827943
321.791107
339.823073
339.70916
339.831746
326.719129
326.303143
340.18767
328.418892
322.131
340.089251
339.646931
339.866183
329.597533
321.188069
322.040516
339.727997
339.674465
328.539424
320.357638
320.786848
339.693586
339.443043
326.275168
314.125181
317.345799
339.602987
339.714157
339.489513
339.760781
339.495501
339.728286
339.380076
328.374283
323.224829
319.861728
320.539247
339.939412
339.224512
321.53108
323.101413
339.890163
339.725176
339.449898
329.337628
318.724926
325.141017
339.549006
327.914468
321.505401
340.063022
338.985216
324.392638
325.810653
339.970375
339.760542
339.364577
329.303209
321.101259
324.26521
339.969012
339.863034
339.238745
329.353609
323.025561
324.19494
317.822159
319.699997
339.864529
339.853977
339.721969
339.87688
339.501393
327.453799
325.968602
340.232397
339.544721
329.09262
324.954778
323.006349
324.027181
340.136732
339.63084
325.77989
324.924849
340.223121
339.575709
329.084568
322.188375
323.295206
339.944906
339.846461
327.082355
324.463648
340.223317
339.696815
328.566177
320.793631
322.106028
339.860385
339.93793
324.1895
324.455332
340.133765
339.920494
340.04389
326.635734
324.537901
340.027886
339.960505
340.054894
328.766845
320.125831
321.411035
339.748949
340.11177
326.113178
324.074344
339.735126
339.985139
326.811822
325.39999
339.688779
339.876509
329.099821
325.074752
322.735516
322.707802
339.540753
339.822514
324.804092
323.878303
339.456709
339.782579
324.333462
324.157169
339.738908
339.761748
339.955496
339.785323
329.247028
325.720682
324.113576
323.978045
339.687421
339.748128
327.031989
319.397365
320.568653
339.540605
339.947968
324.187557
322.87911
339.73724
339.790247
323.1501
323.791305
339.910955
339.860788
339.895111
327.00709
323.804076
340.055267
339.750645
325.795167
324.625752
340.153604
339.732206
327.788649
321.571876
323.215033
339.89152
339.960041
326.574653
325.012005
340.151489
339.788323
328.403232
322.1578
323.89035
339.959501
339.948871
326.557847
325.092565
340.216865
339.781437
327.928912
321.667408
323.394576
339.798373
340.12124
325.791463
325.20091
339.988426
339.966377
325.708005
325.802255
340.154707
339.948441
325.936041
325.544411
340.170725
339.947284
327.598539
321.570927
323.283395
339.820394
340.12897
325.514954
324.990329
339.963292
340.062475
324.802138
325.925715
340.177601
340.095177
340.138237
327.508224
325.435152
340.249753
340.038754
328.83886
323.12281
324.531409
339.913399
340.277348
328.254186
327.602018
340.058635
340.026876
329.066029
327.48523
326.137724
326.407051
340.20333
340.006762
329.111928
326.408217
324.291633
325.928873
340.090412
329.154185
322.769656
339.954934
339.923345
326.029429
323.616626
339.947964
339.825956
326.850945
318.882103
320.933639
339.57619
340.040363
339.66962
340.011954
339.752676
329.154687
323.128645
324.028914
339.838694
339.924429
329.284561
320.224966
325.125741
339.820623
327.725152
320.744501
339.728587
339.76943
323.026835
322.505177
339.810461
339.800868
339.913608
339.914355
327.46764
323.982383
339.91259
339.85409
328.270034
320.802664
322.50122
339.739891
339.917164
339.949354
327.712844
323.68335
320.894903
321.676178
340.007545
339.910791
340.052593
329.254086
324.093551
339.989669
339.945398
328.209904
327.128569
340.060036
339.893419
329.144743
327.480117
325.719671
325.730637
340.014125
339.900019
329.09992
323.869863
324.206935
339.978593
339.97308
329.173007
323.605079
323.909983
340.037002
339.875745
329.102717
322.292035
323.774728
339.764907
339.999933
339.82085
)
;

boundaryField
{
    closed
    {
        type            fixedValue;
        value           nonuniform List<scalar> 0();
    }
    open
    {
        type            zeroGradient;
    }
    sides
    {
        type            empty;
    }
    procBoundary3to2
    {
        type            processor;
        value           uniform 328.932386;
    }
    procBoundary3to4
    {
        type            processor;
        value           uniform 329.185962;
    }
}


// ************************************************************************* //
