/*--------------------------------*- C++ -*----------------------------------*\
| =========                 |                                                 |
| \\      /  F ield         | OpenFOAM: The Open Source CFD Toolbox           |
|  \\    /   O peration     | Version:  2306                                  |
|   \\  /    A nd           | Website:  www.openfoam.com                      |
|    \\/     M anipulation  |                                                 |
\*---------------------------------------------------------------------------*/
FoamFile
{
    version     2.0;
    format      ascii;
    arch        "LSB;label=32;scalar=64";
    class       volScalarField;
    location    "0.00094";
    object      prefDPV_H2;
}
// * * * * * * * * * * * * * * * * * * * * * * * * * * * * * * * * * * * * * //

dimensions      [1 -1 -1 0 0 0 0];

internalField   nonuniform List<scalar> 
531
(
-3.06107586e-05
-3.15550433e-05
-3.15420473e-05
-3.09006754e-05
-3.06132175e-05
-3.06290005e-05
-3.1547309e-05
-3.15531561e-05
-3.08721393e-05
-3.07429151e-05
-3.15677405e-05
-3.15444851e-05
-3.08924502e-05
-3.07130866e-05
-3.0717834e-05
-3.15537074e-05
-3.15549879e-05
-3.08998995e-05
-3.08084348e-05
-3.07518366e-05
-3.0749502e-05
-3.1561123e-05
-3.15498376e-05
-3.08986373e-05
-3.06788686e-05
-3.06796228e-05
-3.15591605e-05
-3.15487203e-05
-3.08960984e-05
-3.06100566e-05
-3.06997382e-05
-3.15524498e-05
-3.15512155e-05
-3.15492312e-05
-3.09070273e-05
-3.06224001e-05
-3.06240629e-05
-3.15582463e-05
-3.15454368e-05
-3.09028764e-05
-3.05093934e-05
-3.05920356e-05
-3.15392135e-05
-3.15516434e-05
-3.15351222e-05
-3.08307855e-05
-3.05137097e-05
-3.05233922e-05
-3.15348081e-05
-3.15513251e-05
-3.07259946e-05
-3.06028035e-05
-3.15434256e-05
-3.15442138e-05
-3.07116847e-05
-3.05817291e-05
-3.1551947e-05
-3.15349289e-05
-3.08443346e-05
-3.04749875e-05
-3.05624848e-05
-3.1532577e-05
-3.15417845e-05
-3.15307369e-05
-3.08699836e-05
-3.05930208e-05
-3.05948592e-05
-3.15454016e-05
-3.15355973e-05
-3.09075914e-05
-3.05827558e-05
-3.05858192e-05
-3.15443391e-05
-3.15364444e-05
-3.09124597e-05
-3.04908039e-05
-3.05953139e-05
-3.15363233e-05
-3.15353399e-05
-3.15378291e-05
-3.08385935e-05
-3.0603398e-05
-3.1556537e-05
-3.15314451e-05
-3.08901643e-05
-3.05160183e-05
-3.05937931e-05
-3.1536209e-05
-3.15394538e-05
-3.15361634e-05
-3.0887658e-05
-3.06979435e-05
-3.06056449e-05
-3.06137748e-05
-3.15491032e-05
-3.15234411e-05
-3.08229594e-05
-3.04953599e-05
-3.05158669e-05
-3.1520796e-05
-3.15440737e-05
-3.07347728e-05
-3.06377433e-05
-3.15325429e-05
-3.15407286e-05
-3.06579804e-05
-3.06718038e-05
-3.15487801e-05
-3.15367991e-05
-3.15329883e-05
-3.08688811e-05
-3.05540909e-05
-3.04754487e-05
-3.0480151e-05
-3.15369734e-05
-3.15243536e-05
-3.15264395e-05
-3.07551332e-05
-3.05131e-05
-3.15451573e-05
-3.15214002e-05
-3.15390033e-05
-3.15246614e-05
-3.09092506e-05
-3.06083282e-05
-3.07265096e-05
-3.05013412e-05
-3.0505057e-05
-3.15310161e-05
-3.15259893e-05
-3.0836219e-05
-3.03762168e-05
-3.04934589e-05
-3.15248886e-05
-3.1518942e-05
-3.15250545e-05
-3.0767705e-05
-3.06382217e-05
-3.1536963e-05
-3.15283486e-05
-3.15227881e-05
-3.09148593e-05
-3.05318316e-05
-3.04816202e-05
-3.04868382e-05
-3.15314388e-05
-3.15217451e-05
-3.15185798e-05
-3.07658223e-05
-3.03237368e-05
-3.03620223e-05
-3.152479e-05
-3.15222279e-05
-3.15268604e-05
-3.15265921e-05
-3.09175222e-05
-3.05641037e-05
-3.05137376e-05
-3.05139917e-05
-3.153035e-05
-3.15184455e-05
-3.15279575e-05
-3.15194566e-05
-3.09152962e-05
-3.05912498e-05
-3.07140377e-05
-3.04752775e-05
-3.04852852e-05
-3.15228893e-05
-3.15230218e-05
-3.15240633e-05
-3.15239143e-05
-3.09152627e-05
-3.0610358e-05
-3.07341008e-05
-3.04929395e-05
-3.05015312e-05
-3.15233695e-05
-3.15224562e-05
-3.15245121e-05
-3.15254538e-05
-3.09166074e-05
-3.05495633e-05
-3.06877314e-05
-3.04088174e-05
-3.04222291e-05
-3.15240752e-05
-3.1521903e-05
-3.15232966e-05
-3.06429693e-05
-3.05645081e-05
-3.15332725e-05
-3.15306978e-05
-3.15256979e-05
-3.08188693e-05
-3.04615279e-05
-3.15439858e-05
-3.15256246e-05
-3.07152131e-05
-3.05375571e-05
-3.15492802e-05
-3.1521589e-05
-3.08158581e-05
-3.04952092e-05
-3.05115645e-05
-3.15253514e-05
-3.15407374e-05
-3.08131521e-05
-3.06402537e-05
-3.15444722e-05
-3.15296026e-05
-3.09050299e-05
-3.0608365e-05
-3.06124159e-05
-3.15392213e-05
-3.15315437e-05
-3.09167473e-05
-3.0519348e-05
-3.06446986e-05
-3.15332298e-05
-3.1536941e-05
-3.15335233e-05
-3.0915737e-05
-3.0642965e-05
-3.05955375e-05
-3.05965901e-05
-3.15369681e-05
-3.15328702e-05
-3.15266244e-05
-3.08511572e-05
-3.0513088e-05
-3.05238532e-05
-3.1523938e-05
-3.15315524e-05
-3.0764805e-05
-3.05635886e-05
-3.15365429e-05
-3.15188186e-05
-3.07991674e-05
-3.04142209e-05
-3.04299362e-05
-3.15178852e-05
-3.1528634e-05
-3.15221891e-05
-3.15326767e-05
-3.08940903e-05
-3.05318042e-05
-3.04608529e-05
-3.04614256e-05
-3.15253196e-05
-3.15237634e-05
-3.15267939e-05
-3.15273697e-05
-3.08557994e-05
-3.04688364e-05
-3.04771223e-05
-3.15357411e-05
-3.15252038e-05
-3.08266327e-05
-3.04602185e-05
-3.04768526e-05
-3.15186967e-05
-3.15437444e-05
-3.07407698e-05
-3.06026632e-05
-3.15273349e-05
-3.15433593e-05
-3.07332861e-05
-3.06496399e-05
-3.15340337e-05
-3.15409695e-05
-3.07791043e-05
-3.06703372e-05
-3.15459897e-05
-3.15345654e-05
-3.08938357e-05
-3.06241096e-05
-3.0626807e-05
-3.15423281e-05
-3.1536435e-05
-3.09122395e-05
-3.06266554e-05
-3.06331158e-05
-3.15339948e-05
-3.15422656e-05
-3.087077e-05
-3.07011592e-05
-3.15460296e-05
-3.15308342e-05
-3.09135914e-05
-3.06311179e-05
-3.06337718e-05
-3.15335896e-05
-3.15330259e-05
-3.08886281e-05
-3.05245234e-05
-3.05326695e-05
-3.15269055e-05
-3.15330082e-05
-3.15308338e-05
-3.15373752e-05
-3.09066188e-05
-3.05684977e-05
-3.0503625e-05
-3.05041088e-05
-3.15253364e-05
-3.15326802e-05
-3.05388409e-05
-3.05420223e-05
-3.15351812e-05
-3.15334873e-05
-3.15290944e-05
-3.08091198e-05
-3.04923154e-05
-3.15451782e-05
-3.15212397e-05
-3.0818621e-05
-3.04928446e-05
-3.05031116e-05
-3.15241616e-05
-3.15400696e-05
-3.07894111e-05
-3.06028281e-05
-3.15423661e-05
-3.15298759e-05
-3.08532528e-05
-3.05672927e-05
-3.05736553e-05
-3.15308047e-05
-3.15425865e-05
-3.0822134e-05
-3.06481802e-05
-3.1547506e-05
-3.15330449e-05
-3.08733112e-05
-3.0597356e-05
-3.06034528e-05
-3.15344525e-05
-3.15466679e-05
-3.08328017e-05
-3.06640786e-05
-3.15514854e-05
-3.15364027e-05
-3.08827826e-05
-3.06188938e-05
-3.06236108e-05
-3.15375503e-05
-3.15496137e-05
-3.08539478e-05
-3.06967492e-05
-3.15532029e-05
-3.15388449e-05
-3.09066723e-05
-3.0667159e-05
-3.06688673e-05
-3.15425955e-05
-3.15467436e-05
-3.09150107e-05
-3.06494713e-05
-3.06514281e-05
-3.15493666e-05
-3.15376531e-05
-3.08788477e-05
-3.05884244e-05
-3.05982987e-05
-3.15329844e-05
-3.15513554e-05
-3.07604491e-05
-3.0673215e-05
-3.15443891e-05
-3.15440247e-05
-3.06846722e-05
-3.07027385e-05
-3.155554e-05
-3.07870746e-05
-3.05530866e-05
-3.15457193e-05
-3.15397433e-05
-3.15394195e-05
-3.08254268e-05
-3.05274013e-05
-3.1556301e-05
-3.15327342e-05
-3.08027548e-05
-3.05027991e-05
-3.05651912e-05
-3.15310433e-05
-3.1544746e-05
-3.07064457e-05
-3.0721249e-05
-3.15518523e-05
-3.08950912e-05
-3.05128397e-05
-3.1548819e-05
-3.15352528e-05
-3.07515491e-05
-3.05429951e-05
-3.15524663e-05
-3.15303653e-05
-3.07597742e-05
-3.04161211e-05
-3.05324064e-05
-3.15347696e-05
-3.15369941e-05
-3.15369679e-05
-3.06744464e-05
-3.06511864e-05
-3.15533314e-05
-3.15380343e-05
-3.15445655e-05
-3.08554102e-05
-3.05248273e-05
-3.05795138e-05
-3.15453664e-05
-3.1545255e-05
-3.08204389e-05
-3.06142956e-05
-3.06282702e-05
-3.15489073e-05
-3.15480067e-05
-3.08792434e-05
-3.06781131e-05
-3.06919251e-05
-3.1553529e-05
-3.15486677e-05
-3.09070006e-05
-3.07035588e-05
-3.07146458e-05
-3.15563012e-05
-3.15532883e-05
-3.09050902e-05
-3.06938419e-05
-3.07040977e-05
-3.15589778e-05
-3.15538068e-05
-3.08618336e-05
-3.06577772e-05
-3.06716962e-05
-3.15550012e-05
-3.15582672e-05
-3.08168466e-05
-3.06703589e-05
-3.15701724e-05
-3.15493417e-05
-3.08254055e-05
-3.06335557e-05
-3.06508561e-05
-3.15530263e-05
-3.1560608e-05
-3.08029893e-05
-3.06627922e-05
-3.15686452e-05
-3.15498992e-05
-3.08178672e-05
-3.0638763e-05
-3.06564013e-05
-3.15510409e-05
-3.15627588e-05
-3.08167587e-05
-3.06836462e-05
-3.15635134e-05
-3.15539631e-05
-3.08426245e-05
-3.06788319e-05
-3.06937456e-05
-3.15557654e-05
-3.15558085e-05
-3.08378665e-05
-3.06674593e-05
-3.0687334e-05
-3.15496631e-05
-3.1557894e-05
-3.08215253e-05
-3.07126164e-05
-3.15573673e-05
-3.15506249e-05
-3.08058844e-05
-3.06898206e-05
-3.06255744e-05
-3.06539575e-05
-3.15605267e-05
-3.15447621e-05
-3.15597844e-05
-3.08677887e-05
-3.05739577e-05
-3.15547693e-05
-3.15437571e-05
-3.07471474e-05
-3.0571077e-05
-3.05910964e-05
-3.15415723e-05
-3.15541263e-05
-3.0736471e-05
-3.0597132e-05
-3.15496489e-05
-3.15465964e-05
-3.07324287e-05
-3.05665605e-05
-3.05891318e-05
-3.15382535e-05
-3.15567627e-05
-3.07470417e-05
-3.06448511e-05
-3.15457921e-05
-3.15507848e-05
-3.07796833e-05
-3.06859136e-05
-3.1552873e-05
-3.15463535e-05
-3.08156689e-05
-3.06882402e-05
-3.06956446e-05
-3.15427247e-05
-3.15588817e-05
-3.08563555e-05
-3.06863051e-05
-3.07061237e-05
-3.15500852e-05
-3.15538215e-05
-3.08159439e-05
-3.06739766e-05
-3.06789943e-05
-3.15437961e-05
-3.15579974e-05
-3.08284654e-05
-3.06973915e-05
-3.15426646e-05
-3.15459965e-05
-3.08240606e-05
-3.06890778e-05
-3.06888154e-05
)
;

boundaryField
{
    closed
    {
        type            calculated;
        value           nonuniform List<scalar> 0();
    }
    open
    {
        type            calculated;
        value           nonuniform List<scalar> 0();
    }
    sides
    {
        type            empty;
    }
    procBoundary3to2
    {
        type            processor;
        value           uniform -3.06042363e-05;
    }
    procBoundary3to4
    {
        type            processor;
        value           uniform -3.15274894e-05;
    }
}


// ************************************************************************* //
