/*--------------------------------*- C++ -*----------------------------------*\
| =========                 |                                                 |
| \\      /  F ield         | OpenFOAM: The Open Source CFD Toolbox           |
|  \\    /   O peration     | Version:  2306                                  |
|   \\  /    A nd           | Website:  www.openfoam.com                      |
|    \\/     M anipulation  |                                                 |
\*---------------------------------------------------------------------------*/
FoamFile
{
    version     2.0;
    format      ascii;
    arch        "LSB;label=32;scalar=64";
    class       volScalarField;
    location    "0.00094";
    object      PV;
}
// * * * * * * * * * * * * * * * * * * * * * * * * * * * * * * * * * * * * * //

dimensions      [0 0 0 0 0 0 0];

internalField   nonuniform List<scalar> 
531
(
-0.00719774651
-0.00696445863
-0.00696680071
-0.00716190205
-0.00720079515
-0.00719475179
-0.00696620597
-0.00696492608
-0.00717282029
-0.00718657571
-0.00696273202
-0.00696699252
-0.00715284904
-0.00719112639
-0.00718594228
-0.00696556788
-0.00696425112
-0.0071355617
-0.00717859681
-0.00718525364
-0.00718407011
-0.00696385795
-0.00696569862
-0.00716035803
-0.00719334831
-0.00719086796
-0.0069643295
-0.00696631564
-0.00715015951
-0.00720058227
-0.00718890247
-0.00696637873
-0.00696563152
-0.00696680716
-0.00716648336
-0.00719921072
-0.00719666626
-0.00696449405
-0.00696699378
-0.00716782632
-0.00721133141
-0.00719810528
-0.00696837048
-0.00696466434
-0.00696906758
-0.00717469069
-0.00721200139
-0.00720419422
-0.00696867702
-0.00696458651
-0.00718958991
-0.00719894755
-0.00696658612
-0.00696643025
-0.00718907
-0.00720278787
-0.00696439584
-0.00696859851
-0.00717415329
-0.00721545018
-0.00720161085
-0.00696901093
-0.00696582244
-0.00696921394
-0.00717256409
-0.00720390234
-0.0071995192
-0.00696625973
-0.00696712326
-0.00716969434
-0.00720376316
-0.00720128391
-0.00696577331
-0.00696763414
-0.00716891419
-0.00721352424
-0.00720010326
-0.00696800906
-0.00696773935
-0.00696784892
-0.00717723169
-0.00720191947
-0.00696410346
-0.0069690844
-0.00716974119
-0.00721160655
-0.00719898366
-0.00696803685
-0.00696632214
-0.00696772576
-0.00717166444
-0.00719286039
-0.00719894528
-0.00720011742
-0.00696420668
-0.00696948259
-0.00717588807
-0.00721469194
-0.00720561899
-0.0069702929
-0.00696557564
-0.00719076964
-0.0071965617
-0.00696864261
-0.00696728904
-0.0071966674
-0.00719508013
-0.00696640092
-0.00696882208
-0.00696864736
-0.00717579642
-0.00720747335
-0.0072139327
-0.00721387554
-0.00696834682
-0.0069707764
-0.00697005596
-0.00718810954
-0.0072122456
-0.00696751725
-0.00697144285
-0.00696825306
-0.00697047555
-0.00715005247
-0.00720376257
-0.00718828468
-0.00721288584
-0.00720949814
-0.00696774521
-0.00696920986
-0.00717845457
-0.00722511432
-0.00721152674
-0.00696975047
-0.00697031979
-0.0069699176
-0.00718669516
-0.00719989754
-0.00696758631
-0.00696999115
-0.0069693586
-0.00717203133
-0.00720960626
-0.00721387032
-0.00721240818
-0.00696906425
-0.00696915373
-0.006971197
-0.00718503968
-0.00723088647
-0.00722301818
-0.00697027324
-0.00696973028
-0.00697004383
-0.00696912449
-0.00717204589
-0.00720659393
-0.00721108374
-0.00721050801
-0.0069686122
-0.00697068176
-0.00696897551
-0.00697039019
-0.00715310401
-0.00720553875
-0.00718958682
-0.00721607771
-0.00721157138
-0.00696928729
-0.00696953485
-0.00696922356
-0.00696938828
-0.0071449127
-0.00720306047
-0.00718789592
-0.00721405766
-0.00721018502
-0.00696907741
-0.00696952517
-0.00696903821
-0.00696912406
-0.00715105144
-0.00720831234
-0.00719210377
-0.00722122352
-0.00721748619
-0.00696920704
-0.00696980987
-0.00696973503
-0.00719811473
-0.00720624641
-0.00696820963
-0.00696999497
-0.00696939117
-0.00718101696
-0.00721582901
-0.00696716232
-0.00696961844
-0.00718954196
-0.00720913187
-0.00696520671
-0.00697065158
-0.00717730574
-0.00721509159
-0.0072066819
-0.00696975409
-0.00696631281
-0.00718185459
-0.00719749657
-0.00696609251
-0.00696874917
-0.0071700273
-0.00720286003
-0.00719876373
-0.00696698931
-0.00696807704
-0.0071641341
-0.00721080573
-0.00719583248
-0.00696791406
-0.00696760566
-0.00696767739
-0.00716214601
-0.00719751779
-0.00720203046
-0.00720087343
-0.00696788238
-0.00696745327
-0.00696963001
-0.00717535972
-0.00721287427
-0.00720675002
-0.00696973089
-0.00696779334
-0.00718651151
-0.00720611985
-0.0069670163
-0.00697081057
-0.00718054851
-0.00722299066
-0.00721604775
-0.00697118892
-0.00696876872
-0.00697065827
-0.00696819671
-0.00717430661
-0.00720871969
-0.0072159494
-0.00721459038
-0.00696926214
-0.00696997461
-0.00696917297
-0.00696941699
-0.00717591774
-0.00721560673
-0.00721218141
-0.00696697961
-0.00696931181
-0.00717656974
-0.00721779065
-0.00720963476
-0.00697057839
-0.00696557158
-0.00719000441
-0.00719944413
-0.00696922791
-0.00696653517
-0.00718991666
-0.00719597083
-0.00696814695
-0.00696750348
-0.0071841123
-0.00719528091
-0.00696606191
-0.00696881192
-0.00717062515
-0.00720130427
-0.00719717108
-0.00696700175
-0.00696797621
-0.00716624104
-0.00720124936
-0.00719619486
-0.00696860022
-0.00696681114
-0.00717554589
-0.00719232769
-0.00696634961
-0.00696905124
-0.00716785978
-0.0072011483
-0.00719700984
-0.00696803484
-0.00696865626
-0.0071724011
-0.00721145373
-0.00720658613
-0.00696986846
-0.00696820598
-0.00696937773
-0.00696735561
-0.00717202405
-0.00720422995
-0.00721130948
-0.00720911828
-0.00696917904
-0.00696766611
-0.00720738206
-0.00720707418
-0.00696766776
-0.00696880963
-0.00696871965
-0.00718062519
-0.00721303648
-0.00696587933
-0.00697038726
-0.00717700176
-0.00721481765
-0.00720753538
-0.00696962849
-0.00696644805
-0.00718326292
-0.00720108967
-0.00696607315
-0.00696890155
-0.00717381806
-0.00720704105
-0.00720091395
-0.00696870486
-0.00696618869
-0.00717959751
-0.00719667961
-0.00696551376
-0.00696858184
-0.0071715043
-0.00720399098
-0.0071977796
-0.00696833134
-0.00696579012
-0.00717823876
-0.00719489356
-0.00696507261
-0.00696824805
-0.00717025637
-0.00720173983
-0.00719554628
-0.00696801743
-0.00696535425
-0.00717614337
-0.00719140275
-0.00696494727
-0.00696764653
-0.00716715557
-0.00719640984
-0.00719161598
-0.00696666998
-0.00696578653
-0.00716738444
-0.00719636008
-0.00719479642
-0.0069650313
-0.00696761405
-0.0071704044
-0.00720443635
-0.0071974571
-0.00696862426
-0.00696481578
-0.00718616527
-0.00719272329
-0.00696674682
-0.00696675664
-0.0071918485
-0.00719170478
-0.00696475457
-0.00718336656
-0.00720516019
-0.0069670127
-0.00696820802
-0.00696797309
-0.00717855769
-0.00720935786
-0.00696476222
-0.00696927991
-0.00717849251
-0.00721335038
-0.00720149322
-0.00696900145
-0.00696628104
-0.00719095873
-0.00718991501
-0.00696508674
-0.00717311643
-0.00720906479
-0.00696633035
-0.00696799836
-0.00718573673
-0.0072078327
-0.00696523586
-0.00696954476
-0.00718378998
-0.00722123638
-0.00720604528
-0.00696883179
-0.0069685124
-0.00696839988
-0.00719421537
-0.00719711068
-0.00696618005
-0.00696825145
-0.00696741566
-0.00717536063
-0.00720925085
-0.00720094428
-0.0069661086
-0.00696630212
-0.00717748573
-0.0071999522
-0.00719540601
-0.0069651902
-0.00696539558
-0.00717147142
-0.00719328945
-0.00718926744
-0.0069643296
-0.00696528778
-0.00716493749
-0.00719068876
-0.00718645725
-0.0069641296
-0.00696456034
-0.00716525391
-0.00719092117
-0.00718762967
-0.00696357545
-0.00696497914
-0.00717150178
-0.00719528132
-0.00718966265
-0.00696505316
-0.00696393049
-0.00717728552
-0.00719270701
-0.0069621509
-0.00696630001
-0.00717408996
-0.00719838985
-0.00719119286
-0.00696572682
-0.00696375635
-0.00717901062
-0.00719339622
-0.0069625368
-0.00696640376
-0.00717483488
-0.00719815135
-0.00719049182
-0.00696622911
-0.00696336117
-0.00717831967
-0.00719080191
-0.00696359162
-0.006965392
-0.0071737117
-0.00719308272
-0.00718859848
-0.00696449119
-0.00696510978
-0.00717420009
-0.00719492488
-0.00718834452
-0.00696629642
-0.00696382026
-0.00717816625
-0.00718828047
-0.00696463137
-0.00696529327
-0.00717814373
-0.00719180916
-0.00719606712
-0.00719452811
-0.00696420041
-0.00696679372
-0.00696451672
-0.00717342455
-0.0072026883
-0.00696430693
-0.0069672394
-0.00718227391
-0.00720495516
-0.00719744399
-0.00696712497
-0.00696437287
-0.00718597822
-0.0071999772
-0.00696465931
-0.00696666111
-0.00718350903
-0.00720552229
-0.00719721686
-0.00696797818
-0.00696365378
-0.00718602964
-0.00719443976
-0.00696634778
-0.00696547771
-0.00718104449
-0.00719226628
-0.00696457968
-0.00696674688
-0.00717544109
-0.00719363944
-0.00718745034
-0.00696666873
-0.00696390892
-0.00717361135
-0.00719143357
-0.00718816508
-0.00696485696
-0.00696520635
-0.0071756902
-0.00719407295
-0.00718908006
-0.00696681702
-0.00696377553
-0.00717718017
-0.00719002519
-0.00696617588
-0.00696626057
-0.00717592768
-0.00719379696
-0.00718971564
)
;

boundaryField
{
    closed
    {
        type            zeroGradient;
    }
    open
    {
        type            zeroGradient;
    }
    sides
    {
        type            empty;
    }
    procBoundary3to2
    {
        type            processor;
        value           uniform -0.00720093089;
    }
    procBoundary3to4
    {
        type            processor;
        value           uniform -0.00696825974;
    }
}


// ************************************************************************* //
