/*--------------------------------*- C++ -*----------------------------------*\
| =========                 |                                                 |
| \\      /  F ield         | OpenFOAM: The Open Source CFD Toolbox           |
|  \\    /   O peration     | Version:  2306                                  |
|   \\  /    A nd           | Website:  www.openfoam.com                      |
|    \\/     M anipulation  |                                                 |
\*---------------------------------------------------------------------------*/
FoamFile
{
    version     2.0;
    format      ascii;
    arch        "LSB;label=32;scalar=64";
    class       volScalarField;
    location    "0.00088";
    object      prefDh_H;
}
// * * * * * * * * * * * * * * * * * * * * * * * * * * * * * * * * * * * * * //

dimensions      [1 1 -3 0 0 0 0];

internalField   nonuniform List<scalar> 
530
(
23962.8591
23378.8841
23266.4787
23297.5812
23146.2392
23146.1704
23941.1448
23979.084
23373.149
23242.1811
23951.2365
23976.8172
23362.9438
23216.5411
23958.3381
23968.3623
23366.8292
23102.0753
23104.2386
23950.3042
23975.372
23969.9885
23371.3395
23237.5158
23268.9345
23088.8983
23092.3603
23939.3493
23972.1393
23962.751
23371.515
23125.829
23127.154
23945.2998
23965.4355
23374.4722
23082.2649
23089.5782
23956.6238
23968.7895
23972.72
23373.6004
23136.44
23135.7536
23955.3083
23965.2098
23371.7148
23216.7935
23271.2532
23095.8422
23099.648
23940.9823
23969.8813
23960.53
23372.6895
23168.2846
23168.9076
23951.1763
23962.5913
23375.1862
23173.961
23175.8991
23952.0692
23959.5471
23374.6017
23175.4121
23174.3614
23952.6834
23961.0911
23377.3867
23184.7133
23187.219
23951.3678
23957.7675
23397.0252
23280.6821
23283.1118
23118.4573
23120.1506
23937.2879
23972.5297
23307.995
23262.328
23939.6094
23970.2697
23950.4246
23377.1114
23055.3162
23056.1608
23944.4155
23947.5263
23385.1876
22960.9913
22967.3138
23928.4916
23952.3069
23940.8966
23956.6079
23391.9475
23111.5686
22991.1316
22992.6868
23922.4977
23954.7653
23216.7686
23099.0662
23925.8806
23951.6905
23283.6624
23124.1184
23938.1625
23941.684
23391.0521
23022.4906
23027.2426
23930.8878
23952.4689
23938.5165
23388.1052
23108.2018
23111.0168
23937.7968
23940.7756
23389.4407
23035.6856
23041.6426
23930.6156
23946.7732
23350.5572
23122.1419
23944.1484
23933.3167
23386.3613
22949.1009
22960.0997
23915.5109
23959.0324
23271.2911
23085.3521
23914.2682
23961.3919
23209.735
23077.2054
23914.9688
23962.6977
23200.5362
23082.8954
23918.5781
23961.3739
23231.5221
23118.4933
23926.68
23955.6976
23303.3717
23151.5764
23942.3685
23940.2919
23385.6427
23051.4312
23059.7204
23931.7715
23959.1903
23934.9561
23377.4522
23227.0607
23241.028
23012.074
23020.2126
23918.8777
23965.1144
23317.6053
23162.859
23922.4623
23965.9856
23315.5354
23185.61
23929.57
23959.2657
23344.4791
23174.0292
23942.071
23937.6777
23388.4567
22980.6919
22989.1457
23922.8688
23942.1288
23929.8232
23943.0428
23403.2646
23182.1848
23220.0004
22988.7697
22990.7547
23933.0148
23928.7375
23389.5612
22975.0477
22986.7087
23914.0472
23953.4572
23309.0186
23136.0912
23916.538
23958.4685
23167.6371
23130.9431
23929.8335
23954.3016
23945.6622
23308.086
23066.4242
23933.5491
23960.2011
23241.7284
23243.6873
23932.9541
23378.7171
22999.8189
23947.4072
23937.4536
23388.0337
23300.872
23167.269
23166.5094
23939.9921
23934.2248
23385.3643
23118.7827
23121.6424
23933.8325
23960.7148
23406.6502
23223.8001
23944.6373
23949.2182
23382.6296
23062.4138
23064.2709
23945.5055
23948.0505
23381.9864
23015.054
23019.4703
23940.307
23957.1868
23944.2982
23383.1247
23074.7406
23081.1191
23931.4603
23393.3272
23061.1299
23920.6732
23875.9687
23924.0835
23800.6127
23322.1254
23135.074
23228.5771
23053.4598
23058.6801
23921.0805
23954.8124
23930.0865
23383.079
23111.9098
23113.7418
23938.0087
23944.9592
23382.3714
23009.2106
23015.2866
23928.2223
23964.6687
23937.1046
23375.0043
22974.3831
22981.3235
23927.6039
23961.8885
23342.5655
23116.3369
23938.1843
23942.7969
23380.7797
23024.2611
23030.1966
23923.6018
23958.8107
23410.7694
23230.2766
23932.2357
23943.7537
23388.8044
23134.7935
23135.536
23928.3118
23946.8854
23470.6325
23327.8952
23267.6126
23067.0366
23069.6285
23923.6743
23966.5103
23387.8536
23210.4328
23927.2226
23969.1388
23384.9051
23180.9471
23938.6249
23953.2649
23381.7572
22993.0331
22997.592
23938.248
23954.9925
23953.8977
23390.0187
23216.4798
23941.3118
23963.9119
23386.229
23272.2652
23106.0619
23107.6166
23930.5849
23946.2161
23389.3601
23094.0573
23104.1937
23935.0303
23391.0343
23121.0791
23920.9507
23956.3682
23353.7741
23336.0287
23908.3865
23389.5867
22991.159
23931.748
23925.1647
23386.2201
23041.0688
23046.2284
23923.094
23939.5633
23391.1323
22956.0838
22962.5929
23925.3226
23946.6795
23942.069
23397.9565
23099.6347
23929.3351
23953.2773
23337.3848
23095.6292
23934.9102
23938.0863
23381.787
22966.3555
22975.6529
23914.7436
23956.9663
23407.9549
23174.1934
23925.214
23941.5446
23389.7484
23084.7423
23086.0011
23929.2264
23937.3061
23390.6254
23105.2324
23108.6802
23927.2076
23938.3418
23390.7465
23115.0334
23118.1958
23925.7871
23941.1948
23406.724
23126.5905
23131.4125
23923.9427
23393.7942
23100.2371
23935.1587
23939.5269
23383.867
23098.5706
23102.4631
23926.8855
23945.7282
23426.7136
23159.0929
23159.125
23935.6715
23946.6205
23385.1839
23128.3997
23128.6264
23937.9273
23949.3977
23385.9946
23123.5857
23123.276
23939.1521
23948.9164
23384.8306
23106.1186
23109.4373
23936.6973
23945.8352
23379.9984
23066.2029
23072.3838
23924.4274
23962.1407
23406.845
23176.5389
23934.8076
23946.1528
23379.9224
23038.6094
23044.8389
23921.1792
23960.5401
23411.0598
23164.0849
23930.9338
23943.5832
23382.428
23035.8893
23040.5264
23919.6879
23957.2848
23413.1644
23164.8317
23928.111
23940.6953
23383.9809
23035.167
23042.4298
23914.126
23955.3253
23415.3936
23160.2868
23925.3155
23939.2571
23386.0756
23023.3603
23028.9718
23914.8031
23951.8036
23404.083
23134.8486
23926.1302
23934.4909
23383.9387
22972.5507
22985.9036
23899.971
23960.3088
23341.0677
23129.2481
23904.4706
23960.4578
23313.74
23145.467
23911.344
23954.8819
23348.0144
23133.3446
23925.3517
23936.8395
23383.5785
22983.8724
22994.0073
23905.398
23961.6296
23374.9608
23169.8782
23911.0154
23961.2666
23387.5692
23236.8749
23922.0604
23951.7
23392.635
23307.8334
23116.3852
23122.4957
23925.6593
23397.6571
23010.7009
23907.2817
23949.1653
23312.57
23139.5177
23902.8011
23959.9187
23209.2119
23182.5501
23904.3771
23962.0726
23924.7778
23382.8918
22947.6605
23013.578
23924.5883
23390.3579
23047.8944
23924.0865
23947.831
23938.4513
23385.5595
23024.1298
23026.5022
23925.0449
23942.508
23388.4209
23049.0118
)
;

boundaryField
{
    closed
    {
        type            calculated;
        value           nonuniform List<scalar> 0();
    }
    open
    {
        type            calculated;
        value           nonuniform List<scalar> 0();
    }
    sides
    {
        type            empty;
    }
    procBoundary2to1
    {
        type            processor;
        value           uniform 23948.738;
    }
    procBoundary2to3
    {
        type            processor;
        value           uniform 23051.7876;
    }
}


// ************************************************************************* //
