/*--------------------------------*- C++ -*----------------------------------*\
| =========                 |                                                 |
| \\      /  F ield         | OpenFOAM: The Open Source CFD Toolbox           |
|  \\    /   O peration     | Version:  2306                                  |
|   \\  /    A nd           | Website:  www.openfoam.com                      |
|    \\/     M anipulation  |                                                 |
\*---------------------------------------------------------------------------*/
FoamFile
{
    version     2.0;
    format      ascii;
    arch        "LSB;label=32;scalar=64";
    class       volScalarField;
    location    "0.00046";
    object      mu;
}
// * * * * * * * * * * * * * * * * * * * * * * * * * * * * * * * * * * * * * //

dimensions      [1 -1 -1 0 0 0 0];

internalField   nonuniform List<scalar> 
530
(
1.96964006e-05
1.96525462e-05
2.02485367e-05
2.02674555e-05
1.97055942e-05
1.9682222e-05
2.02490137e-05
2.028469e-05
1.98194721e-05
1.95197773e-05
1.95690714e-05
2.01902219e-05
2.02840455e-05
1.98340002e-05
1.94961572e-05
1.95278774e-05
2.02219181e-05
2.02557324e-05
1.97178812e-05
1.96520211e-05
2.02244036e-05
2.02657105e-05
1.97584547e-05
1.97022705e-05
2.01871752e-05
2.03029137e-05
1.98969403e-05
1.97774846e-05
1.96432648e-05
1.9504442e-05
1.97430354e-05
2.02489102e-05
2.0283646e-05
1.97640624e-05
1.95555283e-05
1.97644361e-05
2.02547759e-05
2.02696673e-05
1.96541772e-05
1.95569772e-05
2.01291566e-05
2.02501161e-05
1.9759461e-05
1.96582141e-05
2.01999546e-05
2.02809817e-05
1.97748244e-05
1.95861906e-05
1.97606282e-05
2.02572681e-05
2.02904953e-05
1.9757007e-05
1.94760084e-05
1.97572816e-05
2.02471692e-05
2.02845699e-05
1.97568074e-05
1.94654883e-05
1.97467357e-05
2.02379384e-05
2.02838889e-05
1.97513221e-05
1.94976934e-05
1.97882612e-05
2.02563534e-05
1.98484251e-05
1.96225409e-05
1.97605621e-05
2.02445987e-05
2.02874728e-05
1.97494629e-05
1.94746967e-05
1.9819704e-05
2.0161373e-05
1.97560018e-05
1.97207928e-05
2.01977536e-05
2.02934532e-05
1.97645413e-05
1.95662089e-05
1.97650389e-05
2.0252819e-05
2.02697452e-05
1.97143109e-05
1.94231524e-05
1.98192346e-05
2.01297262e-05
1.97556574e-05
1.97430373e-05
2.02030593e-05
2.02932101e-05
1.97624279e-05
1.95786244e-05
1.98469748e-05
2.02610375e-05
2.00861695e-05
1.9574233e-05
1.94083603e-05
1.99961204e-05
2.02580608e-05
1.97652354e-05
1.96943699e-05
2.0214507e-05
2.02990898e-05
1.97679157e-05
1.96275108e-05
1.98418315e-05
2.02716145e-05
2.02707941e-05
1.97674679e-05
1.95832387e-05
1.94422797e-05
1.95569961e-05
2.02400444e-05
2.0230424e-05
1.96839583e-05
1.97290359e-05
2.02572762e-05
2.0296053e-05
1.97995315e-05
1.94899603e-05
1.96412244e-05
2.02444584e-05
2.02066365e-05
1.96653204e-05
1.97395115e-05
2.02629553e-05
2.0297367e-05
1.97795592e-05
1.94410695e-05
1.94953982e-05
2.02409482e-05
2.02557448e-05
1.96184521e-05
1.97469308e-05
2.02544493e-05
2.01381248e-05
1.96258056e-05
1.9769117e-05
2.02593613e-05
2.00979079e-05
1.96190049e-05
1.97612493e-05
2.02591691e-05
2.00449665e-05
1.96335658e-05
1.9770147e-05
2.02692111e-05
2.03004164e-05
1.97494808e-05
1.93747168e-05
1.95949313e-05
2.02381588e-05
2.01182322e-05
1.95736738e-05
1.97604967e-05
2.02553363e-05
1.9998994e-05
1.958637e-05
1.97516133e-05
2.02626489e-05
1.99670086e-05
1.95685271e-05
1.9748285e-05
2.02667676e-05
1.99299041e-05
1.95708522e-05
1.97538383e-05
2.02716028e-05
1.98863539e-05
1.96149704e-05
1.9760855e-05
2.02772485e-05
2.03036315e-05
1.975506e-05
1.94228377e-05
1.95343473e-05
2.02670238e-05
2.02920033e-05
1.97644438e-05
1.94369608e-05
1.9752427e-05
2.02647774e-05
1.99369389e-05
1.96104014e-05
1.97609349e-05
2.02847611e-05
2.03116364e-05
1.97436373e-05
1.94048204e-05
1.97496827e-05
2.02610696e-05
1.99052319e-05
1.95944624e-05
1.97650903e-05
2.02884445e-05
2.03128699e-05
1.97401571e-05
1.93737038e-05
1.97496175e-05
2.02632434e-05
1.98652998e-05
1.95285709e-05
1.98640676e-05
2.02868965e-05
1.97697095e-05
1.95555755e-05
1.99876464e-05
2.02919096e-05
1.97925734e-05
1.95871672e-05
1.97566645e-05
2.02971054e-05
2.03176289e-05
1.97376351e-05
1.93713023e-05
1.97568427e-05
2.02660341e-05
2.00606298e-05
1.9582714e-05
1.97597229e-05
2.02906029e-05
2.03140189e-05
1.97460634e-05
1.94344297e-05
1.97635557e-05
2.02678014e-05
2.02869754e-05
1.96485089e-05
1.96415971e-05
2.02542123e-05
2.02916193e-05
1.99073731e-05
1.97341416e-05
1.95932029e-05
1.94989738e-05
1.97571601e-05
2.02816513e-05
1.9872923e-05
1.96105823e-05
1.97582951e-05
2.0289587e-05
2.03180057e-05
1.97407062e-05
1.94091204e-05
1.97678712e-05
2.02826093e-05
1.97582179e-05
1.95486504e-05
2.02760122e-05
2.03069389e-05
1.96848237e-05
1.96040202e-05
2.02672838e-05
2.03114931e-05
1.98965426e-05
1.97251787e-05
1.95502937e-05
1.97435979e-05
2.02734821e-05
2.03143153e-05
1.97955408e-05
1.96929928e-05
1.95366581e-05
1.95346562e-05
1.99806193e-05
2.02777926e-05
2.02854288e-05
1.96673531e-05
1.9385202e-05
1.99544131e-05
2.0277377e-05
1.97424557e-05
1.95933298e-05
2.02727716e-05
2.02898732e-05
1.98418901e-05
1.9582457e-05
1.95016537e-05
1.98558277e-05
2.02906812e-05
1.97523675e-05
1.9602558e-05
2.02806543e-05
2.02929718e-05
1.98271456e-05
1.95917644e-05
1.95086916e-05
1.98559194e-05
2.02908365e-05
1.97583793e-05
1.9550101e-05
2.02680274e-05
2.02972354e-05
1.96339823e-05
1.95094293e-05
2.02513056e-05
2.02958931e-05
1.96317696e-05
1.9496944e-05
2.02483436e-05
2.0297577e-05
1.96180588e-05
1.95375e-05
2.02595807e-05
2.0300291e-05
1.96570352e-05
1.96160864e-05
2.02727208e-05
2.02903717e-05
1.98022365e-05
1.96591454e-05
1.94491481e-05
1.94492501e-05
2.02715102e-05
2.02948851e-05
1.9719139e-05
1.9545848e-05
1.98215847e-05
2.02628586e-05
2.03059158e-05
1.95275928e-05
1.94125659e-05
2.02566669e-05
2.02933003e-05
1.95671112e-05
1.95191829e-05
2.02596427e-05
2.02955153e-05
1.95842088e-05
1.95293411e-05
2.02644321e-05
2.02977007e-05
1.9585054e-05
1.94842522e-05
2.02476084e-05
2.02950594e-05
1.95923319e-05
1.95723429e-05
2.02871814e-05
2.02787856e-05
1.97679713e-05
1.94150092e-05
1.95185088e-05
2.02777663e-05
2.03031808e-05
1.95965516e-05
1.95733095e-05
2.02940278e-05
2.02740761e-05
1.97922961e-05
1.94034907e-05
1.94754198e-05
2.02776894e-05
2.02998008e-05
1.95746293e-05
1.95623654e-05
2.0293078e-05
2.02732219e-05
1.9809995e-05
1.94155082e-05
1.94724585e-05
2.02809487e-05
2.03019999e-05
1.95731625e-05
1.95662179e-05
2.02954219e-05
2.02867242e-05
1.98267682e-05
1.95699083e-05
1.95544523e-05
1.98186985e-05
2.0285449e-05
2.02684508e-05
1.95753837e-05
1.94112626e-05
1.97963719e-05
2.02566864e-05
2.0293104e-05
1.94338726e-05
1.93638218e-05
2.02617732e-05
2.02856101e-05
1.95592736e-05
1.9563793e-05
2.02728595e-05
2.02737907e-05
1.98563289e-05
1.94377505e-05
1.9447193e-05
2.0297347e-05
2.03001801e-05
1.97116218e-05
1.9567126e-05
1.98160286e-05
2.02842236e-05
2.03152857e-05
1.95996527e-05
1.94236055e-05
1.98295709e-05
2.02690119e-05
2.02273821e-05
1.95550519e-05
1.94393873e-05
1.98412097e-05
2.02707557e-05
2.01613797e-05
1.95367529e-05
1.94493933e-05
1.98768283e-05
2.02620106e-05
2.00425784e-05
1.94362119e-05
1.94395391e-05
2.02624892e-05
2.02720633e-05
1.98239307e-05
1.94611278e-05
1.95036946e-05
2.02880889e-05
2.03029651e-05
1.96034551e-05
1.95377385e-05
2.03011913e-05
2.02958092e-05
1.97553171e-05
1.95319598e-05
1.97615134e-05
2.02693293e-05
2.03188012e-05
1.94801799e-05
1.94562714e-05
2.02936322e-05
2.02766287e-05
1.97906051e-05
1.94222685e-05
1.95039332e-05
2.02807026e-05
2.03008186e-05
1.9569005e-05
1.9547045e-05
2.03053031e-05
2.02804013e-05
1.97857121e-05
1.94462324e-05
1.95248063e-05
2.02940037e-05
2.03041036e-05
1.95845663e-05
1.95546972e-05
2.0313222e-05
2.0286937e-05
1.97561245e-05
1.94715713e-05
1.97157388e-05
2.0280412e-05
2.0310592e-05
1.95149713e-05
1.94868801e-05
2.029005e-05
2.02941353e-05
1.95225517e-05
1.95178217e-05
2.02985916e-05
2.02998201e-05
1.95177651e-05
1.95942121e-05
2.03076432e-05
2.02737838e-05
1.97625066e-05
1.94086076e-05
1.95703349e-05
2.02992995e-05
2.03120551e-05
1.95358824e-05
1.96274415e-05
2.03112219e-05
2.02789373e-05
1.97590137e-05
1.94186846e-05
1.96216846e-05
2.02972005e-05
2.03112397e-05
1.95228756e-05
1.9646955e-05
2.03147612e-05
2.02736677e-05
1.97539442e-05
1.93863751e-05
1.96681784e-05
2.02931018e-05
2.00951258e-05
1.94823507e-05
1.9780227e-05
2.02954468e-05
1.97668208e-05
1.95440612e-05
1.99507297e-05
2.02930747e-05
1.97983097e-05
1.95448908e-05
1.97578445e-05
2.03143516e-05
2.02982495e-05
1.9752971e-05
1.93972628e-05
1.97322632e-05
2.0295976e-05
2.02519614e-05
1.95008807e-05
1.97260064e-05
2.03131563e-05
2.02911605e-05
1.97512337e-05
1.94755635e-05
1.97539047e-05
2.03156547e-05
2.03004179e-05
1.9753125e-05
1.94322668e-05
1.97707599e-05
2.02931091e-05
2.01830894e-05
1.95212081e-05
1.97585361e-05
2.03163739e-05
2.02861251e-05
1.97460929e-05
1.93782577e-05
1.97562126e-05
)
;

boundaryField
{
    closed
    {
        type            calculated;
        value           nonuniform List<scalar> 0();
    }
    open
    {
        type            calculated;
        value           nonuniform List<scalar> 0();
    }
    sides
    {
        type            empty;
    }
    procBoundary2to1
    {
        type            processor;
        value           uniform 2.02718222e-05;
    }
    procBoundary2to3
    {
        type            processor;
        value           uniform 2.03012203e-05;
    }
}


// ************************************************************************* //
