/*--------------------------------*- C++ -*----------------------------------*\
| =========                 |                                                 |
| \\      /  F ield         | OpenFOAM: The Open Source CFD Toolbox           |
|  \\    /   O peration     | Version:  2306                                  |
|   \\  /    A nd           | Website:  www.openfoam.com                      |
|    \\/     M anipulation  |                                                 |
\*---------------------------------------------------------------------------*/
FoamFile
{
    version     2.0;
    format      ascii;
    arch        "LSB;label=32;scalar=64";
    class       volScalarField;
    location    "0.00046";
    object      prefDh_H2;
}
// * * * * * * * * * * * * * * * * * * * * * * * * * * * * * * * * * * * * * //

dimensions      [1 1 -3 0 0 0 0];

internalField   nonuniform List<scalar> 
530
(
27.9355265
27.0323425
37.2366787
37.6793937
28.1293648
27.6334699
37.2243596
38.1459395
29.3617763
24.3007429
25.2907451
35.9758585
38.1200151
29.5607676
23.8132521
24.4574488
36.6070484
37.3971387
28.375849
27.02652
36.6700398
37.6339472
29.2125718
28.0312845
35.9137755
38.5687368
30.5685786
29.4728863
26.7961526
23.9824713
28.8442926
37.2656882
38.0883509
28.8904595
25.0398253
28.706718
37.427065
37.7400034
27.0436051
25.0701229
34.8031882
37.2626688
29.2082574
27.1484681
36.1617049
38.024728
28.8627561
25.6695546
28.8104775
37.477158
38.2598062
28.5849748
23.398591
29.1180183
37.2197175
38.1083006
28.5978527
23.1871866
28.9049418
37.0093728
38.0868038
28.7186162
23.8473744
28.735432
37.4464387
29.7116174
26.4143203
28.9071536
37.1861032
38.1843499
28.6844814
23.3750251
29.2038844
35.4174208
28.8060942
28.4145852
36.1200666
38.3120272
28.7546743
25.2501133
28.632393
37.3878856
37.7601527
28.2200763
22.3126388
29.1909505
34.8114217
28.8516326
28.8680331
36.2161207
38.2997153
28.9619062
25.5021432
29.6536535
37.5981081
33.9765579
25.3915956
22.0055767
32.2934931
37.4435616
29.291583
27.8810911
36.473488
38.436808
29.0198253
26.4972236
29.607371
37.8658972
37.7943968
28.9542447
25.5979504
22.685973
25.0658614
37.0528447
36.8127486
27.6589045
28.5889718
37.4713917
38.4184375
29.0607045
23.6697664
26.775455
37.164918
36.2873801
27.268699
28.7980454
37.6079296
38.4375825
28.8720583
22.6698735
23.7921484
37.0704976
37.3943481
26.3068026
28.9527281
37.4153529
34.9704536
26.4486783
29.3194549
37.5277521
34.2056095
26.3061235
29.0597534
37.5268767
33.2085146
26.604136
29.3192194
37.7602084
38.479762
28.6088188
21.3082398
25.824491
37.0232561
34.5911168
25.3902472
28.9780056
37.4467253
32.3555508
25.6409221
28.6139305
37.6143778
31.7694498
25.2687668
28.4706198
37.7084904
31.1008691
25.3128346
28.3933356
37.8282727
30.3485674
26.2171936
28.7010038
37.9735134
38.5433954
28.8189907
22.2979612
24.5714701
37.6957675
38.3216041
28.7080804
22.5687016
28.8947467
37.6617505
31.2323801
26.1295279
28.6306003
38.150614
38.7451588
28.5468945
21.914365
28.7624488
37.5854537
30.6757746
25.8013329
28.6218051
38.2379378
38.7611186
28.5555995
21.2751622
28.8842228
37.6271943
29.9924871
24.4431872
29.9273812
38.1974875
28.715657
24.9901987
32.1349512
38.3212898
28.945592
25.6384176
28.6364863
38.4301963
38.8826324
28.564087
21.2162888
29.0985899
37.7031223
33.5020578
25.5533999
29.0811234
38.2768552
38.824776
28.6753522
22.5065339
29.1872342
37.7528302
38.1110057
26.9070892
26.7906157
37.4263728
38.3586918
30.7324458
28.6428498
25.758552
23.8246233
28.5890629
38.0697786
30.1210127
26.1198588
28.5216759
38.266299
38.9071145
28.640089
21.9775298
28.584804
38.0801657
28.6762547
24.845554
37.8699349
38.6658977
27.6467894
25.9695531
37.6527349
38.7866479
30.5447218
28.4281335
24.8994784
28.7644471
37.9013465
38.8599454
29.1154441
27.8032481
24.6227305
24.5690844
32.0140531
38.0172434
38.1385551
27.2839638
21.5003774
31.5370605
37.9828599
28.8199319
25.7822406
37.8169048
38.2902958
29.6317074
25.5425246
23.8771985
29.8295725
38.2803451
28.9392218
25.9619964
38.0057302
38.3609885
29.404238
25.734337
24.0218143
29.8377284
38.2815111
29.0830309
24.8824446
37.7240198
38.4405855
26.6175427
24.0427452
37.3051568
38.4075632
26.6043056
23.7851652
37.2351991
38.446477
26.3006698
24.6185728
37.542076
38.5119869
27.0651467
26.2386921
37.8610486
38.3135854
29.1599739
27.1252726
22.8286537
22.8071588
37.7724612
38.3861421
28.3692673
24.8096694
29.3245743
37.6758349
38.6332809
24.4415854
22.0454523
37.441829
38.3462058
25.2534127
24.2495915
37.5523218
38.402733
25.585222
24.4545832
37.6607564
38.4504116
25.6350642
23.5232601
37.2039691
38.3934722
25.7777954
25.3509029
38.1836926
38.031489
28.7107982
22.1225692
24.2183603
37.9660856
38.5771221
25.8507615
25.3694234
38.3263742
37.9305306
28.9742889
21.8894122
23.3372893
37.9455619
38.4983721
25.4106202
25.1470134
38.3072467
37.9123187
29.1895018
22.1337763
23.2776712
38.0302406
38.5465755
25.3768332
25.2169548
38.3566755
38.2222962
29.4225159
25.2934171
24.9725571
29.3460363
38.1863297
37.6889686
25.3934065
22.0647268
29.0653622
37.5284424
38.266093
22.5122304
21.0649162
37.5768914
38.176791
25.1221311
25.1789826
37.7899103
37.9267451
29.9013881
22.5826498
22.766827
38.4052468
38.5026276
28.1996541
25.2388637
29.2586387
38.1587589
38.8057643
25.8940529
22.2962383
29.4800125
37.8117956
36.7361306
24.9893664
22.6397316
29.6469267
37.8509242
35.4153148
24.6121786
22.8427868
30.1989206
37.6533772
33.1640321
22.5732648
22.6317711
37.5393099
37.8791947
29.4528265
23.0681054
23.9292373
38.204422
38.5653745
25.9805647
24.6260722
38.4936534
38.4089193
28.9417322
24.5282451
28.6184126
37.8102058
38.9306777
23.4689067
22.9501947
38.2784634
37.9756284
29.0878164
22.2737386
23.9302811
38.0407807
38.519508
25.288995
24.8268886
38.5771502
38.0683803
28.9482674
22.7596442
24.3544
38.3459079
38.5932517
25.5875003
24.9801896
38.7878285
38.2115864
28.7758496
23.2875362
28.261927
38.0546165
38.7503871
24.1790129
23.5731675
38.2474616
38.364359
24.3342692
24.226532
38.4487038
38.4746987
24.213287
25.8103402
38.6950714
37.922853
28.7599307
21.9837572
25.2773852
38.4727786
38.7561809
24.5808692
26.477973
38.7786077
38.0351287
28.8038899
22.1920368
26.3359844
38.4296497
38.7267261
24.3128576
26.8852916
38.8565285
37.9140631
28.6775017
21.5294364
27.2998676
38.3297421
34.1562145
23.4871294
28.811444
38.3946058
28.6517616
24.7564424
31.4698375
38.3527696
28.9605801
24.7657673
28.772114
38.8474235
38.466036
28.9095448
21.7454822
28.6350725
38.3959228
37.2749323
23.8620976
28.5272008
38.8159668
38.3130757
28.7752389
23.3463831
28.9470792
38.8633758
38.5125331
28.9807643
22.4682807
29.3180838
38.3355464
35.8406999
24.2804354
29.192016
38.8846604
38.1996291
28.537056
21.3556895
28.5476089
)
;

boundaryField
{
    closed
    {
        type            calculated;
        value           nonuniform List<scalar> 0();
    }
    open
    {
        type            calculated;
        value           nonuniform List<scalar> 0();
    }
    sides
    {
        type            empty;
    }
    procBoundary2to1
    {
        type            processor;
        value           uniform 37.7697413;
    }
    procBoundary2to3
    {
        type            processor;
        value           uniform 38.4872947;
    }
}


// ************************************************************************* //
