/*--------------------------------*- C++ -*----------------------------------*\
| =========                 |                                                 |
| \\      /  F ield         | OpenFOAM: The Open Source CFD Toolbox           |
|  \\    /   O peration     | Version:  2306                                  |
|   \\  /    A nd           | Website:  www.openfoam.com                      |
|    \\/     M anipulation  |                                                 |
\*---------------------------------------------------------------------------*/
FoamFile
{
    version     2.0;
    format      ascii;
    arch        "LSB;label=32;scalar=64";
    class       volScalarField;
    location    "0.0017";
    object      prefDZ_H2;
}
// * * * * * * * * * * * * * * * * * * * * * * * * * * * * * * * * * * * * * //

dimensions      [1 -1 -1 0 0 0 0];

internalField   nonuniform List<scalar> 
531
(
6.35170577e-05
6.23234271e-05
6.13850489e-05
6.14368951e-05
6.34980637e-05
6.35513136e-05
6.35180249e-05
6.23440893e-05
6.18233437e-05
6.18792014e-05
6.12745088e-05
6.12933434e-05
6.34403722e-05
6.35488348e-05
6.18354918e-05
6.1757006e-05
6.34410607e-05
6.35483258e-05
6.3480973e-05
6.23346541e-05
6.11747923e-05
6.13018641e-05
6.34771544e-05
6.35387033e-05
6.35247313e-05
6.235745e-05
6.14608382e-05
6.10294791e-05
6.10399481e-05
6.34281843e-05
6.35276934e-05
6.14285458e-05
6.11609119e-05
6.34059068e-05
6.35391267e-05
6.34608458e-05
6.3552545e-05
6.236642e-05
6.16881527e-05
6.34840734e-05
6.35435787e-05
6.23557024e-05
6.18111577e-05
6.14193722e-05
6.14195531e-05
6.34823355e-05
6.35416e-05
6.35329503e-05
6.23471082e-05
6.16627542e-05
6.34815469e-05
6.35578352e-05
6.21463642e-05
6.20799326e-05
6.34814041e-05
6.23353574e-05
6.15649806e-05
6.34812366e-05
6.35529218e-05
6.35412841e-05
6.23152064e-05
6.17808591e-05
6.15478025e-05
6.15495857e-05
6.35002775e-05
6.35624071e-05
6.35552202e-05
6.23205504e-05
6.15438055e-05
6.15469072e-05
6.34864364e-05
6.35398401e-05
6.23244132e-05
6.14124655e-05
6.17441154e-05
6.34937183e-05
6.23139579e-05
6.12697137e-05
6.35009978e-05
6.35156095e-05
6.23253788e-05
6.11205159e-05
6.11548804e-05
6.34365678e-05
6.35522796e-05
6.35076114e-05
6.35499566e-05
6.23193775e-05
6.14394942e-05
6.15379676e-05
6.35250563e-05
6.35652404e-05
6.35670597e-05
6.23258654e-05
6.16351957e-05
6.16383242e-05
6.3486027e-05
6.35412619e-05
6.23250969e-05
6.13977065e-05
6.17797697e-05
6.34897999e-05
6.23230134e-05
6.13002499e-05
6.34871849e-05
6.35053742e-05
6.234698e-05
6.12546819e-05
6.13074811e-05
6.34698355e-05
6.35309313e-05
6.35265259e-05
6.21504828e-05
6.14984842e-05
6.09696803e-05
6.09825062e-05
6.33946687e-05
6.35095115e-05
6.34505149e-05
6.35257592e-05
6.16415247e-05
6.13610849e-05
6.34086081e-05
6.35296083e-05
6.34691485e-05
6.35442385e-05
6.3526765e-05
6.21157797e-05
6.11215767e-05
6.11478087e-05
6.3409214e-05
6.35128137e-05
6.21035597e-05
6.05528725e-05
6.07569865e-05
6.34343735e-05
6.34981914e-05
6.34900961e-05
6.18346368e-05
6.10967114e-05
6.34104157e-05
6.34818347e-05
6.3476675e-05
6.3491315e-05
6.23463119e-05
6.15123802e-05
6.11879368e-05
6.11976887e-05
6.34263802e-05
6.34904043e-05
6.35007484e-05
6.20595275e-05
6.05079779e-05
6.06865694e-05
6.34172059e-05
6.34957258e-05
6.34638381e-05
6.35133158e-05
6.34956464e-05
6.20204552e-05
6.13743386e-05
6.08946144e-05
6.08887269e-05
6.34108741e-05
6.35015631e-05
6.34650242e-05
6.3525437e-05
6.3511027e-05
6.2300273e-05
6.14318041e-05
6.12011512e-05
6.11935871e-05
6.34390997e-05
6.35064665e-05
6.34973536e-05
6.3521185e-05
6.23435014e-05
6.15332539e-05
6.13377425e-05
6.13300946e-05
6.34475596e-05
6.35203711e-05
6.35019965e-05
6.35343477e-05
6.23585042e-05
6.17236177e-05
6.15743405e-05
6.1575691e-05
6.34553532e-05
6.35309332e-05
6.18577675e-05
6.15190072e-05
6.34600435e-05
6.35241341e-05
6.19899738e-05
6.14229049e-05
6.3471834e-05
6.35037837e-05
6.22062363e-05
6.10613183e-05
6.12181179e-05
6.34558762e-05
6.35262019e-05
6.34966335e-05
6.35347231e-05
6.35256747e-05
6.23697186e-05
6.18381055e-05
6.15422807e-05
6.15359192e-05
6.34528875e-05
6.35144991e-05
6.16199415e-05
6.15716856e-05
6.34427701e-05
6.35217798e-05
6.35087542e-05
6.22507234e-05
6.11885524e-05
6.10049615e-05
6.10002677e-05
6.34362414e-05
6.34895657e-05
6.34902358e-05
6.3493374e-05
6.19539862e-05
6.07048352e-05
6.07905111e-05
6.34422533e-05
6.35176776e-05
6.34815642e-05
6.35286592e-05
6.1943774e-05
6.17963253e-05
6.34732527e-05
6.21114559e-05
6.14076259e-05
6.34645112e-05
6.35148486e-05
6.35048994e-05
6.23681664e-05
6.13363655e-05
6.13112831e-05
6.12917214e-05
6.34516295e-05
6.35084076e-05
6.3497999e-05
6.35191334e-05
6.22159332e-05
6.14976834e-05
6.12735435e-05
6.12728133e-05
6.34771284e-05
6.35190029e-05
6.35144243e-05
6.20939823e-05
6.13185302e-05
6.34913697e-05
6.35067951e-05
6.35305865e-05
6.35102468e-05
6.2323951e-05
6.16592432e-05
6.18424776e-05
6.1229759e-05
6.12474767e-05
6.34564088e-05
6.35459871e-05
6.16217106e-05
6.13595561e-05
6.34614663e-05
6.35400152e-05
6.14657053e-05
6.14536146e-05
6.34788481e-05
6.35372122e-05
6.35200501e-05
6.1933558e-05
6.13504086e-05
6.35117116e-05
6.35150267e-05
6.35443135e-05
6.35177721e-05
6.23179576e-05
6.16647532e-05
6.18404381e-05
6.12834296e-05
6.13009379e-05
6.34846269e-05
6.35641649e-05
6.17143544e-05
6.17034132e-05
6.34926906e-05
6.35565396e-05
6.35122257e-05
6.23246473e-05
6.14515335e-05
6.17591737e-05
6.10708024e-05
6.10850633e-05
6.34684309e-05
6.34976532e-05
6.34898777e-05
6.34947874e-05
6.19726033e-05
6.11590594e-05
6.35186594e-05
6.34579401e-05
6.17893867e-05
6.34604519e-05
6.35626422e-05
6.18730677e-05
6.15442068e-05
6.12940686e-05
6.13070861e-05
6.35152691e-05
6.3541317e-05
6.35391402e-05
6.20824465e-05
6.1741301e-05
6.35550682e-05
6.20623936e-05
6.14810432e-05
6.35512507e-05
6.35599395e-05
6.3557191e-05
6.2276543e-05
6.15082891e-05
6.35782777e-05
6.35435952e-05
6.22374078e-05
6.14956683e-05
6.15081451e-05
6.35416051e-05
6.35795848e-05
6.21634104e-05
6.16532462e-05
6.35675804e-05
6.35451494e-05
6.2263244e-05
6.15182922e-05
6.15398476e-05
6.35265254e-05
6.35850447e-05
6.20081033e-05
6.17300777e-05
6.35350832e-05
6.35778292e-05
6.1815989e-05
6.18205323e-05
6.35634171e-05
6.35745017e-05
6.35558416e-05
6.23315618e-05
6.14559762e-05
6.14663984e-05
6.35650545e-05
6.35477505e-05
6.21555901e-05
6.12961044e-05
6.13305754e-05
6.35246582e-05
6.35813185e-05
6.18985967e-05
6.15544487e-05
6.35293973e-05
6.35760248e-05
6.18528843e-05
6.17081956e-05
6.3540666e-05
6.35684607e-05
6.18765972e-05
6.18987319e-05
6.35711343e-05
6.23231727e-05
6.13886201e-05
6.35747716e-05
6.35385099e-05
6.23361179e-05
6.13845e-05
6.16075253e-05
6.35433475e-05
6.35571686e-05
6.35546388e-05
6.22771409e-05
6.19644061e-05
6.35615901e-05
6.35518331e-05
6.24308063e-05
6.21078443e-05
6.1752449e-05
6.17555278e-05
6.35714031e-05
6.35532925e-05
6.22353504e-05
6.15353632e-05
6.15453439e-05
6.3564358e-05
6.3567592e-05
6.21692523e-05
6.13501036e-05
6.13597236e-05
6.35723333e-05
6.3563427e-05
6.2024818e-05
6.11337443e-05
6.11730332e-05
6.35416498e-05
6.35860571e-05
6.35487924e-05
6.35984161e-05
6.23448347e-05
6.18602582e-05
6.35745583e-05
6.35917148e-05
6.23423801e-05
6.20909213e-05
6.35846264e-05
6.35860462e-05
6.23086168e-05
6.2130821e-05
6.19250806e-05
6.19261065e-05
6.35699549e-05
6.35999766e-05
6.21912831e-05
6.19251742e-05
6.35758655e-05
6.35867455e-05
6.23336735e-05
6.19042922e-05
6.16847102e-05
6.16879715e-05
6.35511943e-05
6.35786005e-05
6.17701461e-05
6.17746042e-05
6.35586397e-05
6.35813612e-05
6.35532532e-05
6.23046153e-05
6.13211061e-05
6.1724809e-05
6.3558291e-05
6.20798467e-05
6.15754485e-05
6.35561256e-05
6.35633171e-05
6.35546595e-05
6.23202857e-05
6.13037258e-05
6.17256002e-05
6.35442383e-05
6.20849966e-05
6.15581452e-05
6.35426548e-05
6.35506961e-05
6.35464361e-05
6.23417039e-05
6.12287859e-05
6.16322729e-05
6.35253114e-05
6.19834261e-05
6.14107467e-05
6.35136288e-05
6.35340288e-05
6.35206807e-05
6.22514661e-05
6.14491169e-05
6.35108163e-05
6.35426222e-05
6.18047945e-05
6.17896033e-05
6.35089111e-05
6.35530609e-05
6.35345993e-05
6.23346284e-05
6.14518266e-05
6.1479702e-05
6.1425517e-05
6.35026422e-05
6.35551751e-05
6.14507231e-05
6.14509498e-05
6.35220752e-05
6.35624801e-05
6.35395673e-05
6.23230053e-05
6.14656293e-05
6.3530984e-05
6.35546783e-05
6.22063382e-05
6.17760989e-05
6.35388463e-05
6.35576247e-05
6.23275332e-05
6.1850176e-05
6.16804132e-05
6.16780763e-05
6.35310185e-05
6.35706769e-05
6.19039627e-05
6.17065395e-05
6.35281781e-05
6.35778288e-05
6.20096839e-05
6.17904938e-05
6.35348345e-05
6.35773936e-05
6.21852101e-05
6.19024523e-05
6.3547401e-05
6.35698868e-05
6.2331507e-05
6.19504302e-05
6.18194093e-05
6.18120657e-05
6.35270893e-05
6.35649182e-05
6.20917584e-05
6.17026731e-05
6.35405509e-05
6.35394578e-05
6.22346215e-05
6.14984046e-05
6.151356e-05
6.34925804e-05
6.35674803e-05
6.18942844e-05
6.1609652e-05
6.3480958e-05
)
;

boundaryField
{
    closed
    {
        type            calculated;
        value           nonuniform List<scalar> 0();
    }
    open
    {
        type            calculated;
        value           nonuniform List<scalar> 0();
    }
    sides
    {
        type            empty;
    }
    procBoundary3to2
    {
        type            processor;
        value           uniform 6.35583739e-05;
    }
    procBoundary3to4
    {
        type            processor;
        value           uniform 6.35435473e-05;
    }
}


// ************************************************************************* //
