/*--------------------------------*- C++ -*----------------------------------*\
| =========                 |                                                 |
| \\      /  F ield         | OpenFOAM: The Open Source CFD Toolbox           |
|  \\    /   O peration     | Version:  2306                                  |
|   \\  /    A nd           | Website:  www.openfoam.com                      |
|    \\/     M anipulation  |                                                 |
\*---------------------------------------------------------------------------*/
FoamFile
{
    version     2.0;
    format      ascii;
    arch        "LSB;label=32;scalar=64";
    class       volScalarField;
    location    "0.00162";
    object      h;
}
// * * * * * * * * * * * * * * * * * * * * * * * * * * * * * * * * * * * * * //

dimensions      [0 2 -2 0 0 0 0];

internalField   nonuniform List<scalar> 
530
(
-2676.90268
-2125.70561
-1711.51765
-1181.97771
-774.364327
-263.362892
45.2643762
447.995872
748.703189
1138.16837
1433.66962
1811.38955
2102.12044
2469.53516
2755.98942
3114.46484
3397.20776
3748.02772
4027.72172
4372.08036
4649.49756
4988.50806
5257.24863
5529.61
5738.09905
6004.94654
6209.8377
6471.62534
6673.25119
6930.44735
7129.08608
7382.19474
7578.09149
7827.6404
8021.03325
8267.558
8458.69581
8702.73029
8891.88099
9133.95583
9321.40793
9562.05479
9748.11491
9987.87423
10172.8632
10422.7781
10619.0845
10842.125
10991.5086
11195.6006
11342.8186
11543.9774
11688.9761
11887.4893
12030.2574
12226.362
12366.9235
12560.8173
12699.2235
12891.0748
13027.3968
13217.3529
13351.6768
13539.8693
13672.2926
13858.8426
13989.4716
14174.4931
14303.4406
14487.044
14614.4286
14796.7237
14922.6679
15103.7668
15228.3967
15408.4161
15531.8604
15710.9248
15833.3143
16011.5581
16133.0254
16310.5955
16431.2751
16608.3333
16728.3607
16905.0867
17024.5979
17201.1926
17320.3228
17497.0111
17615.8932
17782.6698
17875.422
18021.0975
18112.841
18257.2548
18347.8853
18491.0966
18580.5378
18722.577
18810.7735
18951.651
19038.561
19178.2744
19263.8639
19402.404
19486.6428
19623.9971
19706.8568
19843.0103
19924.4657
20059.3991
20139.4314
20273.1162
20351.7198
20484.1092
20561.299
20692.3188
20768.1352
20897.6776
20972.1827
21100.112
21173.3701
21299.5524
21371.5899
21495.9484
21566.702
21689.2837
21758.5638
21879.574
21947.0792
22066.8485
22132.2311
22245.9091
22318.9533
22422.4141
22501.9852
22596.357
22681.3095
22767.6238
22856.9185
22936.0586
23028.7996
23101.5339
23196.9237
23263.979
23361.2434
23423.3561
23521.7059
23579.602
23674.4093
23730.1132
23825.7777
23880.8722
23973.4717
24028.1281
24117.5088
24171.7353
24257.8988
24311.6069
24394.637
24447.7051
24527.7048
24580.0174
24657.0762
24708.5387
24782.726
24833.265
24904.6338
24954.1917
25022.7868
25071.3164
25137.1793
25184.6404
25247.8136
25294.171
25354.6987
25399.9219
25457.8515
25501.9149
25557.2963
25600.1799
25653.066
25694.7558
25745.2024
25785.6912
25833.7573
25873.0451
25918.7932
25956.8876
26000.3835
26037.3009
26078.6128
26114.3809
26153.5761
26181.7817
26207.922
26228.5999
26252.3371
26271.0215
26292.3157
26309.0122
26327.8292
26342.5424
26358.8494
26371.5851
26385.3531
26396.1127
26407.3244
26416.0935
26424.7572
26431.4899
26437.6499
26442.2627
26446.0023
26448.3838
26449.844
26449.8464
26449.842
26447.7879
26444.0647
26440.471
26433.5803
26428.4838
26418.4836
26411.7834
26398.8182
26390.3381
26374.5808
26364.1563
26345.7569
26333.2639
26312.3374
26297.6878
26274.3207
26257.4518
26231.7105
26212.5768
26184.5146
26163.0829
26132.7447
26108.9904
26076.4152
26050.3211
26015.5443
25987.0989
25950.1531
25919.3506
25880.2659
25847.1055
25805.91
25770.3957
25727.1157
25689.2562
25643.9161
25603.724
25556.3471
25513.8388
25464.4475
25419.6423
25368.2588
25321.1783
25267.8252
25218.4922
25163.1935
25111.6318
25054.4132
25000.6472
24942.0538
24886.83
24826.525
24769.193
24707.0542
24647.6445
24583.6998
24522.2463
24456.5228
24393.0621
24325.5867
24260.1571
24190.957
24123.5982
24052.7015
23983.4541
23910.8899
23839.7953
23765.5938
23692.6941
23616.8867
23542.2246
23464.8438
23388.4627
23309.5419
23231.486
23151.0595
23071.3736
22989.4768
22908.2065
22824.875
22742.0668
22657.337
22573.0386
22486.9471
22401.2069
22313.7907
22226.6585
22137.9548
22049.4814
21959.5283
21870.0093
21779.5762
21689.2148
21597.5349
21505.8569
21412.9707
21320.031
21225.981
21131.8336
21036.6642
20941.3627
20845.1197
20748.7173
20651.4476
20553.9973
20455.7487
20357.3033
20258.1244
20158.7367
20058.6766
19958.3994
19857.5076
19756.3937
19654.7199
19552.8221
19450.4163
19347.7875
19244.6998
19141.3928
19037.6733
18933.7408
18829.4396
18724.9345
18620.1014
18515.0763
18409.7612
18304.2684
18198.5211
18092.6127
17986.4828
17880.2099
17773.7476
17667.1601
17560.4164
17453.5621
17346.5893
17239.5139
17132.3658
17025.113
16918.3305
16811.7705
16705.2281
16598.655
16492.1096
16385.5618
16279.0613
16172.5792
16066.1691
15959.7946
15853.5182
15747.2934
15641.1926
15535.1596
15429.2752
15323.4756
15217.8477
15112.3223
15006.9904
14901.7791
14796.782
14691.9239
14587.2998
14482.8332
14378.6194
14274.5818
14170.815
14067.2429
13963.9591
13860.8881
13758.1223
13655.5874
13553.3738
13451.4089
13349.7809
13248.4191
13147.4091
13046.6826
12946.3221
12846.2623
12746.582
12647.2192
12548.2487
12449.6124
12351.3804
12253.4992
12156.0336
12058.9348
11962.2628
11865.9726
11770.1205
11674.6638
11579.6578
11485.0576
11390.9236
11297.2016
11203.9652
11111.1415
11018.828
10926.9216
10835.7458
10745.3693
10655.5101
10566.0679
10477.1338
10388.643
10300.6579
10213.1357
10126.1219
10039.5855
9953.56301
9868.02956
9783.01689
9698.5029
9614.51709
9531.03841
9448.09517
9365.66681
9283.78068
9202.41669
9121.60115
9041.31458
8961.58205
8882.38494
8803.74683
8725.65021
8648.11696
8571.13085
8494.71192
8418.84534
8343.54922
8268.81024
8194.64446
8121.04018
8047.9344
7972.73311
7892.86341
7808.08481
7718.17527
7622.89607
7522.02738
7415.34411
7302.63957
7183.71907
7058.40501
6926.55417
6788.04248
6642.80224
6490.80099
6331.96392
6166.46055
5994.53941
5816.46279
5632.63615
5443.53944
5249.83018
5052.26363
4851.79368
4649.48699
4446.62121
4244.58247
4044.95479
3849.40166
3659.72501
3477.74428
3305.29561
3144.13174
2995.83511
2861.77125
2742.90937
2639.86829
2552.67987
2480.9531
2423.66915
2379.43626
2346.44406
2322.6984
2306.21642
2295.06879
2287.77716
2282.93325
2280.0088
2277.90212
2276.04002
2274.69393
2274.11358
2273.92136
2273.8786
2273.8794
2273.88684
2273.89101
2273.89341
2273.89424
2273.89451
2273.89459
2273.89461
2273.89461
2273.89461
2273.89461
2273.89461
2273.89461
2273.89461
2273.89461
2273.89461
2273.89461
2273.89461
2273.89461
2273.89461
2273.89461
2273.89461
2273.89461
2273.89461
)
;

boundaryField
{
    closed
    {
        type            lookUpEnthalpy;
        h0              nonuniform List<scalar> 0();
        value           nonuniform List<scalar> 0();
    }
    open
    {
        type            zeroGradient;
    }
    sides
    {
        type            empty;
    }
    procBoundary5to4
    {
        type            processor;
        value           uniform -3099.18502;
    }
}


// ************************************************************************* //
