/*--------------------------------*- C++ -*----------------------------------*\
| =========                 |                                                 |
| \\      /  F ield         | OpenFOAM: The Open Source CFD Toolbox           |
|  \\    /   O peration     | Version:  2306                                  |
|   \\  /    A nd           | Website:  www.openfoam.com                      |
|    \\/     M anipulation  |                                                 |
\*---------------------------------------------------------------------------*/
FoamFile
{
    version     2.0;
    format      ascii;
    arch        "LSB;label=32;scalar=64";
    class       volScalarField;
    location    "0.00162";
    object      H;
}
// * * * * * * * * * * * * * * * * * * * * * * * * * * * * * * * * * * * * * //

dimensions      [0 0 0 0 0 0 0];

internalField   nonuniform List<scalar> 
530
(
3.07806467e-05
3.01032628e-05
2.93654213e-05
2.87162012e-05
2.80147614e-05
2.73917644e-05
2.68096858e-05
2.62906973e-05
2.57361242e-05
2.52352516e-05
2.47045227e-05
2.42209513e-05
2.37126657e-05
2.32456116e-05
2.27584575e-05
2.23071635e-05
2.18399088e-05
2.14036412e-05
2.09551248e-05
2.05331712e-05
2.01022949e-05
1.96939621e-05
1.92865544e-05
1.89499074e-05
1.86091052e-05
1.82830271e-05
1.79548326e-05
1.76389397e-05
1.73227469e-05
1.70166639e-05
1.67118986e-05
1.64152593e-05
1.6121376e-05
1.58338235e-05
1.55503023e-05
1.52714887e-05
1.4997833e-05
1.47274189e-05
1.4463154e-05
1.4200807e-05
1.39454782e-05
1.36908728e-05
1.34440439e-05
1.31968599e-05
1.2958111e-05
1.27120598e-05
1.24746471e-05
1.22626764e-05
1.20751571e-05
1.18839183e-05
1.17029775e-05
1.15175271e-05
1.13428953e-05
1.11630329e-05
1.09944531e-05
1.08199839e-05
1.06572112e-05
1.04879452e-05
1.03307461e-05
1.0166498e-05
1.00146505e-05
9.85523913e-06
9.70853133e-06
9.55377999e-06
9.41200999e-06
9.261746e-06
9.12472092e-06
8.97877584e-06
8.84631117e-06
8.70452078e-06
8.57643967e-06
8.43864396e-06
8.31477665e-06
8.18081984e-06
8.06100298e-06
7.9307335e-06
7.81480969e-06
7.68808008e-06
7.57589735e-06
7.45256423e-06
7.34397559e-06
7.22389951e-06
7.11876255e-06
7.00180785e-06
6.89998439e-06
6.78601905e-06
6.68737475e-06
6.57627016e-06
6.48067428e-06
6.37230504e-06
6.2796301e-06
6.18357618e-06
6.11776565e-06
6.0420372e-06
5.9781027e-06
5.90398015e-06
5.84186694e-06
5.76930632e-06
5.70896198e-06
5.63792019e-06
5.57929429e-06
5.50972922e-06
5.45277313e-06
5.38464387e-06
5.32931046e-06
5.26257755e-06
5.20882087e-06
5.14344654e-06
5.09122155e-06
5.02716992e-06
4.97643232e-06
4.91366948e-06
4.86437564e-06
4.80286962e-06
4.75497674e-06
4.69469711e-06
4.6481636e-06
4.5890809e-06
4.54386705e-06
4.48595187e-06
4.4420206e-06
4.38524261e-06
4.34256016e-06
4.28688723e-06
4.24542359e-06
4.19082139e-06
4.15055002e-06
4.09698223e-06
4.05787925e-06
4.0053082e-06
3.96735163e-06
3.91573808e-06
3.878909e-06
3.82903195e-06
3.79169275e-06
3.74428768e-06
3.70647192e-06
3.6614453e-06
3.62319581e-06
3.5804474e-06
3.54181553e-06
3.50124026e-06
3.46228318e-06
3.42377383e-06
3.38455195e-06
3.34800136e-06
3.30857611e-06
3.27387902e-06
3.23431013e-06
3.20136542e-06
3.16242231e-06
3.13057019e-06
3.09198984e-06
3.06062793e-06
3.02310939e-06
2.9921931e-06
2.95573376e-06
2.9252335e-06
2.88981818e-06
2.8597164e-06
2.82532019e-06
2.79560747e-06
2.76219949e-06
2.73287098e-06
2.70041753e-06
2.67147041e-06
2.6399373e-06
2.61136912e-06
2.58072305e-06
2.55253083e-06
2.52274005e-06
2.49491991e-06
2.46595441e-06
2.43850153e-06
2.41033296e-06
2.38324169e-06
2.3558431e-06
2.32910715e-06
2.30245277e-06
2.27606538e-06
2.25013035e-06
2.22408447e-06
2.19884466e-06
2.17313305e-06
2.14856487e-06
2.12318024e-06
2.09926048e-06
2.07419557e-06
2.05090128e-06
2.02614893e-06
2.00345722e-06
1.97901056e-06
1.9568984e-06
1.93275091e-06
1.9111949e-06
1.89334006e-06
1.88221756e-06
1.86953677e-06
1.85861934e-06
1.84598928e-06
1.83526975e-06
1.82269465e-06
1.81216708e-06
1.79965004e-06
1.78930957e-06
1.77685265e-06
1.7666954e-06
1.75429979e-06
1.74432271e-06
1.73198892e-06
1.72218959e-06
1.70991779e-06
1.7002943e-06
1.68808433e-06
1.67863577e-06
1.66648646e-06
1.65721781e-06
1.645111e-06
1.63608857e-06
1.62409698e-06
1.61505364e-06
1.60326197e-06
1.59425525e-06
1.58264838e-06
1.57368094e-06
1.56225939e-06
1.55333016e-06
1.54209297e-06
1.53320249e-06
1.5221466e-06
1.5132971e-06
1.50241791e-06
1.49361271e-06
1.48290491e-06
1.47414772e-06
1.46360597e-06
1.45490042e-06
1.44451964e-06
1.43586904e-06
1.42564461e-06
1.41705189e-06
1.40697957e-06
1.3984473e-06
1.38852327e-06
1.38005364e-06
1.37027444e-06
1.36186936e-06
1.35223183e-06
1.34389294e-06
1.33439418e-06
1.3261229e-06
1.31676025e-06
1.30855781e-06
1.29932879e-06
1.29119629e-06
1.28209856e-06
1.274037e-06
1.26506829e-06
1.25707864e-06
1.24823669e-06
1.24031996e-06
1.23160245e-06
1.22375975e-06
1.21516422e-06
1.2073968e-06
1.19892071e-06
1.19122996e-06
1.18287073e-06
1.17505336e-06
1.16653556e-06
1.15872648e-06
1.15031815e-06
1.14257816e-06
1.13427667e-06
1.12660668e-06
1.11840977e-06
1.11081043e-06
1.10271613e-06
1.09518781e-06
1.0871944e-06
1.07973731e-06
1.07184323e-06
1.06445743e-06
1.05666121e-06
1.04934674e-06
1.04164696e-06
1.03440379e-06
1.02679908e-06
1.0196272e-06
1.01211622e-06
1.00501557e-06
9.97597022e-07
9.90567519e-07
9.83240193e-07
9.76281682e-07
9.69044453e-07
9.62156697e-07
9.55008556e-07
9.48191215e-07
9.41131291e-07
9.34383909e-07
9.27411481e-07
9.20733484e-07
9.13847986e-07
9.07238697e-07
9.00439705e-07
8.93898376e-07
8.87185584e-07
8.80711455e-07
8.73939038e-07
8.67101021e-07
8.60145481e-07
8.53430968e-07
8.46603901e-07
8.40010248e-07
8.33310078e-07
8.26834791e-07
8.20259821e-07
8.1390059e-07
8.07448999e-07
8.01203689e-07
7.94873542e-07
7.88740169e-07
7.82529437e-07
7.76506137e-07
7.70412727e-07
7.64497721e-07
7.58519501e-07
7.52711072e-07
7.46845899e-07
7.41142359e-07
7.35388104e-07
7.29787777e-07
7.24142344e-07
7.18643549e-07
7.13104894e-07
7.07705937e-07
7.02272074e-07
6.96971243e-07
6.91640253e-07
6.86435817e-07
6.81205842e-07
6.76096069e-07
6.70965292e-07
6.65948471e-07
6.6091508e-07
6.55989571e-07
6.51051697e-07
6.46215995e-07
6.41371644e-07
6.36624455e-07
6.31871438e-07
6.27211747e-07
6.22547651e-07
6.17974759e-07
6.1339697e-07
6.08910475e-07
6.04416261e-07
5.99767884e-07
5.94949378e-07
5.90206458e-07
5.8545211e-07
5.80766251e-07
5.760744e-07
5.71446381e-07
5.66815773e-07
5.62246038e-07
5.57675779e-07
5.53164464e-07
5.48653938e-07
5.44200937e-07
5.39749711e-07
5.35354762e-07
5.30962496e-07
5.26625252e-07
5.2229164e-07
5.18011723e-07
5.13736454e-07
5.09513485e-07
5.05296228e-07
5.01129841e-07
4.96970241e-07
4.92860081e-07
4.88757763e-07
4.84703484e-07
4.8065806e-07
4.7665932e-07
4.72670392e-07
4.68726843e-07
4.64794012e-07
4.60905299e-07
4.57028168e-07
4.53193922e-07
4.49372102e-07
4.45591936e-07
4.41825046e-07
4.3809856e-07
4.34386224e-07
4.30713005e-07
4.27054844e-07
4.23434481e-07
4.19830098e-07
4.16262196e-07
4.12711155e-07
4.09195365e-07
4.0569716e-07
4.0223321e-07
3.98787238e-07
3.95374962e-07
3.91980499e-07
3.88619867e-07
3.8527606e-07
3.81967183e-07
3.78673071e-07
3.75416188e-07
3.72170746e-07
3.68966181e-07
3.65768394e-07
3.62504686e-07
3.59009325e-07
3.55566479e-07
3.52142531e-07
3.48764561e-07
3.45409444e-07
3.42095565e-07
3.38806915e-07
3.35556239e-07
3.32331942e-07
3.29143457e-07
3.25981643e-07
3.2285422e-07
3.19753224e-07
3.16685648e-07
3.1364397e-07
3.10634968e-07
3.07651227e-07
3.04699509e-07
3.01772408e-07
2.98876687e-07
2.96004986e-07
2.93164e-07
2.903465e-07
2.87559021e-07
2.84794558e-07
2.82059396e-07
2.79346834e-07
2.76662838e-07
2.7400107e-07
2.71367126e-07
2.68755076e-07
2.66170101e-07
2.63606724e-07
2.61066997e-07
2.58456302e-07
2.55689967e-07
2.52755835e-07
2.49650935e-07
2.46363225e-07
2.42889423e-07
2.39218203e-07
2.35345835e-07
2.31262452e-07
2.26963913e-07
2.224423e-07
2.17693984e-07
2.12712113e-07
2.07497133e-07
2.02060068e-07
1.96397752e-07
1.90490694e-07
1.84343786e-07
1.77957885e-07
1.71341171e-07
1.64498038e-07
1.57443748e-07
1.50187228e-07
1.42750999e-07
1.35151093e-07
1.27417524e-07
1.19575182e-07
1.11662467e-07
1.0371397e-07
9.57771229e-08
8.78962025e-08
8.01272466e-08
7.25228491e-08
6.51452676e-08
5.80519954e-08
5.13061895e-08
4.49645304e-08
3.90822793e-08
3.37077758e-08
2.8876152e-08
2.46190381e-08
2.09376891e-08
1.78408669e-08
1.52823674e-08
1.32579249e-08
1.16417847e-08
1.04846773e-08
9.52899415e-09
9.02904382e-09
9.02817159e-09
9.02774885e-09
9.02755854e-09
9.02747727e-09
9.02745513e-09
9.02744235e-09
9.02743911e-09
9.02743807e-09
9.02743782e-09
9.02743776e-09
9.02743775e-09
9.02743775e-09
9.02743774e-09
9.02743774e-09
9.02743774e-09
9.02743774e-09
9.02743774e-09
9.02743774e-09
9.02743774e-09
9.02743774e-09
9.02743774e-09
9.02743774e-09
9.02743774e-09
9.02743774e-09
9.02743774e-09
9.02743774e-09
9.02743774e-09
9.02743774e-09
)
;

boundaryField
{
    closed
    {
        type            calculated;
        value           nonuniform List<scalar> 0();
    }
    open
    {
        type            calculated;
        value           uniform 9.02743774e-09;
    }
    sides
    {
        type            empty;
    }
    procBoundary5to4
    {
        type            processor;
        value           uniform 3.15578001e-05;
    }
}


// ************************************************************************* //
