/*--------------------------------*- C++ -*----------------------------------*\
| =========                 |                                                 |
| \\      /  F ield         | OpenFOAM: The Open Source CFD Toolbox           |
|  \\    /   O peration     | Version:  2306                                  |
|   \\  /    A nd           | Website:  www.openfoam.com                      |
|    \\/     M anipulation  |                                                 |
\*---------------------------------------------------------------------------*/
FoamFile
{
    version     2.0;
    format      ascii;
    arch        "LSB;label=32;scalar=64";
    class       volScalarField;
    location    "0.00162";
    object      prefDPV_H2;
}
// * * * * * * * * * * * * * * * * * * * * * * * * * * * * * * * * * * * * * //

dimensions      [1 -1 -1 0 0 0 0];

internalField   nonuniform List<scalar> 
530
(
-9.42601109e-05
-9.43156268e-05
-9.43694738e-05
-9.44229399e-05
-9.44747606e-05
-9.45263402e-05
-9.45736647e-05
-9.46209322e-05
-9.46664489e-05
-9.47121162e-05
-9.47559925e-05
-9.48001515e-05
-9.48424841e-05
-9.48852225e-05
-9.49261036e-05
-9.49675054e-05
-9.50070233e-05
-9.50471687e-05
-9.50854096e-05
-9.51243749e-05
-9.5161423e-05
-9.51992809e-05
-9.52350291e-05
-9.52702382e-05
-9.53034534e-05
-9.53376952e-05
-9.53699124e-05
-9.54032251e-05
-9.54344905e-05
-9.54669123e-05
-9.54972687e-05
-9.55288377e-05
-9.55583249e-05
-9.55890794e-05
-9.56177353e-05
-9.56477128e-05
-9.56755742e-05
-9.57048115e-05
-9.57319142e-05
-9.57604475e-05
-9.57868263e-05
-9.58146911e-05
-9.58403804e-05
-9.58676118e-05
-9.5892645e-05
-9.59200958e-05
-9.59454379e-05
-9.59718765e-05
-9.5995439e-05
-9.60208388e-05
-9.60437525e-05
-9.60685257e-05
-9.6090806e-05
-9.61149735e-05
-9.61366362e-05
-9.61602174e-05
-9.61812786e-05
-9.62042914e-05
-9.6224767e-05
-9.6247228e-05
-9.62671339e-05
-9.62890591e-05
-9.63084108e-05
-9.63298153e-05
-9.63486281e-05
-9.63695263e-05
-9.63878152e-05
-9.64082212e-05
-9.64260008e-05
-9.64459282e-05
-9.64632127e-05
-9.64826749e-05
-9.64994783e-05
-9.65184883e-05
-9.65348243e-05
-9.6553395e-05
-9.65692769e-05
-9.65874212e-05
-9.66028621e-05
-9.66205928e-05
-9.66356056e-05
-9.66529357e-05
-9.66675329e-05
-9.66844755e-05
-9.66986695e-05
-9.67152381e-05
-9.67290411e-05
-9.67452493e-05
-9.67586732e-05
-9.67745353e-05
-9.67875917e-05
-9.68029748e-05
-9.6815297e-05
-9.68300294e-05
-9.68419744e-05
-9.68563468e-05
-9.68679159e-05
-9.68819332e-05
-9.68931283e-05
-9.69067944e-05
-9.69176177e-05
-9.69309362e-05
-9.69413902e-05
-9.69543638e-05
-9.69644511e-05
-9.69770827e-05
-9.69868058e-05
-9.69990977e-05
-9.70084593e-05
-9.70204137e-05
-9.70294165e-05
-9.70410354e-05
-9.70496821e-05
-9.70609669e-05
-9.70692609e-05
-9.70802123e-05
-9.70881573e-05
-9.70987754e-05
-9.71063755e-05
-9.71166593e-05
-9.71239193e-05
-9.71338674e-05
-9.71407915e-05
-9.71504028e-05
-9.71569939e-05
-9.71662692e-05
-9.71725273e-05
-9.71814712e-05
-9.71873928e-05
-9.71960141e-05
-9.72015924e-05
-9.72099038e-05
-9.72151305e-05
-9.72229266e-05
-9.72282217e-05
-9.72353205e-05
-9.724065e-05
-9.72470903e-05
-9.72524194e-05
-9.7258238e-05
-9.7263534e-05
-9.72687637e-05
-9.72739977e-05
-9.72786683e-05
-9.7283814e-05
-9.72879538e-05
-9.72929859e-05
-9.7296623e-05
-9.73015163e-05
-9.73046783e-05
-9.73092995e-05
-9.73120474e-05
-9.7316538e-05
-9.73188959e-05
-9.73231499e-05
-9.7325136e-05
-9.73291398e-05
-9.73307687e-05
-9.73345128e-05
-9.73357956e-05
-9.73392739e-05
-9.73402193e-05
-9.73434277e-05
-9.73440432e-05
-9.73469787e-05
-9.73472709e-05
-9.73499312e-05
-9.73499065e-05
-9.73522897e-05
-9.73519543e-05
-9.73540586e-05
-9.73534187e-05
-9.73552428e-05
-9.73543043e-05
-9.73558474e-05
-9.7354616e-05
-9.73558776e-05
-9.7354359e-05
-9.73553391e-05
-9.73535387e-05
-9.73542377e-05
-9.7352161e-05
-9.73525796e-05
-9.73502319e-05
-9.73503715e-05
-9.7347758e-05
-9.73476201e-05
-9.73447461e-05
-9.73443328e-05
-9.73412037e-05
-9.73405173e-05
-9.73371386e-05
-9.73361819e-05
-9.73325592e-05
-9.7331335e-05
-9.73275289e-05
-9.73261273e-05
-9.73221221e-05
-9.73204472e-05
-9.73161995e-05
-9.73142506e-05
-9.73097635e-05
-9.73075405e-05
-9.73028168e-05
-9.730032e-05
-9.72953621e-05
-9.72925927e-05
-9.72874021e-05
-9.72843625e-05
-9.72789393e-05
-9.72756339e-05
-9.7269976e-05
-9.72664112e-05
-9.72605152e-05
-9.72566998e-05
-9.72505602e-05
-9.72465095e-05
-9.724011e-05
-9.72359185e-05
-9.72293144e-05
-9.7224703e-05
-9.72179688e-05
-9.72130106e-05
-9.7206144e-05
-9.72008456e-05
-9.71938458e-05
-9.71882166e-05
-9.71810768e-05
-9.717513e-05
-9.71678411e-05
-9.71615905e-05
-9.71541443e-05
-9.71476027e-05
-9.71399925e-05
-9.71331712e-05
-9.71253922e-05
-9.71183009e-05
-9.71103496e-05
-9.71029972e-05
-9.70948711e-05
-9.70872653e-05
-9.70789628e-05
-9.7071111e-05
-9.70626312e-05
-9.70545401e-05
-9.70458825e-05
-9.70375586e-05
-9.70287233e-05
-9.70201727e-05
-9.70111602e-05
-9.70023889e-05
-9.69932e-05
-9.69842136e-05
-9.69748494e-05
-9.69656535e-05
-9.69561155e-05
-9.69467156e-05
-9.69370055e-05
-9.69274068e-05
-9.69175265e-05
-9.69077343e-05
-9.68976861e-05
-9.68877053e-05
-9.68774916e-05
-9.68673272e-05
-9.68569508e-05
-9.68466075e-05
-9.68360714e-05
-9.6825427e-05
-9.68145635e-05
-9.68037123e-05
-9.67926944e-05
-9.67816784e-05
-9.67705095e-05
-9.67593336e-05
-9.67480173e-05
-9.67366862e-05
-9.67252263e-05
-9.67137448e-05
-9.6702145e-05
-9.6690518e-05
-9.66787822e-05
-9.66670145e-05
-9.66551465e-05
-9.66432429e-05
-9.66312469e-05
-9.66192122e-05
-9.66070923e-05
-9.65949312e-05
-9.65826915e-05
-9.6570409e-05
-9.65580537e-05
-9.65456545e-05
-9.6533188e-05
-9.65206768e-05
-9.65081035e-05
-9.64954852e-05
-9.64828093e-05
-9.64700888e-05
-9.64573148e-05
-9.64444969e-05
-9.64316292e-05
-9.64187187e-05
-9.64057618e-05
-9.63927636e-05
-9.6379722e-05
-9.63666408e-05
-9.6353519e-05
-9.63403598e-05
-9.63271662e-05
-9.63139423e-05
-9.63006783e-05
-9.62873752e-05
-9.62740358e-05
-9.62606588e-05
-9.62472489e-05
-9.62338032e-05
-9.62203278e-05
-9.62068186e-05
-9.61932826e-05
-9.61797149e-05
-9.61661233e-05
-9.61525024e-05
-9.61388602e-05
-9.61251911e-05
-9.61115031e-05
-9.60977909e-05
-9.60840623e-05
-9.60703119e-05
-9.60565474e-05
-9.60427638e-05
-9.60289685e-05
-9.60151567e-05
-9.60013355e-05
-9.59875002e-05
-9.59736579e-05
-9.59598042e-05
-9.59459455e-05
-9.59320781e-05
-9.5918208e-05
-9.59043317e-05
-9.58904547e-05
-9.58765743e-05
-9.58626952e-05
-9.58488152e-05
-9.58349387e-05
-9.58210639e-05
-9.58071945e-05
-9.57933293e-05
-9.57794716e-05
-9.57656206e-05
-9.57517791e-05
-9.57379466e-05
-9.57241259e-05
-9.5710316e-05
-9.56965205e-05
-9.56827376e-05
-9.56689717e-05
-9.56550886e-05
-9.56411465e-05
-9.56272247e-05
-9.56133265e-05
-9.55994512e-05
-9.55856008e-05
-9.55717757e-05
-9.55579772e-05
-9.5544206e-05
-9.55304631e-05
-9.55167495e-05
-9.5503066e-05
-9.54894136e-05
-9.5475793e-05
-9.54622054e-05
-9.54486514e-05
-9.5435132e-05
-9.5421648e-05
-9.54082002e-05
-9.53947896e-05
-9.53814169e-05
-9.5368083e-05
-9.53547886e-05
-9.53415346e-05
-9.53283218e-05
-9.53151508e-05
-9.53020225e-05
-9.52889377e-05
-9.52758971e-05
-9.52629014e-05
-9.52499514e-05
-9.52370476e-05
-9.52241911e-05
-9.52113822e-05
-9.51986219e-05
-9.51859105e-05
-9.51732491e-05
-9.51606379e-05
-9.51480781e-05
-9.51355696e-05
-9.51231138e-05
-9.51107106e-05
-9.50983612e-05
-9.50860656e-05
-9.50738251e-05
-9.50616393e-05
-9.50495098e-05
-9.50374361e-05
-9.50254198e-05
-9.50134603e-05
-9.50015592e-05
-9.49897161e-05
-9.49779321e-05
-9.49662073e-05
-9.49545423e-05
-9.49429377e-05
-9.49313934e-05
-9.49199108e-05
-9.49084888e-05
-9.489713e-05
-9.48858387e-05
-9.48746257e-05
-9.48634724e-05
-9.48523818e-05
-9.48413525e-05
-9.48303861e-05
-9.48194823e-05
-9.4808642e-05
-9.47978653e-05
-9.47871526e-05
-9.47765045e-05
-9.47659209e-05
-9.47554027e-05
-9.47449496e-05
-9.47345625e-05
-9.47242412e-05
-9.47139864e-05
-9.4703798e-05
-9.46936766e-05
-9.46836222e-05
-9.46736352e-05
-9.46637157e-05
-9.4653864e-05
-9.46440802e-05
-9.46343646e-05
-9.46247173e-05
-9.46151386e-05
-9.46056284e-05
-9.4596187e-05
-9.45868146e-05
-9.45775111e-05
-9.45682768e-05
-9.45591118e-05
-9.4550016e-05
-9.45409802e-05
-9.45316848e-05
-9.45218103e-05
-9.45113276e-05
-9.45002077e-05
-9.44884211e-05
-9.44759391e-05
-9.44627331e-05
-9.44487761e-05
-9.44340421e-05
-9.44185077e-05
-9.44021517e-05
-9.4384957e-05
-9.43669105e-05
-9.43480044e-05
-9.43279752e-05
-9.43069347e-05
-9.42850421e-05
-9.42623239e-05
-9.42388191e-05
-9.42145801e-05
-9.41896755e-05
-9.41641889e-05
-9.41382246e-05
-9.41119031e-05
-9.40853682e-05
-9.40587801e-05
-9.4032322e-05
-9.40061914e-05
-9.39806042e-05
-9.39557844e-05
-9.39319637e-05
-9.39093708e-05
-9.38882245e-05
-9.38687243e-05
-9.38510371e-05
-9.38352911e-05
-9.38215599e-05
-9.38098632e-05
-9.3800153e-05
-9.3792325e-05
-9.37862139e-05
-9.37816133e-05
-9.37782866e-05
-9.37759868e-05
-9.37744762e-05
-9.37735458e-05
-9.37730062e-05
-9.37727433e-05
-9.37725621e-05
-9.37723732e-05
-9.37722818e-05
-9.37722409e-05
-9.37722236e-05
-9.37722189e-05
-9.37722162e-05
-9.37722155e-05
-9.37722153e-05
-9.37722153e-05
-9.37722152e-05
-9.37722152e-05
-9.37722152e-05
-9.37722152e-05
-9.37722152e-05
-9.37722152e-05
-9.37722152e-05
-9.37722152e-05
-9.37722152e-05
-9.37722152e-05
-9.37722152e-05
-9.37722152e-05
-9.37722152e-05
-9.37722152e-05
-9.37722152e-05
-9.37722152e-05
-9.37722152e-05
-9.37722152e-05
-9.37722152e-05
)
;

boundaryField
{
    closed
    {
        type            calculated;
        value           nonuniform List<scalar> 0();
    }
    open
    {
        type            calculated;
        value           uniform -9.37722152e-05;
    }
    sides
    {
        type            empty;
    }
    procBoundary5to4
    {
        type            processor;
        value           uniform -9.42040608e-05;
    }
}


// ************************************************************************* //
