/*--------------------------------*- C++ -*----------------------------------*\
| =========                 |                                                 |
| \\      /  F ield         | OpenFOAM: The Open Source CFD Toolbox           |
|  \\    /   O peration     | Version:  2306                                  |
|   \\  /    A nd           | Website:  www.openfoam.com                      |
|    \\/     M anipulation  |                                                 |
\*---------------------------------------------------------------------------*/
FoamFile
{
    version     2.0;
    format      ascii;
    arch        "LSB;label=32;scalar=64";
    class       volVectorField;
    location    "0.00162";
    object      U;
}
// * * * * * * * * * * * * * * * * * * * * * * * * * * * * * * * * * * * * * //

dimensions      [0 1 -1 0 0 0 0];

internalField   nonuniform List<vector> 
530
(
(1.45907358 0 0)
(1.45689679 0 0)
(1.45474295 0 0)
(1.45261072 0 0)
(1.45049474 0 0)
(1.44837254 0 0)
(1.4462156 0 0)
(1.44403632 0 0)
(1.44185501 0 0)
(1.43967232 0 0)
(1.4374813 0 0)
(1.43527779 0 0)
(1.43305684 0 0)
(1.43081604 0 0)
(1.42855154 0 0)
(1.4262619 0 0)
(1.4239444 0 0)
(1.42159877 0 0)
(1.41922371 0 0)
(1.41682085 0 0)
(1.41439082 0 0)
(1.41193251 0 0)
(1.40943099 0 0)
(1.40688186 0 0)
(1.40430188 0 0)
(1.40170661 0 0)
(1.39909974 0 0)
(1.39648543 0 0)
(1.39386657 0 0)
(1.3912487 0 0)
(1.38863545 0 0)
(1.38603245 0 0)
(1.38344337 0 0)
(1.38087364 0 0)
(1.37832674 0 0)
(1.37580771 0 0)
(1.37331964 0 0)
(1.37086702 0 0)
(1.36845241 0 0)
(1.36607968 0 0)
(1.36375079 0 0)
(1.36146881 0 0)
(1.35923493 0 0)
(1.35705242 0 0)
(1.35492588 0 0)
(1.3528584 0 0)
(1.35084206 0 0)
(1.34886488 0 0)
(1.34692696 0 0)
(1.34504111 0 0)
(1.34321156 0 0)
(1.34143898 0 0)
(1.33972262 0 0)
(1.33806305 0 0)
(1.33646003 0 0)
(1.33491422 0 0)
(1.33342544 0 0)
(1.33199429 0 0)
(1.33062066 0 0)
(1.32930519 0 0)
(1.32804784 0 0)
(1.32684923 0 0)
(1.32570942 0 0)
(1.32462898 0 0)
(1.323608 0 0)
(1.32264698 0 0)
(1.32174601 0 0)
(1.32090547 0 0)
(1.3201254 0 0)
(1.319406 0 0)
(1.31874721 0 0)
(1.31814905 0 0)
(1.31761134 0 0)
(1.31713382 0 0)
(1.31671617 0 0)
(1.3163579 0 0)
(1.3160585 0 0)
(1.31581722 0 0)
(1.31563338 0 0)
(1.31550596 0 0)
(1.31543413 0 0)
(1.31541661 0 0)
(1.3154524 0 0)
(1.31554 0 0)
(1.31567828 0 0)
(1.31586549 0 0)
(1.31610037 0 0)
(1.31638106 0 0)
(1.31670645 0 0)
(1.31707458 0 0)
(1.31748175 0 0)
(1.31791924 0 0)
(1.31838396 0 0)
(1.3188794 0 0)
(1.31940737 0 0)
(1.31996541 0 0)
(1.32055142 0 0)
(1.32116251 0 0)
(1.32179682 0 0)
(1.32245145 0 0)
(1.32312441 0 0)
(1.32381268 0 0)
(1.32451413 0 0)
(1.3252256 0 0)
(1.32594484 0 0)
(1.32666853 0 0)
(1.32739429 0 0)
(1.32811867 0 0)
(1.32883915 0 0)
(1.32955214 0 0)
(1.33025501 0 0)
(1.33094407 0 0)
(1.33161656 0 0)
(1.33226875 0 0)
(1.3328978 0 0)
(1.33349997 0 0)
(1.3340724 0 0)
(1.33461142 0 0)
(1.33511419 0 0)
(1.33557721 0 0)
(1.33599775 0 0)
(1.33637262 0 0)
(1.33669925 0 0)
(1.33697491 0 0)
(1.33719731 0 0)
(1.33736431 0 0)
(1.33747403 0 0)
(1.33752497 0 0)
(1.33751586 0 0)
(1.3374459 0 0)
(1.33731452 0 0)
(1.3371214 0 0)
(1.33686615 0 0)
(1.33655099 0 0)
(1.33617623 0 0)
(1.3357431 0 0)
(1.33525332 0 0)
(1.33470914 0 0)
(1.33411335 0 0)
(1.33346892 0 0)
(1.33277953 0 0)
(1.33204896 0 0)
(1.33128161 0 0)
(1.33048202 0 0)
(1.32965512 0 0)
(1.32880604 0 0)
(1.32794019 0 0)
(1.32706306 0 0)
(1.32618038 0 0)
(1.32529739 0 0)
(1.32442028 0 0)
(1.32355544 0 0)
(1.32270854 0 0)
(1.3218849 0 0)
(1.32109011 0 0)
(1.32032946 0 0)
(1.31960831 0 0)
(1.3189315 0 0)
(1.31830376 0 0)
(1.31772945 0 0)
(1.31721252 0 0)
(1.31675675 0 0)
(1.31636523 0 0)
(1.31604108 0 0)
(1.31578644 0 0)
(1.31560375 0 0)
(1.31549419 0 0)
(1.31545944 0 0)
(1.31549976 0 0)
(1.31561609 0 0)
(1.31580777 0 0)
(1.31607506 0 0)
(1.31641642 0 0)
(1.31683146 0 0)
(1.31731788 0 0)
(1.31787474 0 0)
(1.31849903 0 0)
(1.31918934 0 0)
(1.31994211 0 0)
(1.32075557 0 0)
(1.3216257 0 0)
(1.32255048 0 0)
(1.32352557 0 0)
(1.3245488 0 0)
(1.32561564 0 0)
(1.3267239 0 0)
(1.32786897 0 0)
(1.32904872 0 0)
(1.3302586 0 0)
(1.33149661 0 0)
(1.33275835 0 0)
(1.3340421 0 0)
(1.33534375 0 0)
(1.33666187 0 0)
(1.33799187 0 0)
(1.33933107 0 0)
(1.34067584 0 0)
(1.34202699 0 0)
(1.34338207 0 0)
(1.34474075 0 0)
(1.34610029 0 0)
(1.34746079 0 0)
(1.34882003 0 0)
(1.35017857 0 0)
(1.35153465 0 0)
(1.3528892 0 0)
(1.35424088 0 0)
(1.35559085 0 0)
(1.3569381 0 0)
(1.35828396 0 0)
(1.35962761 0 0)
(1.36097066 0 0)
(1.36231271 0 0)
(1.3636559 0 0)
(1.36500073 0 0)
(1.3663492 0 0)
(1.36770779 0 0)
(1.36905087 0 0)
(1.37040355 0 0)
(1.37177169 0 0)
(1.37312638 0 0)
(1.37449233 0 0)
(1.37586185 0 0)
(1.37723574 0 0)
(1.37861287 0 0)
(1.37999304 0 0)
(1.38137441 0 0)
(1.38275629 0 0)
(1.38413637 0 0)
(1.38551365 0 0)
(1.38688534 0 0)
(1.38824994 0 0)
(1.38960423 0 0)
(1.39094617 0 0)
(1.39227214 0 0)
(1.39357961 0 0)
(1.39486468 0 0)
(1.39612442 0 0)
(1.3973548 0 0)
(1.39855266 0 0)
(1.39971395 0 0)
(1.40083541 0 0)
(1.40191312 0 0)
(1.40294392 0 0)
(1.40392416 0 0)
(1.40485091 0 0)
(1.40572094 0 0)
(1.40653172 0 0)
(1.40728062 0 0)
(1.40796564 0 0)
(1.40858483 0 0)
(1.40913692 0 0)
(1.40962074 0 0)
(1.41003583 0 0)
(1.41038193 0 0)
(1.41065944 0 0)
(1.41086905 0 0)
(1.41101212 0 0)
(1.41109031 0 0)
(1.41110591 0 0)
(1.4110616 0 0)
(1.41096059 0 0)
(1.41080649 0 0)
(1.41060347 0 0)
(1.41035608 0 0)
(1.41006936 0 0)
(1.40974819 0 0)
(1.40939676 0 0)
(1.40902276 0 0)
(1.40863404 0 0)
(1.40823603 0 0)
(1.40783591 0 0)
(1.40744106 0 0)
(1.40705901 0 0)
(1.40669742 0 0)
(1.40636412 0 0)
(1.40606704 0 0)
(1.4058142 0 0)
(1.40561363 0 0)
(1.40547341 0 0)
(1.40540148 0 0)
(1.40540577 0 0)
(1.405494 0 0)
(1.40567376 0 0)
(1.40595234 0 0)
(1.40633679 0 0)
(1.40683375 0 0)
(1.40744956 0 0)
(1.40819001 0 0)
(1.40906049 0 0)
(1.41006574 0 0)
(1.41120999 0 0)
(1.41249674 0 0)
(1.41392886 0 0)
(1.41550843 0 0)
(1.41723681 0 0)
(1.41911447 0 0)
(1.42114111 0 0)
(1.42331549 0 0)
(1.42563556 0 0)
(1.42809828 0 0)
(1.43069976 0 0)
(1.43343515 0 0)
(1.43629876 0 0)
(1.43928393 0 0)
(1.4423832 0 0)
(1.44558822 0 0)
(1.44888985 0 0)
(1.45227811 0 0)
(1.45574277 0 0)
(1.45927242 0 0)
(1.46285489 0 0)
(1.46647803 0 0)
(1.47012917 0 0)
(1.47379514 0 0)
(1.47746254 0 0)
(1.48111774 0 0)
(1.48474704 0 0)
(1.48833669 0 0)
(1.49187304 0 0)
(1.49534255 0 0)
(1.49873197 0 0)
(1.50202833 0 0)
(1.50521908 0 0)
(1.50829215 0 0)
(1.51123601 0 0)
(1.51403973 0 0)
(1.51669307 0 0)
(1.51918648 0 0)
(1.52151122 0 0)
(1.52365931 0 0)
(1.52562363 0 0)
(1.52739792 0 0)
(1.52897678 0 0)
(1.5303557 0 0)
(1.53153108 0 0)
(1.53250015 0 0)
(1.53326105 0 0)
(1.53381274 0 0)
(1.53415504 0 0)
(1.53428854 0 0)
(1.53421459 0 0)
(1.53393528 0 0)
(1.53345337 0 0)
(1.53277227 0 0)
(1.53189598 0 0)
(1.53082903 0 0)
(1.52957647 0 0)
(1.52814377 0 0)
(1.52653681 0 0)
(1.52476181 0 0)
(1.52282532 0 0)
(1.52073411 0 0)
(1.5184952 0 0)
(1.51611582 0 0)
(1.51360325 0 0)
(1.51096441 0 0)
(1.50820565 0 0)
(1.50533796 0 0)
(1.50236977 0 0)
(1.49930532 0 0)
(1.4961525 0 0)
(1.4929192 0 0)
(1.48961298 0 0)
(1.48624133 0 0)
(1.48281168 0 0)
(1.47933141 0 0)
(1.4758079 0 0)
(1.47224846 0 0)
(1.46866037 0 0)
(1.46505089 0 0)
(1.46142723 0 0)
(1.45779659 0 0)
(1.45416616 0 0)
(1.45054309 0 0)
(1.44693453 0 0)
(1.44334762 0 0)
(1.43978947 0 0)
(1.43626718 0 0)
(1.43278783 0 0)
(1.42935845 0 0)
(1.42598604 0 0)
(1.42267755 0 0)
(1.41943984 0 0)
(1.4162797 0 0)
(1.4132038 0 0)
(1.41021868 0 0)
(1.4073307 0 0)
(1.40454608 0 0)
(1.4018708 0 0)
(1.3993106 0 0)
(1.39687096 0 0)
(1.39455705 0 0)
(1.3923737 0 0)
(1.3903254 0 0)
(1.38841624 0 0)
(1.38664987 0 0)
(1.38502952 0 0)
(1.38355794 0 0)
(1.38223737 0 0)
(1.38106955 0 0)
(1.38005568 0 0)
(1.3791964 0 0)
(1.37849183 0 0)
(1.37794147 0 0)
(1.3775443 0 0)
(1.37729868 0 0)
(1.37720245 0 0)
(1.37725287 0 0)
(1.37744665 0 0)
(1.37777997 0 0)
(1.37824851 0 0)
(1.37884745 0 0)
(1.37957153 0 0)
(1.38041503 0 0)
(1.38137184 0 0)
(1.38243546 0 0)
(1.38359907 0 0)
(1.38485601 0 0)
(1.38619884 0 0)
(1.38761957 0 0)
(1.38911068 0 0)
(1.39066444 0 0)
(1.39227298 0 0)
(1.39392842 0 0)
(1.39562288 0 0)
(1.39734855 0 0)
(1.39909773 0 0)
(1.40086287 0 0)
(1.4026366 0 0)
(1.40441177 0 0)
(1.40618148 0 0)
(1.40793913 0 0)
(1.40967843 0 0)
(1.41139344 0 0)
(1.41307859 0 0)
(1.41472867 0 0)
(1.41633893 0 0)
(1.41790499 0 0)
(1.41942294 0 0)
(1.42088928 0 0)
(1.42230097 0 0)
(1.42365542 0 0)
(1.42495049 0 0)
(1.42618446 0 0)
(1.42735607 0 0)
(1.42846449 0 0)
(1.42950929 0 0)
(1.43049045 0 0)
(1.43140833 0 0)
(1.43226369 0 0)
(1.43305773 0 0)
(1.43379256 0 0)
(1.43449226 0 0)
(1.4351735 0 0)
(1.43582944 0 0)
(1.43645246 0 0)
(1.43703502 0 0)
(1.43757038 0 0)
(1.43805339 0 0)
(1.43848135 0 0)
(1.4388552 0 0)
(1.43918091 0 0)
(1.43947095 0 0)
(1.43974564 0 0)
(1.44003378 0 0)
(1.4403734 0 0)
(1.44082108 0 0)
(1.44143646 0 0)
(1.44227247 0 0)
(1.44338737 0 0)
(1.44482939 0 0)
(1.44662496 0 0)
(1.4487693 0 0)
(1.45122248 0 0)
(1.45391679 0 0)
(1.4567824 0 0)
(1.4597943 0 0)
(1.46303075 0 0)
(1.46671036 0 0)
(1.47114667 0 0)
(1.47655271 0 0)
(1.48268759 0 0)
(1.48850959 0 0)
(1.49223394 0 0)
(1.492202 0 0)
(1.48837255 0 0)
(1.48313231 0 0)
(1.47983993 0 0)
(1.47989376 0 0)
(1.48207751 0 0)
(1.48529692 0 0)
(1.49002842 0 0)
(1.49944986 0 0)
(1.52371437 0 0)
(1.57671233 0 0)
(1.66034027 0 0)
(1.75433886 0 0)
(1.82630484 0 0)
(1.85707909 0 0)
(1.84773367 0 0)
(1.81350049 0 0)
(1.75520764 0 0)
(1.67791787 0 0)
(1.62518366 0 0)
(1.62118773 0 0)
(1.6315174 0 0)
(1.64027063 0 0)
(1.62950888 0 0)
(1.59424674 0 0)
(1.53302144 0 0)
(1.49910204 0 0)
(1.50119849 0 0)
(1.56176431 0 0)
(1.60462631 0 0)
(1.5880562 0 0)
(1.50221122 0 0)
(1.45869057 0 0)
(1.48744941 0 0)
(1.63376454 0 0)
(1.80121624 0 0)
(1.91858847 0 0)
(1.80752455 0 0)
(1.60047052 0 0)
(1.47189065 0 0)
(1.53212049 0 0)
(1.60117956 0 0)
(1.62129802 0 0)
(1.4405992 0 0)
(1.42975918 0 0)
)
;

boundaryField
{
    closed
    {
        type            noSlip;
    }
    open
    {
        type            inletOutlet;
        inletValue      uniform (0 0 0);
        value           uniform (1.42975918 0 0);
    }
    sides
    {
        type            empty;
    }
    procBoundary5to4
    {
        type            processor;
        value           uniform (1.46127217 0 0);
    }
}


// ************************************************************************* //
