/*--------------------------------*- C++ -*----------------------------------*\
| =========                 |                                                 |
| \\      /  F ield         | OpenFOAM: The Open Source CFD Toolbox           |
|  \\    /   O peration     | Version:  2306                                  |
|   \\  /    A nd           | Website:  www.openfoam.com                      |
|    \\/     M anipulation  |                                                 |
\*---------------------------------------------------------------------------*/
FoamFile
{
    version     2.0;
    format      ascii;
    arch        "LSB;label=32;scalar=64";
    class       volScalarField;
    location    "0.002";
    object      H2O;
}
// * * * * * * * * * * * * * * * * * * * * * * * * * * * * * * * * * * * * * //

dimensions      [0 0 0 0 0 0 0];

internalField   nonuniform List<scalar> 
530
(
0.125459499
0.124402947
0.124271114
0.124711149
0.125701268
0.125558316
0.124573123
0.124654949
0.125935671
0.125986391
0.124817742
0.124886454
0.126115455
0.12610714
0.125013055
0.125123189
0.126243952
0.126227502
0.125164136
0.125359326
0.126369285
0.126360012
0.125322204
0.125532333
0.126485142
0.126478461
0.125490619
0.125655798
0.126589946
0.12658244
0.125645733
0.125778323
0.126694662
0.126674962
0.125777361
0.125896299
0.126786538
0.12676285
0.12589151
0.126003267
0.126867156
0.126844307
0.125991368
0.126099672
0.126933113
0.126919299
0.126080583
0.126187086
0.126964175
0.126983791
0.126156852
0.126269427
0.126989125
0.127039005
0.126234171
0.126331534
0.127040184
0.127068994
0.126312071
0.126379853
0.127100331
0.127097604
0.126357744
0.126433034
0.127135231
0.127140825
0.126387318
0.126466961
0.127144692
0.127160128
0.126413235
0.126481245
0.127149957
0.127164792
0.126433634
0.12649266
0.127152964
0.127163266
0.126448666
0.126502651
0.127153121
0.127158798
0.12645839
0.126509937
0.127149779
0.127151837
0.126463852
0.126515094
0.12714282
0.127143627
0.126464469
0.126518027
0.127132876
0.127133031
0.126462184
0.126517885
0.127119327
0.127117778
0.126449057
0.126514125
0.127104185
0.127103181
0.126442566
0.126503786
0.127088807
0.127087932
0.126439846
0.126505052
0.127070423
0.127073487
0.126434517
0.126505124
0.127052573
0.127059626
0.126427691
0.126500797
0.12703377
0.127044422
0.126419828
0.126492937
0.127013577
0.12702672
0.126410518
0.126482486
0.12699253
0.127007259
0.126399993
0.126469929
0.126970791
0.126986295
0.126388503
0.126455655
0.126948749
0.126964255
0.126376048
0.126440204
0.126925265
0.126941645
0.126364613
0.126423907
0.126900395
0.126917264
0.126348373
0.126408269
0.126874498
0.126890967
0.126330458
0.126387787
0.126848617
0.126863799
0.126312846
0.126367646
0.12682328
0.126836572
0.126295814
0.126348228
0.126799013
0.126810141
0.126279344
0.126329667
0.126775772
0.126784878
0.126263606
0.126312216
0.126753525
0.126760904
0.126248617
0.12629605
0.126732324
0.126738392
0.126234247
0.126281225
0.126711798
0.126717638
0.126221346
0.126268254
0.12669458
0.126698803
0.126204797
0.126256077
0.126682983
0.126687101
0.126202121
0.126248501
0.12667463
0.126680387
0.126201045
0.126252348
0.126664109
0.126675252
0.126196836
0.126258019
0.126655768
0.126672576
0.126197723
0.126261192
0.126650981
0.126670137
0.126203253
0.126263954
0.126649999
0.12666932
0.126210548
0.1262704
0.126651006
0.126671009
0.126218408
0.126278664
0.126654156
0.126674908
0.126228685
0.12628782
0.126659945
0.126681115
0.126245137
0.126298371
0.126661809
0.126687833
0.126254388
0.126314534
0.126660328
0.126690939
0.126257983
0.12631832
0.126657159
0.126692156
0.126263961
0.126325277
0.126654891
0.126692975
0.126272095
0.126335655
0.12665565
0.126695757
0.126282925
0.126348485
0.12665951
0.126700956
0.126296597
0.126363522
0.1266666
0.12670881
0.126312786
0.126381211
0.126675782
0.126719422
0.126330811
0.126401227
0.126687388
0.126730678
0.126349715
0.126423764
0.126699467
0.126743993
0.126370355
0.126446888
0.126714615
0.126758357
0.126393138
0.126470135
0.126733403
0.126775053
0.126423288
0.126496381
0.126756089
0.126794278
0.126455586
0.126525899
0.12678234
0.126815533
0.126489485
0.126556535
0.126811315
0.126838574
0.126524663
0.126588638
0.126842287
0.126863526
0.126560507
0.126622413
0.126874329
0.126890692
0.126596392
0.126657964
0.126906682
0.126920696
0.126631851
0.126695332
0.126939466
0.126955106
0.12666685
0.126734831
0.12697605
0.126998258
0.126701776
0.126777382
0.127027189
0.127060467
0.126741789
0.126828177
0.127120036
0.12716248
0.126806004
0.126901819
0.127251046
0.127262763
0.127059993
0.127153714
0.127086603
0.127130342
0.127372955
0.12734333
0.127062187
0.127113376
0.127341258
0.127340324
0.127065269
0.127113752
0.127355606
0.127355934
0.127091663
0.127139131
0.127381704
0.12738193
0.127124331
0.127175541
0.127414139
0.127411599
0.127160255
0.127212841
0.127445838
0.127444473
0.1271978
0.127250404
0.127475637
0.127480457
0.127236085
0.127295943
0.127508686
0.12751938
0.127274592
0.127344427
0.127542754
0.127560152
0.127314732
0.127393219
0.127579119
0.127601667
0.127358457
0.127441229
0.127618197
0.127642972
0.127404477
0.127489867
0.127659158
0.127682376
0.127451618
0.12753853
0.127700843
0.127722443
0.127498976
0.127588159
0.127742218
0.127762771
0.127545788
0.127639076
0.127783225
0.127803275
0.127592722
0.127689356
0.12782517
0.127843811
0.127642088
0.127737666
0.127869185
0.127884228
0.127694009
0.127785208
0.127914596
0.127924352
0.127746246
0.127832363
0.127957205
0.127964237
0.127799579
0.127878964
0.127997194
0.128003633
0.127852117
0.127924813
0.128037436
0.128042569
0.127904492
0.127969608
0.128077723
0.128081173
0.127956751
0.128013508
0.128117729
0.128119488
0.128008058
0.128057338
0.128157231
0.12815753
0.128057521
0.128101056
0.128195955
0.128195518
0.128105228
0.128144413
0.128233923
0.128233014
0.128151495
0.128186717
0.128270813
0.128269544
0.128195925
0.128228143
0.128306786
0.128305379
0.128238622
0.128270506
0.128343187
0.128340503
0.128279844
0.128309606
0.128377347
0.128374826
0.128319797
0.128347564
0.128410703
0.128408541
0.12835829
0.128383339
0.128441842
0.128441597
0.128394318
0.128420629
0.12847312
0.128473705
0.128428476
0.128455702
0.12850365
0.128505024
0.12846314
0.128488379
0.12853544
0.128536971
0.128499802
0.128521078
0.128573788
0.128574619
0.128532152
0.128553253
0.128595792
0.128606635
0.128592645
0.128607833
0.128616779
0.128632282
0.128636618
0.128653354
0.128660088
0.128677644
0.128685978
0.128704259
0.128714414
0.128733369
0.128745344
0.128764903
0.12877865
0.128798651
0.128814091
0.128834237
0.128851262
0.12887111
0.128889555
0.128908531
0.128928195
0.128945586
0.128966393
0.128981288
0.128999559
0.129012862
0.129030794
0.129043647
0.129057881
0.129069024
0.129079774
0.129088445
0.129096007
0.129102033
0.129106857
0.129110544
0.129113263
0.129115206
0.129116545
0.12911721
0.129117602
0.129117813
0.129117919
0.129117968
0.129117987
0.129117994
0.129117996
0.129117996
0.129117996
0.129117996
0.129117996
0.129117996
0.129117996
0.129117996
0.129117996
0.129117996
0.129117996
0.129117996
0.129117996
0.129117996
0.129117996
0.129117996
0.129117996
0.129117996
0.129117996
0.129117996
0.129117996
0.129117996
0.129117996
0.129117996
0.129117996
0.129117996
)
;

boundaryField
{
    closed
    {
        type            calculated;
        value           nonuniform List<scalar> 0();
    }
    open
    {
        type            calculated;
        value           uniform 0.129117996;
    }
    sides
    {
        type            empty;
    }
    procBoundary5to4
    {
        type            processor;
        value           uniform 0.125291739;
    }
}


// ************************************************************************* //
