/*--------------------------------*- C++ -*----------------------------------*\
| =========                 |                                                 |
| \\      /  F ield         | OpenFOAM: The Open Source CFD Toolbox           |
|  \\    /   O peration     | Version:  2306                                  |
|   \\  /    A nd           | Website:  www.openfoam.com                      |
|    \\/     M anipulation  |                                                 |
\*---------------------------------------------------------------------------*/
FoamFile
{
    version     2.0;
    format      ascii;
    arch        "LSB;label=32;scalar=64";
    class       volScalarField;
    location    "0.00094";
    object      H;
}
// * * * * * * * * * * * * * * * * * * * * * * * * * * * * * * * * * * * * * //

dimensions      [0 0 0 0 0 0 0];

internalField   nonuniform List<scalar> 
530
(
4.62846447e-05
4.52423663e-05
4.42922608e-05
4.32917833e-05
4.23779315e-05
4.14158105e-05
4.05358714e-05
3.9611391e-05
3.88520997e-05
3.80532327e-05
3.73202305e-05
3.65481896e-05
3.58402987e-05
3.50473789e-05
3.43320489e-05
3.35676578e-05
3.2883556e-05
3.21480596e-05
3.14938354e-05
3.07854836e-05
3.01598974e-05
2.95008423e-05
2.89703167e-05
2.83857292e-05
2.78785361e-05
2.73137599e-05
2.68289629e-05
2.62828415e-05
2.58194979e-05
2.52909661e-05
2.48481403e-05
2.43361961e-05
2.39129845e-05
2.34166521e-05
2.30122161e-05
2.25305161e-05
2.21441102e-05
2.16760564e-05
2.13070269e-05
2.08516622e-05
2.04993989e-05
2.00959881e-05
1.98068211e-05
1.94437248e-05
1.91607039e-05
1.88109199e-05
1.85368287e-05
1.8197148e-05
1.79261892e-05
1.76034705e-05
1.73359754e-05
1.70289655e-05
1.67649184e-05
1.64728705e-05
1.62122041e-05
1.59344281e-05
1.56770112e-05
1.54128862e-05
1.51585589e-05
1.49075085e-05
1.46561119e-05
1.44175871e-05
1.41689672e-05
1.39424562e-05
1.36964304e-05
1.3481504e-05
1.32377936e-05
1.30341746e-05
1.27923424e-05
1.25999258e-05
1.23940797e-05
1.22453972e-05
1.20491152e-05
1.19089271e-05
1.17179056e-05
1.15809589e-05
1.13946492e-05
1.12592664e-05
1.10799932e-05
1.0945684e-05
1.07717619e-05
1.06393643e-05
1.04714601e-05
1.03413584e-05
1.01791836e-05
1.00513285e-05
9.89469005e-06
9.76899455e-06
9.61772539e-06
9.49410801e-06
9.34803593e-06
9.22643593e-06
9.08537531e-06
8.96575323e-06
8.82950719e-06
8.7118396e-06
8.58020543e-06
8.46447858e-06
8.33725331e-06
8.22345756e-06
8.10044243e-06
7.98856795e-06
7.86957168e-06
7.75960527e-06
7.64444626e-06
7.53636927e-06
7.42487693e-06
7.31866386e-06
7.21067956e-06
7.10629699e-06
7.001675e-06
6.89908052e-06
6.79768898e-06
6.69683025e-06
6.59855051e-06
6.49936602e-06
6.40408712e-06
6.30651157e-06
6.21584854e-06
6.14454431e-06
6.07809224e-06
6.00774239e-06
5.94314924e-06
5.87374174e-06
5.81097101e-06
5.74248838e-06
5.68150263e-06
5.61393128e-06
5.55468788e-06
5.48802162e-06
5.43047275e-06
5.36471204e-06
5.3088064e-06
5.24395428e-06
5.18964243e-06
5.12569151e-06
5.07294163e-06
5.00984963e-06
4.95865333e-06
4.89642754e-06
4.84648e-06
4.78596945e-06
4.73686611e-06
4.67719398e-06
4.6292745e-06
4.57088126e-06
4.52390721e-06
4.46678555e-06
4.42071915e-06
4.3648443e-06
4.3196571e-06
4.26501656e-06
4.22067746e-06
4.16726107e-06
4.12374181e-06
4.07153522e-06
4.02881394e-06
3.97779655e-06
3.93585797e-06
3.88600401e-06
3.84483761e-06
3.79611829e-06
3.75571618e-06
3.70810159e-06
3.66845705e-06
3.62191717e-06
3.58302386e-06
3.53686601e-06
3.49744316e-06
3.45151597e-06
3.41279535e-06
3.36782915e-06
3.32979806e-06
3.28576865e-06
3.24841227e-06
3.20529806e-06
3.16860023e-06
3.12638121e-06
3.09032521e-06
3.04898228e-06
3.01355136e-06
2.97306587e-06
2.93824352e-06
2.89859707e-06
2.86436711e-06
2.82554139e-06
2.79188808e-06
2.75386473e-06
2.72077282e-06
2.6835333e-06
2.65098812e-06
2.61451356e-06
2.5825011e-06
2.54677213e-06
2.51527916e-06
2.48027578e-06
2.44928996e-06
2.4149915e-06
2.38450131e-06
2.35088677e-06
2.32088114e-06
2.28793013e-06
2.25825455e-06
2.22585712e-06
2.19677295e-06
2.16519007e-06
2.13672247e-06
2.10591796e-06
2.07804525e-06
2.04798257e-06
2.02068434e-06
1.99132681e-06
1.96458377e-06
1.93589435e-06
1.90968836e-06
1.88162963e-06
1.85594329e-06
1.82847786e-06
1.80329362e-06
1.77638456e-06
1.75168462e-06
1.72529374e-06
1.70652209e-06
1.69309285e-06
1.68067569e-06
1.66756303e-06
1.65537245e-06
1.6425618e-06
1.63059815e-06
1.61807552e-06
1.60633951e-06
1.59409087e-06
1.58224487e-06
1.5693657e-06
1.55712093e-06
1.54438891e-06
1.53224392e-06
1.51965468e-06
1.50761333e-06
1.49516382e-06
1.48322877e-06
1.470917e-06
1.45909014e-06
1.44691474e-06
1.43519754e-06
1.42315753e-06
1.41155118e-06
1.39964581e-06
1.38815128e-06
1.37637998e-06
1.3649981e-06
1.3533604e-06
1.3420919e-06
1.33058738e-06
1.31943292e-06
1.30806118e-06
1.29702142e-06
1.28578203e-06
1.27485759e-06
1.26375014e-06
1.25294162e-06
1.24196566e-06
1.23127366e-06
1.22042875e-06
1.20985381e-06
1.19913953e-06
1.18868215e-06
1.17809809e-06
1.16775871e-06
1.15730449e-06
1.14708346e-06
1.1367588e-06
1.12665635e-06
1.11646102e-06
1.10647729e-06
1.0964111e-06
1.08654612e-06
1.07660893e-06
1.06686269e-06
1.05705429e-06
1.0474268e-06
1.03774682e-06
1.02823826e-06
1.01868601e-06
1.00929683e-06
9.99871313e-07
9.90602201e-07
9.81302259e-07
9.72153972e-07
9.62978553e-07
9.53951582e-07
9.44899426e-07
9.35285858e-07
9.25400816e-07
9.15689776e-07
9.05992431e-07
8.96460344e-07
8.86945545e-07
8.77588677e-07
8.68251441e-07
8.59066372e-07
8.49901916e-07
8.4088527e-07
8.31889206e-07
8.23037467e-07
8.14205819e-07
8.05515335e-07
7.96844458e-07
7.88311525e-07
7.79798014e-07
7.71418949e-07
7.63059581e-07
7.5483076e-07
7.46622476e-07
7.38540345e-07
7.30480245e-07
7.22541311e-07
7.14626648e-07
7.06827499e-07
6.99055646e-07
6.91393024e-07
6.83761384e-07
6.7623239e-07
6.68738215e-07
6.61341445e-07
6.5413082e-07
6.47011988e-07
6.39924239e-07
6.32928939e-07
6.25961518e-07
6.19087482e-07
6.12238537e-07
6.05483366e-07
5.98751296e-07
5.92112672e-07
5.85495925e-07
5.78971687e-07
5.72468688e-07
5.66056847e-07
5.59665995e-07
5.53364718e-07
5.47084402e-07
5.40891988e-07
5.34720611e-07
5.28635462e-07
5.2257146e-07
5.16592062e-07
5.10633912e-07
5.04758819e-07
4.9890505e-07
4.93132871e-07
4.87382061e-07
4.81711454e-07
4.76062232e-07
4.70491895e-07
4.64942935e-07
4.59471606e-07
4.54021624e-07
4.48648076e-07
4.43295827e-07
4.38018866e-07
4.32763138e-07
4.27581598e-07
4.2242121e-07
4.17333955e-07
4.12267752e-07
4.07273669e-07
4.02300524e-07
3.97398522e-07
3.92517329e-07
3.87706338e-07
3.82916011e-07
3.78194977e-07
3.7349445e-07
3.68862336e-07
3.64250557e-07
3.59706342e-07
3.55182275e-07
3.50724949e-07
3.4628757e-07
3.41916134e-07
3.37564433e-07
3.33277897e-07
3.29010873e-07
3.24808257e-07
3.20624919e-07
3.16505248e-07
3.12404613e-07
3.08366921e-07
3.04348013e-07
3.00391338e-07
2.96453186e-07
2.9257657e-07
2.88718211e-07
2.84920699e-07
2.81141174e-07
2.77421815e-07
2.73720168e-07
2.70078012e-07
2.66453292e-07
2.62887391e-07
2.59338648e-07
2.55848057e-07
2.52374345e-07
2.48958116e-07
2.45558489e-07
2.42215676e-07
2.38889192e-07
2.3561885e-07
2.32364566e-07
2.29165747e-07
2.25982722e-07
2.2285448e-07
2.19741773e-07
2.16683159e-07
2.13639831e-07
2.10649895e-07
2.07675006e-07
2.047528e-07
2.01845408e-07
1.98989981e-07
1.96149148e-07
1.93359547e-07
1.90584334e-07
1.87859607e-07
1.85149073e-07
1.82488266e-07
1.79841472e-07
1.77243632e-07
1.74659638e-07
1.7212381e-07
1.69601677e-07
1.67126907e-07
1.64665695e-07
1.62251028e-07
1.598498e-07
1.57494282e-07
1.55152098e-07
1.52854776e-07
1.505707e-07
1.48330621e-07
1.46103715e-07
1.43919927e-07
1.41749257e-07
1.39620811e-07
1.37505442e-07
1.3543139e-07
1.33370389e-07
1.31349787e-07
1.29342223e-07
1.27374126e-07
1.25419071e-07
1.23500522e-07
1.21525156e-07
1.19452918e-07
1.17253135e-07
1.1495051e-07
1.12512524e-07
1.09967028e-07
1.07280178e-07
1.04483114e-07
1.01541482e-07
9.84897053e-08
9.52940963e-08
9.19921327e-08
8.85524315e-08
8.50149422e-08
8.13527378e-08
7.76071995e-08
7.37585334e-08
6.98479114e-08
6.58657893e-08
6.18508235e-08
5.7806964e-08
5.37674328e-08
4.97524615e-08
4.57865573e-08
4.190763e-08
3.81283078e-08
3.45030686e-08
3.10301229e-08
2.77761761e-08
2.47231176e-08
2.19430129e-08
1.93992136e-08
1.71617163e-08
1.51751365e-08
1.349029e-08
1.20700073e-08
1.08541333e-08
9.95771094e-09
9.24520971e-09
9.02822125e-09
9.02782294e-09
9.02761648e-09
9.0275146e-09
9.02746841e-09
9.02744911e-09
9.02744201e-09
9.02743946e-09
9.0274382e-09
9.02743787e-09
9.02743778e-09
9.02743775e-09
9.02743775e-09
9.02743775e-09
9.02743774e-09
9.02743774e-09
9.02743774e-09
9.02743774e-09
9.02743774e-09
9.02743774e-09
9.02743774e-09
9.02743774e-09
9.02743774e-09
9.02743774e-09
9.02743774e-09
9.02743774e-09
9.02743774e-09
9.02743774e-09
9.02743774e-09
9.02743774e-09
9.02743774e-09
9.02743774e-09
9.02743774e-09
9.02743774e-09
9.02743774e-09
9.02743774e-09
9.02743774e-09
9.02743774e-09
)
;

boundaryField
{
    closed
    {
        type            calculated;
        value           nonuniform List<scalar> 0();
    }
    open
    {
        type            calculated;
        value           uniform 9.02743774e-09;
    }
    sides
    {
        type            empty;
    }
    procBoundary5to4
    {
        type            processor;
        value           uniform 4.72736029e-05;
    }
}


// ************************************************************************* //
