/*--------------------------------*- C++ -*----------------------------------*\
| =========                 |                                                 |
| \\      /  F ield         | OpenFOAM: The Open Source CFD Toolbox           |
|  \\    /   O peration     | Version:  2306                                  |
|   \\  /    A nd           | Website:  www.openfoam.com                      |
|    \\/     M anipulation  |                                                 |
\*---------------------------------------------------------------------------*/
FoamFile
{
    version     2.0;
    format      ascii;
    arch        "LSB;label=32;scalar=64";
    class       volScalarField;
    location    "0.00094";
    object      PV;
}
// * * * * * * * * * * * * * * * * * * * * * * * * * * * * * * * * * * * * * //

dimensions      [0 0 0 0 0 0 0];

internalField   nonuniform List<scalar> 
530
(
0.0077565976
0.00776326628
0.00776947807
0.00777587826
0.00778181929
0.00778796086
0.00779364146
0.00779953224
0.00780488588
0.0078104475
0.00781554795
0.00782086885
0.00782572485
0.00783060144
0.00783504278
0.00783968616
0.00784389336
0.00784832268
0.00785230441
0.00785652975
0.00786029395
0.00786431562
0.00786784203
0.00787165613
0.00787497669
0.00787861145
0.00788173131
0.00788519311
0.00788811736
0.0078914121
0.00789414586
0.00789727898
0.00789982741
0.00790280408
0.00790517227
0.00790799775
0.00791019047
0.0079128704
0.00791489187
0.00791743208
0.0079192861
0.00792167691
0.00792334852
0.0079255173
0.00792708166
0.00792909339
0.00793051836
0.00793240315
0.00793372183
0.00793542831
0.00793663913
0.00793817466
0.00793927778
0.0079406475
0.00794164354
0.00794285222
0.00794374213
0.00794479401
0.00794557891
0.0079464778
0.00794715906
0.00794790833
0.00794848769
0.00794909018
0.00794956989
0.00795002783
0.00795041059
0.00795072592
0.00795101403
0.00795118966
0.00795136847
0.0079513944
0.00795146973
0.00795136635
0.0079513667
0.00795110066
0.00795103908
0.00795059803
0.00795048401
0.00794987538
0.00794969665
0.00794892911
0.00794868884
0.00794776879
0.007947465
0.00794639745
0.00794602792
0.00794481821
0.00794438055
0.00794303414
0.00794252598
0.00794104826
0.00794046738
0.00793886364
0.00793820803
0.00793648338
0.00793575121
0.00793391063
0.00793310028
0.00793114865
0.00793025863
0.00792820073
0.00792722972
0.00792507028
0.00792401708
0.00792176075
0.00792062433
0.00791827569
0.00791705518
0.00791461872
0.0079133135
0.00791079353
0.00790940329
0.0079068039
0.00790532875
0.00790265367
0.00790109427
0.00789834681
0.00789670399
0.00789388108
0.00789215064
0.00788925861
0.00788744755
0.00788448761
0.0078825983
0.00787957128
0.00787760644
0.00787451303
0.00787247558
0.00786931652
0.00786720936
0.00786398577
0.0078618115
0.00785852518
0.00785628594
0.0078529393
0.00785063727
0.00784723114
0.00784487108
0.00784140135
0.00783897724
0.00783551536
0.00783297549
0.00782946385
0.00782685089
0.00782331494
0.00782061904
0.00781705761
0.0078142819
0.0078106963
0.00780784361
0.0078042353
0.00780130905
0.00779767859
0.00779468292
0.00779103031
0.0077879695
0.00778429471
0.00778117279
0.00777747613
0.00777429665
0.00777057882
0.00776734492
0.007763607
0.00776032151
0.0077565648
0.00775323035
0.00774945094
0.00774605969
0.00774225799
0.00773882237
0.007735006
0.00773152858
0.00772769903
0.00772418243
0.00772034113
0.00771678801
0.00771293636
0.00770934942
0.00770548879
0.00770187075
0.0076980025
0.0076943561
0.00769048157
0.00768680956
0.0076829301
0.00767923522
0.00767535217
0.00767163716
0.00766775189
0.00766401943
0.00766013333
0.0076563861
0.00765250057
0.00764874119
0.00764485768
0.00764108872
0.0076372087
0.00763343268
0.00762955764
0.00762577705
0.00762190851
0.00761812132
0.007614256
0.00761046981
0.00760661603
0.0076028344
0.00759899369
0.00759521883
0.00759139271
0.00758762678
0.00758381676
0.00758006187
0.00757626948
0.00757252769
0.00756875445
0.0075650278
0.00756127519
0.0075575657
0.0075538352
0.00755014483
0.00754643793
0.00754277278
0.00753910054
0.00753546242
0.00753181614
0.00752820179
0.00752458254
0.00752099336
0.0075174022
0.00751383951
0.00751027748
0.00750673914
0.00750319813
0.00749968258
0.00749617112
0.00749268445
0.00748920367
0.00748574709
0.00748229808
0.00747887275
0.00747545657
0.00747206361
0.00746868127
0.00746532177
0.00746197422
0.00745864922
0.00745533739
0.00745204787
0.00744877264
0.00744551956
0.00744228178
0.00743906603
0.00743586648
0.00743268893
0.00742952838
0.00742638982
0.007423269
0.0074201702
0.00741708978
0.00741403144
0.00741099207
0.00740797486
0.00740497714
0.00740200168
0.00739904617
0.00739611303
0.00739320025
0.00739030996
0.00738744038
0.00738459343
0.00738176748
0.00737896431
0.00737618239
0.00737342339
0.00737068585
0.00736797137
0.00736527852
0.00736260886
0.00735996096
0.00735733639
0.00735473367
0.0073521544
0.00734959704
0.00734706323
0.00734455139
0.00734206317
0.00733959695
0.00733715438
0.00733473386
0.00733233698
0.00732996217
0.00732760575
0.00732526969
0.00732295766
0.00732066796
0.00731840228
0.00731615883
0.00731393937
0.007311742
0.00730956858
0.00730741712
0.00730528951
0.00730318374
0.00730110169
0.00729904135
0.00729700458
0.00729498937
0.00729299759
0.00729102719
0.00728908006
0.00728715412
0.00728525128
0.00728336943
0.0072815105
0.00727967233
0.00727785691
0.007276062
0.00727428968
0.00727253758
0.00727080792
0.00726909817
0.0072674107
0.00726574283
0.00726409708
0.0072624734
0.00726087137
0.00725928831
0.00725772659
0.00725618366
0.00725466174
0.00725315844
0.00725167581
0.00725021159
0.00724876774
0.00724734206
0.00724593644
0.00724454876
0.00724318083
0.00724183058
0.00724049979
0.00723918642
0.00723789219
0.00723661511
0.00723535688
0.00723411553
0.0072328927
0.00723168648
0.00723049847
0.00722932679
0.007228173
0.00722703527
0.00722591509
0.0072248107
0.00722372354
0.00722265188
0.00722159711
0.00722055757
0.00721953459
0.00721852655
0.00721753473
0.00721655757
0.00721559629
0.0072146494
0.00721371804
0.00721280079
0.00721189873
0.00721101048
0.0072101371
0.00720927724
0.00720843191
0.00720759982
0.00720678191
0.00720597696
0.00720518586
0.00720440743
0.00720364252
0.00720288999
0.00720215065
0.00720142341
0.00720070903
0.00720000645
0.00719931643
0.00719863792
0.00719797163
0.00719731658
0.00719667345
0.00719604126
0.00719542068
0.00719481076
0.00719421214
0.0071936239
0.00719304667
0.00719247953
0.00719192311
0.0071913765
0.00719084031
0.00719031366
0.00718979715
0.0071892899
0.00718879252
0.00718830412
0.00718782531
0.00718735522
0.00718689446
0.00718644214
0.00718599889
0.00718556382
0.00718513756
0.00718471922
0.00718430944
0.00718390732
0.00718351351
0.00718312712
0.0071827488
0.00718237764
0.00718201432
0.00718165791
0.00718130911
0.00718096699
0.00718063224
0.00718030395
0.0071799828
0.00717966787
0.00717935988
0.00717905788
0.00717876261
0.00717847311
0.00717819012
0.00717791269
0.00717764158
0.00717737582
0.00717711616
0.00717686166
0.00717661307
0.00717636943
0.00717613152
0.00717589837
0.00717567075
0.00717544771
0.00717523002
0.00717501672
0.0071748086
0.00717460469
0.00717440578
0.00717421093
0.00717402089
0.00717383474
0.00717365325
0.00717347549
0.00717330221
0.00717313252
0.00717296697
0.00717279893
0.00717262384
0.00717244087
0.007172251
0.00717205342
0.00717184935
0.00717163807
0.00717142103
0.00717119764
0.00717096964
0.0071707366
0.00717050052
0.00717026124
0.00717002093
0.0071697798
0.00716954011
0.00716930247
0.0071690691
0.00716884105
0.00716862031
0.00716840839
0.00716820675
0.00716801729
0.00716784074
0.00716767919
0.00716753248
0.00716740252
0.00716728829
0.00716719107
0.00716710922
0.007167043
0.00716699042
0.00716695069
0.0071669217
0.00716690213
0.00716688959
0.00716688339
0.00716688133
0.00716688318
0.00716689153
0.00716689786
0.00716690078
0.00716690205
0.0071669025
0.00716690262
0.00716690264
0.00716690263
0.00716690262
0.00716690262
0.00716690262
0.00716690262
0.00716690262
0.00716690262
0.00716690262
0.00716690262
0.00716690262
0.00716690262
0.00716690262
0.00716690262
0.00716690262
0.00716690262
0.00716690262
0.00716690262
0.00716690262
0.00716690262
0.00716690262
0.00716690262
0.00716690262
0.00716690262
0.00716690262
0.00716690262
0.00716690262
0.00716690262
0.00716690262
0.00716690262
0.00716690262
0.00716690262
)
;

boundaryField
{
    closed
    {
        type            zeroGradient;
    }
    open
    {
        type            zeroGradient;
    }
    sides
    {
        type            empty;
    }
    procBoundary5to4
    {
        type            processor;
        value           uniform 0.007750105;
    }
}


// ************************************************************************* //
