/*--------------------------------*- C++ -*----------------------------------*\
| =========                 |                                                 |
| \\      /  F ield         | OpenFOAM: The Open Source CFD Toolbox           |
|  \\    /   O peration     | Version:  2306                                  |
|   \\  /    A nd           | Website:  www.openfoam.com                      |
|    \\/     M anipulation  |                                                 |
\*---------------------------------------------------------------------------*/
FoamFile
{
    version     2.0;
    format      ascii;
    arch        "LSB;label=32;scalar=64";
    class       volScalarField;
    location    "0.0003";
    object      h;
}
// * * * * * * * * * * * * * * * * * * * * * * * * * * * * * * * * * * * * * //

dimensions      [0 2 -2 0 0 0 0];

internalField   nonuniform List<scalar> 
531
(
8312.83542
-5162.99864
-3174.74486
10014.0778
8186.9217
-5252.92814
-3092.17387
10000.6332
8092.09243
-5293.67646
-3335.27004
10105.3363
8382.47448
-3683.36834
-1700.79846
5749.75196
2551.38531
-1039.46224
2896.30372
5547.36261
1222.1058
-1080.13261
3193.97295
5715.31261
2102.89139
-260.60922
1983.87361
3654.8318
2487.44381
1553.24734
2693.39815
2709.66947
648.870174
1216.91114
5032.03896
4571.83068
-1401.8921
-2204.25718
6030.60597
8859.76104
24.2010006
-4307.51721
522.093174
9810.23182
8359.39395
-4775.65063
-4286.01707
8061.52378
9454.26365
-495.612261
-4509.50029
-3.8677611
9634.89881
8368.59063
-2477.69028
-1976.74605
3401.93318
3290.16454
2465.89473
3020.23962
2443.54857
-1845.89823
-1137.29446
9157.76571
9006.12998
-3061.98332
-4353.51926
3984.58455
9676.35652
3551.41161
-4534.91278
-1428.44283
9406.17467
8102.25118
-2953.35682
-2385.5395
5384.16935
5063.1504
312.758699
535.26737
3513.46325
3008.56404
675.474846
1851.69342
4542.86111
2829.98729
-667.560228
1016.80304
5829.16673
4489.54006
-1078.61814
-609.034218
5387.36037
5399.23666
-6.60455219
-543.307756
3718.54052
4785.69878
1386.36749
27.2049701
2741.65849
4345.55916
2139.73948
237.040441
2008.30139
4370.59796
3037.82806
202.791963
856.21296
4332.83427
4217.03558
675.260726
84.1321875
2976.84122
4705.60327
2602.17138
-151.204791
625.552341
4727.37737
4705.97668
572.522621
-699.884159
2747.55593
5823.76068
3095.36496
-1508.71293
-228.431986
6385.14637
6165.95608
-1116.20356
-2717.76426
4059.41616
8576.54989
2389.87274
-3898.96286
-1109.52544
9098.36264
8664.45883
-3022.58413
-4093.76975
4393.29538
9303.589
2787.75997
-4026.66582
-1431.89854
8593.5106
8359.44131
-2113.50219
-3113.5629
3583.16015
7268.65301
2867.22685
-2176.74876
-186.779924
6426.15685
6065.09741
-960.217248
-2578.08249
3741.20669
8389.97188
2635.09153
-3904.57731
-1424.30337
9319.17176
8975.60659
-2935.11018
-4328.44331
3752.71669
9596.625
3720.04152
-4223.66906
-2567.2594
8976.47463
9047.38838
-1748.8959
-3782.39924
2456.80532
8087.21529
4591.95602
-2260.56885
-1393.21128
5374.95629
6360.06395
827.013587
-1265.23815
1760.09034
5222.21039
4220.78272
136.443274
175.243541
2990.9397
4161.78781
2639.10509
752.296872
1136.12448
3489.87282
3743.28737
1413.34498
370.893753
2812.10645
4775.30235
2170.29524
-1395.35871
1198.41434
7157.60275
4926.10203
-3202.49634
-2541.32117
8572.51279
8924.43288
-2118.88135
-4313.27309
4149.39545
9469.65654
2483.18071
-4400.16227
-912.853975
9111.27517
8605.36491
-3149.54353
-3583.76401
5063.13544
8137.97063
1359.57129
-2660.04061
859.284956
6392.34615
5551.76192
-918.351526
-1002.53545
3791.27903
5410.98502
1845.11142
-318.963311
1911.58057
4285.66002
2960.31066
718.646456
1696.10041
3528.50724
2617.80524
882.831842
2081.91229
4032.68668
2502.12124
-85.5476516
1706.00287
5248.17997
3360.64383
-1126.77706
478.077905
6134.5299
4882.68528
-1966.2274
-1258.95697
7039.01997
6803.55966
-2273.34631
-3375.26828
6448.61322
9289.55894
-175.304182
-4659.0187
941.923335
9938.25022
7069.73934
-5000.59894
-3881.69259
9988.36137
9858.93103
-2713.22237
-4828.06503
592.80892
10052.449
8827.64835
-5023.36454
-4693.22277
9751.57516
9784.02505
-2165.11641
-4841.80771
546.225823
9916.79462
8161.37864
-4725.12637
-4300.90138
9421.32768
9438.12638
-2719.2019
-4386.52917
4765.42127
9069.92904
1491.98181
-4158.27858
750.125677
8854.42911
6024.64733
-3400.216
-3007.3814
7038.70624
8833.8286
-141.412448
-4071.47426
584.224585
9042.64
7323.03251
-2811.99959
-3536.62512
4440.3221
9019.02367
2288.73919
-3795.31072
-1041.2553
8187.31111
8119.06001
-1666.35
-3280.29659
3525.605
7887.51315
2643.60232
-2543.92527
176.043779
6424.26718
5726.56732
-895.671759
-1090.58264
4027.69058
5507.33204
1601.17115
-510.72218
1873.96458
4616.40612
3392.36924
382.23015
758.236646
3738.14204
3905.83419
1322.86822
600.579904
2772.44955
4050.51345
2150.25061
341.911883
1982.81798
4398.68987
3007.11454
48.3770617
1023.79114
4593.55955
4013.59755
87.4937626
216.157458
4301.81067
4422.00006
731.425179
225.605126
3392.17544
4210.79518
1481.89587
508.013617
2813.31783
3903.81876
1905.29774
744.768297
2517.88916
3756.77766
2139.87333
794.296383
2295.55423
3807.05021
2405.78097
622.013914
1896.16609
4108.77616
3027.34268
237.129675
880.931495
4507.94568
4388.18925
276.345098
-335.130986
3552.92912
5403.13075
2000.8676
-907.297783
1021.00806
5436.49667
4842.22659
-44.1314873
-429.717293
2981.45493
4928.99826
2760.52578
370.554528
1025.38583
3160.43042
3406.07981
2355.79433
1863.13655
2000.34754
1598.7165
1731.86141
3664.49226
3794.66907
1428.50735
-480.747612
1299.15679
6007.04314
5180.24083
-352.972985
-2304.32863
1810.59222
8452.70536
5583.47964
-2093.35617
-3006.28419
2775.19306
9431.99845
4717.72772
-3641.9203
-3244.27491
6698.06737
9752.14075
946.336649
-4601.37114
-1553.11851
9587.10114
9547.46008
-2945.75351
-4549.42169
4722.16085
9443.1515
1909.75793
-4241.99016
-512.660648
8720.20962
7657.18952
-2708.76499
-3341.68396
5094.55864
8482.75094
1469.13395
-3731.0302
-338.948438
8598.47436
7598.47148
-2143.3425
-3388.29567
3739.01169
8667.62154
2818.00284
-2946.85934
-681.107849
6455.357
6649.33869
-101.749116
-1200.70218
2482.52599
4760.81441
3022.38265
759.092784
1318.32415
2747.79195
2799.42722
2486.69863
2359.70204
1837.31048
1650.6613
2556.64678
3197.10042
2305.29577
1326.95012
1929.6731
3107.35152
2797.85357
1682.52783
1782.24229
2649.8086
2695.6766
2023.61092
1736.93738
2573.19697
3533.92521
2364.41416
-1639.09758
643.260287
8390.37662
5417.3542
-4617.58982
-3521.01745
10285.5884
10298.8468
-2565.74058
-4686.88335
-285.845696
10197.574
10321.7863
-4072.8454
-5069.84173
1000.30257
10152.9528
10224.7013
-4643.73838
-5590.51216
2325.91287
10089.819
10098.8416
-5042.73879
-6051.52318
1279.41249
10052.4578
10308.4276
-5002.71481
-3419.56485
10295.0874
10139.2303
-3605.23574
-5847.54389
-2743.28507
6479.45645
10530.5232
9507.23735
-4751.00982
-4934.80114
10207.7703
9703.94667
-5110.55641
-4608.03088
10154.0586
9630.48754
-5225.21187
)
;

boundaryField
{
    closed
    {
        type            lookUpEnthalpy;
        h0              nonuniform List<scalar> 0();
        value           nonuniform List<scalar> 0();
    }
    open
    {
        type            zeroGradient;
    }
    sides
    {
        type            empty;
    }
    procBoundary3to2
    {
        type            processor;
        value           uniform 10052.0514;
    }
    procBoundary3to4
    {
        type            processor;
        value           uniform -4579.82815;
    }
}


// ************************************************************************* //
