/*--------------------------------*- C++ -*----------------------------------*\
| =========                 |                                                 |
| \\      /  F ield         | OpenFOAM: The Open Source CFD Toolbox           |
|  \\    /   O peration     | Version:  2306                                  |
|   \\  /    A nd           | Website:  www.openfoam.com                      |
|    \\/     M anipulation  |                                                 |
\*---------------------------------------------------------------------------*/
FoamFile
{
    version     2.0;
    format      ascii;
    arch        "LSB;label=32;scalar=64";
    class       surfaceScalarField;
    location    "0.0003";
    object      phi;
}
// * * * * * * * * * * * * * * * * * * * * * * * * * * * * * * * * * * * * * //

dimensions      [1 0 -1 0 0 0 0];

oriented        oriented;

internalField   nonuniform List<scalar> 
530
(
-1.73550337e-06
-1.75679672e-06
-1.84263e-06
-1.85836385e-06
-1.83684508e-06
-1.85737103e-06
-1.94714495e-06
-1.95906859e-06
-1.93292216e-06
-1.94960476e-06
-2.01334054e-06
-2.03687662e-06
-2.01461562e-06
-2.08834794e-06
-2.11173846e-06
-2.04365722e-06
-2.08737101e-06
-2.10167822e-06
-2.08401424e-06
-2.01019736e-06
-2.05287313e-06
-2.06697855e-06
-2.03715209e-06
-1.93068432e-06
-1.97630232e-06
-2.00306675e-06
-2.01397912e-06
-2.00686828e-06
-2.03634008e-06
-2.06772845e-06
-2.07900743e-06
-2.10383289e-06
-2.13967428e-06
-2.16356397e-06
-2.10020471e-06
-2.10226146e-06
-2.11613146e-06
-2.22691499e-06
-1.99535895e-06
-1.96796043e-06
-2.01301601e-06
-2.10632081e-06
-2.12336404e-06
-2.16949215e-06
-2.16576426e-06
-2.32788973e-06
-2.40765461e-06
-1.95322322e-06
-1.97281072e-06
-1.99541521e-06
-2.06448652e-06
-2.08599962e-06
-2.10342289e-06
-2.07358511e-06
-2.17194885e-06
-2.21114936e-06
-2.22785714e-06
-2.25318351e-06
-2.2807921e-06
-2.30475093e-06
-2.35484327e-06
-2.40086732e-06
-2.43615706e-06
-2.40251161e-06
-2.40046057e-06
-2.63268869e-06
-2.68296076e-06
-2.60981623e-06
-2.6381298e-06
-2.75848006e-06
-2.82659627e-06
-2.85353033e-06
-2.85378632e-06
-2.82600823e-06
-2.95406011e-06
-2.99599102e-06
-2.9269466e-06
-2.94376611e-06
-2.97131999e-06
-2.98868754e-06
-2.97630524e-06
-3.00005158e-06
-3.02625446e-06
-3.02697057e-06
-2.98261552e-06
-3.02292961e-06
-3.03608727e-06
-3.03740491e-06
-2.90288885e-06
-2.92850738e-06
-2.93200356e-06
-2.94448727e-06
-2.78473122e-06
-2.70948835e-06
-2.73308997e-06
-2.74239856e-06
-2.67922225e-06
-2.62460219e-06
-2.65775531e-06
-2.67119491e-06
-2.64395433e-06
-2.59934679e-06
-2.62663434e-06
-2.64148575e-06
-2.6316037e-06
-2.57920033e-06
-2.59683881e-06
-2.61239083e-06
-2.61666798e-06
-2.55832006e-06
-2.52509194e-06
-2.54965041e-06
-2.56197129e-06
-2.52822976e-06
-2.46375965e-06
-2.49064976e-06
-2.50267995e-06
-2.50632943e-06
-2.42851229e-06
-2.37801797e-06
-2.40389213e-06
-2.40752907e-06
-2.37216816e-06
-2.24794734e-06
-2.28272319e-06
-2.26761866e-06
-2.26974765e-06
-2.07254732e-06
-1.96787562e-06
-1.96505848e-06
-2.1051039e-06
-2.00471484e-06
-1.91990421e-06
-1.97457007e-06
-2.11895173e-06
-2.13107175e-06
-2.08938582e-06
-2.02339435e-06
-2.22324999e-06
-2.30101938e-06
-2.19129711e-06
-2.19360816e-06
-2.260341e-06
-2.38403363e-06
-2.39052001e-06
-2.25844296e-06
-2.13972667e-06
-2.233092e-06
-2.38558272e-06
-2.30484067e-06
-2.09611786e-06
-2.12850684e-06
-2.29847705e-06
-2.28626701e-06
-2.09323828e-06
-1.98556169e-06
-1.97454384e-06
-2.11626878e-06
-2.02417865e-06
-1.89596864e-06
-1.94175432e-06
-2.07854821e-06
-2.08776173e-06
-2.05967067e-06
-2.02063089e-06
-2.19399449e-06
-2.23086756e-06
-2.14706203e-06
-2.15344642e-06
-2.22030565e-06
-2.30526517e-06
-2.23241181e-06
-2.14363808e-06
-2.11543226e-06
-2.11443504e-06
-2.24693121e-06
-2.19704856e-06
-1.94726614e-06
-1.95452229e-06
-2.13184474e-06
-2.11787475e-06
-1.96338706e-06
-1.78492169e-06
-1.79915171e-06
-1.77859322e-06
-1.76063275e-06
-1.65164111e-06
-1.62065832e-06
-1.62319921e-06
-1.62600806e-06
-1.59439881e-06
-1.53885045e-06
-1.54206395e-06
-1.55142363e-06
-1.55607862e-06
-1.51591561e-06
-1.48273979e-06
-1.49926374e-06
-1.50916064e-06
-1.4853249e-06
-1.42234204e-06
-1.44183101e-06
-1.42655813e-06
-1.42783411e-06
-1.1956518e-06
-1.1824553e-06
-1.39012109e-06
-1.47889662e-06
-1.31175017e-06
-1.26858284e-06
-1.29694301e-06
-1.37666132e-06
-1.29960861e-06
-1.31047171e-06
-1.35579217e-06
-1.44616538e-06
-1.46187125e-06
-1.41832457e-06
-1.33857958e-06
-1.51421583e-06
-1.68863035e-06
-1.56558386e-06
-1.39824296e-06
-1.42686239e-06
-1.61890396e-06
-1.61875538e-06
-1.45610384e-06
-1.34707978e-06
-1.34639008e-06
-1.34562265e-06
-1.2946277e-06
-1.18860755e-06
-1.21129581e-06
-1.22015559e-06
-1.21800269e-06
-1.16546057e-06
-1.16577424e-06
-1.18095581e-06
-1.18518686e-06
-1.15627865e-06
-1.15759155e-06
-1.17060192e-06
-1.16731854e-06
-1.12113384e-06
-1.12459475e-06
-1.1300298e-06
-1.12580477e-06
-1.01973128e-06
-1.00903713e-06
-9.94755001e-07
-9.95036446e-07
-8.30492805e-07
-7.68695891e-07
-7.26336077e-07
-7.07864755e-07
-4.45960169e-07
-2.49035468e-07
-4.51396226e-07
-5.7504482e-07
-3.42483144e-07
-3.0819382e-07
-2.99521285e-07
-3.45780039e-07
-3.46690438e-07
-3.41769168e-07
-6.16706517e-08
-7.85568333e-08
-1.8390912e-07
-1.80467623e-07
-1.73219359e-07
-1.99150872e-07
-2.10239224e-07
-2.28124484e-07
-2.20895916e-07
-1.32591522e-07
-1.54105969e-07
-2.21653555e-07
-2.0692293e-07
-1.94950702e-07
-2.03048506e-07
-2.25762627e-07
-2.34593454e-07
-2.35941249e-07
-4.52753536e-08
-1.02647066e-07
-2.37067605e-07
-2.06210667e-07
-1.95642959e-07
-3.05589693e-07
-3.97291361e-07
-3.21988991e-07
-2.73969286e-07
-2.81872061e-07
-4.15002371e-07
-4.16012869e-07
-3.425225e-07
-2.07584352e-07
-3.87867104e-07
-5.30019291e-07
-2.62408728e-07
-1.78971541e-07
-1.69128788e-07
-3.0129751e-07
-2.97073594e-07
-2.33469202e-07
7.45228829e-08
-3.11728838e-08
-2.0518287e-07
-1.52056297e-07
-9.70469587e-08
-9.48057872e-08
-2.72511728e-07
-2.59516153e-07
-5.89816337e-08
1.52163626e-07
1.69658885e-07
-7.41265563e-08
-4.68721762e-08
2.83852545e-07
2.99967179e-07
9.4984896e-08
9.05859169e-08
2.74306497e-07
4.42939559e-07
4.5140753e-07
4.63207251e-07
4.9960912e-07
6.27503189e-07
6.26616596e-07
6.26785547e-07
6.18401707e-07
6.91324334e-07
7.26236933e-07
7.17013139e-07
7.04350164e-07
7.399674e-07
7.86748899e-07
7.80011734e-07
7.68051566e-07
7.72523602e-07
8.21997546e-07
8.25691269e-07
8.14086973e-07
8.03110608e-07
8.64105711e-07
8.87119424e-07
8.7623697e-07
8.57420617e-07
9.24034557e-07
9.80993365e-07
9.68314728e-07
9.51176509e-07
1.00029709e-06
1.06340973e-06
1.04970978e-06
1.03259211e-06
1.04068048e-06
1.09002768e-06
1.07859745e-06
1.05839111e-06
1.05244682e-06
1.08677142e-06
1.07765625e-06
1.05502764e-06
1.04222666e-06
1.06884775e-06
1.06103189e-06
1.03644447e-06
1.01796936e-06
1.04385886e-06
1.03960638e-06
1.01343968e-06
9.87029151e-07
1.02111342e-06
1.03120254e-06
1.00506212e-06
9.71921927e-07
1.02024944e-06
1.07838652e-06
1.05202922e-06
1.02891188e-06
1.02299636e-06
1.12251021e-06
1.11241552e-06
1.09717418e-06
1.05812382e-06
1.15469304e-06
1.2444343e-06
1.21861062e-06
1.19439599e-06
1.17070466e-06
1.2409135e-06
1.2402448e-06
1.21020445e-06
1.17722884e-06
1.17058781e-06
1.17584912e-06
1.15679297e-06
1.13078372e-06
1.10907417e-06
1.07962852e-06
1.04588157e-06
1.05234204e-06
1.06548881e-06
1.04082407e-06
1.01282119e-06
9.66191844e-07
1.11026661e-06
1.19028027e-06
1.16023943e-06
9.69237049e-07
9.10343253e-07
1.02817375e-06
1.14446799e-06
1.1081675e-06
9.69200855e-07
9.08973435e-07
8.92382954e-07
9.44463932e-07
8.04354428e-07
6.77098144e-07
8.27697733e-07
8.01476713e-07
7.72408591e-07
7.05230594e-07
6.62792585e-07
6.44409242e-07
6.34513018e-07
5.70879402e-07
4.66887697e-07
4.68671736e-07
4.48765365e-07
4.20090108e-07
2.68843554e-07
2.43948851e-07
3.10736525e-07
6.55557674e-07
4.94141922e-07
2.25396281e-07
2.52759585e-07
3.37809124e-07
3.01324868e-07
7.48341331e-08
4.61630996e-08
1.34862071e-07
4.6315662e-07
3.78522477e-07
1.29322638e-07
1.13839325e-07
1.81952322e-07
1.5861716e-07
-5.15006746e-08
-8.08921699e-08
7.41964197e-08
3.02453642e-07
2.69924735e-07
2.54872037e-07
2.28515151e-07
2.78671125e-07
2.69196797e-07
2.32555491e-07
1.99409148e-07
1.8534987e-07
1.72793885e-07
1.53048611e-07
1.32835806e-07
1.07632749e-07
7.99026331e-08
6.53033847e-08
6.75807582e-08
5.01914384e-08
2.16281102e-08
-3.63427869e-10
1.71565502e-09
-4.3251849e-09
-2.87831904e-08
-5.12296817e-08
-5.87849355e-08
-6.48817281e-08
-8.47710714e-08
-1.07732924e-07
-1.18790233e-07
-1.15576288e-07
-1.29138946e-07
-1.42260044e-07
-1.68688123e-07
-1.67111039e-08
6.87436846e-08
-4.43052435e-08
-1.05938603e-07
-1.26040907e-07
-1.51172635e-07
-1.88669715e-07
-1.95152963e-07
-2.13959381e-07
-2.13794252e-07
-2.34568022e-07
-2.46796954e-07
-2.47926191e-07
-2.71863147e-07
-2.69878068e-07
-2.91475223e-07
-3.04507144e-07
-3.02742852e-07
-3.29966006e-07
-3.28363303e-07
-3.50673892e-07
-3.58446358e-07
-3.5514609e-07
-3.80820232e-07
-3.85529095e-07
-4.23671246e-07
-4.36277074e-07
-4.44737027e-07
-4.61715982e-07
-4.87009613e-07
-5.35355807e-07
-5.79632256e-07
-5.98840326e-07
-5.24691579e-07
-5.46904546e-07
-5.86866589e-07
-6.26276286e-07
-6.4348393e-07
-6.64213975e-07
-7.00312484e-07
-7.21379322e-07
-7.33798874e-07
-7.54673998e-07
-7.90361451e-07
)
;

boundaryField
{
    closed
    {
        type            calculated;
        value           nonuniform List<scalar> 0();
    }
    open
    {
        type            calculated;
        value           nonuniform List<scalar> 0();
    }
    sides
    {
        type            empty;
        value           nonuniform List<scalar> 0();
    }
    procBoundary3to2
    {
        type            processor;
        value           uniform 1.75583144e-06;
    }
    procBoundary3to4
    {
        type            processor;
        value           uniform -8.13499067e-07;
    }
}


// ************************************************************************* //
