/*--------------------------------*- C++ -*----------------------------------*\
| =========                 |                                                 |
| \\      /  F ield         | OpenFOAM: The Open Source CFD Toolbox           |
|  \\    /   O peration     | Version:  2306                                  |
|   \\  /    A nd           | Website:  www.openfoam.com                      |
|    \\/     M anipulation  |                                                 |
\*---------------------------------------------------------------------------*/
FoamFile
{
    version     2.0;
    format      ascii;
    arch        "LSB;label=32;scalar=64";
    class       volScalarField;
    location    "0.00112";
    object      alpha;
}
// * * * * * * * * * * * * * * * * * * * * * * * * * * * * * * * * * * * * * //

dimensions      [1 -1 -1 0 0 0 0];

internalField   nonuniform List<scalar> 
530
(
3.73159043e-05
3.60407226e-05
3.58375442e-05
3.58342128e-05
3.58338984e-05
3.58338877e-05
3.5833887e-05
3.5833887e-05
3.5833887e-05
3.5833887e-05
3.5833887e-05
3.5833887e-05
3.5833887e-05
3.5833887e-05
3.5833887e-05
3.5833887e-05
3.5833887e-05
3.5833887e-05
3.5833887e-05
3.5833887e-05
3.5833887e-05
3.5833887e-05
3.5833887e-05
3.5833887e-05
3.5833887e-05
3.5833887e-05
3.5833887e-05
3.5833887e-05
3.5833887e-05
3.5833887e-05
3.5833887e-05
3.5833887e-05
3.5833887e-05
3.5833887e-05
3.5833887e-05
3.5833887e-05
3.5833887e-05
3.5833887e-05
3.5833887e-05
3.5833887e-05
3.5833887e-05
3.5833887e-05
3.5833887e-05
3.5833887e-05
3.5833887e-05
3.5833887e-05
3.5833887e-05
3.5833887e-05
3.5833887e-05
3.5833887e-05
3.5833887e-05
3.5833887e-05
3.5833887e-05
3.5833887e-05
3.5833887e-05
3.5833887e-05
3.5833887e-05
3.5833887e-05
3.5833887e-05
3.5833887e-05
3.5833887e-05
3.5833887e-05
3.5833887e-05
3.5833887e-05
3.5833887e-05
3.58338871e-05
3.58338873e-05
3.5833888e-05
3.58338893e-05
3.58338938e-05
3.58339002e-05
3.58339233e-05
3.58339494e-05
3.58340359e-05
3.58341657e-05
3.58344245e-05
3.58343458e-05
3.58350857e-05
3.58378152e-05
3.58419642e-05
3.58304175e-05
3.58209951e-05
3.58508029e-05
3.59044027e-05
3.57984734e-05
3.56347725e-05
3.57256314e-05
3.68783521e-05
3.68530695e-05
3.55063431e-05
3.52065011e-05
3.57403867e-05
3.68418596e-05
3.68612254e-05
3.54999521e-05
3.5092393e-05
3.56949567e-05
3.67943379e-05
3.6849874e-05
3.68520694e-05
3.54987421e-05
3.51749201e-05
3.5471663e-05
3.5293947e-05
3.57912028e-05
3.68170245e-05
3.68218063e-05
3.68205983e-05
3.64092687e-05
3.52287384e-05
3.55334705e-05
3.68219894e-05
3.68537196e-05
3.52756369e-05
3.51769075e-05
3.53037922e-05
3.53821421e-05
3.53193547e-05
3.57379782e-05
3.68397091e-05
3.68444219e-05
3.6849159e-05
3.68403295e-05
3.58904298e-05
3.51810143e-05
3.56148683e-05
3.68252139e-05
3.68446083e-05
3.5042503e-05
3.47285389e-05
3.58863648e-05
3.68272841e-05
3.55742399e-05
3.52667225e-05
3.68096194e-05
3.68388278e-05
3.53843573e-05
3.53217447e-05
3.68090878e-05
3.68422822e-05
3.52641604e-05
3.55045647e-05
3.68237916e-05
3.68004279e-05
3.68323201e-05
3.51253817e-05
3.45235906e-05
3.58927618e-05
3.683021e-05
3.55509248e-05
3.54025329e-05
3.68273132e-05
3.63863993e-05
3.52488368e-05
3.57408361e-05
3.68607491e-05
3.68272644e-05
3.58367147e-05
3.52067077e-05
3.55173566e-05
3.68192659e-05
3.68561682e-05
3.52374957e-05
3.52812485e-05
3.68103469e-05
3.6825511e-05
3.53463558e-05
3.51803109e-05
3.59881706e-05
3.67849225e-05
3.68493179e-05
3.54560289e-05
3.53188247e-05
3.67923022e-05
3.682684e-05
3.52218329e-05
3.51331881e-05
3.5247946e-05
3.55830598e-05
3.68059006e-05
3.68323568e-05
3.53538562e-05
3.53313029e-05
3.68092572e-05
3.68231489e-05
3.51975965e-05
3.52111559e-05
3.68447934e-05
3.67810853e-05
3.5833147e-05
3.51897852e-05
3.56996211e-05
3.6813861e-05
3.62478311e-05
3.51505027e-05
3.57078946e-05
3.68430399e-05
3.68341029e-05
3.58385972e-05
3.52952393e-05
3.5620658e-05
3.68197584e-05
3.68652635e-05
3.52631519e-05
3.51783539e-05
3.51207353e-05
3.58659482e-05
3.6830468e-05
3.56416345e-05
3.53580502e-05
3.68213034e-05
3.68508393e-05
3.54703358e-05
3.53942327e-05
3.68315072e-05
3.68486404e-05
3.54755898e-05
3.54979845e-05
3.68498341e-05
3.68258952e-05
3.54216125e-05
3.51859451e-05
3.56631977e-05
3.68141518e-05
3.68902123e-05
3.52442096e-05
3.56827339e-05
3.68498477e-05
3.56721261e-05
3.53767236e-05
3.68424635e-05
3.6865836e-05
3.54730081e-05
3.53978865e-05
3.6836515e-05
3.68640323e-05
3.55106646e-05
3.55963573e-05
3.68343469e-05
3.68401731e-05
3.53896748e-05
3.52959559e-05
3.51731429e-05
3.58960755e-05
3.68421116e-05
3.55748545e-05
3.53032459e-05
3.68327494e-05
3.68620307e-05
3.53851293e-05
3.55323615e-05
3.68637568e-05
3.68111536e-05
3.57637978e-05
3.51770601e-05
3.5454143e-05
3.68059037e-05
3.68680614e-05
3.49274526e-05
3.49412657e-05
3.68362463e-05
3.68002623e-05
3.60985974e-05
3.52397594e-05
3.53585584e-05
3.68023467e-05
3.6836716e-05
3.53641175e-05
3.53789615e-05
3.68064077e-05
3.68296373e-05
3.53067657e-05
3.52885694e-05
3.53275644e-05
3.56108451e-05
3.6799999e-05
3.68405897e-05
3.51892729e-05
3.5345041e-05
3.68184203e-05
3.68077734e-05
3.68223481e-05
3.53411832e-05
3.49346754e-05
3.57505907e-05
3.68106786e-05
3.68072874e-05
3.68225151e-05
3.53860745e-05
3.52749401e-05
3.5414508e-05
3.57446082e-05
3.68132454e-05
3.68239772e-05
3.53612116e-05
3.51247942e-05
3.569357e-05
3.68068196e-05
3.68653929e-05
3.53032955e-05
3.5358754e-05
3.68171107e-05
3.68387659e-05
3.53470454e-05
3.50838084e-05
3.57129829e-05
3.68449241e-05
3.68343893e-05
3.56816076e-05
3.5054737e-05
3.57059971e-05
3.68259824e-05
3.60510345e-05
3.51400146e-05
3.57004381e-05
3.68351001e-05
3.68391881e-05
3.57494571e-05
3.52090774e-05
3.55488879e-05
3.68254185e-05
3.68352957e-05
3.53422439e-05
3.49769988e-05
3.56509616e-05
3.68008332e-05
3.68254227e-05
3.6808716e-05
3.68300867e-05
3.53663089e-05
3.48155097e-05
3.53292047e-05
3.67959992e-05
3.68319834e-05
3.53102525e-05
3.51920875e-05
3.67661508e-05
3.68389562e-05
3.54650345e-05
3.53927528e-05
3.67793988e-05
3.68073342e-05
3.56731677e-05
3.51222842e-05
3.54589627e-05
3.6780774e-05
3.68559592e-05
3.54199043e-05
3.52358039e-05
3.67327864e-05
3.68476427e-05
3.54958546e-05
3.54442645e-05
3.6745028e-05
3.68081944e-05
3.609211e-05
3.54200635e-05
3.53818228e-05
3.67598334e-05
3.68383646e-05
3.56717338e-05
3.53103908e-05
3.53701627e-05
3.54780205e-05
3.54043319e-05
3.569756e-05
3.67485206e-05
3.68549764e-05
3.68206699e-05
3.68614452e-05
3.57168804e-05
3.54627423e-05
3.65594095e-05
3.68259043e-05
3.5705917e-05
3.53519945e-05
3.53350635e-05
3.54301464e-05
3.52466692e-05
3.53842627e-05
3.6719527e-05
3.6825815e-05
3.68416661e-05
3.57378293e-05
3.55390935e-05
3.6360136e-05
3.68033761e-05
3.63139332e-05
3.55103615e-05
3.52741812e-05
3.62496336e-05
3.68319927e-05
3.57333109e-05
3.54316966e-05
3.61939335e-05
3.68142456e-05
3.57595453e-05
3.55197342e-05
3.52261014e-05
3.56231043e-05
3.66557412e-05
3.5846654e-05
3.54361154e-05
3.603354e-05
3.67920313e-05
3.58057412e-05
3.54926938e-05
3.60057916e-05
3.6782425e-05
3.58252026e-05
3.55650883e-05
3.59703528e-05
3.67678722e-05
3.68247088e-05
3.68212994e-05
3.58794744e-05
3.52167168e-05
3.52292377e-05
3.50488666e-05
3.50807922e-05
3.63209425e-05
3.58844153e-05
3.56227987e-05
3.58699046e-05
3.67441714e-05
3.68276711e-05
3.60404621e-05
3.56758353e-05
3.5883369e-05
3.67698106e-05
3.60426472e-05
3.56964557e-05
3.54509556e-05
3.53673813e-05
3.5831345e-05
3.67589366e-05
3.59672385e-05
3.56534613e-05
3.57945774e-05
3.67520928e-05
3.68314722e-05
3.57713343e-05
3.54195383e-05
3.57585511e-05
3.67397095e-05
3.60802683e-05
3.54521594e-05
3.51253659e-05
3.57697061e-05
3.67493634e-05
3.61232e-05
3.55463881e-05
3.52439606e-05
3.57826737e-05
3.67446719e-05
3.61634759e-05
3.56009515e-05
3.52511238e-05
3.57903492e-05
3.675625e-05
3.609062e-05
3.5718895e-05
3.54022071e-05
3.52520328e-05
3.57463096e-05
3.67378717e-05
3.68220896e-05
3.68031918e-05
3.61419593e-05
3.54917288e-05
3.57008411e-05
3.67566557e-05
3.61489429e-05
3.54098737e-05
3.49842736e-05
3.56761898e-05
3.6746487e-05
3.61268013e-05
3.5486658e-05
3.57047821e-05
3.67646426e-05
3.61491295e-05
3.55367527e-05
3.57156338e-05
3.67631988e-05
3.61735489e-05
3.55928306e-05
3.573555e-05
3.67714008e-05
3.62778782e-05
3.55708913e-05
3.51106225e-05
3.56984996e-05
3.6767685e-05
3.61858579e-05
3.5533023e-05
3.57138875e-05
3.67827094e-05
3.6208961e-05
3.55728025e-05
3.57319268e-05
3.6787954e-05
3.6330162e-05
3.55889557e-05
3.51333264e-05
3.57051617e-05
3.67774285e-05
3.62163663e-05
3.55351395e-05
3.57204174e-05
3.6792541e-05
3.62346316e-05
3.55562668e-05
3.57338424e-05
3.68007215e-05
3.6326396e-05
3.55485672e-05
3.5070629e-05
3.56963818e-05
3.67887003e-05
3.62210078e-05
3.54346955e-05
3.5704396e-05
3.68091837e-05
3.62378347e-05
3.54608184e-05
3.57126379e-05
3.68055511e-05
3.62760195e-05
3.55518152e-05
)
;

boundaryField
{
    closed
    {
        type            calculated;
        value           uniform 5.13917756e-05;
    }
    open
    {
        type            calculated;
        value           nonuniform List<scalar> 0();
    }
    sides
    {
        type            empty;
    }
    procBoundary0to1
    {
        type            processor;
        value           uniform 3.57427505e-05;
    }
}


// ************************************************************************* //
