/*--------------------------------*- C++ -*----------------------------------*\
| =========                 |                                                 |
| \\      /  F ield         | OpenFOAM: The Open Source CFD Toolbox           |
|  \\    /   O peration     | Version:  2306                                  |
|   \\  /    A nd           | Website:  www.openfoam.com                      |
|    \\/     M anipulation  |                                                 |
\*---------------------------------------------------------------------------*/
FoamFile
{
    version     2.0;
    format      ascii;
    arch        "LSB;label=32;scalar=64";
    class       surfaceScalarField;
    location    "0.00112";
    object      phi;
}
// * * * * * * * * * * * * * * * * * * * * * * * * * * * * * * * * * * * * * //

dimensions      [1 0 -1 0 0 0 0];

oriented        oriented;

internalField   nonuniform List<scalar> 
529
(
7.99102235e-07
8.85796371e-07
7.65758992e-07
6.85690494e-07
8.62546385e-07
1.27875207e-06
1.73312465e-06
2.23917161e-06
2.69513474e-06
2.9667317e-06
3.07558525e-06
3.07981854e-06
2.966265e-06
2.70158936e-06
2.28366525e-06
1.74778718e-06
1.15841914e-06
5.33255653e-07
-1.90642822e-07
-9.78593194e-07
-1.70449832e-06
-2.10886369e-06
-2.08609731e-06
-1.79386048e-06
-1.54158875e-06
-1.37964616e-06
-1.23505125e-06
-1.05034153e-06
-8.32766667e-07
-6.46114646e-07
-5.64589464e-07
-6.78860892e-07
-1.08931109e-06
-1.87621982e-06
-2.98943865e-06
-4.16438185e-06
-5.031447e-06
-5.36018888e-06
-5.15761051e-06
-4.6237102e-06
-3.99773414e-06
-3.43624291e-06
-2.99158654e-06
-2.65527235e-06
-2.39993966e-06
-2.1981712e-06
-2.02846759e-06
-1.87618503e-06
-1.73224509e-06
-1.59165964e-06
-1.45219634e-06
-1.3134216e-06
-1.17598977e-06
-1.04105477e-06
-9.09798291e-07
-7.83122689e-07
-6.61558655e-07
-5.45352555e-07
-4.3464904e-07
-3.29658265e-07
-2.30707211e-07
-1.38229747e-07
-5.27038316e-08
2.54813449e-08
9.59225733e-08
1.59183211e-07
2.15153011e-07
2.64440696e-07
3.07565827e-07
3.45059281e-07
3.77463057e-07
4.05293088e-07
4.2902666e-07
4.491047e-07
4.65928412e-07
4.79885875e-07
4.91267471e-07
5.00474029e-07
5.07958986e-07
5.14295912e-07
5.18485359e-07
5.2032105e-07
5.22601452e-07
5.26323534e-07
5.31810451e-07
5.25304606e-07
5.16553853e-07
5.04454488e-07
5.48795715e-07
5.71936691e-07
5.62004545e-07
5.44421586e-07
5.348856e-07
5.40692918e-07
5.88522939e-07
5.81362453e-07
5.73118053e-07
5.80496086e-07
5.77776707e-07
5.7257659e-07
6.00061658e-07
6.0466087e-07
6.1046487e-07
5.96094169e-07
5.69303833e-07
5.66120302e-07
5.42619196e-07
5.34744865e-07
7.32717462e-07
7.41661907e-07
6.05767831e-07
6.09485436e-07
5.93274312e-07
6.37884666e-07
6.55361373e-07
6.48272432e-07
6.57178294e-07
6.48069435e-07
6.2955043e-07
6.25489748e-07
6.24044059e-07
6.13917872e-07
6.03742637e-07
6.22792617e-07
6.28789139e-07
5.55186766e-07
5.63224491e-07
5.55833273e-07
6.33443553e-07
6.57310968e-07
6.18395773e-07
6.20407022e-07
6.38550135e-07
6.03366839e-07
6.05705872e-07
5.99866774e-07
6.03818992e-07
5.80313375e-07
5.80396813e-07
5.67738251e-07
5.68139336e-07
5.06985394e-07
5.10242496e-07
5.14686692e-07
5.12037191e-07
5.98423205e-07
6.1329957e-07
5.75247422e-07
5.62775989e-07
5.81068533e-07
4.80292027e-07
4.82103769e-07
6.669467e-07
6.71803077e-07
6.77466336e-07
6.69234026e-07
6.5660975e-07
6.62896833e-07
6.78893386e-07
5.68939105e-07
5.68983824e-07
6.22952336e-07
6.48214927e-07
5.76080835e-07
5.66351178e-07
5.48483746e-07
5.73794608e-07
5.71410403e-07
5.41646254e-07
5.44238438e-07
5.40123312e-07
5.43739721e-07
5.18611362e-07
5.26236539e-07
5.22747328e-07
5.5504333e-07
5.7958387e-07
5.63845053e-07
4.90282489e-07
4.91081102e-07
4.81660351e-07
4.85620355e-07
4.61440679e-07
4.69189115e-07
4.66183452e-07
4.80813405e-07
4.68221136e-07
4.69283719e-07
4.72559017e-07
4.75804634e-07
4.78898836e-07
4.8370935e-07
4.8324773e-07
6.46875037e-07
6.6180371e-07
6.6845464e-07
6.67893443e-07
6.60346084e-07
6.71026839e-07
6.83993939e-07
6.29479358e-07
6.37055424e-07
6.3059674e-07
6.73125975e-07
7.07938068e-07
7.12566564e-07
6.83326884e-07
6.84807372e-07
7.08993364e-07
6.94321991e-07
6.96403484e-07
6.93114662e-07
7.11888839e-07
7.05186396e-07
7.04335649e-07
7.00256448e-07
7.22956801e-07
7.06982464e-07
6.95088028e-07
6.92970449e-07
7.61194164e-07
7.66694521e-07
7.57470701e-07
7.63886452e-07
7.57899729e-07
8.14746587e-07
8.07943275e-07
8.07916505e-07
8.11769928e-07
7.97417744e-07
7.94557695e-07
7.92780196e-07
8.25389405e-07
8.23836328e-07
8.15857943e-07
8.11333996e-07
8.45764214e-07
7.91090646e-07
7.92048844e-07
7.91796142e-07
8.4626632e-07
8.73056199e-07
8.81795267e-07
8.49100125e-07
8.48289675e-07
8.92051889e-07
8.83047822e-07
8.71746656e-07
8.61671185e-07
9.2261252e-07
8.54927626e-07
8.45597514e-07
8.45854139e-07
8.56865043e-07
8.71504655e-07
8.20306211e-07
8.18513495e-07
8.08077067e-07
8.79505439e-07
8.51770604e-07
8.35707397e-07
8.43483265e-07
8.87813836e-07
9.02340376e-07
8.37497642e-07
8.29641254e-07
8.23012808e-07
8.81178292e-07
8.35499139e-07
8.28903306e-07
8.30921986e-07
9.09769531e-07
9.33610708e-07
9.26903464e-07
8.53797622e-07
8.48887583e-07
8.42286895e-07
9.15168861e-07
8.7581982e-07
8.69604389e-07
8.84171754e-07
8.87507216e-07
1.01312417e-06
1.02537772e-06
1.02055769e-06
1.02516188e-06
1.03903009e-06
1.04297646e-06
1.17222099e-06
1.21271342e-06
1.19773637e-06
1.20064858e-06
1.20825523e-06
1.22255616e-06
1.37876088e-06
1.42235418e-06
1.43392592e-06
1.44146946e-06
1.45467137e-06
1.59590023e-06
1.54400155e-06
1.55417838e-06
1.58534298e-06
1.78454409e-06
1.84899874e-06
1.87436116e-06
1.88461175e-06
1.92416514e-06
1.98129832e-06
2.07214707e-06
2.09924023e-06
2.12092336e-06
2.32520154e-06
2.44681965e-06
2.49523203e-06
2.51780419e-06
2.57668044e-06
2.68165362e-06
2.80259251e-06
2.72811e-06
2.76570729e-06
2.8340007e-06
3.19691198e-06
3.31133659e-06
3.16576292e-06
3.21206944e-06
3.30296655e-06
3.40747742e-06
3.51011227e-06
3.96650036e-06
4.12819659e-06
3.99803264e-06
4.05953798e-06
4.18383701e-06
4.64995657e-06
4.81731879e-06
4.79977522e-06
4.9515398e-06
5.46438755e-06
5.63990541e-06
5.62899404e-06
5.82321809e-06
6.17945008e-06
6.45481202e-06
6.3503124e-06
6.46612893e-06
6.67826235e-06
7.43748876e-06
7.72605251e-06
7.71432412e-06
7.95680473e-06
8.78275104e-06
9.07411881e-06
8.99909561e-06
9.29505543e-06
9.9653834e-06
1.05174357e-05
1.0398347e-05
1.06140614e-05
1.09434952e-05
1.19513291e-05
1.24397702e-05
1.28047639e-05
1.31845786e-05
1.35779735e-05
1.39682322e-05
1.41248139e-05
1.44988747e-05
1.48806969e-05
1.52707819e-05
1.57976301e-05
1.63551485e-05
1.58049832e-05
1.61751209e-05
1.66983452e-05
1.73106302e-05
1.77714835e-05
1.81306302e-05
1.85762333e-05
1.81600168e-05
1.82137526e-05
1.85276408e-05
1.87318729e-05
1.93001115e-05
1.98128439e-05
1.88975134e-05
1.91171053e-05
2.02608431e-05
2.1168093e-05
2.14466794e-05
2.03573897e-05
2.04300814e-05
2.082103e-05
2.12082694e-05
2.02465572e-05
2.02935387e-05
2.07330959e-05
2.12354028e-05
2.14301568e-05
2.08089405e-05
2.04696772e-05
2.09323081e-05
2.12562741e-05
2.03292672e-05
2.02038633e-05
2.05281026e-05
2.07453467e-05
1.98276816e-05
1.96426872e-05
1.99076059e-05
2.00212786e-05
1.91371045e-05
1.88724002e-05
1.87560439e-05
1.85705331e-05
1.89341211e-05
1.92081321e-05
1.89995272e-05
1.88735238e-05
1.86632552e-05
1.72686204e-05
1.73168679e-05
1.72586198e-05
1.64773145e-05
1.61124161e-05
1.59045172e-05
1.61249417e-05
1.61141062e-05
1.53969121e-05
1.50750152e-05
1.52678967e-05
1.50343771e-05
1.48550206e-05
1.4566506e-05
1.38542697e-05
1.35094054e-05
1.36177689e-05
1.34701656e-05
1.29043479e-05
1.25829247e-05
1.23453978e-05
1.22946213e-05
1.21087738e-05
1.15728113e-05
1.12776222e-05
1.14010645e-05
1.14152843e-05
1.11406877e-05
1.05498586e-05
1.02518167e-05
1.03642265e-05
1.03359242e-05
1.00477394e-05
9.50742678e-06
9.23144489e-06
9.33795412e-06
9.29145505e-06
9.01480741e-06
8.51521374e-06
8.24770948e-06
8.28635315e-06
8.06274273e-06
7.88394437e-06
7.60229202e-06
7.2130432e-06
6.97966878e-06
6.75751139e-06
6.47469671e-06
6.55309952e-06
6.38462981e-06
6.09539109e-06
5.93917798e-06
5.99009485e-06
5.91401486e-06
5.6626301e-06
5.39778291e-06
5.22771813e-06
5.30362558e-06
5.06829025e-06
4.82351404e-06
4.67621159e-06
4.75492913e-06
4.52126559e-06
4.28529739e-06
4.15212074e-06
4.22903889e-06
3.99263468e-06
3.76723147e-06
3.66124821e-06
3.73311427e-06
3.61823256e-06
3.38379356e-06
3.18110167e-06
3.06552904e-06
3.13772458e-06
2.9055422e-06
2.72194881e-06
2.62666755e-06
2.70123874e-06
2.46849387e-06
2.2943475e-06
2.22495769e-06
2.30024738e-06
2.16684669e-06
1.94645126e-06
1.79055599e-06
1.7103608e-06
1.77413235e-06
1.54575813e-06
1.40321732e-06
1.3389927e-06
1.40254834e-06
1.17543165e-06
1.04252153e-06
1.00215798e-06
1.04796746e-06
9.05009319e-07
7.0754189e-07
5.9467013e-07
5.46482351e-07
5.94400545e-07
3.67517759e-07
2.65998461e-07
2.3002468e-07
2.78706423e-07
5.86563502e-08
-3.52784233e-08
-6.38744389e-08
-7.41905449e-09
)
;

boundaryField
{
    closed
    {
        type            calculated;
        value           uniform 0;
    }
    open
    {
        type            calculated;
        value           nonuniform List<scalar> 0();
    }
    sides
    {
        type            empty;
        value           nonuniform List<scalar> 0();
    }
    procBoundary0to1
    {
        type            processor;
        value           uniform -2.21691477e-07;
    }
}


// ************************************************************************* //
