/*--------------------------------*- C++ -*----------------------------------*\
| =========                 |                                                 |
| \\      /  F ield         | OpenFOAM: The Open Source CFD Toolbox           |
|  \\    /   O peration     | Version:  2306                                  |
|   \\  /    A nd           | Website:  www.openfoam.com                      |
|    \\/     M anipulation  |                                                 |
\*---------------------------------------------------------------------------*/
FoamFile
{
    version     2.0;
    format      ascii;
    arch        "LSB;label=32;scalar=64";
    class       volScalarField;
    location    "0.00112";
    object      prefDh_T;
}
// * * * * * * * * * * * * * * * * * * * * * * * * * * * * * * * * * * * * * //

dimensions      [1 1 -3 -1 0 0 0];

internalField   nonuniform List<scalar> 
530
(
-0.000903040338
-0.000638162691
-0.00059213342
-0.000591277566
-0.000591197284
-0.00059119468
-0.000591194507
-0.000591194501
-0.000591194501
-0.000591194501
-0.000591194501
-0.000591194501
-0.000591194501
-0.000591194501
-0.000591194501
-0.000591194501
-0.000591194501
-0.000591194501
-0.000591194501
-0.000591194501
-0.000591194501
-0.000591194501
-0.000591194501
-0.000591194501
-0.000591194501
-0.000591194501
-0.000591194501
-0.000591194501
-0.000591194501
-0.000591194501
-0.000591194501
-0.000591194501
-0.000591194501
-0.000591194501
-0.000591194501
-0.000591194501
-0.000591194501
-0.000591194501
-0.000591194501
-0.000591194501
-0.000591194501
-0.000591194501
-0.000591194501
-0.000591194501
-0.000591194501
-0.000591194501
-0.000591194501
-0.000591194501
-0.000591194501
-0.000591194501
-0.000591194501
-0.000591194501
-0.000591194501
-0.000591194501
-0.000591194501
-0.000591194501
-0.000591194501
-0.000591194501
-0.000591194501
-0.000591194501
-0.000591194501
-0.000591194501
-0.000591194502
-0.000591194504
-0.000591194511
-0.000591194532
-0.000591194584
-0.000591194753
-0.000591195044
-0.000591196153
-0.000591197689
-0.000591203181
-0.000591209683
-0.000591231151
-0.000591257917
-0.000591322956
-0.000591349355
-0.000591533942
-0.000591824794
-0.000592530196
-0.000591539259
-0.000591734429
-0.000593738488
-0.00059984924
-0.000589374956
-0.000587515654
-0.00058977065
-0.000756030393
-0.000748370128
-0.000563739577
-0.000508242852
-0.000593126818
-0.000748280169
-0.000750888826
-0.000562368272
-0.000487019225
-0.000586168571
-0.000737046498
-0.00075107634
-0.000749638515
-0.00056221761
-0.000502362402
-0.000557277895
-0.00052452194
-0.000589688265
-0.0007423709
-0.00074320659
-0.000743319479
-0.00066768856
-0.000512351278
-0.000568963395
-0.000743040755
-0.000750856928
-0.000521052221
-0.000502639957
-0.000526300077
-0.000540755126
-0.000529170296
-0.000589826675
-0.000747445156
-0.000749450268
-0.000749998932
-0.000748088617
-0.000597390774
-0.000503479825
-0.000583841825
-0.000743202845
-0.000748454693
-0.000477669051
-0.000419110081
-0.000598241664
-0.000743465945
-0.000576502315
-0.000519493807
-0.000740401001
-0.000746864173
-0.000541308999
-0.000529649425
-0.000739839005
-0.000748097213
-0.000518993112
-0.000563718799
-0.000742378404
-0.000739223229
-0.000743962269
-0.000493110321
-0.000380743761
-0.000599245509
-0.000744137382
-0.000572163105
-0.000544862729
-0.000744349655
-0.000663960539
-0.00051595371
-0.000602681331
-0.000752085398
-0.00074561443
-0.000592176297
-0.000508254533
-0.000566020434
-0.000742390667
-0.000747971012
-0.000513998366
-0.000522244858
-0.000740464951
-0.000744239951
-0.000534244226
-0.000503390877
-0.000608846723
-0.000735681678
-0.000749238242
-0.000554807857
-0.000529111014
-0.000736151465
-0.000744437237
-0.000511126369
-0.000494602356
-0.000516020978
-0.000578300282
-0.000739726743
-0.00074605151
-0.00053569168
-0.0005315184
-0.000739956464
-0.000743265667
-0.000506532128
-0.000509198737
-0.000747924346
-0.000734711274
-0.000591887766
-0.000505197809
-0.000594562723
-0.000741235022
-0.000643728756
-0.000497768788
-0.000597577312
-0.000748141138
-0.000747256851
-0.000592617532
-0.000524722217
-0.000584749213
-0.000742513011
-0.000753555983
-0.000518767552
-0.00050289038
-0.000492261245
-0.000595989278
-0.000745038279
-0.000588926565
-0.000536364248
-0.000743184211
-0.000750107676
-0.00055716028
-0.000542973774
-0.000745190031
-0.000749975764
-0.000558061185
-0.000562320426
-0.000749627764
-0.000744846067
-0.000547809956
-0.000504439584
-0.000584321622
-0.000741211066
-0.00076002152
-0.000515212081
-0.000585025298
-0.000749177638
-0.000593989313
-0.000539717742
-0.000747961022
-0.000753493815
-0.000557533138
-0.000543527205
-0.000746399997
-0.00075353514
-0.000564587502
-0.000580415214
-0.000746402962
-0.000748296217
-0.000542160272
-0.000524814925
-0.00050196478
-0.000599045635
-0.000747634864
-0.000576519492
-0.000526132002
-0.000745592801
-0.000752419184
-0.000541184674
-0.000568743717
-0.000753195965
-0.000741811973
-0.000586167486
-0.000502796375
-0.000553910264
-0.000739048318
-0.00075345729
-0.000456227353
-0.000458810839
-0.000745016085
-0.000738646057
-0.000623019693
-0.000514486403
-0.000536499836
-0.000739129612
-0.000747223287
-0.00053759537
-0.000540248571
-0.000740119031
-0.000745539711
-0.000526922412
-0.000523486905
-0.000530864862
-0.000583278782
-0.000738528206
-0.000748346507
-0.000505058177
-0.000533984712
-0.000741799336
-0.000740874172
-0.000742691768
-0.000533260101
-0.000457561519
-0.000597462055
-0.000740071349
-0.000741641923
-0.000743241705
-0.000541601699
-0.000520968763
-0.000546961454
-0.000595084541
-0.000741839306
-0.000744819656
-0.000536890743
-0.000493041039
-0.000596867722
-0.00073965519
-0.000753777326
-0.000526259689
-0.000536411118
-0.000742138628
-0.000747350979
-0.000534255107
-0.000485347106
-0.000598228584
-0.000748666669
-0.000746863899
-0.000590122783
-0.000479960776
-0.000587869962
-0.00074355341
-0.000616570635
-0.000495796674
-0.000593611881
-0.000746539417
-0.000748223665
-0.000588680517
-0.000508682313
-0.000571649126
-0.000743340914
-0.000746817195
-0.000533330318
-0.000465472858
-0.000590738049
-0.000737271818
-0.000744813625
-0.000740185451
-0.000744858826
-0.000537884169
-0.000435298524
-0.000531081449
-0.000735987605
-0.000745969442
-0.000527520736
-0.000505492311
-0.000728935307
-0.000747284058
-0.000556153008
-0.000542874704
-0.000732365527
-0.000740572929
-0.000593268152
-0.000492598457
-0.000554989359
-0.000732691373
-0.000751542893
-0.000547872814
-0.000513521592
-0.000720318325
-0.000749362973
-0.000561843222
-0.000552415738
-0.000723572562
-0.000741316084
-0.000622311723
-0.000547910923
-0.000540816237
-0.000727420608
-0.000747669162
-0.000593367042
-0.000527442824
-0.000538594265
-0.000558531901
-0.000545044556
-0.000596583393
-0.000725301941
-0.000751649927
-0.000743933118
-0.000752807197
-0.00059283415
-0.000555641649
-0.000690058772
-0.000744518031
-0.000592031698
-0.000535225386
-0.000532127032
-0.000549757534
-0.000515766571
-0.000541452629
-0.000715777272
-0.000745395818
-0.000748480628
-0.000588563955
-0.000569886602
-0.000660167657
-0.000739381733
-0.000653171696
-0.000564527953
-0.000520727008
-0.000643988764
-0.000745033969
-0.000588575748
-0.000549854744
-0.000635978282
-0.000741070557
-0.000587939774
-0.000566164308
-0.000511891793
-0.000585460991
-0.000704923347
-0.00059408156
-0.000550903117
-0.000613874044
-0.000735472307
-0.00059142753
-0.000561286819
-0.000610086857
-0.00073345256
-0.00059305352
-0.000574807567
-0.000605742069
-0.000729641076
-0.000743722349
-0.000743102516
-0.000596391746
-0.000510039885
-0.000512381473
-0.000478883778
-0.000484863656
-0.000654362482
-0.000597077158
-0.000585661236
-0.000592988218
-0.000724621157
-0.000744530441
-0.000616288797
-0.000595094358
-0.000595984779
-0.000730166067
-0.00061639334
-0.000597591242
-0.000553675615
-0.000538160243
-0.00058966907
-0.000727597256
-0.000606970767
-0.000591179477
-0.00058705667
-0.000725727706
-0.000744628928
-0.000586556855
-0.000547962479
-0.000582771514
-0.000722204942
-0.000620876826
-0.000553770905
-0.000493169602
-0.000583164422
-0.000724795295
-0.000626637096
-0.000571197016
-0.000515308509
-0.00058503174
-0.000724022312
-0.000632055563
-0.000581383946
-0.000516641235
-0.000586225179
-0.00072689974
-0.000622382339
-0.000601674103
-0.000544617258
-0.00051681187
-0.00058435351
-0.000721464081
-0.000743321601
-0.000739190703
-0.000629028118
-0.000561230371
-0.000580886516
-0.000725244432
-0.000629913515
-0.000545947482
-0.000466824012
-0.000580570851
-0.000723154648
-0.000626836627
-0.000560443012
-0.000583045282
-0.000727495766
-0.000629866784
-0.00056975079
-0.000583767678
-0.00072758026
-0.000633274218
-0.000580225778
-0.000586009456
-0.000729502137
-0.000648017724
-0.000575760249
-0.000490434824
-0.000582501295
-0.000728539848
-0.000634968724
-0.000569044236
-0.000584672323
-0.000732092347
-0.000638203935
-0.000576476137
-0.000586934671
-0.000733429271
-0.000655599746
-0.000579097778
-0.000494681991
-0.00058403253
-0.000731032796
-0.000639255416
-0.00056947574
-0.000586565054
-0.000734635442
-0.000641845598
-0.000573434523
-0.000588362124
-0.000736512156
-0.000655061404
-0.000571622985
-0.000482966268
-0.000584907963
-0.000733495552
-0.000639895022
-0.000550818301
-0.000587210014
-0.000738220673
-0.000642292725
-0.000555672707
-0.000588066984
-0.000737836485
-0.000647796825
-0.000572630271
)
;

boundaryField
{
    closed
    {
        type            calculated;
        value           uniform -0.0045007635;
    }
    open
    {
        type            calculated;
        value           nonuniform List<scalar> 0();
    }
    sides
    {
        type            empty;
    }
    procBoundary0to1
    {
        type            processor;
        value           uniform -0.000591655214;
    }
}


// ************************************************************************* //
