/*--------------------------------*- C++ -*----------------------------------*\
| =========                 |                                                 |
| \\      /  F ield         | OpenFOAM: The Open Source CFD Toolbox           |
|  \\    /   O peration     | Version:  2306                                  |
|   \\  /    A nd           | Website:  www.openfoam.com                      |
|    \\/     M anipulation  |                                                 |
\*---------------------------------------------------------------------------*/
FoamFile
{
    version     2.0;
    format      ascii;
    arch        "LSB;label=32;scalar=64";
    class       volScalarField;
    location    "0.00112";
    object      prefDPV_H2;
}
// * * * * * * * * * * * * * * * * * * * * * * * * * * * * * * * * * * * * * //

dimensions      [1 -1 -1 0 0 0 0];

internalField   nonuniform List<scalar> 
530
(
-3.19582699e-05
-3.1071054e-05
-3.09217376e-05
-3.09190667e-05
-3.09188158e-05
-3.09188076e-05
-3.0918807e-05
-3.0918807e-05
-3.0918807e-05
-3.0918807e-05
-3.0918807e-05
-3.0918807e-05
-3.0918807e-05
-3.0918807e-05
-3.0918807e-05
-3.0918807e-05
-3.0918807e-05
-3.0918807e-05
-3.0918807e-05
-3.0918807e-05
-3.0918807e-05
-3.0918807e-05
-3.0918807e-05
-3.0918807e-05
-3.0918807e-05
-3.0918807e-05
-3.0918807e-05
-3.0918807e-05
-3.0918807e-05
-3.0918807e-05
-3.0918807e-05
-3.0918807e-05
-3.0918807e-05
-3.0918807e-05
-3.0918807e-05
-3.0918807e-05
-3.0918807e-05
-3.0918807e-05
-3.0918807e-05
-3.0918807e-05
-3.0918807e-05
-3.0918807e-05
-3.0918807e-05
-3.0918807e-05
-3.0918807e-05
-3.0918807e-05
-3.0918807e-05
-3.0918807e-05
-3.0918807e-05
-3.0918807e-05
-3.0918807e-05
-3.0918807e-05
-3.0918807e-05
-3.0918807e-05
-3.0918807e-05
-3.0918807e-05
-3.0918807e-05
-3.0918807e-05
-3.0918807e-05
-3.0918807e-05
-3.0918807e-05
-3.0918807e-05
-3.0918807e-05
-3.0918807e-05
-3.0918807e-05
-3.09188071e-05
-3.09188072e-05
-3.09188078e-05
-3.09188087e-05
-3.09188122e-05
-3.09188171e-05
-3.09188346e-05
-3.09188551e-05
-3.09189227e-05
-3.09190116e-05
-3.09192158e-05
-3.09192595e-05
-3.09198401e-05
-3.09210876e-05
-3.09235871e-05
-3.0918862e-05
-3.091733e-05
-3.09282367e-05
-3.09536646e-05
-3.09071569e-05
-3.08647301e-05
-3.08932457e-05
-3.15832304e-05
-3.1544807e-05
-3.07717136e-05
-3.05520507e-05
-3.09041816e-05
-3.1552025e-05
-3.15575436e-05
-3.07687297e-05
-3.04675433e-05
-3.0878529e-05
-3.15029018e-05
-3.15669597e-05
-3.15548014e-05
-3.07672266e-05
-3.05291771e-05
-3.07469496e-05
-3.06153075e-05
-3.09063791e-05
-3.15260806e-05
-3.15288539e-05
-3.15305392e-05
-3.12191775e-05
-3.0568835e-05
-3.0789568e-05
-3.1527505e-05
-3.15625988e-05
-3.0603176e-05
-3.05329253e-05
-3.06233277e-05
-3.06813641e-05
-3.06349375e-05
-3.0895862e-05
-3.15473976e-05
-3.15588362e-05
-3.15595128e-05
-3.15516993e-05
-3.09450771e-05
-3.05340628e-05
-3.08502439e-05
-3.15264285e-05
-3.15513631e-05
-3.04346832e-05
-3.02067724e-05
-3.09461221e-05
-3.15269074e-05
-3.08193101e-05
-3.05948287e-05
-3.15168098e-05
-3.15437457e-05
-3.0681172e-05
-3.06361363e-05
-3.15130525e-05
-3.15503774e-05
-3.05934568e-05
-3.07674052e-05
-3.15213796e-05
-3.15146355e-05
-3.15270244e-05
-3.04941883e-05
-3.00577227e-05
-3.09497796e-05
-3.15297814e-05
-3.08025588e-05
-3.06919209e-05
-3.15333768e-05
-3.12053141e-05
-3.05857895e-05
-3.09270921e-05
-3.15666635e-05
-3.15427354e-05
-3.092166e-05
-3.05528382e-05
-3.07774343e-05
-3.15246441e-05
-3.15397474e-05
-3.05748035e-05
-3.06044056e-05
-3.15167674e-05
-3.15338425e-05
-3.06536647e-05
-3.05323673e-05
-3.0992343e-05
-3.14995023e-05
-3.15537997e-05
-3.07308985e-05
-3.06339531e-05
-3.14977522e-05
-3.15343553e-05
-3.05624583e-05
-3.04984613e-05
-3.05806681e-05
-3.08242691e-05
-3.15144717e-05
-3.15423396e-05
-3.06583111e-05
-3.06415982e-05
-3.15137964e-05
-3.15283416e-05
-3.05468687e-05
-3.05529701e-05
-3.15473333e-05
-3.14950623e-05
-3.09202411e-05
-3.05379343e-05
-3.08994866e-05
-3.15199545e-05
-3.11288394e-05
-3.05128716e-05
-3.09083445e-05
-3.15501646e-05
-3.15499934e-05
-3.09230726e-05
-3.0616934e-05
-3.08556284e-05
-3.15251967e-05
-3.15742924e-05
-3.05934669e-05
-3.05343698e-05
-3.04902484e-05
-3.09366147e-05
-3.1536216e-05
-3.08686605e-05
-3.06628834e-05
-3.15290443e-05
-3.15591217e-05
-3.07447298e-05
-3.06903991e-05
-3.1536599e-05
-3.15597105e-05
-3.07492597e-05
-3.07644374e-05
-3.15563002e-05
-3.15380372e-05
-3.07126499e-05
-3.05364828e-05
-3.08677735e-05
-3.15195736e-05
-3.1604214e-05
-3.05803718e-05
-3.0873359e-05
-3.15529807e-05
-3.08926662e-05
-3.06778257e-05
-3.15492466e-05
-3.1573428e-05
-3.07478659e-05
-3.06944e-05
-3.15419641e-05
-3.15750143e-05
-3.07744136e-05
-3.08368403e-05
-3.15435189e-05
-3.15533425e-05
-3.06867274e-05
-3.06181134e-05
-3.05296348e-05
-3.09500411e-05
-3.15470958e-05
-3.08205739e-05
-3.06239633e-05
-3.15386847e-05
-3.15682128e-05
-3.06849472e-05
-3.07888951e-05
-3.15727094e-05
-3.15261234e-05
-3.08924977e-05
-3.05296564e-05
-3.0735426e-05
-3.15094812e-05
-3.15715844e-05
-3.03497924e-05
-3.03610339e-05
-3.15319986e-05
-3.15104968e-05
-3.10487432e-05
-3.05749521e-05
-3.06626834e-05
-3.15125853e-05
-3.15478847e-05
-3.06658205e-05
-3.0678022e-05
-3.15170025e-05
-3.15404959e-05
-3.06243242e-05
-3.06120202e-05
-3.06381536e-05
-3.08459107e-05
-3.15098148e-05
-3.1553417e-05
-3.05389356e-05
-3.06529331e-05
-3.15208944e-05
-3.15216031e-05
-3.15246886e-05
-3.06502499e-05
-3.0353632e-05
-3.09165457e-05
-3.15136418e-05
-3.15276256e-05
-3.15286121e-05
-3.06827622e-05
-3.06018494e-05
-3.07023848e-05
-3.09096855e-05
-3.15248393e-05
-3.15392069e-05
-3.0665968e-05
-3.04922472e-05
-3.09038095e-05
-3.15132971e-05
-3.15758322e-05
-3.06221052e-05
-3.06644877e-05
-3.15243099e-05
-3.15473719e-05
-3.06557932e-05
-3.04650421e-05
-3.09109121e-05
-3.15527001e-05
-3.15468872e-05
-3.08852905e-05
-3.04427363e-05
-3.08847888e-05
-3.15284623e-05
-3.10237012e-05
-3.05058696e-05
-3.08973742e-05
-3.15439905e-05
-3.15535086e-05
-3.08954716e-05
-3.05548498e-05
-3.08022711e-05
-3.15272982e-05
-3.15458988e-05
-3.06527579e-05
-3.03854432e-05
-3.0874785e-05
-3.14999989e-05
-3.15381335e-05
-3.1515861e-05
-3.15351653e-05
-3.06690497e-05
-3.02678599e-05
-3.06408366e-05
-3.14939632e-05
-3.15419996e-05
-3.06276901e-05
-3.05432267e-05
-3.14631022e-05
-3.15467443e-05
-3.07411352e-05
-3.06871816e-05
-3.14790016e-05
-3.15196923e-05
-3.08911437e-05
-3.04892042e-05
-3.07371206e-05
-3.14804304e-05
-3.15660643e-05
-3.07074181e-05
-3.05765819e-05
-3.14232081e-05
-3.15559021e-05
-3.0763684e-05
-3.07248397e-05
-3.14385236e-05
-3.15245673e-05
-3.10456442e-05
-3.07074321e-05
-3.06796245e-05
-3.14564045e-05
-3.15500019e-05
-3.08910968e-05
-3.06293679e-05
-3.06719125e-05
-3.07508239e-05
-3.06953381e-05
-3.09039173e-05
-3.14487518e-05
-3.15675533e-05
-3.15350147e-05
-3.15714863e-05
-3.08987881e-05
-3.07403335e-05
-3.13029821e-05
-3.15356123e-05
-3.08946885e-05
-3.0658689e-05
-3.06457538e-05
-3.07150335e-05
-3.05801277e-05
-3.06787906e-05
-3.13992354e-05
-3.15421539e-05
-3.15536409e-05
-3.08928417e-05
-3.07947275e-05
-3.11910023e-05
-3.15137148e-05
-3.11645506e-05
-3.07742249e-05
-3.06030351e-05
-3.11298414e-05
-3.15351103e-05
-3.08919572e-05
-3.07182041e-05
-3.10993788e-05
-3.1518475e-05
-3.08957805e-05
-3.0781896e-05
-3.05662449e-05
-3.08554926e-05
-3.13581782e-05
-3.09281431e-05
-3.07189287e-05
-3.10138423e-05
-3.14929564e-05
-3.09134424e-05
-3.0761114e-05
-3.09991828e-05
-3.14848586e-05
-3.0921266e-05
-3.08126602e-05
-3.09815167e-05
-3.1467072e-05
-3.15306001e-05
-3.15284459e-05
-3.09404375e-05
-3.05616682e-05
-3.05704403e-05
-3.04371154e-05
-3.04580281e-05
-3.1169105e-05
-3.09430599e-05
-3.08532061e-05
-3.0930682e-05
-3.14467899e-05
-3.15344542e-05
-3.10204963e-05
-3.08945921e-05
-3.0940368e-05
-3.14695681e-05
-3.10212442e-05
-3.0906115e-05
-3.07294912e-05
-3.06687868e-05
-3.09147773e-05
-3.145832e-05
-3.09834537e-05
-3.08767614e-05
-3.09009686e-05
-3.14493883e-05
-3.15325022e-05
-3.08949635e-05
-3.07051718e-05
-3.08834947e-05
-3.14322069e-05
-3.1039743e-05
-3.07317537e-05
-3.04916435e-05
-3.0886742e-05
-3.14444608e-05
-3.10621972e-05
-3.08003676e-05
-3.05770236e-05
-3.08937858e-05
-3.14420566e-05
-3.10833481e-05
-3.08392379e-05
-3.05822932e-05
-3.08981581e-05
-3.14550801e-05
-3.10453745e-05
-3.09203422e-05
-3.0694213e-05
-3.05829232e-05
-3.08846516e-05
-3.14280675e-05
-3.15295002e-05
-3.1512438e-05
-3.10718315e-05
-3.07591975e-05
-3.08672048e-05
-3.14427167e-05
-3.10754297e-05
-3.07008948e-05
-3.03888057e-05
-3.08614646e-05
-3.14344722e-05
-3.10636089e-05
-3.07538523e-05
-3.08731028e-05
-3.14536318e-05
-3.10754237e-05
-3.07902032e-05
-3.087701e-05
-3.1455243e-05
-3.10885111e-05
-3.08303272e-05
-3.08863456e-05
-3.14636094e-05
-3.11449483e-05
-3.08179107e-05
-3.04798767e-05
-3.08705444e-05
-3.14591508e-05
-3.10950991e-05
-3.07876377e-05
-3.08787938e-05
-3.14747051e-05
-3.11075652e-05
-3.08160735e-05
-3.08877947e-05
-3.148084e-05
-3.11737692e-05
-3.08310625e-05
-3.0495925e-05
-3.08755153e-05
-3.147062e-05
-3.11115754e-05
-3.07887783e-05
-3.08845931e-05
-3.14864747e-05
-3.11215135e-05
-3.08037721e-05
-3.08915586e-05
-3.14945166e-05
-3.11717298e-05
-3.0801755e-05
-3.04502274e-05
-3.08758205e-05
-3.14808074e-05
-3.11141176e-05
-3.07156851e-05
-3.08828987e-05
-3.15011312e-05
-3.11233243e-05
-3.0734702e-05
-3.08865896e-05
-3.15008453e-05
-3.11442152e-05
-3.08003048e-05
)
;

boundaryField
{
    closed
    {
        type            calculated;
        value           uniform -4.04230403e-05;
    }
    open
    {
        type            calculated;
        value           nonuniform List<scalar> 0();
    }
    sides
    {
        type            empty;
    }
    procBoundary0to1
    {
        type            processor;
        value           uniform -3.09011592e-05;
    }
}


// ************************************************************************* //
