/*--------------------------------*- C++ -*----------------------------------*\
| =========                 |                                                 |
| \\      /  F ield         | OpenFOAM: The Open Source CFD Toolbox           |
|  \\    /   O peration     | Version:  2306                                  |
|   \\  /    A nd           | Website:  www.openfoam.com                      |
|    \\/     M anipulation  |                                                 |
\*---------------------------------------------------------------------------*/
FoamFile
{
    version     2.0;
    format      ascii;
    arch        "LSB;label=32;scalar=64";
    class       volScalarField;
    location    "0.00136";
    object      alpha;
}
// * * * * * * * * * * * * * * * * * * * * * * * * * * * * * * * * * * * * * //

dimensions      [1 -1 -1 0 0 0 0];

internalField   nonuniform List<scalar> 
531
(
3.57277243e-05
3.49934811e-05
3.50042993e-05
3.67943835e-05
3.68054921e-05
3.58654759e-05
3.50980933e-05
3.51505651e-05
3.68174174e-05
3.56389087e-05
3.51604493e-05
3.68167659e-05
3.68013355e-05
3.68090494e-05
3.57635702e-05
3.53076428e-05
3.68092795e-05
3.68039227e-05
3.57757508e-05
3.55055213e-05
3.53009196e-05
3.5301619e-05
3.67974878e-05
3.68039539e-05
3.57553099e-05
3.53430241e-05
3.5000284e-05
3.50062322e-05
3.6779298e-05
3.67961245e-05
3.50421836e-05
3.4978957e-05
3.67813848e-05
3.67993165e-05
3.6776449e-05
3.6800561e-05
3.6786571e-05
3.53601029e-05
3.49304759e-05
3.67968175e-05
3.67842189e-05
3.5649539e-05
3.46076477e-05
3.46335047e-05
3.67644499e-05
3.68047736e-05
3.67682325e-05
3.68126773e-05
3.53855657e-05
3.5332506e-05
3.67957778e-05
3.57274982e-05
3.47953858e-05
3.68049444e-05
3.67893722e-05
3.55832878e-05
3.53329468e-05
3.68103711e-05
3.67928273e-05
3.58652644e-05
3.55550276e-05
3.51413066e-05
3.51435599e-05
3.68195788e-05
3.6810261e-05
3.68140644e-05
3.57438896e-05
3.51246715e-05
3.51283557e-05
3.68134243e-05
3.68129255e-05
3.57232e-05
3.49971963e-05
3.50048316e-05
3.67963531e-05
3.68330682e-05
3.55522243e-05
3.52664974e-05
3.68004794e-05
3.6824799e-05
3.54604048e-05
3.5423144e-05
3.6809274e-05
3.68139847e-05
3.68039868e-05
3.57940457e-05
3.54181778e-05
3.51411686e-05
3.51408442e-05
3.6821748e-05
3.68087389e-05
3.68146931e-05
3.57356154e-05
3.50484943e-05
3.50485903e-05
3.68063239e-05
3.68075376e-05
3.5725923e-05
3.49039179e-05
3.49168803e-05
3.6780058e-05
3.68192748e-05
3.5499922e-05
3.5197473e-05
3.67824739e-05
3.6805963e-05
3.53839033e-05
3.53561723e-05
3.67908307e-05
3.67910316e-05
3.67911476e-05
3.57552233e-05
3.52028389e-05
3.4813227e-05
3.48132874e-05
3.67839752e-05
3.67946461e-05
3.67794949e-05
3.68041657e-05
3.53123327e-05
3.49207283e-05
3.67886709e-05
3.67989406e-05
3.67839826e-05
3.67991173e-05
3.5783844e-05
3.53308251e-05
3.51968856e-05
3.51022962e-05
3.67854025e-05
3.67953623e-05
3.56506445e-05
3.46619429e-05
3.46805655e-05
3.67834963e-05
3.67883761e-05
3.67899764e-05
3.54315278e-05
3.49905826e-05
3.67858213e-05
3.67855209e-05
3.67845967e-05
3.67898271e-05
3.57474884e-05
3.51612545e-05
3.4846859e-05
3.48527576e-05
3.67978037e-05
3.67802533e-05
3.67917539e-05
3.55990383e-05
3.46265655e-05
3.46393385e-05
3.67619804e-05
3.67820866e-05
3.67648632e-05
3.67808752e-05
3.57864245e-05
3.52757808e-05
3.49565638e-05
3.4954697e-05
3.6777169e-05
3.67815432e-05
3.67738384e-05
3.67870783e-05
3.67823642e-05
3.55671271e-05
3.50865063e-05
3.45363815e-05
3.45374102e-05
3.67763183e-05
3.67876213e-05
3.67765397e-05
3.67927387e-05
3.67864387e-05
3.55333428e-05
3.50293742e-05
3.46150185e-05
3.46147407e-05
3.67870739e-05
3.67901402e-05
3.67870168e-05
3.67948855e-05
3.57469971e-05
3.51654743e-05
3.4923055e-05
3.49265536e-05
3.68050518e-05
3.67939799e-05
3.68082191e-05
3.57405658e-05
3.50504816e-05
3.67985131e-05
3.6804405e-05
3.55344705e-05
3.53034775e-05
3.68008367e-05
3.6809199e-05
3.54693472e-05
3.54468314e-05
3.68089845e-05
3.68066054e-05
3.68085209e-05
3.58224152e-05
3.54370621e-05
3.52339229e-05
3.52374323e-05
3.68186459e-05
3.57329223e-05
3.50524473e-05
3.6811746e-05
3.68139552e-05
3.5674848e-05
3.53478088e-05
3.68086388e-05
3.68008949e-05
3.57469435e-05
3.54420369e-05
3.51276557e-05
3.51410661e-05
3.6780213e-05
3.67360324e-05
3.67783799e-05
3.67121396e-05
3.53201045e-05
3.47128978e-05
3.48261204e-05
3.67831151e-05
3.67893389e-05
3.67958673e-05
3.59960917e-05
3.50471026e-05
3.50715669e-05
3.68166742e-05
3.55941756e-05
3.51529924e-05
3.6810286e-05
3.68033656e-05
3.68108591e-05
3.57525518e-05
3.51845563e-05
3.49922132e-05
3.49910667e-05
3.68109312e-05
3.68089164e-05
3.68073052e-05
3.6809495e-05
3.57609634e-05
3.53649226e-05
3.51323659e-05
3.51340613e-05
3.6800835e-05
3.67874559e-05
3.67964056e-05
3.61140476e-05
3.51063379e-05
3.5101687e-05
3.68023787e-05
3.68013043e-05
3.57846808e-05
3.50412699e-05
3.52947262e-05
3.68145654e-05
3.5734873e-05
3.50084427e-05
3.68028193e-05
3.68061048e-05
3.54856308e-05
3.52188227e-05
3.67967562e-05
3.68031779e-05
3.52490432e-05
3.52358091e-05
3.6801923e-05
3.67990153e-05
3.68015204e-05
3.5439089e-05
3.50327117e-05
3.67970303e-05
3.67878803e-05
3.62221408e-05
3.55002748e-05
3.48864797e-05
3.50033886e-05
3.68014942e-05
3.55172805e-05
3.50937902e-05
3.68057273e-05
3.67969119e-05
3.68061345e-05
3.57404936e-05
3.51482802e-05
3.68078894e-05
3.67994788e-05
3.57282074e-05
3.52518136e-05
3.49697271e-05
3.49806592e-05
3.68086748e-05
3.6800194e-05
3.68095551e-05
3.68011202e-05
3.57372406e-05
3.50502547e-05
3.50558883e-05
3.67897843e-05
3.68119805e-05
3.56462564e-05
3.51474462e-05
3.67959428e-05
3.67947212e-05
3.57476559e-05
3.49284575e-05
3.49732077e-05
3.67885272e-05
3.67839646e-05
3.67908548e-05
3.54223865e-05
3.53674646e-05
3.67988227e-05
3.55746785e-05
3.45811074e-05
3.67844031e-05
3.67827173e-05
3.67782537e-05
3.67896222e-05
3.52185373e-05
3.51758077e-05
3.67892889e-05
3.541367e-05
3.43124709e-05
3.67822124e-05
3.67773543e-05
3.67753551e-05
3.67846571e-05
3.51669063e-05
3.51392164e-05
3.67861007e-05
3.54389203e-05
3.43653096e-05
3.67814572e-05
3.67758943e-05
3.67758051e-05
3.67842247e-05
3.5354097e-05
3.53086386e-05
3.67888061e-05
3.56081517e-05
3.49046608e-05
3.67925368e-05
3.6771452e-05
3.67865571e-05
3.57652724e-05
3.49379287e-05
3.49471551e-05
3.67706588e-05
3.67890817e-05
3.57399951e-05
3.4760785e-05
3.48613394e-05
3.67850956e-05
3.67789775e-05
3.67875458e-05
3.54946715e-05
3.54533248e-05
3.68019788e-05
3.57559187e-05
3.47661353e-05
3.67893644e-05
3.67887957e-05
3.53911759e-05
3.50469506e-05
3.67878636e-05
3.67948687e-05
3.5271978e-05
3.50956151e-05
3.67896165e-05
3.68033988e-05
3.51458359e-05
3.50554405e-05
3.67995773e-05
3.68111577e-05
3.67951828e-05
3.68174018e-05
3.57150669e-05
3.53066408e-05
3.68070074e-05
3.68040235e-05
3.57456027e-05
3.53965697e-05
3.5225596e-05
3.52208901e-05
3.68062138e-05
3.67999664e-05
3.57188442e-05
3.50784577e-05
3.50790767e-05
3.67955163e-05
3.6794395e-05
3.5742533e-05
3.49074305e-05
3.49185127e-05
3.67817289e-05
3.68090945e-05
3.51889768e-05
3.50603761e-05
3.68018535e-05
3.68083595e-05
3.67996899e-05
3.68085054e-05
3.6801895e-05
3.55274333e-05
3.51603471e-05
3.68148694e-05
3.680467e-05
3.54858005e-05
3.50247237e-05
3.68137395e-05
3.68028832e-05
3.56438285e-05
3.46971573e-05
3.4751729e-05
3.67999563e-05
3.68009067e-05
3.67991924e-05
3.54332712e-05
3.50042846e-05
3.68103539e-05
3.67998639e-05
3.56467514e-05
3.4746728e-05
3.4789122e-05
3.67989773e-05
3.67989076e-05
3.67996793e-05
3.54816452e-05
3.51363768e-05
3.68139274e-05
3.67952924e-05
3.57276898e-05
3.50018964e-05
3.50090375e-05
3.67937434e-05
3.68104885e-05
3.56531783e-05
3.5229646e-05
3.68081916e-05
3.67935085e-05
3.57484166e-05
3.51461117e-05
3.51500169e-05
3.6799159e-05
3.68075627e-05
3.56968618e-05
3.52654545e-05
3.68133525e-05
3.67916043e-05
3.57411017e-05
3.50491056e-05
3.50613198e-05
3.67938357e-05
3.68169294e-05
3.53703548e-05
3.52963153e-05
3.68175877e-05
3.6804567e-05
3.68085377e-05
3.56153813e-05
3.51088517e-05
3.68171152e-05
3.68031014e-05
3.55043607e-05
3.51790111e-05
3.68160081e-05
3.67966361e-05
3.56323063e-05
3.51804694e-05
3.47969487e-05
3.48073521e-05
3.68146802e-05
3.6789187e-05
3.68021478e-05
3.54567619e-05
3.50521977e-05
3.68171122e-05
3.67905958e-05
3.6800457e-05
3.56817589e-05
3.5015212e-05
3.68109241e-05
3.67903589e-05
3.55681687e-05
3.51010708e-05
3.6814858e-05
3.67803291e-05
3.573267e-05
3.49167273e-05
3.49365697e-05
3.6776949e-05
3.68102917e-05
3.54301388e-05
3.51534671e-05
3.67886819e-05
3.68011789e-05
3.52240311e-05
3.52255821e-05
3.68102042e-05
3.67884167e-05
3.67901335e-05
3.55659145e-05
3.4957553e-05
3.68060297e-05
3.6784402e-05
3.56748867e-05
3.45757694e-05
3.46698125e-05
3.6787859e-05
3.67835824e-05
3.67863268e-05
3.54258593e-05
3.49846706e-05
3.68000124e-05
3.67914977e-05
3.51486992e-05
3.51384425e-05
3.6809768e-05
3.67907762e-05
3.67903491e-05
3.55770972e-05
3.50731362e-05
3.68158995e-05
)
;

boundaryField
{
    closed
    {
        type            calculated;
        value           nonuniform List<scalar> 0();
    }
    open
    {
        type            calculated;
        value           nonuniform List<scalar> 0();
    }
    sides
    {
        type            empty;
    }
    procBoundary3to2
    {
        type            processor;
        value           uniform 3.68059191e-05;
    }
    procBoundary3to4
    {
        type            processor;
        value           uniform 3.67790947e-05;
    }
}


// ************************************************************************* //
