/*--------------------------------*- C++ -*----------------------------------*\
| =========                 |                                                 |
| \\      /  F ield         | OpenFOAM: The Open Source CFD Toolbox           |
|  \\    /   O peration     | Version:  2306                                  |
|   \\  /    A nd           | Website:  www.openfoam.com                      |
|    \\/     M anipulation  |                                                 |
\*---------------------------------------------------------------------------*/
FoamFile
{
    version     2.0;
    format      ascii;
    arch        "LSB;label=32;scalar=64";
    class       volScalarField;
    location    "0.00136";
    object      prefDh_H;
}
// * * * * * * * * * * * * * * * * * * * * * * * * * * * * * * * * * * * * * //

dimensions      [1 1 -3 0 0 0 0];

internalField   nonuniform List<scalar> 
531
(
23401.2398
22917.2311
22926.9766
23912.056
23932.3834
23415.4419
22988.0677
23022.7913
23929.735
23346.2623
23029.301
23919.2761
23938.8725
23932.483
23395.0508
23126.7334
23927.9754
23938.2983
23396.4299
23257.4019
23121.2994
23122.977
23912.253
23935.7243
23421.8717
23148.8846
22921.2989
22926.8067
23885.9198
23923.7533
22948.3569
22909.3362
23876.3536
23926.3708
23893.0208
23929.7972
23918.055
23161.0307
22875.6679
23906.3918
23907.5428
23352.749
22659.8509
22681.2381
23874.2181
23927.3904
23893.9301
23938.4768
23176.2657
23143.9318
23897.5349
23397.7929
22785.6512
23915.3273
23918.4962
23308.8635
23142.1939
23922.7134
23930.3377
23412.9388
23290.3342
23016.8508
23018.8426
23925.6514
23945.8275
23941.8774
23388.8888
23005.5475
23009.4297
23927.0174
23937.7654
23386.921
22920.1883
22928.9578
23910.8384
23956.3934
23287.6265
23101.3367
23910.1732
23954.253
23227.0838
23204.5728
23915.1612
23951.9711
23935.5849
23392.097
23200.1128
23017.1056
23017.1018
23925.5605
23944.1996
23941.2548
23394.8141
22954.7227
22956.2847
23919.9679
23931.2429
23399.1154
22857.5524
22869.9472
23895.5399
23943.2701
23251.8675
23054.3985
23893.2607
23937.075
23175.0409
23158.6423
23896.3863
23931.6478
23921.2951
23413.9541
23055.2848
22797.9541
22798.7229
23880.5708
23918.1401
23898.3625
23926.6227
23128.6134
22870.7109
23889.575
23925.5581
23911.8207
23928.7157
23402.5277
23140.9559
23051.7682
22990.3043
23895.8173
23919.4522
23352.9774
22697.3636
22711.4891
23892.5463
23918.3864
23915.2594
23207.5575
22915.455
23890.048
23914.1909
23912.5022
23918.5797
23410.8922
23027.3451
22821.1763
22824.131
23897.5247
23914.8116
23915.3296
23318.3348
22673.2728
22683.7392
23873.7751
23908.4629
23898.8627
23911.6409
23413.7808
23102.9023
22891.8331
22891.3797
23879.8257
23913.4195
23895.2365
23922.0481
23916.7884
23297.5544
22977.9309
22615.1509
22616.0867
23872.2024
23912.6016
23892.9726
23923.4093
23917.6161
23275.6399
22940.3287
22667.7938
22667.304
23885.2495
23913.1913
23911.3943
23920.4407
23409.9443
23030.6824
22871.8169
22873.7516
23905.0659
23929.3695
23924.4039
23408.1829
22955.9901
23913.3279
23933.3994
23276.4067
23124.0646
23913.1788
23942.0097
23233.3845
23219.3363
23917.9658
23945.9274
23939.6398
23399.6724
23212.8794
23078.5651
23081.1324
23929.1227
23392.3514
22958.4465
23927.3896
23941.553
23370.3911
23153.2574
23927.2666
23935.1481
23399.2027
23214.1248
23006.4737
23014.2788
23887.0959
23865.7603
23903.5319
23820.4294
23134.7941
22728.4203
22807.5982
23896.8946
23922.002
23922.5135
23464.6304
22954.7147
22970.3339
23929.558
23316.7366
23024.6035
23916.0789
23940.5293
23934.3924
23391.9032
23045.0532
22918.5562
22917.9156
23913.0043
23935.4771
23932.7864
23938.6889
23392.706
23164.1829
23010.5789
23011.6106
23907.8667
23920.3822
23921.6359
23516.8752
22993.5893
22990.1633
23917.4407
23928.8726
23392.2054
22949.9501
23119.0521
23927.0285
23397.1091
22928.6596
23919.4435
23933.5943
23244.1557
23067.8693
23909.0708
23934.2135
23087.178
23079.3145
23905.1606
23932.8172
23921.9983
23213.8516
22944.0149
23903.1676
23922.7976
23567.9831
23253.969
22846.5617
22925.1883
23915.9216
23265.4406
22984.6431
23911.3644
23934.0266
23926.7838
23399.5486
23020.5156
23928.7155
23929.2245
23404.3417
23088.3843
22903.6088
22910.0996
23912.4269
23925.7418
23934.5299
23927.6006
23392.4451
22954.8958
22961.3577
23911.9639
23937.9121
23350.2195
23020.084
23917.8089
23921.9713
23410.7161
22873.6695
22904.8758
23906.081
23917.6937
23921.4935
23201.2798
23164.7385
23904.9463
23302.4837
22644.3303
23890.6974
23907.5421
23900.1239
23917.2283
23065.6405
23038.3077
23891.7719
23196.2784
22466.2401
23884.3409
23899.7434
23894.9022
23911.0695
23031.215
23013.7909
23888.7963
23212.7519
22500.8867
23885.7741
23900.0861
23898.2412
23912.9677
23155.201
23125.6677
23898.4402
23324.6692
22857.577
23902.0868
23910.5846
23912.1679
23426.1701
22878.9374
22887.1499
23894.8717
23913.5821
23411.2042
22762.2669
22830.1588
23900.581
23913.2098
23916.5995
23249.0557
23221.5027
23910.2073
23414.2883
22766.8019
23907.186
23915.1793
23180.6775
22953.0994
23901.1574
23923.8759
23101.4541
22986.1777
23900.111
23931.3315
23018.2946
22960.4995
23903.8108
23937.4649
23920.1779
23943.9105
23395.91
23126.1099
23928.7485
23936.8341
23401.9146
23184.7686
23072.09
23069.1057
23921.3643
23928.4357
23398.8839
22973.3237
22975.2992
23917.4983
23920.9228
23408.142
22859.4297
22869.8996
23900.4011
23934.2641
23046.5626
22963.8881
23901.8274
23937.01
23915.5924
23940.4195
23931.3444
23272.5882
23028.9612
23928.3561
23931.7457
23245.1614
22939.1148
23928.5617
23924.9395
23349.8535
22721.5484
22759.821
23911.6805
23929.4541
23925.8726
23209.897
22925.308
23924.8129
23922.6933
23351.494
22754.1222
22784.2864
23912.4776
23928.8223
23929.0374
23241.7601
23012.4798
23930.0556
23922.7056
23404.3214
22922.245
22930.1743
23915.063
23937.0685
23354.5685
23074.4094
23928.6955
23924.3596
23396.4166
23017.9982
23023.0332
23921.3845
23936.5035
23383.8284
23097.8748
23933.71
23922.1616
23392.6847
22953.562
22965.1195
23912.6834
23944.4029
23167.23
23120.0099
23921.6925
23940.5015
23931.3035
23330.6978
22994.8208
23930.3969
23931.463
23256.9409
23040.9962
23930.2632
23926.4392
23341.61
23040.7539
22788.7734
22794.859
23914.2851
23920.4249
23918.6286
23224.9223
22956.8733
23918.4259
23926.823
23919.6086
23373.9264
22931.7514
23926.221
23918.8152
23298.7983
22988.0273
23931.2596
23909.1921
23405.6485
22864.3477
22882.1794
23897.6835
23935.873
23204.7611
23024.7942
23900.7734
23931.7051
23069.0688
23071.9785
23913.978
23925.7436
23915.9937
23296.6215
22893.1076
23921.8153
23907.9838
23368.9957
22639.5611
22704.4352
23897.1996
23914.4002
23910.229
23203.3385
22911.5695
23908.1191
23920.8572
23019.6155
23014.2719
23910.7982
23926.7428
23916.2054
23304.3989
22969.5552
23931.7795
)
;

boundaryField
{
    closed
    {
        type            calculated;
        value           nonuniform List<scalar> 0();
    }
    open
    {
        type            calculated;
        value           nonuniform List<scalar> 0();
    }
    sides
    {
        type            empty;
    }
    procBoundary3to2
    {
        type            processor;
        value           uniform 23930.5733;
    }
    procBoundary3to4
    {
        type            processor;
        value           uniform 23910.2458;
    }
}


// ************************************************************************* //
