/*--------------------------------*- C++ -*----------------------------------*\
| =========                 |                                                 |
| \\      /  F ield         | OpenFOAM: The Open Source CFD Toolbox           |
|  \\    /   O peration     | Version:  2306                                  |
|   \\  /    A nd           | Website:  www.openfoam.com                      |
|    \\/     M anipulation  |                                                 |
\*---------------------------------------------------------------------------*/
FoamFile
{
    version     2.0;
    format      ascii;
    arch        "LSB;label=32;scalar=64";
    class       volScalarField;
    location    "0.00174";
    object      alpha;
}
// * * * * * * * * * * * * * * * * * * * * * * * * * * * * * * * * * * * * * //

dimensions      [1 -1 -1 0 0 0 0];

internalField   nonuniform List<scalar> 
531
(
3.57410086e-05
3.50866458e-05
3.52417195e-05
3.45957305e-05
3.48379471e-05
3.68299315e-05
3.68241802e-05
3.68176444e-05
3.68170633e-05
3.67842942e-05
3.53307021e-05
3.5149902e-05
3.68386424e-05
3.6777673e-05
3.53674655e-05
3.45544569e-05
3.49693359e-05
3.68304077e-05
3.68244677e-05
3.68086784e-05
3.68088038e-05
3.67748448e-05
3.57404905e-05
3.53159495e-05
3.51399269e-05
3.52463598e-05
3.68306372e-05
3.67663586e-05
3.51431263e-05
3.52466019e-05
3.6832556e-05
3.67666177e-05
3.50725391e-05
3.52820326e-05
3.68315144e-05
3.68033111e-05
3.68098926e-05
3.52590603e-05
3.51887227e-05
3.68508197e-05
3.67973661e-05
3.68341914e-05
3.67887543e-05
3.57510542e-05
3.5260864e-05
3.52382732e-05
3.50276013e-05
3.44745116e-05
3.46672852e-05
3.68269946e-05
3.68240317e-05
3.68096188e-05
3.68213496e-05
3.67903524e-05
3.57233653e-05
3.50960699e-05
3.53149817e-05
3.68100622e-05
3.68251871e-05
3.55799962e-05
3.55407894e-05
3.68295601e-05
3.68108776e-05
3.57295445e-05
3.55020432e-05
3.52650151e-05
3.53368626e-05
3.68245915e-05
3.68139941e-05
3.68109431e-05
3.57351646e-05
3.50937145e-05
3.52559798e-05
3.46873287e-05
3.4781139e-05
3.6815828e-05
3.68181016e-05
3.68114151e-05
3.68186967e-05
3.54111957e-05
3.54301828e-05
3.68250817e-05
3.68037586e-05
3.68237803e-05
3.57351233e-05
3.49968221e-05
3.51021058e-05
3.68153843e-05
3.68235881e-05
3.5718529e-05
3.49997791e-05
3.51342499e-05
3.68049209e-05
3.68175333e-05
3.54045675e-05
3.53740486e-05
3.68106161e-05
3.67900483e-05
3.68125086e-05
3.61411392e-05
3.53797312e-05
3.50292713e-05
3.52718404e-05
3.68068963e-05
3.57166266e-05
3.50358526e-05
3.68080073e-05
3.68020465e-05
3.57287261e-05
3.49114185e-05
3.50066591e-05
3.67813175e-05
3.67542408e-05
3.67869169e-05
3.67898745e-05
3.51156206e-05
3.48957755e-05
3.6784152e-05
3.67692839e-05
3.57093878e-05
3.49237679e-05
3.50081034e-05
3.67792124e-05
3.68226148e-05
3.52301048e-05
3.51527771e-05
3.67933525e-05
3.68210193e-05
3.6810708e-05
3.68255446e-05
3.6818969e-05
3.5703846e-05
3.52376036e-05
3.51196588e-05
3.50411223e-05
3.68140189e-05
3.6793827e-05
3.57035995e-05
3.48921751e-05
3.52752802e-05
3.67835857e-05
3.5740231e-05
3.4981486e-05
3.6810301e-05
3.67846277e-05
3.57108191e-05
3.47243181e-05
3.48873272e-05
3.67668677e-05
3.68100172e-05
3.67668765e-05
3.67997549e-05
3.67662614e-05
3.60693255e-05
3.50019931e-05
3.50600568e-05
3.67910251e-05
3.67960643e-05
3.68012713e-05
3.55898686e-05
3.49880923e-05
3.49683075e-05
3.49839901e-05
3.6804217e-05
3.67931434e-05
3.54565301e-05
3.51719138e-05
3.68079753e-05
3.67981115e-05
3.57220512e-05
3.4848621e-05
3.49689922e-05
3.67958921e-05
3.68206547e-05
3.68008756e-05
3.68202682e-05
3.68075963e-05
3.58092209e-05
3.54795825e-05
3.52042669e-05
3.52029731e-05
3.68097691e-05
3.68178814e-05
3.55814016e-05
3.46789561e-05
3.473536e-05
3.68073619e-05
3.68270168e-05
3.68090045e-05
3.68297511e-05
3.57303757e-05
3.53485469e-05
3.68072517e-05
3.68120481e-05
3.5731543e-05
3.53502971e-05
3.50668055e-05
3.50668336e-05
3.6808415e-05
3.6810809e-05
3.68026747e-05
3.68131989e-05
3.5846569e-05
3.54866189e-05
3.53006223e-05
3.53009256e-05
3.67949474e-05
3.68202207e-05
3.57398027e-05
3.53326651e-05
3.51021094e-05
3.51048504e-05
3.67942349e-05
3.68229619e-05
3.53571319e-05
3.52069949e-05
3.68004457e-05
3.68243459e-05
3.53485736e-05
3.5291608e-05
3.68059659e-05
3.68205148e-05
3.68216466e-05
3.56539786e-05
3.5250366e-05
3.68169011e-05
3.68129312e-05
3.57137575e-05
3.510308e-05
3.51083016e-05
3.67941115e-05
3.68318554e-05
3.56919674e-05
3.54382155e-05
3.68062951e-05
3.68111345e-05
3.57418922e-05
3.55314166e-05
3.52794069e-05
3.53050482e-05
3.68189795e-05
3.57372961e-05
3.5060106e-05
3.67955966e-05
3.68161749e-05
3.54420037e-05
3.52222195e-05
3.68001235e-05
3.68144482e-05
3.5274896e-05
3.52480959e-05
3.68024615e-05
3.68103714e-05
3.68172632e-05
3.56495431e-05
3.51262625e-05
3.68046536e-05
3.68099285e-05
3.53370406e-05
3.5310118e-05
3.68045734e-05
3.68016931e-05
3.68094796e-05
3.57348229e-05
3.51344393e-05
3.48726269e-05
3.48787004e-05
3.6799062e-05
3.67969546e-05
3.68043712e-05
3.54564563e-05
3.49596736e-05
3.68099581e-05
3.67901096e-05
3.68160024e-05
3.67917765e-05
3.57828364e-05
3.5326922e-05
3.53577277e-05
3.51097902e-05
3.51567852e-05
3.47558647e-05
3.56070862e-05
3.68276856e-05
3.6869851e-05
3.68266355e-05
3.68606641e-05
3.68269141e-05
3.56638745e-05
3.53062709e-05
3.6846289e-05
3.68126033e-05
3.57164536e-05
3.50016128e-05
3.51158864e-05
3.6810754e-05
3.6806411e-05
3.67982364e-05
3.57623342e-05
3.53983083e-05
3.53061169e-05
3.51574827e-05
3.45477626e-05
3.45627995e-05
3.68214017e-05
3.68110516e-05
3.68034662e-05
3.68145934e-05
3.67899682e-05
3.57047022e-05
3.49613144e-05
3.50044597e-05
3.68097396e-05
3.68286237e-05
3.53563599e-05
3.53164926e-05
3.68402738e-05
3.68158146e-05
3.68214731e-05
3.56089575e-05
3.52297587e-05
3.68582108e-05
3.68173373e-05
3.57031311e-05
3.49903001e-05
3.50985321e-05
3.68413931e-05
3.68438954e-05
3.6834767e-05
3.56971029e-05
3.51027137e-05
3.51172512e-05
3.68800288e-05
3.68682319e-05
3.56708152e-05
3.50045269e-05
3.50308155e-05
3.69061903e-05
3.69063009e-05
3.54852603e-05
3.51468755e-05
3.69565546e-05
3.69386821e-05
3.55902364e-05
3.48912717e-05
3.49132922e-05
3.70184131e-05
3.70218166e-05
3.52822858e-05
3.48641058e-05
3.7103863e-05
3.71111313e-05
3.53071657e-05
3.44114549e-05
3.45347879e-05
3.70256578e-05
3.70561312e-05
3.70301515e-05
3.70263808e-05
3.70359628e-05
3.6989645e-05
3.48231743e-05
3.44816588e-05
3.67813366e-05
3.68096549e-05
3.66981499e-05
3.67158004e-05
3.66329008e-05
3.66396689e-05
3.65895965e-05
3.65938517e-05
3.65719424e-05
3.65766468e-05
3.65720413e-05
3.65802291e-05
3.65874741e-05
3.66081596e-05
3.66344484e-05
3.66889204e-05
3.67649053e-05
3.69318186e-05
3.71966947e-05
3.71210491e-05
3.69424776e-05
3.67174132e-05
3.65555237e-05
3.63602712e-05
3.62253442e-05
3.60631902e-05
3.59624153e-05
3.58244464e-05
3.56941902e-05
3.55397122e-05
3.55443072e-05
3.54498277e-05
3.53166388e-05
3.51825432e-05
3.50536904e-05
3.49687298e-05
3.48499103e-05
3.48167785e-05
3.44660648e-05
3.43111534e-05
3.389651e-05
3.38114487e-05
3.35430784e-05
3.49686519e-05
3.5658561e-05
3.55097425e-05
3.47684303e-05
3.44982094e-05
3.38407154e-05
3.34997609e-05
3.28713419e-05
3.24857177e-05
3.18505142e-05
3.14179532e-05
3.12840708e-05
3.19678649e-05
3.15882748e-05
3.11155502e-05
3.10720286e-05
3.25749471e-05
3.42746752e-05
3.4675369e-05
3.59910546e-05
3.54297504e-05
4.10903384e-05
4.12709511e-05
4.27919448e-05
4.36208235e-05
4.51737259e-05
4.68796249e-05
4.91457803e-05
5.17174753e-05
5.51803998e-05
5.68170339e-05
5.85297384e-05
6.03139104e-05
6.19782873e-05
6.33344089e-05
6.45933409e-05
6.55833827e-05
6.67343859e-05
6.76090073e-05
6.87445925e-05
6.96856388e-05
7.06469831e-05
7.13377673e-05
7.20446244e-05
7.25341205e-05
7.3174576e-05
7.36121486e-05
7.42023493e-05
7.45981468e-05
7.51554543e-05
7.55047958e-05
7.60183935e-05
7.63254016e-05
7.67831448e-05
7.70460284e-05
7.74611531e-05
7.76903254e-05
7.80867551e-05
7.82979302e-05
7.86800902e-05
7.88844918e-05
7.92902644e-05
7.95226294e-05
7.98246995e-05
7.99484631e-05
8.01697873e-05
8.02781372e-05
8.04710779e-05
8.05765649e-05
8.07591355e-05
8.08569096e-05
8.10246484e-05
8.11418002e-05
8.13415296e-05
8.14628601e-05
8.16644901e-05
8.17700664e-05
8.19298279e-05
8.20280163e-05
8.21679478e-05
8.2255915e-05
8.23830968e-05
8.24663919e-05
8.25850318e-05
8.26659575e-05
8.27781272e-05
8.28572299e-05
8.29555877e-05
8.30251405e-05
8.31177805e-05
8.31992965e-05
8.32987842e-05
8.33804108e-05
8.34776021e-05
8.35544364e-05
8.36421762e-05
8.37134507e-05
8.37935596e-05
8.3858941e-05
8.39262556e-05
8.39840774e-05
8.40479041e-05
8.41038244e-05
8.41645345e-05
8.4218737e-05
8.42770117e-05
8.43308833e-05
8.43878561e-05
8.44409353e-05
8.44962262e-05
8.45485895e-05
8.46023935e-05
8.46541201e-05
8.470663e-05
8.47598257e-05
8.48100599e-05
8.48579161e-05
8.49038733e-05
8.49500655e-05
8.49940153e-05
8.50386481e-05
8.5080763e-05
8.5123938e-05
8.51643767e-05
8.52061927e-05
)
;

boundaryField
{
    closed
    {
        type            calculated;
        value           nonuniform List<scalar> 0();
    }
    open
    {
        type            calculated;
        value           nonuniform List<scalar> 0();
    }
    sides
    {
        type            empty;
    }
    procBoundary4to3
    {
        type            processor;
        value           uniform 3.67937368e-05;
    }
    procBoundary4to5
    {
        type            processor;
        value           uniform 8.52451002e-05;
    }
}


// ************************************************************************* //
