/*--------------------------------*- C++ -*----------------------------------*\
| =========                 |                                                 |
| \\      /  F ield         | OpenFOAM: The Open Source CFD Toolbox           |
|  \\    /   O peration     | Version:  2306                                  |
|   \\  /    A nd           | Website:  www.openfoam.com                      |
|    \\/     M anipulation  |                                                 |
\*---------------------------------------------------------------------------*/
FoamFile
{
    version     2.0;
    format      ascii;
    arch        "LSB;label=32;scalar=64";
    class       volVectorField;
    location    "0.00174";
    object      U;
}
// * * * * * * * * * * * * * * * * * * * * * * * * * * * * * * * * * * * * * //

dimensions      [0 1 -1 0 0 0 0];

internalField   nonuniform List<vector> 
531
(
(-0.377168401 0 0)
(-0.383406833 0 0)
(-0.400024316 0 0)
(-0.40657853 0 0)
(-0.385372709 0 0)
(-0.386442833 0 0)
(-0.399096617 0 0)
(-0.402426706 0 0)
(-0.404912965 0 0)
(-0.406246198 0 0)
(-0.406468296 0 0)
(-0.392563814 0 0)
(-0.386355998 0 0)
(-0.386353077 0 0)
(-0.385140055 0 0)
(-0.380178662 0 0)
(-0.348146284 0 0)
(-0.329996517 0 0)
(-0.319476658 0 0)
(-0.303654781 0 0)
(-0.287456002 0 0)
(-0.265821173 0 0)
(-0.241274757 0 0)
(-0.224641008 0 0)
(-0.206631903 0 0)
(-0.180737767 0 0)
(-0.158590965 0 0)
(-0.133832102 0 0)
(-0.113651311 0 0)
(-0.100506489 0 0)
(-0.0842802458 0 0)
(-0.0576720168 0 0)
(-0.0412164816 0 0)
(-0.0327222293 0 0)
(-0.0166670853 0 0)
(-0.00657962158 0 0)
(0.0158358007 0 0)
(0.0288901739 0 0)
(0.0313462096 0 0)
(0.0414428924 0 0)
(0.0471980798 0 0)
(0.0545161177 0 0)
(0.0679849733 0 0)
(0.073342169 0 0)
(0.0732872499 0 0)
(0.0766306665 0 0)
(0.0803272215 0 0)
(0.0853143573 0 0)
(0.0908131259 0 0)
(0.0992983762 0 0)
(0.099108293 0 0)
(0.102427089 0 0)
(0.103499538 0 0)
(0.110204613 0 0)
(0.110944357 0 0)
(0.106677816 0 0)
(0.107912859 0 0)
(0.111356685 0 0)
(0.114364425 0 0)
(0.11644627 0 0)
(0.114596702 0 0)
(0.115739155 0 0)
(0.117471972 0 0)
(0.115743919 0 0)
(0.114166566 0 0)
(0.116150598 0 0)
(0.117673368 0 0)
(0.123341745 0 0)
(0.126236178 0 0)
(0.131327636 0 0)
(0.131473266 0 0)
(0.127754903 0 0)
(0.130335539 0 0)
(0.134029097 0 0)
(0.134421433 0 0)
(0.141825448 0 0)
(0.147528038 0 0)
(0.149453143 0 0)
(0.153882431 0 0)
(0.154254322 0 0)
(0.149949232 0 0)
(0.153095592 0 0)
(0.158338225 0 0)
(0.160402283 0 0)
(0.157963368 0 0)
(0.156958844 0 0)
(0.158583358 0 0)
(0.166625289 0 0)
(0.172024629 0 0)
(0.168740855 0 0)
(0.16789743 0 0)
(0.169272757 0 0)
(0.176902556 0 0)
(0.18353301 0 0)
(0.183375172 0 0)
(0.183841024 0 0)
(0.190210848 0 0)
(0.195871949 0 0)
(0.197207397 0 0)
(0.202134075 0 0)
(0.206581599 0 0)
(0.205236807 0 0)
(0.203803511 0 0)
(0.209763141 0 0)
(0.210530629 0 0)
(0.20603205 0 0)
(0.214511754 0 0)
(0.217066135 0 0)
(0.210029591 0 0)
(0.206776749 0 0)
(0.201074258 0 0)
(0.202526835 0 0)
(0.209787548 0 0)
(0.207687851 0 0)
(0.213100936 0 0)
(0.212903236 0 0)
(0.196687191 0 0)
(0.198506032 0 0)
(0.20026857 0 0)
(0.188917193 0 0)
(0.180172378 0 0)
(0.173537088 0 0)
(0.174107463 0 0)
(0.171648342 0 0)
(0.160556512 0 0)
(0.153440226 0 0)
(0.153841287 0 0)
(0.157092885 0 0)
(0.150088689 0 0)
(0.14336417 0 0)
(0.131796029 0 0)
(0.122462373 0 0)
(0.11652486 0 0)
(0.110895958 0 0)
(0.106764957 0 0)
(0.109505804 0 0)
(0.11220767 0 0)
(0.103342933 0 0)
(0.0995306886 0 0)
(0.099101004 0 0)
(0.0999229553 0 0)
(0.100187261 0 0)
(0.0939076783 0 0)
(0.0981080791 0 0)
(0.103730511 0 0)
(0.0966447418 0 0)
(0.0960036347 0 0)
(0.0969531695 0 0)
(0.10284003 0 0)
(0.111831143 0 0)
(0.111482428 0 0)
(0.111327581 0 0)
(0.109614446 0 0)
(0.108907669 0 0)
(0.109325821 0 0)
(0.10867356 0 0)
(0.114287987 0 0)
(0.124295195 0 0)
(0.122351545 0 0)
(0.12056966 0 0)
(0.120546307 0 0)
(0.121380512 0 0)
(0.121645892 0 0)
(0.131721697 0 0)
(0.140659235 0 0)
(0.132835414 0 0)
(0.128243773 0 0)
(0.138058617 0 0)
(0.14660841 0 0)
(0.142075433 0 0)
(0.141834058 0 0)
(0.143423889 0 0)
(0.152300318 0 0)
(0.163046957 0 0)
(0.16425323 0 0)
(0.165581071 0 0)
(0.163609131 0 0)
(0.161487534 0 0)
(0.160767527 0 0)
(0.160439652 0 0)
(0.159586423 0 0)
(0.170024264 0 0)
(0.177481808 0 0)
(0.16925642 0 0)
(0.166210269 0 0)
(0.166489221 0 0)
(0.175221869 0 0)
(0.187566809 0 0)
(0.188150363 0 0)
(0.185290795 0 0)
(0.183298731 0 0)
(0.182548311 0 0)
(0.191754635 0 0)
(0.198686065 0 0)
(0.19444759 0 0)
(0.193718588 0 0)
(0.193484198 0 0)
(0.193605539 0 0)
(0.202213512 0 0)
(0.213449469 0 0)
(0.213712019 0 0)
(0.210394821 0 0)
(0.207960052 0 0)
(0.207317003 0 0)
(0.206244388 0 0)
(0.2053916 0 0)
(0.214380554 0 0)
(0.220074166 0 0)
(0.215002602 0 0)
(0.213321726 0 0)
(0.211721811 0 0)
(0.209742542 0 0)
(0.219735801 0 0)
(0.224449147 0 0)
(0.215676205 0 0)
(0.213844373 0 0)
(0.222895148 0 0)
(0.225870168 0 0)
(0.217342902 0 0)
(0.216161313 0 0)
(0.224898229 0 0)
(0.234601631 0 0)
(0.228751973 0 0)
(0.221213092 0 0)
(0.218788204 0 0)
(0.227371414 0 0)
(0.231908182 0 0)
(0.224506548 0 0)
(0.221686184 0 0)
(0.222367416 0 0)
(0.231855916 0 0)
(0.236545877 0 0)
(0.230858884 0 0)
(0.230342714 0 0)
(0.238010014 0 0)
(0.241373118 0 0)
(0.23642384 0 0)
(0.235353327 0 0)
(0.234189999 0 0)
(0.237643946 0 0)
(0.240614315 0 0)
(0.237819444 0 0)
(0.234636677 0 0)
(0.244268392 0 0)
(0.247332986 0 0)
(0.239961959 0 0)
(0.240818571 0 0)
(0.249617747 0 0)
(0.249456658 0 0)
(0.241245599 0 0)
(0.243630777 0 0)
(0.252747149 0 0)
(0.260257256 0 0)
(0.255005469 0 0)
(0.247929121 0 0)
(0.247043028 0 0)
(0.256161768 0 0)
(0.255948413 0 0)
(0.248502075 0 0)
(0.252167967 0 0)
(0.260656533 0 0)
(0.266318275 0 0)
(0.259807577 0 0)
(0.250132041 0 0)
(0.246410077 0 0)
(0.244970236 0 0)
(0.244428135 0 0)
(0.253194648 0 0)
(0.259515744 0 0)
(0.25157807 0 0)
(0.242984393 0 0)
(0.24275136 0 0)
(0.249368394 0 0)
(0.252758554 0 0)
(0.250537865 0 0)
(0.243786829 0 0)
(0.23551055 0 0)
(0.232455495 0 0)
(0.231284153 0 0)
(0.229306242 0 0)
(0.230645397 0 0)
(0.234752136 0 0)
(0.229417584 0 0)
(0.221725208 0 0)
(0.219886792 0 0)
(0.216378057 0 0)
(0.213200586 0 0)
(0.206272622 0 0)
(0.197442837 0 0)
(0.195436182 0 0)
(0.200152135 0 0)
(0.195791926 0 0)
(0.184987382 0 0)
(0.180513736 0 0)
(0.181781586 0 0)
(0.187870348 0 0)
(0.189745611 0 0)
(0.186874798 0 0)
(0.181721309 0 0)
(0.180242347 0 0)
(0.180297892 0 0)
(0.179229737 0 0)
(0.179325463 0 0)
(0.181966826 0 0)
(0.193597288 0 0)
(0.200225499 0 0)
(0.203602218 0 0)
(0.207640705 0 0)
(0.210935426 0 0)
(0.207885641 0 0)
(0.206310841 0 0)
(0.208591231 0 0)
(0.219938742 0 0)
(0.221912118 0 0)
(0.216171231 0 0)
(0.219853922 0 0)
(0.227811083 0 0)
(0.227691701 0 0)
(0.229194736 0 0)
(0.224260021 0 0)
(0.22027058 0 0)
(0.227374844 0 0)
(0.223751351 0 0)
(0.212922756 0 0)
(0.204965655 0 0)
(0.203376866 0 0)
(0.209870031 0 0)
(0.207109641 0 0)
(0.201389987 0 0)
(0.189527242 0 0)
(0.178657469 0 0)
(0.168617024 0 0)
(0.165227276 0 0)
(0.155844678 0 0)
(0.138193587 0 0)
(0.124619779 0 0)
(0.115001741 0 0)
(0.111436397 0 0)
(0.103334574 0 0)
(0.0880752991 0 0)
(0.0775356654 0 0)
(0.0765825454 0 0)
(0.0750507764 0 0)
(0.0679115713 0 0)
(0.0653925443 0 0)
(0.0672382809 0 0)
(0.0752507208 0 0)
(0.0797412659 0 0)
(0.0744711254 0 0)
(0.0720066214 0 0)
(0.0805553584 0 0)
(0.0876440298 0 0)
(0.0778838641 0 0)
(0.0714106963 0 0)
(0.076545726 0 0)
(0.0862027084 0 0)
(0.0929102695 0 0)
(0.0923303438 0 0)
(0.0926450411 0 0)
(0.0931304636 0 0)
(0.0897426171 0 0)
(0.0816983153 0 0)
(0.075048831 0 0)
(0.0821468532 0 0)
(0.0905364629 0 0)
(0.0898237191 0 0)
(0.0900547253 0 0)
(0.0900602177 0 0)
(0.0893297278 0 0)
(0.087692712 0 0)
(0.0848444632 0 0)
(0.0808849649 0 0)
(0.0758857672 0 0)
(0.0702930625 0 0)
(0.0644824002 0 0)
(0.0590598766 0 0)
(0.0544902346 0 0)
(0.0513354214 0 0)
(0.0499696843 0 0)
(0.0506455392 0 0)
(0.054354258 0 0)
(0.0613438902 0 0)
(0.0652481268 0 0)
(0.0646658525 0 0)
(0.0649406255 0 0)
(0.0655308731 0 0)
(0.0660560369 0 0)
(0.0660977515 0 0)
(0.0659527734 0 0)
(0.0654284085 0 0)
(0.0639051047 0 0)
(0.0614170772 0 0)
(0.0596439801 0 0)
(0.0601441489 0 0)
(0.0595604256 0 0)
(0.0566249239 0 0)
(0.0546982282 0 0)
(0.0533351535 0 0)
(0.0527504711 0 0)
(0.0527553234 0 0)
(0.0533191484 0 0)
(0.051743217 0 0)
(0.0504797416 0 0)
(0.0459474173 0 0)
(0.0576267904 0 0)
(0.0330148285 0 0)
(0.0965461006 0 0)
(0.168111109 0 0)
(0.145640486 0 0)
(0.151654214 0 0)
(0.145549405 0 0)
(0.141905374 0 0)
(0.136581277 0 0)
(0.130962341 0 0)
(0.124469739 0 0)
(0.11877316 0 0)
(0.112546741 0 0)
(0.109885103 0 0)
(0.111445614 0 0)
(0.108428771 0 0)
(0.100623966 0 0)
(0.0914608463 0 0)
(0.107235858 0 0)
(0.0964698163 0 0)
(0.123089128 0 0)
(0.0961831979 0 0)
(0.0898778734 0 0)
(0.136709949 0 0)
(0.149634546 0 0)
(0.172375819 0 0)
(0.186676159 0 0)
(0.208367918 0 0)
(0.241012392 0 0)
(0.267789708 0 0)
(0.358007189 0 0)
(0.470036809 0 0)
(0.524351963 0 0)
(0.567914465 0 0)
(0.612753304 0 0)
(0.659695568 0 0)
(0.701575329 0 0)
(0.736771605 0 0)
(0.768053128 0 0)
(0.798036202 0 0)
(0.828068608 0 0)
(0.8588142 0 0)
(0.889646504 0 0)
(0.918013616 0 0)
(0.942247233 0 0)
(0.962849685 0 0)
(0.981457358 0 0)
(0.999194402 0 0)
(1.01627694 0 0)
(1.03265246 0 0)
(1.04838593 0 0)
(1.06337199 0 0)
(1.07751059 0 0)
(1.09083221 0 0)
(1.10350881 0 0)
(1.11549344 0 0)
(1.12688735 0 0)
(1.13769682 0 0)
(1.14812444 0 0)
(1.15830732 0 0)
(1.168254 0 0)
(1.17813134 0 0)
(1.18824474 0 0)
(1.19881992 0 0)
(1.20895144 0 0)
(1.21735798 0 0)
(1.2239674 0 0)
(1.22973856 0 0)
(1.23517332 0 0)
(1.2404324 0 0)
(1.24557842 0 0)
(1.2505378 0 0)
(1.2552756 0 0)
(1.26005745 0 0)
(1.26516984 0 0)
(1.27051725 0 0)
(1.275848 0 0)
(1.28088058 0 0)
(1.28531115 0 0)
(1.28924235 0 0)
(1.29283796 0 0)
(1.29610434 0 0)
(1.29906449 0 0)
(1.30178097 0 0)
(1.30427769 0 0)
(1.30659346 0 0)
(1.30876654 0 0)
(1.31082647 0 0)
(1.31272902 0 0)
(1.31442369 0 0)
(1.31600473 0 0)
(1.3177018 0 0)
(1.31964503 0 0)
(1.32177669 0 0)
(1.32405742 0 0)
(1.32647765 0 0)
(1.32902628 0 0)
(1.33172274 0 0)
(1.33460667 0 0)
(1.33767472 0 0)
(1.3408733 0 0)
(1.34417846 0 0)
(1.34765537 0 0)
(1.35131951 0 0)
(1.355134 0 0)
(1.35903776 0 0)
(1.36297005 0 0)
(1.36686477 0 0)
(1.37065194 0 0)
(1.37425168 0 0)
(1.37758273 0 0)
(1.38056801 0 0)
(1.38313497 0 0)
(1.38522163 0 0)
(1.38677925 0 0)
(1.38778249 0 0)
(1.38818293 0 0)
(1.38789575 0 0)
(1.38691311 0 0)
(1.38530802 0 0)
(1.38314171 0 0)
(1.38046398 0 0)
(1.37733413 0 0)
(1.37382165 0 0)
(1.37000592 0 0)
(1.36596924 0 0)
(1.36180235 0 0)
)
;

boundaryField
{
    closed
    {
        type            noSlip;
    }
    open
    {
        type            inletOutlet;
        inletValue      nonuniform List<vector> 0();
        value           nonuniform List<vector> 0();
    }
    sides
    {
        type            empty;
    }
    procBoundary4to3
    {
        type            processor;
        value           uniform (-0.371802424 0 0);
    }
    procBoundary4to5
    {
        type            processor;
        value           uniform (1.35758593 0 0);
    }
}


// ************************************************************************* //
