/*--------------------------------*- C++ -*----------------------------------*\
| =========                 |                                                 |
| \\      /  F ield         | OpenFOAM: The Open Source CFD Toolbox           |
|  \\    /   O peration     | Version:  2306                                  |
|   \\  /    A nd           | Website:  www.openfoam.com                      |
|    \\/     M anipulation  |                                                 |
\*---------------------------------------------------------------------------*/
FoamFile
{
    version     2.0;
    format      ascii;
    arch        "LSB;label=32;scalar=64";
    class       volScalarField;
    location    "0.00082";
    object      alpha;
}
// * * * * * * * * * * * * * * * * * * * * * * * * * * * * * * * * * * * * * //

dimensions      [1 -1 -1 0 0 0 0];

internalField   nonuniform List<scalar> 
531
(
3.54098029e-05
3.68354962e-05
3.68440735e-05
3.56331686e-05
3.52737089e-05
3.54208609e-05
3.68399118e-05
3.68536782e-05
3.55446095e-05
3.54584728e-05
3.68516374e-05
3.68513898e-05
3.56687429e-05
3.53724707e-05
3.55046977e-05
3.6848203e-05
3.68534682e-05
3.57246506e-05
3.54969772e-05
3.55254597e-05
3.54679454e-05
3.68485397e-05
3.68548564e-05
3.56832231e-05
3.54232138e-05
3.54717606e-05
3.68464603e-05
3.6850829e-05
3.56980201e-05
3.52738586e-05
3.55263843e-05
3.68451991e-05
3.68376128e-05
3.68537419e-05
3.56401524e-05
3.52638717e-05
3.53209286e-05
3.68321154e-05
3.68385263e-05
3.55710428e-05
3.51105524e-05
3.53813031e-05
3.68250861e-05
3.68314526e-05
3.6834777e-05
3.55253896e-05
3.51046656e-05
3.52448338e-05
3.68181992e-05
3.68414609e-05
3.5315768e-05
3.52253341e-05
3.68258578e-05
3.68329996e-05
3.5335464e-05
3.5216844e-05
3.68276549e-05
3.68297422e-05
3.54942565e-05
3.50725114e-05
3.53438807e-05
3.68222893e-05
3.68264107e-05
3.68343939e-05
3.55891669e-05
3.52720937e-05
3.5347552e-05
3.68115231e-05
3.68330436e-05
3.5690827e-05
3.53492432e-05
3.53875593e-05
3.68199905e-05
3.68286364e-05
3.56321118e-05
3.51321051e-05
3.53601047e-05
3.68260725e-05
3.68334527e-05
3.68378658e-05
3.54498426e-05
3.52228194e-05
3.6824141e-05
3.68272433e-05
3.55025824e-05
3.50738332e-05
3.53066813e-05
3.68204405e-05
3.68335228e-05
3.68319212e-05
3.55688047e-05
3.53273609e-05
3.53692058e-05
3.5337253e-05
3.68244174e-05
3.68160719e-05
3.5585412e-05
3.52236541e-05
3.53208134e-05
3.68029096e-05
3.68486762e-05
3.54473612e-05
3.53672666e-05
3.68069123e-05
3.68349237e-05
3.53296861e-05
3.53857267e-05
3.6833252e-05
3.68200486e-05
3.68359274e-05
3.55750359e-05
3.51095487e-05
3.51111937e-05
3.513264e-05
3.68288301e-05
3.68186725e-05
3.68386055e-05
3.53604609e-05
3.51631483e-05
3.68134563e-05
3.68269356e-05
3.68202736e-05
3.68263493e-05
3.56784837e-05
3.52733752e-05
3.545346e-05
3.52380531e-05
3.52367178e-05
3.68064532e-05
3.68214285e-05
3.56251437e-05
3.50560009e-05
3.53427894e-05
3.68146309e-05
3.68150799e-05
3.68219292e-05
3.54075921e-05
3.5332353e-05
3.68140366e-05
3.68081199e-05
3.68231529e-05
3.55518046e-05
3.50713231e-05
3.50688256e-05
3.51362599e-05
3.68175799e-05
3.68061322e-05
3.68237658e-05
3.55419191e-05
3.48942809e-05
3.51688838e-05
3.67973325e-05
3.68141305e-05
3.68044929e-05
3.68207199e-05
3.55034467e-05
3.50887523e-05
3.50966071e-05
3.5109158e-05
3.68174929e-05
3.68172782e-05
3.68261795e-05
3.68273346e-05
3.57245133e-05
3.52349806e-05
3.54308062e-05
3.5109659e-05
3.51892719e-05
3.6815404e-05
3.68241438e-05
3.68172615e-05
3.68233964e-05
3.57202449e-05
3.52931786e-05
3.5488024e-05
3.51959871e-05
3.52569492e-05
3.68086285e-05
3.68158024e-05
3.680988e-05
3.68161868e-05
3.57254111e-05
3.52225112e-05
3.54326128e-05
3.50258183e-05
3.51536737e-05
3.68105543e-05
3.68122655e-05
3.68192724e-05
3.52842423e-05
3.51529937e-05
3.68155618e-05
3.681671e-05
3.68212394e-05
3.53592577e-05
3.50231469e-05
3.68142374e-05
3.68259276e-05
3.53341259e-05
3.51687454e-05
3.68206796e-05
3.68203593e-05
3.55470942e-05
3.51614905e-05
3.52541886e-05
3.68138485e-05
3.68399386e-05
3.55683152e-05
3.53999155e-05
3.68230322e-05
3.68308184e-05
3.57091412e-05
3.53474117e-05
3.53640777e-05
3.68280696e-05
3.68368512e-05
3.56977189e-05
3.51439651e-05
3.53977543e-05
3.68307294e-05
3.68278962e-05
3.68342566e-05
3.56511905e-05
3.52624407e-05
3.52452333e-05
3.52554871e-05
3.68279288e-05
3.68165487e-05
3.68314065e-05
3.56598858e-05
3.51717059e-05
3.52764332e-05
3.6806698e-05
3.6824011e-05
3.55509476e-05
3.53181133e-05
3.68092551e-05
3.68136635e-05
3.5547339e-05
3.50594541e-05
3.5124979e-05
3.68057486e-05
3.68197689e-05
3.68094017e-05
3.68251917e-05
3.55146125e-05
3.50331424e-05
3.50102163e-05
3.50113505e-05
3.68095483e-05
3.6817861e-05
3.68079444e-05
3.68192285e-05
3.55445913e-05
3.51185477e-05
3.51477675e-05
3.68139692e-05
3.68171102e-05
3.55493529e-05
3.50929274e-05
3.51608228e-05
3.68084537e-05
3.68352478e-05
3.54209987e-05
3.52734924e-05
3.68174853e-05
3.68370587e-05
3.54203011e-05
3.53345781e-05
3.6826839e-05
3.68364039e-05
3.54956915e-05
3.53873852e-05
3.68358234e-05
3.68335088e-05
3.56497904e-05
3.53606439e-05
3.5360916e-05
3.68317174e-05
3.68395711e-05
3.56979869e-05
3.53156357e-05
3.53680403e-05
3.68341325e-05
3.6850651e-05
3.56006364e-05
3.54096187e-05
3.68404e-05
3.68420475e-05
3.56661641e-05
3.5365244e-05
3.53650833e-05
3.68333128e-05
3.68274432e-05
3.57156271e-05
3.53383283e-05
3.54637918e-05
3.68221249e-05
3.68239364e-05
3.6813819e-05
3.59447939e-05
3.53463823e-05
3.53460768e-05
3.51495888e-05
3.51529109e-05
3.68235436e-05
3.68313789e-05
3.5270921e-05
3.52518845e-05
3.68330125e-05
3.68255027e-05
3.68288298e-05
3.54900441e-05
3.51475814e-05
3.68399736e-05
3.68197588e-05
3.54937584e-05
3.51155869e-05
3.51977635e-05
3.68197715e-05
3.6833033e-05
3.55034521e-05
3.53359209e-05
3.68354536e-05
3.68231298e-05
3.56075373e-05
3.5236417e-05
3.53169386e-05
3.68265624e-05
3.68350401e-05
3.55297555e-05
3.53759771e-05
3.68453044e-05
3.68283951e-05
3.56124197e-05
3.52395449e-05
3.53316408e-05
3.68332793e-05
3.68405751e-05
3.55267365e-05
3.53869597e-05
3.6852679e-05
3.68319897e-05
3.56140832e-05
3.52529347e-05
3.53539995e-05
3.68362186e-05
3.68448866e-05
3.55490702e-05
3.54321755e-05
3.68534606e-05
3.68347684e-05
3.56655875e-05
3.53650145e-05
3.54100285e-05
3.68382642e-05
3.68389928e-05
3.57079602e-05
3.53409113e-05
3.54120746e-05
3.68461289e-05
3.68286575e-05
3.56107284e-05
3.52063233e-05
3.53289074e-05
3.68301255e-05
3.68430785e-05
3.54045832e-05
3.53760096e-05
3.68478095e-05
3.68250875e-05
3.53395053e-05
3.54225521e-05
3.68548509e-05
3.54389612e-05
3.52543271e-05
3.68517574e-05
3.68263057e-05
3.68379251e-05
3.53753552e-05
3.51768811e-05
3.68541054e-05
3.68137041e-05
3.54742291e-05
3.50876472e-05
3.53155303e-05
3.68288689e-05
3.68241368e-05
3.54061825e-05
3.55329919e-05
3.68434955e-05
3.56391364e-05
3.52852461e-05
3.68434999e-05
3.68177556e-05
3.54199917e-05
3.53300239e-05
3.68483665e-05
3.68079846e-05
3.54607346e-05
3.49414513e-05
3.53245028e-05
3.68298096e-05
3.68205141e-05
3.68216398e-05
3.52944626e-05
3.53511348e-05
3.68506148e-05
3.68158861e-05
3.68374352e-05
3.55139117e-05
3.49602074e-05
3.53065146e-05
3.68273792e-05
3.68282632e-05
3.55492613e-05
3.52348464e-05
3.5465038e-05
3.68375269e-05
3.68221814e-05
3.57057252e-05
3.53457521e-05
3.55454905e-05
3.68411514e-05
3.68313246e-05
3.56971619e-05
3.53565716e-05
3.55301147e-05
3.68463411e-05
3.68369738e-05
3.56962034e-05
3.53453917e-05
3.55074137e-05
3.68529041e-05
3.68366927e-05
3.56535576e-05
3.52565209e-05
3.54601269e-05
3.6844917e-05
3.68460023e-05
3.5463791e-05
3.54677462e-05
3.68623741e-05
3.68328365e-05
3.55522564e-05
3.52322851e-05
3.5434446e-05
3.68418936e-05
3.68423344e-05
3.54604816e-05
3.54705509e-05
3.68611007e-05
3.68311782e-05
3.55490232e-05
3.52391636e-05
3.54421687e-05
3.68392311e-05
3.68429866e-05
3.54884537e-05
3.54960428e-05
3.68567372e-05
3.68371491e-05
3.56053157e-05
3.53165033e-05
3.54920831e-05
3.68503292e-05
3.68346076e-05
3.56514979e-05
3.52728985e-05
3.54828674e-05
3.68377057e-05
3.68411614e-05
3.55333152e-05
3.55533047e-05
3.68490389e-05
3.6831045e-05
3.5548257e-05
3.54318984e-05
3.52878943e-05
3.54732647e-05
3.68500842e-05
3.68263665e-05
3.6843852e-05
3.55054559e-05
3.53102328e-05
3.68540022e-05
3.68201944e-05
3.54498065e-05
3.50966568e-05
3.53414309e-05
3.68278574e-05
3.68344123e-05
3.53698959e-05
3.53786376e-05
3.68477e-05
3.68229339e-05
3.54426393e-05
3.51292212e-05
3.53436814e-05
3.68276339e-05
3.68378348e-05
3.539989e-05
3.54155878e-05
3.6847198e-05
3.68302883e-05
3.54413589e-05
3.54901331e-05
3.68544692e-05
3.68272945e-05
3.55876369e-05
3.53499314e-05
3.55063254e-05
3.68382951e-05
3.68423432e-05
3.56976781e-05
3.53383113e-05
3.55028973e-05
3.68495595e-05
3.68378359e-05
3.56086527e-05
3.52716286e-05
3.54527718e-05
3.68396202e-05
3.6853973e-05
3.54737657e-05
3.54595567e-05
3.68542612e-05
3.68454835e-05
3.55830105e-05
3.53312539e-05
3.54529973e-05
)
;

boundaryField
{
    closed
    {
        type            calculated;
        value           nonuniform List<scalar> 0();
    }
    open
    {
        type            calculated;
        value           nonuniform List<scalar> 0();
    }
    sides
    {
        type            empty;
    }
    procBoundary3to2
    {
        type            processor;
        value           uniform 3.53031377e-05;
    }
    procBoundary3to4
    {
        type            processor;
        value           uniform 3.68533311e-05;
    }
}


// ************************************************************************* //
