/*--------------------------------*- C++ -*----------------------------------*\
| =========                 |                                                 |
| \\      /  F ield         | OpenFOAM: The Open Source CFD Toolbox           |
|  \\    /   O peration     | Version:  2306                                  |
|   \\  /    A nd           | Website:  www.openfoam.com                      |
|    \\/     M anipulation  |                                                 |
\*---------------------------------------------------------------------------*/
FoamFile
{
    version     2.0;
    format      ascii;
    arch        "LSB;label=32;scalar=64";
    class       volScalarField;
    location    "0.00082";
    object      sourcePV;
}
// * * * * * * * * * * * * * * * * * * * * * * * * * * * * * * * * * * * * * //

dimensions      [1 -3 -1 0 0 0 0];

internalField   nonuniform List<scalar> 
531
(
0.147395332
0.00625425056
0.00610474867
0.132479769
0.156248167
0.146123103
0.00614651314
0.0063147027
0.138103601
0.144068593
0.0064765773
0.00632177648
0.127100072
0.149703153
0.140368118
0.00641369285
0.00647184561
0.105384376
0.141381857
0.1392201
0.143174532
0.00639270604
0.00640494684
0.123807297
0.146316271
0.142904721
0.00643886649
0.00632966948
0.116086285
0.156094011
0.139341952
0.00584578559
0.00653224232
0.00607728913
0.132285511
0.156743257
0.15299754
0.00606841924
0.00596017782
0.136738718
0.166656367
0.14909468
0.00549562274
0.00629551426
0.00582582853
0.139825931
0.167093278
0.157736037
0.00560867155
0.00599509135
0.153569656
0.15912911
0.00557833544
0.0059238853
0.151983144
0.159862509
0.00572408462
0.00584627191
0.141713073
0.169067264
0.151577003
0.00546400559
0.00628147192
0.00598890942
0.135956703
0.156793224
0.151519332
0.00593966614
0.0060576743
0.129614871
0.151844404
0.149171342
0.00599053964
0.00593583765
0.132981069
0.165394416
0.150584924
0.00548661007
0.00620517574
0.00598766264
0.144765153
0.159498233
0.00564848391
0.00581825957
0.141073584
0.168996452
0.153809642
0.00544376448
0.00627922677
0.0061006354
0.136964569
0.153299831
0.150108624
0.152637406
0.00561732805
0.00589633646
0.135568154
0.160096534
0.152695689
0.00553467094
0.00619611268
0.145848941
0.149979653
0.00524908779
0.0061723772
0.152851594
0.149400775
0.00541837454
0.00623215587
0.00561101493
0.136737525
0.166731366
0.1663232
0.16535757
0.00513854955
0.00583551462
0.00561832698
0.150813926
0.163194922
0.00517127273
0.00584083797
0.00602999265
0.00598533018
0.130017539
0.156880914
0.144928989
0.159142742
0.158798241
0.00565612867
0.00571771044
0.133999641
0.1702575
0.152240203
0.00514212234
0.00604071655
0.00566421277
0.148006336
0.153051955
0.00486767023
0.00606601281
0.00539647027
0.138826129
0.16915952
0.169315348
0.165288797
0.00496112291
0.00594701988
0.00539696444
0.139531317
0.180010363
0.163179402
0.00502717853
0.00565182464
0.00568241693
0.00560925641
0.141786887
0.168221205
0.167411196
0.166926623
0.00513361333
0.00577069381
0.00611328354
0.00612455176
0.112464126
0.159125226
0.146193119
0.166864791
0.161637611
0.00541160211
0.00589259695
0.00611130554
0.00598594691
0.120528423
0.155672131
0.142901706
0.161731795
0.157651803
0.00547356806
0.00588280022
0.00611277876
0.00589736664
0.12169418
0.160203199
0.146564067
0.172161435
0.164084132
0.00498862411
0.00579066744
0.0054645702
0.155903564
0.164074444
0.00463593263
0.00584329346
0.00523819171
0.151018161
0.171914995
0.0049910324
0.00568868157
0.152742981
0.163015233
0.00522004133
0.00572695909
0.138573089
0.163793758
0.157228994
0.00554321152
0.00611069983
0.137828338
0.148171406
0.00562096798
0.00610275385
0.121904452
0.151937564
0.150325523
0.00589601333
0.00595598912
0.128038004
0.164636952
0.148240496
0.00532556985
0.00636345095
0.00589067167
0.13177551
0.15728913
0.158109053
0.157708114
0.0052341679
0.0061834657
0.00577823266
0.131514286
0.163188012
0.156169267
0.00552133396
0.00596673051
0.139459166
0.153869957
0.00537170068
0.00574148595
0.13921353
0.17011944
0.165735144
0.00520021957
0.00563928243
0.00574966708
0.0055956702
0.141155296
0.171478212
0.172850154
0.172710443
0.0046766777
0.00555738206
0.00555939455
0.00561086984
0.139210875
0.166448446
0.164322334
0.00554909169
0.00566514868
0.138748718
0.168057652
0.16323419
0.00538591258
0.00593342184
0.147577485
0.156120958
0.00523870195
0.00605203645
0.147399884
0.152248774
0.00537862095
0.00613296781
0.142313526
0.148949964
0.00565289793
0.00611574487
0.131670113
0.151044041
0.150320115
0.00587789432
0.00610654139
0.122971595
0.153738639
0.149642637
0.00588385238
0.00627457138
0.135238738
0.147161178
0.00583724471
0.00619015596
0.130600308
0.150566891
0.150221118
0.00600828134
0.00608424504
0.116322884
0.152687593
0.144005208
0.005699907
0.00626476114
0.00605602134
0.0678674969
0.151906362
0.15172901
0.164305005
0.163719808
0.00535576561
0.00589756379
0.156731914
0.157613133
0.0051306662
0.0060980471
0.00555573839
0.142436873
0.16435505
0.00573491378
0.00569219871
0.14196627
0.166548926
0.160788472
0.00567268628
0.00598543992
0.142026884
0.152500458
0.00589291581
0.0059185755
0.134723511
0.159059174
0.153277785
0.00585062981
0.00611325214
0.140063468
0.149854854
0.00605912063
0.00597725993
0.134103154
0.158720845
0.152139661
0.00592900429
0.00616439922
0.140040354
0.149023078
0.00619011104
0.0060161111
0.133791004
0.157809553
0.150552627
0.00601450816
0.00623467599
0.13855734
0.146000784
0.00632695196
0.00614130193
0.13053744
0.150666214
0.147158062
0.00630393182
0.00613827794
0.123305169
0.151974906
0.147329634
0.00627033456
0.00599744241
0.134125136
0.160825064
0.152160532
0.00590641946
0.00614002738
0.148145676
0.149601437
0.00600111455
0.00606581808
0.151831745
0.147067756
0.00594891442
0.145956326
0.157298308
0.00583929251
0.00603208564
0.00564331275
0.149637515
0.16256535
0.00621997076
0.00555018706
0.143078531
0.16827923
0.153307879
0.00593546238
0.00595048288
0.148070034
0.139975376
0.00589775518
0.133148393
0.15560662
0.00632748214
0.00577218598
0.146708551
0.153254324
0.00624043278
0.00545826183
0.1441972
0.177128091
0.15285891
0.00540026675
0.00597589495
0.00529687371
0.155042511
0.151560019
0.00558965693
0.00616863724
0.00522642259
0.141214195
0.175848723
0.153984669
0.00591423966
0.00567828328
0.13904199
0.158955354
0.144116622
0.00627679359
0.00586711448
0.123555751
0.152015872
0.138508842
0.00635553798
0.00599463226
0.126220188
0.151111889
0.139316715
0.0064072401
0.00603024927
0.123769272
0.151611302
0.140775065
0.00640754203
0.00592261162
0.130970432
0.157393626
0.143410252
0.00616109252
0.00609922146
0.143676404
0.143622485
0.00644666563
0.00584641771
0.13760147
0.158970249
0.1451479
0.00612549306
0.00598922763
0.143956724
0.143513961
0.00642975373
0.00582061009
0.13782752
0.158598145
0.144632274
0.0061381817
0.00594481344
0.142247523
0.141746565
0.00645174619
0.00592692035
0.134446503
0.153524226
0.141812566
0.00636988162
0.00586038766
0.131204831
0.156504703
0.142032488
0.00618118704
0.0059669817
0.139494013
0.1381776
0.00638979909
0.00605538446
0.138587953
0.146403939
0.155247046
0.143344005
0.00576999023
0.00628104422
0.00557929471
0.141357041
0.154144301
0.00635267019
0.00551496738
0.144518895
0.167647317
0.151446934
0.0058854288
0.00574606892
0.150189526
0.14974851
0.00618858723
0.00562131068
0.145187163
0.165633473
0.15140031
0.00591681294
0.00571472507
0.148309899
0.147254116
0.00617067757
0.00581128368
0.145211254
0.142684401
0.00639057077
0.00591940941
0.135608708
0.151762568
0.140848549
0.00634657807
0.00602939577
0.128514613
0.15212386
0.141251731
0.00636193496
0.00596659499
0.133983228
0.156533718
0.143911467
0.00615477033
0.00620917512
0.143177703
0.143969701
0.00642386043
0.00607376837
0.135838283
0.152422917
0.144349725
)
;

boundaryField
{
    closed
    {
        type            calculated;
        value           nonuniform List<scalar> 0();
    }
    open
    {
        type            calculated;
        value           nonuniform List<scalar> 0();
    }
    sides
    {
        type            empty;
    }
    procBoundary3to2
    {
        type            processor;
        value           uniform 0;
    }
    procBoundary3to4
    {
        type            processor;
        value           uniform 0;
    }
}


// ************************************************************************* //
