/*--------------------------------*- C++ -*----------------------------------*\
| =========                 |                                                 |
| \\      /  F ield         | OpenFOAM: The Open Source CFD Toolbox           |
|  \\    /   O peration     | Version:  2306                                  |
|   \\  /    A nd           | Website:  www.openfoam.com                      |
|    \\/     M anipulation  |                                                 |
\*---------------------------------------------------------------------------*/
FoamFile
{
    version     2.0;
    format      ascii;
    arch        "LSB;label=32;scalar=64";
    class       volScalarField;
    location    "0.00018";
    object      alpha;
}
// * * * * * * * * * * * * * * * * * * * * * * * * * * * * * * * * * * * * * //

dimensions      [1 -1 -1 0 0 0 0];

internalField   nonuniform List<scalar> 
531
(
3.58690545e-05
3.58178289e-05
3.58128902e-05
3.58398775e-05
3.58472219e-05
3.58328533e-05
3.58270649e-05
3.58333403e-05
3.58372636e-05
3.58346117e-05
3.58324053e-05
3.58333888e-05
3.58344917e-05
3.58341573e-05
3.58336632e-05
3.58337615e-05
3.5833964e-05
3.58339375e-05
3.58338636e-05
3.58338701e-05
3.58338928e-05
3.58338912e-05
3.58338857e-05
3.58338865e-05
3.5833888e-05
3.58338864e-05
3.58338858e-05
3.58338877e-05
3.58338881e-05
3.58338865e-05
3.58338861e-05
3.58338873e-05
3.58338877e-05
3.58338868e-05
3.58338864e-05
3.58338872e-05
3.58338875e-05
3.58338868e-05
3.58338866e-05
3.58338872e-05
3.58338873e-05
3.58338868e-05
3.58338868e-05
3.58338873e-05
3.58338872e-05
3.58338865e-05
3.58338867e-05
3.58338878e-05
3.58338876e-05
3.58338861e-05
3.58338861e-05
3.58338877e-05
3.5833888e-05
3.58338867e-05
3.58338859e-05
3.58338868e-05
3.5833888e-05
3.58338877e-05
3.58338862e-05
3.58338862e-05
3.58338875e-05
3.58338879e-05
3.58338868e-05
3.5833886e-05
3.58338868e-05
3.5833888e-05
3.58338875e-05
3.58338862e-05
3.58338864e-05
3.58338875e-05
3.58338875e-05
3.58338869e-05
3.58338869e-05
3.58338869e-05
3.58338866e-05
3.58338868e-05
3.58338879e-05
3.58338878e-05
3.58338857e-05
3.58338857e-05
3.58338881e-05
3.58338885e-05
3.58338862e-05
3.58338855e-05
3.58338874e-05
3.58338883e-05
3.58338869e-05
3.58338859e-05
3.5833887e-05
3.58338878e-05
3.58338871e-05
3.58338864e-05
3.58338869e-05
3.58338874e-05
3.5833887e-05
3.58338867e-05
3.58338871e-05
3.58338873e-05
3.58338868e-05
3.58338866e-05
3.58338872e-05
3.58338876e-05
3.58338869e-05
3.58338863e-05
3.58338868e-05
3.58338876e-05
3.58338875e-05
3.58338866e-05
3.58338865e-05
3.58338868e-05
3.58338873e-05
3.58338875e-05
3.58338874e-05
3.58338863e-05
3.5833886e-05
3.58338875e-05
3.58338887e-05
3.58338872e-05
3.58338847e-05
3.58338855e-05
3.58338896e-05
3.58338895e-05
3.58338849e-05
3.5833884e-05
3.5833888e-05
3.583389e-05
3.58338872e-05
3.58338842e-05
3.58338857e-05
3.58338892e-05
3.58338889e-05
3.58338855e-05
3.58338851e-05
3.58338873e-05
3.58338887e-05
3.5833888e-05
3.58338854e-05
3.58338854e-05
3.58338875e-05
3.58338889e-05
3.58338879e-05
3.5833885e-05
3.58338851e-05
3.58338882e-05
3.58338894e-05
3.58338871e-05
3.58338845e-05
3.58338853e-05
3.58338894e-05
3.58338894e-05
3.58338857e-05
3.58338843e-05
3.5833887e-05
3.58338897e-05
3.58338886e-05
3.58338845e-05
3.58338846e-05
3.58338884e-05
3.58338897e-05
3.58338872e-05
3.58338843e-05
3.58338851e-05
3.58338892e-05
3.58338895e-05
3.58338865e-05
3.58338844e-05
3.58338855e-05
3.58338893e-05
3.58338894e-05
3.58338862e-05
3.58338844e-05
3.58338861e-05
3.58338894e-05
3.58338891e-05
3.58338852e-05
3.58338845e-05
3.58338876e-05
3.58338896e-05
3.58338876e-05
3.58338844e-05
3.58338851e-05
3.58338896e-05
3.58338895e-05
3.58338851e-05
3.5833884e-05
3.58338877e-05
3.58338903e-05
3.58338878e-05
3.58338837e-05
3.58338846e-05
3.58338898e-05
3.583389e-05
3.58338859e-05
3.58338841e-05
3.58338862e-05
3.58338894e-05
3.5833889e-05
3.58338857e-05
3.58338849e-05
3.58338867e-05
3.58338888e-05
3.58338883e-05
3.58338858e-05
3.58338855e-05
3.58338871e-05
3.58338883e-05
3.58338879e-05
3.58338862e-05
3.58338858e-05
3.58338868e-05
3.58338882e-05
3.58338881e-05
3.58338861e-05
3.58338856e-05
3.58338871e-05
3.58338885e-05
3.58338876e-05
3.58338857e-05
3.5833886e-05
3.58338878e-05
3.58338879e-05
3.58338867e-05
3.58338864e-05
3.5833887e-05
3.58338873e-05
3.58338871e-05
3.58338869e-05
3.5833887e-05
3.5833887e-05
3.5833887e-05
3.58338871e-05
3.58338871e-05
3.58338868e-05
3.58338868e-05
3.58338873e-05
3.58338874e-05
3.58338867e-05
3.58338863e-05
3.5833887e-05
3.5833888e-05
3.58338876e-05
3.58338858e-05
3.58338858e-05
3.58338878e-05
3.58338885e-05
3.5833887e-05
3.58338854e-05
3.58338862e-05
3.58338885e-05
3.58338883e-05
3.58338859e-05
3.58338855e-05
3.58338874e-05
3.58338885e-05
3.58338873e-05
3.58338856e-05
3.58338859e-05
3.58338882e-05
3.58338883e-05
3.58338865e-05
3.58338857e-05
3.58338867e-05
3.58338882e-05
3.58338879e-05
3.58338862e-05
3.58338861e-05
3.58338873e-05
3.58338877e-05
3.5833887e-05
3.58338865e-05
3.5833887e-05
3.58338873e-05
3.58338868e-05
3.58338866e-05
3.58338874e-05
3.58338878e-05
3.58338867e-05
3.58338859e-05
3.5833887e-05
3.58338883e-05
3.58338874e-05
3.58338857e-05
3.58338864e-05
3.58338882e-05
3.58338878e-05
3.58338856e-05
3.58338858e-05
3.58338887e-05
3.58338888e-05
3.58338855e-05
3.58338845e-05
3.58338878e-05
3.583389e-05
3.58338874e-05
3.5833884e-05
3.58338852e-05
3.58338895e-05
3.58338893e-05
3.58338856e-05
3.58338849e-05
3.58338873e-05
3.58338884e-05
3.58338873e-05
3.58338863e-05
3.58338867e-05
3.58338873e-05
3.5833887e-05
3.58338867e-05
3.58338871e-05
3.58338877e-05
3.58338871e-05
3.58338859e-05
3.58338864e-05
3.58338883e-05
3.58338882e-05
3.58338859e-05
3.58338855e-05
3.58338874e-05
3.58338886e-05
3.58338873e-05
3.58338856e-05
3.5833886e-05
3.5833888e-05
3.58338881e-05
3.58338868e-05
3.5833886e-05
3.58338864e-05
3.58338877e-05
3.58338878e-05
3.5833887e-05
3.58338862e-05
3.58338864e-05
3.58338877e-05
3.58338877e-05
3.58338867e-05
3.58338863e-05
3.5833887e-05
3.58338875e-05
3.58338872e-05
3.58338866e-05
3.58338868e-05
3.58338873e-05
3.58338873e-05
3.58338867e-05
3.58338867e-05
3.58338872e-05
3.58338872e-05
3.58338869e-05
3.58338868e-05
3.58338871e-05
3.58338871e-05
3.58338869e-05
3.58338869e-05
3.58338871e-05
3.58338871e-05
3.58338869e-05
3.58338869e-05
3.5833887e-05
3.5833887e-05
3.5833887e-05
3.58338869e-05
3.5833887e-05
3.58338869e-05
3.58338868e-05
3.58338868e-05
3.58338868e-05
3.58338866e-05
3.58338864e-05
3.58338861e-05
3.5833886e-05
3.58338853e-05
3.58338844e-05
3.58338834e-05
3.5833883e-05
3.58338812e-05
3.5833878e-05
3.5833874e-05
3.58338711e-05
3.58338665e-05
3.58338581e-05
3.58338463e-05
3.58338333e-05
3.58338188e-05
3.58337993e-05
3.58337672e-05
3.58337347e-05
3.5833705e-05
3.58336364e-05
3.58335239e-05
3.58336192e-05
3.58339608e-05
3.58332813e-05
3.58309247e-05
3.58328061e-05
3.58423116e-05
3.58389742e-05
3.5807364e-05
3.5803809e-05
3.59081436e-05
3.59171845e-05
3.57137102e-05
3.56794731e-05
3.601526e-05
3.68889701e-05
3.57734633e-05
3.52521567e-05
3.54315156e-05
3.59995782e-05
3.69682137e-05
3.68703019e-05
3.46558043e-05
3.48005354e-05
3.70332721e-05
3.70500294e-05
3.69793601e-05
3.64481242e-05
3.49673335e-05
3.68305594e-05
3.69688783e-05
3.68834554e-05
3.6931877e-05
3.6902151e-05
3.69244358e-05
3.69245036e-05
3.69656571e-05
3.70165465e-05
3.7135017e-05
3.73799856e-05
3.70667895e-05
3.65536797e-05
3.63632423e-05
3.45896723e-05
3.37192915e-05
3.4999194e-05
3.59905893e-05
3.63578638e-05
3.78768542e-05
3.93872285e-05
4.00499465e-05
3.93112492e-05
3.96626039e-05
3.88394678e-05
3.95555334e-05
3.93009233e-05
4.09744656e-05
4.13160164e-05
4.53424695e-05
4.61745018e-05
4.72058939e-05
4.82026927e-05
4.8986958e-05
5.02767308e-05
5.1854465e-05
5.32290182e-05
5.45961469e-05
5.55466407e-05
5.70405213e-05
5.78496064e-05
5.93568722e-05
5.98916402e-05
6.14230792e-05
6.18151897e-05
6.36373869e-05
6.38366148e-05
6.50261319e-05
6.52903357e-05
6.73830727e-05
6.65629967e-05
6.59010307e-05
6.55951793e-05
7.05195621e-05
6.82492923e-05
6.67218736e-05
6.62738851e-05
7.23716285e-05
6.89372565e-05
6.81244667e-05
6.70632321e-05
7.24268416e-05
6.8323434e-05
6.95554577e-05
6.8405932e-05
7.31651528e-05
6.84730738e-05
7.05175506e-05
6.93787583e-05
7.34364617e-05
6.96762859e-05
7.11117493e-05
7.02878465e-05
7.30102027e-05
7.07519999e-05
7.16200533e-05
7.12077553e-05
7.27966615e-05
7.14727056e-05
7.23825395e-05
7.13533172e-05
7.30421791e-05
7.17918685e-05
7.29483612e-05
7.20759636e-05
7.35234816e-05
7.26276437e-05
7.3398339e-05
7.29413659e-05
7.38798551e-05
7.33761123e-05
7.38447622e-05
7.36415448e-05
7.4233812e-05
7.39848573e-05
7.42636166e-05
7.42310243e-05
7.45930382e-05
7.4470459e-05
7.46610639e-05
7.46496249e-05
7.49584036e-05
7.48704758e-05
7.50544351e-05
7.50429226e-05
7.53351818e-05
7.5274731e-05
7.54773841e-05
7.54655705e-05
7.57287225e-05
7.56907551e-05
7.59039795e-05
7.59133427e-05
7.6146649e-05
)
;

boundaryField
{
    closed
    {
        type            calculated;
        value           nonuniform List<scalar> 0();
    }
    open
    {
        type            calculated;
        value           nonuniform List<scalar> 0();
    }
    sides
    {
        type            empty;
    }
    procBoundary4to3
    {
        type            processor;
        value           uniform 3.58698116e-05;
    }
    procBoundary4to5
    {
        type            processor;
        value           uniform 7.61258346e-05;
    }
}


// ************************************************************************* //
