/*--------------------------------*- C++ -*----------------------------------*\
| =========                 |                                                 |
| \\      /  F ield         | OpenFOAM: The Open Source CFD Toolbox           |
|  \\    /   O peration     | Version:  2306                                  |
|   \\  /    A nd           | Website:  www.openfoam.com                      |
|    \\/     M anipulation  |                                                 |
\*---------------------------------------------------------------------------*/
FoamFile
{
    version     2.0;
    format      ascii;
    arch        "LSB;label=32;scalar=64";
    class       volScalarField;
    location    "0.00018";
    object      h;
}
// * * * * * * * * * * * * * * * * * * * * * * * * * * * * * * * * * * * * * //

dimensions      [0 2 -2 0 0 0 0];

internalField   nonuniform List<scalar> 
531
(
2698.46118
2057.59147
1987.55731
2350.43963
2441.73864
2260.46299
2184.08916
2266.80221
2317.28797
2283.26432
2254.63433
2267.43389
2281.71442
2277.39267
2270.99367
2272.26858
2274.89215
2274.54789
2273.59097
2273.67626
2273.96985
2273.94962
2273.87763
2273.88874
2273.90802
2273.88707
2273.87893
2273.90332
2273.90947
2273.88833
2273.88238
2273.89873
2273.90387
2273.89151
2273.88747
2273.8976
2273.90061
2273.89169
2273.88938
2273.89732
2273.89866
2273.89174
2273.89195
2273.89882
2273.89705
2273.88757
2273.8905
2273.90443
2273.90291
2273.88301
2273.88315
2273.90371
2273.90815
2273.89094
2273.88051
2273.8919
2273.90721
2273.90345
2273.88395
2273.88403
2273.90083
2273.90594
2273.89263
2273.8823
2273.89241
2273.9071
2273.90111
2273.88389
2273.88623
2273.90086
2273.90055
2273.89363
2273.89381
2273.8938
2273.88885
2273.89204
2273.90681
2273.9046
2273.87837
2273.87839
2273.90945
2273.91408
2273.88454
2273.87497
2273.89965
2273.91187
2273.89331
2273.88058
2273.89405
2273.90522
2273.89594
2273.88704
2273.8934
2273.89965
2273.895
2273.89088
2273.89571
2273.89853
2273.89207
2273.88921
2273.89747
2273.90187
2273.89353
2273.88613
2273.89233
2273.90236
2273.90063
2273.88962
2273.8886
2273.89232
2273.89841
2273.9013
2273.89931
2273.88498
2273.88125
2273.90132
2273.91677
2273.89786
2273.86473
2273.87548
2273.9283
2273.92655
2273.86737
2273.8562
2273.90764
2273.93396
2273.89748
2273.8589
2273.87791
2273.9237
2273.91957
2273.87518
2273.86965
2273.89905
2273.91723
2273.90727
2273.87448
2273.87419
2273.90138
2273.91877
2273.90681
2273.86904
2273.87
2273.9102
2273.92564
2273.89642
2273.86168
2273.87325
2273.92546
2273.92524
2273.87716
2273.86029
2273.89451
2273.92911
2273.91484
2273.86209
2273.86356
2273.91305
2273.93006
2273.89756
2273.85965
2273.8695
2273.92283
2273.92765
2273.88846
2273.86096
2273.87459
2273.92457
2273.92515
2273.88396
2273.86129
2273.88311
2273.9261
2273.92169
2273.87172
2273.86206
2273.90213
2273.92892
2273.90287
2273.86047
2273.87051
2273.92778
2273.92745
2273.87063
2273.8557
2273.90412
2273.93747
2273.90452
2273.85192
2273.86307
2273.93127
2273.93318
2273.88024
2273.85697
2273.88412
2273.92521
2273.92051
2273.87843
2273.86754
2273.8914
2273.91739
2273.91163
2273.87928
2273.87554
2273.89597
2273.91098
2273.90622
2273.88378
2273.8788
2273.89224
2273.91079
2273.90842
2273.88291
2273.87619
2273.89633
2273.9135
2273.90271
2273.8784
2273.88124
2273.90553
2273.90638
2273.89058
2273.88668
2273.8949
2273.89842
2273.89532
2273.89346
2273.89429
2273.89459
2273.89434
2273.89541
2273.89554
2273.8924
2273.89241
2273.89839
2273.8995
2273.8908
2273.88576
2273.89479
2273.90722
2273.90305
2273.8797
2273.87974
2273.90438
2273.91373
2273.89431
2273.87378
2273.88452
2273.91404
2273.91178
2273.88045
2273.87549
2273.89977
2273.91398
2273.8991
2273.87627
2273.88093
2273.90997
2273.91149
2273.88847
2273.87723
2273.89085
2273.90975
2273.906
2273.88375
2273.8825
2273.89843
2273.9041
2273.89493
2273.88878
2273.89424
2273.89845
2273.89242
2273.88902
2273.89925
2273.90476
2273.89069
2273.87981
2273.89465
2273.91142
2273.89932
2273.87801
2273.88704
2273.91072
2273.90465
2273.87657
2273.87899
2273.91623
2273.91759
2273.8749
2273.86272
2273.90505
2273.93289
2273.90019
2273.85581
2273.8719
2273.92721
2273.92465
2273.87608
2273.86793
2273.89823
2273.91296
2273.89879
2273.88522
2273.89068
2273.89817
2273.89514
2273.89069
2273.89614
2273.90312
2273.89558
2273.88086
2273.8864
2273.91117
2273.91031
2273.88082
2273.87466
2273.90031
2273.91542
2273.89877
2273.87628
2273.88173
2273.90794
2273.90885
2273.89193
2273.88213
2273.88739
2273.90332
2273.90503
2273.89447
2273.88405
2273.88736
2273.90319
2273.90379
2273.89106
2273.88602
2273.89431
2273.90157
2273.89705
2273.88897
2273.89142
2273.89906
2273.89821
2273.8911
2273.89132
2273.89704
2273.89723
2273.89283
2273.89266
2273.89623
2273.89624
2273.8928
2273.89289
2273.89634
2273.89623
2273.89334
2273.89308
2273.89507
2273.89506
2273.89409
2273.89402
2273.89435
2273.89355
2273.89253
2273.89223
2273.89219
2273.89058
2273.88774
2273.88525
2273.88394
2273.87704
2273.86619
2273.85629
2273.85396
2273.83442
2273.7987
2273.75459
2273.72704
2273.68137
2273.59023
2273.46054
2273.32323
2273.1756
2272.97195
2272.6219
2272.2774
2271.99147
2271.20914
2269.87656
2271.25003
2275.79885
2267.14855
2236.74416
2261.05423
2381.60393
2339.27439
1910.78912
1845.45727
3106.83467
3222.49594
124.392581
-2061.26639
3896.75093
9345.38825
1584.46527
-4840.03628
-3741.08749
3883.20129
9381.66222
6288.02226
-8350.35466
-7479.59009
7727.03175
7678.48921
7341.32078
2734.59026
-5255.2975
5850.52016
7971.67247
6879.41058
7755.74126
7422.64683
7726.11476
7685.44117
7854.86816
8050.89556
8413.4953
9345.23979
9806.20294
10510.6313
9792.0576
3561.41194
-1229.09144
-376.790263
-1683.7393
-4685.11023
-3475.71841
-178.722014
-2681.20821
-3204.54211
1485.93273
4251.75626
5561.6276
5219.46787
5484.35758
4283.83038
-138.349073
-791.672802
-1200.46367
-2616.94501
-3288.82768
-6146.23089
-6916.40271
-11084.4874
-11653.2059
-16889.6977
-16693.7663
-23888.2803
-22267.9279
-32529.6612
-31478.6717
-44665.0667
-30430.4511
-56284.4519
-58944.3742
-73665.1792
-26705.9423
-78592.4151
-109773.169
-106685.907
-6237.79238
-89024.3026
-166762.05
-150500.021
1836.80953
-101267.618
-214696.984
-195117.03
-28742.8593
-147838.381
-238870.821
-213258.052
-60365.7762
-180667.045
-245697.787
-214126.82
-77535.198
-209100.178
-241096.737
-223211.956
-88328.229
-228873.06
-232946.124
-233023.114
-102910.724
-228543.487
-219242.429
-228773.674
-125635.929
-221391.329
-208030.742
-215303.472
-138327.844
-205612.045
-197974.738
-199250.876
-142398.509
-191357.835
-187241.216
-185955.968
-142548.795
-179415.022
-177371.693
-174509.953
-140469.141
-169157.128
-168353.98
-163924.368
-136609.199
-160130.443
-159758.559
-153950.093
-131783.872
-151096.915
-150902.106
-144870.364
-126200.772
-141364.464
-142117.317
-136634.988
-119538.087
)
;

boundaryField
{
    closed
    {
        type            lookUpEnthalpy;
        h0              nonuniform List<scalar> 0();
        value           nonuniform List<scalar> 0();
    }
    open
    {
        type            zeroGradient;
    }
    sides
    {
        type            empty;
    }
    procBoundary4to3
    {
        type            processor;
        value           uniform 2707.09094;
    }
    procBoundary4to5
    {
        type            processor;
        value           uniform -131120;
    }
}


// ************************************************************************* //
