/*--------------------------------*- C++ -*----------------------------------*\
| =========                 |                                                 |
| \\      /  F ield         | OpenFOAM: The Open Source CFD Toolbox           |
|  \\    /   O peration     | Version:  2306                                  |
|   \\  /    A nd           | Website:  www.openfoam.com                      |
|    \\/     M anipulation  |                                                 |
\*---------------------------------------------------------------------------*/
FoamFile
{
    version     2.0;
    format      ascii;
    arch        "LSB;label=32;scalar=64";
    class       volScalarField;
    location    "0.00058";
    object      prefDZ_T;
}
// * * * * * * * * * * * * * * * * * * * * * * * * * * * * * * * * * * * * * //

dimensions      [1 -1 -1 -1 0 0 0];

internalField   nonuniform List<scalar> 
531
(
-1.1875215e-09
-1.1971987e-09
-1.22990387e-09
-1.22698005e-09
-1.19117853e-09
-1.19683362e-09
-1.22862591e-09
-1.23216129e-09
-1.19009401e-09
-1.18818552e-09
-1.19897034e-09
-1.22895942e-09
-1.23125817e-09
-1.19267163e-09
-1.19751438e-09
-1.22792906e-09
-1.23083551e-09
-1.19182289e-09
-1.18981019e-09
-1.18912703e-09
-1.18870278e-09
-1.19737522e-09
-1.22860308e-09
-1.23275526e-09
-1.19162389e-09
-1.19584192e-09
-1.2279875e-09
-1.2313887e-09
-1.18964511e-09
-1.1870603e-09
-1.19531666e-09
-1.22957611e-09
-1.22812935e-09
-1.19021778e-09
-1.19506785e-09
-1.22896125e-09
-1.22370086e-09
-1.19010419e-09
-1.19401001e-09
-1.22845791e-09
-1.2314308e-09
-1.18933659e-09
-1.18683359e-09
-1.19488619e-09
-1.22965723e-09
-1.22756653e-09
-1.19044123e-09
-1.19380972e-09
-1.22852432e-09
-1.23102889e-09
-1.18942457e-09
-1.18695498e-09
-1.1943801e-09
-1.22984429e-09
-1.22922511e-09
-1.1902175e-09
-1.19416799e-09
-1.22923557e-09
-1.22519347e-09
-1.19013193e-09
-1.19329867e-09
-1.22865004e-09
-1.23086943e-09
-1.18922e-09
-1.18667455e-09
-1.19362924e-09
-1.22983847e-09
-1.23165059e-09
-1.18990122e-09
-1.1930244e-09
-1.2291003e-09
-1.22779793e-09
-1.18989564e-09
-1.19263904e-09
-1.22850814e-09
-1.23078792e-09
-1.18924076e-09
-1.18666014e-09
-1.19326856e-09
-1.22951732e-09
-1.23409757e-09
-1.18957463e-09
-1.191834e-09
-1.22866792e-09
-1.2338407e-09
-1.18974096e-09
-1.19204053e-09
-1.22816937e-09
-1.23057396e-09
-1.18952973e-09
-1.18678619e-09
-1.19291885e-09
-1.22889297e-09
-1.23087741e-09
-1.19025062e-09
-1.19205684e-09
-1.22804403e-09
-1.23048511e-09
-1.18970148e-09
-1.18702918e-09
-1.19330857e-09
-1.228912e-09
-1.23089071e-09
-1.19052096e-09
-1.19229503e-09
-1.22826157e-09
-1.23001113e-09
-1.18999709e-09
-1.18766055e-09
-1.19571814e-09
-1.22894455e-09
-1.23020457e-09
-1.19030309e-09
-1.18790169e-09
-1.19619232e-09
-1.2290905e-09
-1.23055244e-09
-1.19029091e-09
-1.18791676e-09
-1.1963195e-09
-1.22933799e-09
-1.23174517e-09
-1.19010414e-09
-1.18755827e-09
-1.19477229e-09
-1.22981286e-09
-1.23271751e-09
-1.19081818e-09
-1.19436591e-09
-1.22956917e-09
-1.23245671e-09
-1.18961768e-09
-1.18740222e-09
-1.19549848e-09
-1.2302894e-09
-1.22632931e-09
-1.19098762e-09
-1.19635136e-09
-1.22984154e-09
-1.23270261e-09
-1.18999865e-09
-1.18839322e-09
-1.20060821e-09
-1.22962967e-09
-1.23112895e-09
-1.19197592e-09
-1.18882221e-09
-1.18841283e-09
-1.19904798e-09
-1.23025623e-09
-1.23373027e-09
-1.19004235e-09
-1.18846784e-09
-1.20523077e-09
-1.22932926e-09
-1.21287211e-09
-1.19088088e-09
-1.20398414e-09
-1.22953932e-09
-1.22211689e-09
-1.18875419e-09
-1.18731594e-09
-1.20577485e-09
-1.22953907e-09
-1.2078675e-09
-1.19014919e-09
-1.20671006e-09
-1.22952251e-09
-1.21786233e-09
-1.18837968e-09
-1.18715564e-09
-1.21208e-09
-1.22884676e-09
-1.20398395e-09
-1.19019737e-09
-1.21063497e-09
-1.2291177e-09
-1.21658206e-09
-1.18849629e-09
-1.18762855e-09
-1.22146282e-09
-1.22873177e-09
-1.21162182e-09
-1.18848913e-09
-1.18782123e-09
-1.22260469e-09
-1.22873139e-09
-1.21039604e-09
-1.18804276e-09
-1.18724e-09
-1.2213995e-09
-1.22831078e-09
-1.19890652e-09
-1.18926069e-09
-1.21616161e-09
-1.22837546e-09
-1.19864466e-09
-1.18886566e-09
-1.21767306e-09
-1.22845827e-09
-1.19833919e-09
-1.1887183e-09
-1.21019798e-09
-1.22941226e-09
-1.21103111e-09
-1.18723682e-09
-1.18657123e-09
-1.23193231e-09
-1.22773007e-09
-1.19626798e-09
-1.18948579e-09
-1.21841944e-09
-1.22856666e-09
-1.20872533e-09
-1.18720925e-09
-1.18666348e-09
-1.2341775e-09
-1.22758277e-09
-1.19465837e-09
-1.18937101e-09
-1.22192854e-09
-1.22813479e-09
-1.20833067e-09
-1.1875115e-09
-1.18713538e-09
-1.2327152e-09
-1.22722451e-09
-1.19350131e-09
-1.18955428e-09
-1.22560915e-09
-1.22776694e-09
-1.2106184e-09
-1.18797889e-09
-1.18780069e-09
-1.23178947e-09
-1.22720054e-09
-1.2053919e-09
-1.18903467e-09
-1.18763697e-09
-1.18772332e-09
-1.23086428e-09
-1.2276169e-09
-1.20207555e-09
-1.18808356e-09
-1.19022088e-09
-1.22985625e-09
-1.22673705e-09
-1.18969915e-09
-1.18779449e-09
-1.23313011e-09
-1.22775143e-09
-1.18986758e-09
-1.18801088e-09
-1.23319508e-09
-1.22793849e-09
-1.18958137e-09
-1.18835935e-09
-1.23253057e-09
-1.22767111e-09
-1.18917603e-09
-1.18862252e-09
-1.23149554e-09
-1.2271994e-09
-1.19335173e-09
-1.18746278e-09
-1.19170735e-09
-1.22919164e-09
-1.22681862e-09
-1.19115134e-09
-1.18679157e-09
-1.19232616e-09
-1.22967716e-09
-1.23031078e-09
-1.18958918e-09
-1.19029975e-09
-1.23117214e-09
-1.22734785e-09
-1.19198612e-09
-1.18691537e-09
-1.19281855e-09
-1.23008058e-09
-1.23096342e-09
-1.19002526e-09
-1.19063307e-09
-1.23158798e-09
-1.22737624e-09
-1.1932364e-09
-1.1874244e-09
-1.19265148e-09
-1.23037201e-09
-1.22750428e-09
-1.19370804e-09
-1.1873126e-09
-1.19179085e-09
-1.23077458e-09
-1.22796165e-09
-1.19353203e-09
-1.18664488e-09
-1.19049083e-09
-1.23176488e-09
-1.23069173e-09
-1.19001298e-09
-1.19044958e-09
-1.23336667e-09
-1.23340149e-09
-1.18983428e-09
-1.19036219e-09
-1.23269229e-09
-1.22788069e-09
-1.1944682e-09
-1.18742559e-09
-1.19197707e-09
-1.23125392e-09
-1.22837314e-09
-1.19417839e-09
-1.18724414e-09
-1.19360698e-09
-1.23120278e-09
-1.23099039e-09
-1.19037627e-09
-1.19084797e-09
-1.23150157e-09
-1.22804001e-09
-1.19384926e-09
-1.18727786e-09
-1.19692777e-09
-1.23070689e-09
-1.23108454e-09
-1.18982242e-09
-1.18791436e-09
-1.20928152e-09
-1.22909395e-09
-1.21416771e-09
-1.18980247e-09
-1.19108641e-09
-1.23104964e-09
-1.22809007e-09
-1.1935652e-09
-1.18714688e-09
-1.19743078e-09
-1.23029073e-09
-1.23100767e-09
-1.18968016e-09
-1.187213e-09
-1.19923841e-09
-1.23035371e-09
-1.21572995e-09
-1.18907272e-09
-1.19101645e-09
-1.23096666e-09
-1.22884858e-09
-1.19115621e-09
-1.18684332e-09
-1.20287515e-09
-1.22957809e-09
-1.20683624e-09
-1.18966015e-09
-1.2074481e-09
-1.22835501e-09
-1.22824846e-09
-1.18920493e-09
-1.1875244e-09
-1.20048039e-09
-1.22936582e-09
-1.2324859e-09
-1.18928705e-09
-1.18732879e-09
-1.20486212e-09
-1.22888935e-09
-1.20479123e-09
-1.18971878e-09
-1.21225672e-09
-1.2276138e-09
-1.22702381e-09
-1.18944902e-09
-1.18793414e-09
-1.20417643e-09
-1.22800617e-09
-1.22575786e-09
-1.19271769e-09
-1.18752541e-09
-1.18702253e-09
-1.19905802e-09
-1.2312559e-09
-1.22608565e-09
-1.23354466e-09
-1.18944585e-09
-1.18723155e-09
-1.19981292e-09
-1.22859068e-09
-1.23117452e-09
-1.18972646e-09
-1.18756554e-09
-1.20006939e-09
-1.22844814e-09
-1.23085421e-09
-1.18936561e-09
-1.18696697e-09
-1.20195199e-09
-1.22856271e-09
-1.20910505e-09
-1.18927864e-09
-1.20353269e-09
-1.22750008e-09
-1.23340164e-09
-1.18897279e-09
-1.18694446e-09
-1.20164582e-09
-1.22864756e-09
-1.20985241e-09
-1.18937094e-09
-1.20243808e-09
-1.22754214e-09
-1.23328446e-09
-1.1891537e-09
-1.18704263e-09
-1.20153012e-09
-1.22885006e-09
-1.21000586e-09
-1.1892947e-09
-1.20156651e-09
-1.22762016e-09
-1.23334563e-09
-1.18944225e-09
-1.18740426e-09
-1.20239914e-09
-1.22896647e-09
-1.20874917e-09
-1.18890867e-09
-1.2007803e-09
-1.22784634e-09
-1.23315023e-09
-1.18937555e-09
-1.18759859e-09
-1.20418696e-09
-1.22865052e-09
-1.21346686e-09
-1.18982242e-09
-1.19172244e-09
-1.22896013e-09
-1.22628194e-09
-1.21299307e-09
-1.18987032e-09
-1.18946485e-09
-1.18813655e-09
-1.18816265e-09
-1.23050479e-09
-1.22796978e-09
-1.20058033e-09
-1.18947949e-09
-1.21031102e-09
-1.22799139e-09
-1.20363416e-09
-1.18951727e-09
-1.21054222e-09
-1.22821059e-09
-1.21153117e-09
-1.18809638e-09
-1.18772734e-09
-1.22956823e-09
-1.22843405e-09
-1.19494418e-09
-1.18849876e-09
-1.21857343e-09
-1.22892789e-09
-1.19444675e-09
-1.18877883e-09
-1.21817323e-09
-1.22823883e-09
-1.20971836e-09
-1.18756385e-09
-1.18751702e-09
-1.2319012e-09
-1.22875687e-09
-1.19126432e-09
-1.18898799e-09
-1.23442556e-09
-1.22884489e-09
-1.19135881e-09
-1.1888372e-09
-1.22336239e-09
-1.22804426e-09
-1.20924406e-09
-1.18764767e-09
-1.18740105e-09
-1.23275673e-09
-1.22792594e-09
-1.19710962e-09
-1.18814535e-09
-1.21324878e-09
-1.22944478e-09
-1.19283179e-09
-1.18876759e-09
-1.22938642e-09
-1.2278296e-09
-1.20750302e-09
-1.18805557e-09
-1.18790711e-09
-1.23157895e-09
-1.22760445e-09
-1.20561408e-09
-1.18778056e-09
-1.18771495e-09
-1.23135655e-09
-1.22762663e-09
-1.2050303e-09
-1.1876993e-09
-1.18765862e-09
-1.23088627e-09
-1.22754254e-09
-1.20496916e-09
-1.18770896e-09
-1.18770517e-09
-1.23026099e-09
-1.22742043e-09
-1.2049289e-09
-1.18770823e-09
-1.18783405e-09
-1.22988048e-09
-1.22730505e-09
-1.20458874e-09
-1.18760755e-09
-1.18790498e-09
-1.2296772e-09
-1.22722431e-09
-1.20399313e-09
-1.1874633e-09
-1.18799742e-09
-1.22950521e-09
-1.22715512e-09
-1.20342746e-09
)
;

boundaryField
{
    closed
    {
        type            calculated;
        value           nonuniform List<scalar> 0();
    }
    open
    {
        type            calculated;
        value           nonuniform List<scalar> 0();
    }
    sides
    {
        type            empty;
    }
    procBoundary1to0
    {
        type            processor;
        value           uniform -1.18955265e-09;
    }
    procBoundary1to2
    {
        type            processor;
        value           uniform -1.18739095e-09;
    }
}


// ************************************************************************* //
