/*--------------------------------*- C++ -*----------------------------------*\
| =========                 |                                                 |
| \\      /  F ield         | OpenFOAM: The Open Source CFD Toolbox           |
|  \\    /   O peration     | Version:  2306                                  |
|   \\  /    A nd           | Website:  www.openfoam.com                      |
|    \\/     M anipulation  |                                                 |
\*---------------------------------------------------------------------------*/
FoamFile
{
    version     2.0;
    format      ascii;
    arch        "LSB;label=32;scalar=64";
    class       volScalarField;
    location    "0.00058";
    object      Z;
}
// * * * * * * * * * * * * * * * * * * * * * * * * * * * * * * * * * * * * * //

dimensions      [0 0 0 0 0 0 0];

internalField   nonuniform List<scalar> 
531
(
0.0148508476
0.0145669967
0.0141000967
0.0142159486
0.0146950305
0.0145850689
0.0140856909
0.0141257715
0.0147177794
0.0148265358
0.0145420517
0.0140915182
0.0141790637
0.0146630417
0.0145769114
0.0140800797
0.0141114119
0.0146760155
0.0147685588
0.0147507765
0.0147964704
0.0145736952
0.0140883285
0.014166245
0.01468844
0.0146138081
0.0140800092
0.014118229
0.0147317264
0.0148765948
0.0146053185
0.0140984099
0.014206055
0.0147505752
0.0146185786
0.014090408
0.0142441901
0.0147514934
0.0146463139
0.0140851386
0.0141177819
0.0147482165
0.0148883424
0.0146166026
0.0140999266
0.0142098451
0.0147453008
0.014655435
0.0140867067
0.0141140544
0.0147491276
0.0148863618
0.0146282821
0.0141024613
0.0141961233
0.0147569672
0.0146406495
0.0140946162
0.0142301275
0.0147524282
0.0146656931
0.0140881806
0.0141115676
0.0147546982
0.014893492
0.0146444088
0.0141025227
0.0141763184
0.0147624756
0.0146668818
0.0140931948
0.0142073383
0.0147542037
0.0146820669
0.0140868732
0.0141103111
0.014750484
0.0148904598
0.0146542267
0.0140995426
0.0141434171
0.0147638612
0.0147044906
0.0140886116
0.0141575154
0.0147485482
0.0147036092
0.0140835347
0.0141075305
0.0147330068
0.0148785224
0.0146607962
0.0140934923
0.0141064471
0.0147261589
0.0147037093
0.0140822674
0.0141068445
0.0147209494
0.01486722
0.0146508196
0.0140940269
0.0141070292
0.0147130653
0.0146915919
0.0140851249
0.0141016738
0.0147085669
0.014844408
0.0146036768
0.0140953359
0.0141033078
0.0147003759
0.0148367218
0.0145943187
0.0140973348
0.0141075577
0.0146994483
0.0148362141
0.0145914728
0.0140999132
0.0141217534
0.0147001375
0.0148457483
0.0146152534
0.0141047493
0.0141654735
0.0146993409
0.0146392275
0.0141005575
0.0141309281
0.0147083183
0.0148443944
0.0145962092
0.0141093342
0.0142194002
0.0146949731
0.0145932202
0.0141052781
0.0141343451
0.0147067062
0.0148106534
0.0145129721
0.01410435
0.0141751016
0.0146705803
0.0147868499
0.0147937444
0.0145399042
0.0141113539
0.0141535466
0.0147145312
0.0148048245
0.014443981
0.0141002003
0.0143541673
0.0147008017
0.0144631606
0.0141022536
0.014256572
0.0147597556
0.0148261591
0.0144354075
0.0141005742
0.0144144093
0.0147286818
0.0144252142
0.0141024484
0.0142994486
0.0147882366
0.0148285997
0.0143610994
0.0140934199
0.0144687626
0.0147302319
0.0143780879
0.0140998466
0.0143128717
0.0148032942
0.0148262076
0.014266731
0.0140957308
0.0143703189
0.0148091837
0.0148235181
0.0142559838
0.0140956443
0.0143854516
0.0148214914
0.0148327794
0.0142669667
0.0140876818
0.0145517554
0.0147587201
0.0143179771
0.0140882959
0.0145521542
0.0147709446
0.0143029272
0.0140887889
0.0145534962
0.0147847538
0.0143827982
0.0141024269
0.0143758889
0.0148548785
0.0148488768
0.0141748917
0.0140812645
0.0146032391
0.014758238
0.014295081
0.0140940293
0.0144054034
0.0148521854
0.0148461609
0.0141554503
0.0140793364
0.0146347893
0.0147596994
0.0142614022
0.0140890901
0.0144105509
0.0148299191
0.0148283989
0.0141345048
0.01407569
0.0146564314
0.0147525446
0.0142278102
0.0140867752
0.0143819094
0.0148177183
0.0148168244
0.0141219635
0.0140784927
0.0144525746
0.0147700082
0.0148268513
0.0148271276
0.014111531
0.0140831531
0.0144962811
0.0148107496
0.0147163434
0.0141071137
0.0140687766
0.0147449716
0.0148037722
0.0141411377
0.0140823359
0.0147484032
0.0148081019
0.0141414876
0.0140824455
0.0147459268
0.0147943125
0.0141350758
0.014078692
0.0147380124
0.0147803858
0.0141235782
0.0140769279
0.0146370612
0.0148221814
0.0146714152
0.0140995798
0.0140697521
0.0146765516
0.0148406842
0.0146714043
0.0141054617
0.0141012323
0.0147201265
0.0147434138
0.0141221047
0.0140769893
0.0146579933
0.0148429242
0.0146589773
0.0141106558
0.0141094693
0.0147108259
0.0147330667
0.0141272335
0.0140768721
0.0146359363
0.0148290575
0.0146564291
0.0141142407
0.0140763833
0.01462999
0.0148374284
0.01467891
0.0141179328
0.0140810242
0.0146303388
0.0148673227
0.0147248977
0.0141283676
0.0141063726
0.0147176806
0.0147524117
0.0141452919
0.0141415762
0.0147371609
0.0147463486
0.0141373093
0.0140810695
0.0146138301
0.0148368792
0.0146728399
0.0141221982
0.0140840463
0.0146150577
0.0148479945
0.014634654
0.0141227572
0.0141781671
0.0147279759
0.0147272647
0.0141232127
0.0140817751
0.0146209015
0.0148435772
0.0145722711
0.0141184917
0.0141149481
0.0147225682
0.0148277585
0.0143929798
0.0140996435
0.014339552
0.014751741
0.0147037885
0.0141178981
0.0140822313
0.0146270088
0.0148497291
0.0145641195
0.014113042
0.0141151662
0.0147108682
0.0148581244
0.014528151
0.0141133069
0.0143222907
0.0147815758
0.0146979573
0.0141170083
0.0140888462
0.0146715228
0.0148563821
0.0144749419
0.0141047453
0.0144281993
0.0147526093
0.0144166205
0.0140906029
0.0141993015
0.0147346369
0.0148432952
0.0145140966
0.0141021909
0.0141316914
0.0147372509
0.0148494
0.0144485647
0.0140964039
0.0144557518
0.014745719
0.0143596911
0.0140827794
0.0142108282
0.0147315856
0.0148240738
0.0144605425
0.0140881348
0.0142227593
0.0146643847
0.0148182366
0.0148485671
0.014531609
0.0141245618
0.0140640333
0.0141494872
0.0147201265
0.014866954
0.0145280889
0.0140929586
0.0141165124
0.0147286643
0.0148551617
0.0145240034
0.0140910877
0.0141116464
0.0147360892
0.0148675246
0.0144894221
0.0140916766
0.0143975704
0.0147659547
0.0144706767
0.0140788751
0.01415848
0.0147434841
0.0148673557
0.0144938575
0.0140921905
0.014388419
0.0147629715
0.0144874016
0.0140791411
0.0141392075
0.0147396375
0.0148673597
0.0144960777
0.0140944289
0.0143864855
0.0147655517
0.014500336
0.0140797567
0.014139484
0.0147334299
0.0148557453
0.0144842348
0.0140957067
0.01440147
0.0147780336
0.0145111398
0.0140817318
0.0141358887
0.0147390126
0.0148455526
0.0144599694
0.01409399
0.0143468893
0.0147649493
0.0146711679
0.014092139
0.0140678732
0.0143532231
0.0147375609
0.0147670242
0.0148225825
0.0148013273
0.0141834617
0.01408521
0.0145212284
0.0147515934
0.0143827963
0.01408379
0.0144693087
0.0147528483
0.0143795211
0.0140893507
0.0143697097
0.0148205255
0.0148127964
0.0141931685
0.0140883768
0.0146181721
0.014796225
0.0142933843
0.0140921437
0.0146207494
0.0147917406
0.0142974989
0.014091635
0.0143923892
0.0148471058
0.0148266133
0.0141192947
0.0140905415
0.0147320648
0.0147895861
0.0141505762
0.0140919512
0.0147102123
0.0147942074
0.0142475162
0.0140901149
0.014399061
0.0148406644
0.0148244115
0.0141683422
0.0140850267
0.0145815416
0.0148115608
0.0143490974
0.0140957926
0.0146567168
0.0147979973
0.0141962709
0.0140884719
0.0144226541
0.0148263407
0.0148154601
0.0141141105
0.0140845791
0.0144492988
0.0148296727
0.014821951
0.0141123898
0.0140845881
0.0144572946
0.0148285969
0.0148234145
0.0141083462
0.0140835065
0.0144574549
0.014823423
0.0148212053
0.0141022969
0.0140819985
0.0144572333
0.0148195308
0.0148147392
0.014098485
0.0140803806
0.0144613933
0.0148191178
0.01480926
0.0140964254
0.0140790372
0.0144692731
0.0148207049
0.0148038654
0.0140947827
0.0140781829
0.0144769689
)
;

boundaryField
{
    closed
    {
        type            zeroGradient;
    }
    open
    {
        type            zeroGradient;
    }
    sides
    {
        type            empty;
    }
    procBoundary1to0
    {
        type            processor;
        value           uniform 0.0147347728;
    }
    procBoundary1to2
    {
        type            processor;
        value           uniform 0.0148200433;
    }
}


// ************************************************************************* //
