/*--------------------------------*- C++ -*----------------------------------*\
| =========                 |                                                 |
| \\      /  F ield         | OpenFOAM: The Open Source CFD Toolbox           |
|  \\    /   O peration     | Version:  2306                                  |
|   \\  /    A nd           | Website:  www.openfoam.com                      |
|    \\/     M anipulation  |                                                 |
\*---------------------------------------------------------------------------*/
FoamFile
{
    version     2.0;
    format      ascii;
    arch        "LSB;label=32;scalar=64";
    class       volScalarField;
    location    "0.00198";
    object      T;
}
// * * * * * * * * * * * * * * * * * * * * * * * * * * * * * * * * * * * * * //

dimensions      [0 0 0 1 0 0 0];

internalField   nonuniform List<scalar> 
530
(
368.87137
336.451969
329.776067
329.591288
329.574391
329.573436
329.573358
329.573353
329.573353
329.573353
329.573353
329.573353
329.573353
329.573353
329.573353
329.573353
329.573353
329.573353
329.573353
329.573353
329.573353
329.573353
329.573353
329.573353
329.573353
329.573353
329.573353
329.573353
329.573353
329.573353
329.573353
329.573353
329.573353
329.573353
329.573353
329.573353
329.573353
329.573353
329.573353
329.573353
329.573353
329.573353
329.573353
329.573353
329.573353
329.573353
329.573353
329.573353
329.573353
329.573353
329.573353
329.573353
329.573353
329.573353
329.573353
329.573353
329.573353
329.573353
329.573353
329.573353
329.573354
329.573357
329.573364
329.57338
329.5734
329.573486
329.573553
329.573836
329.574135
329.575109
329.575798
329.577544
329.579921
329.583502
329.585851
329.591312
329.600998
329.612582
329.62702
329.643509
329.647616
329.581765
329.58319
329.854647
330.241309
329.907701
328.880855
327.940366
328.573049
340.155913
340.567016
338.355416
329.018981
324.560377
325.682346
325.265286
323.97801
328.751791
340.137527
340.171181
339.189381
339.884436
338.557764
339.586695
338.40955
321.61888
321.1752
323.714014
322.626968
323.033079
323.138556
325.41602
332.82482
339.994675
339.329901
339.816544
339.129356
339.531459
335.886219
320.260326
320.209702
324.049959
324.228737
324.543484
329.224
339.932167
340.162471
339.590122
339.874734
339.331415
339.528532
333.656712
321.62687
321.557126
324.798071
325.137843
326.791242
330.64828
339.84756
336.989169
319.767243
319.126546
328.215652
334.215926
339.833252
339.368506
339.54541
332.062308
320.47429
323.295134
339.383933
339.136639
328.92684
320.886698
328.69859
339.883058
340.187768
328.440021
327.918197
331.313228
339.640605
337.370566
323.192767
322.779872
332.969152
339.131754
334.109274
321.630518
324.619206
339.119058
339.144558
338.788447
333.821745
322.928544
324.739473
335.131732
339.163641
333.75404
322.720253
324.303059
336.606976
339.263633
333.380864
320.967746
320.586833
324.216028
322.16389
328.934047
339.818931
340.442126
325.043758
327.662854
339.342354
339.706942
337.367053
327.005002
328.556961
339.826458
340.253821
339.73856
328.903964
321.090557
322.652009
328.619828
340.185407
339.97747
324.635727
327.202933
340.094314
339.692177
325.604354
327.90668
340.239048
339.631888
325.95602
328.557521
340.19724
339.571933
325.564597
328.372237
340.439657
339.417255
325.984076
320.375307
329.097572
339.811666
339.816973
324.502384
327.718364
340.230959
339.322253
325.037114
319.627512
329.126805
339.813994
339.566874
324.048663
327.381549
340.017156
339.125999
324.667366
327.756246
340.182385
339.03578
324.807911
327.991924
340.228852
339.035395
325.118869
328.559292
340.171726
339.007429
324.786781
328.471398
340.460302
339.165936
325.614427
320.273952
328.98177
339.87071
339.352639
324.617665
328.622123
339.995876
338.962135
324.991791
328.831247
340.508764
339.159278
326.650093
321.120334
328.977385
339.85241
339.262003
324.754171
328.82688
340.379362
339.207935
326.45443
321.046759
328.984475
339.901474
339.212601
324.946597
328.540039
340.099088
338.895203
325.382402
328.764454
340.076109
338.788018
324.130244
328.031186
340.686328
339.072928
328.761523
322.494589
328.805013
340.466392
339.721202
328.806408
323.099615
324.222092
323.707295
330.936789
339.734981
329.348871
325.489995
332.129963
340.078053
339.342855
327.468189
322.247624
328.945184
340.478278
339.689967
328.882005
322.381066
328.908241
340.523328
339.7259
328.827703
322.745284
328.93444
340.373381
339.703649
328.982995
324.709093
328.054415
331.171756
340.022105
339.417567
323.139417
325.31602
340.295006
339.19893
327.228492
320.863676
328.904083
339.374515
339.926886
323.181055
326.395557
339.101279
339.942088
338.664122
327.102581
320.905694
328.992794
340.13724
340.068876
329.081751
323.178623
329.009929
340.368512
340.078384
328.937877
323.264835
328.965174
340.279859
340.125738
328.385204
322.830407
329.016153
340.081366
340.088394
325.023938
320.420419
328.417224
340.00366
340.330881
324.31846
327.291448
340.270681
339.923495
327.20945
322.244397
328.928471
339.971364
340.564565
325.826963
328.215927
340.371246
340.070485
327.794151
322.83525
328.859191
340.007887
340.678341
325.88896
327.996608
340.345509
340.166858
327.573196
322.912137
328.843982
339.987296
340.734289
326.016558
328.042238
340.373812
340.280103
328.526449
323.198399
328.837004
340.214892
340.482079
328.880477
323.341427
328.887016
340.134421
340.438799
327.558471
322.524128
328.973015
339.923812
340.389491
325.515455
321.281245
327.868058
339.891438
340.618681
324.55158
324.877439
340.020678
340.4181
325.723699
325.92719
340.046045
340.387229
326.38404
327.186012
340.206826
340.22402
326.786182
322.764117
328.79738
339.680036
340.769976
326.472745
327.036356
339.591438
340.40797
325.676852
327.737342
338.970537
339.606327
339.460942
322.741483
317.461939
327.132656
334.467062
339.499866
339.547538
321.645021
320.172312
322.731529
327.267137
339.827625
340.423867
325.49781
327.172962
340.03709
340.129414
324.901165
322.244563
328.863722
339.90038
340.837719
325.707427
326.533959
340.200544
340.64923
326.932018
327.322528
340.373155
340.629863
327.510978
329.111733
340.356783
340.325055
326.019153
323.831857
328.819144
339.96773
340.613475
325.087865
322.947966
328.922291
340.092165
340.522238
324.442887
322.554057
328.921464
340.070313
340.522613
324.084219
322.157481
328.843071
340.154095
340.87067
326.091922
328.33612
340.221619
340.320304
324.797497
322.720223
328.783744
340.052863
340.810553
326.810298
328.743306
340.180546
340.232528
325.583662
323.147845
329.096116
339.778521
340.07993
324.08454
320.691538
329.296263
339.673753
339.867962
339.489097
340.123045
321.094999
318.963317
322.201917
327.62318
)
;

boundaryField
{
    closed
    {
        type            fixedValue;
        value           uniform 400;
    }
    open
    {
        type            zeroGradient;
    }
    sides
    {
        type            empty;
    }
    procBoundary0to1
    {
        type            processor;
        value           uniform 339.730992;
    }
}


// ************************************************************************* //
