/*--------------------------------*- C++ -*----------------------------------*\
| =========                 |                                                 |
| \\      /  F ield         | OpenFOAM: The Open Source CFD Toolbox           |
|  \\    /   O peration     | Version:  2306                                  |
|   \\  /    A nd           | Website:  www.openfoam.com                      |
|    \\/     M anipulation  |                                                 |
\*---------------------------------------------------------------------------*/
FoamFile
{
    version     2.0;
    format      ascii;
    arch        "LSB;label=32;scalar=64";
    class       volScalarField;
    location    "0.0005";
    object      prefDh_H2;
}
// * * * * * * * * * * * * * * * * * * * * * * * * * * * * * * * * * * * * * //

dimensions      [1 1 -3 0 0 0 0];

internalField   nonuniform List<scalar> 
530
(
38.4828681
27.6473509
24.6288803
37.9459738
38.4750104
28.5143812
25.9838609
38.3629466
38.13079
29.1935012
23.3958185
23.9974402
38.4234755
37.8916811
29.0688703
22.3661361
23.1452888
38.292218
38.5244801
27.804639
25.1993442
38.5865657
38.5149595
27.7573309
27.1005178
38.6205495
38.3628135
29.975692
28.8659913
27.4386107
24.0194291
25.0135442
38.6802346
37.8945514
28.9104374
23.7040076
25.5395165
38.5033728
38.3869627
27.4298344
25.7224565
38.8458453
38.1551602
26.5676931
26.6708433
38.9825327
38.088503
28.9020801
23.9936861
27.7088773
38.7473484
38.0835591
28.8137497
23.8799888
27.1871334
38.8675754
38.0677021
28.7965817
23.0500046
26.986936
38.8340707
38.0215042
28.8574048
23.3192497
29.0420969
38.2121541
37.9685602
24.3828754
25.3439279
38.3070483
37.6209352
24.4533967
24.2890449
38.7320223
37.5822406
25.2338517
27.3493468
38.840592
37.9038437
28.8585337
23.5671147
28.9236079
38.8630594
38.0633545
28.9012506
22.8316607
29.5189752
37.2585575
28.3226508
28.2023881
39.3083254
37.8813959
28.6316164
23.4649402
28.8978144
38.4871173
38.0570012
24.6807344
25.9851617
38.7473824
37.9740642
24.9347645
27.1936731
39.0039709
38.0183424
28.7531534
24.9860528
28.7894601
38.5205031
38.3304881
29.0828858
25.2597963
23.4069696
26.8415111
38.5667197
38.0561463
25.2637118
28.1620767
38.8985961
37.8441157
28.7993469
23.0046945
28.5228559
38.430268
38.2679731
25.6770246
28.3681295
38.8383876
37.8576011
29.0449016
21.5938055
27.6558411
38.2844057
38.1929613
24.2189832
26.2232812
38.4275927
37.8952588
24.7709178
26.5729937
38.4922615
37.8973825
24.9132831
26.8703003
38.5661072
37.9746607
25.4582589
28.2156795
38.7641375
37.7679253
27.6219331
20.6763542
27.3487523
38.1510557
38.1302226
23.9718167
26.0594503
38.3283833
37.7627896
24.356253
26.3138119
38.4106409
37.758481
24.4053073
26.3767948
38.459445
37.818778
24.6549925
26.8136639
38.5697995
38.0539274
25.6858748
28.7230302
38.8080208
38.1596941
29.0828257
25.521316
25.2813473
29.3488474
38.2890136
38.1488662
23.0817319
25.0397114
38.4741615
37.98155
24.8464263
27.995797
38.8414338
37.7440542
29.0322025
22.4459764
27.9847872
38.3001389
38.3373245
25.2208405
27.9886092
38.8976964
37.8220496
28.9387004
21.8678553
27.200023
38.2959099
38.1959252
24.3067277
26.1531347
38.4411032
37.8460911
25.0837567
26.8518344
38.5662751
38.0431616
25.1910416
27.7735923
38.9995552
38.1948173
28.7819972
24.2380181
24.5199317
31.2615496
38.1340124
28.676918
23.7419961
28.7604513
38.2285077
38.4640539
24.0541216
26.1809762
39.0773587
38.1902945
28.737517
25.2768115
28.8152713
38.5453269
38.4210086
29.1018359
25.6351079
23.6790429
26.3566968
38.4921303
38.0688321
24.5915576
26.8303319
38.9623449
37.9693787
28.7774361
23.0634917
26.523254
38.587725
38.144976
24.7966155
26.3787566
38.6792542
38.1552814
26.4106641
28.2243898
38.9597134
38.4078624
28.8599631
26.4477504
25.7299194
28.7150723
38.6126437
38.6169548
29.3168729
25.5515339
23.1725414
26.3930219
38.186721
38.2079664
34.2783613
24.5220687
24.8709883
38.6725683
37.8143076
25.2463591
27.4460803
38.8580477
37.9146984
28.9454142
22.0343907
27.0259137
38.2762052
38.1546243
25.8786595
28.5046802
38.8215236
38.0050184
28.978456
21.9396794
26.9498308
38.1670588
37.9516524
24.7293589
27.3099766
38.3064485
37.541352
24.9120705
27.3816011
38.383828
37.1264137
24.7871578
28.2176275
38.4192535
35.0377461
25.2954394
29.1574634
38.4626817
30.8182804
26.8620102
29.0001473
38.4965232
35.71934
29.3210956
24.9728001
23.7769043
28.7843373
38.0476617
31.8665911
24.1503046
28.0281748
38.4920413
38.6896378
28.678202
23.5387487
28.5734828
38.1509144
29.4291216
24.7443113
28.8510166
38.239399
29.0836763
24.6436937
29.0313698
38.2720339
28.8621366
24.5373753
29.3398549
38.1999844
28.7576602
25.4327124
30.2828822
38.0820677
30.9815727
25.2756948
22.8619222
29.2760394
38.0041895
28.9193128
26.1171832
30.9891276
38.0655808
31.0320861
25.4085214
23.0994074
29.5399898
38.0085272
28.8547642
26.0215708
31.1341207
38.0351791
31.157445
25.597424
23.3521298
29.8527501
38.1581625
28.8785838
26.7707461
31.1826904
38.3558554
31.8923838
28.9843247
25.5735835
25.5265027
31.266134
37.8976541
31.041979
25.9755518
23.7902495
30.3798259
38.0568414
28.8647232
25.0097598
30.6764913
38.1918143
28.7136934
25.4095633
30.6603805
37.9583783
31.6123356
26.3472524
24.0135164
30.377864
37.8211896
30.3961396
26.1933881
25.1490392
31.8834444
37.9513798
30.8665906
27.010549
25.3126266
31.50364
37.9564134
30.5237386
26.3765428
24.9373098
31.3480391
37.8704962
30.2933489
25.776985
24.3560702
31.2961181
38.0350602
28.9573962
25.6790079
30.8387611
37.9020556
30.3789223
25.3795387
23.4887389
30.3504392
37.9360402
28.9483098
26.4399145
31.0966408
37.8476006
29.8627461
25.8605098
24.6564058
31.1993141
37.9848427
29.059438
26.7260394
31.2806355
37.9009076
29.8700284
24.9163968
23.3031038
30.7439094
37.9893658
28.9087982
26.3206255
31.2015982
37.8559463
29.9740899
25.2587255
23.7297812
31.0920712
38.0222983
28.9536383
26.5884541
31.4212613
37.822045
29.5258708
25.0461656
23.6643983
31.2359285
38.0134587
28.9281677
25.5144354
30.9194423
38.0578847
28.747888
25.1707016
30.9455539
38.0150006
28.8198684
26.1724589
31.5808617
37.815962
29.3569555
24.333069
23.3102013
32.1989793
38.1608984
29.0213275
26.75859
32.1897678
37.9640737
29.2585913
24.3458775
23.6659467
32.6055176
38.2396806
29.0493503
26.7603363
32.6997633
38.010761
29.1142832
23.7279997
23.2338806
33.0320234
38.407548
29.1407048
27.5288187
33.730088
33.0152148
26.0222619
26.4624988
36.6849445
38.7527064
28.9756116
25.4150446
32.4974629
37.9800393
29.1173334
23.907517
23.5379901
33.538909
38.4184496
29.1721633
26.7472933
33.6486203
38.2249884
29.1460118
25.0161191
24.6722136
35.0146621
38.1615011
29.1341585
24.110542
23.9030245
34.6824566
38.4737991
29.2636223
26.7703344
34.6894282
38.1976006
29.0287785
23.0705733
)
;

boundaryField
{
    closed
    {
        type            calculated;
        value           nonuniform List<scalar> 0();
    }
    open
    {
        type            calculated;
        value           nonuniform List<scalar> 0();
    }
    sides
    {
        type            empty;
    }
    procBoundary2to1
    {
        type            processor;
        value           uniform 37.3813157;
    }
    procBoundary2to3
    {
        type            processor;
        value           uniform 28.9556885;
    }
}


// ************************************************************************* //
