/*--------------------------------*- C++ -*----------------------------------*\
| =========                 |                                                 |
| \\      /  F ield         | OpenFOAM: The Open Source CFD Toolbox           |
|  \\    /   O peration     | Version:  2306                                  |
|   \\  /    A nd           | Website:  www.openfoam.com                      |
|    \\/     M anipulation  |                                                 |
\*---------------------------------------------------------------------------*/
FoamFile
{
    version     2.0;
    format      ascii;
    arch        "LSB;label=32;scalar=64";
    class       volScalarField;
    location    "0.00048";
    object      H2O;
}
// * * * * * * * * * * * * * * * * * * * * * * * * * * * * * * * * * * * * * //

dimensions      [0 0 0 0 0 0 0];

internalField   nonuniform List<scalar> 
531
(
0.00668604751
0.00104658983
0.001050141
0.00583858305
0.00743319869
0.00607394741
0.000973653402
0.00219259696
0.00716353349
0.00654082227
0.0010623222
0.00106287518
0.00573945135
0.00734704245
0.00675418693
0.00104140205
0.00103488121
0.00601894848
0.00744314677
0.00579837648
0.000984148573
0.0025880274
0.00721081775
0.00645313859
0.0010686895
0.00106072196
0.0057693277
0.00731024753
0.00665891845
0.00104867829
0.00103228417
0.00598984361
0.00732247636
0.0065186238
0.00103438247
0.00101594557
0.00703827605
0.00708347543
0.000744865073
0.0010281805
0.00517514707
0.00736464089
0.00676162772
0.00104182693
0.00101313627
0.00597784958
0.00739977442
0.00660974219
0.00104137742
0.00102248102
0.00658831212
0.00703238866
0.00322779907
0.00103656357
0.00350566967
0.00740404737
0.00699943375
0.000965580335
0.00100855188
0.0057121889
0.00733701123
0.00658297794
0.00104651586
0.00101673655
0.00622710922
0.00710791427
0.00530231201
0.0010452888
0.000965662257
0.00729190901
0.00738619985
0.00254681416
0.000999232943
0.004704218
0.00737628123
0.00663811108
0.00101893502
0.000992412026
0.00693339119
0.00711282182
0.000758552973
0.000981242073
0.00666952728
0.00705304808
0.00104083296
0.00101356332
0.00510842209
0.00739407715
0.00669746551
0.00102009332
0.000993456177
0.00676497578
0.00717446052
0.00289957938
0.00100848396
0.0044257996
0.00732556013
0.00666425104
0.00102587517
0.000993572021
0.00694171713
0.00723654716
0.0014852893
0.000984661475
0.00669412298
0.00688367721
0.000875340902
0.00103865068
0.00471252741
0.00744988088
0.00706662705
0.000952267882
0.00097241724
0.00676971172
0.00671255211
0.000925057623
0.00110728064
0.00309181275
0.00670648916
0.00705425938
0.00744646727
0.00707571139
0.000997008375
0.000990256592
0.00676917941
0.00664853097
0.00100466929
0.00105985431
0.00474460013
0.00739626339
0.00703460795
0.000966109324
0.000978771875
0.00689457084
0.00682249563
0.00101468933
0.00103531264
0.00540394625
0.00756311049
0.00712321628
0.000972252941
0.000989484333
0.0069115703
0.00686734248
0.00100774266
0.00104732365
0.0051774017
0.00740861766
0.00703727048
0.00100553912
0.00102797312
0.00545982022
0.00755410517
0.00727337009
0.000984944698
0.00101642372
0.00687230099
0.00703671262
0.000955644468
0.00102873051
0.00687745181
0.00696855303
0.000965815275
0.00105088943
0.00520752616
0.00741167514
0.00727727746
0.000980753846
0.00104456432
0.0067270866
0.00693200351
0.000958634666
0.00104703533
0.00570201478
0.00754933905
0.00743451444
0.000969982576
0.0010463477
0.00664265798
0.00694742122
0.000939194143
0.00105697026
0.00550512727
0.00746889899
0.0073911633
0.000956481948
0.00105537052
0.0065300093
0.00690277397
0.000911329846
0.00106168833
0.00540611755
0.00741439797
0.00738190138
0.000941604419
0.00105926822
0.00639351701
0.00682987658
0.000878303174
0.00107500886
0.00502546102
0.0072385077
0.00723304179
0.000942520412
0.0010797786
0.00502395801
0.00684101514
0.00722891751
0.00723699867
0.00082358524
0.0010630671
0.00622384829
0.00675079442
0.000827321021
0.00107786165
0.00478767058
0.00719740309
0.007212196
0.000875287713
0.00105638475
0.00485299863
0.00733296955
0.00733397862
0.000836570149
0.00105542762
0.00618230499
0.0068424583
0.000769951443
0.00105867223
0.00500901701
0.00731216318
0.00731957277
0.000829556033
0.00104452849
0.00495189643
0.00741642115
0.0074296498
0.000802589491
0.00103660388
0.00627029904
0.00702378624
0.000984642046
0.00103180982
0.006312507
0.00704563301
0.00123558383
0.00102789846
0.00624054506
0.00697107724
0.00105265562
0.00102782516
0.00519650407
0.00754714212
0.00755285207
0.000776848495
0.00101444178
0.00614512901
0.0070333525
0.00163475768
0.00101409215
0.00607059729
0.00691887496
0.00130740479
0.00103011909
0.00499728834
0.00750501085
0.00748887496
0.000794845437
0.000999570522
0.00612992902
0.00702378575
0.00175546567
0.00098504462
0.0061039157
0.00700048402
0.00159439247
0.00103011692
0.00504808337
0.00714151433
0.00595106499
0.000930099381
0.00108592397
0.00369205398
0.0067577099
0.00688330385
0.00718922478
0.00660511623
0.000877632906
0.00108155681
0.00357960216
0.0071109455
0.00711943339
0.000879719438
0.00105039784
0.00415852154
0.00720408973
0.0072079887
0.000730456508
0.00104365168
0.00427718852
0.00725506654
0.00718155139
0.000835045617
0.000958444799
0.00632407355
0.00696099974
0.00160987425
0.00103505616
0.00417480293
0.00728379538
0.00710242797
0.000839410004
0.000915176804
0.00650764075
0.00700799818
0.00146673089
0.00104720551
0.00395915828
0.00718056563
0.00718472169
0.000744818661
0.00102162016
0.0044077031
0.00748481273
0.00747692545
0.000730683766
0.00103687751
0.00425154768
0.0070927905
0.00709713093
0.000789386889
0.00105775957
0.0039733505
0.00711583321
0.00712120814
0.000778676773
0.00105317543
0.00401765299
0.00709374276
0.00708495521
0.0008266571
0.00105805455
0.00413603418
0.00681632626
0.00739152053
0.00697674123
0.000861680931
0.000886650768
0.00663739728
0.00682032686
0.000766249382
0.00106633937
0.00381738677
0.00712591109
0.00713950357
0.000740807975
0.00102834928
0.00420872624
0.00732175543
0.00680228046
0.000855385475
0.00151627589
0.00680802083
0.00620716013
0.000938207969
0.000998158788
0.00573546861
0.00747931857
0.00659008913
0.000864029741
0.00225195341
0.00678857802
0.0056126972
0.000967344828
0.000965616106
0.00608319246
0.00748026878
0.00647778917
0.000866836595
0.00258559653
0.00679013892
0.00537622273
0.00097361694
0.000938913698
0.0062079723
0.00744618808
0.00655412649
0.000854119207
0.00266053969
0.00677471321
0.00512687939
0.000978821634
0.000870197828
0.00628264903
0.00745917779
0.00664293239
0.000828069493
0.00275235168
0.00691131331
0.00477081585
0.000949155482
0.00356086931
0.00695600043
0.00533846417
0.000920078373
0.00256534004
0.00696805387
0.00645127049
0.000855010855
0.00109384623
0.00692718665
0.0068547458
0.000816200064
0.000793996578
0.00686880619
0.00681282746
0.000814937114
0.000916904879
0.00681092502
0.00655987799
0.000834618113
0.00115680412
0.00674559974
0.00686301211
0.000934741245
0.000973869979
0.00509214361
0.00748752342
0.00680908646
0.000770940257
0.00175088845
0.00683814265
0.00625471889
0.000836866065
0.00216983514
0.00675488943
0.00582503322
0.000871724752
0.00176847614
0.00668003636
0.00683655513
0.0015035251
0.000971925153
0.00511413215
0.0074728416
0.00550751809
0.000866681215
0.00284469322
0.00675959723
0.0067909252
0.00117522166
0.000993211293
0.00508922997
0.00741938509
0.0050538369
0.000886568313
0.00181784229
0.00684373667
0.00741626344
0.00459155138
0.000922317159
0.00439620858
0.00685551785
0.00384266373
0.000962777347
0.00459906011
0.00681416852
0.00350917208
0.000966579789
0.00329738195
0.00706147059
0.00739874898
0.00387195583
0.000949938369
0.00484624632
0.00698698122
0.00356968162
0.000965701236
0.0049553052
0.00688771628
0.00327075732
0.000997831024
0.00489844882
0.0066474787
0.00275776543
0.00103358387
0.00391417617
0.00655310106
0.00704457499
0.00706530864
0.00272812787
0.00100948825
0.00415838453
0.00709861746
0.00724084856
0.00256795428
0.00102350937
0.00515688199
0.00678628249
0.00257141722
0.00101428487
0.00433725441
0.0071026567
0.00726261039
0.00242067361
0.0010172233
0.00542262663
0.00704211308
0.00288669156
0.000990871292
0.00551208738
0.00706700157
0.00281984288
0.000997886028
0.00556063579
0.00700167614
0.00252481804
0.00100758683
0.00482497968
0.00717934136
0.00709399816
0.00081477083
0.00104164121
0.00586092472
0.00754751814
0.00346705536
0.000940454979
0.00571990986
0.00721186719
0.00289869271
0.000994996377
)
;

boundaryField
{
    closed
    {
        type            calculated;
        value           nonuniform List<scalar> 0();
    }
    open
    {
        type            calculated;
        value           nonuniform List<scalar> 0();
    }
    sides
    {
        type            empty;
    }
    procBoundary1to0
    {
        type            processor;
        value           uniform 0.00714913515;
    }
    procBoundary1to2
    {
        type            processor;
        value           uniform 0.00561769298;
    }
}


// ************************************************************************* //
