/*--------------------------------*- C++ -*----------------------------------*\
| =========                 |                                                 |
| \\      /  F ield         | OpenFOAM: The Open Source CFD Toolbox           |
|  \\    /   O peration     | Version:  2306                                  |
|   \\  /    A nd           | Website:  www.openfoam.com                      |
|    \\/     M anipulation  |                                                 |
\*---------------------------------------------------------------------------*/
FoamFile
{
    version     2.0;
    format      ascii;
    arch        "LSB;label=32;scalar=64";
    class       volScalarField;
    location    "0.00048";
    object      prefDZ_H2;
}
// * * * * * * * * * * * * * * * * * * * * * * * * * * * * * * * * * * * * * //

dimensions      [1 -1 -1 0 0 0 0];

internalField   nonuniform List<scalar> 
531
(
6.21448352e-05
6.36405592e-05
6.35254427e-05
6.2268921e-05
6.14454061e-05
6.2295614e-05
6.35622361e-05
6.28314355e-05
6.17012826e-05
6.22777319e-05
6.36244227e-05
6.35593593e-05
6.22865215e-05
6.15322191e-05
6.20810416e-05
6.36703412e-05
6.35458366e-05
6.22616127e-05
6.14359588e-05
6.22812377e-05
6.35594149e-05
6.2720834e-05
6.16572587e-05
6.23388434e-05
6.36281719e-05
6.35689876e-05
6.22821831e-05
6.15662288e-05
6.21679013e-05
6.36596817e-05
6.3565103e-05
6.2276409e-05
6.1551934e-05
6.22948764e-05
6.35848976e-05
6.35915083e-05
6.18155106e-05
6.17764274e-05
6.33163824e-05
6.35193201e-05
6.233062e-05
6.15119495e-05
6.2074552e-05
6.36406745e-05
6.35501358e-05
6.22836612e-05
6.14790949e-05
6.22123151e-05
6.36301736e-05
6.35965018e-05
6.22333252e-05
6.18235899e-05
6.256749e-05
6.35240885e-05
6.25062789e-05
6.14724963e-05
6.185489e-05
6.36131228e-05
6.35275703e-05
6.23051272e-05
6.15377148e-05
6.22374734e-05
6.36395448e-05
6.35790979e-05
6.22931981e-05
6.17528413e-05
6.2300582e-05
6.35638872e-05
6.3586077e-05
6.15797505e-05
6.14894184e-05
6.27325183e-05
6.34897907e-05
6.23307166e-05
6.14982979e-05
6.21867802e-05
6.35829303e-05
6.35799179e-05
6.19138412e-05
6.17484219e-05
6.3322844e-05
6.35403545e-05
6.21603889e-05
6.18031678e-05
6.31968574e-05
6.35057936e-05
6.23134323e-05
6.14830109e-05
6.21327932e-05
6.36082891e-05
6.35835277e-05
6.20716422e-05
6.16895872e-05
6.26424249e-05
6.35172119e-05
6.23549738e-05
6.15484274e-05
6.21631026e-05
6.35884998e-05
6.35924604e-05
6.19072698e-05
6.16331502e-05
6.30447945e-05
6.35560097e-05
6.21375315e-05
6.19616681e-05
6.35518378e-05
6.35045694e-05
6.23365748e-05
6.14269432e-05
6.17933246e-05
6.35451417e-05
6.35614163e-05
6.20670275e-05
6.21201557e-05
6.35446182e-05
6.35383518e-05
6.26009786e-05
6.21260225e-05
6.18014629e-05
6.14327506e-05
6.1782937e-05
6.35623814e-05
6.3558071e-05
6.20678775e-05
6.21796473e-05
6.36260823e-05
6.35082498e-05
6.23338416e-05
6.14790117e-05
6.18225494e-05
6.35634141e-05
6.35593956e-05
6.19519102e-05
6.20183601e-05
6.36327306e-05
6.35111479e-05
6.22953947e-05
6.13203179e-05
6.17405812e-05
6.35543818e-05
6.35747561e-05
6.19362691e-05
6.19768114e-05
6.36091841e-05
6.35288748e-05
6.23128717e-05
6.14707456e-05
6.18192673e-05
6.3602284e-05
6.35251945e-05
6.22981049e-05
6.13299473e-05
6.16006568e-05
6.35312617e-05
6.35830358e-05
6.19724818e-05
6.18202171e-05
6.35215611e-05
6.35783176e-05
6.196795e-05
6.18830621e-05
6.35630269e-05
6.35367976e-05
6.23070877e-05
6.14671613e-05
6.15969052e-05
6.35409592e-05
6.35911102e-05
6.21061585e-05
6.19171521e-05
6.35410041e-05
6.35432966e-05
6.22977635e-05
6.13367333e-05
6.14497203e-05
6.35245775e-05
6.35918524e-05
6.21834356e-05
6.19029489e-05
6.35179623e-05
6.35480987e-05
6.23007241e-05
6.14132721e-05
6.14904515e-05
6.35156831e-05
6.36001715e-05
6.22864647e-05
6.19444593e-05
6.34930545e-05
6.35570658e-05
6.23053026e-05
6.14650508e-05
6.14991037e-05
6.35049356e-05
6.36079047e-05
6.23392563e-05
6.20117894e-05
6.34692124e-05
6.35656829e-05
6.23285895e-05
6.16311352e-05
6.16370796e-05
6.35069742e-05
6.35845226e-05
6.2334525e-05
6.20015253e-05
6.1638118e-05
6.16344731e-05
6.3397971e-05
6.3596469e-05
6.23708687e-05
6.20846203e-05
6.34188676e-05
6.35632516e-05
6.23568964e-05
6.16691422e-05
6.16555074e-05
6.34452012e-05
6.35491905e-05
6.23415352e-05
6.15405455e-05
6.15434907e-05
6.33990536e-05
6.36001952e-05
6.23708696e-05
6.20001969e-05
6.33888964e-05
6.35598242e-05
6.23495952e-05
6.1559625e-05
6.15541228e-05
6.34044725e-05
6.35332433e-05
6.23440508e-05
6.1458704e-05
6.14518904e-05
6.33655346e-05
6.35823683e-05
6.24033266e-05
6.18326019e-05
6.32218086e-05
6.35842951e-05
6.24109019e-05
6.1811946e-05
6.31356667e-05
6.35763837e-05
6.23934904e-05
6.18806941e-05
6.32010821e-05
6.35196328e-05
6.23444021e-05
6.13294927e-05
6.13339169e-05
6.32889991e-05
6.35668634e-05
6.23835783e-05
6.18231027e-05
6.30033886e-05
6.35742375e-05
6.23622437e-05
6.19291338e-05
6.3113514e-05
6.3518591e-05
6.23499117e-05
6.13701716e-05
6.13944396e-05
6.32838554e-05
6.35719198e-05
6.23715725e-05
6.18315943e-05
6.29642576e-05
6.35756834e-05
6.23467621e-05
6.18534065e-05
6.30198218e-05
6.35504879e-05
6.23085548e-05
6.17205632e-05
6.22343227e-05
6.34470076e-05
6.36464048e-05
6.24868256e-05
6.20781202e-05
6.19626101e-05
6.16740401e-05
6.22173635e-05
6.34136105e-05
6.35916949e-05
6.25117307e-05
6.17483528e-05
6.17420518e-05
6.32565949e-05
6.35407863e-05
6.24291986e-05
6.16598745e-05
6.16584333e-05
6.33536786e-05
6.35419002e-05
6.24108281e-05
6.16124233e-05
6.16814871e-05
6.34159165e-05
6.35682724e-05
6.23662675e-05
6.18894717e-05
6.30135376e-05
6.35326988e-05
6.24150375e-05
6.15856409e-05
6.17562917e-05
6.34231777e-05
6.3543872e-05
6.23094427e-05
6.1844869e-05
6.30579474e-05
6.35278e-05
6.24523771e-05
6.16824627e-05
6.16798429e-05
6.3391083e-05
6.35427454e-05
6.2387194e-05
6.1391903e-05
6.14053537e-05
6.33191882e-05
6.35285032e-05
6.24166205e-05
6.17646531e-05
6.1761685e-05
6.34193171e-05
6.35447682e-05
6.24476789e-05
6.17432543e-05
6.17394635e-05
6.34045433e-05
6.35478725e-05
6.24407439e-05
6.17641701e-05
6.17739928e-05
6.34408303e-05
6.36085236e-05
6.24297588e-05
6.20240649e-05
6.14812831e-05
6.18735383e-05
6.34200172e-05
6.34923032e-05
6.21903835e-05
6.20198801e-05
6.33459585e-05
6.35438287e-05
6.24730448e-05
6.17337157e-05
6.17225832e-05
6.33967945e-05
6.35547117e-05
6.24059679e-05
6.15499449e-05
6.20371937e-05
6.34410394e-05
6.30356961e-05
6.2031552e-05
6.23317706e-05
6.35043111e-05
6.35874234e-05
6.22637758e-05
6.13960074e-05
6.22314603e-05
6.34238194e-05
6.28133354e-05
6.20497988e-05
6.2281461e-05
6.35175333e-05
6.35694153e-05
6.22580964e-05
6.13924813e-05
6.23094505e-05
6.34126669e-05
6.27221511e-05
6.20483792e-05
6.22816763e-05
6.35124229e-05
6.35400273e-05
6.2267596e-05
6.14226151e-05
6.2264502e-05
6.33932508e-05
6.27029193e-05
6.20627073e-05
6.22913213e-05
6.35077696e-05
6.34193063e-05
6.22723853e-05
6.14083769e-05
6.21838188e-05
6.33721485e-05
6.26793613e-05
6.19354557e-05
6.22833822e-05
6.34686228e-05
6.24951526e-05
6.18942722e-05
6.22422373e-05
6.34423099e-05
6.27274687e-05
6.1882321e-05
6.23401209e-05
6.33765089e-05
6.31728739e-05
6.19203244e-05
6.19870471e-05
6.33438675e-05
6.33643295e-05
6.19748872e-05
6.20263661e-05
6.33402428e-05
6.32325753e-05
6.20289185e-05
6.2261561e-05
6.333058e-05
6.31459788e-05
6.20896389e-05
6.1979395e-05
6.32297009e-05
6.35476139e-05
6.22867376e-05
6.13891085e-05
6.20309678e-05
6.32842478e-05
6.2960431e-05
6.20033943e-05
6.23090052e-05
6.33338636e-05
6.28358017e-05
6.20811171e-05
6.22575651e-05
6.33477039e-05
6.29510638e-05
6.21506556e-05
6.20047006e-05
6.30394935e-05
6.35501346e-05
6.22788803e-05
6.14080261e-05
6.21844931e-05
6.33432889e-05
6.26586105e-05
6.20760585e-05
6.20471e-05
6.31414749e-05
6.35385184e-05
6.22977335e-05
6.14574549e-05
6.22283282e-05
6.33646399e-05
6.29325644e-05
6.19989702e-05
6.14600527e-05
6.23002251e-05
6.34204821e-05
6.2377136e-05
6.19879951e-05
6.24177313e-05
6.34697022e-05
6.2357428e-05
6.20262414e-05
6.24887048e-05
6.3458469e-05
6.25631947e-05
6.17965067e-05
6.14809911e-05
6.2413922e-05
6.34819043e-05
6.23298705e-05
6.18668275e-05
6.24716724e-05
6.35147302e-05
6.23233911e-05
6.19585259e-05
6.25426869e-05
6.3529545e-05
6.23444883e-05
6.21791949e-05
6.26743545e-05
6.35338874e-05
6.24590052e-05
6.22651074e-05
6.18109199e-05
6.17930059e-05
6.26821744e-05
6.34854651e-05
6.24166984e-05
6.17604931e-05
6.16301236e-05
6.27256568e-05
6.35366796e-05
6.23367469e-05
6.20519534e-05
6.27245368e-05
6.34985209e-05
6.23976511e-05
6.17555853e-05
6.16086677e-05
6.27666273e-05
6.35333602e-05
6.23253452e-05
6.18159342e-05
6.26394897e-05
6.3537068e-05
6.23057888e-05
6.1792617e-05
6.26566525e-05
6.35281917e-05
6.23059967e-05
6.18525538e-05
6.27371763e-05
6.34886883e-05
6.23370552e-05
6.16805421e-05
6.17642535e-05
6.32660067e-05
6.35572062e-05
6.23127383e-05
6.13444002e-05
6.24920169e-05
6.35164729e-05
6.22758602e-05
6.16570753e-05
6.26368299e-05
6.35225572e-05
)
;

boundaryField
{
    closed
    {
        type            calculated;
        value           nonuniform List<scalar> 0();
    }
    open
    {
        type            calculated;
        value           nonuniform List<scalar> 0();
    }
    sides
    {
        type            empty;
    }
    procBoundary1to0
    {
        type            processor;
        value           uniform 6.17154633e-05;
    }
    procBoundary1to2
    {
        type            processor;
        value           uniform 6.23102746e-05;
    }
}


// ************************************************************************* //
