/*--------------------------------*- C++ -*----------------------------------*\
| =========                 |                                                 |
| \\      /  F ield         | OpenFOAM: The Open Source CFD Toolbox           |
|  \\    /   O peration     | Version:  2306                                  |
|   \\  /    A nd           | Website:  www.openfoam.com                      |
|    \\/     M anipulation  |                                                 |
\*---------------------------------------------------------------------------*/
FoamFile
{
    version     2.0;
    format      ascii;
    arch        "LSB;label=32;scalar=64";
    class       volScalarField;
    location    "0.0017";
    object      h;
}
// * * * * * * * * * * * * * * * * * * * * * * * * * * * * * * * * * * * * * //

dimensions      [0 2 -2 0 0 0 0];

internalField   nonuniform List<scalar> 
531
(
10207.463
9940.6338
10245.845
4512.13115
-4751.98034
-4954.13977
-6203.17201
-6191.28533
9366.91777
10000.7108
-4190.56019
-5637.76746
9463.98858
10082.6947
-3512.1409
-5228.10201
9624.79533
10072.2245
-2918.3842
-5695.20537
-5701.69159
9662.64467
10150.1223
-4380.56595
-4946.72737
9173.10158
10291.5979
9928.89339
-3994.49926
-5196.66567
9105.23061
10380.4405
9783.96929
-2872.85433
-7729.58964
-6211.0444
9292.89346
10177.172
9899.44169
-3955.39605
-5085.59095
9229.93102
10437.585
9997.72908
-2499.18534
-5729.59752
-5655.30022
9847.41253
10076.5127
-3198.08252
-5433.39195
-6104.15026
-6088.5049
9212.753
10294.5875
9699.94246
-2798.46439
-5850.41212
9598.13839
10130.2441
-3686.6874
-4692.76871
9520.16831
10343.4813
-3878.30364
-3741.50084
9425.35822
-1615.37163
-5551.08001
9827.33431
10106.8071
-2796.04369
-5076.59985
9723.8548
10122.5125
-2799.62817
-5611.86558
-5183.45212
9737.32723
10366.7456
10345.4553
-3210.06404
-4654.20875
9748.00734
10153.3765
-2505.99029
-5658.17853
-4842.87327
-6953.23287
-6945.14311
9309.16778
10014.1992
9860.63713
10221.5361
10231.6789
-3579.56966
-5692.91931
-5710.69496
9649.79363
10141.6918
-3859.80938
-4811.80877
9479.97713
10290.4523
-4203.15685
-4199.12389
9368.90833
-2642.79378
-5820.10182
9602.75617
10089.2241
-3875.05439
-5088.55388
9417.79625
10220.8487
-4479.27046
-4581.62344
9264.16571
10528.5155
9903.83568
-1876.15781
-5501.81507
-5155.13111
9911.63918
10134.0143
-3012.8167
-5390.58968
-5413.52845
9860.06509
10199.7615
-3196.45965
-4452.99278
9728.32128
10339.8453
-2920.38476
-3930.75567
9812.62241
10384.0594
-2639.72173
-4089.18991
-4772.06235
-4762.49733
9487.18876
10244.1009
-4844.74575
-4865.95606
9282.97894
10399.312
9828.20791
-2784.65652
-5578.88778
9628.60366
10144.1595
-4001.94435
-4844.9851
9459.06061
10268.2135
-4492.23379
-4428.75203
9434.74244
10592.0035
9907.84005
-1229.29084
-5389.83431
-4797.21016
-5328.83226
9395.74715
10113.0787
-5040.16018
-5511.51874
9317.15904
10129.9312
-5285.79848
-5336.39492
9320.17155
10325.7226
9806.37983
-3279.5285
-6708.5241
-6037.65763
9683.3222
10075.2627
-4452.33332
-5271.33659
9575.44458
10203.1298
10401.1261
10312.045
-1296.49084
-4409.81831
-4082.1347
-5089.53701
-6143.07095
-6107.47347
9445.92209
10033.1122
10132.4458
10138.4965
-3265.84801
-4982.28571
-5295.60496
-5144.05971
9554.69867
10310.5288
10029.6739
-3498.37751
-4455.78123
9615.1278
10536.9296
10015.4008
-2266.1322
-5341.85295
-5037.21987
10012.0893
10086.895
-3556.48136
-6023.61653
-5684.87237
9818.60486
10153.2712
-4775.05534
-4824.69054
9632.26784
10455.481
9934.66386
-2812.28471
-6357.08582
-4868.30018
9735.73776
10304.3008
10128.2999
-4289.2606
-6130.9762
9841.42396
9936.29662
-4382.08469
9632.84636
10266.638
-4402.17593
-4822.202
-5467.97286
-5111.67108
9819.03432
10453.0689
9980.13463
-2768.42215
-6163.60921
-4733.84283
-7067.84678
-6508.4272
9643.17834
10037.1472
9829.27462
-5048.78845
-6338.57121
9827.84076
9992.61441
10123.7091
10127.3985
-4271.12436
-5586.38785
10134.2636
10099.143
-4226.81063
-6124.02771
-5603.74978
10025.2132
10192.278
-4764.10853
-4360.70602
10001.982
10641.6616
9984.54435
-1331.88724
-6128.72318
-4460.71147
-7168.53146
-6478.66976
9771.18922
10038.8816
9856.86946
10221.1193
9959.01482
-4222.85931
-5911.29606
-5368.38257
10122.2857
10176.0137
-4889.85522
-4229.13796
10013.4959
10604.2709
9886.8813
-2374.07393
-6182.98909
-4576.52993
-7273.66352
-6493.24414
9733.04184
9951.32326
9692.91152
-5878.53918
-6831.89267
9967.54759
9867.40789
10038.7632
9893.88624
-4887.0345
-5383.78121
10265.7483
10122.443
10464.3697
10046.5342
-2585.99742
-5205.0236
-4260.02393
-6360.94161
-5828.81899
9935.15836
9800.67663
-6282.98768
-6231.98033
9860.99032
9850.89424
9937.26391
9714.00223
-5449.37774
-6974.25301
-7332.29123
-6703.93701
9679.55174
10031.4067
9695.73924
-4879.42349
-5114.27219
9964.55055
10320.8236
9781.26691
-3897.99689
-6233.71148
-4986.55235
10008.1028
9887.89544
-5225.6205
-4494.86405
9854.33607
10476.3806
9558.25339
-2608.3505
-7521.05111
-5927.25779
-8862.36273
-8044.08826
9308.91621
9270.61528
9465.92721
9227.08673
9736.3936
9148.01743
-5268.12459
-9023.46241
-6876.30784
9133.9755
9178.20143
9045.30302
-7285.41553
-7841.8359
8308.97377
8080.8341
8270.39069
7439.16262
-6369.32444
6719.98638
7316.13566
-9189.12573
-8795.94082
5725.74056
5717.99432
5122.98263
5203.2746
4683.60022
4719.41173
4291.06481
4289.61428
3940.51327
3919.99926
3652.73393
3634.19191
3460.0264
3494.3314
3468.73146
3689.38934
4098.84311
5122.55202
5788.05366
5720.95501
5699.63032
5580.97565
5447.80477
5227.44919
4980.90269
4621.14885
4241.59026
3715.39639
3317.27289
3068.79624
3778.46285
4878.35605
5065.27225
4897.96038
4732.29895
4226.62049
3679.37884
2864.75417
1896.58496
631.221319
-732.137747
-2041.09366
-4044.71648
-5049.62682
-8852.65633
-8109.87711
1357.7178
3586.4837
17.7476036
13.48984
-2456.11085
-4092.41027
-6484.58934
-9108.26095
-12111.8818
-15609.8285
-19618.2635
-22522.4462
-24813.9661
-27392.5398
-29949.7907
-33185.0086
-36026.4224
-39956.6176
-43078.4871
-42934.702
-47639.6825
-53869.7829
-61743.8875
-67905.145
-72304.0133
-78647.8979
-84630.5296
-92728.4746
-96940.0913
-104288.82
-107717.572
-114633.569
-117681.322
-124360.264
-127004.788
-133113.595
-135085.711
-140399.268
-141870.01
-146469.719
-147534.615
-151457.373
-152443.67
-155922.283
-157284.454
-160416.055
-161982.992
-164898.132
-166739.982
-169560.263
-171805.993
-174613.398
-176987.464
-179770.068
-182168.683
-184938.864
-187265.124
-190000.324
-192138.464
-194985.408
-196967.872
-199464.003
-201052.573
-204678.571
-206493.924
-207705.356
-208572.868
-216298.942
-219414.167
-213568.243
-211545.031
-234820.888
-240233.654
-209575.442
-199763.761
-259168.826
-266648.83
-199748.392
-192208.423
-282819.682
-284139.483
-219264.067
-205988.351
-289104.643
-283023.467
-232581.935
-209107.13
-278971.336
-272683.86
-234765.184
-211718.272
-268038.779
-264061.617
-233990.771
-211765.414
-258858.397
-255841.989
-231400.663
-211410.607
-251360.979
-249182.431
-227907.552
-211061.497
-245119.391
-243651.461
-223727.099
-210520.38
-239954.078
-238799.569
)
;

boundaryField
{
    closed
    {
        type            lookUpEnthalpy;
        h0              nonuniform List<scalar> 0();
        value           nonuniform List<scalar> 0();
    }
    open
    {
        type            zeroGradient;
    }
    sides
    {
        type            empty;
    }
    procBoundary4to3
    {
        type            processor;
        value           uniform 9278.36691;
    }
    procBoundary4to5
    {
        type            processor;
        value           uniform -220031.713;
    }
}


// ************************************************************************* //
