/*--------------------------------*- C++ -*----------------------------------*\
| =========                 |                                                 |
| \\      /  F ield         | OpenFOAM: The Open Source CFD Toolbox           |
|  \\    /   O peration     | Version:  2306                                  |
|   \\  /    A nd           | Website:  www.openfoam.com                      |
|    \\/     M anipulation  |                                                 |
\*---------------------------------------------------------------------------*/
FoamFile
{
    version     2.0;
    format      ascii;
    arch        "LSB;label=32;scalar=64";
    class       surfaceScalarField;
    location    "2e-05";
    object      phi;
}
// * * * * * * * * * * * * * * * * * * * * * * * * * * * * * * * * * * * * * //

dimensions      [1 0 -1 0 0 0 0];

oriented        oriented;

internalField   nonuniform List<scalar> 
530
(
-3.8581865e-18
-4.21941144e-18
-2.90727733e-18
-4.15683632e-18
-3.33451361e-18
-2.31970276e-18
-1.96123246e-18
-3.115549e-18
-2.43066412e-18
-1.87070184e-18
-1.38502085e-18
-2.45704967e-18
-2.53431519e-18
-2.31708121e-18
-2.23839383e-18
-2.27841866e-18
-1.43081839e-18
-1.59256678e-18
-1.01573457e-18
-5.91622385e-19
-1.88271923e-18
-2.19793648e-18
-6.5656778e-19
-4.33800858e-20
3.05804066e-19
-9.48474497e-19
3.02671366e-19
1.12479588e-18
-6.72477771e-19
-4.61980871e-19
1.87104164e-19
-7.83840777e-19
-9.47292049e-19
5.95777529e-20
9.37098648e-19
6.67927066e-19
1.99847668e-19
1.42673926e-19
9.73920625e-19
-4.3462275e-19
5.98897376e-19
-9.89740068e-19
3.54705398e-20
-4.58458213e-19
-1.45186259e-18
-3.10546151e-20
6.64802797e-19
-6.93258113e-20
1.65733353e-19
-2.37515542e-19
7.66004897e-20
1.21466223e-18
3.28561674e-18
2.32717879e-18
1.86840931e-18
5.04154941e-19
2.33242255e-18
1.67439488e-18
3.71249634e-19
1.43358272e-18
2.08087171e-18
2.34248951e-19
2.42608677e-18
2.55622992e-18
2.97251527e-18
2.67105792e-18
2.54492094e-18
1.70674033e-18
3.44553114e-18
2.83239533e-18
2.01165986e-18
1.56950685e-18
2.26719418e-18
1.58960666e-18
2.19608765e-18
1.86938514e-18
5.80994481e-19
1.45733808e-18
8.74120618e-19
2.710801e-19
-1.77014525e-19
1.11107739e-18
-1.96591948e-18
-7.78422451e-19
9.54815273e-19
1.85491224e-18
1.70203262e-18
-1.3456121e-19
5.87066084e-19
2.56940505e-18
6.02990818e-19
1.13848985e-18
1.01560254e-19
1.50832353e-18
1.71346473e-18
3.24383876e-19
2.01408239e-18
2.19884146e-18
2.46989286e-18
2.08903032e-18
1.12365658e-18
1.86912541e-19
1.63080025e-18
2.2050879e-18
2.76078797e-19
4.82784777e-19
1.21606491e-18
2.30972806e-18
6.09624737e-19
8.76901759e-19
8.78251362e-19
9.91576298e-19
1.33663533e-18
2.11128574e-18
1.68169162e-18
8.58836499e-19
1.55636968e-18
1.80990575e-18
1.94804302e-18
2.14043001e-18
1.31318005e-18
1.15079157e-18
1.29103564e-18
1.48417565e-18
1.19539126e-18
1.56467538e-18
1.29232314e-18
1.07871376e-18
1.97574041e-18
9.17025657e-19
5.67853928e-19
7.84931216e-19
6.30692455e-19
6.93896014e-19
-8.47636509e-19
-9.6263638e-20
1.2633189e-20
-3.88110893e-19
3.25444068e-19
-5.98204222e-19
-1.44348996e-18
-1.05321624e-18
-7.4407727e-19
-7.41820925e-19
2.98929755e-19
-1.11997501e-19
7.5553211e-19
2.8050241e-20
-2.62968286e-20
9.7458046e-19
1.7819461e-18
-1.45423266e-19
1.1715708e-18
1.21333166e-18
1.23270371e-18
8.15168492e-19
1.02925272e-18
1.58495331e-18
9.75506795e-19
-2.57917292e-19
2.67270255e-18
2.86177144e-18
1.79840623e-18
5.68914223e-19
4.8111917e-19
8.94149032e-19
2.53589035e-18
2.02625555e-18
3.29395443e-18
2.20841836e-18
2.098365e-18
2.23821014e-18
3.28279572e-18
3.39296427e-18
3.50149302e-18
2.6829387e-18
2.69380724e-18
3.81504089e-18
5.38359951e-18
4.6131167e-18
6.20709288e-18
4.68648084e-18
6.48985124e-18
5.31383586e-18
5.59559187e-18
6.51634541e-18
4.29872014e-18
3.83767669e-18
3.38570564e-18
3.90281762e-18
5.42343704e-18
4.19791961e-18
3.87431892e-18
3.84720854e-18
3.70963823e-18
3.92464044e-18
4.17316243e-18
5.29001104e-18
4.49489804e-18
4.97224041e-18
4.98676385e-18
5.23887545e-18
5.09514141e-18
5.35363586e-18
4.81083963e-18
5.4668064e-18
4.96226499e-18
5.74982802e-18
5.42398714e-18
4.75847344e-18
6.33892214e-18
6.60084313e-18
5.35088333e-18
4.58915411e-18
5.05197917e-18
3.80777631e-18
4.79726758e-18
3.78446671e-18
2.75965957e-18
1.93751727e-18
2.28995627e-18
1.84768668e-18
3.93123612e-18
2.93451295e-18
3.66217861e-18
3.20677668e-18
3.49165671e-18
3.34166333e-18
4.70267266e-18
4.37226111e-18
3.970454e-18
3.11346277e-18
2.33328477e-18
3.73217106e-18
2.53166287e-18
2.19526379e-18
2.17494323e-18
1.54570435e-18
1.12189399e-18
1.74133037e-18
8.13700481e-19
-2.08445561e-19
-1.63333994e-19
5.16868661e-19
2.24715101e-19
1.32234301e-19
7.51342567e-19
5.29772688e-19
-1.53815144e-18
-4.78731806e-19
-6.02328012e-19
1.52467749e-19
-3.27921485e-19
-8.92400274e-21
1.99052585e-19
9.97981728e-19
1.19451535e-18
1.58337743e-18
1.64594011e-18
1.48078906e-18
1.86546823e-18
5.08767191e-19
7.25907081e-19
2.09009454e-18
2.36829155e-19
1.67289749e-18
2.62123977e-18
2.53223883e-18
2.2507993e-18
2.00508263e-18
1.95515e-18
3.17154773e-19
2.72842152e-18
2.82611911e-18
2.23652094e-18
2.97396464e-18
4.01535883e-18
4.01119431e-18
4.1246568e-18
3.19167275e-18
3.5740244e-18
4.10831116e-18
3.78411742e-18
4.87916166e-18
4.12367897e-18
2.52109955e-18
2.98146987e-18
2.04482822e-18
2.56094418e-18
9.11788836e-19
1.19868001e-18
6.78444814e-19
9.24454755e-19
1.23979543e-18
8.19377052e-19
5.39254343e-19
1.62154381e-18
1.76940418e-18
1.80764285e-18
1.85681016e-18
5.08336542e-19
-1.70516917e-19
-9.67775473e-20
-4.01015306e-19
2.37918807e-18
4.67913183e-19
9.71930648e-19
1.06067142e-18
2.02108026e-19
1.58217406e-18
2.39886714e-18
1.10568395e-18
1.97189431e-18
2.55212163e-18
2.00431098e-18
3.21814274e-18
2.45061193e-18
1.91589413e-18
1.66599562e-18
3.58584862e-19
5.49099747e-20
7.16814798e-19
9.33246862e-19
-3.38458298e-19
-7.12196555e-19
2.81053703e-19
2.09407807e-18
1.41211727e-18
2.04097139e-18
-3.33566529e-20
1.55214956e-18
4.85791854e-19
6.57667254e-19
-4.25195692e-19
-2.11424109e-19
8.29515256e-19
1.34258277e-18
5.53192086e-19
-3.99223045e-19
-6.08418261e-19
-5.83694297e-19
4.62576939e-19
-3.96038963e-19
-8.07041828e-19
-1.14341175e-18
3.39231266e-19
-1.95527424e-18
-2.23076106e-18
-2.1702518e-18
-2.72360305e-18
-2.25021228e-18
-1.24294699e-18
-1.75117033e-18
-1.77363209e-18
-1.2083359e-18
-1.30845953e-18
-1.22054669e-18
-1.08395545e-18
-1.78335051e-18
-5.57064968e-19
-1.19905097e-18
-1.91057059e-18
-1.3831113e-18
-1.89541236e-18
-3.06030641e-18
-9.69343803e-19
1.09203652e-18
-3.04230792e-19
2.93520021e-19
-8.98113661e-19
-5.03159146e-19
-4.59749892e-19
1.65920842e-19
-3.76113351e-19
-9.2830137e-19
-7.89095529e-19
-1.89373447e-18
-2.49374446e-18
-1.60284312e-18
-2.26532138e-18
-5.55807803e-19
-1.21869874e-18
-1.78290208e-18
-1.66526227e-18
-1.63354665e-18
-1.97838728e-18
-2.07480724e-18
-3.07123609e-18
-2.43944414e-18
-4.16266574e-18
-3.50780608e-18
-2.54219844e-18
-2.42666433e-18
-2.26178546e-18
-2.5838795e-18
-3.00328234e-18
-2.74756683e-18
-1.48225741e-18
-4.44355447e-19
-1.46237124e-18
-2.80353783e-18
8.91289264e-19
-9.48194489e-19
-3.06326464e-19
-3.20749513e-19
-1.60065146e-18
-1.01739188e-18
-1.56502946e-18
-4.64768173e-19
-7.63159524e-19
5.44586369e-19
-1.09478558e-19
1.66630083e-18
2.39246559e-18
1.61900766e-19
7.91070092e-19
1.86090216e-18
2.54884829e-18
1.77896918e-18
1.83525178e-18
2.68913617e-18
2.61970652e-18
2.46204826e-18
1.16070748e-18
2.18706129e-18
-1.89358087e-20
5.99587469e-21
8.40741199e-19
3.74526374e-19
7.08497555e-19
1.75363243e-18
-1.32962359e-19
1.54852273e-18
1.68459718e-18
1.81814532e-18
-3.02252852e-19
2.87144486e-18
2.82802935e-18
6.469503e-19
2.17023253e-18
3.54481951e-18
2.41929591e-18
2.06812845e-18
2.47930088e-18
1.54689224e-18
2.37446096e-18
7.86393787e-19
3.10681981e-18
8.23523488e-19
9.08508095e-19
8.5477661e-19
6.19530087e-19
1.26249229e-18
8.53782896e-19
1.75154402e-18
7.94507267e-19
2.24422902e-18
2.01875457e-18
2.96786474e-18
2.02517128e-18
2.35989579e-18
1.58812552e-18
1.51410196e-18
6.68957089e-19
-3.92707594e-19
-2.49782148e-19
2.16181099e-19
-1.04098781e-18
-2.3405345e-18
-1.61343345e-18
-1.17806894e-18
-2.64207685e-19
-1.17775909e-18
-1.41250458e-18
-1.68514453e-18
-2.08160816e-18
-3.75867684e-18
-2.93474761e-18
-4.374493e-18
-3.46403208e-18
-3.25137771e-18
-3.22155208e-18
-3.31720176e-18
-2.28654951e-18
-2.0553183e-18
-1.04281229e-18
-9.64130017e-19
-1.77641404e-18
-9.57072861e-19
-1.98922574e-18
-1.69748992e-18
-1.66658875e-18
-1.64237594e-18
-4.0161801e-20
3.16979731e-19
4.01752734e-19
-2.00952206e-19
2.50261796e-18
1.93509912e-18
9.89692028e-19
6.65636373e-19
8.13598724e-19
3.44244893e-19
2.99090574e-19
1.19466558e-18
-4.36604578e-19
1.41517996e-18
1.06928622e-18
1.74461587e-18
1.48844824e-18
1.95263405e-18
1.94892162e-18
3.54565223e-18
3.42591057e-18
2.0823906e-18
3.34515063e-18
3.93195636e-18
3.83800203e-18
3.40780122e-18
3.62953339e-18
3.79930158e-18
3.91662346e-18
2.78566763e-18
8.6964987e-19
1.08608968e-18
4.13806546e-19
4.93192208e-19
2.5400411e-19
3.51581005e-19
-6.27426534e-19
)
;

boundaryField
{
    closed
    {
        type            calculated;
        value           nonuniform List<scalar> 0();
    }
    open
    {
        type            calculated;
        value           nonuniform List<scalar> 0();
    }
    sides
    {
        type            empty;
        value           nonuniform List<scalar> 0();
    }
    procBoundary1to0
    {
        type            processor;
        value           uniform 3.06451751e-18;
    }
    procBoundary1to2
    {
        type            processor;
        value           uniform 6.76015131e-19;
    }
}


// ************************************************************************* //
