/*--------------------------------*- C++ -*----------------------------------*\
| =========                 |                                                 |
| \\      /  F ield         | OpenFOAM: The Open Source CFD Toolbox           |
|  \\    /   O peration     | Version:  2306                                  |
|   \\  /    A nd           | Website:  www.openfoam.com                      |
|    \\/     M anipulation  |                                                 |
\*---------------------------------------------------------------------------*/
FoamFile
{
    version     2.0;
    format      ascii;
    arch        "LSB;label=32;scalar=64";
    class       volScalarField;
    location    "0.00104";
    object      prefDZ_H;
}
// * * * * * * * * * * * * * * * * * * * * * * * * * * * * * * * * * * * * * //

dimensions      [1 -1 -1 0 0 0 0];

internalField   nonuniform List<scalar> 
530
(
0.000111529719
0.000108385211
0.000107850267
0.000107840973
0.000107840124
0.000107840097
0.000107840095
0.000107840095
0.000107840095
0.000107840095
0.000107840095
0.000107840095
0.000107840095
0.000107840095
0.000107840095
0.000107840095
0.000107840095
0.000107840095
0.000107840095
0.000107840095
0.000107840095
0.000107840095
0.000107840095
0.000107840095
0.000107840095
0.000107840095
0.000107840095
0.000107840095
0.000107840095
0.000107840095
0.000107840095
0.000107840095
0.000107840095
0.000107840095
0.000107840095
0.000107840095
0.000107840095
0.000107840095
0.000107840095
0.000107840095
0.000107840095
0.000107840095
0.000107840095
0.000107840095
0.000107840095
0.000107840095
0.000107840095
0.000107840095
0.000107840095
0.000107840095
0.000107840095
0.000107840095
0.000107840095
0.000107840095
0.000107840095
0.000107840095
0.000107840095
0.000107840095
0.000107840095
0.000107840095
0.000107840095
0.000107840095
0.000107840095
0.000107840095
0.000107840095
0.000107840095
0.000107840096
0.000107840096
0.000107840098
0.000107840103
0.000107840112
0.000107840141
0.000107840186
0.000107840302
0.000107840484
0.00010784095
0.000107841217
0.000107842655
0.000107845313
0.000107849018
0.000107838763
0.000107840526
0.000107885652
0.000107948959
0.000107834236
0.00010790078
0.000107764457
0.00011006569
0.000108767078
0.000106746404
0.000106572486
0.00010893949
0.000110170766
0.0001084251
0.000106441224
0.000106116127
0.000108202463
0.000110108189
0.0001103022
0.000108597595
0.000107900369
0.000106691141
0.00010598507
0.000107830633
0.000110103021
0.00011028741
0.000110209465
0.000110222659
0.000107824384
0.000104892578
0.000104968779
0.00010997493
0.000110193258
0.000107918245
0.000107280038
0.000107114781
0.00010575868
0.000106197133
0.000109834365
0.00011022649
0.000109924798
0.000110259099
0.000110175626
0.000106736162
0.000105400778
0.000108376288
0.000110018136
0.000108135752
0.000105658279
0.00010566759
0.000108786991
0.000110248573
0.000108010947
0.000106750721
0.000109924836
0.000110317347
0.000107965663
0.000106842325
0.000109937223
0.000110299608
0.000107958143
0.000106698592
0.000109991921
0.000110177804
0.000108040323
0.000105724617
0.000105712053
0.000108966129
0.000110250137
0.000108005441
0.000106781764
0.00010996038
0.000110270776
0.000108044086
0.000106839742
0.000109980372
0.000110130539
0.000108097032
0.000105654938
0.00010568493
0.00010988285
0.00011025422
0.00010800981
0.000106953413
0.000109916532
0.000110269281
0.000108065789
0.000106955381
0.000109969629
0.000110155139
0.00010810629
0.000105709232
0.000105755259
0.00010994016
0.000110256817
0.000107957585
0.000107799817
0.000105689974
0.000105757436
0.000109858705
0.000110260415
0.000108092379
0.00010703422
0.000109904726
0.000110261418
0.000108075737
0.000107001043
0.000109953053
0.000110124245
0.000108109004
0.000105745033
0.000105768712
0.000109877003
0.000110198209
0.00010807474
0.00010681792
0.000109923894
0.000110116139
0.000108068851
0.000105642555
0.000105663679
0.000109934695
0.000110092291
0.000108013194
0.000105916299
0.000105883308
0.000108563032
0.000110228622
0.000108002606
0.000106729214
0.000109903225
0.000110320179
0.0001079044
0.000106743374
0.000109891171
0.000110347293
0.000107972538
0.000106660059
0.000109495247
0.000110337094
0.000108013269
0.000106618019
0.000109188983
0.000110323369
0.000107954786
0.000106609071
0.000109116076
0.000110315422
0.000107977633
0.000106625334
0.000109335225
0.000110308435
0.000107939794
0.00010663596
0.000109962563
0.000110286114
0.000107813027
0.000106548484
0.00011000517
0.000110193802
0.000107964953
0.000105884224
0.000105788005
0.000108349113
0.000110219289
0.00010792285
0.000106735936
0.000109992668
0.000110263529
0.000107995947
0.000106804576
0.000109998234
0.000110135316
0.000108030328
0.00010562131
0.000105642654
0.000109948809
0.000110205812
0.000107990526
0.000106820371
0.000109990133
0.000110111813
0.000108077106
0.000105777231
0.000105801339
0.000109947492
0.000110284442
0.000108061363
0.000107057728
0.000109992767
0.000110336746
0.000107965001
0.000107887446
0.000105825782
0.000105872943
0.000109947631
0.000110260903
0.000108065638
0.000107039323
0.000109969478
0.000110162424
0.000108175793
0.000106027939
0.000106043397
0.000109936229
0.00011017123
0.000110057223
0.000108174283
0.000108018268
0.000105669819
0.000105686283
0.000109999611
0.000110101144
0.000108097667
0.000105977337
0.000105978942
0.000109965026
0.00011008683
0.000108151308
0.000106069768
0.000106075853
0.000109951636
0.00011008754
0.000108103236
0.000106004066
0.000105990212
0.000109987292
0.000110075234
0.00010806085
0.000105880207
0.000105930294
0.000109916786
0.000110205731
0.000108052791
0.000106846821
0.000110003088
0.000110115858
0.000107981227
0.000105610803
0.000105666277
0.000109952392
0.000110257945
0.000107918663
0.00010663267
0.000108291726
0.000110245137
0.000110257976
0.000110316696
0.000108246151
0.000107552648
0.000105160763
0.000105242266
0.000109934797
0.000110294725
0.000107669263
0.000106647501
0.00010994045
0.000110283584
0.000107912206
0.00010673263
0.000110019902
0.00011014943
0.000107932559
0.000105614829
0.000105670597
0.000109898686
0.000110261018
0.000108074814
0.000106996176
0.00010992648
0.000110262809
0.000108054973
0.000107028914
0.000109980124
0.00011014479
0.000107987998
0.000105838172
0.000105864275
0.000109985846
0.000110209004
0.000107858984
0.000107205392
0.000106709983
0.000105651342
0.000107726093
0.000110020327
0.000110408418
0.000110109862
0.000110227419
0.000108391527
0.000105629208
0.000105654857
0.00010987857
0.000110210144
0.000107917219
0.000106978407
0.000106997308
0.000105807604
0.000105726802
0.000108440845
0.00011013295
0.000110210287
0.00011019789
0.000107914828
0.000107008391
0.000109996198
0.000110167534
0.000107925845
0.000105520632
0.000105552043
0.00010986705
0.000110224298
0.000108006494
0.000106622641
0.000109935527
0.000110123208
0.000107916426
0.000105439128
0.000105486826
0.00010980957
0.000110254715
0.000107854688
0.000107449179
0.000109808935
0.00010783706
0.000105921018
0.000109903312
0.000110145946
0.000110111927
0.000107960017
0.000106689881
0.0001099018
0.000110312647
0.000110094859
0.000107856134
0.000106779738
0.000106696379
0.000105168887
0.000105260925
0.000109687204
0.000110246442
0.000107856933
0.000107062321
0.000109896373
0.000110243394
0.000110172639
0.000107973397
0.000106861459
0.000109988348
0.000110131615
0.000107898079
0.000105488303
0.000105536984
0.000109749811
0.000110270459
0.000107795535
0.000106975711
0.000109676435
0.000110279717
0.000109981657
0.000107941351
0.000105642053
0.000105694172
0.000109848805
0.000110133311
0.000107944543
0.000105796209
0.000105809582
0.000109894829
0.000110102882
0.000107961707
0.00010592831
0.000105930908
0.000109896085
0.000110107028
0.000107957394
0.000105906168
0.000105916189
0.000109889879
0.000110079415
0.000107961758
0.000105721628
0.000105743819
0.000109459424
0.000110111185
0.00010998166
0.000110099584
0.000108233332
0.00010568493
0.000105671304
0.000109913592
0.000110114584
0.000107875344
0.000105481405
0.000105544666
0.000109828425
0.000110273911
0.000107993609
0.000106782391
0.000109844969
0.000110311938
0.000107934037
0.000106833955
0.000109885264
0.000110293763
0.000107958434
0.000106703906
0.000109963121
0.000110164681
0.000107874833
0.000105628751
0.000105685486
0.000109839854
0.000110277402
0.000108048806
0.000106857536
0.000109889542
0.000110288124
0.000108040509
0.000106817703
0.000109969334
0.000110171828
0.000107881327
0.000105766896
0.000105837663
0.000109828392
0.000110277532
0.000108086171
0.000106956703
0.000109887041
0.000110276902
0.000108039732
0.000106869201
0.000109960823
0.000110148149
0.000107882831
0.000105536911
0.000105619604
0.000109776191
0.000110279875
0.000107775036
0.000106503863
0.000109812669
0.000110317102
0.000107787019
0.000106717642
0.000109843128
0.00011029951
0.000108038323
0.000106885815
)
;

boundaryField
{
    closed
    {
        type            calculated;
        value           uniform 0.000143864703;
    }
    open
    {
        type            calculated;
        value           nonuniform List<scalar> 0();
    }
    sides
    {
        type            empty;
    }
    procBoundary0to1
    {
        type            processor;
        value           uniform 0.000109908523;
    }
}


// ************************************************************************* //
