/*--------------------------------*- C++ -*----------------------------------*\
| =========                 |                                                 |
| \\      /  F ield         | OpenFOAM: The Open Source CFD Toolbox           |
|  \\    /   O peration     | Version:  2306                                  |
|   \\  /    A nd           | Website:  www.openfoam.com                      |
|    \\/     M anipulation  |                                                 |
\*---------------------------------------------------------------------------*/
FoamFile
{
    version     2.0;
    format      ascii;
    arch        "LSB;label=32;scalar=64";
    class       volVectorField;
    location    "0.00104";
    object      U;
}
// * * * * * * * * * * * * * * * * * * * * * * * * * * * * * * * * * * * * * //

dimensions      [0 1 -1 0 0 0 0];

internalField   nonuniform List<vector> 
530
(
(0.1218053 0 0)
(0.0587820579 0 0)
(-0.133454492 0 0)
(-0.224960878 0 0)
(-0.157664521 0 0)
(0.0851939922 0 0)
(0.256635508 0 0)
(0.254062055 0 0)
(0.185758648 0 0)
(0.206995047 0 0)
(0.267117853 0 0)
(0.289877266 0 0)
(0.26959335 0 0)
(0.261842239 0 0)
(0.248938973 0 0)
(0.226317663 0 0)
(0.200978714 0 0)
(0.194997788 0 0)
(0.216355266 0 0)
(0.264894075 0 0)
(0.316867164 0 0)
(0.353132765 0 0)
(0.362262638 0 0)
(0.352490397 0 0)
(0.33198601 0 0)
(0.309402913 0 0)
(0.288172122 0 0)
(0.273628406 0 0)
(0.26668157 0 0)
(0.268887055 0 0)
(0.278369344 0 0)
(0.290811319 0 0)
(0.300914428 0 0)
(0.307909406 0 0)
(0.31242163 0 0)
(0.314849443 0 0)
(0.317515313 0 0)
(0.319364796 0 0)
(0.319716161 0 0)
(0.319663758 0 0)
(0.319287565 0 0)
(0.319345874 0 0)
(0.320903079 0 0)
(0.322964481 0 0)
(0.32714698 0 0)
(0.330799059 0 0)
(0.334742062 0 0)
(0.338814525 0 0)
(0.341819184 0 0)
(0.345450956 0 0)
(0.349002803 0 0)
(0.352827401 0 0)
(0.357000598 0 0)
(0.360990692 0 0)
(0.365651348 0 0)
(0.370512208 0 0)
(0.375167326 0 0)
(0.38018815 0 0)
(0.385176536 0 0)
(0.389947126 0 0)
(0.39417101 0 0)
(0.39844874 0 0)
(0.40236345 0 0)
(0.406070913 0 0)
(0.409837962 0 0)
(0.413663093 0 0)
(0.417572939 0 0)
(0.421661624 0 0)
(0.42589002 0 0)
(0.430082441 0 0)
(0.434222043 0 0)
(0.438374079 0 0)
(0.442484766 0 0)
(0.446381743 0 0)
(0.450100197 0 0)
(0.453744633 0 0)
(0.457314131 0 0)
(0.460804956 0 0)
(0.464232074 0 0)
(0.467574983 0 0)
(0.470811138 0 0)
(0.474034956 0 0)
(0.477210972 0 0)
(0.480217799 0 0)
(0.483805059 0 0)
(0.486766201 0 0)
(0.491097218 0 0)
(0.497987783 0 0)
(0.513685986 0 0)
(0.523327637 0 0)
(0.526282432 0 0)
(0.520649388 0 0)
(0.511294125 0 0)
(0.512062135 0 0)
(0.518509548 0 0)
(0.525654804 0 0)
(0.52258241 0 0)
(0.517757009 0 0)
(0.518744537 0 0)
(0.526780589 0 0)
(0.530372633 0 0)
(0.527657139 0 0)
(0.530215893 0 0)
(0.541678472 0 0)
(0.556113499 0 0)
(0.563496953 0 0)
(0.565070166 0 0)
(0.558428067 0 0)
(0.543148638 0 0)
(0.529041755 0 0)
(0.539112692 0 0)
(0.560038355 0 0)
(0.56167598 0 0)
(0.553123671 0 0)
(0.545544113 0 0)
(0.541638294 0 0)
(0.537514831 0 0)
(0.532059504 0 0)
(0.535726985 0 0)
(0.543786284 0 0)
(0.546510704 0 0)
(0.548085714 0 0)
(0.537026576 0 0)
(0.538525867 0 0)
(0.556060882 0 0)
(0.556812824 0 0)
(0.549947307 0 0)
(0.546180801 0 0)
(0.545001455 0 0)
(0.551978161 0 0)
(0.554609973 0 0)
(0.546321341 0 0)
(0.534422222 0 0)
(0.530310584 0 0)
(0.541551232 0 0)
(0.545400695 0 0)
(0.533694406 0 0)
(0.529865272 0 0)
(0.541129724 0 0)
(0.544496322 0 0)
(0.532508106 0 0)
(0.528574915 0 0)
(0.540069456 0 0)
(0.545209817 0 0)
(0.534930844 0 0)
(0.527278361 0 0)
(0.535281542 0 0)
(0.541756277 0 0)
(0.535899413 0 0)
(0.524829367 0 0)
(0.521103111 0 0)
(0.532119109 0 0)
(0.536301188 0 0)
(0.524590809 0 0)
(0.52031045 0 0)
(0.53140224 0 0)
(0.536718394 0 0)
(0.526620129 0 0)
(0.51432796 0 0)
(0.507539619 0 0)
(0.522015891 0 0)
(0.536046205 0 0)
(0.523268421 0 0)
(0.516637157 0 0)
(0.526046745 0 0)
(0.529516005 0 0)
(0.51964933 0 0)
(0.516774785 0 0)
(0.526814461 0 0)
(0.53115448 0 0)
(0.520676736 0 0)
(0.509008151 0 0)
(0.516248951 0 0)
(0.534630332 0 0)
(0.538892933 0 0)
(0.529697222 0 0)
(0.517473181 0 0)
(0.508710574 0 0)
(0.515349744 0 0)
(0.532488567 0 0)
(0.535895153 0 0)
(0.523078454 0 0)
(0.516499949 0 0)
(0.525931526 0 0)
(0.529753959 0 0)
(0.520432284 0 0)
(0.518089912 0 0)
(0.528769057 0 0)
(0.534009832 0 0)
(0.524039401 0 0)
(0.511683919 0 0)
(0.504422564 0 0)
(0.518304688 0 0)
(0.532670486 0 0)
(0.519234501 0 0)
(0.511714526 0 0)
(0.520944037 0 0)
(0.52580728 0 0)
(0.514615483 0 0)
(0.501545144 0 0)
(0.50783821 0 0)
(0.525740875 0 0)
(0.530690114 0 0)
(0.520520578 0 0)
(0.5138785 0 0)
(0.521834579 0 0)
(0.524936818 0 0)
(0.517362526 0 0)
(0.506908504 0 0)
(0.503648631 0 0)
(0.514826736 0 0)
(0.519600308 0 0)
(0.507754244 0 0)
(0.503142946 0 0)
(0.514496372 0 0)
(0.519433481 0 0)
(0.508018191 0 0)
(0.502902787 0 0)
(0.514348357 0 0)
(0.520630906 0 0)
(0.511775423 0 0)
(0.507817318 0 0)
(0.515235428 0 0)
(0.51790689 0 0)
(0.509125866 0 0)
(0.505077412 0 0)
(0.511748722 0 0)
(0.513800766 0 0)
(0.505208696 0 0)
(0.501769189 0 0)
(0.511103877 0 0)
(0.515084045 0 0)
(0.505170832 0 0)
(0.501920163 0 0)
(0.513301918 0 0)
(0.51733656 0 0)
(0.5052472 0 0)
(0.500872288 0 0)
(0.51240327 0 0)
(0.518386095 0 0)
(0.508944206 0 0)
(0.504531722 0 0)
(0.514099628 0 0)
(0.517947488 0 0)
(0.511221094 0 0)
(0.501179011 0 0)
(0.498193288 0 0)
(0.509459895 0 0)
(0.514073811 0 0)
(0.502703793 0 0)
(0.498407325 0 0)
(0.509375127 0 0)
(0.514892584 0 0)
(0.504760266 0 0)
(0.492612199 0 0)
(0.487158722 0 0)
(0.501485584 0 0)
(0.514569086 0 0)
(0.501978598 0 0)
(0.495508935 0 0)
(0.505337973 0 0)
(0.510705928 0 0)
(0.501474016 0 0)
(0.490179282 0 0)
(0.484579129 0 0)
(0.498001448 0 0)
(0.510745597 0 0)
(0.498828212 0 0)
(0.493363662 0 0)
(0.503860166 0 0)
(0.509351089 0 0)
(0.502621552 0 0)
(0.493015861 0 0)
(0.486254027 0 0)
(0.48287666 0 0)
(0.49613233 0 0)
(0.508652613 0 0)
(0.500036536 0 0)
(0.496928259 0 0)
(0.506020842 0 0)
(0.510749495 0 0)
(0.501987924 0 0)
(0.490252415 0 0)
(0.494642821 0 0)
(0.509600711 0 0)
(0.516840498 0 0)
(0.515811181 0 0)
(0.511443293 0 0)
(0.505153218 0 0)
(0.496998722 0 0)
(0.491799712 0 0)
(0.505552906 0 0)
(0.519841015 0 0)
(0.51088918 0 0)
(0.498689019 0 0)
(0.491470169 0 0)
(0.503934102 0 0)
(0.517920912 0 0)
(0.508885856 0 0)
(0.496782948 0 0)
(0.500657994 0 0)
(0.516130545 0 0)
(0.520799746 0 0)
(0.511801035 0 0)
(0.500218714 0 0)
(0.493358037 0 0)
(0.505987009 0 0)
(0.519819066 0 0)
(0.51028215 0 0)
(0.498760285 0 0)
(0.505542688 0 0)
(0.522734477 0 0)
(0.525283549 0 0)
(0.515383504 0 0)
(0.512132754 0 0)
(0.522708701 0 0)
(0.527124022 0 0)
(0.51632554 0 0)
(0.504277721 0 0)
(0.511913469 0 0)
(0.531524667 0 0)
(0.535784071 0 0)
(0.525128543 0 0)
(0.516828778 0 0)
(0.513855546 0 0)
(0.515018104 0 0)
(0.520330608 0 0)
(0.520133919 0 0)
(0.51839605 0 0)
(0.516840178 0 0)
(0.510888461 0 0)
(0.50638851 0 0)
(0.522152303 0 0)
(0.534992665 0 0)
(0.523360284 0 0)
(0.519390133 0 0)
(0.531491712 0 0)
(0.535798242 0 0)
(0.525424956 0 0)
(0.522982737 0 0)
(0.53513968 0 0)
(0.539646739 0 0)
(0.528086419 0 0)
(0.515347814 0 0)
(0.522735154 0 0)
(0.54213668 0 0)
(0.545419147 0 0)
(0.534404769 0 0)
(0.53049596 0 0)
(0.541629251 0 0)
(0.545466726 0 0)
(0.535988553 0 0)
(0.534170104 0 0)
(0.545789583 0 0)
(0.549972039 0 0)
(0.539141124 0 0)
(0.527362437 0 0)
(0.534892191 0 0)
(0.554490317 0 0)
(0.558431533 0 0)
(0.54896205 0 0)
(0.541830462 0 0)
(0.545472036 0 0)
(0.554129094 0 0)
(0.567662666 0 0)
(0.583663014 0 0)
(0.590196802 0 0)
(0.58840659 0 0)
(0.58371738 0 0)
(0.581685966 0 0)
(0.579385216 0 0)
(0.585406107 0 0)
(0.606409504 0 0)
(0.614726155 0 0)
(0.604843167 0 0)
(0.597239724 0 0)
(0.595563521 0 0)
(0.599007034 0 0)
(0.608929773 0 0)
(0.607649195 0 0)
(0.602729999 0 0)
(0.608388297 0 0)
(0.606860184 0 0)
(0.595942953 0 0)
(0.596297809 0 0)
(0.611818115 0 0)
(0.616787981 0 0)
(0.604253697 0 0)
(0.590849286 0 0)
(0.584808631 0 0)
(0.602976491 0 0)
(0.618722191 0 0)
(0.606672405 0 0)
(0.603117494 0 0)
(0.617230776 0 0)
(0.622356426 0 0)
(0.609001481 0 0)
(0.594799304 0 0)
(0.589233126 0 0)
(0.607730704 0 0)
(0.622981442 0 0)
(0.612308352 0 0)
(0.610590368 0 0)
(0.616566324 0 0)
(0.610626469 0 0)
(0.605847098 0 0)
(0.618775422 0 0)
(0.630002076 0 0)
(0.620631504 0 0)
(0.602421439 0 0)
(0.600645991 0 0)
(0.615946501 0 0)
(0.626539949 0 0)
(0.621182799 0 0)
(0.610090861 0 0)
(0.604906104 0 0)
(0.601802732 0 0)
(0.595976127 0 0)
(0.604613209 0 0)
(0.620443113 0 0)
(0.618403173 0 0)
(0.605642814 0 0)
(0.601448115 0 0)
(0.613925329 0 0)
(0.623653894 0 0)
(0.617685481 0 0)
(0.604301023 0 0)
(0.603442488 0 0)
(0.618213871 0 0)
(0.622707103 0 0)
(0.608714688 0 0)
(0.594754799 0 0)
(0.58875099 0 0)
(0.605431799 0 0)
(0.619482119 0 0)
(0.607607431 0 0)
(0.604014772 0 0)
(0.611242735 0 0)
(0.615428476 0 0)
(0.610038541 0 0)
(0.59673042 0 0)
(0.583749344 0 0)
(0.589415666 0 0)
(0.609838555 0 0)
(0.614858905 0 0)
(0.601762253 0 0)
(0.586721845 0 0)
(0.579286895 0 0)
(0.59600287 0 0)
(0.611926013 0 0)
(0.600103182 0 0)
(0.586212372 0 0)
(0.57889872 0 0)
(0.594830066 0 0)
(0.610060267 0 0)
(0.59806929 0 0)
(0.583888876 0 0)
(0.57621988 0 0)
(0.591680691 0 0)
(0.606493866 0 0)
(0.593951695 0 0)
(0.581071339 0 0)
(0.587611825 0 0)
(0.593260873 0 0)
(0.589219911 0 0)
(0.591635521 0 0)
(0.589274912 0 0)
(0.582317513 0 0)
(0.574436483 0 0)
(0.566513264 0 0)
(0.582809012 0 0)
(0.599972592 0 0)
(0.586770135 0 0)
(0.571213682 0 0)
(0.564607579 0 0)
(0.58142492 0 0)
(0.595360218 0 0)
(0.5837271 0 0)
(0.58047763 0 0)
(0.593281575 0 0)
(0.597220727 0 0)
(0.58668845 0 0)
(0.585367708 0 0)
(0.598805193 0 0)
(0.602520762 0 0)
(0.591568987 0 0)
(0.590060839 0 0)
(0.603869806 0 0)
(0.607724792 0 0)
(0.593201434 0 0)
(0.577644658 0 0)
(0.584214703 0 0)
(0.604473133 0 0)
(0.606815246 0 0)
(0.59471373 0 0)
(0.591126527 0 0)
(0.603357498 0 0)
(0.606635856 0 0)
(0.594715996 0 0)
(0.592055701 0 0)
(0.605187245 0 0)
(0.608758632 0 0)
(0.594974421 0 0)
(0.580797426 0 0)
(0.588574617 0 0)
(0.608758331 0 0)
(0.610549357 0 0)
(0.59834116 0 0)
(0.594429984 0 0)
(0.606326177 0 0)
(0.609294262 0 0)
(0.597404714 0 0)
(0.594771966 0 0)
(0.607816478 0 0)
(0.611373203 0 0)
(0.597252726 0 0)
(0.582482009 0 0)
(0.590599772 0 0)
(0.60959091 0 0)
(0.608986226 0 0)
(0.59632428 0 0)
(0.593352658 0 0)
(0.607577027 0 0)
(0.611831704 0 0)
(0.600080226 0 0)
(0.598072929 0 0)
(0.611999516 0 0)
(0.616184438 0 0)
(0.604845407 0 0)
(0.602399304 0 0)
)
;

boundaryField
{
    closed
    {
        type            noSlip;
    }
    open
    {
        type            inletOutlet;
        inletValue      nonuniform List<vector> 0();
        value           nonuniform List<vector> 0();
    }
    sides
    {
        type            empty;
    }
    procBoundary0to1
    {
        type            processor;
        value           uniform (0.615287162 0 0);
    }
}


// ************************************************************************* //
