/*--------------------------------*- C++ -*----------------------------------*\
| =========                 |                                                 |
| \\      /  F ield         | OpenFOAM: The Open Source CFD Toolbox           |
|  \\    /   O peration     | Version:  2306                                  |
|   \\  /    A nd           | Website:  www.openfoam.com                      |
|    \\/     M anipulation  |                                                 |
\*---------------------------------------------------------------------------*/
FoamFile
{
    version     2.0;
    format      ascii;
    arch        "LSB;label=32;scalar=64";
    class       volScalarField;
    location    "0.00146";
    object      PV;
}
// * * * * * * * * * * * * * * * * * * * * * * * * * * * * * * * * * * * * * //

dimensions      [0 0 0 0 0 0 0];

internalField   nonuniform List<scalar> 
531
(
-0.00714617505
-0.00716180894
-0.00716895043
-0.00703934528
-0.00692724449
-0.00692085764
-0.00692622677
-0.00692380947
-0.00704264968
-0.00714088071
-0.00717880594
-0.00717527987
-0.00693323086
-0.00692540778
-0.00715456559
-0.00716119671
-0.00693635081
-0.006927429
-0.00693499897
-0.00692710003
-0.00702187183
-0.00714988402
-0.00715484306
-0.00717379044
-0.00717542867
-0.0070202028
-0.00692881464
-0.00692301284
-0.00712937353
-0.0071683214
-0.00692926779
-0.00692634264
-0.00715466443
-0.00715857687
-0.00692950299
-0.00692669596
-0.00692666647
-0.00712969297
-0.00715970949
-0.00692599966
-0.00692650031
-0.00706872551
-0.00713721449
-0.00714413087
-0.00715018762
-0.00716789864
-0.00718085546
-0.00704497404
-0.00692805654
-0.00692010709
-0.00692607086
-0.00692308003
-0.00692397225
-0.00705008305
-0.00715246911
-0.00718041369
-0.0071790627
-0.00692723434
-0.00692530535
-0.0071374897
-0.00715517391
-0.00692368792
-0.00692700142
-0.00707445483
-0.00716589149
-0.00716107979
-0.00692173937
-0.00692597609
-0.00706225659
-0.00715244896
-0.00714742896
-0.00717937111
-0.0071767346
-0.00698502552
-0.00692637383
-0.00692878903
-0.00692627597
-0.00692926393
-0.00702770487
-0.00717037923
-0.00716956007
-0.00692129784
-0.00692640431
-0.00708386644
-0.00717327915
-0.00716984523
-0.00692032537
-0.00692778031
-0.00708537592
-0.0071901872
-0.00717085985
-0.00692410484
-0.00692624908
-0.00692552294
-0.00713976256
-0.00716602413
-0.00691976322
-0.00692519555
-0.00710722436
-0.00714829362
-0.00717506647
-0.00717277368
-0.00692215843
-0.00692192634
-0.00715190667
-0.00715555492
-0.00692269641
-0.00692187176
-0.00715775558
-0.007146201
-0.00692363851
-0.00692308153
-0.00692834327
-0.00707520833
-0.00718456139
-0.00717147113
-0.00692144279
-0.00692729995
-0.00706960036
-0.00717371346
-0.00716122361
-0.00692311458
-0.00692309236
-0.00714175943
-0.00714137326
-0.0069210048
-0.00692433907
-0.00692482743
-0.00703232066
-0.00714236874
-0.00715038016
-0.00715123918
-0.00717773477
-0.00717760763
-0.00691793008
-0.0069280258
-0.00705285493
-0.00716806664
-0.00715589596
-0.00692391811
-0.00692258624
-0.00713826414
-0.00714557342
-0.00692404746
-0.00692305909
-0.00715634723
-0.00715208977
-0.00692541796
-0.00692448626
-0.00693018388
-0.00692469583
-0.00699978166
-0.00714755187
-0.00715901694
-0.0071750443
-0.00717360378
-0.00691982014
-0.00692590769
-0.00707427291
-0.0071403637
-0.00717545789
-0.00716863503
-0.006923703
-0.00692947042
-0.00692733786
-0.00715409698
-0.00717208369
-0.00692453611
-0.00692747765
-0.00716268955
-0.00715845028
-0.00692725401
-0.00692614038
-0.00693353676
-0.00692563658
-0.00699050181
-0.00714571001
-0.00716154766
-0.00717693934
-0.00717852422
-0.00692079777
-0.00693149748
-0.00708246145
-0.00720482839
-0.00719212675
-0.00692982807
-0.00693106625
-0.00693480077
-0.00692851713
-0.0071641846
-0.00716773814
-0.00692534667
-0.00692871246
-0.00701603709
-0.00713581304
-0.00714256334
-0.00716309962
-0.00712399322
-0.00691999843
-0.00691861828
-0.0069225417
-0.00708373425
-0.00714399711
-0.00716804991
-0.00716711704
-0.00691926544
-0.00692374812
-0.00701526275
-0.00713469903
-0.00713760255
-0.00715845747
-0.00715394102
-0.00692175747
-0.00692118418
-0.00712101443
-0.00713774299
-0.00692192
-0.00692121987
-0.00713016906
-0.00714234593
-0.00692245628
-0.00692544972
-0.00704072157
-0.00716969644
-0.00716844867
-0.00692191247
-0.00692773096
-0.00705881839
-0.00718286564
-0.00717662251
-0.00692490428
-0.00692500349
-0.0071374713
-0.00715842507
-0.00692304854
-0.0069278708
-0.00707058117
-0.00718577798
-0.00717836894
-0.00692464532
-0.00692342495
-0.00712339089
-0.00715940823
-0.00699505873
-0.00692398501
-0.00712176919
-0.00715183118
-0.00692548308
-0.00692434488
-0.00713313294
-0.00714956266
-0.00692594663
-0.0069278361
-0.00705412451
-0.00717645005
-0.00716950897
-0.00692800627
-0.0069234672
-0.00713078637
-0.007141694
-0.00692727986
-0.00692369243
-0.00705747038
-0.00713304481
-0.0071468279
-0.00716690076
-0.00707474111
-0.00693530678
-0.00692400225
-0.00693124114
-0.00715567493
-0.0071701702
-0.00695768773
-0.00692761227
-0.00692874388
-0.00710382995
-0.00716396251
-0.00715295906
-0.00715276483
-0.00717677046
-0.00712947329
-0.00692949175
-0.00692171201
-0.00692905394
-0.00692464261
-0.00692534408
-0.0070046324
-0.00715232175
-0.00717871688
-0.00704032063
-0.00692956462
-0.00704639465
-0.00720584311
-0.00719430868
-0.00693066876
-0.00692418087
-0.00692913134
-0.00706227595
-0.00715230969
-0.00715150215
-0.00715124462
-0.00717663744
-0.00712357529
-0.00693375815
-0.0069203849
-0.00693759395
-0.00692156471
-0.00697102914
-0.00712510298
-0.00720006755
-0.00718664919
-0.00693631123
-0.00692835105
-0.00714645136
-0.0071666147
-0.00696312818
-0.00693012548
-0.00693304545
-0.00692864154
-0.00714386751
-0.00717970191
-0.00693808634
-0.00693079358
-0.00707951416
-0.00718116809
-0.00717473702
-0.0069361832
-0.00692807668
-0.00704930957
-0.00717460257
-0.00716922909
-0.00693608324
-0.00692653524
-0.00703171818
-0.00716964067
-0.00716459855
-0.00693587887
-0.00692477415
-0.00704214613
-0.00717034223
-0.00716594972
-0.00693239094
-0.00692330908
-0.0070596593
-0.00718371452
-0.00717427088
-0.00693245856
-0.00691543214
-0.00714130848
-0.00716239897
-0.00692967566
-0.00691287552
-0.00716173559
-0.00717677319
-0.00692721981
-0.00690924689
-0.00691473263
-0.00690526602
-0.00690119032
-0.00690005177
-0.00709238199
-0.0072085513
-0.00719772184
-0.00689951182
-0.00688491585
-0.00688487038
-0.00711703896
-0.00714399449
-0.00690296171
-0.0068730646
-0.00689458239
-0.00686935652
-0.00689259683
-0.00699086729
-0.00688743836
-0.00684848811
-0.00685725378
-0.00683064765
-0.00683131215
-0.00681005799
-0.00680600018
-0.0067862325
-0.00677881895
-0.0067576717
-0.00674473353
-0.0067224763
-0.00670311218
-0.00667122072
-0.00663579009
-0.00659804187
-0.00657865169
-0.00655097815
-0.00652843426
-0.00649850294
-0.00647225132
-0.00644009681
-0.006410116
-0.00637425022
-0.00633374253
-0.00627734678
-0.00620438074
-0.00612996286
-0.00608365024
-0.0060076134
-0.00595388338
-0.00587872114
-0.00581861002
-0.00575933426
-0.00570342674
-0.00563742652
-0.00556218162
-0.00546521683
-0.00516263176
-0.0050901652
-0.00499130998
-0.00490234702
-0.00478318913
-0.0046770224
-0.00452850447
-0.00440131025
-0.00421494448
-0.00406266401
-0.00380504179
-0.00351856981
-0.00325723406
-0.00301716195
-0.00267773709
-0.00224423457
-0.00188443529
-0.0016210851
-0.00149526732
-0.00121769964
-0.000896374767
-0.000594499601
-0.000217295623
0.000123026316
0.000484083163
0.000830463597
0.00109292464
0.00140718525
0.0016989702
0.00198170905
0.00221428734
0.00251400322
0.00277252009
0.00307585995
0.00332745842
0.00359549613
0.00379637254
0.00401753001
0.0042219311
0.0044449442
0.00465675527
0.00486434592
0.00505620303
0.00523613747
0.00540693405
0.00556134174
0.00571455563
0.00584616629
0.00598233129
0.00609181927
0.00620842169
0.00629166469
0.00638866813
0.006449127
0.0065263033
0.00657405551
0.00663145472
0.0066693667
0.00671964722
0.0067570031
0.00680790082
0.00684349257
0.00688682527
0.00691795986
0.00695484178
0.00698208519
0.00701282544
0.00703627463
0.00706314442
0.00708422116
0.00710564185
0.00712405288
0.00714455514
0.00716292059
0.00718271621
0.00720002427
0.00721816956
0.00723470348
0.00725187572
0.00726746558
0.00728348336
0.0072979508
0.00731268887
0.00732626829
0.00733920553
0.0073511677
0.0073638111
0.00737551442
0.00738763622
0.00739888318
0.00741052684
0.00742125802
0.00743233644
0.0074426762
0.00745337508
0.00746336112
0.0074736983
0.00748322034
0.00749300274
0.0075020508
0.00751140834
0.00752008423
0.00752907598
0.00753740367
0.00754563113
0.00755315699
0.00756062759
0.00756753763
0.00757479853
0.00758152009
0.00758857918
0.00759511911
0.00760198477
0.00760835065
0.00761503185
0.00762126698
0.00762779816
0.00763384514
0.00764017945
)
;

boundaryField
{
    closed
    {
        type            zeroGradient;
    }
    open
    {
        type            zeroGradient;
    }
    sides
    {
        type            empty;
    }
    procBoundary4to3
    {
        type            processor;
        value           uniform -0.00713806435;
    }
    procBoundary4to5
    {
        type            processor;
        value           uniform 0.007646044;
    }
}


// ************************************************************************* //
