/*--------------------------------*- C++ -*----------------------------------*\
| =========                 |                                                 |
| \\      /  F ield         | OpenFOAM: The Open Source CFD Toolbox           |
|  \\    /   O peration     | Version:  2306                                  |
|   \\  /    A nd           | Website:  www.openfoam.com                      |
|    \\/     M anipulation  |                                                 |
\*---------------------------------------------------------------------------*/
FoamFile
{
    version     2.0;
    format      ascii;
    arch        "LSB;label=32;scalar=64";
    class       volScalarField;
    location    "0.00146";
    object      rho;
}
// * * * * * * * * * * * * * * * * * * * * * * * * * * * * * * * * * * * * * //

dimensions      [1 -3 0 0 0 0 0];

internalField   nonuniform List<scalar> 
531
(
0.947915324
0.957657901
0.959612126
0.934316806
0.903742316
0.901964414
0.903530956
0.902914165
0.93281015
0.945692657
0.963099047
0.962889242
0.904858713
0.903252583
0.949641697
0.955046153
0.905243978
0.903691166
0.905506765
0.903727346
0.929163383
0.949808805
0.950829106
0.962353831
0.961962802
0.930894243
0.904311103
0.902627747
0.93973035
0.958983517
0.903846662
0.903627439
0.952497757
0.953428041
0.903860517
0.903684077
0.903556217
0.940955655
0.953892408
0.903294735
0.903989533
0.936505154
0.943120028
0.947776107
0.949700342
0.960513947
0.965333455
0.935173847
0.903967191
0.901837594
0.903398742
0.902729889
0.903126359
0.934175983
0.951496478
0.965158979
0.965146516
0.903729998
0.903626061
0.945231186
0.951795971
0.903096059
0.904116212
0.936730218
0.957782997
0.955605078
0.902596952
0.904008193
0.935862771
0.950575555
0.949448489
0.964191254
0.963860576
0.921993839
0.903676973
0.904049215
0.903641485
0.904321586
0.930668457
0.959479104
0.95907284
0.902192992
0.903581012
0.937031518
0.961515816
0.959321633
0.901998502
0.903995439
0.937228841
0.968699294
0.960559803
0.902611179
0.903595505
0.90322747
0.94527216
0.957014214
0.901712185
0.903438058
0.937723332
0.948736163
0.962269063
0.9621395
0.902142603
0.902322394
0.950641375
0.953506373
0.902120171
0.902160578
0.952992066
0.948402605
0.902034477
0.902465196
0.903367656
0.935898549
0.965285541
0.960206372
0.901686378
0.903243155
0.935572215
0.960054941
0.955797842
0.901969549
0.902264619
0.945210862
0.945207324
0.90133473
0.90268885
0.902708872
0.930903893
0.945060778
0.94946963
0.949661327
0.963983335
0.962853258
0.900806551
0.903582594
0.934273819
0.956808489
0.953418177
0.902069378
0.901946564
0.942321265
0.947585072
0.901888177
0.901878954
0.950672461
0.95062315
0.901839895
0.902012925
0.903235598
0.90220134
0.92394453
0.948011854
0.95177453
0.961875004
0.960546814
0.900907484
0.902860734
0.935310041
0.943501399
0.960447271
0.957566768
0.901520452
0.903475249
0.902651521
0.949291943
0.958557015
0.901646141
0.902843563
0.952779411
0.952433844
0.902097942
0.90229984
0.903940006
0.902312584
0.921303408
0.946566807
0.951498546
0.96203937
0.961284992
0.901069354
0.903967076
0.93546667
0.97364439
0.969018857
0.903008771
0.903639999
0.904555764
0.902997098
0.952475932
0.955582019
0.901999374
0.903587622
0.92756854
0.941457977
0.945843309
0.955838303
0.938530219
0.900927898
0.901020421
0.902060254
0.936867328
0.947178511
0.959191178
0.958673048
0.900676677
0.902437633
0.928010486
0.941589009
0.943373319
0.952723296
0.952195863
0.901321689
0.901587849
0.937009104
0.944445248
0.901166957
0.901466056
0.938628533
0.945747244
0.901319696
0.902532662
0.93172702
0.958068853
0.957690201
0.901200484
0.903138054
0.934082407
0.963989977
0.962769377
0.901994143
0.902555317
0.941823
0.95257575
0.901665467
0.903283367
0.935364302
0.96545789
0.964272548
0.901921176
0.902098467
0.937499594
0.954241408
0.923762459
0.902265245
0.937519436
0.950307035
0.9020685
0.902400069
0.93946659
0.948488494
0.902320164
0.903292709
0.933862135
0.960392932
0.959609028
0.902812186
0.902308511
0.937770937
0.945817635
0.902820762
0.902672047
0.934434268
0.941288485
0.949458848
0.956525991
0.937531582
0.905485448
0.902856332
0.904426875
0.951126118
0.957347346
0.912960578
0.904230062
0.904297443
0.938366685
0.956076715
0.951818012
0.952079372
0.962393894
0.941569912
0.90425565
0.902744319
0.904433504
0.903512431
0.903715488
0.926559042
0.953782181
0.963733574
0.934817761
0.904815961
0.934589477
0.976490759
0.973837773
0.904604741
0.903702473
0.904962842
0.935661924
0.951996617
0.951175783
0.952634334
0.961916287
0.939689094
0.905242319
0.902079033
0.906386805
0.902313026
0.916402591
0.93934081
0.969890763
0.967792367
0.905283677
0.903964548
0.944335111
0.956278422
0.914620121
0.904351238
0.90501283
0.904058698
0.944849983
0.963389898
0.90612292
0.90494777
0.936141917
0.962481752
0.962025913
0.906092161
0.904610159
0.933866811
0.96045422
0.960124122
0.906202099
0.904398207
0.931764651
0.958738827
0.9584752
0.906252609
0.904036471
0.93356417
0.960210376
0.959966567
0.90544329
0.903598353
0.936646207
0.967551864
0.966825616
0.905238505
0.901535128
0.947545153
0.962214574
0.904348884
0.900673366
0.959529196
0.970902808
0.903214429
0.898958053
0.900347855
0.897713073
0.897027589
0.896395338
0.948041752
0.992705347
0.990026485
0.899343328
0.893901711
0.89596148
0.959952189
0.976762619
0.905266625
0.899134257
0.904815163
0.902369714
0.910763152
0.950784188
0.914915542
0.90710021
0.910153099
0.907237287
0.908748049
0.907260074
0.908146808
0.907084208
0.907532134
0.906202062
0.906005001
0.903664274
0.901648582
0.895668151
0.88721722
0.887849646
0.893608258
0.90148556
0.906560329
0.912894001
0.916890287
0.921419421
0.923967904
0.928690803
0.933384755
0.936200471
0.936227226
0.94405008
0.947205766
0.952103571
0.953241338
0.955419566
0.955337887
0.965670577
0.974419397
0.984022535
0.993572331
0.993678187
0.91478557
0.92803276
0.94439289
0.959538727
0.976854424
0.991918235
1.01050085
1.02558811
1.0460903
1.06058615
1.06285896
1.03106188
1.05180782
1.06861281
1.01932387
0.926216794
0.910031708
0.852860011
0.736074793
0.728304491
0.692929443
0.665236013
0.636333736
0.601212311
0.563145697
0.515023527
0.468195794
0.431429848
0.409701008
0.3804055
0.36199351
0.34250129
0.331048158
0.318809908
0.309322264
0.299068511
0.289695381
0.281050312
0.274291011
0.268389928
0.263685487
0.259211392
0.255154819
0.251401511
0.247856947
0.244731129
0.241705313
0.239085774
0.236385715
0.234202042
0.23177855
0.22994716
0.227656489
0.226132425
0.223949212
0.222462098
0.220358517
0.218896724
0.21712802
0.216042313
0.214938883
0.214123309
0.21309464
0.212325589
0.211372816
0.210620666
0.209671786
0.208913762
0.208052472
0.2073373
0.206374797
0.205658029
0.204917381
0.2043384
0.20371655
0.20317472
0.202593217
0.202114754
0.201609693
0.201157736
0.20068265
0.200248536
0.199791966
0.199372485
0.198856519
0.198381036
0.197952105
0.19755314
0.197153962
0.196778361
0.196401443
0.196060403
0.195724112
0.19540875
0.195092563
0.194795746
0.194496034
0.194228415
0.193955778
0.193695919
0.193430736
0.193180017
0.192923102
0.192680721
0.192421501
0.192174893
0.191897603
0.191640251
0.191380295
0.191139261
0.190894663
0.19066799
0.190437003
0.190223006
0.190004058
0.189819854
0.189631643
0.189456071
0.189275093
)
;

boundaryField
{
    closed
    {
        type            calculated;
        value           nonuniform List<scalar> 0();
    }
    open
    {
        type            calculated;
        value           nonuniform List<scalar> 0();
    }
    sides
    {
        type            empty;
    }
    procBoundary4to3
    {
        type            processor;
        value           uniform 0.945131829;
    }
    procBoundary4to5
    {
        type            processor;
        value           uniform 0.189106886;
    }
}


// ************************************************************************* //
