/*--------------------------------*- C++ -*----------------------------------*\
| =========                 |                                                 |
| \\      /  F ield         | OpenFOAM: The Open Source CFD Toolbox           |
|  \\    /   O peration     | Version:  2306                                  |
|   \\  /    A nd           | Website:  www.openfoam.com                      |
|    \\/     M anipulation  |                                                 |
\*---------------------------------------------------------------------------*/
FoamFile
{
    version     2.0;
    format      ascii;
    arch        "LSB;label=32;scalar=64";
    class       volScalarField;
    location    "0.00194";
    object      alpha;
}
// * * * * * * * * * * * * * * * * * * * * * * * * * * * * * * * * * * * * * //

dimensions      [1 -1 -1 0 0 0 0];

internalField   nonuniform List<scalar> 
530
(
3.57680182e-05
3.68144155e-05
3.65622253e-05
3.55842007e-05
3.51951043e-05
3.57735015e-05
3.68081722e-05
3.67599201e-05
3.56601137e-05
3.52009344e-05
3.57683328e-05
3.68065442e-05
3.67407089e-05
3.56326772e-05
3.51828474e-05
3.57627079e-05
3.68104738e-05
3.67513754e-05
3.56115509e-05
3.51533621e-05
3.57548762e-05
3.68261252e-05
3.6647826e-05
3.57066144e-05
3.52047005e-05
3.52191475e-05
3.6075253e-05
3.6798323e-05
3.68336693e-05
3.68289014e-05
3.57575678e-05
3.52646221e-05
3.50968308e-05
3.57259278e-05
3.68257129e-05
3.61461942e-05
3.5654156e-05
3.5808896e-05
3.67808582e-05
3.68480413e-05
3.6806662e-05
3.57284332e-05
3.52690373e-05
3.51739939e-05
3.57422178e-05
3.68330279e-05
3.6820589e-05
3.55849434e-05
3.51123335e-05
3.57359575e-05
3.68211699e-05
3.68589059e-05
3.5699198e-05
3.5374029e-05
3.52497866e-05
3.50092612e-05
3.56654946e-05
3.68019259e-05
3.68772514e-05
3.61430294e-05
3.57307016e-05
3.5870548e-05
3.67829296e-05
3.68399743e-05
3.68002866e-05
3.57200345e-05
3.52252741e-05
3.51630389e-05
3.57489527e-05
3.68402198e-05
3.67962721e-05
3.55097897e-05
3.50102416e-05
3.57424822e-05
3.68201441e-05
3.6793586e-05
3.54916484e-05
3.49329609e-05
3.57199832e-05
3.68171482e-05
3.61127174e-05
3.54201949e-05
3.57269971e-05
3.68032119e-05
3.68595009e-05
3.6209419e-05
3.55582183e-05
3.53264528e-05
3.52728034e-05
3.50295533e-05
3.57279714e-05
3.6816843e-05
3.68070751e-05
3.67964948e-05
3.6477726e-05
3.5583717e-05
3.51947991e-05
3.50021116e-05
3.56838168e-05
3.68151685e-05
3.6871825e-05
3.67910631e-05
3.68442576e-05
3.60426726e-05
3.56174079e-05
3.53836305e-05
3.52859012e-05
3.57803408e-05
3.68526721e-05
3.60634957e-05
3.57085821e-05
3.6157511e-05
3.68502935e-05
3.65369102e-05
3.56600888e-05
3.52195019e-05
3.51738832e-05
3.57350419e-05
3.68452985e-05
3.6851835e-05
3.55341146e-05
3.50523688e-05
3.57553209e-05
3.68205765e-05
3.61452071e-05
3.55330226e-05
3.58270131e-05
3.68438698e-05
3.60516777e-05
3.56191967e-05
3.58375577e-05
3.68372204e-05
3.65835095e-05
3.56819227e-05
3.52731932e-05
3.52188234e-05
3.57478625e-05
3.68325942e-05
3.68435134e-05
3.55911484e-05
3.50750346e-05
3.57538996e-05
3.68084908e-05
3.6829637e-05
3.5520775e-05
3.49536154e-05
3.57425508e-05
3.6788772e-05
3.59886878e-05
3.50417683e-05
3.57037964e-05
3.68307207e-05
3.60951562e-05
3.61080157e-05
3.68249749e-05
3.61356621e-05
3.56974194e-05
3.53363754e-05
3.50679035e-05
3.57313533e-05
3.68324609e-05
3.61604562e-05
3.60154708e-05
3.68089318e-05
3.68307162e-05
3.57197206e-05
3.54633266e-05
3.54298648e-05
3.52346851e-05
3.58051365e-05
3.68014561e-05
3.5917134e-05
3.53975276e-05
3.59252826e-05
3.68237487e-05
3.58633273e-05
3.54237708e-05
3.57763851e-05
3.68325621e-05
3.68503741e-05
3.570212e-05
3.49747201e-05
3.52736615e-05
3.68295669e-05
3.6797682e-05
3.59941923e-05
3.52055583e-05
3.53979319e-05
3.67807515e-05
3.68440316e-05
3.67893125e-05
3.54934276e-05
3.47955244e-05
3.56948155e-05
3.67723665e-05
3.68626538e-05
3.61448787e-05
3.56129824e-05
3.52592174e-05
3.5311781e-05
3.5805429e-05
3.58084857e-05
3.54443313e-05
3.58353593e-05
3.68532694e-05
3.58939467e-05
3.54565656e-05
3.57815721e-05
3.6829861e-05
3.68588686e-05
3.57205578e-05
3.50366833e-05
3.5244553e-05
3.61767768e-05
3.62361757e-05
3.53671866e-05
3.58024915e-05
3.68340957e-05
3.58226223e-05
3.53339543e-05
3.59887193e-05
3.68263602e-05
3.57762601e-05
3.53350304e-05
3.60741262e-05
3.68207219e-05
3.5746014e-05
3.51489465e-05
3.60511844e-05
3.68336161e-05
3.58041506e-05
3.60251185e-05
3.68586001e-05
3.60707016e-05
3.52301071e-05
3.50710994e-05
3.59105483e-05
3.68148591e-05
3.57631494e-05
3.53136317e-05
3.58467774e-05
3.68297295e-05
3.68500655e-05
3.53336842e-05
3.49858038e-05
3.58903718e-05
3.68135234e-05
3.5781482e-05
3.53330416e-05
3.58311059e-05
3.68407024e-05
3.68366484e-05
3.56215753e-05
3.50985698e-05
3.56886091e-05
3.68378398e-05
3.68206402e-05
3.58982997e-05
3.51191693e-05
3.53357413e-05
3.6479571e-05
3.61068646e-05
3.54217165e-05
3.58214264e-05
3.68075562e-05
3.68662642e-05
3.56353606e-05
3.51926504e-05
3.51953855e-05
3.57091542e-05
3.68617156e-05
3.68533783e-05
3.68442867e-05
3.58015089e-05
3.54603208e-05
3.60687123e-05
3.68246193e-05
3.61984333e-05
3.54834653e-05
3.52701146e-05
3.54365948e-05
3.58191619e-05
3.58114766e-05
3.55142366e-05
3.58194906e-05
3.68610892e-05
3.68482993e-05
3.54598479e-05
3.49610044e-05
3.56827574e-05
3.68408291e-05
3.68673572e-05
3.68320784e-05
3.58236746e-05
3.55472451e-05
3.57901469e-05
3.57953958e-05
3.5644477e-05
3.58620192e-05
3.68578739e-05
3.68484041e-05
3.57017193e-05
3.53370426e-05
3.53737228e-05
3.57725191e-05
3.68418845e-05
3.68375914e-05
3.532599e-05
3.50395541e-05
3.58774907e-05
3.68061863e-05
3.5887562e-05
3.52417848e-05
3.57243216e-05
3.68522362e-05
3.68473459e-05
3.54821165e-05
3.5036843e-05
3.5725201e-05
3.68291652e-05
3.60901438e-05
3.53618232e-05
3.57411627e-05
3.68371709e-05
3.68434814e-05
3.57316601e-05
3.53513811e-05
3.53846571e-05
3.58700204e-05
3.68285132e-05
3.58737239e-05
3.54941347e-05
3.58348916e-05
3.68229353e-05
3.68648827e-05
3.55691691e-05
3.52086802e-05
3.52476606e-05
3.57344559e-05
3.68298631e-05
3.61762038e-05
3.52727823e-05
3.57148921e-05
3.68493745e-05
3.68326337e-05
3.58215811e-05
3.52949433e-05
3.57082671e-05
3.68646661e-05
3.68195502e-05
3.54960279e-05
3.50133966e-05
3.57242772e-05
3.68191167e-05
3.66797088e-05
3.52404485e-05
3.57269308e-05
3.6839493e-05
3.68257295e-05
3.59069433e-05
3.54301639e-05
3.5710997e-05
3.68443441e-05
3.68581835e-05
3.54969626e-05
3.52364635e-05
3.52499266e-05
3.57341612e-05
3.68308034e-05
3.62953186e-05
3.54227072e-05
3.57417146e-05
3.68323368e-05
3.68482766e-05
3.56918564e-05
3.51955803e-05
3.52984328e-05
3.58702149e-05
3.61086538e-05
3.54130542e-05
3.57264447e-05
3.68519085e-05
3.64559105e-05
3.52623049e-05
3.57298387e-05
3.68437873e-05
3.61689442e-05
3.53222404e-05
3.57748776e-05
3.68421462e-05
3.59394136e-05
3.53713902e-05
3.59315415e-05
3.68429988e-05
3.57761511e-05
3.54342206e-05
3.6299261e-05
3.68367192e-05
3.57785822e-05
3.55504211e-05
3.58394546e-05
3.68320901e-05
3.6837719e-05
3.5726809e-05
3.49082184e-05
3.50259324e-05
3.66527826e-05
3.68547282e-05
3.52233136e-05
3.57522954e-05
3.68378755e-05
3.57516212e-05
3.53721545e-05
3.68632607e-05
3.68377325e-05
3.57428257e-05
3.55299309e-05
3.58930293e-05
3.68244177e-05
3.68357669e-05
3.57324194e-05
3.47838008e-05
3.5006041e-05
3.68050518e-05
3.68534476e-05
3.51046249e-05
3.57686556e-05
3.68163114e-05
3.57484728e-05
3.53401099e-05
3.68756789e-05
3.68161865e-05
3.57328636e-05
3.53822506e-05
3.60640222e-05
3.67616958e-05
3.68331035e-05
3.64799531e-05
3.54805783e-05
3.52005966e-05
3.53709699e-05
3.50598849e-05
3.56787392e-05
3.68334838e-05
3.68601445e-05
3.68277937e-05
3.57467332e-05
3.52749414e-05
3.62476679e-05
3.68349794e-05
3.57156782e-05
3.52204293e-05
3.59709203e-05
3.68314042e-05
3.63600429e-05
3.53949867e-05
3.50025144e-05
3.57549005e-05
3.6810056e-05
3.57639662e-05
3.53059913e-05
3.60548576e-05
3.68127632e-05
3.68211047e-05
3.55759768e-05
3.49811888e-05
3.57065423e-05
3.68067238e-05
3.68439626e-05
3.57041799e-05
3.50555879e-05
3.56990365e-05
3.68319374e-05
3.68529688e-05
3.56449069e-05
3.49916407e-05
3.57967682e-05
3.68125302e-05
3.57454391e-05
3.53301043e-05
3.68501246e-05
3.6811327e-05
3.62641144e-05
3.55631593e-05
3.50893047e-05
3.5709588e-05
3.68193592e-05
3.68615317e-05
3.55622921e-05
3.49225211e-05
3.57958162e-05
3.68086651e-05
3.57048056e-05
3.52950443e-05
3.68788475e-05
3.68190294e-05
3.59625948e-05
3.54084899e-05
3.51786502e-05
3.58238228e-05
3.68267252e-05
3.57260441e-05
3.53354368e-05
3.68356207e-05
3.68193934e-05
3.54505936e-05
3.54332117e-05
3.67842559e-05
3.68266044e-05
3.67459152e-05
3.5673193e-05
3.4974032e-05
3.5697882e-05
3.67938651e-05
3.68453123e-05
3.57217623e-05
3.51154042e-05
3.57068886e-05
3.68347173e-05
3.68504265e-05
3.56961736e-05
3.50420897e-05
3.56963387e-05
3.6825162e-05
3.68470493e-05
3.57044579e-05
3.50551255e-05
3.56981295e-05
3.68254739e-05
3.68469089e-05
)
;

boundaryField
{
    closed
    {
        type            calculated;
        value           nonuniform List<scalar> 0();
    }
    open
    {
        type            calculated;
        value           nonuniform List<scalar> 0();
    }
    sides
    {
        type            empty;
    }
    procBoundary2to1
    {
        type            processor;
        value           uniform 3.55595138e-05;
    }
    procBoundary2to3
    {
        type            processor;
        value           uniform 3.57013037e-05;
    }
}


// ************************************************************************* //
