/*--------------------------------*- C++ -*----------------------------------*\
| =========                 |                                                 |
| \\      /  F ield         | OpenFOAM: The Open Source CFD Toolbox           |
|  \\    /   O peration     | Version:  2306                                  |
|   \\  /    A nd           | Website:  www.openfoam.com                      |
|    \\/     M anipulation  |                                                 |
\*---------------------------------------------------------------------------*/
FoamFile
{
    version     2.0;
    format      ascii;
    arch        "LSB;label=32;scalar=64";
    class       volScalarField;
    location    "0.00018";
    object      h;
}
// * * * * * * * * * * * * * * * * * * * * * * * * * * * * * * * * * * * * * //

dimensions      [0 2 -2 0 0 0 0];

internalField   nonuniform List<scalar> 
531
(
2271.11752
2273.63793
2275.30355
2274.34433
2273.29188
2273.58328
2274.11513
2274.04926
2273.82452
2273.83247
2273.9138
2273.9139
2273.89153
2273.88939
2273.89512
2273.89616
2273.89394
2273.89354
2273.89549
2273.89597
2273.89399
2273.89306
2273.8947
2273.89608
2273.89508
2273.89339
2273.89396
2273.89537
2273.89538
2273.89408
2273.89409
2273.89482
2273.89498
2273.89453
2273.89435
2273.89459
2273.89481
2273.89472
2273.89445
2273.89446
2273.89469
2273.89475
2273.89461
2273.8945
2273.89457
2273.89469
2273.89466
2273.89455
2273.89456
2273.89466
2273.89466
2273.89453
2273.89453
2273.89472
2273.89475
2273.89451
2273.89441
2273.89465
2273.89484
2273.89465
2273.8944
2273.89451
2273.89477
2273.89473
2273.89449
2273.8945
2273.89471
2273.89473
2273.89451
2273.89442
2273.89465
2273.89501
2273.89478
2273.8939
2273.89396
2273.89555
2273.89598
2273.89384
2273.89238
2273.89462
2273.89755
2273.8961
2273.89123
2273.89171
2273.8977
2273.89803
2273.89278
2273.89113
2273.89522
2273.89755
2273.89495
2273.89246
2273.89393
2273.89589
2273.89539
2273.89385
2273.89407
2273.89494
2273.89501
2273.8944
2273.8944
2273.89469
2273.89471
2273.89458
2273.89457
2273.89462
2273.89463
2273.89461
2273.8946
2273.8946
2273.89461
2273.89462
2273.89463
2273.89461
2273.89455
2273.89457
2273.89472
2273.89473
2273.89451
2273.8944
2273.89463
2273.8949
2273.89475
2273.8943
2273.89434
2273.89484
2273.89489
2273.89452
2273.89438
2273.8946
2273.89475
2273.89466
2273.89454
2273.89458
2273.89463
2273.89462
2273.89461
2273.89462
2273.89461
2273.8946
2273.8946
2273.89463
2273.89462
2273.89458
2273.89458
2273.89465
2273.89468
2273.89458
2273.89446
2273.89455
2273.89488
2273.89485
2273.89429
2273.89421
2273.89474
2273.89529
2273.89472
2273.89385
2273.89419
2273.89525
2273.89535
2273.89407
2273.89389
2273.89483
2273.89519
2273.89461
2273.8942
2273.89449
2273.89489
2273.89478
2273.89442
2273.89443
2273.89468
2273.89479
2273.89471
2273.89442
2273.8944
2273.89469
2273.89491
2273.8947
2273.89428
2273.89435
2273.89488
2273.89497
2273.89445
2273.89424
2273.89461
2273.895
2273.89473
2273.89424
2273.89437
2273.89493
2273.8949
2273.89439
2273.89436
2273.8947
2273.89478
2273.89459
2273.89452
2273.89464
2273.89467
2273.89454
2273.89452
2273.8947
2273.89479
2273.89459
2273.89434
2273.89445
2273.89494
2273.89494
2273.89437
2273.89418
2273.89462
2273.89512
2273.89485
2273.89412
2273.89421
2273.89495
2273.89507
2273.89442
2273.89422
2273.89463
2273.8949
2273.89468
2273.89445
2273.89453
2273.89465
2273.89462
2273.89463
2273.89469
2273.89462
2273.89445
2273.89451
2273.8948
2273.89478
2273.89447
2273.89444
2273.89467
2273.89476
2273.8946
2273.89452
2273.89459
2273.89466
2273.89463
2273.89459
2273.8946
2273.89462
2273.89461
2273.8946
2273.89461
2273.89462
2273.89462
2273.89457
2273.89458
2273.89467
2273.89472
2273.89456
2273.89438
2273.89453
2273.895
2273.89494
2273.89417
2273.89406
2273.89482
2273.89544
2273.89471
2273.89372
2273.89414
2273.89536
2273.8954
2273.89401
2273.89389
2273.89484
2273.89519
2273.89456
2273.89423
2273.89456
2273.89483
2273.89467
2273.89449
2273.89456
2273.89467
2273.89465
2273.89458
2273.89459
2273.89462
2273.89462
2273.89461
2273.8946
2273.89461
2273.89461
2273.89461
2273.89461
2273.89461
2273.89461
2273.89461
2273.89461
2273.89461
2273.89461
2273.89461
2273.89461
2273.89461
2273.8946
2273.8946
2273.89463
2273.89464
2273.89458
2273.89454
2273.89461
2273.89475
2273.89471
2273.89441
2273.89441
2273.89474
2273.89495
2273.8946
2273.89423
2273.89443
2273.89496
2273.8949
2273.89437
2273.89437
2273.89468
2273.89478
2273.89461
2273.89453
2273.89459
2273.89464
2273.89462
2273.89461
2273.89461
2273.89461
2273.8946
2273.89461
2273.89462
2273.89461
2273.89461
2273.89461
2273.89461
2273.89461
2273.89461
2273.89461
2273.89461
2273.89461
2273.89461
2273.89462
2273.89462
2273.89461
2273.89458
2273.89459
2273.89466
2273.89467
2273.89456
2273.89451
2273.89463
2273.89473
2273.89464
2273.89449
2273.89454
2273.89471
2273.8947
2273.89452
2273.89452
2273.89468
2273.89472
2273.89456
2273.8945
2273.89462
2273.8947
2273.89463
2273.89456
2273.8946
2273.89462
2273.89457
2273.89458
2273.89471
2273.89471
2273.8945
2273.89444
2273.89465
2273.89481
2273.89466
2273.89444
2273.89449
2273.89473
2273.89473
2273.89457
2273.89451
2273.89458
2273.89468
2273.89468
2273.89461
2273.89451
2273.89451
2273.8947
2273.89481
2273.8946
2273.89432
2273.89444
2273.89498
2273.89495
2273.89429
2273.89421
2273.89475
2273.89508
2273.89458
2273.89419
2273.89449
2273.89498
2273.89478
2273.89435
2273.89442
2273.89477
2273.89476
2273.89452
2273.89452
2273.89464
2273.89466
2273.8946
2273.89459
2273.89461
2273.89462
2273.89461
2273.89461
2273.89461
2273.89461
2273.89461
2273.89461
2273.89461
2273.89461
2273.89461
2273.89461
2273.89461
2273.89461
2273.89461
2273.89461
2273.89461
2273.89461
2273.89461
2273.89461
2273.89461
2273.89461
2273.89461
2273.89461
2273.89461
2273.89461
2273.89461
2273.89461
2273.89461
2273.89461
2273.89461
2273.89462
2273.89461
2273.89459
2273.8946
2273.89465
2273.89465
2273.89456
2273.89453
2273.89463
2273.89473
2273.89463
2273.89448
2273.89454
2273.89475
2273.89472
2273.89445
2273.89445
2273.89478
2273.89483
2273.89445
2273.89432
2273.8947
2273.89498
2273.89461
2273.8942
2273.89445
2273.89508
2273.89499
2273.89412
2273.89412
2273.89492
2273.89522
2273.89452
2273.89406
2273.89442
2273.89504
2273.89488
2273.8944
2273.89445
2273.89462
2273.89458
2273.89457
2273.89487
2273.89487
2273.89429
2273.89412
2273.89457
2273.89536
2273.89562
2273.89449
2273.89137
2273.89127
2273.9018
2273.91211
2273.89092
2273.82986
2273.84418
2274.07021
2274.1385
2273.62989
2273.10134
2273.78588
2275.81958
2275.55676
2270.70057
2269.23534
2276.26796
2282.91961
2276.80919
2260.96355
2262.72478
2286.35563
2290.42034
2268.68847
2256.43018
2270.70091
2288.15105
2281.85444
2264.61549
2265.8797
)
;

boundaryField
{
    closed
    {
        type            lookUpEnthalpy;
        h0              nonuniform List<scalar> 0();
        value           nonuniform List<scalar> 0();
    }
    open
    {
        type            zeroGradient;
    }
    sides
    {
        type            empty;
    }
    procBoundary1to0
    {
        type            processor;
        value           uniform 2273.0301;
    }
    procBoundary1to2
    {
        type            processor;
        value           uniform 2278.71984;
    }
}


// ************************************************************************* //
