/*--------------------------------*- C++ -*----------------------------------*\
| =========                 |                                                 |
| \\      /  F ield         | OpenFOAM: The Open Source CFD Toolbox           |
|  \\    /   O peration     | Version:  2306                                  |
|   \\  /    A nd           | Website:  www.openfoam.com                      |
|    \\/     M anipulation  |                                                 |
\*---------------------------------------------------------------------------*/
FoamFile
{
    version     2.0;
    format      ascii;
    arch        "LSB;label=32;scalar=64";
    class       volScalarField;
    location    "0.00136";
    object      prefDZ_H;
}
// * * * * * * * * * * * * * * * * * * * * * * * * * * * * * * * * * * * * * //

dimensions      [1 -1 -1 0 0 0 0];

internalField   nonuniform List<scalar> 
531
(
0.000110129711
0.000107870872
0.000106165747
0.000106676972
0.000105176979
0.000105252664
0.000110029745
0.000110195459
0.000110045539
0.000110225432
0.000107607744
0.000106181859
0.000110104186
0.000110219588
0.000106533975
0.000105872866
0.000110088431
0.000110215515
0.000105821199
0.000105805906
0.000110101412
0.000110192818
0.000110138155
0.000107057717
0.000105556504
0.000110125246
0.000110169798
0.000106277167
0.000106276996
0.000110100747
0.000110203738
0.000110094206
0.000107925497
0.000105342404
0.000105431485
0.000110088928
0.000110132234
0.0001083209
0.000105768184
0.000105772758
0.000110158869
0.000110213251
0.000110136051
0.000107866908
0.000106181767
0.000106218724
0.00011017535
0.000110241617
0.000107964119
0.000106484219
0.000105358155
0.000105378026
0.000110105307
0.000110238261
0.000110116464
0.000110286808
0.000107168709
0.000107088186
0.000110162747
0.000107839396
0.00010522584
0.000110199685
0.000110217986
0.000107087462
0.000106083903
0.000110161809
0.000110264147
0.000107038581
0.000106386934
0.000110160202
0.000110278408
0.000107239839
0.000106560426
0.000110178959
0.000110269166
0.000107590082
0.000106638172
0.000110225865
0.000110213783
0.000107821801
0.000106222347
0.000106252992
0.000110181171
0.000110280959
0.00010792521
0.000106472497
0.00010538285
0.000105398198
0.000110111915
0.000110248738
0.000110151588
0.000110283312
0.000110254903
0.000107847931
0.000106875158
0.000106068174
0.00010608782
0.000110099402
0.000110275425
0.000106741799
0.000106127505
0.000110077807
0.000110287683
0.000106817796
0.000106235811
0.000110074286
0.000110287399
0.000107007486
0.000106408727
0.000110085417
0.000110278145
0.000107271936
0.000106565676
0.00011011002
0.000110255203
0.00010764842
0.00010662508
0.000110155627
0.000110194096
0.000107845555
0.000106131513
0.00010616652
0.000110102444
0.000110230085
0.00010789876
0.000105261079
0.000105509082
0.000110127019
0.000110230522
0.000110204594
0.00010788176
0.000106164634
0.000110115936
0.000110201446
0.000107644592
0.00010606148
0.000110107231
0.000110161205
0.000107913135
0.000104943094
0.000105076089
0.000110062807
0.000110195317
0.00011017246
0.000107197362
0.000105827025
0.000110040488
0.000110211862
0.000106236448
0.000106129439
0.000110031381
0.000110238385
0.000110185426
0.000107760003
0.000105849218
0.000110072593
0.000110191106
0.000107568199
0.000106500161
0.000110069283
0.000110184637
0.00010794889
0.000106810423
0.000105948064
0.000105967155
0.000109985395
0.000110185114
0.000106565649
0.000106400866
0.000110002248
0.000110214823
0.000110174519
0.000107832806
0.000105874389
0.000110080268
0.000110152658
0.000107895171
0.000105247705
0.000105324738
0.000110014159
0.000110244736
0.000110191422
0.000107412045
0.000106334422
0.000110138861
0.000110203292
0.000107817063
0.000106284606
0.000106709796
0.00010535067
0.000105410721
0.000109982382
0.000110299776
0.000110112307
0.000110337487
0.000110228696
0.000107797466
0.000106875755
0.000106972463
0.000105768388
0.00010580164
0.000110042251
0.00011028589
0.000110171321
0.000110292481
0.000107863696
0.000106617306
0.000110161543
0.000110237681
0.000107826543
0.000105833505
0.000105874781
0.000110065139
0.00011024376
0.000107914164
0.000104676922
0.00010511711
0.000110090035
0.000110227385
0.000110202455
0.000107569028
0.000105825652
0.000110076653
0.00011022055
0.00010663905
0.000106465634
0.000110072537
0.000110266456
0.000110202162
0.000107837995
0.000105697131
0.000105734953
0.000110063861
0.000110280441
0.000107746769
0.000106623106
0.000110118951
0.000110267082
0.00010788281
0.000106979589
0.000106346992
0.000106360432
0.000110124069
0.000110279627
0.000107774285
0.000106553887
0.000105794972
0.000105795583
0.000110098976
0.000110275532
0.00011019176
0.000110316575
0.000110301816
0.000107846967
0.000106672105
0.000110237794
0.000110265177
0.000107795803
0.000105755231
0.00010579361
0.000110131289
0.000110284357
0.000107884234
0.000105104768
0.000105569238
0.000110153177
0.000110246857
0.00011022349
0.000107910757
0.000106579385
0.000110155491
0.000110195906
0.000107913881
0.000106711558
0.000105536165
0.000105540071
0.000110072003
0.000110197467
0.000110150604
0.000110237593
0.000110211933
0.000107467444
0.000106152156
0.000104986457
0.000104992084
0.000110093808
0.000110195315
0.000110171638
0.000107940617
0.000106033443
0.000110134662
0.000110153348
0.000107935083
0.000106536156
0.000105467701
0.000105468389
0.000110049666
0.000110195501
0.000110123584
0.000110252027
0.000106915649
0.000106729908
0.00011011088
0.000110282944
0.000110186825
0.000107818205
0.000105264627
0.000105783518
0.000110141769
0.00011029096
0.00011020423
0.000107837929
0.000106116852
0.000106517377
0.000104879218
0.000104931342
0.000110052224
0.000110215353
0.000110143119
0.000110227206
0.000107878319
0.000106414592
0.000110146088
0.000110174708
0.000107575152
0.000106205516
0.000104681624
0.000104673094
0.000110077673
0.000110170233
0.000110137429
0.000110212148
0.000110185811
0.000106596221
0.000105242542
0.000110190655
0.000110176662
0.000107523699
0.000104739957
0.000105347511
0.000110150247
0.00011024956
0.000110233745
0.000107661937
0.000106364409
0.000110281355
0.000110274188
0.000107615421
0.00010633867
0.000105234179
0.000105213979
0.000110334294
0.000110427593
0.000110391529
0.000110523712
0.000110453549
0.000107631148
0.000106076512
0.000106267904
0.000104803871
0.000104846588
0.000110641228
0.000110837849
0.000110793335
0.000110978612
0.000106394692
0.000106059271
0.000111036337
0.000111310798
0.000111247391
0.000106820441
0.00010541814
0.000111328052
0.000111465143
0.000105816828
0.000105329966
0.000111015738
0.000111295897
0.000111126511
0.000105261798
0.000104404044
0.000110532214
0.00011072423
0.000110380863
0.000110440879
0.000107201451
0.000110048338
0.000110343088
0.000110260698
0.000110560059
0.000110467664
0.000110715083
0.000110671191
0.000110901086
0.000110925064
0.000111191037
0.000111324514
0.000111731421
0.000112138303
0.000113167118
0.000113300271
0.000112723157
0.000112277812
0.000111777918
0.000111436697
0.000111050087
0.000110821448
0.000110573635
0.000110426698
0.000110054259
0.000109826938
0.000109807094
0.00010992872
0.000109540156
0.000109461373
0.000109202794
0.000109279863
0.000109152363
0.000109368244
0.000108744943
0.00010852798
0.000107770318
0.00010755257
0.00010680435
0.000106556525
0.000106207906
0.000114337862
0.000113007002
0.000112455781
0.000111148586
0.000110512964
0.000109195652
0.000108450216
0.000107066682
0.000106129342
0.000104746678
0.000104902029
0.000105134749
0.000105322736
0.000105550748
0.000105770896
0.00010598931
0.000106500671
0.000106972189
0.00011345119
0.000117253502
0.000123819116
0.000123882867
0.000139621958
0.00014540936
0.000153322642
0.000158372579
0.000165215825
0.000169760867
0.00017664344
0.000181779355
0.000189414936
0.000195122722
0.000203279562
0.0002089801
0.000217284173
0.00022278934
0.000230809032
0.000235925671
0.000243356363
0.000247895598
0.000254595355
0.000258690846
0.000265122266
0.000269267165
0.00027462336
0.000277884438
0.000282435109
0.000284966082
0.000288934541
0.000291029251
0.000294658685
0.000296332213
0.000299617561
0.000300953433
0.0003039597
0.000305002233
0.000307741664
0.000308637895
0.00031119132
0.000311703036
0.000314024223
0.000314934318
0.000317550564
0.000317395318
0.000319668337
0.000319972899
0.000322988615
0.000323899745
0.000327051168
0.000324860777
0.000327055827
0.000329773524
0.000332352824
0.000327826625
0.000330951664
0.000334467216
0.000334791812
0.000331327464
0.000333268419
0.000335715327
0.000337253144
0.000334587953
0.000335657032
0.00033807108
0.000338992067
0.000336898614
0.000337707786
0.000339942582
0.000340597897
0.000338641324
0.00033929356
0.000341434148
0.000341855403
0.000340017846
0.000340524
0.000342622118
0.000342837649
0.000341121254
0.000341512716
0.000343583455
0.000343664336
0.000342026227
0.00034235559
0.000344361625
0.00034439612
)
;

boundaryField
{
    closed
    {
        type            calculated;
        value           nonuniform List<scalar> 0();
    }
    open
    {
        type            calculated;
        value           nonuniform List<scalar> 0();
    }
    sides
    {
        type            empty;
    }
    procBoundary4to3
    {
        type            processor;
        value           uniform 0.00011022488;
    }
    procBoundary4to5
    {
        type            processor;
        value           uniform 0.000342854797;
    }
}


// ************************************************************************* //
