/*--------------------------------*- C++ -*----------------------------------*\
| =========                 |                                                 |
| \\      /  F ield         | OpenFOAM: The Open Source CFD Toolbox           |
|  \\    /   O peration     | Version:  2306                                  |
|   \\  /    A nd           | Website:  www.openfoam.com                      |
|    \\/     M anipulation  |                                                 |
\*---------------------------------------------------------------------------*/
FoamFile
{
    version     2.0;
    format      ascii;
    arch        "LSB;label=32;scalar=64";
    class       volScalarField;
    location    "0.00136";
    object      prefDPV_H2O;
}
// * * * * * * * * * * * * * * * * * * * * * * * * * * * * * * * * * * * * * //

dimensions      [1 -1 -1 0 0 0 0];

internalField   nonuniform List<scalar> 
531
(
-3.84468327e-07
-3.68019385e-07
-3.64508361e-07
-3.6502775e-07
-3.63135328e-07
-3.63006722e-07
-3.85648905e-07
-3.84511369e-07
-3.8480205e-07
-3.84394242e-07
-3.66520447e-07
-3.64345755e-07
-3.85255931e-07
-3.84304643e-07
-3.64958452e-07
-3.63882714e-07
-3.85649984e-07
-3.84361579e-07
-3.63941145e-07
-3.63784158e-07
-3.8598508e-07
-3.84190869e-07
-3.84865692e-07
-3.65635828e-07
-3.63521811e-07
-3.85454567e-07
-3.84412437e-07
-3.64574803e-07
-3.64502765e-07
-3.85784591e-07
-3.83890947e-07
-3.84801036e-07
-3.67615496e-07
-3.63342261e-07
-3.6331103e-07
-3.85184738e-07
-3.84523152e-07
-3.7764566e-07
-3.6381954e-07
-3.63812198e-07
-3.85255383e-07
-3.83924198e-07
-3.84405644e-07
-3.68628302e-07
-3.64471434e-07
-3.64362614e-07
-3.84761944e-07
-3.84198845e-07
-3.67044034e-07
-3.64800837e-07
-3.63245073e-07
-3.63178482e-07
-3.85832184e-07
-3.84363051e-07
-3.84907915e-07
-3.84109497e-07
-3.65807072e-07
-3.65578127e-07
-3.85489092e-07
-3.68056559e-07
-3.63021715e-07
-3.85117821e-07
-3.84459636e-07
-3.65640689e-07
-3.64168702e-07
-3.85309975e-07
-3.84195469e-07
-3.6559431e-07
-3.64576656e-07
-3.85260094e-07
-3.84091899e-07
-3.65880141e-07
-3.64830866e-07
-3.85109779e-07
-3.84071004e-07
-3.6635834e-07
-3.64986092e-07
-3.8482299e-07
-3.84200555e-07
-3.69167412e-07
-3.64465063e-07
-3.64356431e-07
-3.84874047e-07
-3.84145431e-07
-3.67054448e-07
-3.64748056e-07
-3.63235177e-07
-3.63187491e-07
-3.85911171e-07
-3.84203593e-07
-3.84959786e-07
-3.83809593e-07
-3.84008842e-07
-3.69077674e-07
-3.65312733e-07
-3.64211904e-07
-3.6414265e-07
-3.85573007e-07
-3.84212573e-07
-3.65204824e-07
-3.64177401e-07
-3.85645658e-07
-3.8417605e-07
-3.653295e-07
-3.64330995e-07
-3.85601487e-07
-3.84128941e-07
-3.65599592e-07
-3.64592929e-07
-3.8548975e-07
-3.84088309e-07
-3.65963623e-07
-3.64845874e-07
-3.8531683e-07
-3.84094371e-07
-3.66474758e-07
-3.64985124e-07
-3.85046218e-07
-3.84238615e-07
-3.68935984e-07
-3.64370323e-07
-3.64263095e-07
-3.85181284e-07
-3.84441919e-07
-3.67722189e-07
-3.63093275e-07
-3.63365488e-07
-3.854387e-07
-3.84031965e-07
-3.84501078e-07
-3.66768867e-07
-3.64343077e-07
-3.85265285e-07
-3.84349701e-07
-3.66460737e-07
-3.64221623e-07
-3.85259541e-07
-3.84619852e-07
-3.6717617e-07
-3.627218e-07
-3.62764162e-07
-3.85632813e-07
-3.84292467e-07
-3.84606737e-07
-3.6580982e-07
-3.63851906e-07
-3.85875785e-07
-3.84341346e-07
-3.64488144e-07
-3.64232637e-07
-3.86303758e-07
-3.83967519e-07
-3.84718824e-07
-3.66599861e-07
-3.63910284e-07
-3.85476988e-07
-3.84341889e-07
-3.66376189e-07
-3.64846452e-07
-3.85342235e-07
-3.84184516e-07
-3.67439036e-07
-3.65332828e-07
-3.64113108e-07
-3.64081933e-07
-3.85918261e-07
-3.84302804e-07
-3.64994469e-07
-3.6466485e-07
-3.86163438e-07
-3.83933488e-07
-3.8453724e-07
-3.66722001e-07
-3.639759e-07
-3.85354794e-07
-3.84616458e-07
-3.67267615e-07
-3.63157115e-07
-3.63070429e-07
-3.85634138e-07
-3.84154802e-07
-3.84251046e-07
-3.6605626e-07
-3.64579728e-07
-3.85272027e-07
-3.8428636e-07
-3.6862045e-07
-3.64562421e-07
-3.6499095e-07
-3.63277772e-07
-3.63124978e-07
-3.86023548e-07
-3.84107632e-07
-3.8475262e-07
-3.83714554e-07
-3.838766e-07
-3.70659373e-07
-3.6534779e-07
-3.6534912e-07
-3.63812638e-07
-3.63675323e-07
-3.85805719e-07
-3.84229355e-07
-3.84420726e-07
-3.84125241e-07
-3.6844804e-07
-3.64918108e-07
-3.84949448e-07
-3.8424445e-07
-3.68200601e-07
-3.63912094e-07
-3.63802545e-07
-3.85388432e-07
-3.8458907e-07
-3.66964479e-07
-3.62266181e-07
-3.62798376e-07
-3.85704549e-07
-3.84167206e-07
-3.84706678e-07
-3.66305323e-07
-3.63847867e-07
-3.8559306e-07
-3.84275858e-07
-3.65017758e-07
-3.6471276e-07
-3.85873727e-07
-3.83771922e-07
-3.8442007e-07
-3.6814597e-07
-3.63736376e-07
-3.63610784e-07
-3.85209776e-07
-3.84205448e-07
-3.66617891e-07
-3.64929967e-07
-3.85058381e-07
-3.83991589e-07
-3.68005801e-07
-3.6546467e-07
-3.64583594e-07
-3.64528492e-07
-3.85321351e-07
-3.8411764e-07
-3.66573744e-07
-3.64848433e-07
-3.63782731e-07
-3.6373141e-07
-3.8571299e-07
-3.84074507e-07
-3.84682123e-07
-3.83750127e-07
-3.83900546e-07
-3.67083608e-07
-3.64991499e-07
-3.84744862e-07
-3.8422279e-07
-3.67579028e-07
-3.63749493e-07
-3.63635169e-07
-3.8513315e-07
-3.84484451e-07
-3.67044206e-07
-3.62820962e-07
-3.63412175e-07
-3.8526884e-07
-3.83968204e-07
-3.84370848e-07
-3.67143369e-07
-3.64943341e-07
-3.84804928e-07
-3.84154693e-07
-3.67176306e-07
-3.65182132e-07
-3.63447086e-07
-3.63458804e-07
-3.85848824e-07
-3.8433245e-07
-3.84902806e-07
-3.84052117e-07
-3.84170031e-07
-3.66141584e-07
-3.64359161e-07
-3.62636657e-07
-3.6268107e-07
-3.85779891e-07
-3.84154292e-07
-3.84814331e-07
-3.66920066e-07
-3.64223228e-07
-3.84828146e-07
-3.84344589e-07
-3.66869101e-07
-3.64964299e-07
-3.63382247e-07
-3.6337076e-07
-3.85817909e-07
-3.84425121e-07
-3.84840868e-07
-3.84207197e-07
-3.65435655e-07
-3.65074858e-07
-3.8551034e-07
-3.83655323e-07
-3.84592857e-07
-3.69692969e-07
-3.63103146e-07
-3.63670908e-07
-3.85089522e-07
-3.83838496e-07
-3.8424021e-07
-3.67968506e-07
-3.64348051e-07
-3.64755151e-07
-3.62594186e-07
-3.62502683e-07
-3.85643719e-07
-3.84560794e-07
-3.84567519e-07
-3.84394227e-07
-3.66814056e-07
-3.64720583e-07
-3.84739355e-07
-3.84288204e-07
-3.66350683e-07
-3.64477049e-07
-3.6224794e-07
-3.62248469e-07
-3.8597212e-07
-3.84664819e-07
-3.85224777e-07
-3.84395824e-07
-3.84538353e-07
-3.64878501e-07
-3.63037556e-07
-3.84978966e-07
-3.84770257e-07
-3.66200556e-07
-3.62375777e-07
-3.63092672e-07
-3.85193547e-07
-3.84055934e-07
-3.84418167e-07
-3.66391359e-07
-3.64590703e-07
-3.84492267e-07
-3.84147695e-07
-3.66253132e-07
-3.64497123e-07
-3.62801693e-07
-3.62778028e-07
-3.85274305e-07
-3.84059752e-07
-3.84601502e-07
-3.83596671e-07
-3.83920383e-07
-3.70106708e-07
-3.63848855e-07
-3.63945197e-07
-3.61887585e-07
-3.61759922e-07
-3.84842761e-07
-3.83785857e-07
-3.84005148e-07
-3.83360012e-07
-3.63813174e-07
-3.6309119e-07
-3.84240893e-07
-3.82455639e-07
-3.83399418e-07
-3.63985142e-07
-3.61717795e-07
-3.82658853e-07
-3.81911615e-07
-3.61937585e-07
-3.60916302e-07
-3.81816547e-07
-3.80214123e-07
-3.80573602e-07
-3.60204944e-07
-3.58639946e-07
-3.79814055e-07
-3.7844407e-07
-3.78935787e-07
-3.77260102e-07
-3.7128324e-07
-3.75793035e-07
-3.75157563e-07
-3.73610115e-07
-3.72352929e-07
-3.71294827e-07
-3.69806031e-07
-3.68910115e-07
-3.67422845e-07
-3.6654071e-07
-3.65179039e-07
-3.64306042e-07
-3.63216093e-07
-3.62572053e-07
-3.62452636e-07
-3.6190226e-07
-3.60333295e-07
-3.58916981e-07
-3.57045391e-07
-3.55457601e-07
-3.53309049e-07
-3.51504256e-07
-3.4909174e-07
-3.47044268e-07
-3.44525074e-07
-3.42740587e-07
-3.41588022e-07
-3.4174734e-07
-3.39238028e-07
-3.37829215e-07
-3.3401824e-07
-3.32411161e-07
-3.27497065e-07
-3.25761428e-07
-3.1925191e-07
-3.16867229e-07
-3.10003922e-07
-3.07450853e-07
-3.0045558e-07
-2.97550686e-07
-2.91325929e-07
-3.04390433e-07
-2.96205965e-07
-2.9241982e-07
-2.84190406e-07
-2.79978025e-07
-2.71542449e-07
-2.66765506e-07
-2.57960885e-07
-2.52260785e-07
-2.43216594e-07
-2.39191244e-07
-2.33276365e-07
-2.28432609e-07
-2.22537079e-07
-2.16916484e-07
-2.11180048e-07
-2.10177954e-07
-2.0047184e-07
-1.77530125e-07
-1.76631758e-07
-1.51925257e-07
-1.49611096e-07
-8.57986683e-08
-7.03542814e-08
-3.73057239e-08
-2.17893029e-08
9.85528014e-09
2.57137358e-08
5.91719884e-08
7.87120059e-08
1.16708241e-07
1.4033611e-07
1.82976757e-07
2.09090395e-07
2.55250382e-07
2.82664503e-07
3.29921199e-07
3.57120138e-07
4.02605905e-07
4.27431767e-07
4.68800196e-07
4.91037598e-07
5.2911144e-07
5.5036214e-07
5.81842537e-07
5.99106525e-07
6.26490875e-07
6.40530034e-07
6.6482122e-07
6.77007037e-07
6.99330081e-07
7.09692574e-07
7.29995571e-07
7.38928175e-07
7.57504213e-07
7.65194485e-07
7.82095497e-07
7.89171694e-07
8.04545817e-07
8.10657973e-07
8.24980417e-07
8.30444745e-07
8.43541412e-07
8.5232599e-07
8.67585655e-07
8.58390514e-07
8.65388995e-07
9.02337074e-07
9.32061238e-07
8.75602223e-07
8.73728674e-07
9.60487627e-07
9.84039956e-07
8.98936237e-07
9.05952985e-07
9.98977373e-07
1.00063517e-06
9.35741255e-07
9.31402904e-07
1.00376111e-06
1.00892537e-06
9.62700026e-07
9.51413557e-07
1.01165369e-06
1.01472151e-06
9.79742881e-07
9.67932349e-07
1.0178737e-06
1.02004937e-06
9.90937956e-07
9.79802455e-07
1.02280288e-06
1.02419046e-06
9.98624268e-07
9.88922013e-07
1.02671226e-06
1.02741292e-06
1.00383045e-06
9.96157651e-07
1.02983173e-06
1.03011662e-06
1.00750516e-06
1.00211868e-06
1.03240271e-06
1.03249839e-06
)
;

boundaryField
{
    closed
    {
        type            calculated;
        value           nonuniform List<scalar> 0();
    }
    open
    {
        type            calculated;
        value           nonuniform List<scalar> 0();
    }
    sides
    {
        type            empty;
    }
    procBoundary4to3
    {
        type            processor;
        value           uniform -3.84781977e-07;
    }
    procBoundary4to5
    {
        type            processor;
        value           uniform 1.01087844e-06;
    }
}


// ************************************************************************* //
