/*--------------------------------*- C++ -*----------------------------------*\
| =========                 |                                                 |
| \\      /  F ield         | OpenFOAM: The Open Source CFD Toolbox           |
|  \\    /   O peration     | Version:  2306                                  |
|   \\  /    A nd           | Website:  www.openfoam.com                      |
|    \\/     M anipulation  |                                                 |
\*---------------------------------------------------------------------------*/
FoamFile
{
    version     2.0;
    format      ascii;
    arch        "LSB;label=32;scalar=64";
    class       volScalarField;
    location    "0.00196";
    object      prefDZ_H;
}
// * * * * * * * * * * * * * * * * * * * * * * * * * * * * * * * * * * * * * //

dimensions      [1 -1 -1 0 0 0 0];

internalField   nonuniform List<scalar> 
530
(
0.000107136421
0.00011014911
0.000110407015
0.000107726233
0.000106514484
0.000107531443
0.000110286136
0.000110436248
0.000107733466
0.000106672259
0.000107582424
0.000110346756
0.000110448845
0.000107720278
0.000106611735
0.000107517319
0.000110376946
0.000110450598
0.000107708337
0.000106544766
0.000107410874
0.000110350237
0.000110490055
0.00010760349
0.000106718803
0.000106710455
0.000107807023
0.000110387587
0.000110465838
0.000110460204
0.000107715249
0.000107007812
0.000106841348
0.000106918885
0.000110404507
0.000110491359
0.000107419694
0.000107719522
0.000110418473
0.000110455797
0.000110439162
0.000107708099
0.000107058989
0.00010698164
0.000107051045
0.00011044379
0.000110427397
0.000107704138
0.000106503991
0.000107542231
0.000110439532
0.000110399794
0.000107705739
0.000106687238
0.000107268049
0.000105853374
0.00010722201
0.000110417951
0.000110429503
0.000110468444
0.00010776686
0.000107799003
0.000110406501
0.000110403117
0.000110400054
0.000107743421
0.000106848813
0.000106894801
0.000106870543
0.000110415831
0.000110365333
0.000107770846
0.000106240371
0.000107041675
0.000110411456
0.000110346886
0.000107705459
0.00010593857
0.000106884407
0.000110259566
0.000110456536
0.000106649097
0.000107008023
0.000110314539
0.000110398349
0.000110276181
0.000107736666
0.000105918786
0.000107059819
0.000105880157
0.000106750191
0.000110219248
0.000110372574
0.000110235037
0.000110393799
0.000107497056
0.000106345578
0.000105920011
0.000106457296
0.000110134144
0.000110324529
0.000110144237
0.000110372944
0.00011025456
0.000107503523
0.000106263756
0.000106893313
0.000107012031
0.000110436058
0.000110440205
0.000107730033
0.000107703899
0.000110477431
0.000110476987
0.000107712691
0.000106824606
0.000106782577
0.00010684377
0.000110440151
0.00011034429
0.000107709033
0.000106324639
0.000107120195
0.000110344834
0.000110496706
0.000107461531
0.000107209833
0.00011034419
0.00011048772
0.00010769862
0.000107334037
0.000110368227
0.000110398547
0.000107771035
0.000106925647
0.000106870231
0.000106914196
0.000110343843
0.000110331313
0.000107762748
0.000106477262
0.000107086023
0.000110345926
0.000110327939
0.000107789456
0.000105974382
0.000106785878
0.000110280102
0.000110340051
0.000106385292
0.000105793177
0.0001103043
0.000110270322
0.000107784196
0.000110232884
0.000110441921
0.00010734697
0.000106410406
0.000106244923
0.000106250289
0.00011018435
0.00011030496
0.000108037948
0.000110310623
0.000110344208
0.000107799499
0.000106940768
0.000107498042
0.000106654419
0.000106971897
0.00011022815
0.000110378081
0.000107309149
0.000107073273
0.000110180509
0.0001103793
0.000107267837
0.000106830307
0.000110211698
0.000110184598
0.000107832125
0.000105821566
0.000106122753
0.000109925961
0.000110192935
0.000109971664
0.000106117706
0.000105745528
0.000110048786
0.000110295402
0.000110150108
0.000107757009
0.00010509904
0.000107028328
0.000110193188
0.000110447756
0.00011033437
0.000107684396
0.000106596268
0.000107129184
0.000107884498
0.000107708728
0.000107689788
0.000107576938
0.000110230655
0.000110504919
0.000107672403
0.000106993937
0.000110283692
0.000110314651
0.000107758077
0.00010611847
0.00010613722
0.000108374045
0.000110291968
0.00010748079
0.000106430303
0.000110167759
0.000110350493
0.000106752386
0.000107877656
0.000110280237
0.000107789684
0.00010660452
0.00011040274
0.000110387734
0.000107759959
0.000106532713
0.000108270305
0.000110375958
0.000107801789
0.000107737999
0.000110362031
0.000110410394
0.000107743607
0.000105833397
0.000106905206
0.000110205881
0.00011034358
0.000106824636
0.000106632533
0.000110184396
0.000110253471
0.0001078096
0.000106294499
0.000106917128
0.000110242493
0.000110404305
0.000107094031
0.000106741772
0.000110133851
0.000110206617
0.000107856417
0.00010636367
0.000106372321
0.000110033921
0.000110155008
0.000108583585
0.000105887379
0.000105899254
0.000110000629
0.000110339096
0.000107302288
0.000106886085
0.00011004028
0.000110326363
0.00010787899
0.000107149542
0.000106453968
0.000106464408
0.000109971488
0.000110102397
0.000110135064
0.000109159798
0.000107343547
0.000107568679
0.000110294187
0.000110503526
0.000107759016
0.000107040444
0.000107049125
0.000107732988
0.000107713788
0.000107842785
0.000107769508
0.000110073596
0.000110388162
0.000107864517
0.000106299397
0.000106309513
0.000109906921
0.000110149733
0.000110212871
0.000110336927
0.000107690102
0.000107905358
0.000107713645
0.000107854329
0.000107725465
0.000110148925
0.000110488944
0.00010801471
0.000107723916
0.000106824395
0.000106829936
0.000110008867
0.000110299809
0.000107846273
0.000106426076
0.000106565413
0.000110097715
0.000110403572
0.000107648775
0.000106484868
0.000109912632
0.000110216206
0.000107859062
0.000106209573
0.0001062511
0.000109865752
0.000110397175
0.000107969778
0.000107226627
0.000109952212
0.000110388171
0.000107937899
0.000107745153
0.000106988522
0.000106993136
0.000109952297
0.000110414052
0.000107933271
0.000107166106
0.000109893048
0.000110314296
0.000107929174
0.00010731685
0.000106138459
0.000106188515
0.000109858792
0.000110343067
0.000108007122
0.000107003008
0.000109841516
0.000110239532
0.000108392232
0.000106969723
0.000106927143
0.00010988482
0.000110191428
0.000107873442
0.000106013186
0.000106068607
0.000109828158
0.000110339223
0.000108071391
0.000107048567
0.000109482276
0.000110244565
0.000109263461
0.000107305456
0.000106899019
0.000109844731
0.000110286083
0.000107929493
0.000107254094
0.000106132966
0.000106188563
0.000109816156
0.000110354147
0.000108054948
0.000107218872
0.000109888606
0.00011038665
0.000107892201
0.000107516112
0.000106674728
0.000107447524
0.000108633477
0.000107870196
0.000106622351
0.000109894758
0.000110357554
0.000108024541
0.000106727597
0.000109830257
0.000110347591
0.000108067022
0.000106838731
0.000109827202
0.000110414583
0.000107603261
0.000107883832
0.000110153653
0.000107886752
0.000107194888
0.000109963103
0.000110315028
0.000108022222
0.000107396255
0.000107393932
0.000109853147
0.000110248141
0.000108080172
0.000105996174
0.000105881049
0.000108654271
0.000110329839
0.000107937885
0.000107422158
0.000109853076
0.000107903885
0.000106667905
0.000109958267
0.000110221958
0.000107924825
0.000107318078
0.000107318283
0.000110027112
0.000110288326
0.000108094786
0.000106090646
0.000105874731
0.000108365226
0.000110295506
0.000107916752
0.00010750429
0.000109851805
0.000107900695
0.000106528706
0.000109507387
0.000110143717
0.000107793072
0.00010655673
0.00010768983
0.00011014502
0.000110530944
0.00011033852
0.000107846009
0.000106548488
0.000106715139
0.00010576706
0.000105800602
0.000109876296
0.000110212825
0.000110197526
0.000107897969
0.000107145816
0.000110047595
0.000110337656
0.000107862651
0.000106683757
0.000106731142
0.000110151989
0.000110281506
0.00010798305
0.000105988816
0.000106134676
0.000110035554
0.000108603085
0.000106645285
0.000107773837
0.000110077097
0.000110371029
0.000108034479
0.000106121239
0.000106136361
0.000109858187
0.000110170959
0.00010793464
0.000106379627
0.000106404162
0.000109939382
0.000110207048
0.000107945212
0.000106434889
0.00010700077
0.000110100346
0.000107841904
0.000106781606
0.000109396145
0.000110308095
0.000110191876
0.000107804019
0.00010573994
0.000105776457
0.000109973777
0.000110204787
0.000107900356
0.000106251979
0.000107135477
0.00011014457
0.000107862447
0.000106756696
0.000109582607
0.000110336653
0.000108815889
0.000107774612
0.000106209194
0.000107263632
0.00011011658
0.000107882337
0.000106727068
0.000109981671
0.000110311514
0.000107762345
0.000106968803
0.000109631
0.000110350951
0.000110091893
0.000107816728
0.00010605933
0.000106091894
0.000110049166
0.00011021628
0.000107918815
0.000106609405
0.000106616768
0.000110123455
0.000110221398
0.000107885226
0.000106486931
0.000106502851
0.000110111768
0.000110253082
0.000107877741
0.000106500089
0.000106510937
0.000110111921
0.000110257198
)
;

boundaryField
{
    closed
    {
        type            calculated;
        value           nonuniform List<scalar> 0();
    }
    open
    {
        type            calculated;
        value           nonuniform List<scalar> 0();
    }
    sides
    {
        type            empty;
    }
    procBoundary2to1
    {
        type            processor;
        value           uniform 0.000107441112;
    }
    procBoundary2to3
    {
        type            processor;
        value           uniform 0.00010787271;
    }
}


// ************************************************************************* //
