/*--------------------------------*- C++ -*----------------------------------*\
| =========                 |                                                 |
| \\      /  F ield         | OpenFOAM: The Open Source CFD Toolbox           |
|  \\    /   O peration     | Version:  2306                                  |
|   \\  /    A nd           | Website:  www.openfoam.com                      |
|    \\/     M anipulation  |                                                 |
\*---------------------------------------------------------------------------*/
FoamFile
{
    version     2.0;
    format      ascii;
    arch        "LSB;label=32;scalar=64";
    class       volScalarField;
    location    "0.00196";
    object      prefDh_H;
}
// * * * * * * * * * * * * * * * * * * * * * * * * * * * * * * * * * * * * * //

dimensions      [1 1 -3 0 0 0 0];

internalField   nonuniform List<scalar> 
530
(
23235.1894
23914.6723
23972.7373
23368.0926
23094.8934
23324.3049
23945.5076
23979.3111
23369.659
23130.4497
23335.8076
23959.1656
23982.1469
23366.7
23116.782
23321.1003
23965.9689
23982.5445
23364.02
23101.683
23297.037
23959.9483
23991.4449
23340.5092
23140.8805
23139.0173
23385.6707
23968.3575
23985.9269
23984.7006
23365.3443
23206.1264
23168.5538
23186.0375
23972.1758
23991.7247
23299.0388
23366.7024
23975.3222
23983.6454
23979.9591
23363.7639
23217.7173
23200.1797
23215.9213
23981.0238
23977.3163
23363.0501
23092.473
23326.7108
23980.0652
23971.075
23363.383
23133.89
23264.8033
22945.692
23254.4448
23975.2889
23977.7386
23986.6085
23377.323
23384.665
23972.6376
23971.7629
23971.1669
23371.7754
23170.32
23180.64
23175.2208
23974.7347
23963.3426
23378.2805
23033.0283
23213.8049
23973.7482
23959.1885
23363.5201
22964.9969
23178.2391
23939.5456
23983.8801
23125.3467
23206.1832
23951.9551
23970.7212
23943.2828
23370.601
22960.6006
23217.8924
22951.898
23148.0389
23930.4582
23964.975
23933.961
23969.7782
23316.727
23056.7679
22960.8745
23081.9848
23911.3465
23954.1143
23913.6383
23965.0116
23938.4777
23317.9852
23038.4515
23180.315
23207.2189
23979.2915
23980.1713
23368.8391
23362.8187
23988.5557
23988.4667
23364.9299
23164.8113
23155.2865
23169.1708
23980.236
23958.5936
23364.1417
23052.0814
23231.4267
23958.753
23992.9225
23308.6014
23251.6542
23958.6101
23990.8972
23362.0924
23279.7475
23964.0143
23970.7957
23378.2107
23187.675
23175.1285
23185.0973
23958.534
23955.6625
23376.2635
23086.5205
23223.8489
23958.9824
23954.9085
23382.4016
22973.0664
23156.1233
23944.2158
23957.6528
23065.7164
22932.1247
23949.6908
23941.9971
23380.5977
23933.5793
23980.5943
23282.7946
23071.4155
23034.1276
23035.3044
23922.6492
23949.7616
23437.7868
23951.0462
23958.5572
23384.5863
23191.1642
23316.866
23126.5745
23198.1421
23932.4528
23966.206
23274.2638
23221.0268
23921.735
23966.5256
23264.9169
23166.2735
23928.7567
23922.5919
23391.9933
22938.7115
23006.5565
23864.4794
23924.4799
23874.863
23005.4375
22921.5168
23892.1743
23947.5399
23914.8722
23375.0121
22775.6329
23210.765
23924.6976
23981.8564
23956.4005
23358.5348
23113.4211
23233.4396
23403.9921
23363.6942
23360.1639
23334.4917
23933.0367
23994.7906
23356.1495
23203.0471
23945.0133
23951.9137
23375.0631
23005.572
23009.7008
23513.6634
23946.8381
23312.9685
23076.0246
23918.9225
23960.1287
23148.5811
23402.3846
23944.2187
23382.1018
23115.1994
23971.9598
23968.4107
23375.6949
23098.9664
23490.1976
23965.7233
23384.5986
23370.5568
23962.673
23973.491
23371.9127
22941.2435
23183.1326
23927.5003
23958.5964
23164.9017
23121.6657
23922.6631
23938.1112
23386.627
23045.3148
23185.8226
23935.7471
23972.2164
23225.6962
23146.2849
23911.291
23927.5403
23397.1988
23061.0203
23062.92
23888.8193
23915.9295
23561.0808
22953.5272
22956.1009
23881.4093
23957.4495
23272.8609
23178.7528
23890.2544
23954.5315
23402.49
23238.2504
23081.3947
23083.6817
23874.7983
23904.0905
23911.4672
23691.3938
23281.9908
23332.8219
23947.3751
23994.4614
23374.9963
23213.4074
23215.3937
23369.5507
23364.8502
23394.6241
23377.9825
23897.7541
23968.4605
23398.8258
23046.4053
23048.7064
23860.289
23914.8253
23929.0071
23957.066
23359.738
23408.8092
23364.822
23397.1737
23367.8943
23914.6574
23991.139
23432.5999
23367.6671
23164.9235
23166.0653
23883.2226
23948.5669
23394.7572
23075.037
23106.4403
23903.1855
23972.0114
23350.913
23088.2466
23861.6221
23929.7386
23397.7405
23026.2792
23035.445
23851.0258
23970.534
23423.35
23255.5402
23870.5148
23968.4536
23415.4292
23372.586
23202.0408
23202.9685
23870.4009
23974.3732
23415.1141
23241.9742
23857.1491
23951.8043
23413.6149
23275.9444
23010.2718
23021.3384
23849.5002
23958.3456
23432.0009
23205.1761
23845.6262
23934.9637
23517.8629
23197.8196
23188.1558
23855.3668
23924.1467
23400.9789
22981.9984
22994.2879
23842.5982
23957.4797
23446.4798
23215.4485
23764.3467
23936.0928
23714.8604
23273.5637
23181.8575
23846.3329
23945.4632
23413.8341
23261.8077
23009.0564
23021.3602
23839.9022
23960.837
23442.6782
23253.8264
23856.2119
23968.131
23405.3101
23320.8989
23131.1699
23305.5359
23572.3157
23400.6712
23119.2738
23857.6543
23961.6167
23435.9156
23142.9635
23843.1075
23959.3656
23445.492
23168.1338
23842.393
23974.5513
23340.6435
23403.8886
23915.7532
23403.873
23248.4632
23873.0698
23951.9836
23434.3495
23294.0391
23293.4463
23848.1427
23936.9146
23447.4074
22977.9814
22951.9235
23576.9782
23955.3945
23416.1187
23299.7454
23848.2221
23407.6596
23129.7215
23871.9896
23931.0122
23412.4614
23276.4047
23276.3964
23887.2671
23945.9707
23450.6909
22999.2538
22950.5084
23511.6247
23947.6561
23411.2797
23318.3057
23847.9193
23406.9628
23098.3667
23770.0219
23913.4049
23382.8907
23104.6013
23359.2781
23913.8074
24000.6616
23957.2747
23394.5411
23102.6528
23140.2029
22926.4252
22933.8967
23853.4484
23928.9284
23925.4841
23406.7801
23237.3856
23892.0924
23957.1154
23398.4705
23133.1831
23143.8816
23915.4333
23944.4501
23425.5015
22976.3734
23009.3068
23889.2306
23565.4654
23124.6034
23378.8671
23898.4714
23964.6125
23437.1091
23006.3034
23009.6517
23849.3616
23919.5389
23414.7676
23064.7025
23070.1208
23867.6288
23927.6705
23417.1195
23077.095
23204.8029
23903.8006
23393.9329
23155.2831
23744.8399
23950.4163
23924.2518
23385.357
22920.2798
22928.4074
23875.3429
23927.175
23407.0023
23035.8028
23235.1508
23913.7588
23398.5001
23149.6259
23787.0515
23956.8483
23613.6123
23378.9994
23026.248
23264.0355
23907.4334
23403.0283
23142.9631
23877.1913
23951.2146
23376.7677
23197.431
23798.004
23960.0671
23901.7079
23388.1231
22992.3778
22999.5919
23892.2873
23929.7396
23411.176
23116.4902
23118.0925
23909.0344
23930.8855
23403.5746
23088.8439
23092.3361
23906.409
23938.0343
23401.9032
23091.7937
23094.1598
23906.4364
23938.9627
)
;

boundaryField
{
    closed
    {
        type            calculated;
        value           nonuniform List<scalar> 0();
    }
    open
    {
        type            calculated;
        value           nonuniform List<scalar> 0();
    }
    sides
    {
        type            empty;
    }
    procBoundary2to1
    {
        type            processor;
        value           uniform 23303.8566;
    }
    procBoundary2to3
    {
        type            processor;
        value           uniform 23400.7806;
    }
}


// ************************************************************************* //
