/*--------------------------------*- C++ -*----------------------------------*\
| =========                 |                                                 |
| \\      /  F ield         | OpenFOAM: The Open Source CFD Toolbox           |
|  \\    /   O peration     | Version:  2306                                  |
|   \\  /    A nd           | Website:  www.openfoam.com                      |
|    \\/     M anipulation  |                                                 |
\*---------------------------------------------------------------------------*/
FoamFile
{
    version     2.0;
    format      ascii;
    arch        "LSB;label=32;scalar=64";
    class       volScalarField;
    location    "0.0019";
    object      H2O;
}
// * * * * * * * * * * * * * * * * * * * * * * * * * * * * * * * * * * * * * //

dimensions      [0 0 0 0 0 0 0];

internalField   nonuniform List<scalar> 
530
(
0.12551241
0.124274262
0.124434182
0.125756575
0.125690916
0.124529121
0.124720353
0.125932257
0.125884681
0.124775362
0.124944044
0.126085661
0.126048653
0.124974089
0.125155355
0.12622016
0.126190531
0.12512563
0.12535629
0.126347307
0.126319559
0.125275298
0.125516275
0.126455617
0.126430282
0.12542095
0.125645067
0.126573355
0.126532302
0.125577869
0.125738618
0.126602807
0.126630979
0.125732616
0.12580923
0.126285748
0.126737615
0.126205142
0.1258844
0.125991034
0.12680281
0.12664219
0.125960447
0.125971572
0.126833811
0.126858841
0.126025146
0.126080516
0.126837744
0.1268942
0.1260791
0.126174732
0.126870403
0.126945717
0.12613893
0.126245191
0.126925876
0.126981461
0.126187388
0.12629671
0.126981786
0.12700046
0.126214647
0.126332893
0.12700691
0.127024244
0.126246171
0.126341054
0.127006196
0.127020989
0.126264466
0.126342598
0.127001232
0.127012573
0.126271715
0.12634426
0.126990965
0.127001195
0.126271274
0.126345457
0.126975727
0.126994985
0.126265378
0.126347596
0.12696056
0.12701019
0.12625765
0.126362923
0.126959618
0.127018178
0.12625086
0.126509908
0.12702876
0.126730379
0.126368556
0.12685299
0.126673447
0.126508923
0.126792114
0.127065027
0.126401289
0.126424081
0.12701155
0.126964498
0.126295141
0.126359389
0.126922716
0.1269099
0.126263608
0.12631831
0.126873074
0.126869412
0.126241091
0.126294539
0.126843852
0.126838595
0.126223291
0.126275677
0.126816892
0.126811223
0.126206649
0.126258332
0.126790794
0.126785125
0.126190384
0.12624583
0.126770957
0.12676043
0.126173695
0.126230377
0.126745436
0.126735386
0.126153053
0.126214364
0.126718482
0.126710731
0.126136986
0.126197282
0.126690736
0.126683198
0.126117137
0.12617838
0.126662739
0.126654951
0.126097743
0.126158127
0.126635708
0.126627972
0.126078868
0.126139811
0.126608573
0.126603152
0.126058199
0.1261253
0.126581447
0.126580678
0.126037852
0.126105128
0.126548176
0.126558262
0.126020174
0.126087924
0.126521032
0.126535426
0.126006991
0.126071556
0.126493286
0.126513535
0.125992579
0.126058299
0.126472794
0.126494571
0.125977826
0.126046568
0.126461555
0.126478335
0.125977669
0.12603433
0.126456114
0.126468131
0.125982844
0.126037755
0.126453757
0.126463251
0.125987903
0.126042727
0.126453728
0.12646244
0.125995035
0.12604931
0.126455579
0.126464886
0.126004459
0.126058443
0.126461631
0.12646984
0.126016427
0.126068275
0.126469771
0.12647563
0.126029859
0.126079043
0.126480748
0.126484236
0.126047886
0.12609752
0.126498677
0.126495112
0.126068247
0.126114375
0.126507195
0.126505424
0.126083269
0.126133492
0.126512595
0.126511286
0.126093265
0.126141875
0.126516135
0.126516229
0.126104396
0.126151754
0.126516593
0.126521569
0.126117972
0.126167088
0.126525829
0.126529092
0.126137894
0.126187861
0.126543362
0.126538507
0.126161462
0.126206513
0.126558039
0.126550788
0.126187485
0.126227821
0.126572386
0.126567185
0.126211673
0.126250681
0.126585043
0.12658708
0.126238892
0.126280467
0.126604255
0.126608597
0.126267517
0.126311792
0.126628468
0.126632454
0.126300363
0.126343033
0.126657876
0.126659589
0.126338813
0.126380166
0.126691023
0.126689413
0.12637878
0.126423524
0.126731426
0.126723571
0.126420917
0.126467676
0.126769395
0.126761993
0.126459283
0.126515083
0.126805652
0.126803757
0.126497966
0.126558343
0.12683441
0.126846561
0.126537504
0.126604166
0.126868267
0.12688912
0.126580524
0.126650154
0.126906701
0.126934635
0.126628273
0.126698204
0.12694876
0.126982494
0.126676335
0.126748069
0.126994484
0.127031928
0.126726991
0.126797164
0.127044467
0.127080519
0.126779798
0.126846068
0.127096403
0.12712637
0.126831722
0.126896635
0.127145359
0.127171445
0.126879732
0.126948672
0.127189139
0.127216174
0.126925601
0.127000847
0.127231173
0.127258732
0.126973055
0.127051281
0.127274759
0.127299932
0.127024782
0.127098654
0.127323356
0.127340999
0.127081171
0.127145913
0.127373699
0.127383266
0.12713595
0.127196398
0.127419682
0.127427293
0.127188934
0.127248912
0.127463113
0.127472942
0.12724084
0.127302428
0.127506793
0.127519634
0.127293374
0.127356316
0.127551725
0.127566914
0.127346893
0.12741027
0.127597956
0.127613282
0.127401209
0.127464825
0.127645324
0.127657106
0.127456012
0.127518019
0.127693617
0.127701306
0.127510977
0.127570673
0.127742444
0.12774549
0.127565618
0.127623217
0.12779124
0.127790042
0.127619798
0.127675702
0.127839505
0.127834457
0.127673212
0.127730513
0.127885118
0.127878278
0.127727114
0.127781622
0.127927616
0.127921607
0.12778054
0.127832251
0.127969772
0.127964514
0.127833248
0.127882199
0.128011716
0.128006981
0.127885151
0.127931393
0.128053496
0.128049005
0.127936543
0.127979867
0.128094843
0.12809054
0.127987035
0.128027593
0.128135624
0.128131536
0.128036494
0.128074493
0.128175742
0.128171929
0.128084777
0.128120457
0.128215127
0.128211642
0.128131844
0.128165375
0.128253732
0.128250586
0.128177615
0.128209129
0.12829159
0.1282887
0.128222044
0.128251642
0.128328612
0.128325999
0.12826514
0.128291187
0.128363602
0.128362377
0.128306976
0.128331212
0.128398949
0.128397819
0.128347485
0.128371394
0.128434379
0.128432301
0.12838675
0.128408863
0.12846776
0.128466023
0.128424486
0.128446171
0.12850006
0.128498655
0.128459119
0.128482589
0.128531325
0.128530367
0.128493608
0.12851534
0.12856073
0.128560818
0.128527534
0.128548517
0.128590876
0.128590289
0.128560526
0.128578446
0.128620468
0.128620357
0.128594646
0.128607844
0.128654526
0.128654829
0.128623463
0.128638438
0.128676187
0.128685089
0.128675544
0.128687572
0.12869708
0.128710084
0.128715271
0.128729621
0.128736596
0.128751947
0.12876002
0.128776194
0.128785665
0.128802428
0.128813436
0.128830538
0.128843137
0.128860298
0.128874442
0.128891331
0.128906861
0.128923098
0.128939679
0.128954862
0.128972065
0.128985631
0.129001439
0.129013792
0.129029694
0.129041713
0.129054851
0.129065492
0.12907586
0.129084479
0.129092183
0.129098537
0.1291038
0.129108001
0.129111223
0.129113672
0.129115394
0.129116657
0.129117286
0.129117634
0.129117829
0.129117927
0.129117971
0.129117989
0.129117995
0.129117997
0.129117997
0.129117996
0.129117996
0.129117996
0.129117996
0.129117996
0.129117996
0.129117996
0.129117996
0.129117996
0.129117996
0.129117996
0.129117996
0.129117996
0.129117996
0.129117996
0.129117996
0.129117996
0.129117996
0.129117996
0.129117996
0.129117996
0.129117996
0.129117996
0.129117996
0.129117996
)
;

boundaryField
{
    closed
    {
        type            calculated;
        value           nonuniform List<scalar> 0();
    }
    open
    {
        type            calculated;
        value           uniform 0.129117996;
    }
    sides
    {
        type            empty;
    }
    procBoundary5to4
    {
        type            processor;
        value           uniform 0.12557451;
    }
}


// ************************************************************************* //
