/*--------------------------------*- C++ -*----------------------------------*\
| =========                 |                                                 |
| \\      /  F ield         | OpenFOAM: The Open Source CFD Toolbox           |
|  \\    /   O peration     | Version:  2306                                  |
|   \\  /    A nd           | Website:  www.openfoam.com                      |
|    \\/     M anipulation  |                                                 |
\*---------------------------------------------------------------------------*/
FoamFile
{
    version     2.0;
    format      ascii;
    arch        "LSB;label=32;scalar=64";
    class       volScalarField;
    location    "0.00024";
    object      H;
}
// * * * * * * * * * * * * * * * * * * * * * * * * * * * * * * * * * * * * * //

dimensions      [0 0 0 0 0 0 0];

internalField   nonuniform List<scalar> 
531
(
3.10720346e-08
2.35134333e-08
1.71657659e-08
1.99907713e-08
2.50131494e-08
2.40893943e-08
2.10161862e-08
2.11258517e-08
2.27343693e-08
2.27986735e-08
2.21345748e-08
2.20103838e-08
2.22547951e-08
2.23449897e-08
2.22603654e-08
2.22118407e-08
2.22387942e-08
2.22611778e-08
2.22531804e-08
2.22439191e-08
2.22461036e-08
2.22496257e-08
2.22490844e-08
2.22478337e-08
2.22479516e-08
2.22483679e-08
2.22483477e-08
2.22482184e-08
2.22482194e-08
2.22482568e-08
2.22482576e-08
2.22482483e-08
2.22482473e-08
2.22482495e-08
2.224825e-08
2.22482494e-08
2.22482493e-08
2.22482494e-08
2.22482494e-08
2.22482494e-08
2.22482494e-08
2.22482494e-08
2.22482494e-08
2.22482494e-08
2.22482494e-08
2.22482494e-08
2.22482494e-08
2.22482494e-08
2.22482494e-08
2.22482494e-08
2.22482494e-08
2.22482494e-08
2.22482494e-08
2.22482494e-08
2.22482494e-08
2.22482494e-08
2.22482494e-08
2.22482494e-08
2.22482494e-08
2.22482494e-08
2.22482494e-08
2.22482494e-08
2.22482494e-08
2.22482494e-08
2.22482494e-08
2.22482494e-08
2.22482494e-08
2.22482494e-08
2.22482494e-08
2.22482494e-08
2.22482494e-08
2.22482494e-08
2.22482494e-08
2.22482494e-08
2.22482494e-08
2.22482494e-08
2.22482494e-08
2.22482494e-08
2.22482494e-08
2.22482494e-08
2.22482494e-08
2.22482494e-08
2.22482494e-08
2.22482494e-08
2.22482494e-08
2.22482494e-08
2.22482494e-08
2.22482494e-08
2.22482494e-08
2.22482494e-08
2.22482494e-08
2.22482494e-08
2.22482494e-08
2.22482494e-08
2.22482494e-08
2.22482494e-08
2.22482494e-08
2.22482494e-08
2.22482494e-08
2.22482494e-08
2.22482494e-08
2.22482494e-08
2.22482494e-08
2.22482494e-08
2.22482494e-08
2.22482494e-08
2.22482494e-08
2.22482494e-08
2.22482494e-08
2.22482494e-08
2.22482494e-08
2.22482494e-08
2.22482494e-08
2.22482494e-08
2.22482494e-08
2.22482494e-08
2.22482494e-08
2.22482494e-08
2.22482494e-08
2.22482494e-08
2.22482494e-08
2.22482494e-08
2.22482494e-08
2.22482494e-08
2.22482495e-08
2.22482496e-08
2.22482494e-08
2.22482491e-08
2.22482492e-08
2.224825e-08
2.22482499e-08
2.22482488e-08
2.22482486e-08
2.22482497e-08
2.22482504e-08
2.22482496e-08
2.22482485e-08
2.22482489e-08
2.22482501e-08
2.224825e-08
2.2248249e-08
2.2248249e-08
2.22482496e-08
2.22482497e-08
2.22482494e-08
2.22482493e-08
2.22482494e-08
2.22482495e-08
2.22482494e-08
2.22482494e-08
2.22482494e-08
2.22482494e-08
2.22482494e-08
2.22482494e-08
2.22482494e-08
2.22482494e-08
2.22482494e-08
2.22482494e-08
2.22482494e-08
2.22482494e-08
2.22482494e-08
2.22482494e-08
2.22482494e-08
2.22482494e-08
2.22482494e-08
2.22482494e-08
2.22482494e-08
2.22482494e-08
2.22482494e-08
2.22482494e-08
2.22482494e-08
2.22482494e-08
2.22482494e-08
2.22482494e-08
2.22482494e-08
2.22482494e-08
2.22482494e-08
2.22482494e-08
2.22482494e-08
2.22482494e-08
2.22482494e-08
2.22482494e-08
2.22482494e-08
2.22482494e-08
2.22482494e-08
2.22482494e-08
2.22482494e-08
2.22482494e-08
2.22482494e-08
2.22482494e-08
2.22482494e-08
2.22482494e-08
2.22482494e-08
2.22482494e-08
2.22482494e-08
2.22482494e-08
2.22482494e-08
2.22482494e-08
2.22482494e-08
2.22482494e-08
2.22482494e-08
2.22482494e-08
2.22482494e-08
2.22482494e-08
2.22482494e-08
2.22482495e-08
2.22482496e-08
2.22482494e-08
2.22482492e-08
2.22482493e-08
2.22482497e-08
2.22482498e-08
2.22482494e-08
2.2248249e-08
2.22482489e-08
2.22482493e-08
2.22482504e-08
2.22482505e-08
2.22482485e-08
2.22482466e-08
2.22482491e-08
2.22482543e-08
2.22482532e-08
2.22482427e-08
2.22482415e-08
2.22482547e-08
2.22482614e-08
2.2248249e-08
2.22482355e-08
2.22482429e-08
2.22482628e-08
2.22482608e-08
2.22482395e-08
2.22482379e-08
2.22482536e-08
2.22482591e-08
2.22482493e-08
2.22482424e-08
2.22482473e-08
2.22482542e-08
2.2248252e-08
2.22482464e-08
2.22482465e-08
2.22482517e-08
2.22482517e-08
2.22482486e-08
2.22482475e-08
2.22482495e-08
2.22482508e-08
2.22482501e-08
2.22482485e-08
2.22482485e-08
2.22482493e-08
2.22482503e-08
2.22482505e-08
2.22482497e-08
2.22482472e-08
2.22482468e-08
2.22482523e-08
2.22482555e-08
2.22482491e-08
2.22482383e-08
2.22482411e-08
2.2248266e-08
2.22482675e-08
2.22482368e-08
2.22482209e-08
2.22482462e-08
2.22482851e-08
2.22482755e-08
2.2248216e-08
2.22482153e-08
2.22482625e-08
2.22482776e-08
2.22482536e-08
2.22482369e-08
2.2248244e-08
2.2248251e-08
2.22482443e-08
2.22482411e-08
2.224826e-08
2.22482734e-08
2.22482612e-08
2.22482118e-08
2.22482105e-08
2.2248268e-08
2.22483104e-08
2.22482754e-08
2.22481807e-08
2.22481841e-08
2.2248297e-08
2.22483315e-08
2.22482479e-08
2.22481675e-08
2.22482024e-08
2.22483173e-08
2.22483162e-08
2.22482211e-08
2.22481838e-08
2.22482235e-08
2.22483075e-08
2.22483057e-08
2.22482281e-08
2.22481861e-08
2.22482117e-08
2.22483099e-08
2.22483162e-08
2.22482338e-08
2.22481759e-08
2.22482034e-08
2.2248308e-08
2.22483154e-08
2.22482553e-08
2.22481964e-08
2.22481985e-08
2.22482485e-08
2.22483047e-08
2.22482996e-08
2.22482211e-08
2.224819e-08
2.22482381e-08
2.22482986e-08
2.22482785e-08
2.22482173e-08
2.22482219e-08
2.22482737e-08
2.22482721e-08
2.22482229e-08
2.22482232e-08
2.22482782e-08
2.22482845e-08
2.22482283e-08
2.22482094e-08
2.22482535e-08
2.22482855e-08
2.22482628e-08
2.22482264e-08
2.22482295e-08
2.22482538e-08
2.22482609e-08
2.22482591e-08
2.22482517e-08
2.2248239e-08
2.22482395e-08
2.22482527e-08
2.22482611e-08
2.22482497e-08
2.22482391e-08
2.22482451e-08
2.22482577e-08
2.22482572e-08
2.22482406e-08
2.22482301e-08
2.22482384e-08
2.22482724e-08
2.22482821e-08
2.2248238e-08
2.22481632e-08
2.22481641e-08
2.22483475e-08
2.22483848e-08
2.22481669e-08
2.22479358e-08
2.22481231e-08
2.22485929e-08
2.22484418e-08
2.22476476e-08
2.22475099e-08
2.22488648e-08
2.22490333e-08
2.22471305e-08
2.22463135e-08
2.22489901e-08
2.22498671e-08
2.2245273e-08
2.22429454e-08
2.22568203e-08
2.22646314e-08
2.22162207e-08
2.21621943e-08
2.23124855e-08
2.26198987e-08
2.22570511e-08
2.10240159e-08
2.14453043e-08
2.6177223e-08
2.66297808e-08
1.50526787e-08
1.34103104e-08
3.00673338e-08
4.09277104e-08
3.1041092e-08
1.41900109e-09
1.18685477e-09
3.59297813e-08
5.06594452e-08
3.25440006e-08
1.38089315e-09
1.82659972e-09
1.64895755e-08
5.37834058e-08
4.03892837e-08
4.66485909e-09
5.75165874e-09
6.69953276e-09
7.78465852e-09
8.8237034e-09
9.66466864e-09
1.04232353e-08
1.12146152e-08
1.17377965e-08
1.22742867e-08
1.21692877e-08
1.10452391e-08
8.54406635e-09
9.02165346e-09
9.57870642e-09
1.04876441e-08
1.12679214e-08
1.28640589e-08
1.37625579e-08
1.42640655e-08
1.20250512e-08
1.37393125e-08
1.02764656e-08
7.66537111e-08
1.22420004e-07
1.96555873e-07
2.34120209e-07
1.30585659e-07
1.08454809e-07
8.21749077e-08
8.73603321e-08
4.91272415e-08
5.19194186e-08
6.42430541e-08
9.40380659e-08
5.49960381e-07
2.57367969e-06
5.35291616e-06
1.11877254e-05
2.18910858e-05
3.5741779e-05
4.64797828e-05
6.17503761e-05
7.50124805e-05
9.21317506e-05
0.000105820259
0.000122428556
0.00013637491
0.00015374471
0.000169456949
0.000185959056
0.000199995836
0.000216240673
0.000230912199
0.000243127033
0.000253485038
0.000259868117
0.000265418507
0.000269158919
0.00027288186
0.000275295396
0.000277639512
0.000277866734
0.000277711488
0.000275453145
0.000273246899
0.000269139282
0.000265410297
0.00025952942
0.000254769539
0.000248700166
0.000243300103
0.000236673042
0.000231089546
0.000225023816
0.000219640935
0.00021404686
0.000208587109
0.000203323022
0.000197546271
0.000191964581
0.000185708905
0.000180258951
0.000174732819
0.000169711655
0.000164414032
0.000159732388
0.000155038476
0.000150939675
0.00014678692
0.000142903962
0.000139105706
0.000135456004
0.000131936823
0.000128081407
0.000124535597
0.000120876349
0.000117603711
0.000114150878
0.000111088536
0.000107817832
0.000104964743
0.000101934166
9.92912718e-05
9.64720858e-05
9.40092225e-05
9.14810841e-05
8.93644375e-05
8.70730178e-05
8.50615859e-05
8.28848161e-05
8.09393605e-05
7.88630448e-05
7.70620454e-05
7.51853964e-05
7.35158518e-05
7.17200094e-05
7.01311e-05
6.84106704e-05
6.68951964e-05
6.52455757e-05
6.38263674e-05
6.2366258e-05
6.10837646e-05
5.96779484e-05
5.84442732e-05
5.70910889e-05
5.59040825e-05
5.46009161e-05
)
;

boundaryField
{
    closed
    {
        type            calculated;
        value           nonuniform List<scalar> 0();
    }
    open
    {
        type            calculated;
        value           nonuniform List<scalar> 0();
    }
    sides
    {
        type            empty;
    }
    procBoundary4to3
    {
        type            processor;
        value           uniform 2.48746067e-08;
    }
    procBoundary4to5
    {
        type            processor;
        value           uniform 5.34189432e-05;
    }
}


// ************************************************************************* //
