/*--------------------------------*- C++ -*----------------------------------*\
| =========                 |                                                 |
| \\      /  F ield         | OpenFOAM: The Open Source CFD Toolbox           |
|  \\    /   O peration     | Version:  2306                                  |
|   \\  /    A nd           | Website:  www.openfoam.com                      |
|    \\/     M anipulation  |                                                 |
\*---------------------------------------------------------------------------*/
FoamFile
{
    version     2.0;
    format      ascii;
    arch        "LSB;label=32;scalar=64";
    class       volScalarField;
    location    "0.00024";
    object      prefDZ_H;
}
// * * * * * * * * * * * * * * * * * * * * * * * * * * * * * * * * * * * * * //

dimensions      [1 -1 -1 0 0 0 0];

internalField   nonuniform List<scalar> 
531
(
0.00010780013
0.000107801262
0.000108111694
0.000107942026
0.000107764743
0.000107780617
0.000107893879
0.000107887841
0.000107822784
0.000107820353
0.000107844667
0.000107849623
0.000107839872
0.000107836463
0.000107839634
0.000107841522
0.000107840461
0.000107839603
0.000107839906
0.000107840264
0.000107840178
0.000107840043
0.000107840063
0.000107840111
0.000107840107
0.000107840091
0.000107840092
0.000107840097
0.000107840097
0.000107840095
0.000107840095
0.000107840095
0.000107840095
0.000107840095
0.000107840095
0.000107840095
0.000107840095
0.000107840095
0.000107840095
0.000107840095
0.000107840095
0.000107840095
0.000107840095
0.000107840095
0.000107840095
0.000107840095
0.000107840095
0.000107840095
0.000107840095
0.000107840095
0.000107840095
0.000107840095
0.000107840095
0.000107840095
0.000107840095
0.000107840095
0.000107840095
0.000107840095
0.000107840095
0.000107840095
0.000107840095
0.000107840095
0.000107840095
0.000107840095
0.000107840095
0.000107840095
0.000107840095
0.000107840095
0.000107840095
0.000107840095
0.000107840095
0.000107840095
0.000107840095
0.000107840095
0.000107840095
0.000107840095
0.000107840095
0.000107840095
0.000107840095
0.000107840095
0.000107840095
0.000107840095
0.000107840095
0.000107840095
0.000107840095
0.000107840095
0.000107840095
0.000107840095
0.000107840095
0.000107840095
0.000107840095
0.000107840095
0.000107840095
0.000107840095
0.000107840095
0.000107840095
0.000107840095
0.000107840095
0.000107840095
0.000107840095
0.000107840095
0.000107840095
0.000107840095
0.000107840095
0.000107840095
0.000107840095
0.000107840095
0.000107840095
0.000107840095
0.000107840095
0.000107840095
0.000107840095
0.000107840095
0.000107840095
0.000107840095
0.000107840095
0.000107840095
0.000107840095
0.000107840095
0.000107840095
0.000107840095
0.000107840095
0.000107840095
0.000107840095
0.000107840095
0.000107840095
0.000107840095
0.000107840095
0.000107840095
0.000107840095
0.000107840095
0.000107840095
0.000107840095
0.000107840095
0.000107840095
0.000107840095
0.000107840095
0.000107840095
0.000107840095
0.000107840095
0.000107840095
0.000107840095
0.000107840095
0.000107840095
0.000107840095
0.000107840095
0.000107840095
0.000107840095
0.000107840095
0.000107840095
0.000107840095
0.000107840095
0.000107840095
0.000107840095
0.000107840095
0.000107840095
0.000107840095
0.000107840095
0.000107840095
0.000107840095
0.000107840095
0.000107840095
0.000107840095
0.000107840095
0.000107840095
0.000107840095
0.000107840095
0.000107840095
0.000107840095
0.000107840095
0.000107840095
0.000107840095
0.000107840095
0.000107840095
0.000107840095
0.000107840095
0.000107840095
0.000107840095
0.000107840095
0.000107840095
0.000107840095
0.000107840095
0.000107840095
0.000107840095
0.000107840095
0.000107840095
0.000107840095
0.000107840095
0.000107840095
0.000107840095
0.000107840095
0.000107840095
0.000107840095
0.000107840095
0.000107840095
0.000107840095
0.000107840095
0.000107840095
0.000107840095
0.000107840095
0.000107840095
0.000107840095
0.000107840095
0.000107840095
0.000107840095
0.000107840095
0.000107840095
0.000107840095
0.000107840095
0.000107840095
0.000107840095
0.000107840095
0.000107840095
0.000107840095
0.000107840095
0.000107840095
0.000107840095
0.000107840095
0.000107840095
0.000107840095
0.000107840095
0.000107840095
0.000107840095
0.000107840096
0.000107840096
0.000107840095
0.000107840095
0.000107840095
0.000107840096
0.000107840096
0.000107840095
0.000107840095
0.000107840096
0.000107840096
0.000107840095
0.000107840095
0.000107840095
0.000107840096
0.000107840095
0.000107840095
0.000107840095
0.000107840095
0.000107840095
0.000107840095
0.000107840095
0.000107840095
0.000107840095
0.000107840095
0.000107840095
0.000107840095
0.000107840095
0.000107840095
0.000107840095
0.000107840095
0.000107840095
0.000107840095
0.000107840095
0.000107840095
0.000107840095
0.000107840095
0.000107840095
0.000107840096
0.000107840096
0.000107840095
0.000107840095
0.000107840096
0.000107840096
0.000107840095
0.000107840094
0.000107840094
0.000107840097
0.000107840097
0.000107840095
0.000107840094
0.000107840095
0.000107840096
0.000107840096
0.000107840095
0.000107840096
0.000107840096
0.000107840095
0.000107840094
0.000107840095
0.000107840097
0.000107840097
0.000107840095
0.000107840093
0.000107840094
0.000107840098
0.000107840098
0.000107840094
0.000107840092
0.000107840095
0.000107840099
0.000107840097
0.000107840093
0.000107840093
0.000107840096
0.000107840098
0.000107840096
0.000107840093
0.000107840093
0.000107840096
0.000107840098
0.000107840097
0.000107840093
0.000107840093
0.000107840096
0.000107840098
0.000107840097
0.000107840093
0.000107840093
0.000107840095
0.000107840097
0.000107840097
0.000107840095
0.000107840093
0.000107840093
0.000107840096
0.000107840098
0.000107840096
0.000107840093
0.000107840094
0.000107840097
0.000107840096
0.000107840094
0.000107840094
0.000107840096
0.000107840096
0.000107840094
0.000107840094
0.000107840096
0.000107840097
0.000107840095
0.000107840094
0.000107840095
0.000107840096
0.000107840096
0.000107840095
0.000107840095
0.000107840095
0.000107840095
0.000107840096
0.000107840096
0.000107840095
0.000107840095
0.000107840095
0.000107840095
0.000107840095
0.000107840094
0.000107840093
0.000107840093
0.000107840093
0.000107840091
0.000107840088
0.000107840086
0.000107840084
0.000107840083
0.000107840079
0.000107840063
0.000107840055
0.000107840049
0.000107840044
0.000107840016
0.000107839971
0.000107839946
0.000107839929
0.000107839888
0.000107839752
0.000107839675
0.000107839621
0.000107839552
0.000107839243
0.000107839067
0.000107838966
0.000107838865
0.000107837951
0.000107837411
0.000107838876
0.000107840703
0.000107834556
0.000107822615
0.000107836536
0.000107888144
0.000107870966
0.000107723494
0.000107724164
0.000108249716
0.00010838252
0.000107612096
0.000106971389
0.000107536598
0.000110900141
0.000110666071
0.000107199695
0.000105498783
0.00010709295
0.000111139961
0.000111401774
0.00010806721
0.000104829564
0.00010604019
0.000110919865
0.000110990514
0.000110680988
0.000110681148
0.000110572986
0.000110657887
0.000110824114
0.000110963171
0.000111293939
0.00011155449
0.000112071589
0.000112837917
0.000113523627
0.0001124386
0.000111670165
0.000110785484
0.000110391634
0.000109849649
0.000109885954
0.000109409786
0.000109690322
0.000106999416
0.000112994161
0.000111881568
0.000117028065
0.000124206378
0.00012653655
0.00012369493
0.000125238227
0.000123663243
0.000126967599
0.000124873046
0.000128199439
0.000133592305
0.000141724074
0.000157934227
0.000175053953
0.000186930393
0.000199880084
0.000214548235
0.000227022406
0.000235435504
0.000244685029
0.000252020365
0.000259721391
0.000265564984
0.000271965544
0.000277126243
0.000283086194
0.00028807048
0.000293406498
0.000297746062
0.000302910967
0.00030737435
0.00031174466
0.000315431674
0.000318526018
0.00032114057
0.000323677847
0.000325876415
0.000327931414
0.000329800729
0.000331921225
0.000333850262
0.000335828583
0.000337568896
0.000339384766
0.000341052561
0.000342840008
0.000344316728
0.000345678084
0.000347040015
0.000348338086
0.000349622669
0.000350667037
0.000351724261
0.000352591656
0.000353550435
0.000354368118
0.000355299458
0.000356177818
0.000357210669
0.000358128105
0.000358971618
0.000359799689
0.000360588099
0.000361349244
0.000361992526
0.000362612193
0.000363142721
0.000363697067
0.000364170249
0.000364667905
0.000365096909
0.000365638661
0.000366110863
0.000366626987
0.000367054923
0.000367529671
0.00036792425
0.000368381677
0.000368761475
0.000369174952
0.00036951441
0.000369884623
0.00037019017
0.000370505803
0.000370749601
0.000371018904
0.000371244791
0.000371487925
0.000371704556
0.00037193001
0.000372125329
0.000372321869
0.00037249451
0.000372675008
0.000372832316
0.000372998372
0.00037314261
0.000373295799
0.000373424876
0.000373548897
0.00037365562
0.000373769816
0.000373867582
0.000373972616
0.000374062331
0.000374159008
)
;

boundaryField
{
    closed
    {
        type            calculated;
        value           nonuniform List<scalar> 0();
    }
    open
    {
        type            calculated;
        value           nonuniform List<scalar> 0();
    }
    sides
    {
        type            empty;
    }
    procBoundary4to3
    {
        type            processor;
        value           uniform 0.000107780947;
    }
    procBoundary4to5
    {
        type            processor;
        value           uniform 0.0003742525;
    }
}


// ************************************************************************* //
