/*--------------------------------*- C++ -*----------------------------------*\
| =========                 |                                                 |
| \\      /  F ield         | OpenFOAM: The Open Source CFD Toolbox           |
|  \\    /   O peration     | Version:  2306                                  |
|   \\  /    A nd           | Website:  www.openfoam.com                      |
|    \\/     M anipulation  |                                                 |
\*---------------------------------------------------------------------------*/
FoamFile
{
    version     2.0;
    format      ascii;
    arch        "LSB;label=32;scalar=64";
    class       volScalarField;
    location    "0.00128";
    object      mu;
}
// * * * * * * * * * * * * * * * * * * * * * * * * * * * * * * * * * * * * * //

dimensions      [1 -1 -1 0 0 0 0];

internalField   nonuniform List<scalar> 
530
(
1.9551696e-05
1.96881606e-05
1.99708408e-05
2.02672015e-05
1.98618328e-05
1.95594423e-05
1.96860322e-05
1.9959794e-05
2.0268525e-05
1.98783328e-05
1.95644385e-05
1.96829182e-05
1.99472138e-05
2.02704102e-05
1.989915e-05
1.95654964e-05
1.96707643e-05
1.99258654e-05
2.02642211e-05
1.99005395e-05
1.95195727e-05
1.95207297e-05
1.96798246e-05
1.9900321e-05
2.03073406e-05
2.0283639e-05
2.0292355e-05
2.00356536e-05
1.95846509e-05
1.96268656e-05
1.98635968e-05
2.02746422e-05
1.99886687e-05
1.95311076e-05
1.95363062e-05
1.96516777e-05
1.98055337e-05
2.02924591e-05
2.0074251e-05
1.94921685e-05
1.95295767e-05
1.98113818e-05
2.02885873e-05
2.01311615e-05
1.94581683e-05
1.94846384e-05
1.98198114e-05
2.03009723e-05
2.02930251e-05
2.02938331e-05
2.02032503e-05
1.95515283e-05
1.95431983e-05
1.96193395e-05
1.97685626e-05
2.03003295e-05
2.0222717e-05
1.95424123e-05
1.95456371e-05
1.96111404e-05
1.97662874e-05
2.03089559e-05
2.0277559e-05
1.9615802e-05
1.95628657e-05
1.97754743e-05
2.03006894e-05
2.02914626e-05
1.96373403e-05
1.95392617e-05
1.97580095e-05
2.03080743e-05
2.0295578e-05
1.97461321e-05
1.97665415e-05
2.03137e-05
2.02972496e-05
1.96866428e-05
1.95859033e-05
1.9663645e-05
1.95673715e-05
1.97435823e-05
2.02857988e-05
2.03148613e-05
2.0313736e-05
1.96732908e-05
1.94228799e-05
1.9749898e-05
2.02842649e-05
2.03301052e-05
1.97239886e-05
1.97222866e-05
2.027205e-05
2.03077259e-05
1.96415647e-05
1.94220064e-05
1.96997554e-05
2.02649551e-05
2.03224214e-05
1.97398034e-05
1.96874989e-05
2.02138776e-05
2.03147717e-05
1.97381232e-05
1.97337888e-05
2.01736638e-05
2.03015774e-05
1.97267816e-05
1.94786611e-05
1.9646127e-05
2.0179873e-05
2.03019006e-05
1.97476065e-05
1.95145373e-05
1.95711238e-05
2.01115003e-05
2.02904407e-05
1.9780981e-05
1.95512086e-05
1.95338501e-05
1.99766124e-05
2.02825381e-05
1.98231718e-05
1.97572846e-05
1.9866507e-05
2.02489205e-05
1.98631398e-05
1.96410226e-05
1.95703881e-05
1.98708574e-05
2.02530473e-05
1.99153292e-05
1.96825805e-05
1.95753364e-05
1.98253643e-05
2.0239737e-05
1.99585213e-05
1.9715033e-05
1.95826486e-05
1.97946189e-05
2.02277828e-05
1.99928471e-05
1.97338626e-05
1.95550605e-05
1.97681765e-05
2.02201909e-05
1.99868088e-05
1.97568326e-05
1.97733298e-05
2.0211207e-05
2.0021119e-05
1.97362338e-05
1.9529872e-05
1.97547889e-05
2.02218349e-05
2.00054426e-05
1.97591273e-05
1.97699373e-05
2.02248919e-05
2.00448547e-05
1.97398163e-05
1.95530128e-05
1.97608406e-05
2.02378154e-05
2.0057966e-05
1.97394097e-05
1.95320512e-05
1.97551298e-05
2.0245581e-05
2.00111306e-05
1.97651058e-05
1.97731396e-05
2.02551512e-05
2.00596778e-05
1.97477591e-05
1.95637733e-05
1.97719275e-05
2.02589334e-05
2.01038699e-05
1.97496854e-05
1.95900983e-05
1.97800885e-05
2.02618646e-05
2.01229754e-05
1.97540636e-05
1.96002269e-05
1.97852168e-05
2.02613317e-05
2.00945423e-05
1.97621184e-05
1.96398335e-05
1.9609839e-05
1.95495995e-05
1.97635231e-05
2.02545387e-05
1.9983552e-05
1.978178e-05
1.97761382e-05
2.02650992e-05
1.99705556e-05
1.97783244e-05
1.97789556e-05
2.02693955e-05
2.00642819e-05
1.96407595e-05
1.94702913e-05
1.97612168e-05
2.02540986e-05
1.99525217e-05
1.96912269e-05
1.97606623e-05
2.02628169e-05
1.99269584e-05
1.9647381e-05
1.97521663e-05
2.02587322e-05
1.99169065e-05
1.96271654e-05
1.97492192e-05
2.02576092e-05
1.99226093e-05
1.96482952e-05
1.97546727e-05
2.02610019e-05
1.99381645e-05
1.96922069e-05
1.97671451e-05
2.02740148e-05
2.00882395e-05
1.95601663e-05
1.94318746e-05
1.97602593e-05
2.0259144e-05
1.99694894e-05
1.97152667e-05
1.97689305e-05
2.02759551e-05
1.99620392e-05
1.97248974e-05
1.9774659e-05
2.02879202e-05
2.01333447e-05
1.95774886e-05
1.94624686e-05
1.97716871e-05
2.02700972e-05
2.00011566e-05
1.97436887e-05
1.97800584e-05
2.0298185e-05
2.0175053e-05
1.95949716e-05
1.94945919e-05
1.9783683e-05
2.02875416e-05
2.02264436e-05
1.96105234e-05
1.9493013e-05
1.97844188e-05
2.02811386e-05
2.00523791e-05
1.9756394e-05
1.9783779e-05
2.03079166e-05
2.02305638e-05
1.96293123e-05
1.95578884e-05
1.98199359e-05
2.02952533e-05
2.02549415e-05
1.97566184e-05
1.95740587e-05
1.96087102e-05
1.97921112e-05
2.03055274e-05
2.02527136e-05
1.96367094e-05
1.95094263e-05
1.97922486e-05
2.02960651e-05
2.02540444e-05
1.96106082e-05
1.94666659e-05
1.97859661e-05
2.02882748e-05
2.00989172e-05
1.97357649e-05
1.97861769e-05
2.03110813e-05
2.02437992e-05
1.96020174e-05
1.94994241e-05
1.98057059e-05
2.02919922e-05
2.02561468e-05
1.96107487e-05
1.95075607e-05
1.98118836e-05
2.02908569e-05
2.02526773e-05
1.96018936e-05
1.95022315e-05
1.98145647e-05
2.02897023e-05
2.02467669e-05
1.95906194e-05
1.95079261e-05
1.98251493e-05
2.02889917e-05
2.02482524e-05
1.95905233e-05
1.95152996e-05
1.98390747e-05
2.02878414e-05
2.02205491e-05
1.9572579e-05
1.95164925e-05
1.9840373e-05
2.02882863e-05
2.01962505e-05
1.95686593e-05
1.9542058e-05
1.98439532e-05
2.02898661e-05
2.02681256e-05
1.96191425e-05
1.9420977e-05
1.96579564e-05
2.01160259e-05
2.02950808e-05
1.99739125e-05
1.95798414e-05
1.95760925e-05
1.98755862e-05
2.0288483e-05
2.00428124e-05
1.95347966e-05
1.95308832e-05
1.98705052e-05
2.02844259e-05
1.99415939e-05
1.95051867e-05
1.95654432e-05
2.00714334e-05
2.02805123e-05
1.9779473e-05
1.96803413e-05
1.98209644e-05
2.02880352e-05
2.00671453e-05
1.95135246e-05
1.95860349e-05
2.02405783e-05
2.02748703e-05
1.97859513e-05
1.97137253e-05
1.98476358e-05
2.02874038e-05
2.02268579e-05
1.95294343e-05
1.94642595e-05
1.94771067e-05
1.96111151e-05
2.02849032e-05
2.02761937e-05
1.97515801e-05
1.96839011e-05
2.02146799e-05
2.02692405e-05
1.97754508e-05
1.94359511e-05
1.96463604e-05
2.028628e-05
2.02872259e-05
1.96880117e-05
1.96697956e-05
2.02879828e-05
2.02757215e-05
1.96636053e-05
1.96667274e-05
2.02935951e-05
2.02764856e-05
1.96423366e-05
1.96534331e-05
2.02965094e-05
2.02788008e-05
1.9629189e-05
1.96453295e-05
2.02981003e-05
2.02814342e-05
1.96245694e-05
1.96475677e-05
2.03006558e-05
2.02857788e-05
1.96229202e-05
1.96545557e-05
2.03179885e-05
2.02818922e-05
1.9734255e-05
1.93337831e-05
1.95760492e-05
2.02734512e-05
2.0296067e-05
1.96330238e-05
1.96333261e-05
2.02938119e-05
2.02913559e-05
1.96299322e-05
1.9656177e-05
2.03007871e-05
2.02962102e-05
1.9630615e-05
1.96662127e-05
2.03208956e-05
2.02905585e-05
1.97443654e-05
1.93585598e-05
1.96200011e-05
2.02760653e-05
2.03025319e-05
1.9640811e-05
1.96425276e-05
2.0300455e-05
2.03032642e-05
1.96472828e-05
1.96725561e-05
2.03060018e-05
2.03072765e-05
1.96747316e-05
1.96940563e-05
2.03257017e-05
2.02870573e-05
1.97479348e-05
1.93928711e-05
1.96789276e-05
2.02550088e-05
2.0317726e-05
2.02607754e-05
1.97553001e-05
1.95844736e-05
1.96403449e-05
1.96442262e-05
1.9547227e-05
1.97615943e-05
2.03028525e-05
2.03270215e-05
1.97688231e-05
1.97653761e-05
2.03157558e-05
2.0300887e-05
1.97673519e-05
1.95057777e-05
1.9694459e-05
2.02974964e-05
2.03228405e-05
1.97752135e-05
1.97241684e-05
2.03074488e-05
2.0298462e-05
1.97592941e-05
1.94784243e-05
1.97626208e-05
2.02967347e-05
2.03063239e-05
1.97567423e-05
1.94627431e-05
1.97615928e-05
2.02915205e-05
2.03032524e-05
1.97539996e-05
1.9422443e-05
1.97624677e-05
2.02771886e-05
2.03055561e-05
1.97317719e-05
1.9736777e-05
2.02953677e-05
2.02874467e-05
1.97509649e-05
1.94159761e-05
1.97617846e-05
2.02805022e-05
2.02821023e-05
1.97202609e-05
1.94106879e-05
1.97594372e-05
2.02690353e-05
2.0229184e-05
1.97158075e-05
1.97959443e-05
2.02851256e-05
2.02762313e-05
1.97210792e-05
1.94132592e-05
1.97525043e-05
2.02662993e-05
2.0171591e-05
1.97199379e-05
1.97825934e-05
2.02726405e-05
2.0169396e-05
1.9751508e-05
1.97782192e-05
2.02739934e-05
2.025119e-05
1.97488168e-05
1.94768838e-05
1.97578586e-05
2.02603663e-05
2.02284741e-05
1.97541436e-05
1.94935521e-05
1.97577005e-05
2.02585948e-05
2.02268884e-05
1.97536476e-05
1.95074316e-05
1.9758219e-05
2.02565603e-05
2.02281073e-05
1.97528082e-05
1.95154836e-05
1.97581826e-05
2.02547338e-05
2.02249864e-05
1.97519688e-05
1.95194124e-05
1.97576558e-05
2.02530846e-05
2.02174249e-05
)
;

boundaryField
{
    closed
    {
        type            calculated;
        value           nonuniform List<scalar> 0();
    }
    open
    {
        type            calculated;
        value           nonuniform List<scalar> 0();
    }
    sides
    {
        type            empty;
    }
    procBoundary2to1
    {
        type            processor;
        value           uniform 1.98494199e-05;
    }
    procBoundary2to3
    {
        type            processor;
        value           uniform 1.97508871e-05;
    }
}


// ************************************************************************* //
