/*--------------------------------*- C++ -*----------------------------------*\
| =========                 |                                                 |
| \\      /  F ield         | OpenFOAM: The Open Source CFD Toolbox           |
|  \\    /   O peration     | Version:  2306                                  |
|   \\  /    A nd           | Website:  www.openfoam.com                      |
|    \\/     M anipulation  |                                                 |
\*---------------------------------------------------------------------------*/
FoamFile
{
    version     2.0;
    format      ascii;
    arch        "LSB;label=32;scalar=64";
    class       volScalarField;
    location    "0.00128";
    object      prefDh_H2;
}
// * * * * * * * * * * * * * * * * * * * * * * * * * * * * * * * * * * * * * //

dimensions      [1 1 -3 0 0 0 0];

internalField   nonuniform List<scalar> 
530
(
24.9271592
27.6972247
31.8568989
37.7357661
29.8872024
25.0842714
27.6542407
31.6605809
37.7695777
30.1729171
25.1857969
27.5922259
31.4392173
37.8167895
30.5409791
25.2066033
27.3539261
31.0647508
37.6753359
30.5582907
24.2610502
24.2774397
27.5144775
30.6144966
38.6690558
38.1332024
38.3196395
33.0339473
25.6060733
26.4677547
30.0183777
37.9208058
32.1602094
24.4948959
24.6039425
26.9520006
29.1597788
38.3279577
33.7585382
23.6935002
24.4649803
29.2362988
38.2381032
34.8371782
22.9943572
23.5358809
29.3219679
38.5239081
38.3480261
38.3650424
36.2167959
24.9242514
24.7432948
26.2975415
28.7603318
38.5146923
36.6608198
24.7162521
24.7854105
26.1170696
28.7478069
38.7161159
37.9529383
26.2222268
25.1373171
28.7424467
38.529681
38.273929
26.6638313
24.6499887
28.6563414
38.6956176
38.3577494
28.7081676
28.9090093
38.837778
38.4420745
27.6526781
25.6254741
27.1776964
25.2462501
28.5688426
38.1836751
38.8756713
38.7885172
27.3738371
22.2701932
28.8775507
38.135501
39.151331
28.4272117
28.4164234
37.8451843
38.6619112
26.7182399
22.2519332
27.9464781
37.677868
38.975176
28.6806925
27.7051428
36.4844008
38.8102928
28.5107688
28.6550847
35.6347214
38.5259045
28.187698
23.4190839
26.8607746
35.7493271
38.5252275
28.2938242
24.1511046
25.3375702
34.4535466
38.2624495
28.6804713
24.8992953
24.5690535
31.9531643
38.0675105
29.3016656
29.0004769
30.0242298
37.3002002
29.9576827
26.7291145
25.3129792
30.0906332
37.3938144
30.8606544
27.5660178
25.4143905
29.3413701
37.0831247
31.6278545
28.2207125
25.5636263
28.8727476
36.8031496
32.2490855
28.5943619
24.9971118
28.5154821
36.6167964
32.1355077
28.8821434
28.6506526
36.4092156
32.7668296
28.6305563
24.4802258
28.3567781
36.6505238
32.4767754
28.9617047
28.6323788
36.7212791
33.2063271
28.6907588
24.9608151
28.441741
37.0234935
33.450432
28.6905918
24.5320225
28.3640605
37.2007357
32.5810772
29.1647454
28.6917686
37.423032
33.4825568
28.894896
25.187342
28.611057
37.5184261
34.3121387
28.8944353
25.7352113
28.7263156
37.5910589
34.6736813
28.9825704
25.9491291
28.7982733
37.580555
34.1371809
29.2189786
26.7472008
26.093247
24.8932998
28.5588881
37.406555
32.0747223
29.6561617
28.7431909
37.6500863
31.8371323
29.5927852
28.8210821
37.7468714
33.569149
26.7533336
23.281013
28.4989515
37.3870533
31.5059451
27.8158118
28.5365184
37.5730122
31.0417495
26.9173972
28.407271
37.4698406
30.8583995
26.5047746
28.3742399
37.44231
30.9606752
26.9411831
28.4610021
37.5287651
31.2431753
27.8435619
28.7102279
37.8356307
34.0213964
25.1112444
22.4932092
28.523081
37.4956738
31.8110493
28.3135507
28.6862797
37.8860575
31.6756818
28.5042926
28.8447497
38.165154
34.8789666
25.4674441
23.1260226
28.6746717
37.7634555
32.3924937
28.8847754
28.9779605
38.4101624
35.6792119
25.8239017
23.7877104
28.8940858
38.176654
36.712486
26.1433481
23.755556
28.848973
38.0358488
33.3470841
29.1306428
29.1172735
38.6476967
36.8046192
26.527215
25.0839867
29.3544505
38.3851461
37.3829043
29.1337839
25.4046873
26.0885231
29.0685257
38.6049223
37.3276323
26.6681605
24.0860872
28.9975397
38.3895869
37.3475201
26.1297096
23.2067301
28.8943968
38.2143358
34.2269122
28.7037757
29.2759228
38.7296374
37.1134327
25.9552905
23.8826399
29.1881889
38.3054842
37.3954176
26.137791
24.0495185
29.2661578
38.2822775
37.312858
25.9557977
23.9403924
29.3037204
38.2562116
37.1727232
25.7261224
24.0568163
29.4497191
38.2433371
37.2080817
25.7259884
24.2094022
29.6438646
38.2167317
36.5653902
25.3574701
24.2313614
29.6589543
38.2246232
36.0925681
25.2814047
24.7536489
29.7344221
38.2711038
37.6826235
26.3165074
22.2871495
27.0938483
34.5414609
38.3889765
31.9023023
25.5081018
25.443805
30.2015
38.2255952
33.1678814
24.5817689
24.5153096
30.109488
38.1239065
31.3078277
23.9842256
25.2144479
33.7041839
38.0228428
28.9292059
27.5881026
29.3628641
38.2181461
33.6252353
24.168225
25.6512483
37.0559042
37.8946837
29.3880233
28.2735465
29.7863971
38.2177092
36.7030801
24.4949301
23.1640502
23.4192309
26.157039
38.0936066
37.9045477
29.0834297
27.6680181
36.4443471
37.7671262
29.1456119
22.5754985
26.8506653
38.1296199
38.1471316
27.7762289
27.368827
38.1599365
37.8913363
27.268163
27.3078778
38.29347
37.9068916
26.8248927
27.0351955
38.3637596
37.9572523
26.5503279
26.8701208
38.4038744
38.017348
26.4521628
26.9182958
38.4665489
38.1171514
26.4064214
27.0575386
38.8633019
38.0539187
28.6691587
20.4648493
25.4218277
37.8276603
38.339288
26.6343493
26.6317329
38.309629
38.2380758
26.5524078
27.1054035
38.4805749
38.3589947
26.5447152
27.3003384
38.9441537
38.2608649
28.8580167
20.9756592
26.3265569
37.8872906
38.4846275
26.7807386
26.8175976
38.4792974
38.5307647
26.8937123
27.4270258
38.6152241
38.636008
27.4441656
27.8645043
39.0600962
38.1983213
28.7107362
21.6909225
27.4953618
37.3738911
38.9347727
37.5821562
28.6528791
25.6163771
26.7349866
26.8247987
24.8348702
29.1177627
38.553103
39.1144787
29.2322854
29.25575
38.8238981
38.5281782
28.7907839
23.9902892
27.8396992
38.4110716
39.0057346
29.4893618
28.4639986
38.6207575
38.4595438
28.8434417
23.4327508
29.2319227
38.3897325
38.6268769
28.895922
23.1115696
29.0938271
38.2722257
38.5386854
28.9642418
22.2888866
29.223464
37.9417814
38.5629603
28.6328236
28.7585157
38.3462915
38.1775045
28.9676906
22.159691
29.0468232
38.0068832
38.0282287
28.3549619
22.0542602
29.0071276
37.7487567
36.7744292
28.3150901
29.9398994
38.106383
37.8994459
28.3661242
22.1059644
28.7943801
37.6759623
35.613336
28.3947389
29.5679416
37.8229162
35.5687301
29.0405366
29.2900394
37.8555596
37.3173031
28.937093
23.4237366
28.6281413
37.5475254
36.7920889
29.0399785
23.7673689
28.5724159
37.5079184
36.7564938
29.0002014
24.0524908
28.5563317
37.4614503
36.7864561
28.9593302
24.2174888
28.5340128
37.4190503
36.7152397
28.9299115
24.2973886
28.5069327
37.3795858
36.5409531
)
;

boundaryField
{
    closed
    {
        type            calculated;
        value           nonuniform List<scalar> 0();
    }
    open
    {
        type            calculated;
        value           nonuniform List<scalar> 0();
    }
    sides
    {
        type            empty;
    }
    procBoundary2to1
    {
        type            processor;
        value           uniform 29.6763256;
    }
    procBoundary2to3
    {
        type            processor;
        value           uniform 28.9119037;
    }
}


// ************************************************************************* //
