/*--------------------------------*- C++ -*----------------------------------*\
| =========                 |                                                 |
| \\      /  F ield         | OpenFOAM: The Open Source CFD Toolbox           |
|  \\    /   O peration     | Version:  2306                                  |
|   \\  /    A nd           | Website:  www.openfoam.com                      |
|    \\/     M anipulation  |                                                 |
\*---------------------------------------------------------------------------*/
FoamFile
{
    version     2.0;
    format      ascii;
    arch        "LSB;label=32;scalar=64";
    class       volScalarField;
    location    "0.00162";
    object      alpha;
}
// * * * * * * * * * * * * * * * * * * * * * * * * * * * * * * * * * * * * * //

dimensions      [1 -1 -1 0 0 0 0];

internalField   nonuniform List<scalar> 
530
(
7.63658375e-05
7.66011749e-05
7.65118473e-05
7.65179733e-05
7.6546714e-05
7.67150187e-05
7.6678919e-05
7.66706589e-05
7.67089516e-05
7.6818893e-05
7.68217253e-05
7.68108034e-05
7.68589109e-05
7.69145634e-05
7.69407404e-05
7.69254221e-05
7.69947455e-05
7.70087431e-05
7.70416369e-05
7.70430382e-05
7.71182391e-05
7.71049675e-05
7.71532259e-05
7.71546879e-05
7.72356891e-05
7.7201497e-05
7.72664688e-05
7.72600855e-05
7.73428147e-05
7.72977586e-05
7.73753668e-05
7.73641113e-05
7.74430484e-05
7.73981911e-05
7.74808656e-05
7.74683469e-05
7.75400679e-05
7.74962551e-05
7.75798569e-05
7.75699591e-05
7.76356522e-05
7.75919581e-05
7.7668807e-05
7.76712648e-05
7.77281084e-05
7.76869149e-05
7.77554755e-05
7.77674001e-05
7.78180234e-05
7.77798668e-05
7.78425862e-05
7.78592589e-05
7.79058553e-05
7.78715763e-05
7.79309786e-05
7.79435965e-05
7.79863276e-05
7.79621813e-05
7.80208611e-05
7.80257945e-05
7.80599658e-05
7.80456186e-05
7.80999381e-05
7.80974294e-05
7.81323113e-05
7.81204906e-05
7.81743396e-05
7.81680061e-05
7.82041822e-05
7.81932431e-05
7.82387527e-05
7.82371093e-05
7.82748341e-05
7.82653894e-05
7.83051441e-05
7.83061891e-05
7.83444124e-05
7.83365924e-05
7.837116e-05
7.83736838e-05
7.84128991e-05
7.84067005e-05
7.84382616e-05
7.84400851e-05
7.8480347e-05
7.84756526e-05
7.85074221e-05
7.85070132e-05
7.85467481e-05
7.85448377e-05
7.85810289e-05
7.85772772e-05
7.86158825e-05
7.86131454e-05
7.86525532e-05
7.86496019e-05
7.86882585e-05
7.86855892e-05
7.87247376e-05
7.87225689e-05
7.8759997e-05
7.87581573e-05
7.87974363e-05
7.87960732e-05
7.88317176e-05
7.88302476e-05
7.88695355e-05
7.8869057e-05
7.89035646e-05
7.89022495e-05
7.89420544e-05
7.89413193e-05
7.89755323e-05
7.89738577e-05
7.90149045e-05
7.90134774e-05
7.90476059e-05
7.90459578e-05
7.90878683e-05
7.90861046e-05
7.91198978e-05
7.91183402e-05
7.91598476e-05
7.91586112e-05
7.91925353e-05
7.91911007e-05
7.92314467e-05
7.92307371e-05
7.92654022e-05
7.92640706e-05
7.93028926e-05
7.93030104e-05
7.93379424e-05
7.93360783e-05
7.93702128e-05
7.93760911e-05
7.94110385e-05
7.940961e-05
7.94418284e-05
7.94509182e-05
7.94848347e-05
7.94839431e-05
7.95135167e-05
7.95265725e-05
7.95590174e-05
7.95589381e-05
7.95859765e-05
7.96022563e-05
7.96340973e-05
7.96343663e-05
7.96606902e-05
7.96780436e-05
7.97100195e-05
7.97105414e-05
7.97370428e-05
7.9754164e-05
7.9786445e-05
7.97874806e-05
7.9819661e-05
7.9831781e-05
7.9866558e-05
7.98652492e-05
7.99055511e-05
7.9913951e-05
7.99500835e-05
7.99489549e-05
7.99928009e-05
7.99996726e-05
8.0034438e-05
8.00333885e-05
8.00815732e-05
8.00878187e-05
8.01196269e-05
8.01182441e-05
8.01687026e-05
8.01767421e-05
8.02051698e-05
8.02040537e-05
8.02552541e-05
8.0266031e-05
8.0291527e-05
8.02900426e-05
8.03426849e-05
8.03549707e-05
8.03782715e-05
8.03763467e-05
8.0432249e-05
8.04428525e-05
8.04653876e-05
8.0462539e-05
8.05182929e-05
8.05288423e-05
8.0549324e-05
8.0548382e-05
8.05983441e-05
8.06084024e-05
8.0627472e-05
8.06272201e-05
8.0674604e-05
8.06858532e-05
8.07053055e-05
8.07054929e-05
8.07488103e-05
8.07616713e-05
8.07826846e-05
8.07835278e-05
8.08233105e-05
8.08367047e-05
8.08596444e-05
8.08609439e-05
8.08980179e-05
8.09113741e-05
8.09357736e-05
8.09377218e-05
8.09725648e-05
8.0985605e-05
8.10109482e-05
8.1013566e-05
8.10464645e-05
8.10587325e-05
8.10851673e-05
8.10883939e-05
8.11190729e-05
8.11307669e-05
8.1158549e-05
8.11622053e-05
8.11918226e-05
8.12019289e-05
8.12312798e-05
8.12348743e-05
8.1265854e-05
8.12742145e-05
8.13051952e-05
8.13084129e-05
8.13397851e-05
8.13469437e-05
8.13777921e-05
8.13813537e-05
8.14127899e-05
8.14192459e-05
8.14491447e-05
8.145297e-05
8.14843951e-05
8.14904322e-05
8.15194415e-05
8.15233033e-05
8.15536107e-05
8.15601112e-05
8.15882298e-05
8.15922876e-05
8.16212534e-05
8.16282136e-05
8.16557766e-05
8.16598866e-05
8.1687949e-05
8.16945832e-05
8.17221177e-05
8.17261182e-05
8.17528975e-05
8.17599631e-05
8.17870997e-05
8.17910858e-05
8.1816368e-05
8.18241697e-05
8.18507419e-05
8.18547449e-05
8.1878637e-05
8.18871245e-05
8.19130639e-05
8.19170324e-05
8.19400515e-05
8.19490564e-05
8.19741088e-05
8.19780487e-05
8.20001083e-05
8.20095827e-05
8.20335177e-05
8.20376709e-05
8.20595071e-05
8.206872e-05
8.20912582e-05
8.20952152e-05
8.21187408e-05
8.21280179e-05
8.21474731e-05
8.21515461e-05
8.21780781e-05
8.21872485e-05
8.22023352e-05
8.22069748e-05
8.22375183e-05
8.22437728e-05
8.22557905e-05
8.22612365e-05
8.22956931e-05
8.22984457e-05
8.23075574e-05
8.2316434e-05
8.23518729e-05
8.23523891e-05
8.23573583e-05
8.23701747e-05
8.240187e-05
8.24048998e-05
8.24061334e-05
8.24211092e-05
8.24494382e-05
8.24541779e-05
8.24544572e-05
8.24679177e-05
8.24952203e-05
8.25004173e-05
8.25023323e-05
8.25142648e-05
8.25421569e-05
8.25450883e-05
8.25486196e-05
8.25578837e-05
8.25839916e-05
8.25897466e-05
8.25917965e-05
8.26019758e-05
8.2625881e-05
8.26322206e-05
8.2633685e-05
8.26449901e-05
8.26670264e-05
8.26729965e-05
8.26743627e-05
8.26864091e-05
8.27076183e-05
8.27122728e-05
8.27139914e-05
8.27261079e-05
8.27479381e-05
8.27502322e-05
8.27529007e-05
8.27642384e-05
8.27851784e-05
8.27867599e-05
8.27905661e-05
8.28007666e-05
8.28205219e-05
8.28218775e-05
8.28267889e-05
8.28361054e-05
8.28545251e-05
8.28558827e-05
8.28612262e-05
8.28703718e-05
8.28868291e-05
8.28886075e-05
8.28936955e-05
8.29033437e-05
8.29175601e-05
8.2920018e-05
8.2924831e-05
8.29348053e-05
8.29472259e-05
8.29501164e-05
8.29548888e-05
8.29646301e-05
8.29759e-05
8.29787309e-05
8.29838282e-05
8.29929044e-05
8.30035784e-05
8.30060766e-05
8.30117262e-05
8.30199133e-05
8.30301212e-05
8.30319738e-05
8.30379721e-05
8.30456639e-05
8.30558454e-05
8.30566066e-05
8.30634018e-05
8.30696096e-05
8.30795334e-05
8.30800007e-05
8.30868499e-05
8.30922346e-05
8.31013318e-05
8.31023835e-05
8.31089838e-05
8.31141178e-05
8.31224958e-05
8.31235683e-05
8.31299151e-05
8.31347632e-05
8.31424948e-05
8.31435439e-05
8.31496609e-05
8.31542297e-05
8.31613626e-05
8.31623675e-05
8.31683016e-05
8.31725627e-05
8.31791615e-05
8.3180114e-05
8.31858424e-05
8.31898066e-05
8.31959432e-05
8.31968343e-05
8.32023522e-05
8.32060157e-05
8.32117384e-05
8.32125495e-05
8.32178594e-05
8.32212216e-05
8.32265749e-05
8.32273021e-05
8.32324005e-05
8.32354581e-05
8.32404856e-05
8.32411233e-05
8.3245988e-05
8.32487651e-05
8.32534927e-05
8.32540429e-05
8.32586789e-05
8.32612017e-05
8.32656141e-05
8.32661015e-05
8.32704807e-05
8.32728148e-05
8.32768669e-05
8.32773624e-05
8.32814162e-05
8.32836761e-05
8.3287283e-05
8.32878484e-05
8.32915217e-05
8.32937937e-05
8.32969176e-05
8.32976078e-05
8.3300884e-05
8.33031808e-05
8.33059316e-05
8.33066861e-05
8.33096718e-05
8.33118473e-05
8.33143896e-05
8.33151306e-05
8.33178712e-05
8.33199076e-05
8.33226041e-05
8.33233569e-05
8.33257349e-05
8.33277436e-05
8.33317976e-05
8.33324211e-05
8.33332723e-05
8.33356021e-05
8.33419158e-05
8.33435917e-05
8.33432766e-05
8.33454524e-05
8.33477536e-05
8.33500381e-05
8.33518168e-05
8.33542339e-05
8.33562747e-05
8.33587814e-05
8.33609604e-05
8.33635131e-05
8.33658231e-05
8.33683704e-05
8.33707833e-05
8.33732509e-05
8.33757502e-05
8.33780148e-05
8.33806346e-05
8.33828278e-05
8.33852496e-05
8.3387309e-05
8.33894502e-05
8.33913046e-05
8.3393106e-05
8.33946904e-05
8.33961176e-05
8.33973846e-05
8.3398433e-05
8.33993636e-05
8.34000622e-05
8.34006724e-05
8.34010811e-05
8.34014226e-05
8.34016209e-05
8.34017711e-05
8.3401842e-05
8.34018857e-05
8.34018984e-05
8.34018739e-05
8.34017931e-05
8.34017291e-05
8.34016866e-05
8.3401658e-05
8.34016417e-05
8.34016326e-05
8.34016274e-05
8.34016251e-05
8.34016242e-05
8.34016238e-05
8.34016237e-05
8.34016236e-05
8.34016236e-05
8.34016236e-05
8.34016236e-05
8.34016236e-05
8.34016236e-05
8.34016236e-05
8.34016236e-05
8.34016236e-05
8.34016236e-05
8.34016236e-05
8.34016236e-05
8.34016236e-05
8.34016236e-05
8.34016236e-05
8.34016236e-05
8.34016236e-05
8.34016236e-05
8.34016236e-05
8.34016236e-05
8.34016236e-05
8.34016236e-05
8.34016236e-05
8.34016236e-05
8.34016236e-05
)
;

boundaryField
{
    closed
    {
        type            calculated;
        value           nonuniform List<scalar> 0();
    }
    open
    {
        type            calculated;
        value           uniform 8.34016236e-05;
    }
    sides
    {
        type            empty;
    }
    procBoundary5to4
    {
        type            processor;
        value           uniform 7.63508974e-05;
    }
}


// ************************************************************************* //
