/*--------------------------------*- C++ -*----------------------------------*\
| =========                 |                                                 |
| \\      /  F ield         | OpenFOAM: The Open Source CFD Toolbox           |
|  \\    /   O peration     | Version:  2306                                  |
|   \\  /    A nd           | Website:  www.openfoam.com                      |
|    \\/     M anipulation  |                                                 |
\*---------------------------------------------------------------------------*/
FoamFile
{
    version     2.0;
    format      ascii;
    arch        "LSB;label=32;scalar=64";
    class       volScalarField;
    location    "0.00192";
    object      alpha;
}
// * * * * * * * * * * * * * * * * * * * * * * * * * * * * * * * * * * * * * //

dimensions      [1 -1 -1 0 0 0 0];

internalField   nonuniform List<scalar> 
530
(
8.51013822e-05
8.51378127e-05
8.51711646e-05
8.52064711e-05
8.52387269e-05
8.52729742e-05
8.5304212e-05
8.53374657e-05
8.53677575e-05
8.54000829e-05
8.54294953e-05
8.54609574e-05
8.54895533e-05
8.55202165e-05
8.55480552e-05
8.55779837e-05
8.56037959e-05
8.56314886e-05
8.56563876e-05
8.56833783e-05
8.57076202e-05
8.57339781e-05
8.57576651e-05
8.57834291e-05
8.58065139e-05
8.58316771e-05
8.58541927e-05
8.58787868e-05
8.59007657e-05
8.59248213e-05
8.5946295e-05
8.59698416e-05
8.59908409e-05
8.60139077e-05
8.60344623e-05
8.60570782e-05
8.60772167e-05
8.60994113e-05
8.61191609e-05
8.61409639e-05
8.61598933e-05
8.61803127e-05
8.61983213e-05
8.62183461e-05
8.62359974e-05
8.6255642e-05
8.62729454e-05
8.62922225e-05
8.63091885e-05
8.63281093e-05
8.63447484e-05
8.63633235e-05
8.63796462e-05
8.63978858e-05
8.64139024e-05
8.64318163e-05
8.64475367e-05
8.64651344e-05
8.64805683e-05
8.64978594e-05
8.6513016e-05
8.65300099e-05
8.65448983e-05
8.65616044e-05
8.65762335e-05
8.6592661e-05
8.66070396e-05
8.66231978e-05
8.66373344e-05
8.66535239e-05
8.66677583e-05
8.66838748e-05
8.66978694e-05
8.67137281e-05
8.67274926e-05
8.67431042e-05
8.67566484e-05
8.67720233e-05
8.67853577e-05
8.68005057e-05
8.68136415e-05
8.68283506e-05
8.68408829e-05
8.68551664e-05
8.68674675e-05
8.68814999e-05
8.68935722e-05
8.69073555e-05
8.69192005e-05
8.69327368e-05
8.69443554e-05
8.69576472e-05
8.696904e-05
8.69820894e-05
8.6993257e-05
8.70060661e-05
8.7017009e-05
8.70295795e-05
8.70402982e-05
8.70526318e-05
8.70631266e-05
8.70752247e-05
8.70854961e-05
8.70973599e-05
8.71074081e-05
8.71190387e-05
8.7128864e-05
8.71402623e-05
8.7149865e-05
8.71610317e-05
8.7170412e-05
8.71813479e-05
8.71905059e-05
8.72012113e-05
8.72101472e-05
8.72206227e-05
8.72293365e-05
8.72395825e-05
8.72480741e-05
8.72580909e-05
8.72663603e-05
8.72761481e-05
8.72841952e-05
8.72937542e-05
8.73015789e-05
8.73109093e-05
8.73185113e-05
8.73276132e-05
8.73349924e-05
8.73438659e-05
8.7351022e-05
8.73596672e-05
8.73665999e-05
8.73750168e-05
8.73817259e-05
8.73899146e-05
8.73963997e-05
8.74043603e-05
8.74106211e-05
8.74183537e-05
8.74243898e-05
8.74318946e-05
8.74377057e-05
8.74449827e-05
8.74505686e-05
8.7457618e-05
8.74629783e-05
8.74698004e-05
8.74749348e-05
8.74815299e-05
8.74864381e-05
8.74928065e-05
8.74974885e-05
8.75036304e-05
8.75080863e-05
8.75140017e-05
8.75182322e-05
8.75239206e-05
8.75279267e-05
8.75333875e-05
8.75371706e-05
8.75424031e-05
8.75459645e-05
8.75509687e-05
8.75543085e-05
8.75590861e-05
8.75622029e-05
8.75667581e-05
8.75696476e-05
8.75739883e-05
8.75766429e-05
8.75807823e-05
8.75831884e-05
8.75869738e-05
8.75894445e-05
8.75927457e-05
8.75952465e-05
8.75980971e-05
8.76006016e-05
8.76030296e-05
8.76055159e-05
8.76075482e-05
8.76099841e-05
8.76116247e-05
8.76139793e-05
8.76152602e-05
8.76174231e-05
8.7618394e-05
8.76204581e-05
8.76211219e-05
8.76230112e-05
8.76233845e-05
8.76250881e-05
8.76251785e-05
8.76266909e-05
8.76265027e-05
8.76278199e-05
8.76273561e-05
8.76284741e-05
8.7627738e-05
8.76286523e-05
8.76276476e-05
8.76283536e-05
8.76270837e-05
8.76275771e-05
8.76260457e-05
8.76263223e-05
8.76245326e-05
8.76245888e-05
8.76225437e-05
8.76223763e-05
8.76200786e-05
8.76196847e-05
8.76171368e-05
8.76165139e-05
8.76137182e-05
8.76128642e-05
8.76098225e-05
8.76087358e-05
8.760545e-05
8.7604129e-05
8.76006008e-05
8.75990444e-05
8.75952754e-05
8.75934826e-05
8.75894741e-05
8.75874444e-05
8.75831979e-05
8.75809307e-05
8.75764474e-05
8.75739423e-05
8.75692239e-05
8.75664805e-05
8.75615285e-05
8.75585463e-05
8.75533626e-05
8.75501411e-05
8.75447278e-05
8.75412663e-05
8.75356259e-05
8.75319235e-05
8.75260587e-05
8.75221147e-05
8.75160281e-05
8.75118421e-05
8.75055355e-05
8.75011085e-05
8.74945823e-05
8.74899168e-05
8.74831696e-05
8.74782697e-05
8.74712981e-05
8.746617e-05
8.74589695e-05
8.74536283e-05
8.74461824e-05
8.74407518e-05
8.7433116e-05
8.74272719e-05
8.74194947e-05
8.7413347e-05
8.74054305e-05
8.73989808e-05
8.73909316e-05
8.7384183e-05
8.73759967e-05
8.73689585e-05
8.73606273e-05
8.73533108e-05
8.73448271e-05
8.73372428e-05
8.7328601e-05
8.73207579e-05
8.73119539e-05
8.73038598e-05
8.72948907e-05
8.72865525e-05
8.72774161e-05
8.726884e-05
8.72595351e-05
8.72507269e-05
8.72412525e-05
8.72322177e-05
8.72225734e-05
8.72133171e-05
8.72035028e-05
8.71940302e-05
8.7184046e-05
8.71743619e-05
8.71642083e-05
8.71543175e-05
8.71439953e-05
8.71339024e-05
8.71234126e-05
8.7113122e-05
8.71024659e-05
8.70919821e-05
8.70811611e-05
8.70704884e-05
8.70595042e-05
8.70486468e-05
8.70375013e-05
8.70264634e-05
8.70151586e-05
8.70039444e-05
8.69924825e-05
8.69811024e-05
8.69695098e-05
8.69579785e-05
8.6946234e-05
8.6934539e-05
8.69226454e-05
8.69107909e-05
8.6898751e-05
8.68867408e-05
8.68745576e-05
8.68623958e-05
8.68500722e-05
8.68377629e-05
8.68253021e-05
8.68128493e-05
8.68002545e-05
8.67876621e-05
8.67749367e-05
8.67622088e-05
8.6749356e-05
8.67364967e-05
8.672352e-05
8.67105332e-05
8.66974362e-05
8.6684326e-05
8.66711122e-05
8.66578828e-05
8.66445557e-05
8.66312111e-05
8.66177746e-05
8.66043188e-05
8.65907765e-05
8.65772137e-05
8.65635694e-05
8.65499037e-05
8.65361612e-05
8.65223966e-05
8.65085599e-05
8.64947006e-05
8.64807736e-05
8.64668237e-05
8.64528101e-05
8.64387738e-05
8.64246778e-05
8.64105591e-05
8.63963846e-05
8.63821942e-05
8.63679556e-05
8.63536932e-05
8.633938e-05
8.6325044e-05
8.63106603e-05
8.62962548e-05
8.62818048e-05
8.62673342e-05
8.62528222e-05
8.62382908e-05
8.6223721e-05
8.6209133e-05
8.61945097e-05
8.61798694e-05
8.61651967e-05
8.61505085e-05
8.61357907e-05
8.61210587e-05
8.61063e-05
8.60915286e-05
8.60767332e-05
8.60619267e-05
8.60470987e-05
8.60322612e-05
8.60174049e-05
8.60025408e-05
8.59876603e-05
8.59727736e-05
8.59578731e-05
8.59429681e-05
8.59280517e-05
8.59131326e-05
8.58982044e-05
8.58832752e-05
8.58683393e-05
8.58534042e-05
8.58384646e-05
8.58235277e-05
8.58085885e-05
8.57936538e-05
8.5778719e-05
8.57637905e-05
8.5748864e-05
8.57339456e-05
8.57190315e-05
8.57041272e-05
8.56892293e-05
8.5674343e-05
8.56594651e-05
8.56446006e-05
8.56297466e-05
8.56149077e-05
8.56000814e-05
8.55852718e-05
8.5570477e-05
8.55557158e-05
8.55409786e-05
8.55262625e-05
8.5511566e-05
8.54968924e-05
8.548224e-05
8.54676123e-05
8.54530077e-05
8.54384293e-05
8.54238758e-05
8.54093502e-05
8.53948512e-05
8.53803816e-05
8.53659404e-05
8.53515302e-05
8.533715e-05
8.53228024e-05
8.53084865e-05
8.52942046e-05
8.52799561e-05
8.5265743e-05
8.5251565e-05
8.52374239e-05
8.52233193e-05
8.52092531e-05
8.5195225e-05
8.51812366e-05
8.51672878e-05
8.51533802e-05
8.51395136e-05
8.51256895e-05
8.51119078e-05
8.50981699e-05
8.50844758e-05
8.50708269e-05
8.5057223e-05
8.50436656e-05
8.50301546e-05
8.50166912e-05
8.50032754e-05
8.49899086e-05
8.49765906e-05
8.49633226e-05
8.49501046e-05
8.4936924e-05
8.49233126e-05
8.49087943e-05
8.48933132e-05
8.48768136e-05
8.48592352e-05
8.48405184e-05
8.4820599e-05
8.47994141e-05
8.47768973e-05
8.47529839e-05
8.47276076e-05
8.47007298e-05
8.46722664e-05
8.46421511e-05
8.46103269e-05
8.45767463e-05
8.45413666e-05
8.45041585e-05
8.44651035e-05
8.44242012e-05
8.43814695e-05
8.43369503e-05
8.42907125e-05
8.42428571e-05
8.41935208e-05
8.41428817e-05
8.40911604e-05
8.40386269e-05
8.39855159e-05
8.39322937e-05
8.38793795e-05
8.3827241e-05
8.3776381e-05
8.37273292e-05
8.36806222e-05
8.36367851e-05
8.35963041e-05
8.35595989e-05
8.35269952e-05
8.34986931e-05
8.34747547e-05
8.34550796e-05
8.34394254e-05
8.34274005e-05
8.34185282e-05
8.34122408e-05
8.3408037e-05
8.34051216e-05
8.34038155e-05
8.34027167e-05
8.34022969e-05
8.340191e-05
8.34017318e-05
8.3401675e-05
8.34016407e-05
8.34016293e-05
8.34016253e-05
8.34016241e-05
8.34016237e-05
8.34016236e-05
8.34016236e-05
8.34016236e-05
8.34016236e-05
8.34016236e-05
8.34016236e-05
8.34016236e-05
8.34016236e-05
8.34016236e-05
8.34016236e-05
8.34016236e-05
8.34016236e-05
8.34016236e-05
8.34016236e-05
8.34016236e-05
8.34016236e-05
8.34016236e-05
8.34016236e-05
)
;

boundaryField
{
    closed
    {
        type            calculated;
        value           nonuniform List<scalar> 0();
    }
    open
    {
        type            calculated;
        value           uniform 8.34016236e-05;
    }
    sides
    {
        type            empty;
    }
    procBoundary5to4
    {
        type            processor;
        value           uniform 8.50668472e-05;
    }
}


// ************************************************************************* //
