/*--------------------------------*- C++ -*----------------------------------*\
| =========                 |                                                 |
| \\      /  F ield         | OpenFOAM: The Open Source CFD Toolbox           |
|  \\    /   O peration     | Version:  2306                                  |
|   \\  /    A nd           | Website:  www.openfoam.com                      |
|    \\/     M anipulation  |                                                 |
\*---------------------------------------------------------------------------*/
FoamFile
{
    version     2.0;
    format      ascii;
    arch        "LSB;label=32;scalar=64";
    class       volScalarField;
    location    "0.00192";
    object      h;
}
// * * * * * * * * * * * * * * * * * * * * * * * * * * * * * * * * * * * * * //

dimensions      [0 2 -2 0 0 0 0];

internalField   nonuniform List<scalar> 
530
(
-2542.21841
-2057.59985
-1817.91422
-1349.49164
-1115.47411
-662.241093
-432.827112
6.34265103
232.070669
658.393
881.252357
1296.0146
1516.7507
1921.30434
2140.61029
2536.36648
2700.21109
3024.1831
3176.86277
3491.26799
3642.16422
3948.63879
4099.8251
4399.33201
4549.14132
4841.35522
4990.04285
5275.60483
5423.45534
5702.98543
5850.30237
6124.41208
6271.51071
6540.8148
6688.01509
6953.14457
7100.76249
7362.37861
7510.718
7769.5173
7897.16265
8105.49944
8207.00342
8411.47961
8512.97674
8713.92323
8815.3493
9013.03848
9114.3807
9309.04449
9410.32067
9602.16858
9703.41298
9892.64376
9993.89939
10180.7077
10282.0224
10466.6027
10568.0276
10750.5766
10852.1653
11032.8836
11134.6927
11313.7858
11415.8758
11593.5545
11695.9911
11872.4723
11975.3285
12155.6305
12264.5161
12446.6249
12555.8995
12736.8347
12846.6123
13026.6321
13137.0519
13316.4056
13427.6407
13606.5615
13718.8301
13881.0965
13964.9271
14113.0279
14196.7467
14343.5579
14427.1749
14572.7218
14656.2179
14800.5431
14883.8868
15027.0374
15110.193
15252.2146
15335.1468
15476.0803
15558.756
15698.637
15781.0252
15919.884
16001.9565
16139.8178
16221.5489
16358.4326
16439.7984
16575.7203
16656.6985
16791.6706
16872.2401
17006.2713
17086.4118
17219.508
17299.1998
17431.3649
17510.5888
17641.8244
17720.5612
17850.8675
17929.0981
18058.4736
18136.179
18264.6211
18341.782
18469.2872
18545.8842
18672.4482
18748.4615
18874.0796
18949.4894
19074.1563
19148.9425
19272.6528
19346.795
19469.5433
19543.021
19664.8019
19737.5947
19858.403
19930.4904
20050.3213
20121.6829
20240.5326
20311.1476
20429.0136
20498.861
20615.7426
20684.8009
20800.6998
20868.9471
20983.867
21051.2828
21165.2275
21231.7954
21344.7654
21410.4775
21522.465
21587.3274
21698.3107
21762.3466
21872.2901
21935.5355
22044.3989
22106.8867
22214.6501
22276.3795
22383.0808
22443.9815
22549.7528
22609.6586
22714.7523
22773.384
22878.2268
22935.1111
23034.8445
23099.8629
23190.4323
23262.37
23344.9111
23422.8433
23498.2837
23581.4502
23641.1443
23715.9182
23768.1402
23845.6243
23893.3235
23968.5113
24014.3726
24090.3973
24136.0434
24209.1998
24254.5967
24325.0613
24370.0253
24438.0159
24482.3582
24548.0241
24591.6035
24655.0164
24697.7366
24758.9187
24800.7118
24859.6615
24900.4747
24957.1819
24996.9683
25051.4224
25090.1365
25142.3294
25179.9248
25229.8519
25266.2809
25313.9409
25349.1544
25394.5486
25428.4967
25471.6286
25504.2612
25545.1357
25576.403
25615.0262
25644.8788
25681.2579
25709.6468
25743.7904
25770.6672
25802.5846
25827.9015
25857.6033
25881.3131
25908.8107
25930.8674
25956.1721
25976.5322
25999.6536
26018.2776
26039.2217
26056.0769
26074.8433
26089.9062
26106.4859
26119.7451
26134.1192
26145.5745
26157.7173
26167.375
26177.2631
26185.1222
26192.7497
26198.7817
26204.1726
26208.3075
26211.513
26213.6505
26214.7865
26214.7962
26214.7851
26212.9813
26209.6215
26206.1719
26200.2001
26195.2785
26186.6662
26180.2238
26169.064
26160.9407
26147.3732
26137.4348
26121.572
26109.7314
26091.6513
26077.8513
26057.6097
26041.8104
26019.4503
26001.6221
25977.1789
25957.2991
25930.8042
25908.8555
25880.3374
25856.3068
25825.7925
25799.671
25767.1857
25738.9681
25704.5357
25674.2207
25637.8633
25605.4533
25567.1916
25532.6926
25492.546
25455.967
25413.954
25375.307
25331.4455
25290.7448
25245.0526
25202.3144
25154.8095
25110.0519
25060.7527
25013.9953
24962.9211
24914.1848
24861.4833
24811.2648
24757.1473
24705.0261
24649.1917
24595.1915
24537.6623
24481.809
24422.6073
24364.9284
24304.0768
24244.6013
24182.1228
24120.8809
24056.7991
23993.8221
23928.1612
23863.4813
23796.2664
23729.9167
23661.1735
23593.1877
23522.9429
23453.3554
23381.6364
23310.4824
23237.3174
23164.6325
23090.0505
23015.8711
22939.9019
22864.2646
22786.9389
22709.8809
22631.2302
22552.7889
22472.8457
22393.0586
22311.8565
22230.761
22148.3349
22065.9681
21982.3543
21898.7531
21813.989
21729.1902
21643.5815
21558.1184
21471.6058
21384.9803
21297.3576
21209.6081
21120.9163
21032.0826
20942.3621
20852.4852
20761.7765
20670.8983
20579.2414
20487.4046
20394.8399
20302.0872
20208.6552
20115.0298
20020.7713
19926.3165
19831.2725
19736.0318
19640.2436
19544.2602
19447.7695
19351.0869
19253.9353
19156.597
19058.8265
18960.8758
18862.5282
18764.0086
18665.126
18566.0807
18466.7052
18367.1774
18267.3509
18167.3839
18067.1481
17966.7849
17866.1815
17765.4653
17664.5355
17563.5093
17462.2942
17361.0006
17259.5411
17158.0224
17056.3597
16954.657
16852.8327
16750.9856
16649.0422
16547.0882
16445.0701
16343.0447
16241.3867
16139.9016
16038.4155
15936.9765
15835.5492
15734.1895
15632.8614
15531.6162
15430.4253
15329.3307
15228.3136
15127.406
15026.598
14925.9133
14825.3493
14724.923
14624.6371
14524.504
14424.5301
14324.7243
14225.0958
14125.6507
14026.4003
13927.3487
13828.5086
13729.8826
13631.4844
13533.3155
13435.3901
13337.7089
13240.2867
13143.1233
13046.2339
12949.6177
12853.2898
12757.2495
12661.5113
12566.075
12470.9537
12376.1487
12281.6708
12187.5237
12093.7151
12000.2518
11907.0391
11810.7798
11708.0907
11598.6018
11481.8926
11357.5789
11225.1968
11084.3609
10934.5674
10775.4427
10606.4657
10427.2649
10238.0595
10037.9692
9826.38515
9603.05463
9367.64099
9120.00602
8860.02329
8587.73104
8303.29718
8007.05502
7699.55939
7381.57702
7054.16411
6718.66225
6376.74649
6030.45989
5682.17385
5334.64348
4991.10358
4655.0076
4330.04951
4020.04008
3728.82439
3460.02927
3216.92869
3002.15123
2817.48675
2663.68114
2540.23919
2445.49401
2376.48921
2329.47891
2299.9362
2283.37956
2275.54009
2272.76767
2272.5054
2273.37349
2274.17261
2274.18872
2273.82662
2273.68062
2273.73885
2273.80929
2273.85157
2273.87657
2273.88809
2273.8925
2273.89401
2273.89446
2273.89458
2273.8946
2273.89461
2273.89461
2273.89461
2273.89461
2273.89461
2273.89461
2273.89461
2273.89461
2273.89461
2273.89461
2273.89461
2273.89461
2273.89461
2273.89461
)
;

boundaryField
{
    closed
    {
        type            lookUpEnthalpy;
        h0              nonuniform List<scalar> 0();
        value           nonuniform List<scalar> 0();
    }
    open
    {
        type            zeroGradient;
    }
    sides
    {
        type            empty;
    }
    procBoundary5to4
    {
        type            processor;
        value           uniform -2788.84395;
    }
}


// ************************************************************************* //
