/*--------------------------------*- C++ -*----------------------------------*\
| =========                 |                                                 |
| \\      /  F ield         | OpenFOAM: The Open Source CFD Toolbox           |
|  \\    /   O peration     | Version:  2306                                  |
|   \\  /    A nd           | Website:  www.openfoam.com                      |
|    \\/     M anipulation  |                                                 |
\*---------------------------------------------------------------------------*/
FoamFile
{
    version     2.0;
    format      ascii;
    arch        "LSB;label=32;scalar=64";
    class       volScalarField;
    location    "0.00096";
    object      prefDPV_H2;
}
// * * * * * * * * * * * * * * * * * * * * * * * * * * * * * * * * * * * * * //

dimensions      [1 -1 -1 0 0 0 0];

internalField   nonuniform List<scalar> 
530
(
-3.17393881e-05
-3.10413744e-05
-3.09209523e-05
-3.09189927e-05
-3.09188124e-05
-3.09188073e-05
-3.0918807e-05
-3.0918807e-05
-3.0918807e-05
-3.0918807e-05
-3.0918807e-05
-3.0918807e-05
-3.0918807e-05
-3.0918807e-05
-3.0918807e-05
-3.0918807e-05
-3.0918807e-05
-3.0918807e-05
-3.0918807e-05
-3.0918807e-05
-3.0918807e-05
-3.0918807e-05
-3.0918807e-05
-3.0918807e-05
-3.0918807e-05
-3.0918807e-05
-3.0918807e-05
-3.0918807e-05
-3.0918807e-05
-3.0918807e-05
-3.0918807e-05
-3.0918807e-05
-3.0918807e-05
-3.0918807e-05
-3.0918807e-05
-3.0918807e-05
-3.0918807e-05
-3.0918807e-05
-3.0918807e-05
-3.0918807e-05
-3.0918807e-05
-3.0918807e-05
-3.0918807e-05
-3.0918807e-05
-3.0918807e-05
-3.0918807e-05
-3.0918807e-05
-3.0918807e-05
-3.0918807e-05
-3.0918807e-05
-3.0918807e-05
-3.0918807e-05
-3.0918807e-05
-3.0918807e-05
-3.0918807e-05
-3.0918807e-05
-3.0918807e-05
-3.0918807e-05
-3.0918807e-05
-3.0918807e-05
-3.0918807e-05
-3.0918807e-05
-3.0918807e-05
-3.0918807e-05
-3.0918807e-05
-3.0918807e-05
-3.0918807e-05
-3.0918807e-05
-3.09188071e-05
-3.09188072e-05
-3.09188075e-05
-3.09188084e-05
-3.09188103e-05
-3.0918814e-05
-3.09188232e-05
-3.09188396e-05
-3.09188722e-05
-3.09189293e-05
-3.09190482e-05
-3.09191946e-05
-3.09194456e-05
-3.09198439e-05
-3.09203289e-05
-3.09209582e-05
-3.09219252e-05
-3.09222828e-05
-3.09196375e-05
-3.09167669e-05
-3.09241092e-05
-3.09549526e-05
-3.09551864e-05
-3.0905542e-05
-3.09118619e-05
-3.09192056e-05
-3.09009863e-05
-3.14535071e-05
-3.15329467e-05
-3.1016352e-05
-3.08263065e-05
-3.07318947e-05
-3.07420383e-05
-3.07615762e-05
-3.10916301e-05
-3.14738354e-05
-3.14996419e-05
-3.15285975e-05
-3.15328611e-05
-3.09215082e-05
-3.07470505e-05
-3.06654419e-05
-3.06840028e-05
-3.06827154e-05
-3.08797901e-05
-3.1319602e-05
-3.15321618e-05
-3.13019714e-05
-3.08780934e-05
-3.07131844e-05
-3.0667645e-05
-3.08871354e-05
-3.1273157e-05
-3.15180032e-05
-3.14303621e-05
-3.08873116e-05
-3.07549871e-05
-3.06688296e-05
-3.09146246e-05
-3.12525106e-05
-3.13664864e-05
-3.09154625e-05
-3.09098475e-05
-3.10828025e-05
-3.12778988e-05
-3.08878635e-05
-3.06890346e-05
-3.07994408e-05
-3.11511076e-05
-3.13281166e-05
-3.09106681e-05
-3.09110499e-05
-3.10504896e-05
-3.12679609e-05
-3.08985867e-05
-3.09154331e-05
-3.10544336e-05
-3.12684173e-05
-3.08929056e-05
-3.09183954e-05
-3.10663199e-05
-3.12583713e-05
-3.08910049e-05
-3.09202608e-05
-3.10856109e-05
-3.1251758e-05
-3.08919356e-05
-3.09197466e-05
-3.11057645e-05
-3.12332653e-05
-3.08950627e-05
-3.09181612e-05
-3.11200936e-05
-3.12072079e-05
-3.08805229e-05
-3.05771671e-05
-3.08335398e-05
-3.12531103e-05
-3.12874828e-05
-3.09048279e-05
-3.09197272e-05
-3.11518763e-05
-3.12012052e-05
-3.08907625e-05
-3.05992917e-05
-3.09036101e-05
-3.1292854e-05
-3.12912343e-05
-3.09149675e-05
-3.09225032e-05
-3.12022366e-05
-3.1215513e-05
-3.09169367e-05
-3.09157098e-05
-3.12176227e-05
-3.11933162e-05
-3.09199295e-05
-3.09107918e-05
-3.12229238e-05
-3.11686173e-05
-3.09220388e-05
-3.09061393e-05
-3.12277288e-05
-3.11467448e-05
-3.09290863e-05
-3.09061092e-05
-3.12523557e-05
-3.11840213e-05
-3.08696127e-05
-3.05711531e-05
-3.08972229e-05
-3.13549766e-05
-3.12461595e-05
-3.09402543e-05
-3.09142664e-05
-3.12783174e-05
-3.11636328e-05
-3.09435829e-05
-3.09109485e-05
-3.13180666e-05
-3.12172998e-05
-3.08363522e-05
-3.05565842e-05
-3.08964982e-05
-3.13912787e-05
-3.12386367e-05
-3.09615989e-05
-3.09184748e-05
-3.13576142e-05
-3.12408681e-05
-3.08164163e-05
-3.05432112e-05
-3.08990939e-05
-3.14283986e-05
-3.12574552e-05
-3.09684255e-05
-3.091479e-05
-3.13720676e-05
-3.11691651e-05
-3.09455083e-05
-3.09065523e-05
-3.13975331e-05
-3.11528605e-05
-3.09075131e-05
-3.09026772e-05
-3.14059823e-05
-3.11331427e-05
-3.08522969e-05
-3.09091436e-05
-3.14585849e-05
-3.1257092e-05
-3.07080771e-05
-3.04783146e-05
-3.08994992e-05
-3.14632778e-05
-3.1253312e-05
-3.09021585e-05
-3.09093568e-05
-3.14508751e-05
-3.11609236e-05
-3.0862501e-05
-3.09021528e-05
-3.14615001e-05
-3.11454375e-05
-3.08087615e-05
-3.09168159e-05
-3.15084405e-05
-3.13401998e-05
-3.07247111e-05
-3.04760062e-05
-3.09147148e-05
-3.15109647e-05
-3.14286153e-05
-3.09182149e-05
-3.09380197e-05
-3.15080016e-05
-3.12933595e-05
-3.08592586e-05
-3.09469065e-05
-3.15296261e-05
-3.14560364e-05
-3.0797792e-05
-3.05001495e-05
-3.09175803e-05
-3.15189049e-05
-3.15175547e-05
-3.09033942e-05
-3.09602472e-05
-3.15302238e-05
-3.14784942e-05
-3.07428298e-05
-3.05901888e-05
-3.07479482e-05
-3.06774286e-05
-3.09118827e-05
-3.15494122e-05
-3.15395933e-05
-3.09244191e-05
-3.06392956e-05
-3.09101823e-05
-3.15356811e-05
-3.15491571e-05
-3.09369299e-05
-3.09458897e-05
-3.15488626e-05
-3.1510982e-05
-3.08548689e-05
-3.09572155e-05
-3.1544403e-05
-3.15070974e-05
-3.06943037e-05
-3.05549977e-05
-3.07284276e-05
-3.06818939e-05
-3.0916166e-05
-3.15557505e-05
-3.15643863e-05
-3.09085195e-05
-3.08259468e-05
-3.09342704e-05
-3.15660972e-05
-3.15576777e-05
-3.09020143e-05
-3.07245219e-05
-3.09051821e-05
-3.15663126e-05
-3.15619984e-05
-3.08581164e-05
-3.05169641e-05
-3.08994797e-05
-3.15569454e-05
-3.15638298e-05
-3.08484615e-05
-3.05142197e-05
-3.09020964e-05
-3.15427352e-05
-3.15819435e-05
-3.08807806e-05
-3.09256197e-05
-3.15787096e-05
-3.15428304e-05
-3.08210095e-05
-3.04819301e-05
-3.09066644e-05
-3.15459936e-05
-3.15600195e-05
-3.08749139e-05
-3.05445773e-05
-3.09049155e-05
-3.15503297e-05
-3.1558689e-05
-3.08793337e-05
-3.05402308e-05
-3.09001639e-05
-3.15395624e-05
-3.15765153e-05
-3.08306277e-05
-3.06246647e-05
-3.06562558e-05
-3.09125261e-05
-3.15602518e-05
-3.15594023e-05
-3.08877946e-05
-3.05632933e-05
-3.09020633e-05
-3.15504911e-05
-3.15616662e-05
-3.08770234e-05
-3.05389656e-05
-3.09005637e-05
-3.153911e-05
-3.15829759e-05
-3.08915737e-05
-3.09035629e-05
-3.15642996e-05
-3.15596716e-05
-3.07788286e-05
-3.08403427e-05
-3.15715577e-05
-3.1535128e-05
-3.07606851e-05
-3.04216868e-05
-3.09118608e-05
-3.15449279e-05
-3.15536077e-05
-3.08278533e-05
-3.04807036e-05
-3.09076251e-05
-3.15336376e-05
-3.15695685e-05
-3.08309013e-05
-3.08678492e-05
-3.15671728e-05
-3.15379022e-05
-3.07758875e-05
-3.04622544e-05
-3.09106606e-05
-3.15272011e-05
-3.15629527e-05
-3.08206432e-05
-3.08594641e-05
-3.15636143e-05
-3.15345005e-05
-3.07627219e-05
-3.04310415e-05
-3.0914748e-05
-3.15433087e-05
-3.1550744e-05
-3.08167465e-05
-3.04502961e-05
-3.09141811e-05
-3.15438918e-05
-3.15527784e-05
-3.08319218e-05
-3.04722258e-05
-3.09124603e-05
-3.15252279e-05
-3.15684411e-05
-3.08346505e-05
-3.08846847e-05
-3.15452361e-05
-3.1492211e-05
-3.07440151e-05
-3.08326384e-05
-3.15534481e-05
-3.15373437e-05
-3.07398198e-05
-3.04101862e-05
-3.09251831e-05
-3.15112273e-05
-3.15384903e-05
-3.07823412e-05
-3.09562707e-05
-3.15299477e-05
-3.13000007e-05
-3.07397205e-05
-3.09211817e-05
-3.15377723e-05
-3.15421216e-05
-3.07319792e-05
-3.04219935e-05
-3.09001943e-05
-3.15011599e-05
-3.11770704e-05
-3.07321211e-05
-3.09411318e-05
-3.15251626e-05
-3.15111737e-05
-3.07047111e-05
-3.04530406e-05
-3.09004533e-05
-3.1504304e-05
-3.1042368e-05
-3.07217073e-05
-3.09033669e-05
-3.15213289e-05
-3.12547285e-05
-3.06791276e-05
-3.05335684e-05
-3.09167083e-05
-3.15197503e-05
-3.09800331e-05
-3.075651e-05
-3.09364522e-05
-3.15284473e-05
-3.09581352e-05
-3.0760494e-05
-3.09566625e-05
-3.15299087e-05
-3.09469534e-05
-3.07277703e-05
-3.09181886e-05
-3.15265961e-05
-3.10324881e-05
-3.0666124e-05
-3.06071645e-05
-3.0920581e-05
-3.15157504e-05
-3.1084229e-05
-3.06060076e-05
-3.05923358e-05
-3.11462929e-05
-3.15356856e-05
-3.09281495e-05
-3.07607821e-05
-3.09198449e-05
-3.15250986e-05
-3.11056304e-05
-3.0687803e-05
-3.06128924e-05
-3.09215057e-05
-3.1511959e-05
-3.11515725e-05
-3.06246747e-05
-3.06072169e-05
-3.1152181e-05
-3.15321062e-05
-3.09530081e-05
-3.07899552e-05
-3.09105743e-05
-3.15222709e-05
-3.12708362e-05
-3.0646604e-05
-3.05658793e-05
-3.10194203e-05
-3.15033488e-05
-3.09579806e-05
-3.04841838e-05
-3.06270508e-05
-3.15136231e-05
-3.15541656e-05
-3.09022192e-05
-3.06933837e-05
-3.08882865e-05
-3.15191134e-05
-3.15751838e-05
-3.15690705e-05
-3.08927929e-05
-3.07126134e-05
-3.07589986e-05
-3.07412222e-05
-3.0589757e-05
-3.08043249e-05
-3.15622279e-05
-3.15588399e-05
-3.08946275e-05
-3.07162823e-05
-3.08883133e-05
-3.15573018e-05
-3.15707682e-05
-3.08919283e-05
-3.07720423e-05
-3.07661083e-05
-3.08989275e-05
-3.15552655e-05
-3.15677105e-05
-3.07372433e-05
-3.05576172e-05
-3.08955699e-05
-3.15393211e-05
-3.15635296e-05
-3.07375345e-05
)
;

boundaryField
{
    closed
    {
        type            calculated;
        value           uniform -4.04009466e-05;
    }
    open
    {
        type            calculated;
        value           nonuniform List<scalar> 0();
    }
    sides
    {
        type            empty;
    }
    procBoundary0to1
    {
        type            processor;
        value           uniform -3.05976112e-05;
    }
}


// ************************************************************************* //
