/*--------------------------------*- C++ -*----------------------------------*\
| =========                 |                                                 |
| \\      /  F ield         | OpenFOAM: The Open Source CFD Toolbox           |
|  \\    /   O peration     | Version:  2306                                  |
|   \\  /    A nd           | Website:  www.openfoam.com                      |
|    \\/     M anipulation  |                                                 |
\*---------------------------------------------------------------------------*/
FoamFile
{
    version     2.0;
    format      ascii;
    arch        "LSB;label=32;scalar=64";
    class       volScalarField;
    location    "0.00192";
    object      prefDZ_H2;
}
// * * * * * * * * * * * * * * * * * * * * * * * * * * * * * * * * * * * * * //

dimensions      [1 -1 -1 0 0 0 0];

internalField   nonuniform List<scalar> 
531
(
6.35485291e-05
6.34844627e-05
6.35578964e-05
6.35170638e-05
6.23317267e-05
6.20068789e-05
6.1290882e-05
6.12939161e-05
6.34820724e-05
6.35241988e-05
6.17415445e-05
6.13764703e-05
6.34932799e-05
6.35175834e-05
6.19389377e-05
6.13371013e-05
6.35056745e-05
6.3497742e-05
6.23491526e-05
6.08620435e-05
6.0889212e-05
6.34609866e-05
6.35203405e-05
6.16736123e-05
6.14759656e-05
6.34710859e-05
6.35094899e-05
6.34974753e-05
6.19577201e-05
6.16281171e-05
6.34887048e-05
6.35181458e-05
6.35010514e-05
6.23453068e-05
6.07234827e-05
6.088262e-05
6.34803738e-05
6.35183821e-05
6.35041157e-05
6.21502447e-05
6.16740324e-05
6.35063756e-05
6.35259948e-05
6.35164806e-05
6.23461875e-05
6.12401839e-05
6.12513107e-05
6.35114328e-05
6.35211301e-05
6.23532721e-05
6.16763936e-05
6.09879328e-05
6.0998063e-05
6.34938122e-05
6.35165152e-05
6.35069247e-05
6.23043992e-05
6.13638715e-05
6.35054743e-05
6.35197055e-05
6.19539319e-05
6.17133702e-05
6.34968486e-05
6.35328797e-05
6.19180467e-05
6.1920569e-05
6.35037808e-05
6.23298336e-05
6.11271847e-05
6.35316492e-05
6.35071032e-05
6.2119177e-05
6.14432509e-05
6.35300369e-05
6.34953708e-05
6.2334295e-05
6.10822233e-05
6.11521465e-05
6.34965183e-05
6.35212012e-05
6.35187088e-05
6.22627779e-05
6.17306266e-05
6.35319568e-05
6.34869413e-05
6.23342042e-05
6.15423793e-05
6.16327127e-05
6.05241977e-05
6.05654595e-05
6.3444608e-05
6.35394536e-05
6.34484513e-05
6.35631949e-05
6.34602893e-05
6.23106307e-05
6.11965031e-05
6.12306548e-05
6.34802995e-05
6.35588041e-05
6.19699826e-05
6.16612712e-05
6.34987641e-05
6.35467066e-05
6.18701053e-05
6.18741959e-05
6.35281269e-05
6.23259501e-05
6.10748638e-05
6.35346091e-05
6.35218664e-05
6.18282352e-05
6.15184818e-05
6.35128182e-05
6.35264294e-05
6.16663268e-05
6.16679741e-05
6.35204391e-05
6.35311173e-05
6.35131684e-05
6.23609919e-05
6.12275278e-05
6.12342742e-05
6.35363706e-05
6.3510027e-05
6.23217786e-05
6.11720447e-05
6.11997434e-05
6.35100443e-05
6.35533312e-05
6.21001109e-05
6.17015746e-05
6.35225959e-05
6.35515979e-05
6.21557739e-05
6.18850284e-05
6.35371413e-05
6.35388937e-05
6.23551266e-05
6.19583475e-05
6.13335097e-05
6.1339762e-05
6.35048796e-05
6.35260005e-05
6.15762726e-05
6.15920091e-05
6.35258913e-05
6.35272983e-05
6.35143733e-05
6.22908982e-05
6.15026618e-05
6.35315642e-05
6.35269896e-05
6.19171224e-05
6.17016212e-05
6.35225257e-05
6.35315102e-05
6.17775894e-05
6.17978793e-05
6.35307538e-05
6.35251102e-05
6.35107263e-05
6.23841828e-05
6.18360875e-05
6.12648518e-05
6.12720443e-05
6.34934789e-05
6.3538111e-05
6.16313304e-05
6.14505962e-05
6.34951427e-05
6.35401879e-05
6.14984505e-05
6.15081178e-05
6.35165024e-05
6.35498145e-05
6.34840309e-05
6.23203822e-05
6.0791535e-05
6.09214828e-05
6.34403363e-05
6.35418202e-05
6.15335561e-05
6.14181138e-05
6.33956434e-05
6.35318173e-05
6.33305608e-05
6.35370087e-05
6.31454848e-05
6.22839121e-05
6.13099208e-05
6.16002473e-05
6.06497499e-05
6.06906527e-05
6.3485763e-05
6.34989518e-05
6.35051739e-05
6.35057212e-05
6.23541682e-05
6.17005071e-05
6.11158599e-05
6.11207164e-05
6.35095465e-05
6.3504986e-05
6.35020465e-05
6.20899825e-05
6.16315595e-05
6.35231021e-05
6.35124337e-05
6.35073072e-05
6.23530864e-05
6.12470021e-05
6.12533606e-05
6.35406645e-05
6.3493743e-05
6.23326488e-05
6.10203435e-05
6.10965071e-05
6.34804952e-05
6.35409473e-05
6.17171e-05
6.17242224e-05
6.35036979e-05
6.35444402e-05
6.34799707e-05
6.23280936e-05
6.09146968e-05
6.10440941e-05
6.34836195e-05
6.35322082e-05
6.34923586e-05
6.19590299e-05
6.12673898e-05
6.35724154e-05
6.34745762e-05
6.22944996e-05
6.34808703e-05
6.35887188e-05
6.23458103e-05
6.20289245e-05
6.13064975e-05
6.13188782e-05
6.35026118e-05
6.35311381e-05
6.3485811e-05
6.23421579e-05
6.14104957e-05
6.16145253e-05
6.05709541e-05
6.0594929e-05
6.3467688e-05
6.34820067e-05
6.34691947e-05
6.14847207e-05
6.10008821e-05
6.34898558e-05
6.3487077e-05
6.34962436e-05
6.34987465e-05
6.23190196e-05
6.14637302e-05
6.3527991e-05
6.34637787e-05
6.23516688e-05
6.10308544e-05
6.10676102e-05
6.3436185e-05
6.34859765e-05
6.17081233e-05
6.13518915e-05
6.34277934e-05
6.34680737e-05
6.34384491e-05
6.3475506e-05
6.19893273e-05
6.10742714e-05
6.0295412e-05
6.03139557e-05
6.3410177e-05
6.34833355e-05
6.34138137e-05
6.35190947e-05
6.34333103e-05
6.23467865e-05
6.11646883e-05
6.12077487e-05
6.34475759e-05
6.35304201e-05
6.17989832e-05
6.1796749e-05
6.3450956e-05
6.35149077e-05
6.3446323e-05
6.24155849e-05
6.14147346e-05
6.15629435e-05
6.05549594e-05
6.05827283e-05
6.344779e-05
6.34856208e-05
6.34700122e-05
6.14784143e-05
6.09048798e-05
6.35009857e-05
6.34922383e-05
6.353893e-05
6.34962123e-05
6.2312674e-05
6.14225983e-05
6.20272618e-05
6.35003584e-05
6.35708699e-05
6.35170796e-05
6.3574144e-05
6.23446346e-05
6.16810477e-05
6.08975777e-05
6.09104787e-05
6.34738717e-05
6.35316235e-05
6.11427583e-05
6.09664436e-05
6.34711069e-05
6.35259141e-05
6.35026849e-05
6.35318211e-05
6.23546179e-05
6.15170824e-05
6.08694143e-05
6.08733841e-05
6.35017887e-05
6.35438456e-05
6.3527573e-05
6.20042298e-05
6.13362363e-05
6.35489334e-05
6.35825676e-05
6.35720538e-05
6.22870988e-05
6.07242589e-05
6.07581471e-05
6.356878e-05
6.36530368e-05
6.14230711e-05
6.09240966e-05
6.36275637e-05
6.37220576e-05
6.37048416e-05
6.37653755e-05
6.19525406e-05
6.08744523e-05
5.98852896e-05
5.9913287e-05
6.38015102e-05
6.3965149e-05
6.39036112e-05
6.4060347e-05
6.40078179e-05
6.41044463e-05
6.40911183e-05
6.12955329e-05
6.0835099e-05
6.37904278e-05
6.40289519e-05
6.39002732e-05
6.09353757e-05
6.03703602e-05
6.35336253e-05
6.37519117e-05
6.35852445e-05
6.36902188e-05
6.35948931e-05
6.36476198e-05
6.35874408e-05
6.36179898e-05
6.35769451e-05
6.36042646e-05
6.35748631e-05
6.36060155e-05
6.35953931e-05
6.3635065e-05
6.36460983e-05
6.37002363e-05
6.37362697e-05
6.38165204e-05
6.38870072e-05
6.40195025e-05
6.41646689e-05
6.44377567e-05
6.4827256e-05
6.49739391e-05
6.47546049e-05
6.45120868e-05
6.43122889e-05
6.41178542e-05
6.39512481e-05
6.3805445e-05
6.36826842e-05
6.35872507e-05
6.35051008e-05
6.33621358e-05
6.32155681e-05
6.31367392e-05
6.33002481e-05
6.31676889e-05
6.30361826e-05
6.29535546e-05
6.28639007e-05
6.28449197e-05
6.27997712e-05
6.28356451e-05
6.27524946e-05
6.26256576e-05
6.23096839e-05
6.21951159e-05
6.18687598e-05
6.17688088e-05
6.14299908e-05
6.13430744e-05
6.11182093e-05
6.52925793e-05
6.46382807e-05
6.44391338e-05
6.38508464e-05
6.35681635e-05
6.30271553e-05
6.26696471e-05
6.21537236e-05
6.17155634e-05
6.11973642e-05
6.06223434e-05
6.03182941e-05
6.03898091e-05
6.04511041e-05
6.05304925e-05
6.05919406e-05
6.06794922e-05
6.07409489e-05
6.08367453e-05
6.08537989e-05
6.09560151e-05
6.10506655e-05
6.11607555e-05
6.1253706e-05
6.37573996e-05
6.66649586e-05
6.93031398e-05
7.00970773e-05
7.64104605e-05
7.86483234e-05
8.25873981e-05
8.47276492e-05
8.84858894e-05
9.0381855e-05
9.366259e-05
9.54106873e-05
9.89642132e-05
0.000100845244
0.000104767851
0.000106703594
0.000110804255
0.000112673409
0.000116804465
0.000118563405
0.000122558294
0.000124118555
0.000127787207
0.000129179958
0.000132531462
0.00013375315
0.000136762579
0.000137816252
0.000140483252
0.000141382029
0.000143774372
0.000144547409
0.000146686965
0.000147399115
0.000149306859
0.000149953638
0.000151658148
0.000152256033
0.000153788839
0.000154344995
0.000155762943
0.000156226673
0.000157500792
0.000157943677
0.000159138184
0.000159469449
0.000160649125
0.000160712642
0.000161786611
0.000162833097
0.000163846086
0.000162962658
0.000164526122
0.00016551876
0.000166972553
0.000165215721
0.000166579548
0.00016810148
0.000169446126
0.000166590515
0.000167798615
0.000169689829
0.000170216017
0.000168596365
0.000169077789
0.000170761941
0.000171267799
0.000169972053
0.000170318628
0.000172020372
0.000172099192
0.000171030666
0.00017127718
0.000172172503
0.000172843873
0.000172570816
0.000172014095
0.00017208604
0.000173427524
0.000173467579
0.000172624744
0.000172642993
0.000173938374
0.000173798711
0.000173104719
0.000173157852
0.000174369209
)
;

boundaryField
{
    closed
    {
        type            calculated;
        value           nonuniform List<scalar> 0();
    }
    open
    {
        type            calculated;
        value           nonuniform List<scalar> 0();
    }
    sides
    {
        type            empty;
    }
    procBoundary4to3
    {
        type            processor;
        value           uniform 6.34563483e-05;
    }
    procBoundary4to5
    {
        type            processor;
        value           uniform 0.000174312723;
    }
}


// ************************************************************************* //
