/*--------------------------------*- C++ -*----------------------------------*\
| =========                 |                                                 |
| \\      /  F ield         | OpenFOAM: The Open Source CFD Toolbox           |
|  \\    /   O peration     | Version:  2306                                  |
|   \\  /    A nd           | Website:  www.openfoam.com                      |
|    \\/     M anipulation  |                                                 |
\*---------------------------------------------------------------------------*/
FoamFile
{
    version     2.0;
    format      ascii;
    arch        "LSB;label=32;scalar=64";
    class       volScalarField;
    location    "0.00192";
    object      prefDh_H2O;
}
// * * * * * * * * * * * * * * * * * * * * * * * * * * * * * * * * * * * * * //

dimensions      [1 1 -3 0 0 0 0];

internalField   nonuniform List<scalar> 
531
(
92.3376252
92.5636119
92.2649258
92.3169958
88.8666032
88.1108944
87.6772546
87.6763853
92.7086421
92.4277736
87.9414235
87.7256815
92.6668341
92.4291594
88.0541568
87.713346
92.578824
92.4946838
88.4969724
87.4566693
87.4324592
92.659369
92.4505101
87.9150383
87.787741
92.7759767
92.3671929
92.5176452
88.0705271
87.8842625
92.742972
92.2866957
92.5342051
89.0773054
87.3649177
87.433581
92.7089368
92.3912693
92.5167951
88.1785056
87.9089909
92.6750233
92.2801643
92.4634918
89.3689079
87.6525986
87.6462736
92.5305763
92.4121522
88.4531546
87.9198599
87.4956175
87.5124453
92.7724537
92.373225
92.5762548
88.2700948
87.7296087
92.5909105
92.3933278
88.0705831
87.9247296
92.6170978
92.3323473
88.0517382
88.0461025
92.6051879
89.1900538
87.5882202
92.5350823
92.4562289
88.151358
87.7833464
92.5105529
92.4642284
88.7657207
87.5752115
87.5886595
92.6060047
92.3541028
92.395971
88.2490912
87.954164
92.4805034
92.4010836
89.2975746
87.8548056
87.8682327
87.2652417
87.2397363
92.8370101
92.4409373
92.6656679
92.3098319
92.4818852
88.9694007
87.6590923
87.6142372
92.5721508
92.3799784
88.0900417
87.8795322
92.6068295
92.3282578
88.0200058
88.0149653
92.5764142
88.8251116
87.550427
92.5501765
92.4369591
87.9861325
87.809275
92.624897
92.3722871
87.8970303
87.8983235
92.6345006
92.2793882
92.480654
89.6115751
87.6432943
87.6408147
92.4808866
92.4631828
88.8162542
87.622445
87.6022682
92.521418
92.386188
88.1564754
87.9061312
92.5294296
92.3257981
88.1864303
88.0204657
92.4682812
92.310184
88.6099394
88.0746551
87.7076405
87.7003711
92.6359151
92.3960104
87.8428955
87.8533047
92.6511716
92.3135413
92.5202506
88.2611616
87.8074507
92.5275859
92.3758126
88.0449602
87.9156783
92.5727967
92.3423483
87.9613478
87.9768094
92.5764012
92.280513
92.4436244
89.791954
88.0011194
87.6743986
87.6569598
92.6383147
92.4072326
87.8910811
87.757209
92.6482429
92.3770686
87.808104
87.7940159
92.6288739
92.2709808
92.5404386
88.7766037
87.4325335
87.434631
92.6398722
92.4349546
87.8693519
87.7388324
92.8493765
92.3579227
92.8179566
92.299674
92.7412128
88.2517515
87.7848446
87.8575169
87.3578193
87.3306205
92.6979955
92.4968569
92.4721666
92.4372106
88.8605826
87.9362721
87.578153
87.5872194
92.6920175
92.3907
92.5426343
88.1486701
87.8900381
92.6167296
92.2901913
92.4785368
89.2118782
87.6602533
87.6617101
92.4569945
92.4860235
88.6594005
87.5486131
87.5453596
92.5848119
92.3951763
87.9452928
87.9236372
92.668342
92.2553971
92.5389967
88.9667043
87.4886085
87.516304
92.6174205
92.3814885
92.4324494
88.05455
87.6899477
92.4752672
92.5574977
88.558826
92.607147
92.2126427
88.3198895
88.1048357
87.7049364
87.6855711
92.615421
92.3025938
92.4643924
89.1377528
87.7801734
87.870254
87.2885295
87.2813226
92.7641825
92.5003244
92.5787661
87.7991424
87.5262746
92.759597
92.4968112
92.5181862
92.4675059
88.2883279
87.8075424
92.4718979
92.4883844
88.6518973
87.5767395
87.5508403
92.6267216
92.4672895
87.9675964
87.7385595
92.7825779
92.4937204
92.5816978
92.5091095
88.1185587
87.58946
87.140933
87.1371102
92.8990883
92.4981841
92.7011141
92.350131
92.4987015
88.6179089
87.6595545
87.6170782
92.6098445
92.3871844
88.0103686
87.9753948
92.7276288
92.290651
92.5238373
90.0397015
87.7892325
87.8483523
87.287408
87.2776727
92.8087066
92.4966038
92.5735258
87.787271
87.4686601
92.7661206
92.5099799
92.4710249
92.4715777
89.1629509
87.7785419
88.0893871
92.5237705
92.2666935
92.3458007
92.294227
88.9710698
87.8890102
87.4521535
87.4338008
92.7970713
92.4783108
87.5992172
87.472364
92.8413093
92.4692765
92.5199259
92.437899
88.4977241
87.8160035
87.4224904
87.42471
92.8124064
92.3887469
92.5928686
88.0672733
87.6843178
92.7034071
92.2810261
92.4722807
88.427727
87.3192437
87.2916172
92.6245003
92.4137541
87.6880118
87.3529325
92.7437195
92.3726233
92.4114621
92.3404029
87.9286001
87.2589052
86.647154
86.6222453
92.8752437
92.3504469
92.6138963
92.2019345
92.3253969
91.9959591
92.0305588
87.2695148
86.9482736
92.0450053
91.6391312
91.6753569
86.8702154
86.4133183
91.6643452
91.1532327
91.2702115
90.8549326
90.8726328
90.5189303
90.4657015
90.147981
90.0437735
89.7442583
89.6042384
89.3046654
89.1416175
88.8427731
88.6606888
88.363676
88.1698789
87.8782068
87.6856366
87.4218923
87.2414806
87.064678
87.0245074
86.9158816
86.6601237
86.335529
86.0221854
85.6668276
85.2948917
84.9060491
84.4727774
84.0514845
83.5507001
83.1239899
82.6436365
82.3386608
82.4304404
82.156307
81.7084784
81.3275562
80.636697
80.2174044
79.3264805
78.8760094
77.7723141
77.2058507
75.919019
75.366893
74.0128049
73.4899157
72.0496909
71.56523
70.1407168
73.3773861
71.5547998
70.9104096
69.2218921
68.3594671
66.7781583
65.7151122
64.2015923
62.9332212
61.444486
59.8741851
58.6246472
57.5107002
56.5740725
55.3502646
54.3908925
53.0598132
52.0938353
50.6546431
51.7382491
50.2383806
48.1652275
46.1372788
44.3032503
39.8107403
36.1463819
33.6723589
31.3230903
18.0181297
14.2049183
7.01747845
3.17042564
-4.09509408
-7.81762584
-14.7891507
-18.5015781
-26.2273081
-30.3419469
-39.0758173
-43.4754567
-52.9748545
-57.4288619
-67.3704182
-71.7230167
-81.6175363
-85.5782415
-94.7777572
-98.3258686
-106.623209
-109.67604
-116.82395
-119.34794
-125.402961
-127.570354
-132.998341
-134.905202
-139.753728
-141.545965
-145.881733
-147.495264
-151.313731
-152.920707
-156.393355
-157.736436
-160.783719
-162.296389
-165.184305
-165.897616
-168.151148
-170.253513
-172.919676
-171.561513
-172.686187
-178.420057
-181.124712
-174.526037
-174.976511
-186.799203
-191.662852
-177.267109
-178.052631
-195.320425
-198.531289
-182.84853
-182.747637
-199.037658
-199.437747
-189.029248
-186.46078
-199.849041
-200.21895
-192.443057
-189.955049
-200.728825
-200.822088
-194.754916
-192.253847
-198.414495
-201.349035
-199.236
-194.103764
-196.426101
-201.753904
-201.782034
-195.610057
-197.092797
-202.10572
-202.009365
-196.607522
-197.832112
-202.397508
)
;

boundaryField
{
    closed
    {
        type            calculated;
        value           nonuniform List<scalar> 0();
    }
    open
    {
        type            calculated;
        value           nonuniform List<scalar> 0();
    }
    sides
    {
        type            empty;
    }
    procBoundary4to3
    {
        type            processor;
        value           uniform 92.8281025;
    }
    procBoundary4to5
    {
        type            processor;
        value           uniform -202.359046;
    }
}


// ************************************************************************* //
