/*--------------------------------*- C++ -*----------------------------------*\
| =========                 |                                                 |
| \\      /  F ield         | OpenFOAM: The Open Source CFD Toolbox           |
|  \\    /   O peration     | Version:  2306                                  |
|   \\  /    A nd           | Website:  www.openfoam.com                      |
|    \\/     M anipulation  |                                                 |
\*---------------------------------------------------------------------------*/
FoamFile
{
    version     2.0;
    format      ascii;
    arch        "LSB;label=32;scalar=64";
    class       volScalarField;
    location    "0.00188";
    object      H2O;
}
// * * * * * * * * * * * * * * * * * * * * * * * * * * * * * * * * * * * * * //

dimensions      [0 0 0 0 0 0 0];

internalField   nonuniform List<scalar> 
530
(
0.00168585584
0.00446146298
0.00453467602
0.00451006134
0.00450724693
0.00450714184
0.00450713577
0.00450713545
0.00450713543
0.00450713542
0.00450713542
0.00450713542
0.00450713542
0.00450713542
0.00450713542
0.00450713542
0.00450713542
0.00450713542
0.00450713542
0.00450713542
0.00450713542
0.00450713542
0.00450713542
0.00450713542
0.00450713542
0.00450713542
0.00450713542
0.00450713542
0.00450713542
0.00450713542
0.00450713542
0.00450713542
0.00450713542
0.00450713542
0.00450713542
0.00450713542
0.00450713542
0.00450713542
0.00450713542
0.00450713542
0.00450713542
0.00450713542
0.00450713542
0.00450713542
0.00450713542
0.00450713542
0.00450713542
0.00450713542
0.00450713542
0.00450713542
0.00450713542
0.00450713542
0.00450713542
0.00450713542
0.00450713542
0.00450713543
0.00450713543
0.00450713543
0.00450713544
0.00450713546
0.00450713553
0.00450713572
0.00450713617
0.00450713728
0.00450713902
0.00450714353
0.00450714899
0.00450718598
0.00450718604
0.00450718243
0.00450746847
0.00450756277
0.00450733223
0.00450745078
0.00450924002
0.00450905629
0.00450840984
0.00450718651
0.00450815359
0.00451580087
0.00452903408
0.00456057125
0.00453252241
0.00424736973
0.00429996689
0.00510748075
0.00647151502
0.00636816289
0.000856472684
0.00105684602
0.0021612654
0.00672594009
0.00706965731
0.00695601362
0.00726044623
0.00697139873
0.000847493933
0.00102813949
0.00100792935
0.000995609481
0.00104816536
0.00101179536
0.0051774733
0.00723646532
0.00717367191
0.00716230345
0.00716019736
0.00700239765
0.00722269921
0.00710789548
0.00124231592
0.00102489778
0.000989750959
0.000995500707
0.0010388155
0.001000051
0.00466567936
0.00743042374
0.00746658351
0.00725332656
0.00733840654
0.00732655039
0.00279489818
0.00100555043
0.000981524555
0.00102289652
0.00099505929
0.00103477244
0.00102769468
0.004333157
0.00734817523
0.00745027441
0.00718487479
0.00722729157
0.0071936526
0.00247931495
0.00102645537
0.00373090529
0.0065316113
0.00709113371
0.00705479698
0.00175673592
0.000992040026
0.00100694377
0.00101362576
0.00311740262
0.00727272335
0.00765385793
0.00396181179
0.000935895869
0.0032328227
0.00683552883
0.00715467067
0.00381330703
0.000982318732
0.00330657353
0.00627188686
0.00421723932
0.00094016699
0.00285493321
0.00675500507
0.0070505061
0.00339864186
0.000977225374
0.00276332123
0.00682766474
0.00702557323
0.00298131339
0.0010075434
0.00106182434
0.00216034123
0.00656925398
0.00694165462
0.00343378883
0.000987042071
0.00242960753
0.00668472576
0.00701771442
0.00347601642
0.000986216667
0.00278587698
0.00660019367
0.00702298333
0.007015272
0.00710682004
0.00720822801
0.00490116797
0.000921816238
0.00302704085
0.00652643054
0.00546146242
0.000885717199
0.00103731716
0.00357114319
0.00656595195
0.0051967365
0.000900433925
0.00105116321
0.00276623955
0.00669225321
0.00728607536
0.00739604566
0.0049902255
0.000918510273
0.0027976859
0.00664019394
0.00533439781
0.00089052277
0.00278076045
0.00666267844
0.00530408394
0.000898316328
0.00282207244
0.00664652127
0.0052343542
0.000906020009
0.00293339245
0.00666665279
0.00514109541
0.00088991428
0.00274051609
0.00707994857
0.00752625371
0.00470471752
0.000931628653
0.0031460552
0.00673425667
0.00518853051
0.000881541397
0.00280294164
0.00718525852
0.00760244643
0.00457410025
0.000926743418
0.00345532445
0.00681262766
0.00497424743
0.000897391627
0.0037356551
0.00686971984
0.00469598355
0.000915805267
0.00393619398
0.00685617971
0.00449846021
0.000928818277
0.00405522554
0.00683614132
0.00433178388
0.000940056869
0.00418981389
0.00686350468
0.00416124414
0.000923056205
0.00386861151
0.00745377022
0.00750037662
0.0017798766
0.000975862038
0.00517232433
0.00688428411
0.00353459999
0.000964976982
0.00490997022
0.00682350021
0.00309703186
0.000945185757
0.00492014851
0.00751983129
0.00680482726
0.000856499616
0.000946088347
0.00645871739
0.00691864426
0.000806656849
0.000962178903
0.00584031663
0.0075382277
0.00650494831
0.000887861762
0.000752881193
0.00672543096
0.00631321965
0.000926464211
0.00132149911
0.0066851949
0.00603182765
0.00094455709
0.000939678537
0.00642297933
0.00746107291
0.0058551365
0.000935308603
0.00202264994
0.00664107272
0.00562125087
0.00098722909
0.000937234169
0.0063145806
0.00701002489
0.007086248
0.00739328206
0.00598677972
0.000933747357
0.00235207344
0.00668172431
0.00543098607
0.000995758034
0.000906343086
0.00651510978
0.00741243175
0.00599497924
0.000950571667
0.00100064644
0.00589600279
0.00737373103
0.00614754441
0.000944593267
0.00100303225
0.0057565423
0.00739341789
0.00633299681
0.000931632561
0.00104234618
0.00464419428
0.00720576815
0.00715700825
0.00200923785
0.00104370554
0.00295215936
0.00698182424
0.00687425361
0.000838589993
0.00104341775
0.00383878453
0.00715317192
0.00762921846
0.00536163692
0.00095501159
0.00340836805
0.00661473675
0.00470908161
0.00105343042
0.000867959813
0.00620733055
0.00736517567
0.0069661474
0.000893064882
0.00104648017
0.00396053213
0.0072674551
0.00712941231
0.00078878729
0.001031443
0.00436208347
0.00735483703
0.00716699481
0.000830639328
0.00103521372
0.0045722717
0.0072916288
0.00700472973
0.000937182415
0.00103268699
0.00508130745
0.00739845637
0.00764815642
0.00510586451
0.000999214096
0.00412599223
0.00671045349
0.00320903785
0.00105820647
0.00317243506
0.00715470106
0.00733332337
0.00314992338
0.00104540824
0.00507076124
0.00668445927
0.00200659934
0.00105989205
0.00377129966
0.00733405951
0.0073296943
0.00147257269
0.00104238703
0.0057852245
0.00679835205
0.00152365666
0.00104833877
0.0041114283
0.00744063786
0.00740471513
0.000825584825
0.00104354263
0.00608519057
0.00683690554
0.00146269587
0.00104772923
0.00412887628
0.0073923507
0.00738117479
0.000867975685
0.00104145444
0.00391825652
0.00729272338
0.00727169344
0.00087606423
0.00103292036
0.00456100979
0.00745597466
0.00739359287
0.000883050296
0.00101463947
0.00492398109
0.00763080113
0.00755317371
0.00087330752
0.00100945633
0.00646542307
0.00712275159
0.00148430557
0.00102531905
0.00631710768
0.00697793625
0.000712290256
0.00105044385
0.00630553969
0.00685152848
0.000701503848
0.00104659699
0.00471372048
0.00743657445
0.00742241446
0.000903275642
0.00104476804
0.00618893476
0.00677929331
0.000763350425
0.00108423345
0.00605463726
0.00654468833
0.000821845607
0.00110331269
0.00459697063
0.00671494999
0.00722665229
0.00722824823
0.000900711473
0.00107187405
0.00382045972
0.0068683566
0.00694911378
0.00747815237
0.00747856633
0.000886738941
0.00103995212
0.00629903191
0.00683552913
0.000785581615
0.00104638853
0.00508148668
0.00745645858
0.00740398382
0.000905072565
0.00104866538
0.00622531943
0.00680654481
0.000810595653
0.00107598527
0.00627724777
0.00674847012
0.00083495435
0.00108617315
0.00625809369
0.0067059336
0.000861082774
0.00106395304
0.00504725831
0.0073883199
0.00735081554
0.000930542124
0.00103631094
0.00498887314
0.00744473969
0.00737641655
0.00093405513
0.00103450081
0.00507310809
0.00745842809
0.00737630684
0.000938996321
0.00103327688
0.00513977633
0.00748588216
0.00738954286
0.00093489748
0.00106588736
0.00626809564
0.00676257117
0.00091457622
0.00106326062
0.00544115912
0.00743091817
0.00735540141
0.00095186434
0.00107131249
0.0062420677
0.00675646301
0.000937132541
0.00107080829
0.00545519355
0.00735885704
0.00732558939
0.000975182768
0.00104578645
0.00512783684
0.00745704367
0.00732826908
0.000926059307
0.00109703214
0.00106850514
0.00434107497
0.00700195019
0.0069987061
0.00758114708
0.00755639511
0.00090462564
0.00108341832
)
;

boundaryField
{
    closed
    {
        type            calculated;
        value           uniform 1.63882896e-06;
    }
    open
    {
        type            calculated;
        value           nonuniform List<scalar> 0();
    }
    sides
    {
        type            empty;
    }
    procBoundary0to1
    {
        type            processor;
        value           uniform 0.0010375228;
    }
}


// ************************************************************************* //
