/*--------------------------------*- C++ -*----------------------------------*\
| =========                 |                                                 |
| \\      /  F ield         | OpenFOAM: The Open Source CFD Toolbox           |
|  \\    /   O peration     | Version:  2306                                  |
|   \\  /    A nd           | Website:  www.openfoam.com                      |
|    \\/     M anipulation  |                                                 |
\*---------------------------------------------------------------------------*/
FoamFile
{
    version     2.0;
    format      ascii;
    arch        "LSB;label=32;scalar=64";
    class       volScalarField;
    location    "0.00188";
    object      prefDPV_T;
}
// * * * * * * * * * * * * * * * * * * * * * * * * * * * * * * * * * * * * * //

dimensions      [1 -1 -1 -1 0 0 0];

internalField   nonuniform List<scalar> 
530
(
6.19614455e-10
5.99865245e-10
5.97527198e-10
5.97546156e-10
5.97549738e-10
5.97549779e-10
5.97549775e-10
5.97549775e-10
5.97549775e-10
5.97549775e-10
5.97549775e-10
5.97549775e-10
5.97549775e-10
5.97549775e-10
5.97549775e-10
5.97549775e-10
5.97549775e-10
5.97549775e-10
5.97549775e-10
5.97549775e-10
5.97549775e-10
5.97549775e-10
5.97549775e-10
5.97549775e-10
5.97549775e-10
5.97549775e-10
5.97549775e-10
5.97549775e-10
5.97549775e-10
5.97549775e-10
5.97549775e-10
5.97549775e-10
5.97549775e-10
5.97549775e-10
5.97549775e-10
5.97549775e-10
5.97549775e-10
5.97549775e-10
5.97549775e-10
5.97549775e-10
5.97549775e-10
5.97549775e-10
5.97549775e-10
5.97549775e-10
5.97549775e-10
5.97549775e-10
5.97549775e-10
5.97549775e-10
5.97549775e-10
5.97549775e-10
5.97549775e-10
5.97549775e-10
5.97549775e-10
5.97549775e-10
5.97549775e-10
5.97549775e-10
5.97549775e-10
5.97549775e-10
5.97549775e-10
5.97549775e-10
5.97549775e-10
5.97549775e-10
5.97549775e-10
5.97549776e-10
5.97549777e-10
5.97549784e-10
5.97549788e-10
5.97549756e-10
5.97549846e-10
5.97550148e-10
5.97549437e-10
5.97549768e-10
5.97551331e-10
5.97551954e-10
5.97547161e-10
5.97550201e-10
5.97554581e-10
5.97562619e-10
5.97562639e-10
5.975413e-10
5.9750036e-10
5.97395166e-10
5.975084e-10
5.98530967e-10
5.98374409e-10
5.95508555e-10
5.91220889e-10
5.91440153e-10
6.1098498e-10
6.08557655e-10
6.06547352e-10
5.90377224e-10
5.90081361e-10
5.90139235e-10
5.89732958e-10
5.9036767e-10
6.119268e-10
6.09168226e-10
6.09446296e-10
6.0933934e-10
6.08770123e-10
6.09086062e-10
5.95215787e-10
5.89578917e-10
5.89679934e-10
5.89779503e-10
5.89841547e-10
5.9016028e-10
5.89908163e-10
5.90215778e-10
6.10302257e-10
6.09239129e-10
6.09750961e-10
6.09315465e-10
6.08790329e-10
6.09090131e-10
5.96982928e-10
5.89029473e-10
5.89001319e-10
5.89584255e-10
5.89589086e-10
5.89665298e-10
6.04020441e-10
6.0964508e-10
6.09881128e-10
6.09154642e-10
6.09346075e-10
6.08717383e-10
6.08785727e-10
5.98175487e-10
5.89169182e-10
5.88991109e-10
5.89735707e-10
5.89807144e-10
5.89966273e-10
6.05271597e-10
6.09248648e-10
6.00511616e-10
5.90906407e-10
5.90101194e-10
5.90264794e-10
6.08190894e-10
6.09454421e-10
6.09411174e-10
6.09141993e-10
6.02788066e-10
5.8940537e-10
5.88785936e-10
5.99456375e-10
6.10265207e-10
6.0236045e-10
5.90478986e-10
5.8985577e-10
6.00071054e-10
6.0970833e-10
6.02091606e-10
5.91786496e-10
5.98578215e-10
6.10206402e-10
6.03813382e-10
5.90634748e-10
5.90118128e-10
6.0164963e-10
6.09720846e-10
6.04170812e-10
5.90426121e-10
5.90174302e-10
6.0326972e-10
6.09540287e-10
6.08980162e-10
6.06549614e-10
5.90937791e-10
5.90344594e-10
6.01523301e-10
6.09604831e-10
6.05481393e-10
5.90701767e-10
5.90203686e-10
6.01362392e-10
6.09560553e-10
6.04085942e-10
5.90741436e-10
5.90104025e-10
5.90056069e-10
5.8987302e-10
5.89755277e-10
5.96095931e-10
6.10313282e-10
6.03127864e-10
5.91121832e-10
5.94159038e-10
6.10837942e-10
6.08664937e-10
6.01053166e-10
5.91033211e-10
5.95070911e-10
6.10781249e-10
6.08653276e-10
6.04161775e-10
5.90617671e-10
5.89467395e-10
5.89387213e-10
5.95784341e-10
6.10427587e-10
6.04027702e-10
5.90906312e-10
5.94652365e-10
6.10587013e-10
6.04087679e-10
5.90868341e-10
5.94753618e-10
6.10542638e-10
6.03927547e-10
5.9091923e-10
5.94994794e-10
6.10491176e-10
6.03492068e-10
5.90927953e-10
5.95296413e-10
6.10697877e-10
6.04252664e-10
5.89921976e-10
5.89103637e-10
5.96787569e-10
6.10245485e-10
6.02673989e-10
5.90748268e-10
5.95131771e-10
6.10721967e-10
6.04006295e-10
5.89684517e-10
5.8890621e-10
5.9724387e-10
6.10224411e-10
6.01486753e-10
5.90546861e-10
5.95866155e-10
6.10436458e-10
6.00406727e-10
5.90471496e-10
5.96831742e-10
6.10275913e-10
5.9966357e-10
5.90495352e-10
5.97541229e-10
6.10122514e-10
5.99227455e-10
5.90537797e-10
5.98149321e-10
6.10028632e-10
5.98733093e-10
5.90529005e-10
5.98759958e-10
6.10270418e-10
5.99933189e-10
5.89417625e-10
5.89105873e-10
6.08103672e-10
6.0947947e-10
5.95362933e-10
5.90458743e-10
6.0114958e-10
6.09710254e-10
5.96207832e-10
5.90667827e-10
6.02824498e-10
6.09962014e-10
5.96108558e-10
5.89311773e-10
5.90438204e-10
6.11063768e-10
6.09579433e-10
5.91465744e-10
5.90553696e-10
6.12146659e-10
6.09711346e-10
5.93108923e-10
5.89252798e-10
5.91069463e-10
6.10619506e-10
6.1211968e-10
5.90824645e-10
5.91768588e-10
6.10131541e-10
6.0997358e-10
5.90866918e-10
5.92583558e-10
6.09823359e-10
6.09775023e-10
5.91135128e-10
5.89417795e-10
5.92951777e-10
6.10115001e-10
6.07107516e-10
5.90949987e-10
5.93828324e-10
6.09406341e-10
6.09779713e-10
5.91588936e-10
5.90369537e-10
5.89726162e-10
5.89461891e-10
5.925421e-10
6.10051012e-10
6.05783333e-10
5.90916606e-10
5.94472162e-10
6.09306436e-10
6.10371686e-10
5.90916365e-10
5.8964538e-10
5.92534855e-10
6.09799554e-10
6.0922128e-10
5.92885104e-10
5.8961846e-10
5.92037557e-10
6.09817063e-10
6.09188003e-10
5.93348143e-10
5.89551409e-10
5.91423738e-10
6.09915356e-10
6.08801776e-10
5.97189362e-10
5.89854285e-10
5.89836797e-10
6.07162192e-10
6.0913848e-10
6.03441104e-10
5.90448714e-10
5.90493635e-10
6.10808384e-10
6.08915889e-10
6.00121092e-10
5.89568483e-10
5.88918032e-10
5.9455864e-10
6.09825716e-10
6.01657575e-10
5.91026234e-10
5.96934154e-10
6.08760774e-10
6.10968449e-10
5.91993165e-10
5.89884081e-10
5.90172734e-10
6.10186618e-10
6.09041561e-10
5.99645453e-10
5.89773765e-10
5.89877413e-10
6.11250538e-10
6.09220262e-10
5.98218015e-10
5.8962082e-10
5.89816886e-10
6.10700079e-10
6.09163026e-10
5.97474492e-10
5.89667988e-10
5.90146755e-10
6.09624812e-10
6.08944098e-10
5.95705903e-10
5.89079899e-10
5.88742671e-10
5.95444412e-10
6.09297261e-10
5.98981364e-10
5.90816092e-10
6.02408633e-10
6.08850842e-10
6.02583175e-10
5.89778383e-10
5.89423595e-10
6.02631421e-10
6.08867609e-10
5.95720466e-10
5.90785222e-10
6.07175488e-10
6.08878986e-10
6.00336857e-10
5.89571029e-10
5.89401135e-10
6.09365266e-10
6.08888327e-10
5.93485012e-10
5.90569391e-10
6.09155756e-10
6.09062032e-10
5.99101716e-10
5.89381361e-10
5.89285327e-10
6.10932454e-10
6.088546e-10
5.92574584e-10
5.90507466e-10
6.09405016e-10
6.09076977e-10
5.99055641e-10
5.89406627e-10
5.89454722e-10
6.10503503e-10
6.09143653e-10
5.99808198e-10
5.8961983e-10
5.89718486e-10
6.10379096e-10
6.09190676e-10
5.97503599e-10
5.89242328e-10
5.89427096e-10
6.10289705e-10
6.09340105e-10
5.9621008e-10
5.8889754e-10
5.88938569e-10
6.10521616e-10
6.09084376e-10
5.91332868e-10
5.89810737e-10
6.09313425e-10
6.08987656e-10
5.91910131e-10
5.90107052e-10
6.12465649e-10
6.08754447e-10
5.91984707e-10
5.90460886e-10
6.1245129e-10
6.09014022e-10
5.96979423e-10
5.89259667e-10
5.89182912e-10
6.1030293e-10
6.08685838e-10
5.92200929e-10
5.90424554e-10
6.11917171e-10
6.08314189e-10
5.9269596e-10
5.90936559e-10
6.112157e-10
6.08262923e-10
5.97398596e-10
5.90650178e-10
5.89704231e-10
5.89677951e-10
6.10450612e-10
6.08747719e-10
6.00145224e-10
5.90448293e-10
5.90235364e-10
5.89183546e-10
5.89116633e-10
6.10516998e-10
6.08831924e-10
5.91773356e-10
5.9048147e-10
6.11468147e-10
6.08964341e-10
5.95684744e-10
5.8922946e-10
5.89208012e-10
6.10335549e-10
6.08650412e-10
5.92038352e-10
5.90365077e-10
6.1139227e-10
6.0837115e-10
5.91927849e-10
5.90476277e-10
6.11135336e-10
6.08323744e-10
5.91905014e-10
5.90671337e-10
6.1075634e-10
6.08712707e-10
5.95795e-10
5.89265635e-10
5.89425201e-10
6.09917426e-10
6.09018893e-10
5.95971497e-10
5.89162304e-10
5.89349258e-10
6.09883119e-10
6.09021415e-10
5.95682015e-10
5.89122845e-10
5.89351517e-10
6.09802236e-10
6.09060915e-10
5.95425685e-10
5.89117204e-10
5.89188936e-10
6.09908453e-10
6.0856399e-10
5.91765489e-10
5.90565402e-10
6.10085866e-10
6.08716133e-10
5.9440686e-10
5.8919734e-10
5.89248588e-10
6.09719286e-10
6.08518058e-10
5.91848997e-10
5.90549208e-10
6.09871602e-10
6.08592066e-10
5.9439434e-10
5.89271507e-10
5.89439232e-10
6.09412265e-10
6.08984184e-10
5.95470776e-10
5.89216406e-10
5.89341745e-10
6.10063911e-10
6.08433323e-10
6.08807735e-10
5.98234069e-10
5.90249634e-10
5.90071867e-10
5.89012355e-10
5.88897766e-10
6.10295292e-10
6.08598282e-10
)
;

boundaryField
{
    closed
    {
        type            calculated;
        value           uniform 7.2809606e-10;
    }
    open
    {
        type            calculated;
        value           nonuniform List<scalar> 0();
    }
    sides
    {
        type            empty;
    }
    procBoundary0to1
    {
        type            processor;
        value           uniform 6.09127226e-10;
    }
}


// ************************************************************************* //
