/*--------------------------------*- C++ -*----------------------------------*\
| =========                 |                                                 |
| \\      /  F ield         | OpenFOAM: The Open Source CFD Toolbox           |
|  \\    /   O peration     | Version:  2306                                  |
|   \\  /    A nd           | Website:  www.openfoam.com                      |
|    \\/     M anipulation  |                                                 |
\*---------------------------------------------------------------------------*/
FoamFile
{
    version     2.0;
    format      ascii;
    arch        "LSB;label=32;scalar=64";
    class       volScalarField;
    location    "0.0017";
    object      prefDPV_H2;
}
// * * * * * * * * * * * * * * * * * * * * * * * * * * * * * * * * * * * * * //

dimensions      [1 -1 -1 0 0 0 0];

internalField   nonuniform List<scalar> 
531
(
-3.083998e-05
-3.06633465e-05
-3.0949383e-05
-3.15065699e-05
-3.11239891e-05
-3.08433612e-05
-3.06595742e-05
-3.06868896e-05
-3.09658085e-05
-3.15063396e-05
-3.11537543e-05
-3.08152385e-05
-3.07442263e-05
-3.09850959e-05
-3.15086974e-05
-3.11519726e-05
-3.08013471e-05
-3.07468707e-05
-3.09953919e-05
-3.15095467e-05
-3.11417295e-05
-3.07789453e-05
-3.07401688e-05
-3.09990703e-05
-3.15104462e-05
-3.11289917e-05
-3.07551261e-05
-3.07271684e-05
-3.10038493e-05
-3.15121025e-05
-3.11294181e-05
-3.07576751e-05
-3.07390695e-05
-3.10198518e-05
-3.15091381e-05
-3.1033568e-05
-3.07963491e-05
-3.0906418e-05
-3.13568757e-05
-3.15266141e-05
-3.14744247e-05
-3.10630224e-05
-3.07180079e-05
-3.06519369e-05
-3.0658655e-05
-3.06443736e-05
-3.09702085e-05
-3.15218609e-05
-3.09982109e-05
-3.09262576e-05
-3.09746392e-05
-3.15316379e-05
-3.10034898e-05
-3.06005928e-05
-3.06020981e-05
-3.09906604e-05
-3.15289558e-05
-3.09772717e-05
-3.09222818e-05
-3.10085476e-05
-3.15357098e-05
-3.09984023e-05
-3.06647828e-05
-3.06846046e-05
-3.10597609e-05
-3.15380203e-05
-3.09676543e-05
-3.091332e-05
-3.10539797e-05
-3.15419699e-05
-3.09501442e-05
-3.06802203e-05
-3.0678557e-05
-3.05996634e-05
-3.08851666e-05
-3.15553596e-05
-3.155337e-05
-3.09613984e-05
-3.06644135e-05
-3.07184669e-05
-3.11179287e-05
-3.15246186e-05
-3.10403977e-05
-3.07993801e-05
-3.09157002e-05
-3.1444501e-05
-3.1535836e-05
-3.0984579e-05
-3.07551338e-05
-3.0741428e-05
-3.06751177e-05
-3.0898479e-05
-3.15449548e-05
-3.1535784e-05
-3.09686028e-05
-3.06909156e-05
-3.07736259e-05
-3.12336791e-05
-3.15226437e-05
-3.09457189e-05
-3.06621644e-05
-3.07925338e-05
-3.12004538e-05
-3.15465159e-05
-3.14840586e-05
-3.09530151e-05
-3.06327858e-05
-3.05695684e-05
-3.0721359e-05
-3.12690796e-05
-3.15150885e-05
-3.09284976e-05
-3.06248201e-05
-3.07782539e-05
-3.13388931e-05
-3.15206095e-05
-3.09308391e-05
-3.06154052e-05
-3.0765723e-05
-3.13764395e-05
-3.15507305e-05
-3.09204294e-05
-3.09201846e-05
-3.12325517e-05
-3.15348375e-05
-3.09101847e-05
-3.05517137e-05
-3.07357527e-05
-3.13904737e-05
-3.15218308e-05
-3.09199829e-05
-3.05451892e-05
-3.07285774e-05
-3.14332788e-05
-3.15196316e-05
-3.09169448e-05
-3.04920906e-05
-3.06611897e-05
-3.14309171e-05
-3.15432751e-05
-3.09215564e-05
-3.07208427e-05
-3.11232377e-05
-3.15172504e-05
-3.09028906e-05
-3.04315237e-05
-3.06031721e-05
-3.13690842e-05
-3.15500153e-05
-3.09507794e-05
-3.08337093e-05
-3.13811406e-05
-3.15185586e-05
-3.09153228e-05
-3.04874513e-05
-3.06535329e-05
-3.14573148e-05
-3.15594027e-05
-3.09526369e-05
-3.08914989e-05
-3.14675952e-05
-3.15271727e-05
-3.09149491e-05
-3.05094003e-05
-3.06605173e-05
-3.14785439e-05
-3.15636705e-05
-3.09416827e-05
-3.09191754e-05
-3.14811354e-05
-3.15415274e-05
-3.09226663e-05
-3.06845154e-05
-3.07035691e-05
-3.04797611e-05
-3.05488911e-05
-3.14545181e-05
-3.15538612e-05
-3.09508361e-05
-3.0852217e-05
-3.14653467e-05
-3.15252453e-05
-3.09160477e-05
-3.05137496e-05
-3.06179589e-05
-3.14758033e-05
-3.15599458e-05
-3.09391609e-05
-3.0877615e-05
-3.14650043e-05
-3.15298009e-05
-3.09133598e-05
-3.04728533e-05
-3.05666997e-05
-3.14714687e-05
-3.15602445e-05
-3.09391764e-05
-3.08460863e-05
-3.14626635e-05
-3.15294649e-05
-3.09122729e-05
-3.04647155e-05
-3.05495667e-05
-3.14730573e-05
-3.15608407e-05
-3.09369118e-05
-3.0852219e-05
-3.14639759e-05
-3.1533211e-05
-3.09187073e-05
-3.05197912e-05
-3.05937177e-05
-3.15002107e-05
-3.15205557e-05
-3.09357022e-05
-3.05729828e-05
-3.06393776e-05
-3.14841625e-05
-3.15388023e-05
-3.0989351e-05
-3.07487545e-05
-3.05070926e-05
-3.05453298e-05
-3.15011909e-05
-3.15193716e-05
-3.09277837e-05
-3.05285017e-05
-3.06015114e-05
-3.15041139e-05
-3.15215045e-05
-3.09462e-05
-3.05682793e-05
-3.06199807e-05
-3.15103032e-05
-3.15208831e-05
-3.09477863e-05
-3.05659314e-05
-3.06116669e-05
-3.15184539e-05
-3.15200419e-05
-3.09324929e-05
-3.05195672e-05
-3.05861485e-05
-3.15070475e-05
-3.15595457e-05
-3.09322208e-05
-3.08612669e-05
-3.15047918e-05
-3.15350715e-05
-3.092436e-05
-3.05284339e-05
-3.06029534e-05
-3.15265082e-05
-3.15204073e-05
-3.09367898e-05
-3.05297811e-05
-3.06154949e-05
-3.15246426e-05
-3.15169403e-05
-3.09616434e-05
-3.05659397e-05
-3.06370547e-05
-3.15237665e-05
-3.15270464e-05
-3.0989819e-05
-3.07501221e-05
-3.07147573e-05
-3.04429814e-05
-3.04995142e-05
-3.14945165e-05
-3.15516343e-05
-3.09690392e-05
-3.07729519e-05
-3.14928375e-05
-3.15579092e-05
-3.09521671e-05
-3.08240251e-05
-3.15201786e-05
-3.15297102e-05
-3.09227373e-05
-3.04911781e-05
-3.05425014e-05
-3.15378651e-05
-3.15110576e-05
-3.09165211e-05
-3.04392264e-05
-3.05200089e-05
-3.15161172e-05
-3.15551297e-05
-3.09495781e-05
-3.07694942e-05
-3.15169344e-05
-3.15580194e-05
-3.09389562e-05
-3.07967916e-05
-3.1531269e-05
-3.15323176e-05
-3.0917186e-05
-3.04932908e-05
-3.05128097e-05
-3.1537362e-05
-3.15160946e-05
-3.09252889e-05
-3.04907238e-05
-3.0512953e-05
-3.15366118e-05
-3.15146011e-05
-3.09238466e-05
-3.04811894e-05
-3.05041776e-05
-3.15396026e-05
-3.15079759e-05
-3.09204104e-05
-3.04416864e-05
-3.04810168e-05
-3.15278387e-05
-3.15375013e-05
-3.08633526e-05
-3.07132084e-05
-3.15430459e-05
-3.1521629e-05
-3.09326029e-05
-3.05014768e-05
-3.06694146e-05
-3.15289493e-05
-3.09146279e-05
-3.0653255e-05
-3.15682424e-05
-3.15140305e-05
-3.08969059e-05
-3.03702525e-05
-3.04282386e-05
-3.15297224e-05
-3.15565043e-05
-3.08731068e-05
-3.07236091e-05
-3.15422817e-05
-3.15647693e-05
-3.09157561e-05
-3.08309136e-05
-3.15489757e-05
-3.15479953e-05
-3.09287605e-05
-3.07954227e-05
-3.05048041e-05
-3.05054842e-05
-3.1537438e-05
-3.15145107e-05
-3.0950281e-05
-3.05230309e-05
-3.06717341e-05
-3.15416365e-05
-3.09207999e-05
-3.06475264e-05
-3.15633222e-05
-3.1544103e-05
-3.08411157e-05
-3.07133196e-05
-3.15661855e-05
-3.15154e-05
-3.09025374e-05
-3.03409388e-05
-3.04131974e-05
-3.15279951e-05
-3.15457749e-05
-3.08312104e-05
-3.0673516e-05
-3.15409449e-05
-3.15452211e-05
-3.08468699e-05
-3.07197863e-05
-3.15632574e-05
-3.15192666e-05
-3.09075981e-05
-3.04111113e-05
-3.04633088e-05
-3.15438815e-05
-3.15464193e-05
-3.09327468e-05
-3.08396236e-05
-3.15507664e-05
-3.15429262e-05
-3.09404954e-05
-3.0861009e-05
-3.05200853e-05
-3.05219897e-05
-3.15367892e-05
-3.15054655e-05
-3.09667883e-05
-3.05120186e-05
-3.05329324e-05
-3.15469935e-05
-3.15029438e-05
-3.09469265e-05
-3.04874214e-05
-3.05167929e-05
-3.15470504e-05
-3.1502189e-05
-3.09579839e-05
-3.05128738e-05
-3.05427114e-05
-3.15469498e-05
-3.15287012e-05
-3.09340879e-05
-3.07657299e-05
-3.04773137e-05
-3.04912352e-05
-3.12172999e-05
-3.15163157e-05
-3.14855833e-05
-3.10014302e-05
-3.04704279e-05
-3.05159293e-05
-3.15273899e-05
-3.09148304e-05
-3.06357162e-05
-3.15721514e-05
-3.1513232e-05
-3.09138719e-05
-3.04781985e-05
-3.05076981e-05
-3.15328884e-05
-3.15143777e-05
-3.1004281e-05
-3.0530053e-05
-3.05761399e-05
-3.15466101e-05
-3.09130165e-05
-3.05684448e-05
-3.15603693e-05
-3.15525989e-05
-3.08250295e-05
-3.07139474e-05
-3.15562735e-05
-3.1553717e-05
-3.08757236e-05
-3.07556629e-05
-3.15569446e-05
-3.15277327e-05
-3.09220262e-05
-3.04924083e-05
-3.05062141e-05
-3.15401531e-05
-3.15064035e-05
-3.09595686e-05
-3.05368039e-05
-3.05461546e-05
-3.1530584e-05
-3.15035455e-05
-3.09706684e-05
-3.05078331e-05
-3.0509427e-05
-3.15375284e-05
-3.15078973e-05
-3.09316973e-05
-3.04702849e-05
-3.04747869e-05
-3.15354373e-05
-3.15110008e-05
-3.09310776e-05
-3.04550565e-05
-3.04560638e-05
-3.15377774e-05
-3.15093805e-05
-3.09235265e-05
-3.04313007e-05
-3.04392816e-05
-3.15298213e-05
-3.15312361e-05
-3.09237922e-05
-3.07278477e-05
-3.15335986e-05
-3.15191341e-05
-3.09253926e-05
-3.04569602e-05
-3.04626785e-05
-3.15168928e-05
-3.15165436e-05
-3.15130484e-05
-3.09613776e-05
-3.07957611e-05
-3.04527961e-05
-3.04545492e-05
-3.15167059e-05
-3.1506477e-05
-3.09139306e-05
-3.03943218e-05
-3.04028877e-05
-3.15118843e-05
-3.15276123e-05
-3.09294455e-05
-3.07048916e-05
-3.15224227e-05
-3.15158841e-05
-3.09120081e-05
-3.04321031e-05
-3.04398589e-05
-3.15017994e-05
-3.15440547e-05
-3.09326953e-05
-3.07487195e-05
-3.1508853e-05
-3.15440127e-05
-3.0931891e-05
-3.07848006e-05
-3.15088022e-05
-3.15262731e-05
-3.09306987e-05
-3.05164092e-05
-3.05168057e-05
-3.14950823e-05
-3.15109874e-05
-3.0947364e-05
-3.05081892e-05
-3.050979e-05
-3.14862412e-05
-3.15091736e-05
-3.0949207e-05
-3.05134859e-05
-3.05147888e-05
-3.1484122e-05
-3.15100654e-05
-3.09507867e-05
-3.05191903e-05
-3.05207837e-05
-3.14814361e-05
-3.15105635e-05
-3.09536048e-05
-3.05269139e-05
-3.05284618e-05
-3.14787915e-05
)
;

boundaryField
{
    closed
    {
        type            calculated;
        value           nonuniform List<scalar> 0();
    }
    open
    {
        type            calculated;
        value           nonuniform List<scalar> 0();
    }
    sides
    {
        type            empty;
    }
    procBoundary1to0
    {
        type            processor;
        value           uniform -3.11264644e-05;
    }
    procBoundary1to2
    {
        type            processor;
        value           uniform -3.15104804e-05;
    }
}


// ************************************************************************* //
