/*--------------------------------*- C++ -*----------------------------------*\
| =========                 |                                                 |
| \\      /  F ield         | OpenFOAM: The Open Source CFD Toolbox           |
|  \\    /   O peration     | Version:  2306                                  |
|   \\  /    A nd           | Website:  www.openfoam.com                      |
|    \\/     M anipulation  |                                                 |
\*---------------------------------------------------------------------------*/
FoamFile
{
    version     2.0;
    format      ascii;
    arch        "LSB;label=32;scalar=64";
    class       volScalarField;
    location    "0.0017";
    object      T;
}
// * * * * * * * * * * * * * * * * * * * * * * * * * * * * * * * * * * * * * //

dimensions      [0 0 0 1 0 0 0];

internalField   nonuniform List<scalar> 
531
(
327.958803
325.136278
330.135025
339.627681
333.28569
328.030158
325.062283
325.506781
330.437318
339.614061
333.812271
327.576179
326.441683
330.792314
339.64647
333.780695
327.352469
326.483539
330.980926
339.658922
333.599449
326.991305
326.373791
331.048261
339.673629
333.373944
326.607119
326.162337
331.135006
339.69542
333.381391
326.649506
326.353651
331.426118
339.652873
331.676147
327.284162
329.031279
337.372078
339.877312
339.118018
332.201897
326.00804
324.942396
325.037606
324.819683
330.521609
339.857645
331.039092
329.389247
330.60533
339.994949
331.133126
324.104843
324.131705
330.897721
339.961583
330.657254
329.334033
331.222871
340.041842
331.040013
325.14661
325.462551
332.143223
340.080617
330.475982
329.205046
332.040265
340.131982
330.157305
325.396464
325.348824
324.098842
328.773734
340.337289
340.283824
330.358502
325.133648
326.005051
333.178567
339.855743
331.796972
327.344529
329.189901
338.754449
340.012493
330.780652
326.60754
326.378442
325.322731
328.899973
340.19899
340.016926
330.488861
325.571293
326.896914
335.215885
339.834646
330.069671
325.111496
327.191346
334.635876
340.157004
339.2609
330.20237
324.634821
323.61123
326.053577
335.836076
339.721134
329.728924
324.518781
326.966241
337.056882
339.79738
329.762797
324.368162
326.761762
337.709999
340.250207
329.463883
329.272983
335.194622
340.011201
329.349914
323.33769
326.280091
337.952938
339.820569
329.512146
323.237295
326.169353
338.603566
339.790205
329.432249
322.37745
325.076491
338.57855
340.155656
329.377985
326.053265
333.270298
339.766494
329.215792
321.396742
324.133421
337.580683
340.249253
329.852043
327.876373
337.785296
339.762564
329.389199
322.303959
324.952396
338.946376
340.377802
329.878886
328.805325
339.113873
339.884835
329.373467
322.654602
325.067208
339.248429
340.434598
329.71735
329.261148
339.296606
340.087964
329.559716
325.471667
325.767559
322.177348
323.269493
338.920046
340.298181
329.830615
328.172277
339.081465
339.854331
329.411509
322.722684
324.383197
339.207785
340.377485
329.66314
328.578703
339.072943
339.921652
329.352672
322.059738
323.553357
339.153715
340.382803
329.652421
328.068364
339.041443
339.915903
329.335463
321.926649
323.275634
339.176962
340.388885
329.617391
328.165729
339.055823
339.966562
329.469208
322.808323
324.001111
339.566336
339.777873
329.84705
323.673907
324.734873
339.324491
340.040604
330.855106
326.492794
322.608706
323.220843
339.584213
339.764453
329.680094
322.950712
324.126514
339.623257
339.789302
330.047448
323.591069
324.426554
339.710006
339.777675
330.079663
323.551052
324.291642
339.82676
339.769587
329.792077
322.805912
323.864291
339.658925
340.354888
329.532105
328.308834
339.644409
339.982478
329.599969
322.942098
324.14766
339.940161
339.772464
329.867073
322.967877
324.351551
339.917148
339.71432
330.34756
323.552303
324.698099
339.903504
339.854034
330.87355
326.527671
325.950956
321.5781
322.466859
339.498596
340.243144
330.100418
326.875381
339.476642
340.318852
329.830669
327.709681
339.857754
339.902176
329.549753
322.338613
323.172715
340.100496
339.637802
329.46352
321.509128
322.792829
339.783564
340.292525
329.763274
326.818919
339.808215
340.31963
329.587284
327.269148
340.002615
339.943423
329.438343
322.369213
322.690286
340.076045
339.712352
329.629754
322.330782
322.693275
340.06093
339.689695
329.596779
322.176633
322.552596
340.105893
339.590769
329.544767
321.544266
322.165817
339.941515
340.02918
328.352235
325.925971
340.178353
339.783384
329.787078
322.504916
325.215357
339.949089
329.438176
324.959197
340.548783
339.679952
329.056973
320.389831
321.302392
339.976031
340.321977
328.51544
326.074933
340.161733
340.420276
329.199079
327.812637
340.244927
340.155486
329.690533
327.250661
322.560675
322.568976
340.089884
339.685527
330.130571
322.85245
325.257968
340.135283
329.536866
324.853314
340.483258
340.119396
327.984978
325.927107
340.51011
339.696939
329.15786
319.917829
321.062672
339.960746
340.162998
327.847369
325.273152
340.153666
340.133814
328.087929
326.030809
340.462268
339.750903
329.281258
321.045281
321.873372
340.17539
340.156354
329.478345
327.959915
340.266818
340.070908
329.923561
328.311685
322.812976
322.837809
340.069528
339.544109
330.438775
322.679108
323.021536
340.219908
339.506926
330.059103
322.281405
322.758979
340.224367
339.495015
330.280996
322.693792
323.168247
340.214017
339.881961
329.792797
326.771659
322.12572
322.332823
334.92594
339.704025
339.267074
331.08584
322.009497
322.735057
339.923505
329.436634
324.677456
340.59495
339.658424
329.410695
322.133117
322.602575
340.016718
339.679195
331.13733
322.963642
323.714808
340.223425
329.346458
323.57331
340.430014
340.250769
327.725417
325.921187
340.367767
340.255929
328.545282
326.604816
340.367503
339.87025
329.566453
322.356525
322.582372
340.125657
339.558204
330.303641
323.082599
323.233878
339.980593
339.513024
330.511974
322.611575
322.638833
340.087709
339.586072
329.755379
322.004056
322.074922
340.054059
339.636783
329.741609
321.755927
321.772606
340.093092
339.61559
329.606081
321.373801
321.490858
339.975596
339.933176
329.326974
326.164592
340.027609
339.745071
329.628966
321.787314
321.876522
339.801844
339.695423
339.656415
330.33554
327.268427
321.721393
321.751369
339.799665
339.577195
329.378041
320.779402
320.902907
339.716631
339.882105
329.418749
325.795681
339.869681
339.701234
329.360658
321.388727
321.494388
339.5731
340.128132
329.477055
326.489866
339.674028
340.104056
329.474231
327.079005
339.667056
339.846282
329.729413
322.747735
322.752569
339.478223
339.631604
330.063298
322.619552
322.640861
339.345991
339.603699
330.098006
322.705341
322.721439
339.315577
339.616641
330.129798
322.797053
322.817884
339.276815
339.62341
330.184891
322.921712
322.942012
339.238074
)
;

boundaryField
{
    closed
    {
        type            fixedValue;
        value           nonuniform List<scalar> 0();
    }
    open
    {
        type            zeroGradient;
    }
    sides
    {
        type            empty;
    }
    procBoundary1to0
    {
        type            processor;
        value           uniform 333.331453;
    }
    procBoundary1to2
    {
        type            processor;
        value           uniform 339.621197;
    }
}


// ************************************************************************* //
