/*--------------------------------*- C++ -*----------------------------------*\
| =========                 |                                                 |
| \\      /  F ield         | OpenFOAM: The Open Source CFD Toolbox           |
|  \\    /   O peration     | Version:  2306                                  |
|   \\  /    A nd           | Website:  www.openfoam.com                      |
|    \\/     M anipulation  |                                                 |
\*---------------------------------------------------------------------------*/
FoamFile
{
    version     2.0;
    format      ascii;
    arch        "LSB;label=32;scalar=64";
    class       volScalarField;
    location    "0.001";
    object      mu;
}
// * * * * * * * * * * * * * * * * * * * * * * * * * * * * * * * * * * * * * //

dimensions      [1 -1 -1 0 0 0 0];

internalField   nonuniform List<scalar> 
530
(
2.02896968e-05
1.98733169e-05
1.96632253e-05
1.96503203e-05
2.00638094e-05
2.02943586e-05
1.98256566e-05
1.9552138e-05
1.95535069e-05
2.00519551e-05
2.02898211e-05
1.98534744e-05
1.96813269e-05
1.97099076e-05
2.01984626e-05
2.02950889e-05
1.97889967e-05
1.95558245e-05
1.94603308e-05
1.97674588e-05
2.02176491e-05
2.02806061e-05
2.02703369e-05
2.02688384e-05
1.976826e-05
1.9522508e-05
1.9607083e-05
2.01808776e-05
2.02708996e-05
1.97852731e-05
1.95513979e-05
1.9489054e-05
1.96459339e-05
2.02563106e-05
2.02547279e-05
1.97746916e-05
1.95496279e-05
1.97026381e-05
2.02679686e-05
2.02449806e-05
1.97661322e-05
1.95292555e-05
1.9736188e-05
2.02841905e-05
2.02801689e-05
2.02706311e-05
2.02239597e-05
1.97636231e-05
1.94811252e-05
1.94906633e-05
1.97431004e-05
2.02774202e-05
2.02016909e-05
1.97830029e-05
1.94707012e-05
1.94793409e-05
1.97327251e-05
2.02736915e-05
2.02097061e-05
1.97683118e-05
1.95661842e-05
1.97363097e-05
2.0288247e-05
2.02288633e-05
1.97814344e-05
1.97484113e-05
1.98256684e-05
2.02082705e-05
1.97479188e-05
1.94335235e-05
1.97287202e-05
2.02886663e-05
2.02203993e-05
1.97701054e-05
1.97558587e-05
1.98536798e-05
2.01201605e-05
1.97692901e-05
1.97527346e-05
2.02573097e-05
2.00892276e-05
1.95469505e-05
1.94842128e-05
1.97811699e-05
2.02675098e-05
1.99433459e-05
1.97793049e-05
1.97655647e-05
2.02374744e-05
2.00725154e-05
1.95614053e-05
1.95143194e-05
1.97859316e-05
2.02574882e-05
1.99411006e-05
1.979235e-05
1.97670295e-05
2.02252009e-05
1.99773034e-05
1.97888911e-05
1.97711985e-05
2.02348549e-05
2.00545731e-05
1.95808882e-05
1.95694298e-05
1.98096281e-05
2.02528289e-05
2.00118887e-05
1.9614118e-05
1.96125645e-05
1.98226357e-05
2.02541206e-05
2.00085943e-05
1.96101795e-05
1.96103902e-05
1.98143232e-05
2.02516312e-05
1.9948085e-05
1.97905526e-05
1.97873356e-05
2.023436e-05
2.00368622e-05
1.96049015e-05
1.96042397e-05
1.98175622e-05
2.02525352e-05
2.00283794e-05
1.96315396e-05
1.96317498e-05
1.98256819e-05
2.02574925e-05
2.00434008e-05
1.9633734e-05
1.96270435e-05
1.98198025e-05
2.02574738e-05
2.00517854e-05
1.96323443e-05
1.96065612e-05
1.98055447e-05
2.02567093e-05
2.00100136e-05
1.9790503e-05
1.97788982e-05
2.02353335e-05
2.00818343e-05
1.96325534e-05
1.95915285e-05
1.98008922e-05
2.02580128e-05
2.00845479e-05
1.96427925e-05
1.95915517e-05
1.97990874e-05
2.02605612e-05
2.00196115e-05
1.97953104e-05
1.97759324e-05
2.02483607e-05
2.01269538e-05
1.9653858e-05
1.95600116e-05
1.97818667e-05
2.02639626e-05
2.01374733e-05
1.96479539e-05
1.96213359e-05
1.98836003e-05
2.02571696e-05
1.98309802e-05
1.97262759e-05
1.97767474e-05
2.02808733e-05
2.02075999e-05
1.97094846e-05
1.95681109e-05
1.9780898e-05
2.02843195e-05
2.02268359e-05
1.97268543e-05
1.96316998e-05
1.98187163e-05
2.02932945e-05
2.02208432e-05
1.97331652e-05
1.95555474e-05
1.96279493e-05
1.96018075e-05
1.97603946e-05
2.02716038e-05
2.02462023e-05
1.97824141e-05
1.97812637e-05
2.00862352e-05
2.02563863e-05
1.97664523e-05
1.97136181e-05
1.98942609e-05
2.02600759e-05
1.97782444e-05
1.94285221e-05
1.96891674e-05
2.02477989e-05
2.02317104e-05
1.9737785e-05
1.96948547e-05
2.01809152e-05
2.01815027e-05
1.97298141e-05
1.97610527e-05
2.03071991e-05
2.02195623e-05
1.96965705e-05
1.93907487e-05
1.97365954e-05
2.02792379e-05
2.01605168e-05
1.96642192e-05
1.97589211e-05
2.02920605e-05
2.01542874e-05
1.96513033e-05
1.97577612e-05
2.03095265e-05
2.02262921e-05
1.96894458e-05
1.94181255e-05
1.97392826e-05
2.02918671e-05
2.01995704e-05
1.96583642e-05
1.97395959e-05
2.03007545e-05
2.0203789e-05
1.96643439e-05
1.97552345e-05
2.03090735e-05
2.02490792e-05
1.97715676e-05
1.94438866e-05
1.96926446e-05
2.02996131e-05
2.02484504e-05
1.97232352e-05
1.97456993e-05
2.03140373e-05
2.02682773e-05
1.97723517e-05
1.9466565e-05
1.96761295e-05
2.03061329e-05
2.02754718e-05
1.97702081e-05
1.94635895e-05
1.96141685e-05
2.03055947e-05
2.03039135e-05
1.9790347e-05
1.97126766e-05
2.03005339e-05
2.02942975e-05
1.97818592e-05
1.94994234e-05
1.96068965e-05
2.02902786e-05
2.02944816e-05
1.97930549e-05
1.9512649e-05
1.95729518e-05
2.02708759e-05
2.0295046e-05
1.98046957e-05
1.95295445e-05
1.95417796e-05
2.02452561e-05
2.02943652e-05
1.98187012e-05
1.95417034e-05
1.9528171e-05
2.01733401e-05
2.0290748e-05
1.98354823e-05
1.95632085e-05
1.95244934e-05
2.00614856e-05
2.02981542e-05
1.9794156e-05
1.9772429e-05
1.99423328e-05
2.02745357e-05
1.98863539e-05
1.96335584e-05
1.95535988e-05
1.99170869e-05
2.02688916e-05
1.99424475e-05
1.96840181e-05
1.95647979e-05
1.98496943e-05
2.02553951e-05
1.99954253e-05
1.97305994e-05
1.95810706e-05
1.98012313e-05
2.02390114e-05
2.00542833e-05
1.97516691e-05
1.95931738e-05
1.97739591e-05
2.02228556e-05
2.01102181e-05
1.97483867e-05
1.96049952e-05
1.97575227e-05
2.02072842e-05
2.01553934e-05
1.97445382e-05
1.9598873e-05
1.97476216e-05
2.01821995e-05
2.01831895e-05
1.97505421e-05
1.95643964e-05
1.97266477e-05
2.00180979e-05
2.02768186e-05
2.02234161e-05
1.97463237e-05
1.95557857e-05
1.97583042e-05
2.01143395e-05
2.01734485e-05
1.97518454e-05
1.95755783e-05
1.97609557e-05
2.01042264e-05
2.01820536e-05
1.97590733e-05
1.95872403e-05
1.97581824e-05
2.00913755e-05
2.01632979e-05
1.97767207e-05
1.97766884e-05
2.00634576e-05
2.01773715e-05
1.97651031e-05
1.95937119e-05
1.97583356e-05
2.0093108e-05
2.01726236e-05
1.97839664e-05
1.97836668e-05
2.01043253e-05
2.02023457e-05
1.97680357e-05
1.96718116e-05
1.96201115e-05
1.95485134e-05
1.97592192e-05
2.01166397e-05
2.01675331e-05
1.97791984e-05
1.9781945e-05
2.01514068e-05
2.01857745e-05
1.97523213e-05
1.94915713e-05
1.97487224e-05
2.01409823e-05
2.01471654e-05
1.97774291e-05
1.97709418e-05
2.0189944e-05
2.01098844e-05
1.97584753e-05
1.97615742e-05
2.02048252e-05
2.00788465e-05
1.97157095e-05
1.9753583e-05
2.02192662e-05
2.00537594e-05
1.96931243e-05
1.97489258e-05
2.02249579e-05
2.00314394e-05
1.96926177e-05
1.97475189e-05
2.02304243e-05
2.00141026e-05
1.96962242e-05
1.9753818e-05
2.02373964e-05
2.00513545e-05
1.96589017e-05
1.93889056e-05
1.97438557e-05
2.0236818e-05
1.99851222e-05
1.96879215e-05
1.97554428e-05
2.02561144e-05
1.99598874e-05
1.96693312e-05
1.97565826e-05
2.02606301e-05
1.9931565e-05
1.96759791e-05
1.97655506e-05
2.02624002e-05
1.99769763e-05
1.9567996e-05
1.94094836e-05
1.97607551e-05
2.02580649e-05
1.98985845e-05
1.96865765e-05
1.97819773e-05
2.02714723e-05
1.98704393e-05
1.96943198e-05
1.97944749e-05
2.0274593e-05
1.98555039e-05
1.97244011e-05
1.98100529e-05
2.02759683e-05
1.99527798e-05
1.95158258e-05
1.95138346e-05
1.98086504e-05
2.02877973e-05
2.02848587e-05
1.98799063e-05
1.9585986e-05
1.95652216e-05
1.95360345e-05
1.9547565e-05
1.98138395e-05
2.03007702e-05
2.02817686e-05
1.98150438e-05
1.9767423e-05
1.98627435e-05
2.02845669e-05
1.99122179e-05
1.95129448e-05
1.95447232e-05
1.9860921e-05
2.02642031e-05
1.98323956e-05
1.97735994e-05
1.98817336e-05
2.02814258e-05
1.99148131e-05
1.95487901e-05
1.95960666e-05
1.98836366e-05
2.02716772e-05
1.99623944e-05
1.95673382e-05
1.96174415e-05
1.99063574e-05
2.02674704e-05
1.99416736e-05
1.95703936e-05
1.96262564e-05
1.99229326e-05
2.02650123e-05
1.99177813e-05
1.95622936e-05
1.96198254e-05
1.99278353e-05
2.02636486e-05
1.98945726e-05
1.95493093e-05
1.96032428e-05
1.99231001e-05
2.02631042e-05
1.98749171e-05
1.95186746e-05
1.95690755e-05
1.99304947e-05
2.02564413e-05
1.97847916e-05
1.97320558e-05
1.99031884e-05
2.02755339e-05
1.98373052e-05
1.94941208e-05
1.95362462e-05
1.99049874e-05
2.02667632e-05
1.97866034e-05
1.96994905e-05
1.98979729e-05
2.02780371e-05
1.97909132e-05
1.97104596e-05
1.98747774e-05
2.02856914e-05
1.98678576e-05
1.95356554e-05
1.95747594e-05
1.98944454e-05
2.02803973e-05
1.98917943e-05
1.956554e-05
1.96026446e-05
1.99064914e-05
2.02829204e-05
1.99040327e-05
1.95753688e-05
1.96105475e-05
1.99125358e-05
2.02854739e-05
1.99094773e-05
1.95834046e-05
1.96197926e-05
1.99109026e-05
2.02884742e-05
1.99242816e-05
1.95866594e-05
1.96194336e-05
1.99108968e-05
2.02906323e-05
1.99280471e-05
1.95793176e-05
1.9610146e-05
)
;

boundaryField
{
    closed
    {
        type            calculated;
        value           nonuniform List<scalar> 0();
    }
    open
    {
        type            calculated;
        value           nonuniform List<scalar> 0();
    }
    sides
    {
        type            empty;
    }
    procBoundary2to1
    {
        type            processor;
        value           uniform 1.99712519e-05;
    }
    procBoundary2to3
    {
        type            processor;
        value           uniform 1.99121504e-05;
    }
}


// ************************************************************************* //
