/*--------------------------------*- C++ -*----------------------------------*\
| =========                 |                                                 |
| \\      /  F ield         | OpenFOAM: The Open Source CFD Toolbox           |
|  \\    /   O peration     | Version:  2306                                  |
|   \\  /    A nd           | Website:  www.openfoam.com                      |
|    \\/     M anipulation  |                                                 |
\*---------------------------------------------------------------------------*/
FoamFile
{
    version     2.0;
    format      ascii;
    arch        "LSB;label=32;scalar=64";
    class       volScalarField;
    location    "0.001";
    object      prefDZ_H2O;
}
// * * * * * * * * * * * * * * * * * * * * * * * * * * * * * * * * * * * * * //

dimensions      [1 -1 -1 0 0 0 0];

internalField   nonuniform List<scalar> 
530
(
-7.75485752e-07
-7.58566373e-07
-7.37701992e-07
-7.37536726e-07
-7.71710277e-07
-7.75389836e-07
-7.54407798e-07
-7.35951388e-07
-7.35967033e-07
-7.7099043e-07
-7.75275285e-07
-7.56799982e-07
-7.38117229e-07
-7.38434522e-07
-7.79436176e-07
-7.75662719e-07
-7.50055062e-07
-7.35863334e-07
-7.34711735e-07
-7.40903588e-07
-7.79427132e-07
-7.75440364e-07
-7.75608658e-07
-7.76379451e-07
-7.47857623e-07
-7.35720065e-07
-7.36711766e-07
-7.78523816e-07
-7.76446722e-07
-7.48917724e-07
-7.35931257e-07
-7.35093287e-07
-7.37384681e-07
-7.78071138e-07
-7.76763947e-07
-7.47202142e-07
-7.36098237e-07
-7.37985516e-07
-7.77481773e-07
-7.77348731e-07
-7.44836791e-07
-7.3580816e-07
-7.38467101e-07
-7.76518892e-07
-7.75298948e-07
-7.75563838e-07
-7.78586456e-07
-7.43679071e-07
-7.34948794e-07
-7.35065677e-07
-7.40162335e-07
-7.76676955e-07
-7.78953485e-07
-7.42434861e-07
-7.34818391e-07
-7.34935491e-07
-7.40419766e-07
-7.77191655e-07
-7.784777e-07
-7.45729162e-07
-7.36346468e-07
-7.4361811e-07
-7.76431848e-07
-7.77489597e-07
-7.49022525e-07
-7.39129328e-07
-7.54337016e-07
-7.79879137e-07
-7.44927125e-07
-7.34268087e-07
-7.440554e-07
-7.76263903e-07
-7.78223864e-07
-7.47225529e-07
-7.39208039e-07
-7.56993434e-07
-7.7498226e-07
-7.42723792e-07
-7.44704233e-07
-7.78547065e-07
-7.7327387e-07
-7.36104102e-07
-7.35037011e-07
-7.50705986e-07
-7.77367967e-07
-7.63980044e-07
-7.3970595e-07
-7.46453862e-07
-7.7894482e-07
-7.72250902e-07
-7.36347141e-07
-7.35535912e-07
-7.51077351e-07
-7.77922064e-07
-7.63839036e-07
-7.39908056e-07
-7.468402e-07
-7.79536315e-07
-7.66283248e-07
-7.4031622e-07
-7.47227867e-07
-7.79230509e-07
-7.71144224e-07
-7.36677209e-07
-7.36438825e-07
-7.53035156e-07
-7.77908059e-07
-7.68514266e-07
-7.37213305e-07
-7.37118728e-07
-7.54182291e-07
-7.77853226e-07
-7.68302941e-07
-7.37131546e-07
-7.37095025e-07
-7.53438657e-07
-7.78101305e-07
-7.6432518e-07
-7.41649735e-07
-7.49491866e-07
-7.7927078e-07
-7.70042042e-07
-7.37059941e-07
-7.37018398e-07
-7.53663979e-07
-7.78052505e-07
-7.69515583e-07
-7.37473992e-07
-7.37449029e-07
-7.54374105e-07
-7.77756364e-07
-7.70437007e-07
-7.37499881e-07
-7.37407581e-07
-7.53761327e-07
-7.77788049e-07
-7.70936977e-07
-7.37461551e-07
-7.37120876e-07
-7.52307599e-07
-7.77924401e-07
-7.68369738e-07
-7.41701383e-07
-7.47332072e-07
-7.79362573e-07
-7.72720775e-07
-7.37482601e-07
-7.369271e-07
-7.51640684e-07
-7.77798199e-07
-7.72860404e-07
-7.37625449e-07
-7.36935793e-07
-7.51516252e-07
-7.7775059e-07
-7.68959838e-07
-7.4090184e-07
-7.45833191e-07
-7.78767642e-07
-7.75323969e-07
-7.37778623e-07
-7.36514455e-07
-7.49095156e-07
-7.77648841e-07
-7.75841066e-07
-7.37685855e-07
-7.37333087e-07
-7.59613057e-07
-7.77868868e-07
-7.55187289e-07
-7.39050241e-07
-7.47027788e-07
-7.76771046e-07
-7.79773032e-07
-7.38482544e-07
-7.36641784e-07
-7.4866269e-07
-7.763517e-07
-7.79971063e-07
-7.38791445e-07
-7.37525932e-07
-7.53247039e-07
-7.75341767e-07
-7.79814756e-07
-7.38872203e-07
-7.363745e-07
-7.3707106e-07
-7.37007987e-07
-7.42856346e-07
-7.76855439e-07
-7.7783651e-07
-7.43253076e-07
-7.40988391e-07
-7.73067665e-07
-7.77192207e-07
-7.46730757e-07
-7.38558886e-07
-7.60409774e-07
-7.77398015e-07
-7.50246458e-07
-7.34318387e-07
-7.37731408e-07
-7.78371579e-07
-7.7905624e-07
-7.39188957e-07
-7.38352522e-07
-7.78419222e-07
-7.78464582e-07
-7.389203e-07
-7.40561893e-07
-7.76030482e-07
-7.78871849e-07
-7.38253379e-07
-7.33862984e-07
-7.39842194e-07
-7.76360926e-07
-7.7731389e-07
-7.38048735e-07
-7.39523486e-07
-7.760751e-07
-7.77054699e-07
-7.376652e-07
-7.40047504e-07
-7.75309804e-07
-7.78109131e-07
-7.38121266e-07
-7.34094029e-07
-7.38938212e-07
-7.75160456e-07
-7.79586965e-07
-7.37774387e-07
-7.38597819e-07
-7.75787956e-07
-7.79577823e-07
-7.37874848e-07
-7.38976384e-07
-7.75659852e-07
-7.76983308e-07
-7.40111449e-07
-7.34486833e-07
-7.3776784e-07
-7.75212278e-07
-7.77610799e-07
-7.38772336e-07
-7.38738545e-07
-7.75850628e-07
-7.7614202e-07
-7.42507153e-07
-7.34820412e-07
-7.3768295e-07
-7.75506191e-07
-7.75771068e-07
-7.44050229e-07
-7.34812965e-07
-7.36744349e-07
-7.75363932e-07
-7.74986133e-07
-7.40355622e-07
-7.38422215e-07
-7.76960661e-07
-7.74786691e-07
-7.46534219e-07
-7.35355548e-07
-7.36840224e-07
-7.76611059e-07
-7.7477203e-07
-7.49382442e-07
-7.35539679e-07
-7.36375879e-07
-7.77744022e-07
-7.74844239e-07
-7.51158664e-07
-7.35792108e-07
-7.35980163e-07
-7.7908135e-07
-7.74977045e-07
-7.52912355e-07
-7.35973393e-07
-7.35793134e-07
-7.77807822e-07
-7.75233481e-07
-7.54791185e-07
-7.36314528e-07
-7.35716164e-07
-7.71484156e-07
-7.75617799e-07
-7.4968163e-07
-7.39377782e-07
-7.64020498e-07
-7.76162447e-07
-7.59481264e-07
-7.37270959e-07
-7.36198761e-07
-7.6228141e-07
-7.7642725e-07
-7.63834622e-07
-7.37923256e-07
-7.363574e-07
-7.5726454e-07
-7.77134337e-07
-7.67516853e-07
-7.38530348e-07
-7.36592653e-07
-7.52912995e-07
-7.77951001e-07
-7.71293505e-07
-7.39541413e-07
-7.36792837e-07
-7.49696644e-07
-7.78751604e-07
-7.74665368e-07
-7.40705631e-07
-7.36980093e-07
-7.4689175e-07
-7.79620886e-07
-7.77249313e-07
-7.41458811e-07
-7.36907382e-07
-7.44484843e-07
-7.78628418e-07
-7.78780594e-07
-7.4321217e-07
-7.36395574e-07
-7.38274854e-07
-7.68960872e-07
-7.75683373e-07
-7.77976735e-07
-7.4328487e-07
-7.36312242e-07
-7.39659362e-07
-7.74662978e-07
-7.78133324e-07
-7.45339341e-07
-7.36584865e-07
-7.39225554e-07
-7.740759e-07
-7.7860325e-07
-7.46302812e-07
-7.36802538e-07
-7.39122892e-07
-7.73334029e-07
-7.77425312e-07
-7.46771433e-07
-7.43871704e-07
-7.71683966e-07
-7.78346964e-07
-7.46892259e-07
-7.36957438e-07
-7.39206401e-07
-7.73442937e-07
-7.77944501e-07
-7.47639288e-07
-7.45081723e-07
-7.74133407e-07
-7.79716355e-07
-7.4591595e-07
-7.38045413e-07
-7.36919372e-07
-7.36254063e-07
-7.39288899e-07
-7.74823709e-07
-7.77668999e-07
-7.45139611e-07
-7.43846493e-07
-7.76777042e-07
-7.78828545e-07
-7.42534843e-07
-7.35475333e-07
-7.38922532e-07
-7.76152949e-07
-7.76481487e-07
-7.40684421e-07
-7.4123661e-07
-7.78835472e-07
-7.74362947e-07
-7.39262183e-07
-7.40653382e-07
-7.79648397e-07
-7.72559729e-07
-7.38624753e-07
-7.40624425e-07
-7.79907088e-07
-7.71075406e-07
-7.38276197e-07
-7.41190424e-07
-7.79428897e-07
-7.69722815e-07
-7.38250949e-07
-7.42179177e-07
-7.78901655e-07
-7.68649562e-07
-7.38324355e-07
-7.43343198e-07
-7.78542935e-07
-7.71036233e-07
-7.37360561e-07
-7.33614141e-07
-7.42353292e-07
-7.78272777e-07
-7.6679849e-07
-7.38088182e-07
-7.45007424e-07
-7.77310969e-07
-7.65123951e-07
-7.37776391e-07
-7.45923206e-07
-7.77078671e-07
-7.63186326e-07
-7.37917913e-07
-7.47180874e-07
-7.77159658e-07
-7.66264371e-07
-7.35962439e-07
-7.33847611e-07
-7.46799603e-07
-7.77571255e-07
-7.60820577e-07
-7.38122673e-07
-7.4998446e-07
-7.76952201e-07
-7.58675634e-07
-7.38226502e-07
-7.51576112e-07
-7.76804815e-07
-7.57453787e-07
-7.38723248e-07
-7.52952698e-07
-7.76548636e-07
-7.64638178e-07
-7.35348563e-07
-7.35389247e-07
-7.52723729e-07
-7.74899398e-07
-7.74905809e-07
-7.59107294e-07
-7.36491995e-07
-7.3621242e-07
-7.35466026e-07
-7.35854605e-07
-7.53400195e-07
-7.74477136e-07
-7.75409707e-07
-7.53240595e-07
-7.40794684e-07
-7.57699633e-07
-7.76091935e-07
-7.61808436e-07
-7.35399146e-07
-7.35913333e-07
-7.57645097e-07
-7.77146119e-07
-7.55384215e-07
-7.40426803e-07
-7.59261369e-07
-7.75936481e-07
-7.62017854e-07
-7.35970229e-07
-7.36719203e-07
-7.59337726e-07
-7.76204173e-07
-7.65307792e-07
-7.3635323e-07
-7.37115506e-07
-7.61135657e-07
-7.76186196e-07
-7.63916362e-07
-7.36384939e-07
-7.3721627e-07
-7.62412298e-07
-7.76239941e-07
-7.62247106e-07
-7.36231597e-07
-7.37075542e-07
-7.62788059e-07
-7.76335314e-07
-7.60547113e-07
-7.35982378e-07
-7.36780596e-07
-7.62453863e-07
-7.7645554e-07
-7.59046923e-07
-7.35466761e-07
-7.36177199e-07
-7.63041864e-07
-7.77003085e-07
-7.50513967e-07
-7.38667069e-07
-7.61035523e-07
-7.76103936e-07
-7.558624e-07
-7.34954196e-07
-7.35596867e-07
-7.61177706e-07
-7.76691648e-07
-7.50760655e-07
-7.38169531e-07
-7.6069635e-07
-7.7599111e-07
-7.51127699e-07
-7.38336499e-07
-7.5878621e-07
-7.75588764e-07
-7.58418502e-07
-7.35641507e-07
-7.36274409e-07
-7.60259456e-07
-7.75718529e-07
-7.6027385e-07
-7.36186913e-07
-7.36743497e-07
-7.61189645e-07
-7.75479476e-07
-7.61183588e-07
-7.36354815e-07
-7.36879289e-07
-7.61659342e-07
-7.75339737e-07
-7.61582695e-07
-7.36491705e-07
-7.37022412e-07
-7.61532462e-07
-7.75190774e-07
-7.62658678e-07
-7.36546501e-07
-7.37029298e-07
-7.61538342e-07
-7.75122394e-07
-7.62928922e-07
-7.36420694e-07
-7.3688249e-07
)
;

boundaryField
{
    closed
    {
        type            calculated;
        value           nonuniform List<scalar> 0();
    }
    open
    {
        type            calculated;
        value           nonuniform List<scalar> 0();
    }
    sides
    {
        type            empty;
    }
    procBoundary2to1
    {
        type            processor;
        value           uniform -7.65886448e-07;
    }
    procBoundary2to3
    {
        type            processor;
        value           uniform -7.61662088e-07;
    }
}


// ************************************************************************* //
