/*--------------------------------*- C++ -*----------------------------------*\
| =========                 |                                                 |
| \\      /  F ield         | OpenFOAM: The Open Source CFD Toolbox           |
|  \\    /   O peration     | Version:  2306                                  |
|   \\  /    A nd           | Website:  www.openfoam.com                      |
|    \\/     M anipulation  |                                                 |
\*---------------------------------------------------------------------------*/
FoamFile
{
    version     2.0;
    format      ascii;
    arch        "LSB;label=32;scalar=64";
    class       volScalarField;
    location    "0.00144";
    object      prefDZ_H2;
}
// * * * * * * * * * * * * * * * * * * * * * * * * * * * * * * * * * * * * * //

dimensions      [1 -1 -1 0 0 0 0];

internalField   nonuniform List<scalar> 
531
(
6.32835297e-05
6.20636043e-05
6.1121991e-05
6.16342711e-05
6.35872317e-05
6.36323176e-05
6.23240724e-05
6.2100531e-05
6.23060378e-05
6.22514785e-05
6.211981e-05
6.21477465e-05
6.36580848e-05
6.36383076e-05
6.22653464e-05
6.22970507e-05
6.36760661e-05
6.36042151e-05
6.22999316e-05
6.23211673e-05
6.16506555e-05
6.17255089e-05
6.36629273e-05
6.35373037e-05
6.22537064e-05
6.18692359e-05
6.19768231e-05
6.13625621e-05
6.22792927e-05
6.35123104e-05
6.2435656e-05
6.08077143e-05
6.10915921e-05
6.35883022e-05
6.35727318e-05
6.3603624e-05
6.35688598e-05
6.2285862e-05
6.19120103e-05
6.36619608e-05
6.35551205e-05
6.22676078e-05
6.18723104e-05
6.12996496e-05
6.13797264e-05
6.36308672e-05
6.35679793e-05
6.36105408e-05
6.21051087e-05
6.16967007e-05
6.36304135e-05
6.35686425e-05
6.17076724e-05
6.20368622e-05
6.36163397e-05
6.23373502e-05
6.17286381e-05
6.35305914e-05
6.35386634e-05
6.31512795e-05
6.21681582e-05
6.1618893e-05
6.16333626e-05
6.1681582e-05
6.35741719e-05
6.35608176e-05
6.35624462e-05
6.23200065e-05
6.15591845e-05
6.1867564e-05
6.36146961e-05
6.35675651e-05
6.22919926e-05
6.12104079e-05
6.20035773e-05
6.35739095e-05
6.22452455e-05
6.14147839e-05
6.36969956e-05
6.35423955e-05
6.22619755e-05
6.15699896e-05
6.21405093e-05
6.35899723e-05
6.35838773e-05
6.358555e-05
6.23608752e-05
6.18818136e-05
6.1436512e-05
6.17726421e-05
6.35706504e-05
6.36086677e-05
6.35438948e-05
6.22280328e-05
6.13635584e-05
6.20927155e-05
6.35644133e-05
6.36014505e-05
6.19840402e-05
6.10354029e-05
6.18299087e-05
6.35605916e-05
6.22633335e-05
6.13413732e-05
6.36805957e-05
6.35251457e-05
6.21637037e-05
6.15004687e-05
6.24042549e-05
6.35196556e-05
6.35715552e-05
6.35047416e-05
6.191827e-05
6.14685532e-05
6.09181394e-05
6.09723376e-05
6.35233048e-05
6.34679475e-05
6.34955556e-05
6.3479174e-05
6.11173996e-05
6.11396472e-05
6.35538817e-05
6.34915144e-05
6.3570596e-05
6.35307694e-05
6.23446157e-05
6.15454024e-05
6.15109995e-05
6.23296983e-05
6.35379149e-05
6.23523825e-05
6.16262359e-05
6.11568448e-05
6.12524239e-05
6.34380439e-05
6.34981752e-05
6.33926284e-05
6.13225357e-05
6.11171935e-05
6.35727245e-05
6.34837181e-05
6.35701613e-05
6.35243082e-05
6.23509264e-05
6.16408548e-05
6.13452262e-05
6.13864387e-05
6.34716943e-05
6.35151288e-05
6.29803024e-05
6.19547852e-05
6.04890294e-05
6.11746235e-05
6.35159938e-05
6.35313478e-05
6.35395075e-05
6.35307778e-05
6.23365986e-05
6.16072796e-05
6.17789469e-05
6.13933324e-05
6.23419145e-05
6.35526932e-05
6.36116142e-05
6.35836954e-05
6.35829542e-05
6.22951478e-05
6.15704514e-05
6.18239411e-05
6.12370275e-05
6.22418653e-05
6.35380115e-05
6.36543051e-05
6.35394154e-05
6.36244074e-05
6.22105119e-05
6.15091317e-05
6.08932572e-05
6.09868952e-05
6.35568205e-05
6.35373462e-05
6.35305293e-05
6.35484214e-05
6.23740437e-05
6.14290561e-05
6.14975303e-05
6.13891134e-05
6.35590045e-05
6.35624344e-05
6.22879727e-05
6.17698971e-05
6.36020313e-05
6.35612143e-05
6.20030606e-05
6.17014067e-05
6.36001551e-05
6.35503223e-05
6.2293641e-05
6.15665851e-05
6.17744473e-05
6.35694765e-05
6.35638082e-05
6.36005071e-05
6.35626171e-05
6.22988887e-05
6.17473758e-05
6.23000443e-05
6.18147979e-05
6.18430625e-05
6.3582554e-05
6.35951039e-05
6.19071211e-05
6.1846837e-05
6.35391348e-05
6.3531688e-05
6.23768768e-05
6.19784094e-05
6.19886944e-05
6.12532827e-05
6.12531751e-05
6.34911352e-05
6.3516668e-05
6.35363835e-05
6.3545168e-05
6.21922122e-05
6.07094086e-05
6.11035814e-05
6.34877238e-05
6.35659624e-05
6.3524992e-05
6.23131432e-05
6.13689011e-05
6.22937427e-05
6.35299975e-05
6.19833853e-05
6.13555987e-05
6.35164956e-05
6.35294368e-05
6.35268785e-05
6.23513331e-05
6.1519268e-05
6.11225127e-05
6.11452066e-05
6.34800219e-05
6.35044301e-05
6.35404237e-05
6.35135196e-05
6.23219433e-05
6.16905183e-05
6.13501132e-05
6.13729832e-05
6.34820244e-05
6.3512945e-05
6.35398332e-05
6.23464008e-05
6.17380876e-05
6.34761096e-05
6.35858575e-05
6.3579916e-05
6.22793915e-05
6.15570547e-05
6.22904036e-05
6.23337274e-05
6.20509353e-05
6.20856041e-05
6.35126534e-05
6.36093516e-05
6.17543069e-05
6.16739156e-05
6.34451222e-05
6.35735094e-05
6.16401977e-05
6.15759356e-05
6.33600485e-05
6.35084011e-05
6.35060124e-05
6.18088071e-05
6.16316706e-05
6.34943553e-05
6.35756568e-05
6.35702933e-05
6.22651279e-05
6.18040805e-05
6.21631898e-05
6.23094339e-05
6.18827848e-05
6.18858963e-05
6.35551279e-05
6.36054569e-05
6.23013259e-05
6.20893639e-05
6.35277784e-05
6.35676238e-05
6.2465887e-05
6.20088181e-05
6.19507346e-05
6.0968293e-05
6.09657354e-05
6.34358927e-05
6.34888208e-05
6.34901811e-05
6.34904582e-05
6.24376932e-05
6.13372735e-05
6.18071662e-05
6.34910631e-05
6.23255572e-05
6.15098165e-05
6.3504668e-05
6.35481632e-05
6.24104239e-05
6.20368679e-05
6.15555657e-05
6.1553243e-05
6.34644621e-05
6.35330041e-05
6.24438544e-05
6.17091946e-05
6.23038078e-05
6.35405493e-05
6.22265117e-05
6.13674878e-05
6.35069493e-05
6.35868018e-05
6.35528694e-05
6.22795399e-05
6.15093502e-05
6.25148524e-05
6.35036796e-05
6.22611495e-05
6.12803145e-05
6.20172911e-05
6.34981616e-05
6.36433471e-05
6.23427583e-05
6.16853241e-05
6.35925326e-05
6.35857259e-05
6.22642874e-05
6.1301501e-05
6.22536461e-05
6.34725164e-05
6.36576884e-05
6.24048198e-05
6.18259753e-05
6.34116326e-05
6.35966289e-05
6.15867892e-05
6.14728715e-05
6.33473929e-05
6.35574715e-05
6.34250427e-05
6.23372039e-05
6.09766882e-05
6.13428907e-05
6.34483371e-05
6.34946501e-05
6.23528206e-05
6.09864892e-05
6.11688327e-05
6.34143003e-05
6.35229793e-05
6.24462786e-05
6.18148269e-05
6.34276675e-05
6.35521168e-05
6.17496117e-05
6.15811189e-05
6.33820437e-05
6.34335123e-05
6.14483128e-05
6.18139696e-05
6.34644309e-05
6.23117291e-05
6.14015821e-05
6.35403573e-05
6.35242318e-05
6.23251151e-05
6.13959451e-05
6.14350858e-05
6.35079297e-05
6.35432792e-05
6.35371197e-05
6.23446651e-05
6.22647316e-05
6.35065978e-05
6.35564654e-05
6.23883436e-05
6.23625905e-05
6.13180184e-05
6.13231755e-05
6.3454819e-05
6.34779146e-05
6.23819564e-05
6.09350292e-05
6.09547721e-05
6.3447127e-05
6.34732392e-05
6.23860643e-05
6.07633867e-05
6.07755626e-05
6.34895441e-05
6.34800914e-05
6.23320365e-05
6.11327147e-05
6.1247283e-05
6.34480966e-05
6.35369316e-05
6.34798764e-05
6.35676101e-05
6.23607221e-05
6.20019073e-05
6.35068132e-05
6.36108355e-05
6.23058793e-05
6.17210342e-05
6.35166447e-05
6.36178446e-05
6.23899002e-05
6.19216855e-05
6.1410932e-05
6.15274169e-05
6.35238625e-05
6.36052236e-05
6.23426455e-05
6.17105166e-05
6.35421045e-05
6.36297682e-05
6.23657371e-05
6.1871447e-05
6.14040942e-05
6.1568683e-05
6.3520944e-05
6.35794034e-05
6.23528858e-05
6.17781359e-05
6.3526253e-05
6.35993456e-05
6.24415925e-05
6.18868777e-05
6.13770663e-05
6.22823765e-05
6.34781433e-05
6.23036095e-05
6.15420571e-05
6.35097019e-05
6.35134049e-05
6.25765141e-05
6.17601892e-05
6.1389741e-05
6.23574258e-05
6.34840544e-05
6.23351736e-05
6.1642967e-05
6.35020643e-05
6.35493113e-05
6.25762369e-05
6.20934247e-05
6.13899349e-05
6.23004361e-05
6.34755571e-05
6.22973643e-05
6.16341385e-05
6.35395414e-05
6.35182602e-05
6.35097554e-05
6.23747807e-05
6.16600266e-05
6.35197521e-05
6.35341027e-05
6.21678279e-05
6.18223888e-05
6.35625749e-05
6.35309898e-05
6.23206521e-05
6.20805273e-05
6.19372257e-05
6.12396868e-05
6.13667663e-05
6.35253962e-05
6.35771519e-05
6.22914722e-05
6.17616554e-05
6.35697456e-05
6.35530023e-05
6.35442947e-05
6.21573244e-05
6.15818338e-05
6.35239253e-05
6.35410838e-05
6.20815653e-05
6.16344309e-05
6.35354064e-05
6.35659142e-05
6.23960914e-05
6.20513923e-05
6.13954655e-05
6.20582678e-05
6.34948121e-05
6.2366147e-05
6.14112889e-05
6.25403008e-05
6.3505047e-05
6.22599308e-05
6.16657031e-05
6.24842739e-05
6.35127968e-05
6.35938172e-05
6.23524048e-05
6.15883318e-05
6.35925556e-05
6.35751857e-05
6.23534881e-05
6.17868634e-05
6.12770561e-05
6.1395369e-05
6.35358874e-05
6.3569876e-05
6.23458734e-05
6.16594509e-05
6.36503915e-05
6.35802452e-05
6.22803434e-05
6.16322005e-05
6.23563653e-05
6.35331031e-05
6.36299972e-05
6.23529831e-05
6.18324942e-05
6.3593257e-05
)
;

boundaryField
{
    closed
    {
        type            calculated;
        value           nonuniform List<scalar> 0();
    }
    open
    {
        type            calculated;
        value           nonuniform List<scalar> 0();
    }
    sides
    {
        type            empty;
    }
    procBoundary3to2
    {
        type            processor;
        value           uniform 6.35719541e-05;
    }
    procBoundary3to4
    {
        type            processor;
        value           uniform 6.35618696e-05;
    }
}


// ************************************************************************* //
