/*--------------------------------*- C++ -*----------------------------------*\
| =========                 |                                                 |
| \\      /  F ield         | OpenFOAM: The Open Source CFD Toolbox           |
|  \\    /   O peration     | Version:  2306                                  |
|   \\  /    A nd           | Website:  www.openfoam.com                      |
|    \\/     M anipulation  |                                                 |
\*---------------------------------------------------------------------------*/
FoamFile
{
    version     2.0;
    format      ascii;
    arch        "LSB;label=32;scalar=64";
    class       volScalarField;
    location    "0.00048";
    object      prefDZ_H2;
}
// * * * * * * * * * * * * * * * * * * * * * * * * * * * * * * * * * * * * * //

dimensions      [1 -1 -1 0 0 0 0];

internalField   nonuniform List<scalar> 
531
(
6.22857301e-05
6.19309404e-05
6.22808319e-05
6.35415648e-05
6.29008561e-05
6.20237784e-05
6.22988695e-05
6.35845405e-05
6.35073182e-05
6.23096791e-05
6.23105536e-05
6.23246235e-05
6.21708302e-05
6.23240817e-05
6.35728989e-05
6.31497817e-05
6.22118642e-05
6.2350964e-05
6.35885948e-05
6.34055991e-05
6.21357447e-05
6.13341578e-05
6.22795955e-05
6.34918167e-05
6.29429076e-05
6.19831092e-05
6.23206646e-05
6.35286599e-05
6.29002587e-05
6.19781292e-05
6.23617861e-05
6.3554748e-05
6.34219233e-05
6.21413068e-05
6.13790163e-05
6.22965375e-05
6.35018305e-05
6.2984702e-05
6.20131635e-05
6.23691079e-05
6.35715458e-05
6.34580894e-05
6.21790116e-05
6.14011681e-05
6.22939218e-05
6.35014537e-05
6.28877606e-05
6.19205009e-05
6.23256084e-05
6.35450734e-05
6.28952226e-05
6.18984226e-05
6.23722526e-05
6.35777808e-05
6.34969586e-05
6.21503621e-05
6.1335137e-05
6.22875069e-05
6.35090916e-05
6.28128765e-05
6.18623342e-05
6.23130909e-05
6.35518817e-05
6.28599033e-05
6.18549755e-05
6.23625296e-05
6.35887736e-05
6.35477154e-05
6.21381243e-05
6.13351233e-05
6.22774009e-05
6.3517379e-05
6.26385268e-05
6.18489377e-05
6.22917465e-05
6.35547003e-05
6.2838777e-05
6.18866232e-05
6.23462644e-05
6.35859252e-05
6.35882985e-05
6.22087975e-05
6.14391362e-05
6.2308961e-05
6.35257917e-05
6.32675348e-05
6.19712696e-05
6.23411092e-05
6.35838307e-05
6.35876064e-05
6.22730533e-05
6.14592023e-05
6.23268389e-05
6.35091864e-05
6.34501154e-05
6.20492551e-05
6.23094581e-05
6.35751034e-05
6.35904986e-05
6.22965728e-05
6.15439268e-05
6.23084435e-05
6.35288343e-05
6.36000384e-05
6.22974027e-05
6.15489274e-05
6.23060797e-05
6.35319613e-05
6.3605543e-05
6.22945807e-05
6.15461559e-05
6.23057568e-05
6.3528613e-05
6.36045302e-05
6.22988102e-05
6.15074295e-05
6.23395764e-05
6.35016352e-05
6.35790969e-05
6.21253834e-05
6.22170446e-05
6.35608618e-05
6.35979636e-05
6.22864441e-05
6.14069783e-05
6.23459627e-05
6.34974748e-05
6.35884501e-05
6.21491272e-05
6.222599e-05
6.35687909e-05
6.36114863e-05
6.22711137e-05
6.15464018e-05
6.22773237e-05
6.35398808e-05
6.36660584e-05
6.22921846e-05
6.21926822e-05
6.22249514e-05
6.20451611e-05
6.23495567e-05
6.35633017e-05
6.29125058e-05
6.1958144e-05
6.23537085e-05
6.3557683e-05
6.35088093e-05
6.19313334e-05
6.20702729e-05
6.35900192e-05
6.35890244e-05
6.22801562e-05
6.13981141e-05
6.23404352e-05
6.35028894e-05
6.35781837e-05
6.20296743e-05
6.20958807e-05
6.35735988e-05
6.3582064e-05
6.22786911e-05
6.13987423e-05
6.23459226e-05
6.3494504e-05
6.35628218e-05
6.20572899e-05
6.21031801e-05
6.3558212e-05
6.35883728e-05
6.22751675e-05
6.15166494e-05
6.23168382e-05
6.35218744e-05
6.36149755e-05
6.22883638e-05
6.15366247e-05
6.22928663e-05
6.35207327e-05
6.36084358e-05
6.22799192e-05
6.14459672e-05
6.23414157e-05
6.34635156e-05
6.3394812e-05
6.19531308e-05
6.21611049e-05
6.34782116e-05
6.34733891e-05
6.19629238e-05
6.1986099e-05
6.34520491e-05
6.35706311e-05
6.22589383e-05
6.14071511e-05
6.22554137e-05
6.34341763e-05
6.26097679e-05
6.18286493e-05
6.22856766e-05
6.34416347e-05
6.30803483e-05
6.19039014e-05
6.19183102e-05
6.33929946e-05
6.35853072e-05
6.22792528e-05
6.14715881e-05
6.20772406e-05
6.33684495e-05
6.35449155e-05
6.23024176e-05
6.19951606e-05
6.31940371e-05
6.35727209e-05
6.22929578e-05
6.16043187e-05
6.21778419e-05
6.33161377e-05
6.35073289e-05
6.22875093e-05
6.21355479e-05
6.30490578e-05
6.3553103e-05
6.23764542e-05
6.17505577e-05
6.18159721e-05
6.32166012e-05
6.3535811e-05
6.22809856e-05
6.20971042e-05
6.19943342e-05
6.2021979e-05
6.31431275e-05
6.35648537e-05
6.25199795e-05
6.20615742e-05
6.19484843e-05
6.28404298e-05
6.35428016e-05
6.2404637e-05
6.18618349e-05
6.22313997e-05
6.29872928e-05
6.22941229e-05
6.21517151e-05
6.24078858e-05
6.34063577e-05
6.23308588e-05
6.19120554e-05
6.23116054e-05
6.33399598e-05
6.23249165e-05
6.21117254e-05
6.23377797e-05
6.33825337e-05
6.27089466e-05
6.21301874e-05
6.17933532e-05
6.24128634e-05
6.34324619e-05
6.2768806e-05
6.21479038e-05
6.18411482e-05
6.24937806e-05
6.3391435e-05
6.23363107e-05
6.20684874e-05
6.2284633e-05
6.33672905e-05
6.28629452e-05
6.22145797e-05
6.18352238e-05
6.24299843e-05
6.3404806e-05
6.23834123e-05
6.21041193e-05
6.2272375e-05
6.33703712e-05
6.29738074e-05
6.22893675e-05
6.18065778e-05
6.22947677e-05
6.34025481e-05
6.29442055e-05
6.22790171e-05
6.17302342e-05
6.22907656e-05
6.33904551e-05
6.29022755e-05
6.22045474e-05
6.16701479e-05
6.22987575e-05
6.33818661e-05
6.26699924e-05
6.18503297e-05
6.22607829e-05
6.32443776e-05
6.25837215e-05
6.21582273e-05
6.22612114e-05
6.33901111e-05
6.29953109e-05
6.23189809e-05
6.17877473e-05
6.23120356e-05
6.34450021e-05
6.29354465e-05
6.21847979e-05
6.17408417e-05
6.2410848e-05
6.34926346e-05
6.24077912e-05
6.19596325e-05
6.22628193e-05
6.3455446e-05
6.29330101e-05
6.21360281e-05
6.17331583e-05
6.24402216e-05
6.35257699e-05
6.24016891e-05
6.19591678e-05
6.22795482e-05
6.35031835e-05
6.306675e-05
6.22031603e-05
6.16747763e-05
6.23244003e-05
6.35196523e-05
6.29990093e-05
6.21836431e-05
6.16923354e-05
6.23476533e-05
6.35174619e-05
6.28624554e-05
6.19747764e-05
6.15231438e-05
6.23365677e-05
6.34755175e-05
6.28090946e-05
6.18242135e-05
6.21424482e-05
6.34021493e-05
6.25764001e-05
6.19844017e-05
6.22981283e-05
6.35467323e-05
6.31302819e-05
6.21473048e-05
6.17002688e-05
6.23645568e-05
6.35253428e-05
6.29376455e-05
6.20057378e-05
6.1660149e-05
6.24814791e-05
6.35390013e-05
6.2359046e-05
6.18939867e-05
6.23055653e-05
6.35491193e-05
6.31050057e-05
6.20485754e-05
6.1592487e-05
6.23943467e-05
6.35459262e-05
6.24036869e-05
6.19416492e-05
6.23095947e-05
6.36085991e-05
6.29670864e-05
6.23279941e-05
6.22873416e-05
6.21892023e-05
6.21749819e-05
6.25157163e-05
6.36121316e-05
6.34877864e-05
6.22911934e-05
6.16942464e-05
6.2331738e-05
6.35723425e-05
6.34302139e-05
6.20704744e-05
6.15001697e-05
6.23156239e-05
6.35623089e-05
6.34278939e-05
6.20506011e-05
6.1475022e-05
6.23129675e-05
6.35395248e-05
6.33708501e-05
6.19820702e-05
6.15681237e-05
6.25192224e-05
6.35362729e-05
6.23315216e-05
6.18010854e-05
6.22965149e-05
6.35372468e-05
6.32274244e-05
6.17849971e-05
6.16308667e-05
6.29003072e-05
6.3532584e-05
6.22847065e-05
6.17359577e-05
6.22991059e-05
6.35181617e-05
6.3496896e-05
6.18230271e-05
6.1606084e-05
6.29836921e-05
6.35228064e-05
6.22917202e-05
6.17566039e-05
6.23133417e-05
6.35175147e-05
6.35052201e-05
6.1864859e-05
6.14867123e-05
6.273899e-05
6.35047072e-05
6.22814676e-05
6.16278944e-05
6.22968131e-05
6.34962568e-05
6.32417671e-05
6.17955518e-05
6.18334002e-05
6.35551982e-05
6.36097495e-05
6.22981432e-05
6.22645891e-05
6.2513086e-05
6.23517598e-05
6.20295345e-05
6.22958658e-05
6.35368309e-05
6.35630279e-05
6.17695129e-05
6.15245921e-05
6.34079664e-05
6.35282465e-05
6.19403871e-05
6.17919695e-05
6.35494315e-05
6.35423942e-05
6.23012845e-05
6.16203957e-05
6.22827366e-05
6.35392498e-05
6.36298083e-05
6.21493461e-05
6.17040971e-05
6.26301506e-05
6.27881348e-05
6.21555441e-05
6.23218435e-05
6.3633641e-05
6.36301827e-05
6.22684259e-05
6.15887923e-05
6.22729163e-05
6.35355267e-05
6.36389337e-05
6.22670287e-05
6.17266141e-05
6.25889538e-05
6.2798798e-05
6.22255173e-05
6.23406468e-05
6.3616723e-05
6.36216193e-05
6.22655509e-05
6.16148989e-05
6.22967381e-05
6.3537374e-05
6.36035247e-05
6.22824971e-05
6.14865209e-05
6.23169789e-05
6.35075765e-05
6.22790555e-05
6.17594884e-05
6.26252746e-05
6.35136718e-05
6.23969018e-05
6.1723665e-05
6.22021501e-05
6.352935e-05
6.3600331e-05
6.22904517e-05
6.15588266e-05
6.21435393e-05
6.35172075e-05
6.36009822e-05
6.22906199e-05
6.15564033e-05
6.21230369e-05
6.35115081e-05
6.36013999e-05
6.22952175e-05
6.15969593e-05
6.21209421e-05
6.35094279e-05
6.36033135e-05
6.22997675e-05
6.16260998e-05
6.20997096e-05
6.35091307e-05
6.36053131e-05
6.23009815e-05
6.1617204e-05
6.20437628e-05
6.35101451e-05
6.36094409e-05
6.22946341e-05
6.15858913e-05
6.201463e-05
6.34985468e-05
6.36136199e-05
6.23308763e-05
6.17126331e-05
6.19919607e-05
6.35229682e-05
6.36020072e-05
6.22640915e-05
6.14640359e-05
)
;

boundaryField
{
    closed
    {
        type            calculated;
        value           nonuniform List<scalar> 0();
    }
    open
    {
        type            calculated;
        value           nonuniform List<scalar> 0();
    }
    sides
    {
        type            empty;
    }
    procBoundary1to0
    {
        type            processor;
        value           uniform 6.35203945e-05;
    }
    procBoundary1to2
    {
        type            processor;
        value           uniform 6.22497447e-05;
    }
}


// ************************************************************************* //
