/*--------------------------------*- C++ -*----------------------------------*\
| =========                 |                                                 |
| \\      /  F ield         | OpenFOAM: The Open Source CFD Toolbox           |
|  \\    /   O peration     | Version:  2306                                  |
|   \\  /    A nd           | Website:  www.openfoam.com                      |
|    \\/     M anipulation  |                                                 |
\*---------------------------------------------------------------------------*/
FoamFile
{
    version     2.0;
    format      ascii;
    arch        "LSB;label=32;scalar=64";
    class       volScalarField;
    location    "0.00048";
    object      rho;
}
// * * * * * * * * * * * * * * * * * * * * * * * * * * * * * * * * * * * * * //

dimensions      [1 -3 0 0 0 0 0];

internalField   nonuniform List<scalar> 
531
(
0.942704126
0.953078832
0.942287007
0.907642884
0.92268859
0.951080033
0.943822651
0.907049457
0.908383945
0.943641704
0.944587517
0.944181138
0.947924538
0.941241367
0.90773815
0.916277548
0.947016502
0.942906124
0.907299776
0.910511697
0.94878387
0.96760698
0.943972161
0.909034877
0.921877575
0.952349754
0.943386954
0.908287404
0.922967493
0.952368504
0.942699709
0.907760148
0.910028463
0.948377896
0.966240291
0.94318287
0.908595122
0.920375091
0.951271902
0.942300292
0.907263559
0.909217496
0.947287335
0.96554973
0.942930562
0.908498191
0.922972728
0.953399331
0.942848116
0.907722017
0.92279674
0.953945166
0.942476409
0.907205825
0.908583402
0.948022153
0.967170459
0.943038438
0.908470203
0.925134247
0.954833394
0.94300615
0.907698076
0.92381696
0.95499281
0.942769103
0.907038163
0.907697274
0.948283125
0.967141384
0.942680442
0.90826893
0.930028272
0.95505258
0.942811058
0.907543202
0.924250829
0.954055073
0.942824264
0.906848198
0.906718324
0.946280239
0.964326498
0.942603914
0.90774256
0.912245611
0.951713692
0.943012256
0.906555596
0.906466012
0.944502088
0.963623763
0.942346308
0.907903491
0.908459754
0.949790498
0.943719804
0.906722231
0.906492715
0.943677974
0.961728477
0.943018937
0.907685077
0.906383199
0.943602692
0.961702834
0.943240077
0.907726406
0.906389308
0.943764723
0.961895877
0.943362779
0.907938582
0.90655288
0.943746482
0.962933098
0.943085334
0.908546871
0.906749926
0.948497951
0.946409164
0.907509378
0.906880729
0.944529074
0.96548765
0.943392091
0.908801301
0.906780153
0.948118907
0.946361746
0.907525483
0.906789431
0.944692278
0.96229876
0.944332696
0.908099733
0.905763996
0.943011748
0.946997882
0.94616959
0.950352429
0.939242138
0.907440779
0.922001277
0.952127055
0.942796757
0.90714241
0.907510317
0.952508143
0.949241123
0.906328176
0.906372885
0.943628306
0.964831861
0.94261726
0.907753923
0.905985897
0.949841684
0.948273341
0.906252223
0.906146741
0.943200978
0.964441266
0.942174898
0.907549874
0.905943445
0.948871592
0.947789988
0.906226749
0.90580924
0.942465605
0.961417365
0.942549032
0.906796313
0.905198263
0.941794026
0.960795642
0.943000106
0.906623434
0.90512372
0.941915917
0.96271444
0.941421921
0.907457834
0.90820232
0.950615908
0.94570982
0.906931234
0.906668944
0.95010846
0.949514183
0.90697821
0.905062663
0.941284227
0.962703344
0.941198983
0.906988598
0.927976406
0.952416989
0.940189421
0.906418978
0.914229292
0.950005305
0.949486408
0.906356431
0.902999762
0.938226442
0.958959717
0.944517299
0.905592045
0.901949854
0.938245351
0.945098304
0.907934849
0.900468688
0.934369437
0.952673404
0.938926193
0.903356165
0.899369945
0.934551498
0.938297195
0.908360504
0.897451197
0.927468269
0.945503577
0.943562371
0.901826032
0.895288044
0.928977969
0.935574186
0.937600595
0.936619688
0.901769233
0.893411003
0.918883042
0.934713267
0.937190339
0.909138933
0.893038657
0.922077792
0.939105125
0.928438661
0.905297772
0.925796426
0.932913013
0.922406626
0.896101545
0.925503055
0.939541128
0.926647488
0.89831601
0.926889725
0.936260918
0.927155083
0.899268495
0.916741198
0.937221662
0.945440114
0.92652276
0.900162515
0.916779727
0.938584513
0.946118373
0.925793282
0.902193074
0.931397163
0.942128876
0.933869844
0.904064062
0.916929358
0.939817022
0.948987561
0.93035052
0.904383219
0.932244687
0.943674279
0.936758629
0.90618338
0.916003562
0.940082086
0.951817413
0.936984875
0.906732765
0.917929943
0.941614194
0.954769487
0.938323692
0.908082702
0.920233258
0.944517478
0.957283799
0.939120229
0.90917873
0.927779317
0.953764825
0.943870572
0.912361947
0.930847002
0.947151779
0.942078387
0.910160677
0.919685409
0.943809177
0.956437057
0.940409147
0.909709308
0.921760915
0.947341705
0.957857727
0.937233152
0.908844016
0.937383654
0.952831219
0.942680595
0.909746237
0.922085739
0.94870501
0.958191083
0.936400678
0.908350263
0.937599919
0.9527712
0.942045562
0.908739009
0.918138624
0.946782605
0.959162567
0.939978009
0.908194573
0.919661182
0.946889652
0.958391247
0.938769056
0.907875127
0.923120336
0.951457312
0.962002782
0.938781569
0.908381331
0.924322008
0.954726749
0.947188053
0.908875654
0.930821793
0.950786603
0.939995346
0.906684983
0.915123892
0.946782036
0.957265404
0.937371839
0.90698429
0.920237194
0.94996406
0.958054817
0.933300048
0.906469649
0.937242654
0.952469309
0.939423876
0.906289422
0.915447164
0.948744973
0.959429731
0.93590164
0.906189696
0.935548654
0.951155152
0.938890338
0.905035931
0.919077593
0.94169021
0.942988433
0.945257572
0.945565661
0.932008059
0.905080439
0.906893573
0.942655103
0.956734233
0.938055105
0.905507524
0.907497248
0.947704412
0.961042055
0.938581494
0.905428632
0.907307109
0.947925354
0.961379216
0.938540875
0.905621584
0.908092482
0.949314788
0.958980813
0.930947791
0.905378282
0.937016444
0.953381129
0.938771534
0.905309871
0.910947784
0.953656576
0.957247663
0.919790848
0.905217489
0.939448624
0.954757582
0.938832942
0.90560417
0.905522433
0.952749579
0.957842206
0.917546284
0.905471344
0.939933343
0.954377844
0.93839872
0.905763737
0.90553429
0.951878514
0.960739547
0.924439469
0.90590962
0.939908301
0.957467947
0.939338388
0.906212555
0.91068252
0.953541191
0.952663492
0.904875327
0.90393182
0.941731552
0.942520144
0.931172681
0.936695962
0.948021446
0.940076489
0.905414631
0.904518045
0.954083792
0.959788291
0.907130152
0.905267036
0.950010399
0.953441673
0.904611639
0.905074859
0.940295078
0.957292364
0.940177932
0.904965498
0.9031791
0.944704595
0.955090504
0.926964329
0.922409254
0.944355065
0.940060625
0.902802074
0.902875533
0.940790711
0.957462941
0.940253403
0.904514393
0.902584755
0.941505251
0.954169009
0.927828212
0.921812934
0.942446476
0.93972404
0.9028921
0.902959786
0.940120384
0.956751393
0.940338199
0.904330589
0.903289152
0.940146279
0.959751869
0.936591699
0.904783709
0.93857851
0.953406353
0.926737043
0.904959098
0.934026414
0.954285384
0.943083501
0.904505754
0.903481232
0.939128811
0.958202041
0.944523122
0.904743459
0.903510072
0.939132821
0.958295367
0.945027571
0.904843182
0.903516945
0.938720008
0.957310989
0.945021709
0.904799114
0.903408145
0.93826081
0.95650047
0.945372928
0.904624118
0.903197014
0.937903491
0.956495371
0.946460583
0.904341019
0.902866154
0.937793328
0.956973
0.946887514
0.904282492
0.902594255
0.935926108
0.953771216
0.947193693
0.903572453
0.902537235
0.938054534
0.959385266
)
;

boundaryField
{
    closed
    {
        type            calculated;
        value           nonuniform List<scalar> 0();
    }
    open
    {
        type            calculated;
        value           nonuniform List<scalar> 0();
    }
    sides
    {
        type            empty;
    }
    procBoundary1to0
    {
        type            processor;
        value           uniform 0.908074732;
    }
    procBoundary1to2
    {
        type            processor;
        value           uniform 0.940758176;
    }
}


// ************************************************************************* //
