/*--------------------------------*- C++ -*----------------------------------*\
| =========                 |                                                 |
| \\      /  F ield         | OpenFOAM: The Open Source CFD Toolbox           |
|  \\    /   O peration     | Version:  2306                                  |
|   \\  /    A nd           | Website:  www.openfoam.com                      |
|    \\/     M anipulation  |                                                 |
\*---------------------------------------------------------------------------*/
FoamFile
{
    version     2.0;
    format      ascii;
    arch        "LSB;label=32;scalar=64";
    class       volScalarField;
    location    "0.00148";
    object      H;
}
// * * * * * * * * * * * * * * * * * * * * * * * * * * * * * * * * * * * * * //

dimensions      [0 0 0 0 0 0 0];

internalField   nonuniform List<scalar> 
531
(
4.74883895e-08
4.40502035e-08
1.22141156e-09
1.18197552e-09
2.50079324e-08
4.79590182e-08
4.38049622e-08
1.19620574e-09
1.17598061e-09
2.57337991e-08
4.88031118e-08
4.4362515e-08
1.14602409e-09
1.16612739e-09
2.67739952e-08
4.99212352e-08
4.50784524e-08
8.57122706e-10
1.27898502e-09
3.66805647e-08
4.00613809e-08
1.03638675e-09
1.320497e-09
3.77020814e-08
3.95270249e-08
1.0669272e-09
1.22911408e-09
2.46204521e-08
4.86291386e-08
4.49328319e-08
7.88875571e-10
1.25351129e-09
2.68547377e-08
4.17662485e-08
4.53788763e-08
4.66700119e-08
1.50292559e-08
1.15616492e-09
1.17589942e-09
1.17151631e-09
1.17280147e-09
1.22080984e-09
1.42414668e-08
4.20815236e-08
4.66478662e-08
4.74212894e-08
1.84770332e-08
1.15107348e-09
2.07150386e-08
4.92543994e-08
4.77882191e-08
1.50474467e-08
1.27818997e-09
1.20256345e-09
2.17709971e-08
4.7350692e-08
4.54345971e-08
5.02378248e-09
1.29495688e-09
3.24225196e-08
3.84949422e-08
8.50011128e-10
1.31375245e-09
2.37511634e-08
4.21637603e-08
4.24135035e-08
4.64531959e-08
4.82707583e-08
2.01924654e-08
1.13564837e-09
1.2595337e-09
1.14844424e-09
1.19690472e-09
1.26036714e-08
4.70901244e-08
4.59476146e-08
8.00663824e-10
1.17534076e-09
2.31731626e-08
4.86686171e-08
4.52482523e-08
6.99419862e-10
1.17054948e-09
2.31679502e-08
4.86525938e-08
4.49252589e-08
9.17443992e-10
1.17818676e-09
2.2871548e-08
4.76702934e-08
4.42290333e-08
1.03446998e-09
1.19881048e-09
2.14267932e-08
4.58739137e-08
4.28537974e-08
1.13541475e-09
1.30730206e-09
2.32054732e-08
3.86070397e-08
4.67298571e-08
4.39908238e-08
6.28823938e-10
1.297412e-09
3.41830733e-08
3.8783655e-08
1.030691e-09
1.24603749e-09
2.33457894e-08
4.73626582e-08
4.46730753e-08
1.09149743e-09
1.18010844e-09
2.36057161e-08
4.80188967e-08
4.51129264e-08
1.11886112e-09
1.15921206e-09
2.3641736e-08
4.89257435e-08
4.27915142e-08
1.07336945e-09
1.3275798e-09
1.14517575e-09
2.34563082e-08
4.06118599e-08
4.68953099e-08
4.53986336e-08
3.61555895e-09
1.22759795e-09
3.49561782e-08
4.11434895e-08
9.48014827e-10
1.19050041e-09
2.48845488e-08
4.85425371e-08
4.52722777e-08
1.02425135e-09
1.15889053e-09
2.41277438e-08
4.74363427e-08
4.45898155e-08
1.09945015e-09
1.16738813e-09
2.33574806e-08
4.66570311e-08
4.37996182e-08
1.09248982e-09
1.19374509e-09
2.15196169e-08
4.46514933e-08
4.20617526e-08
1.086751e-09
1.21964246e-09
1.76458329e-08
4.42294838e-08
4.20133521e-08
1.10983779e-09
1.18008109e-09
2.39627938e-08
4.74531645e-08
4.45213624e-08
1.0709449e-09
1.15774645e-09
2.49145399e-08
4.73207775e-08
4.50816987e-08
1.08126721e-09
1.17073411e-09
3.6461328e-08
3.59736171e-08
1.20928449e-09
1.31260615e-09
2.56994152e-08
4.09779008e-08
4.5854439e-08
4.44179781e-08
1.0783542e-09
1.17249896e-09
2.51734853e-08
4.61837636e-08
4.21167767e-08
1.13845338e-09
1.2222559e-09
2.48129767e-08
4.63086894e-08
3.89324977e-08
1.08084077e-09
1.9201173e-08
4.06492072e-08
5.37122364e-09
1.36219858e-09
6.35966974e-09
3.3660839e-08
4.7346029e-08
3.74509005e-08
1.03029765e-09
1.91309604e-08
4.13465466e-08
7.18213521e-09
1.25145834e-09
2.61577655e-09
4.09477047e-08
4.8852991e-08
2.22854906e-08
1.10324767e-09
9.03471466e-10
4.2654043e-08
4.99258672e-08
2.1082046e-08
1.06997539e-09
5.02375741e-10
4.41230806e-08
4.96993418e-08
1.54592469e-08
1.11331007e-09
3.00931305e-08
4.11245128e-08
4.8086307e-09
1.20785776e-09
7.68377729e-09
4.20990685e-08
4.6897864e-08
1.675488e-08
1.08465588e-09
5.22071713e-09
4.46843967e-08
4.79420536e-08
1.30716732e-08
1.20682818e-09
1.5487705e-08
3.65554837e-08
4.81498197e-08
4.56454746e-08
6.37853276e-10
1.25625299e-09
9.37302497e-10
1.32750191e-09
1.2635728e-09
2.69492021e-08
4.32586755e-08
4.40686118e-08
4.53344064e-08
5.2058361e-08
4.4625355e-08
8.64144936e-10
1.2993631e-09
2.71438711e-08
4.12163641e-08
4.36352837e-10
1.20928643e-09
1.76043176e-08
4.47255255e-08
4.77956296e-08
1.9295806e-08
1.08687179e-09
3.0090455e-08
4.16139185e-08
5.71595299e-10
1.24207524e-09
3.13035583e-08
3.93114083e-08
1.15467689e-08
1.24023749e-09
1.03404073e-09
3.54061301e-08
4.58951268e-08
2.43353275e-08
1.08512793e-09
1.26025807e-09
2.43613929e-08
4.28240345e-08
4.15442852e-08
4.87503971e-08
4.82226251e-08
3.33246123e-09
1.20871685e-09
7.67940513e-10
1.28932931e-09
8.84405379e-10
3.14809345e-08
5.43877431e-08
5.36668007e-08
2.78297856e-09
1.06540999e-09
1.58182175e-08
4.67333956e-08
4.75444747e-08
8.78248277e-09
1.06429443e-09
1.00036888e-08
4.62774655e-08
4.74322302e-08
5.86682034e-09
1.15015804e-09
3.23760762e-08
4.09298467e-08
1.26130609e-09
1.1647384e-09
1.45319872e-08
4.66172685e-08
4.72272823e-08
3.11541353e-09
1.0941765e-09
1.60467783e-08
4.80602032e-08
4.82253643e-08
3.09917086e-09
1.16834208e-09
3.28970408e-08
4.1241731e-08
1.1306441e-09
1.16625691e-09
1.49584644e-08
4.64583422e-08
4.69825094e-08
2.55725446e-09
1.10420272e-09
1.55330206e-08
4.74956309e-08
4.78571706e-08
2.72097737e-09
1.10257035e-09
1.29097992e-08
4.64551686e-08
4.68192501e-08
1.92387277e-09
1.22844721e-09
3.20923296e-08
3.79986023e-08
4.76015104e-10
1.34985323e-09
2.04109161e-08
3.39574599e-08
4.79993962e-08
4.72948469e-08
1.05619274e-09
1.21716963e-09
3.47710631e-08
4.19727751e-08
6.03633559e-10
1.22552596e-09
3.55677293e-08
4.2422291e-08
2.88172379e-09
1.06694279e-09
9.50127454e-10
1.06285413e-09
3.23063081e-08
4.54027942e-08
5.24514398e-08
5.24337577e-08
3.9979179e-10
1.03408295e-09
2.53294573e-08
5.1454934e-08
5.09416324e-08
4.93933077e-10
1.17234945e-09
3.49085082e-08
4.23024771e-08
5.79264742e-10
1.24291278e-09
3.38930476e-08
4.1127484e-08
6.33971548e-10
1.18113648e-09
2.04469124e-08
4.77306233e-08
4.73399655e-08
5.8316583e-10
1.1950099e-09
3.41043203e-08
4.22704436e-08
6.32600952e-10
1.16589602e-09
2.13265603e-08
4.83797306e-08
4.79297148e-08
5.70184506e-10
1.18766188e-09
3.4244728e-08
4.29057262e-08
5.99668914e-10
1.15734195e-09
2.26034409e-08
4.90254703e-08
4.8552456e-08
5.07989094e-10
1.17393418e-09
3.42484469e-08
4.36086535e-08
5.39034862e-10
1.13861513e-09
2.36522765e-08
4.97463934e-08
4.91323534e-08
2.06823403e-09
1.18419649e-09
3.51533318e-08
4.32250211e-08
4.0360517e-10
1.24020376e-09
3.48954739e-08
4.17637677e-08
4.15796837e-10
1.23931036e-09
3.37170758e-08
4.18837773e-08
4.22385404e-10
1.16310452e-09
2.24515877e-08
4.81547443e-08
4.76573748e-08
4.17276362e-09
1.18171288e-09
3.35939375e-08
4.19704086e-08
1.41665717e-09
1.22208769e-09
3.37395049e-08
4.18993928e-08
1.62111657e-09
1.1687665e-09
1.79077031e-08
4.57419337e-08
4.56750852e-08
5.34951023e-09
1.18407575e-09
3.28983966e-08
4.07425475e-08
3.6652546e-09
1.19828251e-09
9.14409117e-09
4.24476401e-08
4.45007597e-08
3.48691584e-09
1.22612974e-09
2.21310107e-08
3.67945551e-08
4.70116697e-08
4.65141995e-08
1.4231282e-09
1.23108743e-09
2.35784599e-08
3.90004439e-08
4.38886008e-08
3.4394722e-08
8.6728472e-10
2.61970213e-08
4.29575934e-08
1.83546423e-09
1.22015097e-09
3.3618634e-08
4.22046854e-08
3.39909344e-09
1.18994146e-09
3.41593279e-08
4.38425372e-08
7.72863855e-09
1.10613989e-09
1.08080976e-09
1.14647661e-09
2.84574359e-08
4.50564678e-08
5.05708541e-08
5.0642303e-08
7.49853571e-09
1.06731993e-09
1.28747363e-08
4.50646363e-08
4.61498327e-08
5.39740895e-09
1.19313537e-09
3.26107266e-08
4.0203503e-08
1.33302476e-09
1.25656997e-09
3.25548985e-08
3.96194013e-08
1.84837966e-09
1.21534216e-09
1.44109993e-08
4.39672771e-08
4.54079657e-08
4.88421985e-09
1.16484012e-09
1.33885396e-08
4.47862853e-08
4.58551586e-08
3.12547424e-09
1.20139605e-09
2.03901183e-08
3.96969744e-08
3.94022804e-08
4.60564986e-08
4.56553212e-08
1.43666556e-09
1.18731574e-09
1.04558717e-09
1.19498325e-09
3.53240953e-08
4.86580538e-08
4.19688018e-09
1.14089579e-09
3.52444113e-08
4.40552364e-08
1.94452816e-09
1.15909155e-09
2.34817416e-08
4.67343035e-08
4.62925266e-08
2.76375183e-09
1.16384474e-09
2.17503782e-08
4.66405671e-08
4.63912693e-08
2.29442166e-09
1.16790799e-09
2.01861465e-08
4.6193422e-08
4.61661346e-08
2.12493802e-09
1.14333561e-09
1.76494163e-08
4.67913293e-08
4.68197407e-08
5.93863792e-09
1.27307737e-09
9.56454095e-10
3.42605904e-08
)
;

boundaryField
{
    closed
    {
        type            calculated;
        value           nonuniform List<scalar> 0();
    }
    open
    {
        type            calculated;
        value           nonuniform List<scalar> 0();
    }
    sides
    {
        type            empty;
    }
    procBoundary3to2
    {
        type            processor;
        value           uniform 2.47592949e-08;
    }
    procBoundary3to4
    {
        type            processor;
        value           uniform 4.68250053e-08;
    }
}


// ************************************************************************* //
