/*--------------------------------*- C++ -*----------------------------------*\
| =========                 |                                                 |
| \\      /  F ield         | OpenFOAM: The Open Source CFD Toolbox           |
|  \\    /   O peration     | Version:  2306                                  |
|   \\  /    A nd           | Website:  www.openfoam.com                      |
|    \\/     M anipulation  |                                                 |
\*---------------------------------------------------------------------------*/
FoamFile
{
    version     2.0;
    format      ascii;
    arch        "LSB;label=32;scalar=64";
    class       volScalarField;
    location    "0.00148";
    object      prefDZ_H2;
}
// * * * * * * * * * * * * * * * * * * * * * * * * * * * * * * * * * * * * * //

dimensions      [1 -1 -1 0 0 0 0];

internalField   nonuniform List<scalar> 
531
(
6.14479303e-05
6.17068111e-05
6.36211917e-05
6.35243073e-05
6.23251694e-05
6.14140684e-05
6.17243343e-05
6.36266401e-05
6.35232252e-05
6.23201314e-05
6.13511319e-05
6.16808161e-05
6.36295542e-05
6.35229147e-05
6.23092823e-05
6.12703597e-05
6.16143946e-05
6.35151661e-05
6.3610611e-05
6.22888627e-05
6.19800715e-05
6.35752665e-05
6.36193216e-05
6.22015698e-05
6.202717e-05
6.3617279e-05
6.35389917e-05
6.2331141e-05
6.13707695e-05
6.16278247e-05
6.35086806e-05
6.35752689e-05
6.23402151e-05
6.18724446e-05
6.16008016e-05
6.15065547e-05
6.25427701e-05
6.35505538e-05
6.35731306e-05
6.35620561e-05
6.35488967e-05
6.3558995e-05
6.25746513e-05
6.18480792e-05
6.1501284e-05
6.144952e-05
6.24253206e-05
6.35529464e-05
6.23731843e-05
6.13091529e-05
6.14117151e-05
6.25434434e-05
6.35878082e-05
6.35462002e-05
6.23616324e-05
6.14679203e-05
6.15866808e-05
6.30144323e-05
6.36012367e-05
6.24073151e-05
6.21007297e-05
6.35331019e-05
6.35816794e-05
6.23569829e-05
6.18376269e-05
6.18279463e-05
6.15139395e-05
6.13863549e-05
6.23786606e-05
6.35272428e-05
6.35979501e-05
6.35160338e-05
6.35265439e-05
6.26388027e-05
6.14907945e-05
6.15686081e-05
6.35110513e-05
6.35118881e-05
6.23687415e-05
6.13692697e-05
6.16179155e-05
6.34721405e-05
6.35103637e-05
6.23700725e-05
6.1368276e-05
6.16433062e-05
6.356241e-05
6.35115283e-05
6.23686341e-05
6.14421106e-05
6.16966581e-05
6.35980743e-05
6.35154506e-05
6.23836936e-05
6.15767814e-05
6.17914359e-05
6.36144279e-05
6.35789949e-05
6.23693284e-05
6.20926815e-05
6.15256321e-05
6.16946262e-05
6.34046004e-05
6.35970738e-05
6.24363942e-05
6.20885787e-05
6.36076049e-05
6.35423156e-05
6.23598367e-05
6.14620917e-05
6.16622874e-05
6.36201351e-05
6.35186681e-05
6.23579426e-05
6.14111364e-05
6.1631513e-05
6.3642916e-05
6.35116247e-05
6.23420203e-05
6.13412735e-05
6.17917869e-05
6.35989143e-05
6.35767747e-05
6.35133619e-05
6.23453789e-05
6.19664494e-05
6.14988388e-05
6.15979666e-05
6.31097609e-05
6.35721334e-05
6.24014924e-05
6.19195294e-05
6.35987045e-05
6.35240213e-05
6.23454418e-05
6.13744073e-05
6.16142216e-05
6.36045759e-05
6.35120295e-05
6.23525799e-05
6.14580856e-05
6.16673635e-05
6.36197519e-05
6.3509733e-05
6.2355534e-05
6.15182418e-05
6.17246536e-05
6.36100307e-05
6.35163039e-05
6.23828899e-05
6.16707094e-05
6.18545279e-05
6.35852412e-05
6.3519677e-05
6.24700548e-05
6.16992599e-05
6.18607079e-05
6.36207012e-05
6.35170386e-05
6.2344888e-05
6.14558691e-05
6.16669376e-05
6.36150776e-05
6.3518093e-05
6.23425647e-05
6.14689214e-05
6.16253214e-05
6.35936177e-05
6.35924429e-05
6.2280609e-05
6.22790642e-05
6.36080842e-05
6.3602215e-05
6.23392737e-05
6.19298523e-05
6.15769303e-05
6.16801024e-05
6.36154884e-05
6.35193877e-05
6.23263992e-05
6.15516285e-05
6.18411611e-05
6.36162948e-05
6.35592535e-05
6.23265345e-05
6.15412199e-05
6.20780901e-05
6.35773299e-05
6.24279894e-05
6.19494753e-05
6.30194262e-05
6.36157518e-05
6.29288315e-05
6.22755772e-05
6.14815918e-05
6.21721429e-05
6.35229315e-05
6.24274456e-05
6.19162984e-05
6.29118154e-05
6.35548319e-05
6.31372107e-05
6.19138822e-05
6.13610712e-05
6.2337076e-05
6.35034859e-05
6.34959717e-05
6.17993874e-05
6.12740507e-05
6.23617328e-05
6.34810354e-05
6.33000465e-05
6.16984851e-05
6.12899214e-05
6.2525191e-05
6.35091624e-05
6.23319845e-05
6.19369345e-05
6.30465705e-05
6.35225511e-05
6.28482332e-05
6.18455332e-05
6.15124414e-05
6.24798861e-05
6.34786747e-05
6.29898339e-05
6.16620082e-05
6.14204714e-05
6.26219904e-05
6.35637589e-05
6.2537918e-05
6.22374291e-05
6.14187381e-05
6.1585578e-05
6.34102604e-05
6.35651136e-05
6.34392156e-05
6.35979049e-05
6.35444828e-05
6.23012363e-05
6.17580873e-05
6.17011946e-05
6.15988618e-05
6.10976385e-05
6.16554954e-05
6.34764375e-05
6.3599038e-05
6.23775463e-05
6.19003478e-05
6.3399203e-05
6.35707065e-05
6.24788458e-05
6.16448555e-05
6.14247286e-05
6.23966854e-05
6.35328468e-05
6.23347058e-05
6.18861094e-05
6.33301645e-05
6.35607311e-05
6.23904081e-05
6.20615527e-05
6.26877048e-05
6.35459029e-05
6.35163421e-05
6.22830583e-05
6.15905567e-05
6.22850631e-05
6.34827878e-05
6.36027792e-05
6.23310507e-05
6.18111614e-05
6.18861374e-05
6.13677652e-05
6.13929003e-05
6.31200244e-05
6.35400049e-05
6.33156628e-05
6.35662626e-05
6.34059763e-05
6.22937922e-05
6.09098194e-05
6.09689431e-05
6.31859192e-05
6.34875374e-05
6.25309849e-05
6.15166691e-05
6.14526839e-05
6.28332681e-05
6.34643074e-05
6.27427563e-05
6.15547162e-05
6.14586115e-05
6.29966586e-05
6.35276087e-05
6.24102186e-05
6.19483749e-05
6.32708287e-05
6.350044e-05
6.25713992e-05
6.15275162e-05
6.14755281e-05
6.31742992e-05
6.34900509e-05
6.25222293e-05
6.14160941e-05
6.13920854e-05
6.31661669e-05
6.35451873e-05
6.2412908e-05
6.19224009e-05
6.32785532e-05
6.35012936e-05
6.25578152e-05
6.15409057e-05
6.14944917e-05
6.32024679e-05
6.34867621e-05
6.25398822e-05
6.14608836e-05
6.14275525e-05
6.31942741e-05
6.34819316e-05
6.26259791e-05
6.15420734e-05
6.15003542e-05
6.32326542e-05
6.35650224e-05
6.24145705e-05
6.21415185e-05
6.33225054e-05
6.35889655e-05
6.24327104e-05
6.23143648e-05
6.1425923e-05
6.1453811e-05
6.32837325e-05
6.35826005e-05
6.24231216e-05
6.18546476e-05
6.3303543e-05
6.35479675e-05
6.23760641e-05
6.18419469e-05
6.31684112e-05
6.34859968e-05
6.34267878e-05
6.35035464e-05
6.23554918e-05
6.16263272e-05
6.10683574e-05
6.10696503e-05
6.33471676e-05
6.34590137e-05
6.23599642e-05
6.1150791e-05
6.11822668e-05
6.33545141e-05
6.35531462e-05
6.24204337e-05
6.18362486e-05
6.33830827e-05
6.35565648e-05
6.24354212e-05
6.19298775e-05
6.34159054e-05
6.35065454e-05
6.24186522e-05
6.14443103e-05
6.14602326e-05
6.34108764e-05
6.3550264e-05
6.24420874e-05
6.18457014e-05
6.34202351e-05
6.35034213e-05
6.2403758e-05
6.13944166e-05
6.14144174e-05
6.34115141e-05
6.35533301e-05
6.24484392e-05
6.17966387e-05
6.34116333e-05
6.35074191e-05
6.23852171e-05
6.13436586e-05
6.13660019e-05
6.33894709e-05
6.35521557e-05
6.24473511e-05
6.17444025e-05
6.33944048e-05
6.35044651e-05
6.23677152e-05
6.12861964e-05
6.13173347e-05
6.322064e-05
6.35756514e-05
6.24060969e-05
6.17589819e-05
6.3331451e-05
6.35812223e-05
6.24274349e-05
6.1868286e-05
6.33367649e-05
6.35722053e-05
6.24415632e-05
6.18674277e-05
6.33433165e-05
6.35208489e-05
6.23852515e-05
6.1409405e-05
6.14295961e-05
6.30906491e-05
6.3565813e-05
6.2425718e-05
6.18566737e-05
6.3260452e-05
6.3560721e-05
6.24365117e-05
6.18691623e-05
6.32489484e-05
6.35162083e-05
6.24743246e-05
6.15948213e-05
6.15831026e-05
6.30175232e-05
6.35481748e-05
6.24102533e-05
6.19558554e-05
6.31145472e-05
6.35151476e-05
6.27794748e-05
6.18430741e-05
6.16804568e-05
6.31329054e-05
6.35445812e-05
6.23960924e-05
6.22296507e-05
6.14995018e-05
6.15165136e-05
6.32743126e-05
6.35853169e-05
6.23623515e-05
6.20504762e-05
6.1718987e-05
6.23107441e-05
6.34702909e-05
6.23250898e-05
6.17832608e-05
6.32426094e-05
6.35715848e-05
6.2405112e-05
6.18390253e-05
6.3136897e-05
6.35498467e-05
6.23847332e-05
6.17251411e-05
6.28867837e-05
6.3513687e-05
6.3500987e-05
6.35250963e-05
6.23151268e-05
6.16405143e-05
6.12145349e-05
6.12092834e-05
6.28983862e-05
6.34705559e-05
6.2627341e-05
6.16483266e-05
6.15493913e-05
6.30059615e-05
6.35499278e-05
6.24112535e-05
6.19877355e-05
6.32509593e-05
6.35605749e-05
6.24244946e-05
6.20339717e-05
6.32169891e-05
6.3530733e-05
6.25739075e-05
6.17246801e-05
6.16043889e-05
6.30411891e-05
6.35314333e-05
6.26084494e-05
6.16604023e-05
6.15700324e-05
6.31515825e-05
6.35404364e-05
6.24119605e-05
6.2030587e-05
6.20448545e-05
6.15729179e-05
6.15845937e-05
6.32314757e-05
6.35485373e-05
6.34573343e-05
6.35728015e-05
6.23308363e-05
6.13515987e-05
6.31043503e-05
6.35497121e-05
6.23708022e-05
6.17091825e-05
6.32052045e-05
6.35132924e-05
6.23763035e-05
6.1519676e-05
6.15336564e-05
6.31556745e-05
6.35341622e-05
6.23944242e-05
6.15232192e-05
6.1526086e-05
6.31831027e-05
6.35315765e-05
6.24235459e-05
6.15572806e-05
6.15472429e-05
6.31938975e-05
6.35060209e-05
6.24767759e-05
6.15135887e-05
6.14935658e-05
6.29663157e-05
6.35752087e-05
6.34944523e-05
6.22480637e-05
)
;

boundaryField
{
    closed
    {
        type            calculated;
        value           nonuniform List<scalar> 0();
    }
    open
    {
        type            calculated;
        value           nonuniform List<scalar> 0();
    }
    sides
    {
        type            empty;
    }
    procBoundary3to2
    {
        type            processor;
        value           uniform 6.23273624e-05;
    }
    procBoundary3to4
    {
        type            processor;
        value           uniform 6.15192225e-05;
    }
}


// ************************************************************************* //
