/*--------------------------------*- C++ -*----------------------------------*\
| =========                 |                                                 |
| \\      /  F ield         | OpenFOAM: The Open Source CFD Toolbox           |
|  \\    /   O peration     | Version:  2306                                  |
|   \\  /    A nd           | Website:  www.openfoam.com                      |
|    \\/     M anipulation  |                                                 |
\*---------------------------------------------------------------------------*/
FoamFile
{
    version     2.0;
    format      ascii;
    arch        "LSB;label=32;scalar=64";
    class       volScalarField;
    location    "0.00148";
    object      prefDPV_H2O;
}
// * * * * * * * * * * * * * * * * * * * * * * * * * * * * * * * * * * * * * //

dimensions      [1 -1 -1 0 0 0 0];

internalField   nonuniform List<scalar> 
531
(
-3.64154209e-07
-3.64888265e-07
-3.84163524e-07
-3.84241813e-07
-3.71598592e-07
-3.64083517e-07
-3.64932474e-07
-3.8426977e-07
-3.84265222e-07
-3.71221708e-07
-3.639335e-07
-3.64792614e-07
-3.84473411e-07
-3.84304806e-07
-3.70680822e-07
-3.63821856e-07
-3.64494783e-07
-3.85530088e-07
-3.83921352e-07
-3.66764337e-07
-3.65554487e-07
-3.84865306e-07
-3.83760718e-07
-3.66454629e-07
-3.65737224e-07
-3.84778069e-07
-3.84062406e-07
-3.71805113e-07
-3.64080776e-07
-3.64555089e-07
-3.85793353e-07
-3.83993586e-07
-3.70690461e-07
-3.65338559e-07
-3.6452871e-07
-3.64284082e-07
-3.77339894e-07
-3.8436662e-07
-3.84305481e-07
-3.84314048e-07
-3.84298248e-07
-3.84112434e-07
-3.77787408e-07
-3.65260813e-07
-3.6420005e-07
-3.64118898e-07
-3.75247699e-07
-3.84389021e-07
-3.73936304e-07
-3.63708249e-07
-3.63898531e-07
-3.77308368e-07
-3.83904271e-07
-3.8417584e-07
-3.73341238e-07
-3.64322992e-07
-3.64403167e-07
-3.8380176e-07
-3.83848069e-07
-3.68134263e-07
-3.65947082e-07
-3.855702e-07
-3.83754088e-07
-3.7228346e-07
-3.65202099e-07
-3.65231786e-07
-3.64218492e-07
-3.63955916e-07
-3.74240093e-07
-3.84431044e-07
-3.83988888e-07
-3.84370953e-07
-3.8418312e-07
-3.78769077e-07
-3.64420387e-07
-3.64534383e-07
-3.85748781e-07
-3.84259125e-07
-3.72595737e-07
-3.64101587e-07
-3.64641867e-07
-3.86119779e-07
-3.84277356e-07
-3.72599697e-07
-3.64063609e-07
-3.64723837e-07
-3.8532605e-07
-3.84247332e-07
-3.72753727e-07
-3.642364e-07
-3.64884919e-07
-3.848911e-07
-3.84166772e-07
-3.73537147e-07
-3.64582769e-07
-3.65099791e-07
-3.8450271e-07
-3.83778029e-07
-3.72579431e-07
-3.6592369e-07
-3.64600606e-07
-3.64727679e-07
-3.86357875e-07
-3.83834352e-07
-3.67369297e-07
-3.65955318e-07
-3.84913835e-07
-3.83996354e-07
-3.72497222e-07
-3.64247509e-07
-3.6477823e-07
-3.84682775e-07
-3.84245012e-07
-3.72359927e-07
-3.6409644e-07
-3.64710763e-07
-3.84593529e-07
-3.84324147e-07
-3.72325276e-07
-3.63900135e-07
-3.65071679e-07
-3.84737205e-07
-3.83693282e-07
-3.84382127e-07
-3.72425758e-07
-3.65664845e-07
-3.64362246e-07
-3.64508796e-07
-3.84857785e-07
-3.84095929e-07
-3.67026512e-07
-3.65482588e-07
-3.85233298e-07
-3.84207088e-07
-3.71687803e-07
-3.64044202e-07
-3.64614646e-07
-3.84936882e-07
-3.84325751e-07
-3.72084081e-07
-3.64255901e-07
-3.64782956e-07
-3.84650782e-07
-3.84289668e-07
-3.72487053e-07
-3.64429879e-07
-3.64932786e-07
-3.84670293e-07
-3.84187966e-07
-3.73486123e-07
-3.64860057e-07
-3.65311984e-07
-3.84672714e-07
-3.84085502e-07
-3.75688533e-07
-3.64913718e-07
-3.65346861e-07
-3.84610197e-07
-3.84243872e-07
-3.72160812e-07
-3.6423851e-07
-3.64736524e-07
-3.84760259e-07
-3.84334966e-07
-3.71668773e-07
-3.64309885e-07
-3.64618891e-07
-3.84701406e-07
-3.84342417e-07
-3.66625847e-07
-3.66460123e-07
-3.84200782e-07
-3.83777153e-07
-3.71266578e-07
-3.6550144e-07
-3.64570176e-07
-3.64818227e-07
-3.84731144e-07
-3.84276346e-07
-3.71515473e-07
-3.64495735e-07
-3.65212876e-07
-3.84492164e-07
-3.84106792e-07
-3.71700404e-07
-3.64457004e-07
-3.65926378e-07
-3.84689916e-07
-3.74791435e-07
-3.65532439e-07
-3.83742697e-07
-3.83587335e-07
-3.82807678e-07
-3.67249089e-07
-3.64535394e-07
-3.66139438e-07
-3.84849966e-07
-3.74834066e-07
-3.65546332e-07
-3.82471862e-07
-3.83984655e-07
-3.8534051e-07
-3.65349047e-07
-3.64187883e-07
-3.7304869e-07
-3.84543707e-07
-3.8533467e-07
-3.65076754e-07
-3.63920641e-07
-3.73727525e-07
-3.84661485e-07
-3.86804348e-07
-3.64841837e-07
-3.63916974e-07
-3.77091151e-07
-3.84507387e-07
-3.69089221e-07
-3.65631744e-07
-3.84087632e-07
-3.84135593e-07
-3.81818848e-07
-3.65245329e-07
-3.64563122e-07
-3.76285281e-07
-3.84600858e-07
-3.83571172e-07
-3.64782239e-07
-3.64167259e-07
-3.78611078e-07
-3.84172943e-07
-3.76943757e-07
-3.66336993e-07
-3.64375489e-07
-3.64527467e-07
-3.86325605e-07
-3.83973811e-07
-3.85164619e-07
-3.83712537e-07
-3.83926787e-07
-3.70580164e-07
-3.64979672e-07
-3.64839181e-07
-3.64478229e-07
-3.63248452e-07
-3.64673946e-07
-3.85477283e-07
-3.83828178e-07
-3.70611392e-07
-3.65344072e-07
-3.87097503e-07
-3.84168787e-07
-3.75694008e-07
-3.64617685e-07
-3.64091055e-07
-3.74770962e-07
-3.84631189e-07
-3.69095986e-07
-3.65393479e-07
-3.87164867e-07
-3.8402768e-07
-3.68629334e-07
-3.65936934e-07
-3.7953585e-07
-3.84022861e-07
-3.84830264e-07
-3.6643108e-07
-3.64780565e-07
-3.71903977e-07
-3.8460182e-07
-3.83990228e-07
-3.71938829e-07
-3.65280874e-07
-3.65361712e-07
-3.64180041e-07
-3.64011264e-07
-3.8500942e-07
-3.84145941e-07
-3.85773007e-07
-3.83840224e-07
-3.85355552e-07
-3.68339031e-07
-3.63032125e-07
-3.62840271e-07
-3.85598325e-07
-3.84684322e-07
-3.76727146e-07
-3.64473245e-07
-3.64276901e-07
-3.81465276e-07
-3.84672919e-07
-3.80327106e-07
-3.64612242e-07
-3.6425992e-07
-3.83447826e-07
-3.84372864e-07
-3.68162794e-07
-3.65645738e-07
-3.86591762e-07
-3.84293428e-07
-3.77481475e-07
-3.64525158e-07
-3.64321387e-07
-3.85425761e-07
-3.84570541e-07
-3.76603667e-07
-3.64220567e-07
-3.64001128e-07
-3.85377972e-07
-3.84313278e-07
-3.67922035e-07
-3.65553312e-07
-3.86679578e-07
-3.84287918e-07
-3.77229547e-07
-3.64575257e-07
-3.64376473e-07
-3.8577084e-07
-3.84527862e-07
-3.76892648e-07
-3.64356455e-07
-3.64193987e-07
-3.85670002e-07
-3.8453103e-07
-3.78502934e-07
-3.64588904e-07
-3.64319683e-07
-3.86152037e-07
-3.84086517e-07
-3.68307085e-07
-3.66090749e-07
-3.86913994e-07
-3.83613105e-07
-3.74102355e-07
-3.67194216e-07
-3.64321528e-07
-3.64074179e-07
-3.86734271e-07
-3.84146971e-07
-3.67123903e-07
-3.65270541e-07
-3.86996916e-07
-3.84084258e-07
-3.67038526e-07
-3.6537317e-07
-3.85456982e-07
-3.84677099e-07
-3.85106109e-07
-3.8470587e-07
-3.68074582e-07
-3.64856036e-07
-3.63252966e-07
-3.63250133e-07
-3.8721593e-07
-3.84790654e-07
-3.71482637e-07
-3.63573071e-07
-3.63405001e-07
-3.86857253e-07
-3.8430348e-07
-3.67147944e-07
-3.6525624e-07
-3.86539898e-07
-3.84020804e-07
-3.67503607e-07
-3.65568683e-07
-3.86343519e-07
-3.8423161e-07
-3.74081986e-07
-3.64333854e-07
-3.64200533e-07
-3.86537932e-07
-3.84209672e-07
-3.67419755e-07
-3.65331183e-07
-3.8635104e-07
-3.84290965e-07
-3.735984e-07
-3.64210173e-07
-3.64060931e-07
-3.86588439e-07
-3.84241841e-07
-3.67368674e-07
-3.65178523e-07
-3.86474418e-07
-3.84328544e-07
-3.72908205e-07
-3.64072428e-07
-3.63913521e-07
-3.86818054e-07
-3.84296293e-07
-3.67364357e-07
-3.65031163e-07
-3.8670062e-07
-3.84401965e-07
-3.72346018e-07
-3.63906884e-07
-3.63715348e-07
-3.86033175e-07
-3.84274151e-07
-3.67122693e-07
-3.6497103e-07
-3.87195491e-07
-3.84052627e-07
-3.67194537e-07
-3.65299147e-07
-3.87150706e-07
-3.84048555e-07
-3.6760084e-07
-3.65347479e-07
-3.87127898e-07
-3.84315431e-07
-3.72988066e-07
-3.6421185e-07
-3.64038954e-07
-3.84568747e-07
-3.84276025e-07
-3.67622059e-07
-3.65288289e-07
-3.86480062e-07
-3.84108689e-07
-3.67578496e-07
-3.65371261e-07
-3.86346027e-07
-3.84289005e-07
-3.75512692e-07
-3.64713073e-07
-3.64518122e-07
-3.83734754e-07
-3.84252166e-07
-3.67915364e-07
-3.65628572e-07
-3.84874771e-07
-3.84168679e-07
-3.80863702e-07
-3.65397956e-07
-3.64873741e-07
-3.85047788e-07
-3.84079049e-07
-3.73164974e-07
-3.66355463e-07
-3.64476686e-07
-3.64294706e-07
-3.86562295e-07
-3.84093036e-07
-3.72378594e-07
-3.6573076e-07
-3.64923986e-07
-3.66977321e-07
-3.85461054e-07
-3.70995049e-07
-3.65072769e-07
-3.86240709e-07
-3.841256e-07
-3.67562763e-07
-3.65234805e-07
-3.85099661e-07
-3.84229818e-07
-3.67259779e-07
-3.64962573e-07
-3.82143942e-07
-3.84539559e-07
-3.84632042e-07
-3.84385779e-07
-3.69855044e-07
-3.64778697e-07
-3.63567237e-07
-3.63560211e-07
-3.82290821e-07
-3.84664975e-07
-3.78534861e-07
-3.64878726e-07
-3.64441615e-07
-3.83638523e-07
-3.84216977e-07
-3.68053891e-07
-3.65676001e-07
-3.86448926e-07
-3.83968693e-07
-3.68110214e-07
-3.65829648e-07
-3.86078923e-07
-3.84111681e-07
-3.7757415e-07
-3.65032096e-07
-3.64589788e-07
-3.84029089e-07
-3.84316593e-07
-3.78218267e-07
-3.64829877e-07
-3.64485251e-07
-3.85275989e-07
-3.84175933e-07
-3.74114e-07
-3.65832436e-07
-3.65834491e-07
-3.64675706e-07
-3.64522427e-07
-3.86297886e-07
-3.8423937e-07
-3.84743415e-07
-3.84228287e-07
-3.66635376e-07
-3.63789222e-07
-3.84654728e-07
-3.84427394e-07
-3.66895693e-07
-3.64916677e-07
-3.85976106e-07
-3.84325893e-07
-3.72443129e-07
-3.64517095e-07
-3.64348364e-07
-3.85411489e-07
-3.84322737e-07
-3.73366325e-07
-3.64484908e-07
-3.64325292e-07
-3.85729392e-07
-3.8430432e-07
-3.74226632e-07
-3.64577582e-07
-3.64426551e-07
-3.85849531e-07
-3.84384069e-07
-3.75669987e-07
-3.64480548e-07
-3.64229647e-07
-3.83203077e-07
-3.83914075e-07
-3.85123834e-07
-3.66899466e-07
)
;

boundaryField
{
    closed
    {
        type            calculated;
        value           nonuniform List<scalar> 0();
    }
    open
    {
        type            calculated;
        value           nonuniform List<scalar> 0();
    }
    sides
    {
        type            empty;
    }
    procBoundary3to2
    {
        type            processor;
        value           uniform -3.71729039e-07;
    }
    procBoundary3to4
    {
        type            processor;
        value           uniform -3.64595493e-07;
    }
}


// ************************************************************************* //
