/*--------------------------------*- C++ -*----------------------------------*\
| =========                 |                                                 |
| \\      /  F ield         | OpenFOAM: The Open Source CFD Toolbox           |
|  \\    /   O peration     | Version:  2306                                  |
|   \\  /    A nd           | Website:  www.openfoam.com                      |
|    \\/     M anipulation  |                                                 |
\*---------------------------------------------------------------------------*/
FoamFile
{
    version     2.0;
    format      ascii;
    arch        "LSB;label=32;scalar=64";
    class       volVectorField;
    location    "0.00148";
    object      U;
}
// * * * * * * * * * * * * * * * * * * * * * * * * * * * * * * * * * * * * * //

dimensions      [0 1 -1 0 0 0 0];

internalField   nonuniform List<vector> 
531
(
(0.0735040967 0 0)
(0.0711799602 0 0)
(0.0692208029 0 0)
(0.0650911349 0 0)
(0.0571775094 0 0)
(0.0510778299 0 0)
(0.0474128983 0 0)
(0.045867735 0 0)
(0.0427105128 0 0)
(0.0345211379 0 0)
(0.0278800972 0 0)
(0.0229454385 0 0)
(0.0243121079 0 0)
(0.0220127109 0 0)
(0.012969282 0 0)
(0.00298990527 0 0)
(-0.00867803208 0 0)
(-0.00126240919 0 0)
(0.0114514887 0 0)
(-0.0131869675 0 0)
(-0.0465467514 0 0)
(-0.0389596334 0 0)
(-0.0331255418 0 0)
(-0.0558614617 0 0)
(-0.0789253997 0 0)
(-0.0706949906 0 0)
(-0.0658343122 0 0)
(-0.076583992 0 0)
(-0.0813089431 0 0)
(-0.099504465 0 0)
(-0.0761969648 0 0)
(-0.0578591878 0 0)
(-0.0707293835 0 0)
(-0.0732194827 0 0)
(-0.0737831375 0 0)
(-0.0681208161 0 0)
(-0.0680483361 0 0)
(-0.0663697318 0 0)
(-0.063484118 0 0)
(-0.061464258 0 0)
(-0.0587205258 0 0)
(-0.0558994196 0 0)
(-0.0502540353 0 0)
(-0.0509921223 0 0)
(-0.051121548 0 0)
(-0.0438425046 0 0)
(-0.0390497097 0 0)
(-0.0326473455 0 0)
(-0.0266329704 0 0)
(-0.0242798063 0 0)
(-0.0133804732 0 0)
(-0.00454265738 0 0)
(0.000932641362 0 0)
(0.00852556468 0 0)
(0.0134007659 0 0)
(0.0120436351 0 0)
(0.0038270235 0 0)
(0.0375801389 0 0)
(0.0662514671 0 0)
(0.0705443092 0 0)
(0.0611840167 0 0)
(0.0808447731 0 0)
(0.107219034 0 0)
(0.0969681439 0 0)
(0.104402586 0 0)
(0.110197216 0 0)
(0.119507385 0 0)
(0.129662022 0 0)
(0.134397486 0 0)
(0.137708229 0 0)
(0.143014461 0 0)
(0.147026574 0 0)
(0.149902626 0 0)
(0.157799956 0 0)
(0.163380494 0 0)
(0.13844503 0 0)
(0.15955081 0 0)
(0.178237402 0 0)
(0.163768588 0 0)
(0.166551515 0 0)
(0.142363428 0 0)
(0.170091865 0 0)
(0.191750702 0 0)
(0.173093995 0 0)
(0.17284655 0 0)
(0.158318464 0 0)
(0.171693704 0 0)
(0.177574576 0 0)
(0.16183232 0 0)
(0.156619571 0 0)
(0.144240366 0 0)
(0.149096853 0 0)
(0.14679778 0 0)
(0.131839242 0 0)
(0.122936433 0 0)
(0.1130265 0 0)
(0.111607559 0 0)
(0.103616666 0 0)
(0.0886881476 0 0)
(0.0765693935 0 0)
(0.0682621347 0 0)
(0.0344523059 0 0)
(0.0527794353 0 0)
(0.063950184 0 0)
(0.0411300837 0 0)
(0.0282064752 0 0)
(0.0210543247 0 0)
(0.0197105898 0 0)
(-0.000635294918 0 0)
(-0.0114410039 0 0)
(-0.0247161031 0 0)
(-0.0254374347 0 0)
(-0.032256032 0 0)
(-0.0471050968 0 0)
(-0.0608801242 0 0)
(-0.0677936166 0 0)
(-0.0689558867 0 0)
(-0.0759067491 0 0)
(-0.0874425858 0 0)
(-0.0991080941 0 0)
(-0.0990165371 0 0)
(-0.0989968233 0 0)
(-0.106868913 0 0)
(-0.11043757 0 0)
(-0.109330026 0 0)
(-0.121670276 0 0)
(-0.12630829 0 0)
(-0.145699486 0 0)
(-0.102203706 0 0)
(-0.0736241379 0 0)
(-0.104635809 0 0)
(-0.128270513 0 0)
(-0.119720974 0 0)
(-0.102586153 0 0)
(-0.116497382 0 0)
(-0.113824518 0 0)
(-0.117956478 0 0)
(-0.10759192 0 0)
(-0.105973892 0 0)
(-0.114494034 0 0)
(-0.120673696 0 0)
(-0.118915799 0 0)
(-0.111750996 0 0)
(-0.110991455 0 0)
(-0.116820505 0 0)
(-0.122261746 0 0)
(-0.119619135 0 0)
(-0.110317832 0 0)
(-0.107082973 0 0)
(-0.111151059 0 0)
(-0.115199621 0 0)
(-0.112171455 0 0)
(-0.101690861 0 0)
(-0.0958218904 0 0)
(-0.0975431566 0 0)
(-0.0991154229 0 0)
(-0.0985183818 0 0)
(-0.0873287229 0 0)
(-0.0782523876 0 0)
(-0.080003625 0 0)
(-0.0812345885 0 0)
(-0.0783987135 0 0)
(-0.064191288 0 0)
(-0.0547404818 0 0)
(-0.0571909993 0 0)
(-0.0596358323 0 0)
(-0.0593389994 0 0)
(-0.047932737 0 0)
(-0.0386029437 0 0)
(-0.0457126694 0 0)
(-0.0619875143 0 0)
(-0.0591689358 0 0)
(-0.0510590828 0 0)
(-0.0549948516 0 0)
(-0.0578849411 0 0)
(-0.0591153157 0 0)
(-0.0602421829 0 0)
(-0.0518569857 0 0)
(-0.043563584 0 0)
(-0.0491165694 0 0)
(-0.0551441342 0 0)
(-0.0582447176 0 0)
(-0.0516108411 0 0)
(-0.0482167236 0 0)
(-0.0541300338 0 0)
(-0.0605929335 0 0)
(-0.065385522 0 0)
(-0.0585872981 0 0)
(-0.0584568443 0 0)
(-0.0837864433 0 0)
(-0.0697826988 0 0)
(-0.057271478 0 0)
(-0.0654241757 0 0)
(-0.0598980361 0 0)
(-0.0737568226 0 0)
(-0.0847275928 0 0)
(-0.0833260835 0 0)
(-0.085379389 0 0)
(-0.105271674 0 0)
(-0.105152445 0 0)
(-0.107757638 0 0)
(-0.0971212767 0 0)
(-0.0809672657 0 0)
(-0.101841528 0 0)
(-0.113499972 0 0)
(-0.124093606 0 0)
(-0.109046629 0 0)
(-0.0984487523 0 0)
(-0.111535444 0 0)
(-0.111283389 0 0)
(-0.13339039 0 0)
(-0.0887118345 0 0)
(-0.0566646914 0 0)
(-0.0946290459 0 0)
(-0.0867665297 0 0)
(-0.0761925782 0 0)
(-0.0657364323 0 0)
(-0.074869068 0 0)
(-0.0494290008 0 0)
(-0.019242327 0 0)
(-0.0220015263 0 0)
(-0.0125760281 0 0)
(-0.0136576557 0 0)
(-0.0145215475 0 0)
(-0.0177891094 0 0)
(0.0161230077 0 0)
(0.0435550015 0 0)
(0.0339649344 0 0)
(0.0373290059 0 0)
(0.0473183118 0 0)
(0.0596482489 0 0)
(0.0592836237 0 0)
(0.0585225526 0 0)
(0.0597663035 0 0)
(0.0749404002 0 0)
(0.10144972 0 0)
(0.110552373 0 0)
(0.120589396 0 0)
(0.122634313 0 0)
(0.130123184 0 0)
(0.138882656 0 0)
(0.14923854 0 0)
(0.161972784 0 0)
(0.174274922 0 0)
(0.174452302 0 0)
(0.18700298 0 0)
(0.205249318 0 0)
(0.20433517 0 0)
(0.202182903 0 0)
(0.231051614 0 0)
(0.267154065 0 0)
(0.264053661 0 0)
(0.269298729 0 0)
(0.282021335 0 0)
(0.292363781 0 0)
(0.299641182 0 0)
(0.308603757 0 0)
(0.307368231 0 0)
(0.349918133 0 0)
(0.394341399 0 0)
(0.393184498 0 0)
(0.399897206 0 0)
(0.4028682 0 0)
(0.409476921 0 0)
(0.431133832 0 0)
(0.440074962 0 0)
(0.433968267 0 0)
(0.435601291 0 0)
(0.44558256 0 0)
(0.455386966 0 0)
(0.458694164 0 0)
(0.463205501 0 0)
(0.467282848 0 0)
(0.469523678 0 0)
(0.47582138 0 0)
(0.478840326 0 0)
(0.485390473 0 0)
(0.493270816 0 0)
(0.500304161 0 0)
(0.50845867 0 0)
(0.503746933 0 0)
(0.489954619 0 0)
(0.486849691 0 0)
(0.504812744 0 0)
(0.527480964 0 0)
(0.523735288 0 0)
(0.525967106 0 0)
(0.537648173 0 0)
(0.541089322 0 0)
(0.539105614 0 0)
(0.551868262 0 0)
(0.564173209 0 0)
(0.568815644 0 0)
(0.579914838 0 0)
(0.582232146 0 0)
(0.577353315 0 0)
(0.580112819 0 0)
(0.601789993 0 0)
(0.621671461 0 0)
(0.620134318 0 0)
(0.622253318 0 0)
(0.631476441 0 0)
(0.648545279 0 0)
(0.655900198 0 0)
(0.653218617 0 0)
(0.656783504 0 0)
(0.668964125 0 0)
(0.690528769 0 0)
(0.694500198 0 0)
(0.686743099 0 0)
(0.692134058 0 0)
(0.715573222 0 0)
(0.731019642 0 0)
(0.728565134 0 0)
(0.732405523 0 0)
(0.745478845 0 0)
(0.765745644 0 0)
(0.768758584 0 0)
(0.764767961 0 0)
(0.770210789 0 0)
(0.7869836 0 0)
(0.807087918 0 0)
(0.806944006 0 0)
(0.808045046 0 0)
(0.81708874 0 0)
(0.833094645 0 0)
(0.860212606 0 0)
(0.86005834 0 0)
(0.849618341 0 0)
(0.8618303 0 0)
(0.895561139 0 0)
(0.908502754 0 0)
(0.90381804 0 0)
(0.907312718 0 0)
(0.902183869 0 0)
(0.915912806 0 0)
(0.946684846 0 0)
(0.943894217 0 0)
(0.942417045 0 0)
(0.962519933 0 0)
(0.988687488 0 0)
(0.984903974 0 0)
(0.98410288 0 0)
(1.01311687 0 0)
(1.02820184 0 0)
(1.02188386 0 0)
(1.03289213 0 0)
(1.03006283 0 0)
(1.00439923 0 0)
(0.997840319 0 0)
(0.993638367 0 0)
(0.993658602 0 0)
(1.02889773 0 0)
(1.01300896 0 0)
(0.972758023 0 0)
(0.951529078 0 0)
(0.95508009 0 0)
(0.983317801 0 0)
(0.959106452 0 0)
(0.92860908 0 0)
(0.925512425 0 0)
(0.937487436 0 0)
(0.912370026 0 0)
(0.865368089 0 0)
(0.842632269 0 0)
(0.849741624 0 0)
(0.825538769 0 0)
(0.786278846 0 0)
(0.760475821 0 0)
(0.748028035 0 0)
(0.75783028 0 0)
(0.734674931 0 0)
(0.689052842 0 0)
(0.661425413 0 0)
(0.665116761 0 0)
(0.649337988 0 0)
(0.613641086 0 0)
(0.586717876 0 0)
(0.570925783 0 0)
(0.580664007 0 0)
(0.571668035 0 0)
(0.53841761 0 0)
(0.515982121 0 0)
(0.52352239 0 0)
(0.522766634 0 0)
(0.496960874 0 0)
(0.476832364 0 0)
(0.457734192 0 0)
(0.472673507 0 0)
(0.486499502 0 0)
(0.465890092 0 0)
(0.452284642 0 0)
(0.467302492 0 0)
(0.480758386 0 0)
(0.464440212 0 0)
(0.452907487 0 0)
(0.44761126 0 0)
(0.468783331 0 0)
(0.488537982 0 0)
(0.475652151 0 0)
(0.466561468 0 0)
(0.489841929 0 0)
(0.51373079 0 0)
(0.502720916 0 0)
(0.495303981 0 0)
(0.518150571 0 0)
(0.540005368 0 0)
(0.534577242 0 0)
(0.533651313 0 0)
(0.558870626 0 0)
(0.582759129 0 0)
(0.575577109 0 0)
(0.574211203 0 0)
(0.583587696 0 0)
(0.60157669 0 0)
(0.610930765 0 0)
(0.607081521 0 0)
(0.608046966 0 0)
(0.630256323 0 0)
(0.647828918 0 0)
(0.64269418 0 0)
(0.645639148 0 0)
(0.666504524 0 0)
(0.681566701 0 0)
(0.676757925 0 0)
(0.678961457 0 0)
(0.692531341 0 0)
(0.705227432 0 0)
(0.702082103 0 0)
(0.693623851 0 0)
(0.69689405 0 0)
(0.703547255 0 0)
(0.705771011 0 0)
(0.714047301 0 0)
(0.721529993 0 0)
(0.724701979 0 0)
(0.734172227 0 0)
(0.734288765 0 0)
(0.727989456 0 0)
(0.728614415 0 0)
(0.725491296 0 0)
(0.717127165 0 0)
(0.736368621 0 0)
(0.748907396 0 0)
(0.734991123 0 0)
(0.735428604 0 0)
(0.740119796 0 0)
(0.751938033 0 0)
(0.7622574 0 0)
(0.757528238 0 0)
(0.752564265 0 0)
(0.767585126 0 0)
(0.770862824 0 0)
(0.753519967 0 0)
(0.751220547 0 0)
(0.760350677 0 0)
(0.758092038 0 0)
(0.74203251 0 0)
(0.740365404 0 0)
(0.736795572 0 0)
(0.73166882 0 0)
(0.737020341 0 0)
(0.726946056 0 0)
(0.712643504 0 0)
(0.710742496 0 0)
(0.71234233 0 0)
(0.724094755 0 0)
(0.72291148 0 0)
(0.705753719 0 0)
(0.702786248 0 0)
(0.705520204 0 0)
(0.710891421 0 0)
(0.714949529 0 0)
(0.703440027 0 0)
(0.689945359 0 0)
(0.68858549 0 0)
(0.704704898 0 0)
(0.709601217 0 0)
(0.697128071 0 0)
(0.698026768 0 0)
(0.709454504 0 0)
(0.711716849 0 0)
(0.704043163 0 0)
(0.703678048 0 0)
(0.710501191 0 0)
(0.712580724 0 0)
(0.701747816 0 0)
(0.695379681 0 0)
(0.693810819 0 0)
(0.694737081 0 0)
(0.702665572 0 0)
(0.69840951 0 0)
(0.687685402 0 0)
(0.687672838 0 0)
(0.685087605 0 0)
(0.676719312 0 0)
(0.672205861 0 0)
(0.678271514 0 0)
(0.686706315 0 0)
(0.68402101 0 0)
(0.672311533 0 0)
(0.671291336 0 0)
(0.683781422 0 0)
(0.692906562 0 0)
(0.691818567 0 0)
(0.684755314 0 0)
(0.68827611 0 0)
(0.703496269 0 0)
(0.706692613 0 0)
(0.691159113 0 0)
(0.685915878 0 0)
(0.693103565 0 0)
(0.707853042 0 0)
(0.703772244 0 0)
(0.688176848 0 0)
(0.682219626 0 0)
(0.687023 0 0)
(0.700934104 0 0)
(0.697186474 0 0)
(0.680907473 0 0)
(0.673754378 0 0)
(0.676914499 0 0)
(0.688655816 0 0)
(0.685093744 0 0)
(0.670677808 0 0)
(0.667909751 0 0)
(0.680914232 0 0)
(0.680053584 0 0)
(0.668112507 0 0)
(0.670254572 0 0)
(0.664046981 0 0)
)
;

boundaryField
{
    closed
    {
        type            noSlip;
    }
    open
    {
        type            inletOutlet;
        inletValue      nonuniform List<vector> 0();
        value           nonuniform List<vector> 0();
    }
    sides
    {
        type            empty;
    }
    procBoundary3to2
    {
        type            processor;
        value           uniform (0.078994792 0 0);
    }
    procBoundary3to4
    {
        type            processor;
        value           uniform (0.653030674 0 0);
    }
}


// ************************************************************************* //
