/*--------------------------------*- C++ -*----------------------------------*\
| =========                 |                                                 |
| \\      /  F ield         | OpenFOAM: The Open Source CFD Toolbox           |
|  \\    /   O peration     | Version:  2306                                  |
|   \\  /    A nd           | Website:  www.openfoam.com                      |
|    \\/     M anipulation  |                                                 |
\*---------------------------------------------------------------------------*/
FoamFile
{
    version     2.0;
    format      ascii;
    arch        "LSB;label=32;scalar=64";
    class       volScalarField;
    location    "0.00034";
    object      rho;
}
// * * * * * * * * * * * * * * * * * * * * * * * * * * * * * * * * * * * * * //

dimensions      [1 -3 0 0 0 0 0];

internalField   nonuniform List<scalar> 
531
(
0.906683659
0.909309436
0.95601775
0.938113504
0.906851091
0.947076052
0.95588305
0.935973354
0.906310687
0.906751051
0.964541507
0.933321686
0.908620991
0.950725405
0.943688731
0.905520388
0.908164464
0.957969609
0.939983274
0.904643006
0.929956363
0.94629848
0.939782085
0.9276781
0.932352722
0.939517653
0.938658356
0.934721787
0.935370178
0.937445361
0.9372501
0.93641867
0.93643164
0.936751326
0.936723853
0.936590935
0.936565937
0.936580807
0.936561556
0.936530646
0.936507827
0.936490064
0.936470161
0.93644856
0.936426874
0.936405174
0.936382836
0.936359797
0.936336297
0.936312506
0.936288505
0.936264394
0.936240296
0.936216312
0.936192517
0.936168976
0.936145742
0.936122864
0.936100382
0.936078332
0.936056744
0.936035646
0.936015063
0.935995012
0.935975506
0.935956555
0.935938159
0.935920317
0.935903023
0.935886268
0.935870041
0.935854331
0.935839129
0.935824429
0.935810225
0.93579652
0.935783317
0.935770628
0.935758464
0.935746843
0.935735783
0.935725303
0.935715424
0.935706164
0.93569754
0.935689567
0.935682259
0.935675625
0.935669672
0.935664409
0.935659838
0.935655963
0.935652788
0.935650315
0.935648548
0.93564749
0.935647148
0.935647526
0.935648632
0.935650476
0.935653067
0.935656419
0.935660544
0.935665456
0.935671172
0.935677705
0.935685071
0.935693282
0.935702346
0.935712271
0.935723057
0.935734697
0.935747179
0.935760482
0.935774578
0.935789432
0.935804999
0.935821232
0.935838076
0.935855474
0.935873369
0.935891702
0.935910416
0.935929459
0.93594878
0.935968336
0.935988088
0.936008002
0.936028051
0.936048211
0.936068461
0.936088785
0.936109167
0.936129593
0.936150049
0.936170519
0.936190987
0.936211435
0.936231842
0.936252186
0.936272443
0.936292587
0.936312591
0.936332429
0.936352072
0.936371492
0.936390662
0.936409557
0.936428152
0.936446423
0.93646435
0.936481911
0.936499089
0.936515868
0.936532231
0.936548165
0.936563657
0.936578695
0.936593268
0.936607364
0.936620973
0.936634084
0.936646686
0.93665877
0.936670322
0.936681331
0.936691783
0.936701665
0.936710962
0.936719655
0.936727727
0.936735158
0.936741924
0.936748001
0.936753362
0.936757979
0.936761821
0.936764854
0.936767046
0.936768361
0.936768762
0.936768213
0.936766677
0.936764119
0.936760504
0.936755799
0.936749973
0.936742997
0.936734847
0.9367255
0.936714938
0.936703146
0.936690114
0.936675835
0.936660309
0.936643539
0.936625533
0.936606304
0.93658587
0.936564257
0.936541492
0.936517613
0.936492659
0.936466679
0.936439726
0.936411859
0.936383144
0.936353654
0.936323466
0.936292663
0.936261334
0.936229572
0.936197476
0.936165147
0.93613269
0.936100213
0.936067823
0.936035632
0.936003749
0.935972284
0.935941345
0.935911038
0.935881465
0.935852725
0.935824914
0.935798121
0.93577243
0.935747921
0.935724663
0.935702724
0.93568216
0.935663023
0.935645357
0.935629197
0.935614573
0.935601506
0.935590011
0.935580095
0.93557176
0.935565
0.935559804
0.935556154
0.935554029
0.935553402
0.935554241
0.935556511
0.935560174
0.935565188
0.93557151
0.935579093
0.935587889
0.935597851
0.935608928
0.935621071
0.935634231
0.935648357
0.935663402
0.935679317
0.935696056
0.935713576
0.935731832
0.935750783
0.935770392
0.935790622
0.935811438
0.935832811
0.935854712
0.935877114
0.935899997
0.935923341
0.935947128
0.935971345
0.935995982
0.936021028
0.936046479
0.936072329
0.936098576
0.936125217
0.936152252
0.93617968
0.936207498
0.936235705
0.936264294
0.93629326
0.93632259
0.936352271
0.936382283
0.936412601
0.936443195
0.936474026
0.93650505
0.936536215
0.936567462
0.936598722
0.93662992
0.936660973
0.936691789
0.936722271
0.936752314
0.936781808
0.936810637
0.936838681
0.93686582
0.936891929
0.936916886
0.936940567
0.936962855
0.936983633
0.937002793
0.937020234
0.937035862
0.937049594
0.937061358
0.937071096
0.937078759
0.937084314
0.937087742
0.937089037
0.937088207
0.937085272
0.937080269
0.937073245
0.937064256
0.937053374
0.937040676
0.93702625
0.93701019
0.936992595
0.936973572
0.936953227
0.936931673
0.936909021
0.936885384
0.936860876
0.936835606
0.936809685
0.936783219
0.936756312
0.936729066
0.936701577
0.936673939
0.93664624
0.936618566
0.936590998
0.936563612
0.936536481
0.936509672
0.936483251
0.936457276
0.936431804
0.936406886
0.936382571
0.936358903
0.93633592
0.936313659
0.936292151
0.936271422
0.936251493
0.936232382
0.936214098
0.936196648
0.936180029
0.936164235
0.936149252
0.936135059
0.936121629
0.936108928
0.936096915
0.936085544
0.936074765
0.93606452
0.936054751
0.936045396
0.936036391
0.936027675
0.936019187
0.936010872
0.936002679
0.935994566
0.935986499
0.935978456
0.935970427
0.935962417
0.935954446
0.935946547
0.935938772
0.935931189
0.93592388
0.935916944
0.935910493
0.935904652
0.935899554
0.935895343
0.935892167
0.935890175
0.935889516
0.935890337
0.935892774
0.935896952
0.935902985
0.935910963
0.93592096
0.935933024
0.935947175
0.935963406
0.935981679
0.936001925
0.936024043
0.936047899
0.936073331
0.936100146
0.936128124
0.936157023
0.93618658
0.936216516
0.936246543
0.936276365
0.936305689
0.936334225
0.936361697
0.936387845
0.936412433
0.936435249
0.936456115
0.936474885
0.93649145
0.936505738
0.936517712
0.936527374
0.936534759
0.936539934
0.936542994
0.936544057
0.936543266
0.936540776
0.936536758
0.93653139
0.936524856
0.936517339
0.936509023
0.936500084
0.93649069
0.936481003
0.936471166
0.936461313
0.936451566
0.936442043
0.936432847
0.936424044
0.936415693
0.936407918
0.936400818
0.936394344
0.93638837
0.936382966
0.936378425
0.936374936
0.936371499
0.936367461
0.936363833
0.936362103
0.936363113
0.936360507
0.936347742
0.936335931
0.936347425
0.936381281
0.936361243
0.936184077
0.936139237
0.936532769
0.936789562
0.935882907
0.934582841
0.936070684
0.938715286
0.937657797
0.927991652
0.930358485
0.939564408
0.942625294
0.936215798
0.903874057
0.905387098
0.95703257
0.957332868
0.933495224
0.906351374
0.906683337
0.962606558
0.95781422
0.906551072
0.906509603
0.928206642
0.967957158
0.956535649
0.908166264
0.905451795
0.908890047
0.956497353
0.956787188
0.938734689
0.93471103
0.930019946
0.904471754
0.90549187
0.955211637
0.948696361
0.904414447
0.90555917
0.963453326
0.938574091
0.903411315
0.905720031
0.933428861
0.967626539
0.960921558
0.923561588
0.9053814
0.908794038
0.957903818
0.9411856
0.90551036
0.914704459
0.962209592
0.960377824
0.924822275
0.905944064
0.907292834
0.956528858
0.945431055
)
;

boundaryField
{
    closed
    {
        type            calculated;
        value           nonuniform List<scalar> 0();
    }
    open
    {
        type            calculated;
        value           nonuniform List<scalar> 0();
    }
    sides
    {
        type            empty;
    }
    procBoundary3to2
    {
        type            processor;
        value           uniform 0.906441018;
    }
    procBoundary3to4
    {
        type            processor;
        value           uniform 0.904759343;
    }
}


// ************************************************************************* //
