/*--------------------------------*- C++ -*----------------------------------*\
| =========                 |                                                 |
| \\      /  F ield         | OpenFOAM: The Open Source CFD Toolbox           |
|  \\    /   O peration     | Version:  2306                                  |
|   \\  /    A nd           | Website:  www.openfoam.com                      |
|    \\/     M anipulation  |                                                 |
\*---------------------------------------------------------------------------*/
FoamFile
{
    version     2.0;
    format      ascii;
    arch        "LSB;label=32;scalar=64";
    class       volScalarField;
    location    "0.00178";
    object      alpha;
}
// * * * * * * * * * * * * * * * * * * * * * * * * * * * * * * * * * * * * * //

dimensions      [1 -1 -1 0 0 0 0];

internalField   nonuniform List<scalar> 
531
(
3.67902986e-05
3.57926931e-05
3.48079197e-05
3.48254144e-05
3.67827969e-05
3.67875927e-05
3.67791179e-05
3.67894357e-05
3.56100957e-05
3.50373454e-05
3.47870032e-05
3.47849599e-05
3.67863707e-05
3.67828014e-05
3.51817694e-05
3.5180714e-05
3.68073773e-05
3.67875566e-05
3.67960446e-05
3.57778865e-05
3.47784267e-05
3.49332118e-05
3.68005886e-05
3.67948856e-05
3.67965729e-05
3.57536433e-05
3.52487695e-05
3.48340198e-05
3.48377175e-05
3.68018429e-05
3.68066732e-05
3.49265919e-05
3.48446356e-05
3.68147817e-05
3.68174679e-05
3.68053259e-05
3.6820896e-05
3.56734772e-05
3.52812385e-05
3.68141824e-05
3.68007796e-05
3.57361363e-05
3.5379944e-05
3.49666399e-05
3.49787585e-05
3.682264e-05
3.68006469e-05
3.68127583e-05
3.57370855e-05
3.52218694e-05
3.68168166e-05
3.68010349e-05
3.55038799e-05
3.55251504e-05
3.68224159e-05
3.574623e-05
3.50905621e-05
3.68187731e-05
3.6800891e-05
3.68052541e-05
3.58778498e-05
3.5328635e-05
3.5027595e-05
3.50330751e-05
3.68177578e-05
3.67947542e-05
3.68113686e-05
3.57689383e-05
3.5047208e-05
3.50492244e-05
3.68100951e-05
3.67940567e-05
3.58068651e-05
3.49727792e-05
3.52251736e-05
3.68036755e-05
3.57423711e-05
3.4837206e-05
3.68199983e-05
3.67994629e-05
3.57287885e-05
3.46286006e-05
3.46564405e-05
3.67943785e-05
3.68009009e-05
3.67924269e-05
3.67956181e-05
3.59739574e-05
3.49946481e-05
3.49973658e-05
3.68106945e-05
3.6790954e-05
3.68030798e-05
3.57700335e-05
3.51432021e-05
3.51424894e-05
3.68086088e-05
3.6792474e-05
3.57936741e-05
3.50043354e-05
3.5256515e-05
3.68010169e-05
3.57484128e-05
3.4887374e-05
3.681808e-05
3.67932673e-05
3.57342104e-05
3.4807463e-05
3.49236125e-05
3.67939774e-05
3.67910291e-05
3.67920474e-05
3.56216183e-05
3.51925258e-05
3.46228542e-05
3.46258797e-05
3.67910756e-05
3.67998307e-05
3.67819514e-05
3.68099125e-05
3.51880044e-05
3.50447261e-05
3.67925428e-05
3.68082747e-05
3.67855519e-05
3.680964e-05
3.67834362e-05
3.57328384e-05
3.49208176e-05
3.49353677e-05
3.67791818e-05
3.68095188e-05
3.56429351e-05
3.44091318e-05
3.45530634e-05
3.67929079e-05
3.67910311e-05
3.67922697e-05
3.53221679e-05
3.48326915e-05
3.6805571e-05
3.67835299e-05
3.67982329e-05
3.67850213e-05
3.57542533e-05
3.52285867e-05
3.4866744e-05
3.48803792e-05
3.68018179e-05
3.6775718e-05
3.67976317e-05
3.56197153e-05
3.42933197e-05
3.4470206e-05
3.6780749e-05
3.67933432e-05
3.6781519e-05
3.67900404e-05
3.67801538e-05
3.55904021e-05
3.52200141e-05
3.46631646e-05
3.46703655e-05
3.6806052e-05
3.67899855e-05
3.67967867e-05
3.67907781e-05
3.6789221e-05
3.56936637e-05
3.52766718e-05
3.48321929e-05
3.48374881e-05
3.6807257e-05
3.67900816e-05
3.67989603e-05
3.67923855e-05
3.57535621e-05
3.52340774e-05
3.49028865e-05
3.49028711e-05
3.68062737e-05
3.67929465e-05
3.67947984e-05
3.67955678e-05
3.57751337e-05
3.5360093e-05
3.5107225e-05
3.51083611e-05
3.67941239e-05
3.67985347e-05
3.53393273e-05
3.51219088e-05
3.67998605e-05
3.67926353e-05
3.5467452e-05
3.50459042e-05
3.68009486e-05
3.67894185e-05
3.57218723e-05
3.46303238e-05
3.47635055e-05
3.678887e-05
3.67990171e-05
3.67898196e-05
3.6793527e-05
3.6789006e-05
3.57654258e-05
3.54881686e-05
3.51311935e-05
3.51280814e-05
3.67998213e-05
3.67927713e-05
3.52387318e-05
3.52392493e-05
3.68033679e-05
3.678642e-05
3.6793556e-05
3.56842233e-05
3.51007246e-05
3.46521018e-05
3.46538685e-05
3.68044553e-05
3.6794904e-05
3.67950132e-05
3.679892e-05
3.56115439e-05
3.44673195e-05
3.45318913e-05
3.6782738e-05
3.68064263e-05
3.67809621e-05
3.68072905e-05
3.55070922e-05
3.54644127e-05
3.68032097e-05
3.56964641e-05
3.49990219e-05
3.68036964e-05
3.67837664e-05
3.6795989e-05
3.57709e-05
3.50790661e-05
3.48268286e-05
3.48312745e-05
3.68017822e-05
3.67850323e-05
3.67927081e-05
3.67853736e-05
3.57578566e-05
3.5214359e-05
3.4872493e-05
3.48787536e-05
3.67941191e-05
3.67743619e-05
3.67848638e-05
3.54303215e-05
3.49321172e-05
3.67772848e-05
3.67666801e-05
3.67577091e-05
3.67662241e-05
3.63087917e-05
3.53317125e-05
3.51732083e-05
3.47933086e-05
3.47923134e-05
3.67791218e-05
3.67867462e-05
3.51904875e-05
3.50165513e-05
3.67841845e-05
3.67842522e-05
3.50682986e-05
3.50704074e-05
3.67864333e-05
3.67743231e-05
3.67816101e-05
3.53045964e-05
3.49368266e-05
3.6792097e-05
3.67739854e-05
3.67876359e-05
3.67810381e-05
3.67804792e-05
3.5485681e-05
3.49892417e-05
3.47970403e-05
3.4804216e-05
3.67854941e-05
3.67737795e-05
3.51856526e-05
3.51867399e-05
3.67894366e-05
3.67765472e-05
3.67815893e-05
3.58722635e-05
3.50563915e-05
3.52090122e-05
3.45711258e-05
3.45789884e-05
3.67960013e-05
3.67980209e-05
3.68004166e-05
3.68017728e-05
3.55462517e-05
3.48547902e-05
3.68147922e-05
3.67885975e-05
3.56612692e-05
3.67939681e-05
3.68150389e-05
3.55107374e-05
3.53453737e-05
3.48731173e-05
3.48777814e-05
3.6811134e-05
3.68031812e-05
3.68110535e-05
3.55068222e-05
3.53512605e-05
3.6826799e-05
3.56356365e-05
3.49704909e-05
3.68195581e-05
3.68060348e-05
3.68181429e-05
3.57247307e-05
3.50689818e-05
3.68205278e-05
3.68012496e-05
3.57264169e-05
3.5022885e-05
3.50281384e-05
3.68073737e-05
3.68174182e-05
3.56160716e-05
3.51855064e-05
3.68222866e-05
3.6801337e-05
3.57221662e-05
3.50273716e-05
3.50391659e-05
3.67969761e-05
3.68267581e-05
3.54876744e-05
3.52706887e-05
3.68126599e-05
3.68148777e-05
3.53538741e-05
3.53544094e-05
3.68234666e-05
3.68060719e-05
3.68194675e-05
3.57591969e-05
3.50499413e-05
3.50505988e-05
3.68206629e-05
3.68153885e-05
3.57161344e-05
3.49149269e-05
3.49284493e-05
3.67985967e-05
3.68294654e-05
3.54597337e-05
3.51830116e-05
3.68068733e-05
3.68201661e-05
3.5400581e-05
3.52976537e-05
3.68080547e-05
3.68145563e-05
3.54020785e-05
3.54032042e-05
3.68113003e-05
3.58003598e-05
3.49246077e-05
3.68163986e-05
3.68048522e-05
3.57294895e-05
3.48202945e-05
3.49806472e-05
3.68032849e-05
3.67997871e-05
3.68020966e-05
3.55531067e-05
3.53669132e-05
3.68151944e-05
3.67896593e-05
3.68075773e-05
3.57484652e-05
3.49818378e-05
3.49847431e-05
3.68042932e-05
3.68080949e-05
3.57401973e-05
3.50293751e-05
3.50356135e-05
3.68047503e-05
3.68134007e-05
3.57332465e-05
3.49605481e-05
3.49674089e-05
3.68109085e-05
3.68206821e-05
3.56665015e-05
3.4712051e-05
3.47523867e-05
3.68128359e-05
3.68300787e-05
3.68113304e-05
3.68330505e-05
3.57334353e-05
3.54049088e-05
3.68230711e-05
3.68258591e-05
3.57109036e-05
3.55806904e-05
3.68280311e-05
3.68170383e-05
3.58075484e-05
3.56401599e-05
3.53396904e-05
3.53401819e-05
3.68206457e-05
3.68300457e-05
3.56379765e-05
3.54432558e-05
3.68231117e-05
3.68178487e-05
3.5735924e-05
3.54628743e-05
3.5176537e-05
3.51750425e-05
3.68163432e-05
3.68155993e-05
3.5273714e-05
3.52735171e-05
3.68166715e-05
3.68015503e-05
3.68044241e-05
3.59592534e-05
3.49540799e-05
3.50833023e-05
3.68216661e-05
3.55476751e-05
3.51139016e-05
3.68255228e-05
3.68014956e-05
3.68147983e-05
3.57761758e-05
3.49426264e-05
3.51912531e-05
3.68194645e-05
3.55716833e-05
3.51110775e-05
3.68254488e-05
3.67973673e-05
3.68150284e-05
3.57539434e-05
3.48812881e-05
3.51267326e-05
3.68152075e-05
3.54719412e-05
3.50022034e-05
3.68210697e-05
3.67996022e-05
3.68129057e-05
3.57320535e-05
3.50677744e-05
3.68125584e-05
3.68004618e-05
3.53555426e-05
3.53656385e-05
3.68184467e-05
3.67980573e-05
3.68073735e-05
3.57683325e-05
3.5220258e-05
3.50319991e-05
3.50334092e-05
3.6813271e-05
3.68121508e-05
3.51055276e-05
3.51072066e-05
3.68247704e-05
3.68116147e-05
3.68194856e-05
3.57190216e-05
3.51141832e-05
3.6823266e-05
3.68089896e-05
3.56129363e-05
3.5346166e-05
3.68212841e-05
3.68076764e-05
3.57338987e-05
3.54183695e-05
3.5176266e-05
3.51742941e-05
3.6813392e-05
3.68212306e-05
3.5416455e-05
3.52609972e-05
3.68114761e-05
3.68223539e-05
3.54940956e-05
3.53483406e-05
3.68140798e-05
3.68186272e-05
3.56109846e-05
3.544461e-05
3.68171819e-05
3.68079277e-05
3.57423878e-05
3.54926798e-05
3.52498562e-05
3.52459839e-05
3.68154668e-05
3.68048632e-05
3.55468925e-05
3.52010432e-05
3.68148268e-05
3.6792194e-05
3.57258305e-05
3.49452787e-05
3.49598118e-05
3.67835115e-05
3.6817339e-05
3.52477376e-05
3.51586047e-05
3.68038881e-05
)
;

boundaryField
{
    closed
    {
        type            calculated;
        value           nonuniform List<scalar> 0();
    }
    open
    {
        type            calculated;
        value           nonuniform List<scalar> 0();
    }
    sides
    {
        type            empty;
    }
    procBoundary3to2
    {
        type            processor;
        value           uniform 3.67821203e-05;
    }
    procBoundary3to4
    {
        type            processor;
        value           uniform 3.68096345e-05;
    }
}


// ************************************************************************* //
