/*--------------------------------*- C++ -*----------------------------------*\
| =========                 |                                                 |
| \\      /  F ield         | OpenFOAM: The Open Source CFD Toolbox           |
|  \\    /   O peration     | Version:  2306                                  |
|   \\  /    A nd           | Website:  www.openfoam.com                      |
|    \\/     M anipulation  |                                                 |
\*---------------------------------------------------------------------------*/
FoamFile
{
    version     2.0;
    format      ascii;
    arch        "LSB;label=32;scalar=64";
    class       volScalarField;
    location    "0.00178";
    object      prefDZ_T;
}
// * * * * * * * * * * * * * * * * * * * * * * * * * * * * * * * * * * * * * //

dimensions      [1 -1 -1 -1 0 0 0];

internalField   nonuniform List<scalar> 
531
(
-1.22869099e-09
-1.19765949e-09
-1.18512052e-09
-1.18500348e-09
-1.23021159e-09
-1.22877502e-09
-1.22848187e-09
-1.22861918e-09
-1.19061389e-09
-1.18675743e-09
-1.18484621e-09
-1.1848265e-09
-1.23080212e-09
-1.22821789e-09
-1.18760662e-09
-1.18752614e-09
-1.23042027e-09
-1.2265185e-09
-1.22874954e-09
-1.19732817e-09
-1.18473582e-09
-1.18552414e-09
-1.22980321e-09
-1.22693845e-09
-1.22789463e-09
-1.19295352e-09
-1.18805519e-09
-1.18499455e-09
-1.18492193e-09
-1.23117141e-09
-1.22831508e-09
-1.1856229e-09
-1.18478579e-09
-1.23151078e-09
-1.2280473e-09
-1.22874391e-09
-1.22764777e-09
-1.19081749e-09
-1.18804717e-09
-1.2282329e-09
-1.22714879e-09
-1.19288383e-09
-1.18892476e-09
-1.18573637e-09
-1.18593585e-09
-1.23031592e-09
-1.22688526e-09
-1.22878263e-09
-1.19274082e-09
-1.18769743e-09
-1.22859e-09
-1.22694607e-09
-1.18955572e-09
-1.18980997e-09
-1.22916818e-09
-1.19413837e-09
-1.18667442e-09
-1.22947199e-09
-1.2268157e-09
-1.22804446e-09
-1.20492568e-09
-1.18844103e-09
-1.18623317e-09
-1.18629897e-09
-1.2298619e-09
-1.22670207e-09
-1.2279189e-09
-1.19617314e-09
-1.18643719e-09
-1.1864333e-09
-1.22831942e-09
-1.22807643e-09
-1.20083708e-09
-1.18607445e-09
-1.18740662e-09
-1.22970638e-09
-1.19566208e-09
-1.18507281e-09
-1.22825048e-09
-1.2285339e-09
-1.19163207e-09
-1.18368946e-09
-1.18351616e-09
-1.23024598e-09
-1.22865477e-09
-1.22837267e-09
-1.22832705e-09
-1.20951022e-09
-1.18606097e-09
-1.18610709e-09
-1.22920909e-09
-1.2267688e-09
-1.22761929e-09
-1.19602749e-09
-1.1871746e-09
-1.18712778e-09
-1.22822483e-09
-1.22792366e-09
-1.19969555e-09
-1.18632537e-09
-1.18767123e-09
-1.22961716e-09
-1.1960233e-09
-1.18546419e-09
-1.22817585e-09
-1.2285013e-09
-1.19311473e-09
-1.18499865e-09
-1.18543255e-09
-1.22969454e-09
-1.22727258e-09
-1.22771282e-09
-1.19062481e-09
-1.18774618e-09
-1.18358471e-09
-1.18352715e-09
-1.23193354e-09
-1.22878561e-09
-1.22982518e-09
-1.22826827e-09
-1.18769269e-09
-1.18626628e-09
-1.23152506e-09
-1.22717568e-09
-1.22975795e-09
-1.22641366e-09
-1.22811728e-09
-1.19253031e-09
-1.18591838e-09
-1.18546375e-09
-1.22952023e-09
-1.22891747e-09
-1.19079653e-09
-1.18211306e-09
-1.1829665e-09
-1.23099868e-09
-1.22826261e-09
-1.2293213e-09
-1.18837148e-09
-1.18513915e-09
-1.23038364e-09
-1.2284868e-09
-1.22796714e-09
-1.22809528e-09
-1.19352478e-09
-1.18807205e-09
-1.18521972e-09
-1.18546831e-09
-1.23113465e-09
-1.22752679e-09
-1.22940438e-09
-1.19065666e-09
-1.18146225e-09
-1.18235748e-09
-1.23120792e-09
-1.22851791e-09
-1.22939386e-09
-1.2274771e-09
-1.2276156e-09
-1.1903447e-09
-1.18802506e-09
-1.18373585e-09
-1.18393065e-09
-1.23126824e-09
-1.22822449e-09
-1.22945928e-09
-1.22717488e-09
-1.227722e-09
-1.19106371e-09
-1.18838512e-09
-1.18493635e-09
-1.18509527e-09
-1.23071083e-09
-1.22841451e-09
-1.22811788e-09
-1.22801681e-09
-1.19358734e-09
-1.18800533e-09
-1.1854421e-09
-1.18549606e-09
-1.23067862e-09
-1.22807874e-09
-1.22805585e-09
-1.22760594e-09
-1.19614464e-09
-1.18878848e-09
-1.18700994e-09
-1.18686658e-09
-1.23008879e-09
-1.2277409e-09
-1.18859635e-09
-1.18702945e-09
-1.22950637e-09
-1.22791595e-09
-1.18940818e-09
-1.18661324e-09
-1.22879768e-09
-1.22873289e-09
-1.19116553e-09
-1.1838327e-09
-1.18431495e-09
-1.23032571e-09
-1.22772199e-09
-1.22855317e-09
-1.22667506e-09
-1.22673523e-09
-1.19477137e-09
-1.189777e-09
-1.18714688e-09
-1.18708918e-09
-1.22984229e-09
-1.22757139e-09
-1.1878659e-09
-1.1878793e-09
-1.23017302e-09
-1.22676538e-09
-1.22833494e-09
-1.19098129e-09
-1.18713382e-09
-1.18364561e-09
-1.18377961e-09
-1.23149088e-09
-1.22907591e-09
-1.22883517e-09
-1.22887447e-09
-1.19046879e-09
-1.18261205e-09
-1.18267867e-09
-1.23056998e-09
-1.22847376e-09
-1.22867231e-09
-1.22760142e-09
-1.1898859e-09
-1.18942271e-09
-1.22978014e-09
-1.19102593e-09
-1.18627209e-09
-1.23000677e-09
-1.22691302e-09
-1.22877346e-09
-1.19576944e-09
-1.18693578e-09
-1.18492337e-09
-1.18505627e-09
-1.23115016e-09
-1.22850383e-09
-1.22836826e-09
-1.22817507e-09
-1.1928353e-09
-1.1880083e-09
-1.18533469e-09
-1.18550807e-09
-1.23111928e-09
-1.22791428e-09
-1.22962511e-09
-1.18936533e-09
-1.18598351e-09
-1.23098625e-09
-1.22825083e-09
-1.22990345e-09
-1.2278252e-09
-1.22204494e-09
-1.18870558e-09
-1.18785267e-09
-1.18493898e-09
-1.18486481e-09
-1.23035345e-09
-1.22839466e-09
-1.18771814e-09
-1.18635082e-09
-1.2305121e-09
-1.22799122e-09
-1.1868378e-09
-1.18679086e-09
-1.2311915e-09
-1.22782079e-09
-1.22966414e-09
-1.18846235e-09
-1.18596379e-09
-1.23143306e-09
-1.22807233e-09
-1.23003029e-09
-1.22751482e-09
-1.2285061e-09
-1.18966189e-09
-1.18647996e-09
-1.1848422e-09
-1.18505939e-09
-1.23043803e-09
-1.22829073e-09
-1.1876441e-09
-1.18767138e-09
-1.23027252e-09
-1.22677132e-09
-1.22843294e-09
-1.20407609e-09
-1.18675945e-09
-1.18766463e-09
-1.18325178e-09
-1.18313482e-09
-1.23096691e-09
-1.22896615e-09
-1.22855663e-09
-1.22856142e-09
-1.1898406e-09
-1.18524202e-09
-1.22851853e-09
-1.22885151e-09
-1.19047002e-09
-1.2297828e-09
-1.22626432e-09
-1.18979284e-09
-1.18849314e-09
-1.1852046e-09
-1.18512279e-09
-1.23007757e-09
-1.22739935e-09
-1.22837797e-09
-1.18953471e-09
-1.18857567e-09
-1.22944435e-09
-1.19048901e-09
-1.18578814e-09
-1.22973621e-09
-1.22682455e-09
-1.22836345e-09
-1.19154036e-09
-1.18662438e-09
-1.22776996e-09
-1.22797726e-09
-1.19349704e-09
-1.18634268e-09
-1.18599816e-09
-1.22833541e-09
-1.22759266e-09
-1.19028547e-09
-1.18740046e-09
-1.22791586e-09
-1.22780022e-09
-1.19340805e-09
-1.18642305e-09
-1.18597949e-09
-1.22871769e-09
-1.2272734e-09
-1.1895357e-09
-1.18779348e-09
-1.22905367e-09
-1.22689294e-09
-1.18847324e-09
-1.18844575e-09
-1.22935481e-09
-1.22606998e-09
-1.2276986e-09
-1.19660751e-09
-1.18631588e-09
-1.18623307e-09
-1.22811068e-09
-1.22803241e-09
-1.19186881e-09
-1.18555813e-09
-1.18518499e-09
-1.22889072e-09
-1.22754229e-09
-1.18935511e-09
-1.18712625e-09
-1.22920736e-09
-1.22706083e-09
-1.18893401e-09
-1.1879905e-09
-1.22921768e-09
-1.22678994e-09
-1.18893961e-09
-1.18880788e-09
-1.22918085e-09
-1.20031547e-09
-1.18552515e-09
-1.22800489e-09
-1.22816538e-09
-1.1920393e-09
-1.18498809e-09
-1.18578607e-09
-1.22955283e-09
-1.22719021e-09
-1.22788042e-09
-1.18999424e-09
-1.18877273e-09
-1.22959298e-09
-1.22632116e-09
-1.22815631e-09
-1.19341438e-09
-1.18605213e-09
-1.18587314e-09
-1.22833172e-09
-1.2280279e-09
-1.19300354e-09
-1.1863842e-09
-1.18617297e-09
-1.22839104e-09
-1.22799236e-09
-1.19237235e-09
-1.1858335e-09
-1.18562557e-09
-1.22868957e-09
-1.22838164e-09
-1.19058342e-09
-1.18403893e-09
-1.18396705e-09
-1.22946302e-09
-1.22782213e-09
-1.2274504e-09
-1.22714957e-09
-1.19278169e-09
-1.18866312e-09
-1.22787361e-09
-1.22624844e-09
-1.19092946e-09
-1.18998133e-09
-1.227703e-09
-1.22582602e-09
-1.20107986e-09
-1.1903455e-09
-1.18836305e-09
-1.18812029e-09
-1.22845199e-09
-1.2265282e-09
-1.19044297e-09
-1.18898558e-09
-1.22793977e-09
-1.22645576e-09
-1.19368543e-09
-1.18924426e-09
-1.18724506e-09
-1.18711126e-09
-1.22943074e-09
-1.22714935e-09
-1.18797867e-09
-1.18789203e-09
-1.23013076e-09
-1.22675155e-09
-1.22844329e-09
-1.20900309e-09
-1.1856695e-09
-1.18654165e-09
-1.22909138e-09
-1.18979614e-09
-1.18683545e-09
-1.22973351e-09
-1.22650431e-09
-1.22804486e-09
-1.19796056e-09
-1.18565109e-09
-1.18725952e-09
-1.22914246e-09
-1.18994519e-09
-1.1868565e-09
-1.22973499e-09
-1.22658091e-09
-1.22806342e-09
-1.19484442e-09
-1.18528483e-09
-1.18686422e-09
-1.22942887e-09
-1.18929602e-09
-1.18608407e-09
-1.23053985e-09
-1.22687187e-09
-1.22912856e-09
-1.1912703e-09
-1.18662452e-09
-1.22897527e-09
-1.22739089e-09
-1.18854987e-09
-1.18865739e-09
-1.22992553e-09
-1.22614981e-09
-1.22812767e-09
-1.1969867e-09
-1.18765989e-09
-1.186256e-09
-1.18619106e-09
-1.23032846e-09
-1.22763127e-09
-1.18673597e-09
-1.18665419e-09
-1.23052307e-09
-1.22658012e-09
-1.22867359e-09
-1.1910008e-09
-1.18686273e-09
-1.22840561e-09
-1.22732316e-09
-1.19023304e-09
-1.18849713e-09
-1.22817998e-09
-1.2268595e-09
-1.19290559e-09
-1.18901432e-09
-1.18727161e-09
-1.18711988e-09
-1.22942466e-09
-1.22714374e-09
-1.18900579e-09
-1.18768512e-09
-1.22924718e-09
-1.22686906e-09
-1.18954274e-09
-1.18832665e-09
-1.228836e-09
-1.2266602e-09
-1.19032722e-09
-1.18911248e-09
-1.22817374e-09
-1.2265538e-09
-1.19414843e-09
-1.18957691e-09
-1.18779578e-09
-1.18775159e-09
-1.22911662e-09
-1.227387e-09
-1.18985364e-09
-1.18760393e-09
-1.22848603e-09
-1.22804074e-09
-1.1921966e-09
-1.18603842e-09
-1.18553814e-09
-1.22955307e-09
-1.22759526e-09
-1.18802308e-09
-1.18702281e-09
-1.23094873e-09
)
;

boundaryField
{
    closed
    {
        type            calculated;
        value           nonuniform List<scalar> 0();
    }
    open
    {
        type            calculated;
        value           nonuniform List<scalar> 0();
    }
    sides
    {
        type            empty;
    }
    procBoundary3to2
    {
        type            processor;
        value           uniform -1.2264767e-09;
    }
    procBoundary3to4
    {
        type            processor;
        value           uniform -1.22705972e-09;
    }
}


// ************************************************************************* //
