/*--------------------------------*- C++ -*----------------------------------*\
| =========                 |                                                 |
| \\      /  F ield         | OpenFOAM: The Open Source CFD Toolbox           |
|  \\    /   O peration     | Version:  2306                                  |
|   \\  /    A nd           | Website:  www.openfoam.com                      |
|    \\/     M anipulation  |                                                 |
\*---------------------------------------------------------------------------*/
FoamFile
{
    version     2.0;
    format      ascii;
    arch        "LSB;label=32;scalar=64";
    class       volScalarField;
    location    "0.00072";
    object      H2O;
}
// * * * * * * * * * * * * * * * * * * * * * * * * * * * * * * * * * * * * * //

dimensions      [0 0 0 0 0 0 0];

internalField   nonuniform List<scalar> 
531
(
0.00698054332
0.00716468816
0.00239944905
0.000998716292
0.00309345617
0.0069583127
0.00716854574
0.0025769494
0.000936023795
0.00483960821
0.00710169834
0.0044012704
0.000811357542
0.00505006174
0.00685900112
0.00357140946
0.000947047701
0.00272804625
0.0069368507
0.00719806585
0.00301673798
0.000958998413
0.0028523076
0.006874759
0.00746324795
0.00600432618
0.000800040377
0.000990515956
0.00098333605
0.00105197667
0.000848889207
0.0058450513
0.00683680328
0.00689081299
0.00721482671
0.00727246572
0.00365545215
0.000982817123
0.00104441295
0.00651561859
0.00706816892
0.00432872715
0.00095223694
0.00105862991
0.00353474156
0.00704031325
0.00724221913
0.00295817396
0.000937301398
0.00358592105
0.00711000611
0.0071596971
0.00204452195
0.000930368107
0.00387573595
0.00702465092
0.00745100889
0.0055657476
0.000849595062
0.000980316873
0.00101813458
0.00102188803
0.00481379638
0.00669930187
0.0070914718
0.00741802416
0.00634610844
0.000804141602
0.0010371688
0.00327951087
0.00695935679
0.00697022227
0.00104665309
0.000767091493
0.00635807627
0.00661451799
0.00187175519
0.00102436843
0.00209504974
0.00645855986
0.00733545651
0.00718812068
0.00157261324
0.000958492958
0.00415118534
0.00710805559
0.00697639665
0.00107251556
0.000964172414
0.00450623328
0.00701339946
0.00657371194
0.000796706053
0.000994306107
0.00461915669
0.00719299921
0.0069580863
0.000731591848
0.000954664011
0.00492454971
0.00704762716
0.00637505286
0.000831455268
0.00100959641
0.00455814621
0.00713737513
0.00688953707
0.000771873921
0.000927502836
0.00521315541
0.00715161181
0.00680906773
0.000749303297
0.00084497656
0.00536045711
0.00586141527
0.00510772583
0.00535628542
0.00559521872
0.00343239902
0.00196637827
0.00483719741
0.00688977398
0.0059303243
0.000869417434
0.00115319818
0.00686709498
0.00683061699
0.000812459958
0.0009054424
0.00601182082
0.00711488705
0.00507757916
0.000912299107
0.00184753565
0.00695170627
0.00685680509
0.000812951978
0.000941441313
0.00554522785
0.00718372774
0.0062720694
0.000869605717
0.000813701663
0.00675676307
0.00680178266
0.000789002445
0.000977976217
0.00507335947
0.00718507031
0.00666828767
0.000831357808
0.000972381404
0.00528367657
0.0071712951
0.00652347851
0.000858721729
0.000968321786
0.0052310838
0.00700086391
0.00633777155
0.00102772311
0.000899620337
0.0054458309
0.00606401395
0.00606903481
0.00524490837
0.00185929475
0.00167573228
0.00533316962
0.006777846
0.00604660172
0.000843269874
0.00085321077
0.00639180789
0.00705134342
0.00350551554
0.000921016235
0.00370757113
0.00695134949
0.00688135887
0.0007514373
0.000932975487
0.00514284473
0.00668360552
0.0055789911
0.00224599624
0.00269972743
0.00560431217
0.00578404385
0.00432964419
0.00342540928
0.0042244843
0.00511479861
0.00495224427
0.00422562728
0.00414831891
0.0045457265
0.00471622251
0.00457799686
0.00440484047
0.00442935512
0.00454550993
0.00455556575
0.00450622983
0.00448391524
0.00449827286
0.00451628887
0.00451448404
0.00450456126
0.00450354441
0.00450686362
0.00450854233
0.00450775549
0.00450670141
0.00450675626
0.00450722377
0.00450727916
0.00450715894
0.00450709174
0.00450711326
0.00450714525
0.00450714515
0.00450713422
0.00450713274
0.00450713477
0.00450713601
0.00450713574
0.0045071353
0.00450713542
0.00450713559
0.00450713518
0.00450713477
0.0045071358
0.00450713786
0.00450713581
0.00450712766
0.00450712959
0.00450715834
0.00450716009
0.00450707834
0.00450705858
0.00450725214
0.00450735511
0.00450694095
0.00450655975
0.00450734627
0.00450852349
0.00450724902
0.00450406644
0.004505553
0.00451346426
0.00451303927
0.00449518158
0.00449336001
0.0045246632
0.00453571676
0.00448778085
0.00445228225
0.00451636844
0.00460300602
0.00453446347
0.00435647671
0.00439645393
0.00471807014
0.00473684463
0.00426645249
0.00413286627
0.00465166973
0.00502153846
0.00457113637
0.00379162967
0.00411453807
0.00521286992
0.00523488815
0.00379679208
0.00345154668
0.00472765217
0.00549877008
0.00482551253
0.00334648132
0.0036734959
0.00526789842
0.00538104947
0.00418047842
0.00349444938
0.00435627947
0.00520809079
0.00499344113
0.00399093938
0.00390340113
0.00468067559
0.00499028043
0.00462830318
0.00409777227
0.00420854851
0.00479362857
0.00483979412
0.0043679711
0.00413559016
0.00448796506
0.00487506685
0.00469797829
0.00410639416
0.00412868416
0.00484574416
0.00494319012
0.00435083955
0.00397317609
0.00443275347
0.00497009837
0.00480477693
0.00410154853
0.00407661077
0.00471485009
0.00487336397
0.00452685076
0.00419965118
0.00435682439
0.00469978203
0.00469382464
0.00441519269
0.00436579644
0.00449914026
0.0045967555
0.0045512028
0.00446163307
0.00446197615
0.00452321606
0.00453324638
0.00451111997
0.00449417204
0.0044998727
0.00451206692
0.0045123129
0.00450614516
0.00450485554
0.00450673955
0.00450789731
0.00450717657
0.00450670151
0.00450785551
0.00450842264
0.00450560694
0.00450366165
0.00450885727
0.00451485638
0.00450737668
0.00449179715
0.00449946267
0.00453496758
0.00453383294
0.00446192491
0.00445376519
0.00455727761
0.00460134468
0.004475543
0.00435164714
0.00447837666
0.00473452469
0.00466359177
0.004195633
0.00417280803
0.00480882718
0.0049600848
0.00437169439
0.00385299604
0.00435347741
0.00518831447
0.00506704826
0.0037331179
0.00358437715
0.0048688785
0.00543497925
0.00472025834
0.00331892291
0.00370672499
0.00548141288
0.00563176036
0.00369633695
0.00289502438
0.00472814762
0.00604830454
0.00477967909
0.00233951665
0.00375904806
0.00666923586
0.00626223771
0.000811489293
0.000864466344
0.00687059245
0.00714920727
0.00197641404
0.00100372524
0.00589741334
0.00725131818
0.0033885555
0.000952310608
0.0052392961
0.00696173875
0.00356897835
0.000970487372
0.00293711014
0.00709169283
0.00732451892
0.00230879635
0.000988776384
0.00561948856
0.00705055434
0.00260916345
0.000981645648
0.00546165497
0.0069850854
0.00341283045
0.000977734663
0.00303675322
0.00714779796
0.0073440062
0.00207072718
0.00100031182
0.00552296209
0.00692569369
0.00327967646
0.000998531401
0.00266590457
0.00704633395
0.00721959465
0.00227811989
0.00103338457
0.00252577187
0.0065740904
0.00712459898
0.00623294228
0.000913895512
0.00105790271
0.00472224446
0.00739713288
0.0074685597
0.00203671424
0.000994284872
0.00562950958
0.00711245402
0.00315804302
0.000982332922
0.00521460813
0.00710491159
0.00371131305
0.000976915066
0.00434654386
0.00708893992
0.00608988865
0.000930262708
0.000918971154
0.00683638256
0.00743597213
0.0020996343
0.0009975601
0.00559419964
0.00717477053
0.00368295059
0.00097351602
0.00503153351
0.00718725382
0.00396124452
0.00096531898
0.00502640005
0.00722196694
0.00372295515
0.000967194687
0.00530759807
0.00712021805
0.00353909405
0.00100426175
0.00313181085
0.00726491486
0.00717073365
0.000834776062
0.0010433357
0.00445810134
0.00726196962
0.00710800802
0.000862036067
0.00104013491
0.00442213833
0.00732163224
0.00696980559
0.000870078032
0.0010445467
0.00103321766
0.0021980835
0.00638552967
0.00692355229
0.00757839609
0.00740804236
0.000808193721
0.00100644302
0.00492033149
0.0073777181
0.00708549605
0.00092140638
0.00103863872
0.00453586069
0.00719873277
0.00690120906
0.000943210821
0.00104406537
0.00458594659
0.00724590331
0.0069482444
0.000941921789
0.001028774
0.00488729174
0.00735872947
0.007005735
0.000935036672
0.00102414517
0.00484492597
0.00738349172
0.00710191569
0.000853246539
0.0010368699
0.00414885203
0.00702642696
0.00695790784
0.00260610962
0.00103943266
0.00104788512
0.00228853328
0.00667887461
0.00764606192
0.0072641656
)
;

boundaryField
{
    closed
    {
        type            calculated;
        value           nonuniform List<scalar> 0();
    }
    open
    {
        type            calculated;
        value           nonuniform List<scalar> 0();
    }
    sides
    {
        type            empty;
    }
    procBoundary3to2
    {
        type            processor;
        value           uniform 0.00329670926;
    }
    procBoundary3to4
    {
        type            processor;
        value           uniform 0.000888325879;
    }
}


// ************************************************************************* //
