/*--------------------------------*- C++ -*----------------------------------*\
| =========                 |                                                 |
| \\      /  F ield         | OpenFOAM: The Open Source CFD Toolbox           |
|  \\    /   O peration     | Version:  2306                                  |
|   \\  /    A nd           | Website:  www.openfoam.com                      |
|    \\/     M anipulation  |                                                 |
\*---------------------------------------------------------------------------*/
FoamFile
{
    version     2.0;
    format      ascii;
    arch        "LSB;label=32;scalar=64";
    class       volScalarField;
    location    "0.00072";
    object      T;
}
// * * * * * * * * * * * * * * * * * * * * * * * * * * * * * * * * * * * * * //

dimensions      [0 0 0 1 0 0 0];

internalField   nonuniform List<scalar> 
531
(
325.574688
324.190097
333.533457
339.580558
332.064902
325.740588
324.158862
333.104445
339.550981
329.391109
324.661802
329.546707
338.760545
329.014671
326.484512
330.899557
339.333974
332.792999
325.895379
323.941539
332.073027
339.657249
332.533382
326.336493
321.927244
328.143061
337.836331
340.158516
338.894131
339.888855
337.933744
328.843207
326.653009
326.237785
323.818384
323.375717
330.797372
339.427925
337.047747
328.966798
324.915305
329.673862
339.292982
339.957842
331.185595
325.127916
323.604611
332.231467
339.566324
331.065159
324.60424
324.229214
334.42831
339.60737
330.653578
325.244475
322.013756
328.456927
338.737278
339.941319
339.610242
339.796819
329.401279
327.672775
324.745104
322.245592
328.596073
338.287128
340.124739
331.685014
325.734731
325.653148
337.173806
338.286436
329.70291
328.296104
334.853649
340.217598
334.238454
329.036684
322.871098
324.009517
335.69324
339.497865
330.236707
324.606848
325.606387
337.114822
339.663546
329.827566
325.323206
328.573564
338.655063
339.813073
329.717023
323.959085
325.741481
338.373179
339.834047
329.415099
325.06572
329.006777
338.794335
339.892056
329.786581
324.384491
326.25507
338.714005
339.500662
329.334935
324.256476
326.864882
338.689484
339.617193
329.291159
329.505481
329.44123
329.372462
329.412748
331.327855
334.597234
329.393071
326.258911
329.06195
338.956589
336.871866
326.426921
326.700859
338.962192
339.575441
328.989756
324.553696
329.119921
339.147276
334.931283
325.79213
326.501642
339.03733
339.7805
329.044619
324.028705
329.224591
338.840691
339.023058
327.242001
326.912345
338.983941
340.070431
329.212101
324.02728
327.883374
338.93165
340.047191
329.089272
324.133341
328.929384
338.986364
340.020818
329.101927
325.418105
329.421114
337.28263
337.677875
329.312961
329.365236
329.445532
329.326724
334.911254
335.387738
329.080988
327.099888
329.262582
338.952789
339.515929
329.011404
325.037662
331.056487
339.321806
330.884741
325.794883
326.321642
338.632423
340.301959
329.091022
327.789699
329.017498
333.91099
332.821701
329.007255
328.973901
329.829955
331.282746
329.953846
329.063413
329.158155
329.943652
330.047898
329.534743
329.353234
329.495727
329.698571
329.667512
329.530178
329.518489
329.574753
329.600815
329.583839
329.562819
329.564878
329.576384
329.577558
329.573682
329.571724
329.572636
329.573861
329.573796
329.573251
329.573186
329.573326
329.573404
329.573379
329.573341
329.573341
329.573354
329.573356
329.573353
329.573352
329.573352
329.573353
329.573353
329.573352
329.573353
329.573353
329.573352
329.57335
329.573352
329.573362
329.573359
329.573326
329.573324
329.573419
329.573442
329.573217
329.573097
329.573579
329.574023
329.573108
329.571739
329.573221
329.576933
329.575198
329.566015
329.566508
329.587347
329.589506
329.553115
329.540555
329.596076
329.638741
329.562744
329.466342
329.542291
329.75907
329.708499
329.348325
329.331796
329.877269
330.069015
329.414535
329.102004
329.504095
330.608645
330.099181
328.98935
328.984763
330.593641
331.22338
329.342271
328.912022
329.258926
331.425477
330.813552
328.966506
328.925226
330.001198
331.139964
329.764492
328.997004
329.118567
330.283859
330.420353
329.388673
329.1205
329.442221
330.119482
329.958771
329.278007
329.236757
329.74422
330.063167
329.597143
329.20785
329.369395
330.10546
330.073269
329.229715
329.15318
329.765654
330.308789
329.663844
329.133076
329.26774
330.112392
330.148784
329.351365
329.20778
329.552035
329.970636
329.758251
329.366429
329.371346
329.684591
329.746447
329.583093
329.472798
329.523051
329.62737
329.626834
329.554842
329.5433
329.568761
329.588536
329.581842
329.567635
329.567344
329.57451
329.576011
329.573815
329.572467
329.573306
329.573859
329.572516
329.571857
329.575134
329.577406
329.571353
329.564407
329.573082
329.591341
329.582342
329.54137
329.542698
329.626934
329.636922
329.516128
329.46814
329.610681
329.765406
329.607885
329.333201
329.404338
329.976687
330.010763
329.261269
329.144358
329.738719
330.505785
329.767302
329.00476
329.081771
330.705829
330.975563
329.209189
328.934567
329.364124
331.486578
330.769886
328.945727
328.956725
330.776046
332.386089
329.38262
329.290378
329.353736
333.674347
330.745569
327.908666
329.534443
338.195688
337.645681
326.398824
324.303439
334.582111
339.812284
329.004983
323.549207
331.248703
339.461955
329.267688
325.716315
330.91869
339.105144
332.364267
324.740333
322.994278
333.759936
339.831682
329.278852
325.051425
333.00949
339.781762
329.203444
325.541196
331.226601
339.226383
332.163737
324.317108
322.849998
334.376473
339.909806
329.221878
325.983824
331.504487
339.240628
332.931992
325.080598
323.778098
333.841166
339.787807
333.239549
328.534452
324.487799
329.05579
338.792334
340.037682
329.792184
322.422406
321.902486
334.457107
339.710523
329.301951
324.586435
331.772581
339.586692
329.212552
324.642614
330.663323
339.489217
329.919464
324.757426
329.16595
338.953862
339.710549
326.649986
322.123178
334.302416
339.63629
329.168726
324.116036
330.7602
339.599
329.195508
324.021557
330.263894
339.626098
329.13599
323.76195
330.657339
339.744154
328.9312
324.527123
331.0128
339.464062
331.92959
323.420476
324.149931
339.690195
339.569218
330.052243
323.451343
324.621407
339.948548
339.525299
329.993361
322.995781
325.653636
339.849354
339.464353
339.084611
334.015101
330.02402
326.004241
321.004183
322.351411
339.773726
339.338783
329.678929
322.563463
324.790094
340.175768
339.52941
329.889786
323.931214
326.16451
340.268303
339.584837
329.823925
323.576062
325.814239
340.371002
339.594498
329.537559
322.71914
325.385361
340.391903
339.616861
329.554576
322.516084
324.668453
339.966456
339.867425
330.30609
325.231864
325.744007
333.041523
339.419158
339.691833
333.783884
327.817238
320.456842
323.441237
)
;

boundaryField
{
    closed
    {
        type            fixedValue;
        value           nonuniform List<scalar> 0();
    }
    open
    {
        type            zeroGradient;
    }
    sides
    {
        type            empty;
    }
    procBoundary3to2
    {
        type            processor;
        value           uniform 331.686301;
    }
    procBoundary3to4
    {
        type            processor;
        value           uniform 339.50872;
    }
}


// ************************************************************************* //
