/*--------------------------------*- C++ -*----------------------------------*\
| =========                 |                                                 |
| \\      /  F ield         | OpenFOAM: The Open Source CFD Toolbox           |
|  \\    /   O peration     | Version:  2306                                  |
|   \\  /    A nd           | Website:  www.openfoam.com                      |
|    \\/     M anipulation  |                                                 |
\*---------------------------------------------------------------------------*/
FoamFile
{
    version     2.0;
    format      ascii;
    arch        "LSB;label=32;scalar=64";
    class       volVectorField;
    location    "0.00072";
    object      U;
}
// * * * * * * * * * * * * * * * * * * * * * * * * * * * * * * * * * * * * * //

dimensions      [0 1 -1 0 0 0 0];

internalField   nonuniform List<vector> 
531
(
(3.44807126 0 0)
(3.41056539 0 0)
(3.32005374 0 0)
(3.1523274 0 0)
(3.05496446 0 0)
(2.99953832 0 0)
(2.94865638 0 0)
(2.84789658 0 0)
(2.67374686 0 0)
(2.54005476 0 0)
(2.44984448 0 0)
(2.3918554 0 0)
(2.2793344 0 0)
(2.17039639 0 0)
(2.08162912 0 0)
(2.00226874 0 0)
(1.87442382 0 0)
(1.79472577 0 0)
(1.74295618 0 0)
(1.69050801 0 0)
(1.59965928 0 0)
(1.47119485 0 0)
(1.40225461 0 0)
(1.35206469 0 0)
(1.29739808 0 0)
(1.25039248 0 0)
(1.20306568 0 0)
(1.16799417 0 0)
(1.11734099 0 0)
(1.05441218 0 0)
(1.0161052 0 0)
(1.00341022 0 0)
(0.941980936 0 0)
(0.892261592 0 0)
(0.864243903 0 0)
(0.863677552 0 0)
(0.822772659 0 0)
(0.761922763 0 0)
(0.777183845 0 0)
(0.804451312 0 0)
(0.780893024 0 0)
(0.755349557 0 0)
(0.722611011 0 0)
(0.697807471 0 0)
(0.691479296 0 0)
(0.692698237 0 0)
(0.71526839 0 0)
(0.696493355 0 0)
(0.65782795 0 0)
(0.66177376 0 0)
(0.66969109 0 0)
(0.687087816 0 0)
(0.672326925 0 0)
(0.650725605 0 0)
(0.657801016 0 0)
(0.657413618 0 0)
(0.665599167 0 0)
(0.68242716 0 0)
(0.680765951 0 0)
(0.694097686 0 0)
(0.701927061 0 0)
(0.675907127 0 0)
(0.680692722 0 0)
(0.667405387 0 0)
(0.664203905 0 0)
(0.664480555 0 0)
(0.674315119 0 0)
(0.687932002 0 0)
(0.689756043 0 0)
(0.687696847 0 0)
(0.686362818 0 0)
(0.67776414 0 0)
(0.66171808 0 0)
(0.68538651 0 0)
(0.704906882 0 0)
(0.686823834 0 0)
(0.660753701 0 0)
(0.64577157 0 0)
(0.660632277 0 0)
(0.663914436 0 0)
(0.654585568 0 0)
(0.636740937 0 0)
(0.624291405 0 0)
(0.619757689 0 0)
(0.616012798 0 0)
(0.604297532 0 0)
(0.581856636 0 0)
(0.580409344 0 0)
(0.590959718 0 0)
(0.587137274 0 0)
(0.572937372 0 0)
(0.553963497 0 0)
(0.550372497 0 0)
(0.558161688 0 0)
(0.554213531 0 0)
(0.542331093 0 0)
(0.521996936 0 0)
(0.522591127 0 0)
(0.539659163 0 0)
(0.537353363 0 0)
(0.523505334 0 0)
(0.528740445 0 0)
(0.546339833 0 0)
(0.558978103 0 0)
(0.564931885 0 0)
(0.564073928 0 0)
(0.55890716 0 0)
(0.562491548 0 0)
(0.588609131 0 0)
(0.600312204 0 0)
(0.597509704 0 0)
(0.587677901 0 0)
(0.589104128 0 0)
(0.626619216 0 0)
(0.649924201 0 0)
(0.645217832 0 0)
(0.651653657 0 0)
(0.662555471 0 0)
(0.677467342 0 0)
(0.688205075 0 0)
(0.701644242 0 0)
(0.720261175 0 0)
(0.722033934 0 0)
(0.741900844 0 0)
(0.7565527 0 0)
(0.817112816 0 0)
(0.863175478 0 0)
(0.83196871 0 0)
(0.820215441 0 0)
(0.838098036 0 0)
(0.834851021 0 0)
(0.826034452 0 0)
(0.833522315 0 0)
(0.835728594 0 0)
(0.871910482 0 0)
(0.902637866 0 0)
(0.874868635 0 0)
(0.867228208 0 0)
(0.88005774 0 0)
(0.872198875 0 0)
(0.864474853 0 0)
(0.882720945 0 0)
(0.905661157 0 0)
(0.940961008 0 0)
(0.972602147 0 0)
(0.975930047 0 0)
(0.983812151 0 0)
(0.98765296 0 0)
(0.984711493 0 0)
(0.993784424 0 0)
(0.995633965 0 0)
(1.01449386 0 0)
(1.04465883 0 0)
(1.05234457 0 0)
(1.06338008 0 0)
(1.06285811 0 0)
(1.07493609 0 0)
(1.10390382 0 0)
(1.11106612 0 0)
(1.11503794 0 0)
(1.13642316 0 0)
(1.18420577 0 0)
(1.25295217 0 0)
(1.27969967 0 0)
(1.27330338 0 0)
(1.2829423 0 0)
(1.29508496 0 0)
(1.32635258 0 0)
(1.37303856 0 0)
(1.39490225 0 0)
(1.39297163 0 0)
(1.40680544 0 0)
(1.44489944 0 0)
(1.47984839 0 0)
(1.47067102 0 0)
(1.45400965 0 0)
(1.45491064 0 0)
(1.44982204 0 0)
(1.46796077 0 0)
(1.49797063 0 0)
(1.50168541 0 0)
(1.52420484 0 0)
(1.5556844 0 0)
(1.55725351 0 0)
(1.57180894 0 0)
(1.59352663 0 0)
(1.62551291 0 0)
(1.66389639 0 0)
(1.68641009 0 0)
(1.68984553 0 0)
(1.69238878 0 0)
(1.69178218 0 0)
(1.69338733 0 0)
(1.69064519 0 0)
(1.68148272 0 0)
(1.67070141 0 0)
(1.65751403 0 0)
(1.64158741 0 0)
(1.62282759 0 0)
(1.60030467 0 0)
(1.57525698 0 0)
(1.54816053 0 0)
(1.51848021 0 0)
(1.48631885 0 0)
(1.45211155 0 0)
(1.41621003 0 0)
(1.37901147 0 0)
(1.34064574 0 0)
(1.30134882 0 0)
(1.26146061 0 0)
(1.22124829 0 0)
(1.1809256 0 0)
(1.14069172 0 0)
(1.10073382 0 0)
(1.0612278 0 0)
(1.02231361 0 0)
(0.984094648 0 0)
(0.946649086 0 0)
(0.910033223 0 0)
(0.874289277 0 0)
(0.839464704 0 0)
(0.805611662 0 0)
(0.772786711 0 0)
(0.741073254 0 0)
(0.710579797 0 0)
(0.6814228 0 0)
(0.653726449 0 0)
(0.627618616 0 0)
(0.603217172 0 0)
(0.580621919 0 0)
(0.559910526 0 0)
(0.541131887 0 0)
(0.524306497 0 0)
(0.509434242 0 0)
(0.496485978 0 0)
(0.485400766 0 0)
(0.476106371 0 0)
(0.468520855 0 0)
(0.462545741 0 0)
(0.458077795 0 0)
(0.455016057 0 0)
(0.453260097 0 0)
(0.452712211 0 0)
(0.4532817 0 0)
(0.454887859 0 0)
(0.457458948 0 0)
(0.460928859 0 0)
(0.465238264 0 0)
(0.470344591 0 0)
(0.476224862 0 0)
(0.482848317 0 0)
(0.490163229 0 0)
(0.498162173 0 0)
(0.506912495 0 0)
(0.516410013 0 0)
(0.526568638 0 0)
(0.537369562 0 0)
(0.548944476 0 0)
(0.561448867 0 0)
(0.574705707 0 0)
(0.588304554 0 0)
(0.602388387 0 0)
(0.617834394 0 0)
(0.634426961 0 0)
(0.650417054 0 0)
(0.666010225 0 0)
(0.682801872 0 0)
(0.701034187 0 0)
(0.718664455 0 0)
(0.734123136 0 0)
(0.748467104 0 0)
(0.766438571 0 0)
(0.78604072 0 0)
(0.799934927 0 0)
(0.810093819 0 0)
(0.8221264 0 0)
(0.836959581 0 0)
(0.848513214 0 0)
(0.853838858 0 0)
(0.85600634 0 0)
(0.864369783 0 0)
(0.876243754 0 0)
(0.878515078 0 0)
(0.873984644 0 0)
(0.869712848 0 0)
(0.868496265 0 0)
(0.866935596 0 0)
(0.859447809 0 0)
(0.848946926 0 0)
(0.84112429 0 0)
(0.834985867 0 0)
(0.826451025 0 0)
(0.815417426 0 0)
(0.80403574 0 0)
(0.795174257 0 0)
(0.788364052 0 0)
(0.780162358 0 0)
(0.771209738 0 0)
(0.764092886 0 0)
(0.759598608 0 0)
(0.756745048 0 0)
(0.753631142 0 0)
(0.751215862 0 0)
(0.752672207 0 0)
(0.757880464 0 0)
(0.762791587 0 0)
(0.767546353 0 0)
(0.775160247 0 0)
(0.78698321 0 0)
(0.801544523 0 0)
(0.81584298 0 0)
(0.83106919 0 0)
(0.851110319 0 0)
(0.875048992 0 0)
(0.899534177 0 0)
(0.924799464 0 0)
(0.952465494 0 0)
(0.984202293 0 0)
(1.01893797 0 0)
(1.05422141 0 0)
(1.09062706 0 0)
(1.13018704 0 0)
(1.17234092 0 0)
(1.21601628 0 0)
(1.26087318 0 0)
(1.30706729 0 0)
(1.35509085 0 0)
(1.40460443 0 0)
(1.45491169 0 0)
(1.50602413 0 0)
(1.55797324 0 0)
(1.61063531 0 0)
(1.66381083 0 0)
(1.71724309 0 0)
(1.77082619 0 0)
(1.82445048 0 0)
(1.8779323 0 0)
(1.93110669 0 0)
(1.98376874 0 0)
(2.03571239 0 0)
(2.08670973 0 0)
(2.13650372 0 0)
(2.18482875 0 0)
(2.23140481 0 0)
(2.27592229 0 0)
(2.31805267 0 0)
(2.35746566 0 0)
(2.39388293 0 0)
(2.42709472 0 0)
(2.45673259 0 0)
(2.48220818 0 0)
(2.50340065 0 0)
(2.52073492 0 0)
(2.53347519 0 0)
(2.54101851 0 0)
(2.54413141 0 0)
(2.54295861 0 0)
(2.53778318 0 0)
(2.52849898 0 0)
(2.51431678 0 0)
(2.49633504 0 0)
(2.47852298 0 0)
(2.45743699 0 0)
(2.43164828 0 0)
(2.40628302 0 0)
(2.38040017 0 0)
(2.35465176 0 0)
(2.32871834 0 0)
(2.30060498 0 0)
(2.27065532 0 0)
(2.24764742 0 0)
(2.22317252 0 0)
(2.19363731 0 0)
(2.16615333 0 0)
(2.13870677 0 0)
(2.11811106 0 0)
(2.10188527 0 0)
(2.08124455 0 0)
(2.05860716 0 0)
(2.041107 0 0)
(2.02135694 0 0)
(2.00721001 0 0)
(1.99743966 0 0)
(1.98624516 0 0)
(1.98341083 0 0)
(1.98430199 0 0)
(1.98784427 0 0)
(2.00003168 0 0)
(2.04325542 0 0)
(2.11511261 0 0)
(2.16469208 0 0)
(2.17119801 0 0)
(2.15129062 0 0)
(2.07479027 0 0)
(2.00966058 0 0)
(2.00645202 0 0)
(2.01506745 0 0)
(1.96738211 0 0)
(1.91231194 0 0)
(1.9073523 0 0)
(1.90492647 0 0)
(1.87177693 0 0)
(1.85683265 0 0)
(1.8650445 0 0)
(1.87280703 0 0)
(1.85411443 0 0)
(1.77613325 0 0)
(1.70603483 0 0)
(1.68405694 0 0)
(1.66909178 0 0)
(1.60105452 0 0)
(1.53196413 0 0)
(1.50680105 0 0)
(1.48364398 0 0)
(1.43478111 0 0)
(1.40370679 0 0)
(1.39241447 0 0)
(1.38325782 0 0)
(1.35511746 0 0)
(1.28136127 0 0)
(1.22050224 0 0)
(1.19460495 0 0)
(1.16528273 0 0)
(1.11520675 0 0)
(1.08735918 0 0)
(1.07249454 0 0)
(1.05245762 0 0)
(1.00602677 0 0)
(0.939505353 0 0)
(0.90720996 0 0)
(0.886573365 0 0)
(0.852337797 0 0)
(0.817775564 0 0)
(0.796854219 0 0)
(0.753751462 0 0)
(0.696050141 0 0)
(0.658233585 0 0)
(0.638089722 0 0)
(0.601134474 0 0)
(0.53633748 0 0)
(0.482418192 0 0)
(0.444776063 0 0)
(0.408687347 0 0)
(0.349552647 0 0)
(0.302444975 0 0)
(0.26493967 0 0)
(0.227242955 0 0)
(0.171688329 0 0)
(0.134033174 0 0)
(0.0971892683 0 0)
(0.0536312855 0 0)
(0.0176347534 0 0)
(-0.000930966147 0 0)
(-0.0337940903 0 0)
(-0.0943443226 0 0)
(-0.108457336 0 0)
(-0.115605304 0 0)
(-0.142875367 0 0)
(-0.17107838 0 0)
(-0.191740662 0 0)
(-0.214173554 0 0)
(-0.225836873 0 0)
(-0.247129784 0 0)
(-0.260091366 0 0)
(-0.275964912 0 0)
(-0.278076903 0 0)
(-0.290875796 0 0)
(-0.295571306 0 0)
(-0.303012585 0 0)
(-0.298973026 0 0)
(-0.302273124 0 0)
(-0.301104435 0 0)
(-0.302430392 0 0)
(-0.299626174 0 0)
(-0.303775913 0 0)
(-0.309118093 0 0)
(-0.293583176 0 0)
(-0.275229742 0 0)
(-0.279553501 0 0)
(-0.280958629 0 0)
(-0.271163465 0 0)
(-0.250276306 0 0)
(-0.233557391 0 0)
(-0.233915757 0 0)
(-0.231143156 0 0)
(-0.217678739 0 0)
(-0.19942889 0 0)
(-0.18345346 0 0)
(-0.17292963 0 0)
(-0.146821352 0 0)
(-0.133694741 0 0)
(-0.139909495 0 0)
(-0.133612728 0 0)
(-0.12529764 0 0)
(-0.0897436004 0 0)
(-0.0571337866 0 0)
(-0.0548027567 0 0)
(-0.0502873631 0 0)
(-0.0412701877 0 0)
(-0.0160856941 0 0)
(0.00459200647 0 0)
(0.0131567203 0 0)
(0.0184360234 0 0)
(0.0236957075 0 0)
(0.0451842988 0 0)
(0.0673654523 0 0)
(0.0779921233 0 0)
(0.0865427931 0 0)
(0.093572997 0 0)
(0.117402455 0 0)
(0.141699549 0 0)
(0.153252312 0 0)
(0.163784924 0 0)
(0.172879961 0 0)
(0.199961884 0 0)
(0.225005516 0 0)
(0.236446708 0 0)
(0.244548727 0 0)
(0.244081178 0 0)
(0.280029365 0 0)
(0.311478331 0 0)
(0.31660008 0 0)
(0.325486594 0 0)
(0.330691307 0 0)
(0.348187167 0 0)
(0.369305022 0 0)
(0.379876413 0 0)
(0.399626279 0 0)
(0.417210387 0 0)
(0.418004248 0 0)
(0.407161597 0 0)
)
;

boundaryField
{
    closed
    {
        type            noSlip;
    }
    open
    {
        type            inletOutlet;
        inletValue      nonuniform List<vector> 0();
        value           nonuniform List<vector> 0();
    }
    sides
    {
        type            empty;
    }
    procBoundary3to2
    {
        type            processor;
        value           uniform (3.48996382 0 0);
    }
    procBoundary3to4
    {
        type            processor;
        value           uniform (0.4151767 0 0);
    }
}


// ************************************************************************* //
