/*--------------------------------*- C++ -*----------------------------------*\
| =========                 |                                                 |
| \\      /  F ield         | OpenFOAM: The Open Source CFD Toolbox           |
|  \\    /   O peration     | Version:  2306                                  |
|   \\  /    A nd           | Website:  www.openfoam.com                      |
|    \\/     M anipulation  |                                                 |
\*---------------------------------------------------------------------------*/
FoamFile
{
    version     2.0;
    format      ascii;
    arch        "LSB;label=32;scalar=64";
    class       volScalarField;
    location    "0.00108";
    object      prefDh_H2;
}
// * * * * * * * * * * * * * * * * * * * * * * * * * * * * * * * * * * * * * //

dimensions      [1 1 -3 0 0 0 0];

internalField   nonuniform List<scalar> 
530
(
38.1683225
28.3137572
25.4973636
26.6517112
24.6496328
29.0099912
38.6622391
37.7349761
27.4930247
30.0465477
38.8028501
37.5213452
27.4903114
29.7877186
38.8511698
37.8186975
26.0294786
23.0871437
28.6655043
37.9900174
38.3973335
37.9105473
23.5683571
21.5989896
20.9612659
28.8730367
38.582894
38.0716572
38.3317818
37.6754904
24.5952661
21.3709038
29.0595418
38.2594246
38.2290274
25.912097
23.0569615
28.8075374
37.8194079
38.5582067
37.8893891
26.3712599
22.7537818
28.9201426
37.9119145
38.3845815
22.6740585
22.0424678
21.3972661
28.9298758
38.4890793
38.1045559
38.3206911
37.9014778
25.5343182
22.1424369
29.0747781
38.191188
38.4296766
26.3700831
23.768011
28.9802371
38.3883041
38.492233
27.4102945
24.2683805
28.8629745
38.4952463
38.6122142
27.9735957
24.5415466
28.8235311
38.5541273
38.5867594
28.4303578
25.4932885
27.0492366
24.7918819
29.0482957
38.5299856
38.9908041
26.8734143
29.3390359
38.2121993
38.3577257
38.5289713
26.3576982
21.6055108
28.9273874
38.2850741
38.774692
24.8721255
21.3285426
28.8512229
38.2653437
38.409836
38.2661969
38.4504317
26.973191
22.9822679
23.8848929
27.9606168
38.5283605
38.7988001
24.9917076
26.5811595
38.6039246
38.6431451
25.5969317
27.688103
38.56867
38.3411664
24.6889989
21.8907735
29.0899357
37.7073945
38.5369665
38.3721448
25.927935
21.9954429
29.1565749
38.035342
38.7057133
25.3136956
21.9438841
28.4435526
38.2090487
38.935559
26.197119
27.1935244
38.4026709
38.4264712
24.4113553
21.1369169
27.2683978
38.0557187
38.9359137
25.7411623
25.8002486
38.2980005
38.6254213
25.4749665
25.9322929
38.3770154
38.6051234
25.3605414
25.9630375
38.433765
38.6315213
25.4549503
26.1375866
38.5145245
38.7246993
25.8342131
26.9616116
38.6352048
38.5118048
25.1674751
22.0626733
28.7069284
37.7945881
38.5883125
38.3715829
27.1764747
23.634409
26.1044033
23.5304744
27.4440547
38.0447125
38.867492
27.0793193
26.6589338
37.983978
38.4728368
26.5774528
26.2306035
37.9606756
38.3943076
24.8504582
24.6010541
37.9803352
38.5179349
22.1187062
23.5736585
37.8822265
38.1981403
37.9955315
38.2814874
38.2138388
25.2712058
20.9649516
24.5246309
21.6855888
26.8212851
37.9725372
38.537558
25.810323
21.4368201
26.888369
38.0002213
38.8537742
26.5113376
25.8587099
37.9858681
38.8886465
25.3271602
27.4996213
38.1805591
38.3313808
38.6479162
27.5228375
25.2696847
38.1749273
38.9450551
25.2475705
29.1240054
38.8708174
29.1660599
26.4714573
38.213599
38.6498486
26.8780843
25.0960992
25.0161433
28.9136814
38.4693951
38.5832794
28.2227451
23.7914909
28.3754597
38.1942272
39.0998287
28.4112297
27.8813935
38.2783409
38.5378344
27.7665149
23.2740676
28.4141412
38.2488952
38.7926681
28.5899223
22.9660665
29.082457
38.4995916
38.6596538
28.9436276
23.7152886
26.3571866
38.4034582
39.3115807
26.8347593
27.3058734
38.4225145
38.5883953
38.5546972
28.7734744
25.235963
26.8153867
26.5342081
24.7057193
28.227034
38.3397753
38.7396679
38.7316605
28.8104289
22.6969591
27.8183526
38.3639323
38.7541091
28.3202835
22.6518682
27.3351572
38.1493288
38.6285988
38.5043921
28.0239777
22.2273491
26.0614401
38.1429354
38.9391852
27.5493256
26.3956894
38.1507635
38.448495
27.5322439
22.5662801
25.9262953
38.1177353
38.8674309
27.6702593
26.4361858
38.2077946
38.4284998
27.8917795
21.8517103
27.267409
38.1295827
38.5235414
38.5425659
28.512586
23.6399703
24.2137876
25.0629832
38.3405128
38.7102491
27.0683463
25.7899894
38.2126937
38.7246577
27.0161175
26.241376
38.3486175
38.3484838
28.4115991
22.6665381
29.004407
38.1978649
38.5948702
38.5861785
28.9656747
26.6452012
38.0757603
38.4195196
26.8340929
24.2629158
23.361874
24.3447132
38.1093482
38.5694254
25.4386088
23.9035921
37.8998622
38.6284352
25.5130368
24.6527622
37.9595367
38.6380656
25.8856144
28.0805536
38.5620795
29.2660912
25.2194401
38.2734553
38.4334661
27.7233358
22.4043025
26.0262306
38.374186
38.5305206
28.8116163
22.2652737
28.6852002
38.4199424
38.6561105
38.6594483
28.3564491
25.2046424
38.4850262
38.6699808
26.4320624
25.6439086
38.5224795
38.415321
26.7764038
22.4788258
25.4609172
38.2814388
38.8244896
27.4015325
26.4364436
38.4462196
38.4894305
27.8224677
23.714945
26.9269979
38.4286973
38.5930489
28.4957181
24.0463578
27.3878537
38.5491451
38.4499491
28.6451725
23.8527573
27.0738798
38.3566168
38.8435953
25.6215006
24.5879669
38.5862483
38.7585955
25.7000303
25.5400685
38.7381166
38.4380623
27.4436756
24.2331851
27.6333912
38.6498973
38.6298463
29.0534884
25.1601999
28.6828404
38.7972422
38.7075255
28.9412684
25.0061465
28.3701043
38.8678087
38.7280527
28.8325089
24.7248298
28.0637119
38.8602862
38.7036722
28.4793619
24.4540664
27.9027477
38.868463
38.5898555
28.2030038
24.2384792
27.3471473
38.7568119
38.6135487
27.152786
27.4285423
38.9634212
38.4223631
26.8963063
23.5801981
26.7765122
38.65301
38.4477774
26.915167
27.3552363
38.8985388
38.3203422
26.575588
23.4210632
26.8529525
38.5902888
38.2980715
26.8910956
27.4926527
38.8504571
38.2342392
26.354747
23.3286768
26.9209035
38.5455369
38.194498
26.7858994
27.521168
38.8128372
38.1792947
25.989121
23.0332762
26.7844191
38.5224465
38.1237367
26.470577
27.4127376
38.7890299
38.1082648
25.5205055
22.8251781
26.5369812
38.4284211
38.1253484
26.4992365
27.0333109
38.6678932
38.0138911
25.9208275
26.9993012
38.716533
37.9086687
25.6247523
27.1861815
38.7377915
37.9502601
25.2387052
22.8699951
26.7755346
38.257684
37.971062
26.6400064
27.2271911
38.4740938
37.8030433
25.1559948
26.4231585
38.5629637
37.8664894
22.6007051
19.3534808
23.9926934
38.2638456
37.9716909
24.9272151
25.6606014
38.5400613
37.9570282
26.0364286
27.2896072
38.6351987
37.9359703
26.746002
28.217282
38.7622675
38.008808
25.6235633
22.7151489
26.4111763
38.3789153
38.3552924
25.221505
26.9935451
38.607278
38.5939785
38.2867521
26.4922784
21.4249664
27.0606632
38.4896577
38.4873066
26.3719065
23.7021938
)
;

boundaryField
{
    closed
    {
        type            calculated;
        value           nonuniform List<scalar> 0();
    }
    open
    {
        type            calculated;
        value           nonuniform List<scalar> 0();
    }
    sides
    {
        type            empty;
    }
    procBoundary2to1
    {
        type            processor;
        value           uniform 38.7042087;
    }
    procBoundary2to3
    {
        type            processor;
        value           uniform 27.8170087;
    }
}


// ************************************************************************* //
