/*--------------------------------*- C++ -*----------------------------------*\
| =========                 |                                                 |
| \\      /  F ield         | OpenFOAM: The Open Source CFD Toolbox           |
|  \\    /   O peration     | Version:  2306                                  |
|   \\  /    A nd           | Website:  www.openfoam.com                      |
|    \\/     M anipulation  |                                                 |
\*---------------------------------------------------------------------------*/
FoamFile
{
    version     2.0;
    format      ascii;
    arch        "LSB;label=32;scalar=64";
    class       volScalarField;
    location    "0.00158";
    object      alpha;
}
// * * * * * * * * * * * * * * * * * * * * * * * * * * * * * * * * * * * * * //

dimensions      [1 -1 -1 0 0 0 0];

internalField   nonuniform List<scalar> 
531
(
3.53019578e-05
3.53021979e-05
3.68237511e-05
3.68288323e-05
3.5747039e-05
3.52946137e-05
3.52941811e-05
3.6820442e-05
3.68324089e-05
3.57345959e-05
3.52549107e-05
3.5254807e-05
3.68248165e-05
3.68298204e-05
3.57088311e-05
3.51734952e-05
3.51756193e-05
3.68122785e-05
3.68547551e-05
3.57035918e-05
3.54336132e-05
3.68213837e-05
3.68518655e-05
3.56946176e-05
3.55115628e-05
3.6822509e-05
3.68371518e-05
3.57272581e-05
3.5362387e-05
3.53618755e-05
3.68102751e-05
3.68296201e-05
3.57685766e-05
3.5381329e-05
3.54597559e-05
3.5140576e-05
3.51423823e-05
3.67993659e-05
3.68316977e-05
3.68174585e-05
3.68362646e-05
3.68286234e-05
3.68359968e-05
3.57545118e-05
3.53512434e-05
3.52638956e-05
3.52406067e-05
3.68104299e-05
3.68251853e-05
3.56459428e-05
3.48148116e-05
3.5021899e-05
3.68183673e-05
3.68270823e-05
3.68324142e-05
3.55912502e-05
3.52062794e-05
3.68095699e-05
3.68289232e-05
3.56034468e-05
3.54439691e-05
3.68034016e-05
3.68201334e-05
3.57425514e-05
3.54772724e-05
3.54436347e-05
3.53759453e-05
3.50314148e-05
3.50495919e-05
3.68169268e-05
3.68205891e-05
3.6826962e-05
3.68298859e-05
3.68318894e-05
3.56958344e-05
3.53891809e-05
3.68238758e-05
3.68226518e-05
3.56988336e-05
3.52353504e-05
3.52358801e-05
3.67947672e-05
3.68301e-05
3.57332906e-05
3.52507212e-05
3.5250545e-05
3.68120582e-05
3.6818424e-05
3.57168364e-05
3.49808801e-05
3.52354554e-05
3.68267569e-05
3.68281168e-05
3.6832993e-05
3.56065724e-05
3.52679562e-05
3.68284324e-05
3.68235791e-05
3.56914035e-05
3.5334659e-05
3.52804544e-05
3.52806525e-05
3.68152167e-05
3.68219573e-05
3.56300693e-05
3.5489398e-05
3.68273168e-05
3.68188573e-05
3.57221684e-05
3.53498841e-05
3.53487845e-05
3.68215117e-05
3.68271193e-05
3.57326563e-05
3.52836365e-05
3.52841908e-05
3.68281973e-05
3.68243506e-05
3.57160301e-05
3.50026942e-05
3.51568851e-05
3.68307242e-05
3.68318089e-05
3.68307619e-05
3.6836561e-05
3.55692934e-05
3.48628961e-05
3.49725431e-05
3.68203186e-05
3.68314621e-05
3.55298906e-05
3.53313945e-05
3.68313232e-05
3.68203253e-05
3.57086905e-05
3.52545716e-05
3.52847124e-05
3.68224919e-05
3.68273131e-05
3.57322759e-05
3.5265263e-05
3.53051704e-05
3.68405833e-05
3.68248327e-05
3.57164315e-05
3.51130815e-05
3.53235956e-05
3.68352169e-05
3.68383019e-05
3.68284577e-05
3.56763878e-05
3.51929411e-05
3.52376119e-05
3.68309324e-05
3.68441877e-05
3.5650902e-05
3.54645386e-05
3.6851618e-05
3.6834728e-05
3.57053942e-05
3.52933956e-05
3.53260336e-05
3.68505602e-05
3.68288622e-05
3.57075734e-05
3.52501484e-05
3.53241004e-05
3.68481053e-05
3.68414412e-05
3.56544148e-05
3.55799998e-05
3.68569977e-05
3.68233836e-05
3.57105197e-05
3.55093245e-05
3.54155421e-05
3.54634763e-05
3.68512237e-05
3.68041915e-05
3.57038317e-05
3.51856778e-05
3.53754334e-05
3.68271103e-05
3.68178129e-05
3.60709437e-05
3.52334655e-05
3.5433527e-05
3.68175312e-05
3.55615757e-05
3.55190409e-05
3.68470404e-05
3.68302724e-05
3.68045207e-05
3.57372709e-05
3.50608511e-05
3.56130048e-05
3.6790212e-05
3.55182516e-05
3.55400579e-05
3.68566888e-05
3.6830056e-05
3.67974302e-05
3.57044729e-05
3.51673066e-05
3.55234512e-05
3.68437922e-05
3.67872162e-05
3.56542618e-05
3.52610809e-05
3.55870037e-05
3.68459564e-05
3.67890971e-05
3.57194263e-05
3.52358764e-05
3.56684386e-05
3.67565964e-05
3.55806803e-05
3.56713963e-05
3.68434203e-05
3.68276951e-05
3.67826618e-05
3.56637184e-05
3.52100099e-05
3.56097929e-05
3.68304399e-05
3.67705883e-05
3.5570877e-05
3.52109376e-05
3.55953161e-05
3.68178886e-05
3.6765642e-05
3.52570182e-05
3.47793629e-05
3.53903394e-05
3.68307137e-05
3.68253352e-05
3.68184215e-05
3.67881525e-05
3.68018481e-05
3.67508002e-05
3.53558052e-05
3.50558733e-05
3.51776085e-05
3.48743173e-05
3.53019936e-05
3.68105228e-05
3.67430666e-05
3.52414185e-05
3.55576332e-05
3.68139013e-05
3.68147065e-05
3.67747373e-05
3.56162787e-05
3.49187128e-05
3.56948429e-05
3.67960088e-05
3.55533397e-05
3.54655317e-05
3.68271462e-05
3.67733717e-05
3.54046362e-05
3.56874961e-05
3.68219599e-05
3.68225897e-05
3.68072826e-05
3.57017911e-05
3.50627067e-05
3.55946515e-05
3.68066717e-05
3.68304768e-05
3.6807323e-05
3.54918635e-05
3.52317711e-05
3.53641791e-05
3.51218513e-05
3.54631179e-05
3.68262216e-05
3.68200247e-05
3.68290359e-05
3.68229728e-05
3.57062269e-05
3.52600005e-05
3.55856977e-05
3.68293079e-05
3.68404033e-05
3.57326564e-05
3.53474373e-05
3.53135046e-05
3.54581755e-05
3.68416204e-05
3.68505958e-05
3.54413183e-05
3.54858726e-05
3.6830679e-05
3.68396138e-05
3.56477578e-05
3.52955904e-05
3.5561237e-05
3.68108648e-05
3.68431147e-05
3.56013832e-05
3.55469414e-05
3.68055447e-05
3.68339961e-05
3.56911572e-05
3.50574776e-05
3.52684615e-05
3.67976473e-05
3.68480855e-05
3.52260287e-05
3.52337728e-05
3.67891706e-05
3.68152896e-05
3.68330653e-05
3.53953452e-05
3.52635778e-05
3.67679031e-05
3.68074843e-05
3.61597189e-05
3.53252445e-05
3.50082697e-05
3.51615217e-05
3.67820408e-05
3.68356039e-05
3.55723191e-05
3.5429032e-05
3.67688396e-05
3.68326739e-05
3.5652576e-05
3.55724464e-05
3.67743386e-05
3.68224164e-05
3.57253893e-05
3.54310288e-05
3.53094218e-05
3.53450851e-05
3.67997241e-05
3.68369702e-05
3.5480303e-05
3.53424871e-05
3.67755652e-05
3.68390323e-05
3.54138816e-05
3.53614618e-05
3.67817375e-05
3.68080283e-05
3.68012566e-05
3.68221451e-05
3.57229067e-05
3.52876458e-05
3.52308576e-05
3.52739188e-05
3.6806227e-05
3.68121627e-05
3.54895667e-05
3.48816143e-05
3.50430793e-05
3.67652102e-05
3.68239369e-05
3.5456793e-05
3.52548285e-05
3.67530939e-05
3.68218313e-05
3.53219534e-05
3.52864446e-05
3.67579714e-05
3.67950325e-05
3.68037104e-05
3.54179394e-05
3.51584617e-05
3.6776154e-05
3.68198089e-05
3.54431969e-05
3.53294852e-05
3.67864382e-05
3.68055271e-05
3.57336902e-05
3.5153936e-05
3.52946267e-05
3.6790844e-05
3.68441422e-05
3.56229665e-05
3.54294999e-05
3.67948713e-05
3.68233012e-05
3.57178952e-05
3.51486273e-05
3.52725733e-05
3.68004993e-05
3.68453282e-05
3.55984901e-05
3.54014384e-05
3.68006446e-05
3.68246488e-05
3.57028792e-05
3.50826652e-05
3.51685714e-05
3.67937503e-05
3.68488369e-05
3.55274101e-05
3.53159514e-05
3.67868759e-05
3.68390212e-05
3.55010901e-05
3.53695179e-05
3.67893345e-05
3.68293647e-05
3.55758756e-05
3.54314928e-05
3.67982403e-05
3.68127532e-05
3.57209335e-05
3.51514905e-05
3.51923774e-05
3.67892226e-05
3.68407102e-05
3.54703609e-05
3.52646863e-05
3.67867432e-05
3.68368299e-05
3.53121557e-05
3.52342552e-05
3.67946302e-05
3.68240916e-05
3.6825638e-05
3.55034776e-05
3.51909353e-05
3.68194279e-05
3.6819452e-05
3.56916999e-05
3.52343859e-05
3.52737532e-05
3.68011032e-05
3.68416488e-05
3.57312893e-05
3.55930442e-05
3.68210374e-05
3.68336917e-05
3.57309824e-05
3.5526286e-05
3.54211346e-05
3.54202132e-05
3.68368846e-05
3.68377652e-05
3.57098287e-05
3.54946246e-05
3.53549474e-05
3.54100318e-05
3.68583357e-05
3.57187116e-05
3.52869117e-05
3.68503262e-05
3.68397947e-05
3.55619219e-05
3.54038536e-05
3.68600098e-05
3.68285468e-05
3.5704488e-05
3.5166378e-05
3.52496575e-05
3.68385464e-05
3.68357015e-05
3.68265929e-05
3.68370609e-05
3.57291109e-05
3.53462477e-05
3.5291994e-05
3.52907508e-05
3.68589048e-05
3.68215932e-05
3.57249763e-05
3.51575214e-05
3.55003323e-05
3.68419646e-05
3.57326638e-05
3.52814761e-05
3.68485563e-05
3.68319788e-05
3.54491531e-05
3.54570087e-05
3.68516482e-05
3.68260428e-05
3.68154341e-05
3.57918618e-05
3.5180884e-05
3.52253486e-05
3.68421214e-05
3.68277312e-05
3.57387373e-05
3.5290415e-05
3.53275381e-05
3.68413432e-05
3.68234079e-05
3.58232353e-05
3.54135256e-05
3.54588801e-05
3.51432706e-05
3.52074958e-05
3.68504664e-05
3.68269964e-05
3.68372966e-05
3.57115197e-05
3.54108557e-05
3.68582518e-05
3.68499281e-05
3.56148936e-05
3.55210928e-05
3.68609864e-05
3.68391972e-05
3.57818685e-05
3.55586671e-05
3.54026066e-05
3.54018905e-05
3.68587156e-05
3.68301724e-05
3.57193082e-05
3.52678873e-05
3.52910292e-05
3.68466659e-05
3.683133e-05
3.57375618e-05
3.52544841e-05
3.52733214e-05
3.68460052e-05
3.68221438e-05
3.57350662e-05
3.51234538e-05
3.52467202e-05
3.68361139e-05
3.68264813e-05
3.68074304e-05
)
;

boundaryField
{
    closed
    {
        type            calculated;
        value           nonuniform List<scalar> 0();
    }
    open
    {
        type            calculated;
        value           nonuniform List<scalar> 0();
    }
    sides
    {
        type            empty;
    }
    procBoundary3to2
    {
        type            processor;
        value           uniform 3.57527368e-05;
    }
    procBoundary3to4
    {
        type            processor;
        value           uniform 3.57133962e-05;
    }
}


// ************************************************************************* //
