/*--------------------------------*- C++ -*----------------------------------*\
| =========                 |                                                 |
| \\      /  F ield         | OpenFOAM: The Open Source CFD Toolbox           |
|  \\    /   O peration     | Version:  2306                                  |
|   \\  /    A nd           | Website:  www.openfoam.com                      |
|    \\/     M anipulation  |                                                 |
\*---------------------------------------------------------------------------*/
FoamFile
{
    version     2.0;
    format      ascii;
    arch        "LSB;label=32;scalar=64";
    class       volScalarField;
    location    "0.00164";
    object      p;
}
// * * * * * * * * * * * * * * * * * * * * * * * * * * * * * * * * * * * * * //

dimensions      [1 -1 -2 0 0 0 0];

internalField   nonuniform List<scalar> 
530
(
101068.299
101386.181
101622.242
101622.182
101564.033
101312.758
101223.739
101238.296
101135.923
101231.867
101399.29
101424.329
101446.582
101587.959
101664.044
101604.795
101428.46
101309.737
101272.623
100949.123
100853.012
101253.265
101516.015
101621.807
101615.457
101471.635
101450.834
101622.867
101584.196
101260.559
101180.45
101207.213
100913.796
100760.561
101053.9
101535.546
101956.338
102014.999
101843.132
101806.965
101896.937
101760.919
101456.454
101316.643
101461.243
101592.021
101571.932
101570.143
101571.37
101558.934
101540.202
101520.723
101505.766
101493.904
101483.134
101472.158
101462.648
101453.651
101443.876
101433.902
101424.279
101414.29
101403.867
101392.342
101378.813
101361.652
101338.78
101307.764
101258.793
101179.329
101052.212
100858.314
100583.298
100229.48
99827.8254
99438.3098
99127.8511
98947.2909
98916.617
99020.6485
99217.6345
99457.0202
99698.8129
99923.2024
100124.608
100301.17
100453.507
100584.578
100698.563
100798.347
100885.887
100962.26
101029.491
101089.153
101141.369
101186.5
101226.416
101261.597
101292.451
101319.975
101345.968
101370.335
101391.875
101411.351
101428.884
101444.817
101460.193
101473.781
101487.287
101500.289
101512.273
101523.225
101533.325
101542.933
101551.544
101559.265
101566.226
101572.585
101578.132
101581.608
101585.812
101589.756
101593.429
101596.889
101600.163
101603.339
101606.442
101609.124
101611.436
101613.412
101614.993
101616.307
101617.494
101618.545
101619.509
101620.729
101622.164
101623.702
101625.059
101626.227
101626.497
101623.724
101629.16
101631.567
101632.76
101633.407
101634.12
101634.546
101635.11
101635.49
101635.481
101635.46
101635.279
101634.791
101633.957
101633.236
101632.324
101631.541
101630.956
101630.557
101630.772
101631.412
101632.578
101633.986
101635.608
101637.78
101640.335
101643.332
101646.95
101650.771
101654.469
101658.437
101662.713
101667.365
101671.949
101676.165
101680.415
101684.708
101689.035
101693.148
101697.111
101701.01
101704.726
101707.96
101711.168
101714.517
101717.551
101720.696
101723.669
101726.233
101728.358
101730.135
101731.613
101731.294
101730.243
101728.511
101725.923
101722.611
101718.715
101714.126
101709.001
101703.24
101697.13
101690.554
101683.426
101675.499
101667.278
101658.677
101649.4
101639.357
101629.235
101618.923
101607.802
101595.882
101583.825
101571.51
101558.118
101543.176
101527.539
101511.645
101495.312
101477.27
101457.722
101437.708
101417.379
101395.237
101371.159
101346.214
101321.544
101297.404
101272.067
101244.154
101218.083
101193.273
101168.126
101142.616
101116.757
101092.503
101069.053
101046.149
101024.075
101004.108
100984.932
100966.285
100948.431
100932.682
100918.07
100904.355
100891.589
100880.616
100870.651
100861.396
100853.007
100846.263
100840.998
100836.914
100833.763
100831.629
100830.958
100831.622
100833.515
100836.744
100841.441
100847.669
100855.543
100864.984
100875.549
100887.287
100900.447
100915.201
100931.538
100948.855
100967.684
100988.625
101011.447
101035.479
101059.887
101085.72
101113.543
101143.102
101172.416
101202.7
101235.728
101269.081
101302.441
101337.911
101375.821
101414.444
101452.218
101488.844
101527.454
101567.421
101606.872
101644.78
101684.506
101725.59
101766.605
101807.862
101849.37
101889.17
101926.047
101963.586
102001.614
102042.353
102080.605
102119.177
102157.486
102195.119
102230.72
102262.769
102294.819
102326.002
102356.373
102384.567
102408.241
102429.988
102448.167
102463.011
102473.723
102477.977
102478.063
102474.282
102468.212
102467.468
102461.679
102453.069
102440.272
102422.344
102398.371
102370.516
102338.766
102305.367
102273.713
102245.014
102219.507
102196.592
102173.466
102151.265
102130.436
102108.035
102083.091
102056.338
102029.212
102002.083
101974.697
101945.675
101915.62
101884.844
101852.983
101819.207
101782.111
101743.022
101702.954
101662.253
101620.253
101575.559
101529.895
101483.944
101437.547
101389.541
101337.649
101283.593
101226.608
101168.685
101110.124
101051.03
100990.028
100929.389
100868.212
100807.91
100745.916
100683.062
100619.198
100555.211
100492.943
100433.049
100377.171
100325.015
100281.511
100241.241
100203.908
100169.638
100141.534
100115.68
100092.686
100071.451
100052.767
100039.74
100030.687
100024.114
100019.506
100017.58
100017.885
100020.819
100024.919
100030.787
100037.728
100043.928
100046.183
100048.48
100056.286
100060.081
100065.247
100074.232
100086.448
100099.366
100113.005
100126.525
100140.609
100155.47
100170.523
100186.983
100204.568
100223.907
100244.776
100265.579
100287.495
100310.112
100333.809
100358.276
100382.036
100407.045
100432.681
100458.997
100484.432
100510.375
100536.396
100562.967
100588.757
100615.257
100642.754
100671.364
100700.036
100726.923
100753.56
100779.697
100805.063
100828.647
100851.773
100874.455
100896.475
100916.976
100936.889
100956.461
100975.796
100994.098
101010.393
101025.827
101040.532
101054.613
101067.835
101080.167
101091.462
101101.122
101109.935
101118.148
101126.052
101133.418
101139.304
101144.47
101149.271
101153.939
101158.61
101162.122
101165.143
101168.273
101171.516
101174.433
101176.644
101178.682
101181.353
101183.237
101184.488
101185.474
101186.727
101187.341
101187.38
101187.216
101186.869
101186.28
101185.411
101184.299
101183.082
101181.842
101180.592
101179.32
101178.029
101176.797
101175.663
101174.621
101173.633
101172.675
101171.837
101171.147
101170.622
101170.178
101169.784
101169.55
101169.454
101169.455
101169.43
101169.442
101169.535
101169.699
101169.803
101169.857
101169.949
101170.029
101170.119
101170.116
101170.076
101169.983
101169.846
101169.645
101169.393
101169.108
101168.788
101168.455
101168.199
101167.932
101167.674
101167.374
101167.038
101166.57
101165.387
101166.947
101166.075
101165.474
101164.823
101163.889
)
;

boundaryField
{
    closed
    {
        type            zeroGradient;
    }
    open
    {
        type            waveTransmissive;
        gamma           1.25;
        fieldInf        101325;
        lInf            1;
        value           nonuniform List<scalar> 0();
    }
    sides
    {
        type            empty;
    }
    procBoundary0to1
    {
        type            processor;
        value           uniform 101162.75;
    }
}


// ************************************************************************* //
