/*--------------------------------*- C++ -*----------------------------------*\
| =========                 |                                                 |
| \\      /  F ield         | OpenFOAM: The Open Source CFD Toolbox           |
|  \\    /   O peration     | Version:  2306                                  |
|   \\  /    A nd           | Website:  www.openfoam.com                      |
|    \\/     M anipulation  |                                                 |
\*---------------------------------------------------------------------------*/
FoamFile
{
    version     2.0;
    format      ascii;
    arch        "LSB;label=32;scalar=64";
    class       volScalarField;
    location    "0.00164";
    object      prefDPV_T;
}
// * * * * * * * * * * * * * * * * * * * * * * * * * * * * * * * * * * * * * //

dimensions      [1 -1 -1 -1 0 0 0];

internalField   nonuniform List<scalar> 
530
(
6.14840799e-10
5.99202504e-10
5.97534285e-10
5.97547664e-10
5.97549764e-10
5.97549777e-10
5.97549775e-10
5.97549775e-10
5.97549775e-10
5.97549775e-10
5.97549775e-10
5.97549775e-10
5.97549775e-10
5.97549775e-10
5.97549775e-10
5.97549775e-10
5.97549775e-10
5.97549775e-10
5.97549775e-10
5.97549775e-10
5.97549775e-10
5.97549775e-10
5.97549775e-10
5.97549775e-10
5.97549775e-10
5.97549775e-10
5.97549775e-10
5.97549775e-10
5.97549775e-10
5.97549775e-10
5.97549775e-10
5.97549775e-10
5.97549775e-10
5.97549775e-10
5.97549775e-10
5.97549775e-10
5.97549775e-10
5.97549775e-10
5.97549775e-10
5.97549775e-10
5.97549775e-10
5.97549775e-10
5.97549775e-10
5.97549775e-10
5.97549775e-10
5.97549775e-10
5.97549775e-10
5.97549775e-10
5.97549775e-10
5.97549775e-10
5.97549775e-10
5.97549775e-10
5.97549775e-10
5.97549775e-10
5.97549775e-10
5.97549775e-10
5.97549775e-10
5.97549775e-10
5.97549775e-10
5.97549775e-10
5.97549775e-10
5.97549775e-10
5.97549775e-10
5.97549775e-10
5.97549776e-10
5.97549777e-10
5.97549778e-10
5.9754978e-10
5.97549811e-10
5.97549858e-10
5.97549661e-10
5.97549938e-10
5.9755079e-10
5.9754987e-10
5.97548443e-10
5.97551704e-10
5.97555328e-10
5.97552838e-10
5.97545331e-10
5.97551788e-10
5.97558364e-10
5.975806e-10
5.97654638e-10
5.97639167e-10
5.97109271e-10
5.96522315e-10
5.96886312e-10
6.00365593e-10
6.0071136e-10
5.96981617e-10
5.91279532e-10
5.90601719e-10
5.90540022e-10
5.92063409e-10
6.10435457e-10
6.09479275e-10
6.09030713e-10
6.08569985e-10
6.06980499e-10
5.90742949e-10
5.90032146e-10
5.89941956e-10
5.90025659e-10
5.89764423e-10
5.89750871e-10
5.92757246e-10
6.11950986e-10
6.09269404e-10
6.09922936e-10
6.09564491e-10
6.09056984e-10
6.08279289e-10
5.90745367e-10
5.90062236e-10
5.90024742e-10
5.9013159e-10
5.90113851e-10
5.90469932e-10
6.05399595e-10
6.09814322e-10
6.09562237e-10
6.09576617e-10
6.09498966e-10
6.09192853e-10
6.05961862e-10
5.89816805e-10
5.8921522e-10
5.89545031e-10
5.89602064e-10
5.8985556e-10
5.94808403e-10
6.10444324e-10
6.08448396e-10
6.08129194e-10
5.90638608e-10
5.89801241e-10
5.90102207e-10
6.04584212e-10
6.09755965e-10
6.08856426e-10
6.09710167e-10
5.90886493e-10
5.90138741e-10
5.90179449e-10
5.97687889e-10
6.09399637e-10
6.1014312e-10
5.90904708e-10
5.90462408e-10
5.9872669e-10
6.09399799e-10
6.07167189e-10
5.91746835e-10
5.95616679e-10
6.09510187e-10
6.08478852e-10
5.90457305e-10
5.90240098e-10
5.98895419e-10
6.09471657e-10
6.07599063e-10
5.90371928e-10
5.90275667e-10
5.98512032e-10
6.0933663e-10
6.08455368e-10
6.09033441e-10
5.90537361e-10
5.90465311e-10
6.0159516e-10
6.09247109e-10
6.07905983e-10
5.90515729e-10
5.90465804e-10
6.00348589e-10
6.09443785e-10
6.06602847e-10
5.90378789e-10
5.901737e-10
5.90264246e-10
5.9029579e-10
5.90462598e-10
6.00768634e-10
6.09467439e-10
6.04409438e-10
5.91117672e-10
5.91616115e-10
6.10689118e-10
6.09294137e-10
6.00081797e-10
5.90512922e-10
5.90797703e-10
6.11001262e-10
6.09222782e-10
6.03322041e-10
5.90222744e-10
5.90077059e-10
5.90421124e-10
6.00217677e-10
6.09592286e-10
6.03111382e-10
5.91334736e-10
5.97751785e-10
6.09866986e-10
6.00711804e-10
5.90833699e-10
5.97710552e-10
6.10353409e-10
5.98672121e-10
5.90430179e-10
5.9749242e-10
6.10517518e-10
5.9839792e-10
5.90526286e-10
5.97449752e-10
6.10056864e-10
6.02738051e-10
5.89841387e-10
5.90080714e-10
6.00664551e-10
6.10409519e-10
5.98373457e-10
5.90701951e-10
5.98631718e-10
6.10172807e-10
5.99732489e-10
5.89503375e-10
5.89864495e-10
6.01370114e-10
6.10563288e-10
5.96764796e-10
5.90368828e-10
5.99028531e-10
6.10447352e-10
5.96761337e-10
5.90398386e-10
5.99308389e-10
6.10298842e-10
5.97188969e-10
5.90591987e-10
5.99669948e-10
6.10189575e-10
5.97205016e-10
5.90603361e-10
5.99727663e-10
6.10132217e-10
5.97220183e-10
5.90578988e-10
5.99290579e-10
6.10054154e-10
5.99273538e-10
5.89490448e-10
5.89649671e-10
6.00532766e-10
6.10007528e-10
5.98577542e-10
5.90843306e-10
5.99918369e-10
6.09811561e-10
5.98147433e-10
5.90741797e-10
5.99293077e-10
6.09911521e-10
6.00170855e-10
5.89637108e-10
5.89665436e-10
6.01005438e-10
6.09942599e-10
5.98692948e-10
5.90829246e-10
5.9923635e-10
6.0987587e-10
6.00537827e-10
5.89675262e-10
5.89655159e-10
6.01144513e-10
6.09840432e-10
5.98709338e-10
5.90871082e-10
6.00075344e-10
6.09660731e-10
5.98411557e-10
5.90783854e-10
5.99510378e-10
6.09791877e-10
6.00384849e-10
5.89763218e-10
5.89732033e-10
6.02584575e-10
6.09714564e-10
5.98094777e-10
5.909627e-10
6.00908572e-10
6.09733026e-10
5.98817819e-10
5.90062467e-10
5.90024759e-10
5.90061391e-10
5.90181383e-10
6.0441492e-10
6.0970784e-10
5.9777388e-10
5.91267092e-10
6.02344687e-10
6.09767302e-10
5.99207676e-10
5.90141894e-10
5.90346814e-10
6.07620482e-10
6.10047609e-10
5.98113434e-10
5.90211498e-10
5.90515723e-10
6.0933769e-10
6.10273417e-10
5.97065798e-10
5.90232433e-10
5.90643822e-10
6.10654508e-10
6.10453124e-10
5.9656659e-10
5.9035899e-10
5.90897806e-10
6.1154647e-10
6.10572108e-10
5.9619378e-10
5.90445217e-10
5.92134564e-10
6.10511595e-10
6.10865933e-10
5.94926095e-10
5.90187813e-10
5.90328093e-10
5.91662798e-10
6.11378431e-10
6.11126922e-10
5.93942122e-10
5.92623653e-10
6.1041533e-10
6.11331836e-10
5.93514481e-10
5.90180381e-10
5.92206947e-10
6.10941949e-10
6.11620363e-10
5.92921724e-10
5.90229897e-10
5.92505857e-10
6.10854137e-10
6.11683212e-10
5.92600376e-10
5.90211359e-10
5.92538425e-10
6.10817723e-10
6.1163967e-10
5.92393664e-10
5.90135394e-10
5.92608633e-10
6.10555488e-10
6.11530883e-10
5.91960462e-10
5.90120269e-10
5.90202346e-10
5.91684374e-10
6.10910054e-10
6.10933842e-10
5.9232691e-10
5.91768566e-10
6.11927762e-10
6.10949789e-10
5.92641128e-10
5.89990781e-10
5.91315325e-10
6.10875253e-10
6.10315617e-10
5.92620808e-10
5.9158928e-10
6.1105935e-10
6.10699623e-10
5.93804961e-10
5.90008767e-10
5.90684796e-10
6.11880275e-10
6.1016691e-10
5.93536939e-10
5.91394223e-10
6.08272487e-10
6.10647532e-10
5.95100262e-10
5.89981046e-10
5.90136501e-10
6.11050903e-10
6.10131636e-10
5.94769368e-10
5.91307551e-10
6.05631658e-10
6.10681907e-10
5.96611068e-10
5.90042045e-10
5.8985973e-10
6.0856424e-10
6.10101757e-10
5.96136127e-10
5.91333314e-10
6.03541156e-10
6.10741906e-10
5.98203192e-10
5.90120126e-10
5.89827282e-10
6.05531849e-10
6.10502247e-10
5.99055067e-10
5.90169857e-10
5.89837593e-10
6.04431496e-10
6.10516134e-10
5.99810177e-10
5.9024434e-10
5.89800658e-10
6.03254793e-10
6.10156075e-10
5.98531542e-10
5.91378619e-10
6.00822882e-10
6.1042639e-10
5.98685553e-10
5.91276782e-10
6.00503213e-10
6.10749538e-10
6.00966784e-10
5.9023201e-10
5.89645749e-10
6.0147179e-10
6.10114202e-10
5.99513866e-10
5.91461149e-10
6.00217643e-10
6.10190744e-10
5.99513875e-10
5.91454092e-10
6.00546e-10
6.10398129e-10
6.020767e-10
5.9036843e-10
5.89915914e-10
6.03267239e-10
6.09833844e-10
6.01577199e-10
5.90848516e-10
5.90483968e-10
5.90000077e-10
5.90009017e-10
6.03099172e-10
6.09888479e-10
6.02939868e-10
5.90519178e-10
5.90125025e-10
6.03630836e-10
6.09726481e-10
6.0237195e-10
5.90413618e-10
5.89888371e-10
6.02284165e-10
6.09440179e-10
6.00243752e-10
5.91381281e-10
5.99650128e-10
6.09502856e-10
6.00374762e-10
5.91114193e-10
5.99554686e-10
6.09513819e-10
5.99645237e-10
5.90988574e-10
6.0000057e-10
6.09795458e-10
6.01623324e-10
5.89865241e-10
5.89444734e-10
6.0318207e-10
6.09664432e-10
6.00833795e-10
5.89875346e-10
5.8953511e-10
6.042439e-10
6.09552792e-10
6.00687825e-10
5.89897581e-10
5.89577091e-10
6.04726867e-10
6.09462058e-10
6.00755014e-10
5.89953416e-10
5.89571854e-10
6.04344552e-10
6.09065697e-10
5.98200731e-10
5.90949935e-10
6.01176614e-10
6.09321606e-10
6.01492056e-10
5.89857318e-10
5.89482803e-10
6.0500799e-10
6.08975963e-10
5.97510919e-10
5.90843065e-10
6.02112419e-10
6.09200909e-10
6.00670926e-10
5.89728661e-10
5.89537892e-10
6.06198322e-10
6.09298557e-10
5.99940918e-10
5.89797928e-10
5.89643385e-10
6.05615637e-10
6.08880972e-10
6.08985599e-10
6.00889209e-10
5.90437129e-10
5.90083955e-10
5.8951806e-10
5.89462289e-10
6.04063012e-10
6.09140536e-10
6.0901928e-10
6.0317379e-10
5.90198131e-10
)
;

boundaryField
{
    closed
    {
        type            calculated;
        value           uniform 7.27797336e-10;
    }
    open
    {
        type            calculated;
        value           nonuniform List<scalar> 0();
    }
    sides
    {
        type            empty;
    }
    procBoundary0to1
    {
        type            processor;
        value           uniform 5.89709968e-10;
    }
}


// ************************************************************************* //
