/*--------------------------------*- C++ -*----------------------------------*\
| =========                 |                                                 |
| \\      /  F ield         | OpenFOAM: The Open Source CFD Toolbox           |
|  \\    /   O peration     | Version:  2306                                  |
|   \\  /    A nd           | Website:  www.openfoam.com                      |
|    \\/     M anipulation  |                                                 |
\*---------------------------------------------------------------------------*/
FoamFile
{
    version     2.0;
    format      ascii;
    arch        "LSB;label=32;scalar=64";
    class       volScalarField;
    location    "0.00164";
    object      Z;
}
// * * * * * * * * * * * * * * * * * * * * * * * * * * * * * * * * * * * * * //

dimensions      [0 0 0 0 0 0 0];

internalField   nonuniform List<scalar> 
530
(
0.014670054
0.0145270644
0.0144655111
0.01446205
0.0144617201
0.0144617078
0.0144617069
0.0144617069
0.0144617069
0.0144617069
0.0144617069
0.0144617069
0.0144617069
0.0144617069
0.0144617069
0.0144617069
0.0144617069
0.0144617069
0.0144617069
0.0144617069
0.0144617069
0.0144617069
0.0144617069
0.0144617069
0.0144617069
0.0144617069
0.0144617069
0.0144617069
0.0144617069
0.0144617069
0.0144617069
0.0144617069
0.0144617069
0.0144617069
0.0144617069
0.0144617069
0.0144617069
0.0144617069
0.0144617069
0.0144617069
0.0144617069
0.0144617069
0.0144617069
0.0144617069
0.0144617069
0.0144617069
0.0144617069
0.0144617069
0.0144617069
0.0144617069
0.0144617069
0.0144617069
0.0144617069
0.0144617069
0.0144617069
0.0144617069
0.0144617069
0.0144617069
0.0144617069
0.0144617069
0.0144617069
0.0144617069
0.0144617069
0.014461707
0.0144617072
0.0144617076
0.0144617084
0.0144617104
0.0144617126
0.0144617198
0.0144617357
0.014461753
0.0144617585
0.0144618385
0.0144619505
0.0144619494
0.01446196
0.0144621781
0.0144625978
0.0144626535
0.014462683
0.0144622909
0.0144605142
0.0144613013
0.0144770149
0.0144956584
0.0144847419
0.0143895306
0.0143811568
0.0144827937
0.0146830431
0.0147224643
0.0147372752
0.0146467788
0.014181798
0.0140895961
0.0140818817
0.0140682403
0.0142456929
0.0146936467
0.0147717317
0.0147814108
0.0147836227
0.0147884853
0.0148341141
0.014613618
0.0141553452
0.0140861365
0.0141036435
0.0140958713
0.0140820622
0.0142203992
0.014706958
0.0147922717
0.0147826337
0.0147806989
0.0147921664
0.0147660099
0.0142768456
0.0140986351
0.0140948868
0.0140931821
0.0140922194
0.0140823927
0.0142665052
0.014772584
0.0148402641
0.0148151176
0.0148043354
0.0148253666
0.0145440565
0.0141148167
0.0140671507
0.0142226413
0.0147125021
0.0148191094
0.0147827835
0.0142940915
0.0141018491
0.0140785446
0.0141950711
0.0146969929
0.0147868693
0.0147654659
0.0144630028
0.0140875782
0.0141886863
0.0147126814
0.0147746025
0.0144328282
0.0140879349
0.0142434859
0.0146712554
0.0145283375
0.0140868352
0.0142190232
0.0147481908
0.0147850212
0.0144277682
0.0140886822
0.0142352926
0.0147504628
0.0147901164
0.0144351824
0.0140902918
0.0140686421
0.0142080652
0.0147355206
0.014769705
0.0143602575
0.0140852786
0.0142294044
0.0147516124
0.0147713369
0.0143909075
0.0140895804
0.0142541723
0.0147639971
0.0147834417
0.0147586277
0.0147633118
0.0147478985
0.0143809188
0.0140910824
0.0142980199
0.0147327829
0.0146711792
0.0141128169
0.0140868121
0.0143958614
0.0147611052
0.0147028923
0.014171746
0.0140852679
0.0143207987
0.0147796834
0.0147909269
0.0147540293
0.0143952092
0.0140933556
0.0143254248
0.0146978368
0.0144610827
0.014097262
0.0143796891
0.0147378806
0.0144591768
0.0141065567
0.0144293964
0.0147705778
0.0144634629
0.0141097537
0.0144366677
0.0147646497
0.0144672827
0.0141009635
0.0143335509
0.0148135715
0.0147992057
0.0143828235
0.0141102834
0.0144382148
0.0147501656
0.0144340133
0.0141028262
0.0144036347
0.0148289233
0.0148043318
0.0143653149
0.0141125382
0.0144822209
0.0147788933
0.0144217415
0.0141080638
0.0144818758
0.0147764071
0.0144148973
0.01410581
0.0144707336
0.0147637108
0.0144060067
0.0141038354
0.0144705949
0.0147610364
0.0144043952
0.0141023959
0.0144702701
0.0147600045
0.0144158899
0.0141006688
0.0144157939
0.0148280059
0.0148136726
0.014385694
0.0141001722
0.0144344384
0.0147384621
0.0143999675
0.0140959192
0.0144458025
0.014741524
0.0144158932
0.0140978867
0.0143936451
0.0148136717
0.0148139534
0.0143738488
0.0140988174
0.0144318144
0.0147364526
0.0144173087
0.0140973123
0.0143847413
0.0148089501
0.0148124618
0.0143703376
0.0140964071
0.0144316372
0.0147310617
0.0143956585
0.0140924428
0.0144391912
0.0147351344
0.0144099062
0.0140952529
0.0143884921
0.014805851
0.0148055996
0.0143371073
0.014094002
0.0144491693
0.0147240156
0.0143756582
0.0140944804
0.0144283803
0.0147824613
0.0147758591
0.0147851755
0.0147721509
0.0142973955
0.014095128
0.014459195
0.0146944335
0.0143425834
0.0140972627
0.0144182085
0.0147874775
0.014753608
0.0142332809
0.0141044623
0.0144482477
0.0147880913
0.0147370312
0.0142014616
0.0141100572
0.0144779516
0.0147890009
0.0147203397
0.0141777664
0.014114742
0.0144927574
0.0147861482
0.0146956652
0.0141360387
0.0141186368
0.014504328
0.0147829347
0.0146410484
0.0141099573
0.0141244737
0.0145478554
0.0147816439
0.0147774502
0.0146653482
0.0141319906
0.014128888
0.0145903343
0.0146364437
0.0141825047
0.0141336641
0.0145933582
0.014798125
0.0146361657
0.0141200518
0.0141398761
0.0146204903
0.0148003012
0.0146265727
0.0141181058
0.0141410061
0.0146346143
0.0148043547
0.0146263377
0.0141171783
0.0141394131
0.0146431048
0.0148107409
0.0146231496
0.0141106784
0.0141350412
0.0146665636
0.0147945016
0.0147834753
0.0146693903
0.0141190454
0.0141209539
0.0146643131
0.0146812989
0.0141415766
0.0141223562
0.0146313861
0.0148220262
0.0146779304
0.0141194251
0.014105605
0.0146503552
0.0146909026
0.0141735285
0.0141163089
0.0145869593
0.0148212655
0.0147325904
0.0141430024
0.0141019104
0.0146077263
0.0147036994
0.0142234588
0.0141144615
0.0145411555
0.0148227751
0.0147934319
0.0141727177
0.0141010557
0.0145591125
0.0147095246
0.0142737813
0.014115134
0.0144932201
0.0148160257
0.0148193027
0.0142173971
0.0141009991
0.0145122442
0.0147059724
0.0143162998
0.0141168881
0.0144475642
0.0148061977
0.0148231386
0.0142757958
0.0141106387
0.0144246834
0.0147982335
0.0148228623
0.0142979335
0.0141111994
0.0144046401
0.0147897806
0.0148169004
0.0143223628
0.0141028579
0.0144396996
0.0146924404
0.0143767713
0.0141093755
0.0144346404
0.0147028017
0.0143837785
0.0141164409
0.0143753056
0.0147836069
0.0148212271
0.01436149
0.0141020272
0.0144129099
0.0146872157
0.0143912882
0.0141045571
0.0144127256
0.0146924222
0.0143831688
0.0141096719
0.0143491375
0.0147739801
0.0148085002
0.0143221122
0.0140971094
0.0143610365
0.0147289993
0.0147583974
0.0148027022
0.014808006
0.0143256907
0.0140998983
0.014329311
0.0147601205
0.0147983381
0.0143143951
0.0140959647
0.0143423431
0.0147638
0.0148047074
0.0143434563
0.0140884323
0.0143939097
0.0146879964
0.014405754
0.0140885906
0.0143900639
0.0147042051
0.0144076727
0.0140889063
0.0144082604
0.014722056
0.0143961821
0.0140953059
0.0143596716
0.0148036406
0.0148358926
0.0143239256
0.0140936018
0.0143791938
0.014804149
0.0148312443
0.0143017324
0.0140919706
0.0143830132
0.0148036095
0.0148276821
0.0142918936
0.0140903853
0.0143811807
0.014799012
0.0148197029
0.0142995629
0.014081717
0.0144487409
0.014721936
0.0143687052
0.0140866299
0.0143628314
0.0148061461
0.0148227688
0.0142860755
0.0140798687
0.0144690062
0.0147264945
0.0143473468
0.0140842106
0.0143832134
0.0148148235
0.0148259084
0.01426284
0.0140881289
0.0144018732
0.0148128146
0.0148110827
0.0142741488
0.0140808363
0.0140835127
0.0143774025
0.0147619355
0.014781105
0.0148297693
0.0148275429
0.0143052233
0.0140875146
0.0140847663
0.0143240129
0.0147819365
)
;

boundaryField
{
    closed
    {
        type            zeroGradient;
    }
    open
    {
        type            zeroGradient;
    }
    sides
    {
        type            empty;
    }
    procBoundary0to1
    {
        type            processor;
        value           uniform 0.0148098895;
    }
}


// ************************************************************************* //
