/*--------------------------------*- C++ -*----------------------------------*\
| =========                 |                                                 |
| \\      /  F ield         | OpenFOAM: The Open Source CFD Toolbox           |
|  \\    /   O peration     | Version:  2306                                  |
|   \\  /    A nd           | Website:  www.openfoam.com                      |
|    \\/     M anipulation  |                                                 |
\*---------------------------------------------------------------------------*/
FoamFile
{
    version     2.0;
    format      ascii;
    arch        "LSB;label=32;scalar=64";
    class       volScalarField;
    location    "0.0013";
    object      sourcePV;
}
// * * * * * * * * * * * * * * * * * * * * * * * * * * * * * * * * * * * * * //

dimensions      [1 -3 -1 0 0 0 0];

internalField   nonuniform List<scalar> 
530
(
0.0549224289
0.0807966734
0.0816655141
0.0815420871
0.0815306521
0.0815304516
0.0815304432
0.0815304428
0.0815304428
0.0815304428
0.0815304428
0.0815304428
0.0815304428
0.0815304428
0.0815304428
0.0815304428
0.0815304428
0.0815304428
0.0815304428
0.0815304428
0.0815304428
0.0815304428
0.0815304428
0.0815304428
0.0815304428
0.0815304428
0.0815304428
0.0815304428
0.0815304428
0.0815304428
0.0815304428
0.0815304428
0.0815304428
0.0815304428
0.0815304428
0.0815304428
0.0815304428
0.0815304428
0.0815304428
0.0815304428
0.0815304428
0.0815304428
0.0815304428
0.0815304428
0.0815304428
0.0815304428
0.0815304428
0.0815304428
0.0815304428
0.0815304428
0.0815304428
0.0815304428
0.0815304428
0.0815304428
0.0815304428
0.0815304428
0.0815304428
0.0815304428
0.0815304428
0.0815304428
0.0815304428
0.0815304428
0.0815304429
0.0815304431
0.0815304437
0.0815304455
0.0815304497
0.0815304602
0.0815304777
0.0815305335
0.0815306226
0.0815305937
0.0815308658
0.0815333828
0.0815329579
0.0815246397
0.0815345113
0.0815655007
0.0815401254
0.0815060433
0.0814833482
0.0816097991
0.0821304624
0.0824594985
0.080756736
0.076013466
0.0790560224
0.101137217
0.13280836
0.123292686
0.0115771964
0.0062557421
0.00366013602
0.120368526
0.155395892
0.146943407
0.156590719
0.127133844
0.00526966801
0.00568365486
0.00550687682
0.0051258372
0.0854168803
0.155584733
0.150510099
0.149133577
0.149178652
0.143244364
0.0581636787
0.00587707591
0.0059064709
0.00548405495
0.00601900488
0.00508777881
0.0810980973
0.165248241
0.159723401
0.154301771
0.154571642
0.143414326
0.0511848812
0.00588948352
0.0055500265
0.0565271213
0.156726822
0.160212887
0.138024993
0.024119103
0.00544461221
0.00515370376
0.0330790105
0.155227702
0.155732954
0.139873307
0.0678564294
0.00615932822
0.0361234042
0.134689327
0.101220793
0.0060547196
0.00246304315
0.162165102
0.163170427
0.0570201602
0.00593686221
0.0413895216
0.127966018
0.0844351666
0.00653923484
0.00522679439
0.144045018
0.1520687
0.139060639
0.080495732
0.00553982024
0.00607245565
0.0147957343
0.157201998
0.155871711
0.0228336691
0.00597697815
0.040679712
0.129887084
0.101565193
0.00617161827
0.00444027942
0.162718723
0.163100324
0.145555805
0.144930398
0.155631753
0.126128973
0.005222309
0.00634496756
0.0546610752
0.130152425
0.106936569
0.00615994046
0.00269114335
0.15664827
0.154847602
0.019604517
0.00577369319
0.00366245316
0.158781378
0.160522814
0.150737861
0.116644466
0.00581834442
0.00613746769
0.0639904719
0.132411003
0.0939922931
0.00613074778
0.0345603369
0.142587154
0.109635542
0.00588806471
0.00364777668
0.174085809
0.175325925
0.0794905394
0.00518318165
0.0504718663
0.152049629
0.0940472717
0.00545187193
0.061632182
0.151584741
0.106106192
0.0056377543
0.00271735474
0.172909294
0.174237393
0.0772158798
0.00515502407
0.0527517144
0.149472332
0.10624571
0.00559532718
0.00244435371
0.175074758
0.176598834
0.0793471132
0.00505828727
0.0552898176
0.152377154
0.0918970748
0.00537187966
0.0622181943
0.150936779
0.0896388999
0.00544975214
0.059921814
0.148352814
0.0873733213
0.00545665445
0.0617692974
0.147913068
0.102842042
0.00565394246
0.00229321961
0.173745888
0.175042937
0.073342373
0.00501791566
0.0575758506
0.152198439
0.091048554
0.00533582073
0.0629719035
0.150069439
0.0886325384
0.00544144163
0.0593653381
0.147434403
0.102497433
0.00572913276
0.00249488591
0.166153186
0.16721303
0.0750539665
0.00540655916
0.00353482243
0.165191736
0.165826474
0.0818900135
0.005641955
0.00223652195
0.144853994
0.110351283
0.00563592689
0.0417911113
0.147400725
0.109481047
0.00571201777
0.00488701998
0.168757022
0.169962783
0.0836576383
0.00555193401
0.00208091776
0.146651682
0.118748831
0.00563631878
0.00484974538
0.171537875
0.172675857
0.148833219
0.144272927
0.057200326
0.00553260086
0.0429767937
0.148116541
0.10876137
0.00592948317
0.00286395518
0.148236902
0.129461546
0.00512637836
0.00489738651
0.112326542
0.143327866
0.0881149944
0.00568841929
0.00306903575
0.170782515
0.172153718
0.137897172
0.0473915945
0.00567344435
0.0430537064
0.147520678
0.110935999
0.00633211812
0.00413544232
0.140978214
0.153856547
0.0871407451
0.00593087085
0.00527614482
0.083294858
0.167411821
0.162045159
0.09265403
0.00611081037
0.00447888256
0.134194302
0.145388584
0.0844141089
0.00599539685
0.00283133898
0.146487197
0.146077392
0.0643145803
0.00575927029
0.00992683514
0.159539904
0.159701508
0.0705070023
0.00555738257
0.00966480757
0.16188908
0.161971384
0.071938236
0.00552051266
0.00941472857
0.16193006
0.162587523
0.0786137472
0.00544404099
0.0071360635
0.163829289
0.164809373
0.143889516
0.0856147228
0.00580423537
0.00350211688
0.152398427
0.120508075
0.00627860015
0.00412875412
0.136358041
0.1559806
0.0990335175
0.00593290313
0.00264044629
0.136545524
0.11004803
0.00611591937
0.00313944045
0.150812385
0.151510742
0.0882418051
0.00561103717
0.00194334438
0.16153385
0.129790127
0.00587781476
0.00383908899
0.156452885
0.165749857
0.104028867
0.00559396736
0.00258666617
0.15061311
0.12130517
0.0060561366
0.00411281278
0.150889917
0.161891515
0.104008619
0.00570524724
0.00272697585
0.148295998
0.120510463
0.00597054829
0.00400808772
0.161708198
0.163467498
0.0972615717
0.00561154138
0.00323597934
0.163979893
0.164586098
0.0953709211
0.00563497358
0.00324662367
0.162098694
0.162738853
0.0995365407
0.00575576124
0.00242171836
0.143016534
0.120005608
0.00606368697
0.00383018403
0.143631716
0.115942462
0.00601267591
0.0034961309
0.163470277
0.164487965
0.101033351
0.0056825104
0.00213180548
0.144892935
0.120164645
0.00608745736
0.0030806012
0.140838979
0.11449488
0.0061467464
0.00379072829
0.157997793
0.158911378
0.0911131821
0.00578096063
0.00346164759
0.157075338
0.157788862
0.144281829
0.147826543
0.0874128591
0.00637319354
0.00490460483
0.12197864
0.141577535
0.0874388174
0.00616270878
0.00411127573
0.154375673
0.158592835
0.0993345437
0.00583226512
0.00228511473
0.142022149
0.119667828
0.006098599
0.0045793853
0.143066127
0.119886084
0.00609042389
0.00453154834
0.145158104
0.117707795
0.00594675122
0.00331885157
0.165200862
0.167808789
0.100081685
0.00562439827
0.00375493948
0.161511916
0.163236826
0.0970412093
0.00572172286
0.00402624752
0.157941914
0.159989021
0.0964989691
0.00572430104
0.00449018854
0.156693662
0.159657334
0.105907006
0.00564405373
0.00365129378
0.138903309
0.120712092
0.00557078329
0.00506595993
0.151041205
0.162567154
0.117725675
0.00485815145
0.00429624683
0.129602631
0.130066994
0.00367095851
0.00524643453
0.126471322
0.161147385
0.130585021
0.00314449895
0.00529791902
0.106295073
0.148423238
0.1192958
0.0134449758
0.00573085461
0.00498104461
0.102808385
0.163306102
0.156738953
0.158906462
0.159946966
0.0460683079
0.00531792975
0.00563980478
0.061905322
0.148227851
0.156908068
0.0569251076
0.00457370166
0.0530698478
0.125893536
0.143478692
0.142920765
0.0407320947
)
;

boundaryField
{
    closed
    {
        type            calculated;
        value           uniform 0;
    }
    open
    {
        type            calculated;
        value           nonuniform List<scalar> 0();
    }
    sides
    {
        type            empty;
    }
    procBoundary0to1
    {
        type            processor;
        value           uniform 0;
    }
}


// ************************************************************************* //
