/*--------------------------------*- C++ -*----------------------------------*\
| =========                 |                                                 |
| \\      /  F ield         | OpenFOAM: The Open Source CFD Toolbox           |
|  \\    /   O peration     | Version:  2306                                  |
|   \\  /    A nd           | Website:  www.openfoam.com                      |
|    \\/     M anipulation  |                                                 |
\*---------------------------------------------------------------------------*/
FoamFile
{
    version     2.0;
    format      ascii;
    arch        "LSB;label=32;scalar=64";
    class       volScalarField;
    location    "0.00112";
    object      mu;
}
// * * * * * * * * * * * * * * * * * * * * * * * * * * * * * * * * * * * * * //

dimensions      [1 -1 -1 0 0 0 0];

internalField   nonuniform List<scalar> 
530
(
2.02436551e-05
1.98123375e-05
1.96358889e-05
1.97402928e-05
2.01054443e-05
2.02309811e-05
1.97791358e-05
1.96328648e-05
1.97538872e-05
2.01899308e-05
2.02210698e-05
1.97694721e-05
1.96396753e-05
1.97494854e-05
2.02262434e-05
2.02101124e-05
1.97617791e-05
1.9550572e-05
1.95966916e-05
1.97622713e-05
2.02797804e-05
2.02711097e-05
2.02699941e-05
2.01344108e-05
1.97528451e-05
1.95924555e-05
1.97465213e-05
2.02209062e-05
2.01449796e-05
1.97692005e-05
1.95464555e-05
1.96019942e-05
1.97674775e-05
2.02400889e-05
2.01177449e-05
1.97733969e-05
1.96079386e-05
1.97648948e-05
2.02357126e-05
2.01050167e-05
1.97522388e-05
1.96344142e-05
1.97686773e-05
2.02826294e-05
2.02817399e-05
2.02600333e-05
2.00148358e-05
1.96951961e-05
1.95543392e-05
1.96113222e-05
1.97721962e-05
2.02218291e-05
2.0040298e-05
1.95982973e-05
1.95103524e-05
1.95797202e-05
1.97544564e-05
2.02805807e-05
2.02746877e-05
1.98692582e-05
1.97816557e-05
1.97660018e-05
2.01969641e-05
2.00726652e-05
1.96611811e-05
1.95703667e-05
1.97753994e-05
2.02411317e-05
2.00299598e-05
1.97898556e-05
1.9771388e-05
2.02674789e-05
2.02282971e-05
1.9768286e-05
1.97776402e-05
1.98041998e-05
1.98161126e-05
1.97748415e-05
1.97976544e-05
2.02598416e-05
2.00952304e-05
1.96175825e-05
1.95266498e-05
1.9764444e-05
2.0256917e-05
2.00911263e-05
1.97945058e-05
1.97709429e-05
2.02339126e-05
2.0105499e-05
1.96209271e-05
1.9508893e-05
1.97625217e-05
2.02638074e-05
2.01313436e-05
1.97953987e-05
1.97756172e-05
2.02617513e-05
2.0142814e-05
1.97958921e-05
1.97803973e-05
2.0260681e-05
2.01774374e-05
1.96612098e-05
1.95258762e-05
1.97712857e-05
2.02689095e-05
2.02273977e-05
1.96863741e-05
1.95306442e-05
1.97725047e-05
2.02704306e-05
2.02545878e-05
1.96987407e-05
1.95120448e-05
1.97695329e-05
2.02677362e-05
2.02802137e-05
1.97862361e-05
1.97994076e-05
2.02619801e-05
2.02791995e-05
1.97521794e-05
1.95069836e-05
1.97687827e-05
2.02629851e-05
2.02924605e-05
1.97592346e-05
1.95147686e-05
1.97697468e-05
2.02571915e-05
2.02983955e-05
1.97560693e-05
1.95194029e-05
1.97727109e-05
2.02459041e-05
2.03012982e-05
1.97556648e-05
1.95065692e-05
1.9712246e-05
2.02218915e-05
2.0310526e-05
1.97728236e-05
1.97742243e-05
2.01105827e-05
2.02866893e-05
1.97593497e-05
1.94634959e-05
1.95641384e-05
2.017814e-05
2.03062325e-05
1.97741876e-05
1.97400454e-05
2.00182556e-05
2.02787308e-05
1.98041692e-05
1.95783806e-05
1.95954773e-05
2.01576808e-05
2.02930586e-05
1.98028559e-05
1.95352948e-05
1.95148445e-05
2.00582252e-05
2.02965164e-05
1.97954682e-05
1.9738634e-05
1.99042215e-05
2.02691941e-05
1.98454139e-05
1.96021198e-05
1.95707061e-05
2.00135277e-05
2.0284603e-05
1.98869299e-05
1.96640993e-05
1.96145883e-05
1.99699015e-05
2.0281696e-05
1.99236447e-05
1.97077642e-05
1.9639271e-05
1.99516408e-05
2.02843425e-05
1.98976159e-05
1.96982762e-05
1.96317906e-05
1.95651249e-05
1.95488348e-05
1.98713971e-05
2.02798411e-05
1.9859482e-05
1.97751415e-05
1.98270817e-05
2.02730999e-05
1.98529732e-05
1.97718396e-05
1.98361724e-05
2.0262401e-05
1.98783314e-05
1.95729367e-05
1.9512676e-05
1.99052376e-05
2.02721331e-05
1.98069899e-05
1.96904943e-05
1.98386017e-05
2.02589516e-05
1.97923011e-05
1.97009991e-05
1.98700887e-05
2.02417405e-05
1.97914512e-05
1.95006033e-05
1.95551128e-05
2.00393388e-05
2.02383976e-05
1.97685667e-05
1.9707351e-05
1.99282364e-05
2.02220956e-05
1.97557821e-05
1.96905273e-05
1.99632578e-05
2.02026211e-05
1.97468535e-05
1.96602295e-05
1.99886623e-05
2.02037826e-05
1.97670784e-05
1.95627986e-05
1.97437644e-05
2.02344491e-05
2.0203938e-05
1.97764747e-05
1.97665762e-05
2.01073006e-05
2.01856221e-05
1.97627237e-05
1.96791863e-05
2.00370191e-05
2.02129122e-05
1.97766813e-05
1.95895743e-05
1.97430141e-05
2.02485558e-05
2.01829677e-05
1.97738812e-05
1.95566398e-05
1.9752281e-05
2.02892867e-05
2.01859002e-05
1.97296219e-05
1.96794925e-05
1.99474801e-05
2.02371712e-05
1.98029031e-05
1.96154219e-05
1.97519512e-05
2.02663872e-05
2.01957067e-05
1.97756593e-05
1.96222584e-05
1.97757475e-05
2.02930843e-05
2.02128677e-05
1.97725712e-05
1.95743047e-05
1.96572842e-05
1.98129457e-05
2.03027162e-05
2.01938038e-05
1.97407235e-05
1.95768306e-05
1.97708746e-05
2.02937272e-05
2.0190347e-05
1.96899196e-05
1.95302523e-05
1.97619325e-05
2.02845619e-05
2.01060519e-05
1.97512569e-05
1.97672072e-05
2.0265501e-05
2.02219601e-05
1.97282195e-05
1.95984273e-05
1.98012725e-05
2.02965469e-05
2.02181392e-05
1.96892399e-05
1.95643358e-05
1.97855087e-05
2.02977671e-05
2.02210586e-05
1.96630477e-05
1.95528222e-05
1.97862834e-05
2.02974559e-05
2.02247025e-05
1.96431329e-05
1.95531853e-05
1.97919611e-05
2.02982522e-05
2.02380568e-05
1.96496825e-05
1.96376522e-05
1.98831788e-05
2.02803757e-05
1.99112058e-05
1.95561335e-05
1.96596286e-05
2.00294695e-05
2.02731915e-05
1.98495453e-05
1.95394888e-05
1.96270507e-05
1.98600495e-05
2.02891668e-05
2.01540412e-05
1.95615602e-05
1.94880915e-05
1.97557504e-05
2.02848532e-05
2.02903724e-05
2.00012903e-05
1.95103202e-05
1.95001804e-05
1.97827711e-05
2.02890197e-05
2.02340342e-05
1.96052675e-05
1.94935445e-05
1.97839225e-05
2.02927943e-05
2.02458865e-05
1.95950946e-05
1.95025002e-05
1.97887887e-05
2.0291652e-05
2.02394238e-05
1.972597e-05
1.97670368e-05
2.02692241e-05
2.02531013e-05
1.97017626e-05
1.95207746e-05
1.97932058e-05
2.02900889e-05
2.02424771e-05
1.97270699e-05
1.97952124e-05
2.02853477e-05
2.02574586e-05
1.96368459e-05
1.95201735e-05
1.96110893e-05
1.95813759e-05
1.97900054e-05
2.02947439e-05
2.02446703e-05
1.97003843e-05
1.97845286e-05
2.02943143e-05
2.02575634e-05
1.95931701e-05
1.94269144e-05
1.97739673e-05
2.02888751e-05
2.02566061e-05
1.96403417e-05
1.97114399e-05
2.02899038e-05
2.02460781e-05
1.96331814e-05
1.97093707e-05
2.0295017e-05
2.02481859e-05
1.96011504e-05
1.96902487e-05
2.02959621e-05
2.02489733e-05
1.95904779e-05
1.96828144e-05
2.02956177e-05
2.02497505e-05
1.95894125e-05
1.96827797e-05
2.02949864e-05
2.02514031e-05
1.95762453e-05
1.96872944e-05
2.03022239e-05
2.02630679e-05
1.94900853e-05
1.93272538e-05
1.97700554e-05
2.02825625e-05
2.02714761e-05
1.96131881e-05
1.96998752e-05
2.02976094e-05
2.0269345e-05
1.96114404e-05
1.97264457e-05
2.03012764e-05
2.02464901e-05
1.95891407e-05
1.97415698e-05
2.03071501e-05
2.02907246e-05
1.94805539e-05
1.93212286e-05
1.97738021e-05
2.02833485e-05
2.0258988e-05
1.96456246e-05
1.97812185e-05
2.02986453e-05
2.02459155e-05
1.96523358e-05
1.97954868e-05
2.0293633e-05
2.0221541e-05
1.96734303e-05
1.97815281e-05
2.02825986e-05
2.03182906e-05
1.9695754e-05
1.9500926e-05
1.97631761e-05
2.02581652e-05
2.03128227e-05
1.97569494e-05
1.96106904e-05
1.96659614e-05
1.96565098e-05
1.96537668e-05
1.98039386e-05
2.02579558e-05
2.03089037e-05
1.98082372e-05
1.9683311e-05
1.97594208e-05
2.01712377e-05
2.03020681e-05
1.97817751e-05
1.95731391e-05
1.96243737e-05
2.00687197e-05
2.02611962e-05
1.97955945e-05
1.97726474e-05
1.98758362e-05
2.02546163e-05
1.98646404e-05
1.96243629e-05
1.95791697e-05
1.98847383e-05
2.02509462e-05
1.99291532e-05
1.97065477e-05
1.96337586e-05
1.98519311e-05
2.02362182e-05
1.99490514e-05
1.96941551e-05
1.96608536e-05
1.99288043e-05
2.02055527e-05
1.98002445e-05
1.9616038e-05
1.9742925e-05
2.01708443e-05
2.00819735e-05
1.97483644e-05
1.95677241e-05
1.97813741e-05
2.02231977e-05
2.00383112e-05
1.97206769e-05
1.95376032e-05
1.97823642e-05
2.02198209e-05
1.99341032e-05
1.97787083e-05
1.97734829e-05
2.02202333e-05
2.00153613e-05
1.96929134e-05
1.95078063e-05
1.97817828e-05
2.02363369e-05
1.99394918e-05
1.97837061e-05
1.97905249e-05
2.02371608e-05
1.98838153e-05
1.9780459e-05
1.97894809e-05
2.02548554e-05
1.99770216e-05
1.96665308e-05
1.95357222e-05
1.98093937e-05
2.02656868e-05
1.99891209e-05
1.96784788e-05
1.95558524e-05
1.98190289e-05
2.02746284e-05
1.99956014e-05
1.96932995e-05
1.95787246e-05
1.98296392e-05
2.02801097e-05
1.99934756e-05
1.96818513e-05
1.95608008e-05
1.9827314e-05
2.02839758e-05
2.00063641e-05
1.96858426e-05
1.95645856e-05
1.98273136e-05
2.02861717e-05
2.00080461e-05
1.96735225e-05
1.95516143e-05
)
;

boundaryField
{
    closed
    {
        type            calculated;
        value           nonuniform List<scalar> 0();
    }
    open
    {
        type            calculated;
        value           nonuniform List<scalar> 0();
    }
    sides
    {
        type            empty;
    }
    procBoundary2to1
    {
        type            processor;
        value           uniform 2.00158153e-05;
    }
    procBoundary2to3
    {
        type            processor;
        value           uniform 1.98244529e-05;
    }
}


// ************************************************************************* //
