/*--------------------------------*- C++ -*----------------------------------*\
| =========                 |                                                 |
| \\      /  F ield         | OpenFOAM: The Open Source CFD Toolbox           |
|  \\    /   O peration     | Version:  2306                                  |
|   \\  /    A nd           | Website:  www.openfoam.com                      |
|    \\/     M anipulation  |                                                 |
\*---------------------------------------------------------------------------*/
FoamFile
{
    version     2.0;
    format      ascii;
    arch        "LSB;label=32;scalar=64";
    class       volScalarField;
    location    "0.00112";
    object      prefDZ_H2;
}
// * * * * * * * * * * * * * * * * * * * * * * * * * * * * * * * * * * * * * //

dimensions      [1 -1 -1 0 0 0 0];

internalField   nonuniform List<scalar> 
530
(
6.33952284e-05
6.2359926e-05
6.19832393e-05
6.22703392e-05
6.30321939e-05
6.33547766e-05
6.22975117e-05
6.1974679e-05
6.23021941e-05
6.32356629e-05
6.33236998e-05
6.22855432e-05
6.19929503e-05
6.22750969e-05
6.3337603e-05
6.32865812e-05
6.22837471e-05
6.17500393e-05
6.18770662e-05
6.22779643e-05
6.35133933e-05
6.34918962e-05
6.34854671e-05
6.31018519e-05
6.22818696e-05
6.18636873e-05
6.22480024e-05
6.33188058e-05
6.31282358e-05
6.23412787e-05
6.17386651e-05
6.18915688e-05
6.22844855e-05
6.33800216e-05
6.3062101e-05
6.23578456e-05
6.19056083e-05
6.22719051e-05
6.3366589e-05
6.30318941e-05
6.23012388e-05
6.197865e-05
6.22801231e-05
6.35261163e-05
6.35255613e-05
6.34538405e-05
6.28169411e-05
6.21452705e-05
6.17605493e-05
6.19168874e-05
6.22881186e-05
6.33194407e-05
6.2877621e-05
6.18793474e-05
6.16410697e-05
6.18313394e-05
6.22698632e-05
6.35147545e-05
6.34985976e-05
6.24823163e-05
6.23784572e-05
6.22860874e-05
6.32546631e-05
6.29548217e-05
6.20516379e-05
6.18026828e-05
6.22903185e-05
6.33835756e-05
6.28530051e-05
6.23913422e-05
6.23084016e-05
6.34623579e-05
6.3336777e-05
6.23272026e-05
6.23643592e-05
6.2347237e-05
6.23715752e-05
6.23147975e-05
6.23337217e-05
6.34370503e-05
6.30091411e-05
6.19325558e-05
6.16832602e-05
6.2276915e-05
6.34328739e-05
6.29992951e-05
6.2408505e-05
6.2312666e-05
6.33551253e-05
6.30335679e-05
6.19418181e-05
6.16344939e-05
6.22793619e-05
6.34557781e-05
6.30962149e-05
6.241727e-05
6.23385725e-05
6.34451582e-05
6.31235581e-05
6.24185675e-05
6.23518358e-05
6.34417939e-05
6.32069541e-05
6.20520654e-05
6.16803856e-05
6.23025263e-05
6.34745438e-05
6.33346704e-05
6.21210471e-05
6.16933067e-05
6.23091601e-05
6.34801769e-05
6.3421146e-05
6.21552453e-05
6.1642416e-05
6.23154358e-05
6.34731731e-05
6.35022023e-05
6.23842967e-05
6.2420664e-05
6.34485813e-05
6.3502728e-05
6.23021095e-05
6.16288119e-05
6.23217584e-05
6.34584175e-05
6.35446374e-05
6.23112142e-05
6.1650605e-05
6.23332777e-05
6.34402289e-05
6.35653686e-05
6.22905868e-05
6.16635815e-05
6.23520636e-05
6.34041668e-05
6.35760587e-05
6.22766019e-05
6.16285617e-05
6.21922428e-05
6.33283184e-05
6.36063367e-05
6.23164619e-05
6.2360685e-05
6.30458461e-05
6.35304595e-05
6.22754529e-05
6.15106054e-05
6.17866717e-05
6.32074365e-05
6.35923787e-05
6.23066453e-05
6.22676771e-05
6.28254114e-05
6.35084822e-05
6.23502383e-05
6.18249723e-05
6.1871569e-05
6.31582375e-05
6.35539198e-05
6.23463301e-05
6.17079373e-05
6.16519918e-05
6.29199351e-05
6.3563733e-05
6.2333542e-05
6.22643324e-05
6.25589933e-05
6.34774535e-05
6.24324534e-05
6.18905924e-05
6.18046409e-05
6.28139589e-05
6.35301452e-05
6.25236876e-05
6.2060852e-05
6.19248387e-05
6.27114774e-05
6.35218782e-05
6.26058662e-05
6.21802769e-05
6.19922407e-05
6.26689597e-05
6.35283789e-05
6.25469897e-05
6.21549144e-05
6.1972955e-05
6.17901214e-05
6.17451012e-05
6.24855494e-05
6.35120267e-05
6.24622716e-05
6.23635484e-05
6.23890623e-05
6.34891647e-05
6.24476491e-05
6.23543178e-05
6.24083829e-05
6.34559622e-05
6.25037169e-05
6.18113419e-05
6.16467319e-05
6.25621832e-05
6.34857473e-05
6.2350418e-05
6.21329411e-05
6.24126365e-05
6.34416523e-05
6.23198102e-05
6.21609343e-05
6.24822269e-05
6.33886558e-05
6.23213099e-05
6.16130266e-05
6.17638781e-05
6.2874761e-05
6.33795798e-05
6.22881327e-05
6.21791245e-05
6.26147579e-05
6.33242721e-05
6.22661163e-05
6.21328927e-05
6.26958973e-05
6.32674387e-05
6.22642821e-05
6.20501867e-05
6.27554309e-05
6.32696683e-05
6.22876887e-05
6.17817086e-05
6.22729697e-05
6.33658654e-05
6.32703824e-05
6.23500392e-05
6.23399521e-05
6.30375961e-05
6.32261348e-05
6.2330458e-05
6.21022755e-05
6.28695603e-05
6.32999137e-05
6.22973034e-05
6.18551607e-05
6.22517539e-05
6.3407035e-05
6.32185255e-05
6.2359866e-05
6.17662201e-05
6.22488737e-05
6.35381188e-05
6.32266232e-05
6.22401329e-05
6.21029069e-05
6.26595157e-05
6.33747289e-05
6.23388526e-05
6.19260577e-05
6.2262159e-05
6.34650227e-05
6.32491254e-05
6.23597214e-05
6.19451639e-05
6.22929822e-05
6.35546894e-05
6.3298168e-05
6.23419127e-05
6.18154401e-05
6.20434058e-05
6.23670725e-05
6.35852676e-05
6.32450677e-05
6.22709409e-05
6.18213468e-05
6.22826368e-05
6.35532525e-05
6.3237428e-05
6.21313293e-05
6.16936642e-05
6.22680322e-05
6.35251588e-05
6.30344175e-05
6.2297416e-05
6.23259873e-05
6.34571089e-05
6.33210082e-05
6.22352139e-05
6.18798806e-05
6.23447031e-05
6.3568119e-05
6.33097353e-05
6.21294538e-05
6.17868807e-05
6.2315253e-05
6.35701466e-05
6.33179749e-05
6.2057789e-05
6.17553372e-05
6.2317662e-05
6.35695482e-05
6.33285151e-05
6.20034837e-05
6.17564669e-05
6.23277631e-05
6.3572907e-05
6.33702174e-05
6.20208804e-05
6.19870182e-05
6.25143883e-05
6.35156538e-05
6.25753368e-05
6.17650794e-05
6.20490547e-05
6.28510221e-05
6.34938173e-05
6.24381043e-05
6.1719834e-05
6.19602655e-05
6.24670553e-05
6.35473089e-05
6.31498099e-05
6.17807566e-05
6.15780491e-05
6.22762093e-05
6.35383268e-05
6.35548111e-05
6.2784912e-05
6.16410856e-05
6.1612114e-05
6.2317654e-05
6.35445489e-05
6.33573384e-05
6.18998287e-05
6.15930423e-05
6.23188596e-05
6.35557252e-05
6.33947537e-05
6.18722144e-05
6.16176973e-05
6.23278234e-05
6.35558053e-05
6.33771173e-05
6.22277426e-05
6.23393085e-05
6.34733674e-05
6.34235859e-05
6.21628709e-05
6.16678913e-05
6.2335243e-05
6.3553343e-05
6.33855559e-05
6.22312635e-05
6.24168713e-05
6.35272716e-05
6.3437663e-05
6.19847732e-05
6.16660359e-05
6.19169973e-05
6.18350849e-05
6.23339067e-05
6.35685913e-05
6.33934208e-05
6.21588153e-05
6.23876122e-05
6.35554711e-05
6.34376435e-05
6.18667154e-05
6.14115734e-05
6.23098604e-05
6.35471455e-05
6.34269982e-05
6.19948308e-05
6.21885384e-05
6.35429319e-05
6.33999912e-05
6.19747279e-05
6.21832995e-05
6.35594319e-05
6.34052182e-05
6.18878307e-05
6.21311144e-05
6.35625113e-05
6.34078297e-05
6.18587835e-05
6.21107417e-05
6.35620869e-05
6.34108976e-05
6.18558338e-05
6.21104161e-05
6.35604591e-05
6.34156667e-05
6.18201046e-05
6.21226807e-05
6.35813133e-05
6.34536706e-05
6.15862148e-05
6.11391769e-05
6.23251649e-05
6.35279621e-05
6.34736566e-05
6.19211514e-05
6.21566933e-05
6.35716671e-05
6.34721695e-05
6.1916527e-05
6.22286617e-05
6.35829129e-05
6.33963013e-05
6.18566154e-05
6.2270427e-05
6.36001409e-05
6.35427893e-05
6.15614924e-05
6.11233894e-05
6.23432095e-05
6.35304943e-05
6.34319658e-05
6.20108155e-05
6.23785415e-05
6.35759268e-05
6.33930624e-05
6.20301665e-05
6.24163496e-05
6.35588341e-05
6.3316957e-05
6.20883844e-05
6.23770893e-05
6.35233121e-05
6.36320747e-05
6.21511663e-05
6.16159734e-05
6.22893431e-05
6.34527587e-05
6.36195188e-05
6.22715896e-05
6.19155872e-05
6.20677737e-05
6.20405795e-05
6.20339516e-05
6.23472414e-05
6.34528481e-05
6.36112773e-05
6.23543689e-05
6.21142494e-05
6.23079931e-05
6.31883365e-05
6.35829382e-05
6.22954206e-05
6.18132485e-05
6.19511106e-05
6.29434522e-05
6.34475702e-05
6.23226122e-05
6.23463908e-05
6.24977456e-05
6.34309044e-05
6.24706068e-05
6.19543392e-05
6.18281472e-05
6.25179783e-05
6.34205636e-05
6.26174275e-05
6.21788738e-05
6.19766897e-05
6.244725e-05
6.33711008e-05
6.2662925e-05
6.21445148e-05
6.20515602e-05
6.26170155e-05
6.32751472e-05
6.23326834e-05
6.19290422e-05
6.2238884e-05
6.31898583e-05
6.29756153e-05
6.22904629e-05
6.17961644e-05
6.23032076e-05
6.33304111e-05
6.28720652e-05
6.22181765e-05
6.17134389e-05
6.23061523e-05
6.3315188e-05
6.26280818e-05
6.23695079e-05
6.22953778e-05
6.33203202e-05
6.28179307e-05
6.21416972e-05
6.16321599e-05
6.23052643e-05
6.33677303e-05
6.26405866e-05
6.23823369e-05
6.23233061e-05
6.33697992e-05
6.25132007e-05
6.23778208e-05
6.23202405e-05
6.3431355e-05
6.27281412e-05
6.20693996e-05
6.17095095e-05
6.23570629e-05
6.34672721e-05
6.27563941e-05
6.21021165e-05
6.17646693e-05
6.23763617e-05
6.34964497e-05
6.27715631e-05
6.21424041e-05
6.18270694e-05
6.23987816e-05
6.3514669e-05
6.2766573e-05
6.21111004e-05
6.17780457e-05
6.23941583e-05
6.35273696e-05
6.27967951e-05
6.21218601e-05
6.17882278e-05
6.23942818e-05
6.35343168e-05
6.28007699e-05
6.20882189e-05
6.17528348e-05
)
;

boundaryField
{
    closed
    {
        type            calculated;
        value           nonuniform List<scalar> 0();
    }
    open
    {
        type            calculated;
        value           nonuniform List<scalar> 0();
    }
    sides
    {
        type            empty;
    }
    procBoundary2to1
    {
        type            processor;
        value           uniform 6.28190673e-05;
    }
    procBoundary2to3
    {
        type            processor;
        value           uniform 6.23881562e-05;
    }
}


// ************************************************************************* //
