/*--------------------------------*- C++ -*----------------------------------*\
| =========                 |                                                 |
| \\      /  F ield         | OpenFOAM: The Open Source CFD Toolbox           |
|  \\    /   O peration     | Version:  2306                                  |
|   \\  /    A nd           | Website:  www.openfoam.com                      |
|    \\/     M anipulation  |                                                 |
\*---------------------------------------------------------------------------*/
FoamFile
{
    version     2.0;
    format      ascii;
    arch        "LSB;label=32;scalar=64";
    class       volScalarField;
    location    "0.00012";
    object      mu;
}
// * * * * * * * * * * * * * * * * * * * * * * * * * * * * * * * * * * * * * //

dimensions      [1 -1 -1 0 0 0 0];

internalField   nonuniform List<scalar> 
530
(
5.35642571e-05
5.37488495e-05
5.38079931e-05
5.38519234e-05
5.39530468e-05
5.41506686e-05
5.42347477e-05
5.42734398e-05
5.43601927e-05
5.45862645e-05
5.46641833e-05
5.47242336e-05
5.47773471e-05
5.50239452e-05
5.50807599e-05
5.51569377e-05
5.52046832e-05
5.53957094e-05
5.54888566e-05
5.55188428e-05
5.5597546e-05
5.57464637e-05
5.58695652e-05
5.58785899e-05
5.59630072e-05
5.608377e-05
5.62184812e-05
5.62168274e-05
5.63104627e-05
5.63979058e-05
5.65410885e-05
5.65248477e-05
5.66264824e-05
5.66946934e-05
5.68349465e-05
5.68149177e-05
5.69120937e-05
5.69717646e-05
5.71006769e-05
5.70761392e-05
5.716635e-05
5.72221849e-05
5.73346043e-05
5.73073028e-05
5.73893376e-05
5.74409184e-05
5.75354582e-05
5.7506869e-05
5.75803278e-05
5.7631264e-05
5.77066875e-05
5.76821168e-05
5.77446544e-05
5.77977568e-05
5.78533876e-05
5.78345912e-05
5.7885258e-05
5.79390296e-05
5.79804474e-05
5.79662486e-05
5.80051529e-05
5.80578826e-05
5.8089233e-05
5.80766273e-05
5.81067987e-05
5.81553652e-05
5.81775943e-05
5.81688725e-05
5.8192094e-05
5.82334183e-05
5.8251237e-05
5.82441924e-05
5.82622891e-05
5.82971911e-05
5.83112721e-05
5.83054288e-05
5.83193714e-05
5.83486777e-05
5.83594986e-05
5.83546799e-05
5.83652479e-05
5.83896252e-05
5.83978114e-05
5.8393807e-05
5.84017289e-05
5.84218625e-05
5.8427929e-05
5.84245781e-05
5.84304038e-05
5.84469454e-05
5.84513286e-05
5.84485392e-05
5.8452717e-05
5.84662613e-05
5.84692907e-05
5.84670287e-05
5.84699151e-05
5.84809556e-05
5.84829559e-05
5.84811538e-05
5.84830762e-05
5.84920218e-05
5.84932474e-05
5.84918723e-05
5.84930522e-05
5.85002693e-05
5.85009297e-05
5.84999328e-05
5.85005662e-05
5.85063608e-05
5.85066116e-05
5.85059391e-05
5.85061964e-05
5.85108085e-05
5.8510791e-05
5.8510385e-05
5.85103874e-05
5.85140225e-05
5.85138485e-05
5.8513645e-05
5.85134987e-05
5.85163238e-05
5.85160727e-05
5.85160173e-05
5.85157985e-05
5.85179556e-05
5.85176841e-05
5.85177314e-05
5.85174904e-05
5.85191016e-05
5.85188468e-05
5.85189601e-05
5.85187302e-05
5.85198992e-05
5.85196814e-05
5.85198336e-05
5.85196341e-05
5.8520448e-05
5.85202773e-05
5.85204481e-05
5.85202892e-05
5.85208175e-05
5.85206988e-05
5.85208721e-05
5.85207613e-05
5.85210414e-05
5.85209827e-05
5.85211415e-05
5.85210855e-05
5.85210874e-05
5.85211211e-05
5.85210867e-05
5.85211198e-05
5.85210863e-05
5.85211001e-05
5.85210902e-05
5.85211007e-05
5.85210953e-05
5.85211018e-05
5.85211005e-05
5.85211049e-05
5.85211051e-05
5.85211082e-05
5.8521109e-05
5.85211111e-05
5.85211121e-05
5.85211136e-05
5.85211144e-05
5.85211155e-05
5.85211162e-05
5.8521117e-05
5.85211176e-05
5.85211181e-05
5.85211185e-05
5.85211189e-05
5.85211192e-05
5.85211195e-05
5.85211197e-05
5.85211198e-05
5.852112e-05
5.85211201e-05
5.85211202e-05
5.85211203e-05
5.85211203e-05
5.85211204e-05
5.85211204e-05
5.85211204e-05
5.85211204e-05
5.85211204e-05
5.85211205e-05
5.85211205e-05
5.85211205e-05
5.85211204e-05
5.85211204e-05
5.85211204e-05
5.85211204e-05
5.85211204e-05
5.85211204e-05
5.85211204e-05
5.85211204e-05
5.85211204e-05
5.85211204e-05
5.85211203e-05
5.85211203e-05
5.85211203e-05
5.85211203e-05
5.85211203e-05
5.85211203e-05
5.85211203e-05
5.85211203e-05
5.85211203e-05
5.85211203e-05
5.85211203e-05
5.85211203e-05
5.85211203e-05
5.85211203e-05
5.85211203e-05
5.85211203e-05
5.85211203e-05
5.85211203e-05
5.85211203e-05
5.85211203e-05
5.85211203e-05
5.85211203e-05
5.85211203e-05
5.85211203e-05
5.85211203e-05
5.85211203e-05
5.85211203e-05
5.85211203e-05
5.85211203e-05
5.85211203e-05
5.85211203e-05
5.85211203e-05
5.85211203e-05
5.85211203e-05
5.85211203e-05
5.85211203e-05
5.85211203e-05
5.85211203e-05
5.85211203e-05
5.85211203e-05
5.85211203e-05
5.85211203e-05
5.85211203e-05
5.85211203e-05
5.85211203e-05
5.85211203e-05
5.85211203e-05
5.85211203e-05
5.85211203e-05
5.85211203e-05
5.85211203e-05
5.85211203e-05
5.85211203e-05
5.85211203e-05
5.85211203e-05
5.85211203e-05
5.85211203e-05
5.85211203e-05
5.85211203e-05
5.85211203e-05
5.85211203e-05
5.85211203e-05
5.85211203e-05
5.85211203e-05
5.85211203e-05
5.85211203e-05
5.85211203e-05
5.85211203e-05
5.85211203e-05
5.85211203e-05
5.85211203e-05
5.85211203e-05
5.85211203e-05
5.85211203e-05
5.85211203e-05
5.85211203e-05
5.85211203e-05
5.85211203e-05
5.85211203e-05
5.85211203e-05
5.85211203e-05
5.85211203e-05
5.85211203e-05
5.85211203e-05
5.85211203e-05
5.85211203e-05
5.85211203e-05
5.85211203e-05
5.85211203e-05
5.85211203e-05
5.85211203e-05
5.85211203e-05
5.85211203e-05
5.85211203e-05
5.85211203e-05
5.85211203e-05
5.85211203e-05
5.85211203e-05
5.85211203e-05
5.85211203e-05
5.85211203e-05
5.85211203e-05
5.85211203e-05
5.85211203e-05
5.85211203e-05
5.85211203e-05
5.85211203e-05
5.85211203e-05
5.85211203e-05
5.85211203e-05
5.85211203e-05
5.85211203e-05
5.85211203e-05
5.85211203e-05
5.85211203e-05
5.85211203e-05
5.85211203e-05
5.85211203e-05
5.85211203e-05
5.85211203e-05
5.85211203e-05
5.85211203e-05
5.85211203e-05
5.85211203e-05
5.85211203e-05
5.85211203e-05
5.85211203e-05
5.85211203e-05
5.85211203e-05
5.85211203e-05
5.85211203e-05
5.85211203e-05
5.85211203e-05
5.85211203e-05
5.85211203e-05
5.85211203e-05
5.85211203e-05
5.85211203e-05
5.85211203e-05
5.85211203e-05
5.85211203e-05
5.85211203e-05
5.85211203e-05
5.85211203e-05
5.85211203e-05
5.85211203e-05
5.85211203e-05
5.85211203e-05
5.85211203e-05
5.85211203e-05
5.85211203e-05
5.85211203e-05
5.85211203e-05
5.85211203e-05
5.85211203e-05
5.85211203e-05
5.85211203e-05
5.85211203e-05
5.85211203e-05
5.85211203e-05
5.85211203e-05
5.85211203e-05
5.85211203e-05
5.85211203e-05
5.85211203e-05
5.85211203e-05
5.85211203e-05
5.85211203e-05
5.85211203e-05
5.85211203e-05
5.85211203e-05
5.85211203e-05
5.85211203e-05
5.85211203e-05
5.85211203e-05
5.85211203e-05
5.85211203e-05
5.85211203e-05
5.85211203e-05
5.85211203e-05
5.85211203e-05
5.85211203e-05
5.85211203e-05
5.85211203e-05
5.85211203e-05
5.85211203e-05
5.85211203e-05
5.85211203e-05
5.85211203e-05
5.85211203e-05
5.85211203e-05
5.85211203e-05
5.85211203e-05
5.85211203e-05
5.85211203e-05
5.85211203e-05
5.85211203e-05
5.85211203e-05
5.85211203e-05
5.85211203e-05
5.85211203e-05
5.85211203e-05
5.85211203e-05
5.85211203e-05
5.85211203e-05
5.85211203e-05
5.85211203e-05
5.85211203e-05
5.85211203e-05
5.85211203e-05
5.85211203e-05
5.85211203e-05
5.85211203e-05
5.85211203e-05
5.85211203e-05
5.85211203e-05
5.85211203e-05
5.85211203e-05
5.85211203e-05
5.85211203e-05
5.85211203e-05
5.85211203e-05
5.85211203e-05
5.85211203e-05
5.85211203e-05
5.85211203e-05
5.85211203e-05
5.85211203e-05
5.85211203e-05
5.85211203e-05
5.85211203e-05
5.85211203e-05
5.85211203e-05
5.85211203e-05
5.85211203e-05
5.85211203e-05
5.85211203e-05
5.85211203e-05
5.85211203e-05
5.85211203e-05
5.85211203e-05
5.85211203e-05
5.85211203e-05
5.85211203e-05
5.85211203e-05
5.85211203e-05
5.85211203e-05
5.85211203e-05
5.85211203e-05
5.85211203e-05
5.85211203e-05
5.85211203e-05
5.85211203e-05
5.85211203e-05
5.85211203e-05
5.85211203e-05
5.85211203e-05
5.85211203e-05
5.85211203e-05
5.85211203e-05
5.85211203e-05
5.85211203e-05
5.85211203e-05
5.85211203e-05
5.85211203e-05
5.85211203e-05
5.85211203e-05
5.85211203e-05
5.85211203e-05
5.85211203e-05
5.85211203e-05
5.85211203e-05
5.85211203e-05
5.85211203e-05
5.85211203e-05
5.85211203e-05
5.85211203e-05
5.85211203e-05
5.85211203e-05
5.85211203e-05
5.85211203e-05
5.85211203e-05
5.85211203e-05
5.85211203e-05
5.85211203e-05
5.85211203e-05
5.85211203e-05
5.85211203e-05
5.85211203e-05
5.85211203e-05
5.85211203e-05
5.85211203e-05
5.85211203e-05
5.85211203e-05
5.85211203e-05
5.85211203e-05
5.85211203e-05
5.85211203e-05
5.85211203e-05
5.85211203e-05
5.85211203e-05
5.85211203e-05
5.85211203e-05
5.85211203e-05
5.85211203e-05
5.85211203e-05
5.85211203e-05
5.85211203e-05
5.85211203e-05
5.85211203e-05
5.85211203e-05
5.85211203e-05
5.85211203e-05
5.85211203e-05
5.85211203e-05
5.85211203e-05
5.85211203e-05
5.85211203e-05
5.85211203e-05
5.85211203e-05
5.85211203e-05
5.85211203e-05
5.85211203e-05
5.85211203e-05
5.85211203e-05
5.85211203e-05
5.85211203e-05
5.85211203e-05
)
;

boundaryField
{
    closed
    {
        type            calculated;
        value           nonuniform List<scalar> 0();
    }
    open
    {
        type            calculated;
        value           uniform 5.85211203e-05;
    }
    sides
    {
        type            empty;
    }
    procBoundary5to4
    {
        type            processor;
        value           uniform 5.34368235e-05;
    }
}


// ************************************************************************* //
