/*--------------------------------*- C++ -*----------------------------------*\
| =========                 |                                                 |
| \\      /  F ield         | OpenFOAM: The Open Source CFD Toolbox           |
|  \\    /   O peration     | Version:  2306                                  |
|   \\  /    A nd           | Website:  www.openfoam.com                      |
|    \\/     M anipulation  |                                                 |
\*---------------------------------------------------------------------------*/
FoamFile
{
    version     2.0;
    format      ascii;
    arch        "LSB;label=32;scalar=64";
    class       volScalarField;
    location    "0.00012";
    object      prefDh_T;
}
// * * * * * * * * * * * * * * * * * * * * * * * * * * * * * * * * * * * * * //

dimensions      [1 1 -3 -1 0 0 0];

internalField   nonuniform List<scalar> 
530
(
0.0079830287
0.00806647653
0.00803723389
0.00739085127
0.00794430753
0.00807657165
0.00806044511
0.00750809444
0.00792741343
0.00808611676
0.00808291008
0.00762118938
0.00792631329
0.00809501038
0.00809006949
0.00771947514
0.0079427077
0.00810352601
0.00810005183
0.00775174968
0.00795896095
0.00811108117
0.00811457127
0.0077802329
0.00797115694
0.0081161062
0.00811958839
0.00781056957
0.00798930195
0.00812064284
0.00812408748
0.00783873259
0.00800606993
0.00812481023
0.0081282939
0.00787816252
0.00802047708
0.00812886272
0.00813212819
0.007911256
0.00803335526
0.00813276508
0.00813573085
0.00794197225
0.00804313914
0.00813661376
0.00813918701
0.00796942807
0.00804743498
0.00814044662
0.00814222906
0.00799749351
0.00805182766
0.00814335258
0.00814447868
0.00802888128
0.00805723152
0.00814594552
0.00814682046
0.00804929413
0.00806452184
0.0081484597
0.0081491832
0.00806495129
0.00807397148
0.00815088413
0.00815152786
0.00808049577
0.0080843662
0.0081531878
0.00815379085
0.00809321871
0.00809479907
0.008155375
0.0081559382
0.00810452813
0.00810477633
0.0081574048
0.00815791873
0.00811455608
0.0081140637
0.0081592496
0.0081597176
0.00812339297
0.00812252119
0.00816090939
0.00816132797
0.00813111927
0.00813009678
0.00816237594
0.0081627422
0.00813783455
0.00813678737
0.00816364857
0.00816396153
0.00814363319
0.00814262036
0.00816473255
0.00816499485
0.00814859701
0.00814764505
0.00816564007
0.00816585481
0.00815280656
0.00815191651
0.00816638664
0.00816655819
0.00815633207
0.00815550253
0.00816699059
0.00816712357
0.00815924181
0.0081584785
0.00816747065
0.00816757096
0.00816160985
0.00816091806
0.0081678456
0.00816791981
0.00816350791
0.00816289559
0.00816813414
0.00816818735
0.00816500772
0.00816447849
0.00816835224
0.00816838997
0.00816617492
0.00816572991
0.00816851471
0.00816854111
0.00816706968
0.00816670722
0.00816863397
0.00816865216
0.00816774468
0.00816746053
0.00816872014
0.0081687326
0.00816824487
0.00816803328
0.00816878131
0.00816878993
0.00816860531
0.00816846319
0.00816882398
0.0081688299
0.00816884227
0.00816876727
0.00816885505
0.00816885761
0.00816886642
0.00816887134
0.00816887476
0.00816887789
0.00816888158
0.00816888465
0.008168887
0.00816888935
0.00816889137
0.00816889335
0.00816889491
0.00816889648
0.00816889776
0.00816889903
0.00816890007
0.00816890108
0.00816890192
0.00816890274
0.00816890341
0.00816890406
0.00816890461
0.00816890512
0.00816890556
0.00816890596
0.00816890631
0.00816890663
0.00816890691
0.00816890716
0.00816890737
0.00816890757
0.00816890774
0.0081689079
0.00816890803
0.00816890815
0.00816890825
0.00816890835
0.00816890843
0.0081689085
0.00816890856
0.00816890862
0.00816890866
0.00816890871
0.00816890874
0.00816890877
0.0081689088
0.00816890882
0.00816890884
0.00816890886
0.00816890888
0.00816890889
0.0081689089
0.00816890891
0.00816890892
0.00816890893
0.00816890894
0.00816890894
0.00816890895
0.00816890895
0.00816890895
0.00816890896
0.00816890896
0.00816890896
0.00816890896
0.00816890896
0.00816890896
0.00816890897
0.00816890897
0.00816890897
0.00816890897
0.00816890897
0.00816890897
0.00816890897
0.00816890897
0.00816890897
0.00816890897
0.00816890897
0.00816890897
0.00816890897
0.00816890897
0.00816890897
0.00816890897
0.00816890897
0.00816890897
0.00816890897
0.00816890897
0.00816890897
0.00816890897
0.00816890897
0.00816890897
0.00816890897
0.00816890897
0.00816890897
0.00816890897
0.00816890897
0.00816890897
0.00816890897
0.00816890897
0.00816890897
0.00816890897
0.00816890897
0.00816890897
0.00816890897
0.00816890897
0.00816890897
0.00816890897
0.00816890897
0.00816890897
0.00816890897
0.00816890897
0.00816890897
0.00816890897
0.00816890897
0.00816890897
0.00816890897
0.00816890897
0.00816890897
0.00816890897
0.00816890897
0.00816890897
0.00816890897
0.00816890897
0.00816890897
0.00816890897
0.00816890897
0.00816890897
0.00816890897
0.00816890897
0.00816890897
0.00816890897
0.00816890897
0.00816890897
0.00816890897
0.00816890897
0.00816890897
0.00816890897
0.00816890897
0.00816890897
0.00816890897
0.00816890897
0.00816890897
0.00816890897
0.00816890897
0.00816890897
0.00816890897
0.00816890897
0.00816890897
0.00816890897
0.00816890897
0.00816890897
0.00816890897
0.00816890897
0.00816890897
0.00816890897
0.00816890897
0.00816890897
0.00816890897
0.00816890897
0.00816890897
0.00816890897
0.00816890897
0.00816890897
0.00816890897
0.00816890897
0.00816890897
0.00816890897
0.00816890897
0.00816890897
0.00816890897
0.00816890897
0.00816890897
0.00816890897
0.00816890897
0.00816890897
0.00816890897
0.00816890897
0.00816890897
0.00816890897
0.00816890897
0.00816890897
0.00816890897
0.00816890897
0.00816890897
0.00816890897
0.00816890897
0.00816890897
0.00816890897
0.00816890897
0.00816890897
0.00816890897
0.00816890897
0.00816890897
0.00816890897
0.00816890897
0.00816890897
0.00816890897
0.00816890897
0.00816890897
0.00816890897
0.00816890897
0.00816890897
0.00816890897
0.00816890897
0.00816890897
0.00816890897
0.00816890897
0.00816890897
0.00816890897
0.00816890897
0.00816890897
0.00816890897
0.00816890897
0.00816890897
0.00816890897
0.00816890897
0.00816890897
0.00816890897
0.00816890897
0.00816890897
0.00816890897
0.00816890897
0.00816890897
0.00816890897
0.00816890897
0.00816890897
0.00816890897
0.00816890897
0.00816890897
0.00816890897
0.00816890897
0.00816890897
0.00816890897
0.00816890897
0.00816890897
0.00816890897
0.00816890897
0.00816890897
0.00816890897
0.00816890897
0.00816890897
0.00816890897
0.00816890897
0.00816890897
0.00816890897
0.00816890897
0.00816890897
0.00816890897
0.00816890897
0.00816890897
0.00816890897
0.00816890897
0.00816890897
0.00816890897
0.00816890897
0.00816890897
0.00816890897
0.00816890897
0.00816890897
0.00816890897
0.00816890897
0.00816890897
0.00816890897
0.00816890897
0.00816890897
0.00816890897
0.00816890897
0.00816890897
0.00816890897
0.00816890897
0.00816890897
0.00816890897
0.00816890897
0.00816890897
0.00816890897
0.00816890897
0.00816890897
0.00816890897
0.00816890897
0.00816890897
0.00816890897
0.00816890897
0.00816890897
0.00816890897
0.00816890897
0.00816890897
0.00816890897
0.00816890897
0.00816890897
0.00816890897
0.00816890897
0.00816890897
0.00816890897
0.00816890897
0.00816890897
0.00816890897
0.00816890897
0.00816890897
0.00816890897
0.00816890897
0.00816890897
0.00816890897
0.00816890897
0.00816890897
0.00816890897
0.00816890897
0.00816890897
0.00816890897
0.00816890897
0.00816890897
0.00816890897
0.00816890897
0.00816890897
0.00816890897
0.00816890897
0.00816890897
0.00816890897
0.00816890897
0.00816890897
0.00816890897
0.00816890897
0.00816890897
0.00816890897
0.00816890897
0.00816890897
0.00816890897
0.00816890897
0.00816890897
0.00816890897
0.00816890897
0.00816890897
0.00816890897
0.00816890897
0.00816890897
0.00816890897
0.00816890897
0.00816890897
0.00816890897
0.00816890897
0.00816890897
0.00816890897
0.00816890897
0.00816890897
0.00816890897
0.00816890897
0.00816890897
0.00816890897
0.00816890897
0.00816890897
0.00816890897
0.00816890897
0.00816890897
0.00816890897
0.00816890897
0.00816890897
0.00816890897
0.00816890897
0.00816890897
0.00816890897
0.00816890897
0.00816890897
0.00816890897
0.00816890897
0.00816890897
0.00816890897
0.00816890897
0.00816890897
0.00816890897
0.00816890897
0.00816890897
0.00816890897
0.00816890897
0.00816890897
0.00816890897
0.00816890897
0.00816890897
0.00816890897
0.00816890897
0.00816890897
0.00816890897
0.00816890897
)
;

boundaryField
{
    closed
    {
        type            calculated;
        value           nonuniform List<scalar> 0();
    }
    open
    {
        type            calculated;
        value           uniform 0.00816890897;
    }
    sides
    {
        type            empty;
    }
    procBoundary5to4
    {
        type            processor;
        value           uniform 0.00723762249;
    }
}


// ************************************************************************* //
