/*--------------------------------*- C++ -*----------------------------------*\
| =========                 |                                                 |
| \\      /  F ield         | OpenFOAM: The Open Source CFD Toolbox           |
|  \\    /   O peration     | Version:  2306                                  |
|   \\  /    A nd           | Website:  www.openfoam.com                      |
|    \\/     M anipulation  |                                                 |
\*---------------------------------------------------------------------------*/
FoamFile
{
    version     2.0;
    format      ascii;
    arch        "LSB;label=32;scalar=64";
    class       volScalarField;
    location    "0.00032";
    object      T;
}
// * * * * * * * * * * * * * * * * * * * * * * * * * * * * * * * * * * * * * //

dimensions      [0 0 0 1 0 0 0];

internalField   nonuniform List<scalar> 
530
(
1695.86588
1696.01118
1696.2171
1696.32074
1696.45272
1696.44783
1696.48482
1696.44096
1696.43787
1696.35633
1696.3176
1696.20053
1696.13007
1695.98003
1695.88149
1695.70121
1695.58912
1695.41721
1695.30335
1695.105
1694.9376
1694.65808
1694.44488
1694.14207
1693.90962
1693.58517
1693.33604
1692.9919
1692.72848
1692.36661
1692.09121
1691.71356
1691.42847
1691.03698
1690.74443
1690.341
1690.04339
1689.63038
1689.32924
1688.90492
1688.58131
1688.10122
1687.75195
1687.25951
1686.90563
1686.40141
1686.04487
1685.52945
1685.1722
1684.64605
1684.29009
1683.75359
1683.40091
1682.85438
1682.50697
1681.95071
1681.61042
1681.04439
1680.71303
1680.14266
1679.82278
1679.25212
1678.94115
1678.37561
1678.06776
1677.51647
1677.20085
1676.66338
1676.3375
1675.76325
1675.44382
1674.88286
1674.55658
1674.01709
1673.67972
1673.16405
1672.81497
1672.32279
1671.96327
1671.49296
1671.12513
1670.67467
1670.3008
1669.86824
1669.49042
1669.07409
1668.69413
1668.29266
1667.91207
1667.52437
1667.14446
1666.76967
1666.39153
1666.02899
1665.6536
1665.3028
1664.93102
1664.59157
1664.22418
1663.89583
1663.53356
1663.21616
1662.85965
1662.55319
1662.19529
1661.88044
1661.5177
1661.21147
1660.85414
1660.55629
1660.20459
1659.91487
1659.56906
1659.28722
1658.94755
1658.67336
1658.34007
1658.07334
1657.74668
1657.48724
1657.16745
1656.91515
1656.59326
1656.33454
1656.01436
1655.76327
1655.45524
1655.21639
1654.91836
1654.68674
1654.39693
1654.17248
1653.89108
1653.67377
1653.40099
1653.19077
1652.92679
1652.72363
1652.46866
1652.2725
1652.02673
1651.83754
1651.60115
1651.41888
1651.19205
1651.01665
1650.79955
1650.63099
1650.42378
1650.26202
1650.06482
1649.90988
1649.72276
1649.57469
1649.39767
1649.25657
1649.0896
1648.95562
1648.79876
1648.67197
1648.52589
1648.40526
1648.26913
1648.15472
1648.02813
1647.91987
1647.80247
1647.70022
1647.59168
1647.4953
1647.39528
1647.3046
1647.21276
1647.12763
1647.04361
1646.96388
1646.88729
1646.81282
1646.74329
1646.67394
1646.61106
1646.5467
1646.49007
1646.43055
1646.37979
1646.32495
1646.27967
1646.22936
1646.18918
1646.14325
1646.1078
1646.06606
1646.03498
1645.99727
1645.97023
1645.93635
1645.91303
1645.8828
1645.8629
1645.83609
1645.81933
1645.79576
1645.78185
1645.76133
1645.75
1645.7324
1645.72336
1645.70864
1645.70165
1645.68941
1645.68443
1645.67541
1645.6705
1645.66428
1645.65986
1645.6563
1645.6528
1645.65123
1645.64881
1645.64883
1645.64755
1645.64885
1645.6487
1645.65102
1645.65195
1645.65511
1645.65702
1645.66086
1645.66365
1645.66806
1645.67161
1645.67648
1645.68069
1645.68595
1645.6907
1645.69626
1645.70146
1645.70726
1645.71281
1645.7188
1645.72462
1645.73073
1645.73675
1645.74294
1645.74908
1645.75532
1645.76153
1645.76776
1645.77399
1645.78019
1645.7864
1645.79252
1645.79867
1645.8047
1645.81074
1645.81666
1645.82258
1645.82836
1645.83413
1645.83975
1645.84536
1645.85081
1645.85624
1645.86151
1645.86675
1645.87182
1645.87686
1645.88174
1645.88658
1645.89125
1645.89588
1645.90035
1645.90476
1645.90903
1645.91323
1645.91729
1645.92128
1645.92513
1645.92892
1645.93257
1645.93615
1645.9396
1645.94299
1645.94625
1645.94943
1645.95251
1645.95551
1645.9584
1645.96122
1645.96394
1645.96658
1645.96913
1645.9716
1645.97399
1645.97631
1645.97854
1645.9807
1645.98278
1645.9848
1645.98674
1645.98862
1645.99043
1645.99218
1645.99387
1645.99549
1645.99705
1645.99856
1646.00001
1646.00141
1646.00276
1646.00406
1646.0053
1646.0065
1646.00765
1646.00876
1646.00983
1646.01085
1646.01184
1646.01279
1646.01369
1646.01457
1646.0154
1646.01621
1646.01698
1646.01772
1646.01843
1646.01912
1646.01977
1646.0204
1646.021
1646.02158
1646.02213
1646.02266
1646.02317
1646.02366
1646.02413
1646.02458
1646.02501
1646.02543
1646.02582
1646.0262
1646.02656
1646.02691
1646.02725
1646.02756
1646.02751
1646.02692
1646.02637
1646.02588
1646.02543
1646.02501
1646.02464
1646.0243
1646.02399
1646.02371
1646.02345
1646.02322
1646.02301
1646.02281
1646.02264
1646.02248
1646.02234
1646.02221
1646.02209
1646.02198
1646.02189
1646.0218
1646.02172
1646.02165
1646.02159
1646.02153
1646.02148
1646.02143
1646.02139
1646.02135
1646.02131
1646.02128
1646.02125
1646.02123
1646.0212
1646.02118
1646.02117
1646.02115
1646.02113
1646.02112
1646.02111
1646.0211
1646.02109
1646.02108
1646.02107
1646.02106
1646.02106
1646.02105
1646.02105
1646.02104
1646.02104
1646.02103
1646.02103
1646.02103
1646.02103
1646.02102
1646.02102
1646.02102
1646.02102
1646.02102
1646.02102
1646.02101
1646.02101
1646.02101
1646.02101
1646.02101
1646.02101
1646.02101
1646.02101
1646.02101
1646.02101
1646.02101
1646.02101
1646.02101
1646.02101
1646.02101
1646.02101
1646.02101
1646.02101
1646.02101
1646.02101
1646.02101
1646.02101
1646.02101
1646.02101
1646.02101
1646.02101
1646.02101
1646.021
1646.021
1646.021
1646.021
1646.021
1646.021
1646.021
1646.021
1646.021
1646.021
1646.021
1646.021
1646.021
1646.021
1646.021
1646.021
1646.021
1646.021
1646.021
1646.021
1646.021
1646.021
1646.021
1646.021
1646.021
1646.021
1646.021
1646.021
1646.021
1646.021
1646.021
1646.021
1646.021
1646.021
1646.021
1646.021
1646.021
1646.021
1646.021
1646.021
1646.021
1646.021
1646.021
1646.021
1646.021
1646.021
1646.021
1646.021
1646.021
1646.021
1646.021
1646.021
1646.021
1646.021
1646.021
1646.021
1646.021
1646.021
1646.021
1646.021
1646.021
1646.021
1646.021
1646.021
1646.021
1646.021
1646.021
1646.021
1646.021
1646.021
1646.021
1646.021
1646.021
1646.021
1646.021
1646.021
1646.021
1646.021
1646.021
1646.021
1646.021
1646.021
1646.021
1646.021
1646.021
1646.021
1646.021
1646.021
1646.021
1646.021
1646.021
1646.021
1646.021
1646.021
1646.021
1646.021
1646.021
)
;

boundaryField
{
    closed
    {
        type            fixedValue;
        value           nonuniform List<scalar> 0();
    }
    open
    {
        type            zeroGradient;
    }
    sides
    {
        type            empty;
    }
    procBoundary5to4
    {
        type            processor;
        value           uniform 1695.60955;
    }
}


// ************************************************************************* //
