/*--------------------------------*- C++ -*----------------------------------*\
| =========                 |                                                 |
| \\      /  F ield         | OpenFOAM: The Open Source CFD Toolbox           |
|  \\    /   O peration     | Version:  2306                                  |
|   \\  /    A nd           | Website:  www.openfoam.com                      |
|    \\/     M anipulation  |                                                 |
\*---------------------------------------------------------------------------*/
FoamFile
{
    version     2.0;
    format      ascii;
    arch        "LSB;label=32;scalar=64";
    class       surfaceScalarField;
    location    "0.00192";
    object      phi;
}
// * * * * * * * * * * * * * * * * * * * * * * * * * * * * * * * * * * * * * //

dimensions      [1 0 -1 0 0 0 0];

oriented        oriented;

internalField   nonuniform List<scalar> 
530
(
9.68982671e-08
1.03614847e-07
1.17723981e-07
8.59028865e-08
8.46605396e-08
9.44789712e-08
9.59485402e-08
1.07599885e-07
1.17030568e-07
9.18917632e-08
9.10403632e-08
9.96693554e-08
1.20273337e-07
1.27318814e-07
9.74264016e-08
9.4744035e-08
9.95358561e-08
1.16135662e-07
9.53029434e-08
9.47306928e-08
9.73816717e-08
1.038268e-07
1.07535924e-07
1.1580468e-07
1.36670471e-07
1.41326132e-07
1.41819331e-07
1.1547049e-07
1.12964175e-07
1.15401491e-07
1.27951247e-07
1.01976497e-07
1.05666932e-07
1.08172064e-07
1.13529011e-07
1.26410689e-07
1.30384509e-07
1.30254728e-07
1.01205609e-07
1.00354668e-07
1.05406613e-07
1.22697484e-07
1.05748577e-07
1.04823384e-07
1.12617365e-07
1.20316371e-07
1.02136784e-07
1.00223062e-07
1.0621568e-07
1.27311297e-07
1.32859022e-07
1.33449547e-07
1.36718363e-07
1.38264911e-07
1.39918091e-07
1.52220739e-07
1.36898374e-07
1.3528267e-07
1.37722595e-07
1.55460726e-07
1.54278555e-07
1.53018047e-07
1.69881309e-07
1.63528411e-07
1.61217178e-07
1.6211732e-07
1.61317587e-07
1.62765254e-07
1.73497908e-07
1.74798205e-07
1.53872879e-07
1.5084163e-07
1.55003541e-07
1.82864556e-07
1.98269685e-07
1.68960604e-07
1.68155622e-07
1.70368657e-07
1.83908018e-07
1.70992228e-07
1.69913986e-07
1.71270493e-07
1.86139697e-07
1.61945979e-07
1.62952664e-07
1.6550098e-07
1.66366021e-07
1.89905199e-07
1.9329857e-07
1.58414817e-07
1.56322306e-07
1.57783913e-07
1.57296562e-07
1.58525781e-07
1.7880165e-07
1.90074335e-07
1.57341601e-07
1.57766771e-07
1.58853279e-07
1.79472183e-07
1.99389457e-07
1.55321599e-07
1.56768631e-07
1.84109973e-07
1.78909263e-07
1.75990191e-07
1.75357021e-07
1.8993329e-07
1.7262839e-07
1.74584223e-07
1.7497027e-07
1.77344382e-07
1.66169956e-07
1.75274787e-07
1.83294412e-07
1.7520256e-07
1.73237292e-07
1.71698643e-07
1.9644904e-07
1.72598479e-07
1.70909599e-07
1.8747425e-07
1.77925919e-07
1.77499124e-07
1.79975658e-07
1.78478546e-07
1.94469371e-07
1.76201123e-07
1.78681337e-07
1.79975296e-07
1.81399622e-07
1.90808108e-07
1.78002581e-07
1.77221926e-07
1.78559561e-07
1.87901429e-07
1.95145007e-07
2.04420425e-07
1.75396965e-07
1.73506242e-07
1.93980492e-07
1.84775653e-07
1.84874741e-07
1.88548252e-07
1.90292609e-07
2.12826322e-07
2.13666656e-07
2.11882108e-07
2.16736778e-07
2.37367608e-07
2.37817135e-07
2.33778272e-07
2.39644644e-07
2.43932e-07
2.51003001e-07
2.34951914e-07
2.38656195e-07
2.41844422e-07
2.46202983e-07
2.51451695e-07
2.57852826e-07
2.7508167e-07
2.84881401e-07
2.95353699e-07
2.65458941e-07
2.66114945e-07
2.94986348e-07
2.96629909e-07
2.94339242e-07
2.96213413e-07
3.16138417e-07
3.14390142e-07
3.12342498e-07
3.14606319e-07
3.37399641e-07
3.4732714e-07
3.49723808e-07
3.23261654e-07
3.22593659e-07
3.241017e-07
3.24142946e-07
3.46768387e-07
3.39985569e-07
3.37935032e-07
3.39731581e-07
3.58997273e-07
3.66629807e-07
3.64781967e-07
3.53844202e-07
3.48397162e-07
3.5380975e-07
3.53550593e-07
3.60047636e-07
3.87565985e-07
4.06227771e-07
3.82405708e-07
3.83767129e-07
3.84191191e-07
4.12572935e-07
3.95542668e-07
3.95600854e-07
3.97503398e-07
4.25567995e-07
4.26258469e-07
4.21817571e-07
4.27521118e-07
4.41788628e-07
4.50303793e-07
4.21002886e-07
4.22586177e-07
4.23423607e-07
4.24906068e-07
4.28484505e-07
4.3984971e-07
4.58041216e-07
4.68935552e-07
4.72919911e-07
4.77193086e-07
4.82708651e-07
4.59655418e-07
4.60171851e-07
4.58796857e-07
4.90942769e-07
4.66678923e-07
4.66319368e-07
4.68924097e-07
4.69623552e-07
5.06336951e-07
5.04978917e-07
5.03656269e-07
5.01995679e-07
5.33550102e-07
5.47227589e-07
5.22435349e-07
5.22807079e-07
5.23298878e-07
5.53560358e-07
5.56437092e-07
5.54251879e-07
5.56699484e-07
5.85246504e-07
5.94294904e-07
5.66681874e-07
5.68894894e-07
5.69414717e-07
6.07102145e-07
6.19187742e-07
5.98985168e-07
6.00633789e-07
5.99505035e-07
6.41064855e-07
6.17193459e-07
6.17645663e-07
6.24957935e-07
6.28681477e-07
6.23937913e-07
6.26270805e-07
6.62057774e-07
6.68018887e-07
6.62914606e-07
6.65598483e-07
6.92208022e-07
6.91775731e-07
6.88540317e-07
6.92023508e-07
7.32686095e-07
7.404054e-07
7.47457904e-07
7.14353553e-07
7.11505352e-07
7.14862026e-07
7.13902913e-07
7.57870443e-07
7.6228023e-07
7.58513688e-07
7.6177342e-07
7.94316965e-07
7.97041583e-07
7.9089436e-07
7.94030381e-07
8.27574424e-07
8.33188088e-07
8.27526326e-07
8.2873453e-07
8.73837191e-07
8.37425517e-07
8.34862789e-07
8.40432552e-07
8.39437004e-07
8.9265132e-07
9.02590533e-07
9.06998632e-07
8.6920317e-07
8.70279563e-07
8.74346484e-07
8.58776041e-07
9.26013907e-07
9.47047529e-07
9.04240308e-07
9.04367459e-07
9.0546713e-07
9.1711846e-07
9.44108662e-07
9.58491281e-07
9.55647402e-07
9.46566555e-07
9.89537229e-07
9.80764258e-07
9.81595255e-07
1.02974611e-06
9.8916906e-07
9.905344e-07
9.90622469e-07
1.05670478e-06
1.062049e-06
1.06612664e-06
1.01818891e-06
1.01355248e-06
1.01652415e-06
1.01391254e-06
1.07623323e-06
1.08069444e-06
1.07726996e-06
1.07874072e-06
1.14338607e-06
1.14989775e-06
1.11700384e-06
1.11888045e-06
1.11227149e-06
1.11467473e-06
1.18699828e-06
1.19362422e-06
1.18929728e-06
1.19081956e-06
1.24744245e-06
1.24831861e-06
1.19637888e-06
1.19551673e-06
1.19448925e-06
1.26675871e-06
1.27300555e-06
1.22539253e-06
1.22059956e-06
1.22261548e-06
1.25063869e-06
1.26603736e-06
1.26991512e-06
1.26728369e-06
1.26899562e-06
1.3252946e-06
1.33569743e-06
1.28924246e-06
1.28424373e-06
1.28417585e-06
1.30297366e-06
1.32417738e-06
1.33429384e-06
1.33122161e-06
1.33297752e-06
1.37980737e-06
1.38467284e-06
1.34164194e-06
1.34133526e-06
1.33772639e-06
1.40386226e-06
1.40175838e-06
1.42301875e-06
1.39487808e-06
1.39375826e-06
1.45441235e-06
1.46130329e-06
1.41492261e-06
1.41036831e-06
1.41010631e-06
1.46258632e-06
1.46486442e-06
1.46050934e-06
1.46193875e-06
1.47159748e-06
1.48369102e-06
1.47305453e-06
1.47553736e-06
1.41476789e-06
1.41187134e-06
1.41036245e-06
1.40825136e-06
1.40773641e-06
1.39410037e-06
1.47697228e-06
1.49346713e-06
1.48914609e-06
1.49172304e-06
1.52375399e-06
1.52384624e-06
1.51798193e-06
1.52039355e-06
1.55067565e-06
1.55338612e-06
1.55046852e-06
1.55028607e-06
1.56058745e-06
1.56372568e-06
1.51898438e-06
1.51794037e-06
1.51685803e-06
1.5616562e-06
1.57044083e-06
1.57309435e-06
1.57366541e-06
1.61946552e-06
1.62529146e-06
1.57021116e-06
1.57319718e-06
1.56525476e-06
1.62280468e-06
1.6202592e-06
1.62157909e-06
1.67289976e-06
1.65849113e-06
1.67473762e-06
1.65696199e-06
1.65515446e-06
1.71108364e-06
1.69783649e-06
1.63884718e-06
1.68199204e-06
1.68263041e-06
1.73816277e-06
1.74635616e-06
1.69501512e-06
1.69123919e-06
1.68892681e-06
1.71921047e-06
1.7119861e-06
1.72147536e-06
1.7230897e-06
1.72765131e-06
1.72099029e-06
1.72586071e-06
1.79135025e-06
1.81829942e-06
1.82899442e-06
1.83508357e-06
1.80253737e-06
1.80632185e-06
1.80814123e-06
1.81241399e-06
1.81333247e-06
1.82616746e-06
1.84055726e-06
1.81227298e-06
1.81504255e-06
1.81229812e-06
1.81403987e-06
1.83396368e-06
1.83734913e-06
1.83757093e-06
1.83847937e-06
1.88601461e-06
1.89597071e-06
1.87199937e-06
1.87810138e-06
1.85517147e-06
1.85545285e-06
1.88181344e-06
1.8846955e-06
1.88425889e-06
1.88583341e-06
1.90006764e-06
1.90541627e-06
1.90955694e-06
1.90781783e-06
1.91822394e-06
1.91572271e-06
1.92338928e-06
1.92927829e-06
1.92987436e-06
1.94244957e-06
1.95086307e-06
1.95783237e-06
1.95671628e-06
2.00384099e-06
2.00254022e-06
1.95081844e-06
1.94998936e-06
1.94752449e-06
1.94427662e-06
1.94143073e-06
1.92225349e-06
1.97433869e-06
1.98846844e-06
1.99195402e-06
1.99335526e-06
1.96600086e-06
1.97148023e-06
1.96901586e-06
1.96329633e-06
1.97277005e-06
1.99700488e-06
1.99865824e-06
1.98125943e-06
1.90585992e-06
1.95439971e-06
1.95697844e-06
1.96549868e-06
1.97228833e-06
1.97917251e-06
1.97813629e-06
1.9892811e-06
1.97975005e-06
1.98612538e-06
1.99312817e-06
1.99101479e-06
1.99159319e-06
1.967745e-06
1.97054446e-06
1.9570451e-06
1.95603192e-06
2.13204687e-06
2.17234238e-06
2.08158649e-06
1.99379619e-06
2.00080585e-06
1.99794604e-06
2.00286188e-06
2.00232524e-06
1.96287426e-06
1.96573704e-06
1.96416051e-06
1.95994824e-06
)
;

boundaryField
{
    closed
    {
        type            calculated;
        value           nonuniform List<scalar> 0();
    }
    open
    {
        type            calculated;
        value           nonuniform List<scalar> 0();
    }
    sides
    {
        type            empty;
        value           nonuniform List<scalar> 0();
    }
    procBoundary1to0
    {
        type            processor;
        value           uniform -9.90455739e-08;
    }
    procBoundary1to2
    {
        type            processor;
        value           uniform 1.96586954e-06;
    }
}


// ************************************************************************* //
