/*--------------------------------*- C++ -*----------------------------------*\
| =========                 |                                                 |
| \\      /  F ield         | OpenFOAM: The Open Source CFD Toolbox           |
|  \\    /   O peration     | Version:  2306                                  |
|   \\  /    A nd           | Website:  www.openfoam.com                      |
|    \\/     M anipulation  |                                                 |
\*---------------------------------------------------------------------------*/
FoamFile
{
    version     2.0;
    format      ascii;
    arch        "LSB;label=32;scalar=64";
    class       volScalarField;
    location    "0.00192";
    object      prefDh_T;
}
// * * * * * * * * * * * * * * * * * * * * * * * * * * * * * * * * * * * * * //

dimensions      [1 1 -3 -1 0 0 0];

internalField   nonuniform List<scalar> 
531
(
-0.000736769833
-0.000739715371
-0.000487883402
-0.000496698551
-0.000740432243
-0.000735199543
-0.000739674936
-0.00073691767
-0.000462692433
-0.000455666772
-0.000738119816
-0.000731930577
-0.000477248866
-0.000409661397
-0.000519563195
-0.000731517382
-0.000741653697
-0.000430535816
-0.000505113986
-0.00073298694
-0.000735367562
-0.000734552052
-0.000734265475
-0.00073715896
-0.000467938098
-0.00046473994
-0.000471219391
-0.000525469942
-0.000737658379
-0.000743210765
-0.000470247588
-0.000559635044
-0.00074203248
-0.000739114166
-0.000743329745
-0.000540064116
-0.000490227327
-0.000525783566
-0.000528893602
-0.000744436241
-0.000745673159
-0.000497511932
-0.000501803416
-0.000746988536
-0.000746501282
-0.000515951762
-0.000520211112
-0.000747877957
-0.000744382724
-0.000544143081
-0.000507294228
-0.000598119383
-0.000745480178
-0.000746026868
-0.000749255362
-0.000574187244
-0.00056797844
-0.0007480618
-0.00074961821
-0.000536395635
-0.000601070077
-0.000754635151
-0.000576277188
-0.000562290545
-0.000746237389
-0.000746836405
-0.000748762425
-0.000578542014
-0.000519255874
-0.000540449987
-0.000533385777
-0.000746229611
-0.00074529834
-0.000479455297
-0.000430078276
-0.000510838777
-0.000741913465
-0.000749597554
-0.000463598759
-0.000488387728
-0.000741349579
-0.000749172202
-0.000473763279
-0.00054276255
-0.000744471941
-0.000743921168
-0.000745085827
-0.000562934126
-0.000498882041
-0.000594553714
-0.000741314585
-0.000745806256
-0.000741533944
-0.000747085896
-0.000540669008
-0.000507485988
-0.000557822964
-0.000744146817
-0.000743929535
-0.000553386982
-0.000460868872
-0.000596280404
-0.000746709913
-0.000536456823
-0.000496137767
-0.000742569994
-0.000747340641
-0.00050751694
-0.000558642675
-0.000745638422
-0.000742958473
-0.000746743554
-0.000600698006
-0.000496016799
-0.00053477635
-0.000522184835
-0.00074461057
-0.000745923935
-0.000475568911
-0.000530537466
-0.000749278991
-0.000510088886
-0.000503316107
-0.000746158069
-0.000743519854
-0.000747726715
-0.000508658134
-0.000542285666
-0.000746137115
-0.000740884977
-0.000747039379
-0.000562823913
-0.000549589359
-0.000740157261
-0.000743446738
-0.000538499659
-0.000540561784
-0.000504916972
-0.000558857768
-0.000747558297
-0.000512898292
-0.000503387128
-0.000743605387
-0.000743521966
-0.000745311138
-0.000479227902
-0.000469640435
-0.000745195568
-0.000744867643
-0.000497680651
-0.000485125606
-0.000747848449
-0.00074143811
-0.000591861136
-0.000500240382
-0.000598146574
-0.000740151524
-0.000745559862
-0.000742191442
-0.000744282096
-0.000744474432
-0.000512012931
-0.000510540913
-0.0004808789
-0.000540946311
-0.000747801942
-0.00051633387
-0.000479106716
-0.000740664736
-0.000747503889
-0.000518275406
-0.000506660518
-0.000741813797
-0.000745769035
-0.000530187754
-0.000531770539
-0.000524406453
-0.000572861505
-0.00074774039
-0.000742087515
-0.000748539559
-0.000578598553
-0.000550100014
-0.00074191415
-0.000744691732
-0.000568086016
-0.000535280446
-0.000541946137
-0.000538616191
-0.000742720373
-0.000741833847
-0.000743630252
-0.000743395526
-0.000494025703
-0.000430049279
-0.00049929259
-0.000740028818
-0.000744470969
-0.000490241409
-0.000493909507
-0.000742261742
-0.000743132783
-0.000523295401
-0.000510768824
-0.000743718421
-0.000742360816
-0.000565601025
-0.000501512914
-0.000586018511
-0.000741041017
-0.000744981259
-0.000743443804
-0.000745050108
-0.000746120893
-0.000563070733
-0.000508871085
-0.000534813389
-0.000524992092
-0.000514619879
-0.000539649323
-0.000745660036
-0.000747063064
-0.000521869211
-0.00054985149
-0.000748584446
-0.00074502328
-0.000749019966
-0.000542578691
-0.000511445085
-0.000743654353
-0.00074599742
-0.000553705615
-0.000483407418
-0.000537839259
-0.000741823922
-0.000748145755
-0.000530447349
-0.000518749685
-0.000740498241
-0.000745661372
-0.000561937007
-0.000508340978
-0.000538519047
-0.000743317213
-0.000744377706
-0.000556406151
-0.000488946457
-0.000543884781
-0.000742254243
-0.00074775713
-0.000515712851
-0.000573617958
-0.000746834906
-0.000600338653
-0.000512239271
-0.000743317934
-0.000745278111
-0.000551626993
-0.000524620771
-0.000743369455
-0.000743618428
-0.000551785124
-0.000542908553
-0.000743905339
-0.000741505603
-0.000536121513
-0.000533039904
-0.000498792569
-0.000533294694
-0.000748556698
-0.000740106764
-0.000749651646
-0.000548625672
-0.000505020103
-0.00073777336
-0.000747045922
-0.000539541341
-0.000521897127
-0.000739359553
-0.000745068927
-0.000534674991
-0.00052929908
-0.00074081393
-0.000742612967
-0.000526587789
-0.000545611188
-0.000745454513
-0.000740528602
-0.000745997399
-0.000568363634
-0.000508672573
-0.000494973262
-0.000517872496
-0.000742282673
-0.000741673351
-0.000744283026
-0.000562529524
-0.000402233857
-0.000509270141
-0.000740245707
-0.00074212699
-0.000742520143
-0.000512108086
-0.000445138711
-0.000736910535
-0.000736471204
-0.000555654396
-0.000733027897
-0.000741812599
-0.000521085715
-0.000524379031
-0.000737358125
-0.000738738383
-0.000527436347
-0.000513709544
-0.00047328411
-0.000492863411
-0.000737713125
-0.000734577257
-0.000739306703
-0.000495480796
-0.000454950684
-0.000729947123
-0.00073739942
-0.000445138608
-0.0004432968
-0.00073217404
-0.000737155859
-0.000736052119
-0.000738452649
-0.000483007042
-0.000449366598
-0.000731832755
-0.000737884134
-0.000534809338
-0.000462816992
-0.000477901362
-0.00073542148
-0.000739165144
-0.00055599225
-0.000444519696
-0.000506492864
-0.000737285191
-0.000739618183
-0.000740856438
-0.000563905585
-0.000490703128
-0.000735839887
-0.000739642633
-0.000587118533
-0.000471055947
-0.00052796631
-0.000739070532
-0.000742412016
-0.000743117682
-0.000568094591
-0.00051805738
-0.000738445309
-0.000740932119
-0.000600724927
-0.000517302702
-0.000526968125
-0.000738702252
-0.000745234109
-0.000583844498
-0.000510979091
-0.000511404275
-0.000738384969
-0.000743820474
-0.000587026839
-0.000488697563
-0.000512126388
-0.000740593192
-0.000743401172
-0.000563158912
-0.000525624017
-0.000738982158
-0.000740522813
-0.000600316914
-0.000513032422
-0.000560701924
-0.000485449833
-0.000517412002
-0.000735992768
-0.000743635079
-0.000739495649
-0.000744753833
-0.000743078742
-0.00051407529
-0.000466391833
-0.000735905295
-0.000741620059
-0.000535277129
-0.000501271139
-0.000734970262
-0.000740560967
-0.00056854785
-0.000515599408
-0.000737211353
-0.000739633652
-0.000601499201
-0.000498005514
-0.000508237021
-0.000736542121
-0.000745700318
-0.00057103045
-0.000505552666
-0.000735968889
-0.000744206266
-0.000596043148
-0.000490514986
-0.000491277614
-0.000740811657
-0.000736616245
-0.00059135721
-0.000734747882
-0.000744382333
-0.000594881877
-0.00052500406
-0.000525107369
-0.000736223997
-0.00074234911
-0.000598098267
-0.000492146272
-0.00049264986
-0.000733840443
-0.000741864474
-0.000588104965
-0.00043118079
-0.000463875049
-0.000734497116
-0.000737696676
-0.000736917391
-0.000520531243
-0.000459304422
-0.00072618302
-0.000737535414
-0.000731143293
-0.000738713211
-0.000480687576
-0.000440814023
-0.000728782986
-0.000736925564
-0.000734885446
-0.000610170911
-0.000521488156
-0.00073149449
-0.000739124236
-0.000603402851
-0.000551596151
-0.000539633074
-0.000535721303
-0.000731723073
-0.000741868812
-0.000581637727
-0.00053535638
-0.000734953651
-0.000741163906
-0.000603695082
-0.000531874887
-0.000496106811
-0.000495924074
-0.000732914938
-0.000741085713
-0.000531460038
-0.000496691287
-0.000730553244
-0.000741395228
-0.000522554431
-0.000504434466
-0.000730573416
-0.000740152518
-0.000737693809
-0.000578037771
-0.000481955606
-0.000730745581
-0.000740374006
-0.000570179955
-0.000462751149
-0.000731787419
-0.000738694404
-0.000590743388
-0.000388525278
-0.000414511671
-0.000731471488
-0.000741170552
-0.000735281435
-0.000742606014
-0.000740768655
-0.000589986362
-0.000562157172
-0.000735097941
-0.000603447781
-0.000518834274
-0.000733115344
-0.000739017556
-0.000736572036
-0.000596325807
-0.000507074088
-0.000530133252
-0.000440935024
-0.000442075215
-0.000728450592
-0.000739451383
-0.000514901609
-0.00048202855
-0.00072880754
-0.00073708004
-0.000734877215
-0.000574211966
-0.000495565599
-0.000726735972
-0.00073590764
-0.000554547098
-0.000512914773
-0.000722376702
-0.000721196113
-0.000725623249
-0.000714472547
-0.000545806071
-0.000445931761
-0.0004513682
-0.000732889736
-0.000736030704
-0.000606619079
-0.00042400327
-0.000452802998
-0.000733878012
-0.00074061933
-0.000737166045
-0.000600075511
)
;

boundaryField
{
    closed
    {
        type            calculated;
        value           nonuniform List<scalar> 0();
    }
    open
    {
        type            calculated;
        value           nonuniform List<scalar> 0();
    }
    sides
    {
        type            empty;
    }
    procBoundary1to0
    {
        type            processor;
        value           uniform -0.000504424814;
    }
    procBoundary1to2
    {
        type            processor;
        value           uniform -0.00043834014;
    }
}


// ************************************************************************* //
