/*--------------------------------*- C++ -*----------------------------------*\
| =========                 |                                                 |
| \\      /  F ield         | OpenFOAM: The Open Source CFD Toolbox           |
|  \\    /   O peration     | Version:  2306                                  |
|   \\  /    A nd           | Website:  www.openfoam.com                      |
|    \\/     M anipulation  |                                                 |
\*---------------------------------------------------------------------------*/
FoamFile
{
    version     2.0;
    format      ascii;
    arch        "LSB;label=32;scalar=64";
    class       volScalarField;
    location    "0.00192";
    object      prefDPV_T;
}
// * * * * * * * * * * * * * * * * * * * * * * * * * * * * * * * * * * * * * //

dimensions      [1 -1 -1 -1 0 0 0];

internalField   nonuniform List<scalar> 
531
(
6.08963299e-10
6.09182312e-10
5.89200633e-10
5.89465048e-10
6.09061977e-10
6.09527251e-10
6.09147254e-10
6.0968268e-10
5.88719388e-10
5.88810202e-10
6.09134349e-10
6.09715865e-10
5.88985115e-10
5.88067921e-10
5.89747598e-10
6.09667163e-10
6.08995692e-10
5.88355219e-10
5.89522609e-10
6.09522043e-10
6.09069483e-10
6.0961344e-10
6.09204928e-10
6.09582101e-10
5.8894069e-10
5.88851318e-10
5.89002319e-10
5.89879818e-10
6.0919693e-10
6.0872204e-10
5.88900417e-10
5.90459774e-10
6.09254124e-10
6.08523681e-10
6.0921017e-10
5.90115641e-10
5.89213615e-10
5.89831204e-10
5.89875604e-10
6.08723e-10
6.08880723e-10
5.89179976e-10
5.89327851e-10
6.08652962e-10
6.08884571e-10
5.89483639e-10
5.89682996e-10
6.08448035e-10
6.08823048e-10
5.89969123e-10
5.89500225e-10
5.91264426e-10
6.08680688e-10
6.07986011e-10
6.0848462e-10
5.90589605e-10
5.90460277e-10
6.08282356e-10
6.08150241e-10
5.89800354e-10
5.91170788e-10
6.08309836e-10
5.90656285e-10
5.90284586e-10
6.08326498e-10
6.08100286e-10
6.08484758e-10
5.90665215e-10
5.89613632e-10
5.89988942e-10
5.89883536e-10
6.08717822e-10
6.08949721e-10
5.88815061e-10
5.88073897e-10
5.89390677e-10
6.0929643e-10
6.08781315e-10
5.88691411e-10
5.88958297e-10
6.0912842e-10
6.08679985e-10
5.88869383e-10
5.90019272e-10
6.09136034e-10
6.08359048e-10
6.09086009e-10
5.90406992e-10
5.89388438e-10
5.90997628e-10
6.0873932e-10
6.08329105e-10
6.08607896e-10
6.08601699e-10
5.90065465e-10
5.89455263e-10
5.90384132e-10
6.08608249e-10
6.08822152e-10
5.90242314e-10
5.88662601e-10
5.91070173e-10
6.09076778e-10
5.8996175e-10
5.89186413e-10
6.0873811e-10
6.08620486e-10
5.89448324e-10
5.90349464e-10
6.08926736e-10
6.08142287e-10
6.08945428e-10
5.9114011e-10
5.89251172e-10
5.89925937e-10
5.89689624e-10
6.08838954e-10
6.0860777e-10
5.88779884e-10
5.89849625e-10
6.08885219e-10
5.89464136e-10
5.8930747e-10
6.08829278e-10
6.08779886e-10
6.08666722e-10
5.89450452e-10
5.90074283e-10
6.08766171e-10
6.08469007e-10
6.08627242e-10
5.90542783e-10
5.90214891e-10
6.08593575e-10
6.08512155e-10
5.90057243e-10
5.90107658e-10
5.89416302e-10
5.90456087e-10
6.0883043e-10
5.89581567e-10
5.89328145e-10
6.09032984e-10
6.08888559e-10
6.09028089e-10
5.88875916e-10
5.88733673e-10
6.08929804e-10
6.08979303e-10
5.89126191e-10
5.89085314e-10
6.08285548e-10
6.08982264e-10
5.92417609e-10
5.89486959e-10
5.90975882e-10
6.09021985e-10
6.08147607e-10
6.08913036e-10
6.08454707e-10
6.08778203e-10
5.89485526e-10
5.89531934e-10
5.88921286e-10
5.90110001e-10
6.0895661e-10
5.89637528e-10
5.8882018e-10
6.08918784e-10
6.08800219e-10
5.89665438e-10
5.89362541e-10
6.08839372e-10
6.0864543e-10
5.89830229e-10
5.89880069e-10
5.89721591e-10
5.90657845e-10
6.0862894e-10
6.08243677e-10
6.08468328e-10
5.90771452e-10
5.90175773e-10
6.08454528e-10
6.08491509e-10
5.90538438e-10
5.90006982e-10
5.90085653e-10
5.90073929e-10
6.08840356e-10
6.08879766e-10
6.08800113e-10
6.09020629e-10
5.8914278e-10
5.88124537e-10
5.89257018e-10
6.0932363e-10
6.08797347e-10
5.8916655e-10
5.89195753e-10
6.08910601e-10
6.08822002e-10
5.89700175e-10
5.89552661e-10
6.0867649e-10
6.08761593e-10
5.90410191e-10
5.89485408e-10
5.90805739e-10
6.09066432e-10
6.08062606e-10
6.08882732e-10
6.08159104e-10
6.08721269e-10
5.90381471e-10
5.89454338e-10
5.89884239e-10
5.89718204e-10
5.89533101e-10
5.89956159e-10
6.08768823e-10
6.08330594e-10
5.89598185e-10
5.90163493e-10
6.08742695e-10
6.0841375e-10
6.08631703e-10
5.90022963e-10
5.89421621e-10
6.08736369e-10
6.08748498e-10
5.90181321e-10
5.89045421e-10
5.89878715e-10
6.09011116e-10
6.08440765e-10
5.89891593e-10
5.8955853e-10
6.08888308e-10
6.08689555e-10
5.90415686e-10
5.8949375e-10
5.89988693e-10
6.08758329e-10
6.08700184e-10
5.90245581e-10
5.89163131e-10
5.89998691e-10
6.09077506e-10
6.08167005e-10
5.89568514e-10
5.90574641e-10
6.08914161e-10
5.91228254e-10
5.89495657e-10
6.08593452e-10
6.0864251e-10
5.90177151e-10
5.89743637e-10
6.08859492e-10
6.08563549e-10
5.90194225e-10
5.90138029e-10
6.08910302e-10
6.08595129e-10
5.89833695e-10
5.90006771e-10
5.89161285e-10
5.90019329e-10
6.08959954e-10
6.08629627e-10
6.08721787e-10
5.90259787e-10
5.89269636e-10
6.09198346e-10
6.08605755e-10
5.90088551e-10
5.89647789e-10
6.09224866e-10
6.08573578e-10
5.89952501e-10
5.89831502e-10
6.09238942e-10
6.08524815e-10
5.89743726e-10
5.9022398e-10
6.09004296e-10
6.08466986e-10
6.08808032e-10
5.90569439e-10
5.89473756e-10
5.89265952e-10
5.89674682e-10
6.094926e-10
6.08548062e-10
6.09318723e-10
5.90421706e-10
5.87638533e-10
5.89486413e-10
6.09798506e-10
6.08771256e-10
6.09160296e-10
5.89535723e-10
5.88389447e-10
6.09476845e-10
6.0938342e-10
5.90320343e-10
6.09899967e-10
6.08518257e-10
5.89859846e-10
5.89855412e-10
6.0924023e-10
6.08773631e-10
5.89872063e-10
5.89739807e-10
5.88936778e-10
5.89403995e-10
6.09621467e-10
6.09141304e-10
6.09305697e-10
5.89436947e-10
5.8858811e-10
6.10347119e-10
6.09255484e-10
5.88510525e-10
5.88432652e-10
6.10142277e-10
6.09338649e-10
6.09506341e-10
6.09274368e-10
5.89135963e-10
5.88505364e-10
6.10093735e-10
6.0930742e-10
5.90054994e-10
5.8884619e-10
5.89028754e-10
6.09454319e-10
6.09211243e-10
5.90390865e-10
5.88479237e-10
5.89525903e-10
6.09803255e-10
6.08659745e-10
6.09107187e-10
5.90537016e-10
5.89240278e-10
6.09501575e-10
6.09096636e-10
5.90907905e-10
5.88957363e-10
5.89842141e-10
6.09523253e-10
6.08465096e-10
6.08649747e-10
5.90561607e-10
5.89684058e-10
6.09373952e-10
6.08801832e-10
5.91092225e-10
5.89787588e-10
5.89751344e-10
6.09143906e-10
6.08615973e-10
5.90814162e-10
5.89552713e-10
5.89498161e-10
6.09399956e-10
6.08844037e-10
5.90826614e-10
5.89173843e-10
5.8951367e-10
6.09329948e-10
6.08660161e-10
5.90462085e-10
5.89823009e-10
6.09518956e-10
6.08813445e-10
5.91282751e-10
5.89729531e-10
5.90364223e-10
5.89251984e-10
5.89614922e-10
6.09879773e-10
6.08676945e-10
6.09286592e-10
6.08720944e-10
6.08891817e-10
5.89528886e-10
5.88709978e-10
6.10318993e-10
6.09024821e-10
5.90044581e-10
5.89407273e-10
6.10085901e-10
6.08878211e-10
5.90642811e-10
5.89696528e-10
6.09739596e-10
6.08938143e-10
5.91160033e-10
5.8947062e-10
5.89411471e-10
6.09518487e-10
6.08682755e-10
5.90698378e-10
5.89366207e-10
6.0993358e-10
6.08882157e-10
5.91063139e-10
5.89221134e-10
5.89224115e-10
6.09349068e-10
6.09326914e-10
5.9086889e-10
6.10140732e-10
6.08421462e-10
5.91022841e-10
5.89921442e-10
5.89744575e-10
6.09861547e-10
6.08821612e-10
5.91085379e-10
5.89365685e-10
5.89174502e-10
6.10146253e-10
6.09192079e-10
5.90972541e-10
5.88243395e-10
5.88764798e-10
6.10255814e-10
6.09045148e-10
6.09096209e-10
5.89873086e-10
5.88735839e-10
6.11426108e-10
6.09480571e-10
6.10059141e-10
6.09455752e-10
5.89120682e-10
5.88354241e-10
6.11623369e-10
6.08859574e-10
6.09627682e-10
5.91714868e-10
5.89889581e-10
6.10045261e-10
6.08727338e-10
5.92906734e-10
5.90365405e-10
5.90251333e-10
5.90011977e-10
6.10474242e-10
6.08658228e-10
5.90969936e-10
5.90023939e-10
6.10227559e-10
6.08715622e-10
5.91254313e-10
5.90006426e-10
5.89407159e-10
5.89314405e-10
6.10733886e-10
6.0893465e-10
5.90085609e-10
5.89296499e-10
6.11081843e-10
6.08915626e-10
5.89967919e-10
5.8943718e-10
6.11349754e-10
6.08685518e-10
6.09333714e-10
5.90859934e-10
5.89097595e-10
6.10800276e-10
6.09188963e-10
5.9081294e-10
5.88744307e-10
6.10835706e-10
6.09564436e-10
5.91018768e-10
5.87559847e-10
5.87827541e-10
6.11011332e-10
6.09122106e-10
6.09714394e-10
6.08690452e-10
6.0873536e-10
5.91000253e-10
5.90538256e-10
6.10651324e-10
5.92202551e-10
5.89855543e-10
6.10709406e-10
6.08401722e-10
6.08843422e-10
5.94123572e-10
5.89620933e-10
5.89909619e-10
5.88513836e-10
5.88334038e-10
6.11261327e-10
6.09233959e-10
5.8988889e-10
5.89090109e-10
6.11724259e-10
6.08889139e-10
6.09436103e-10
5.90899534e-10
5.89429215e-10
6.11154882e-10
6.09067272e-10
5.90728422e-10
5.89863382e-10
6.11657378e-10
6.09997273e-10
6.09974311e-10
6.11639549e-10
5.90308642e-10
5.88923901e-10
5.88653826e-10
6.10433565e-10
6.09516731e-10
5.91676497e-10
5.88250469e-10
5.88575599e-10
6.10694559e-10
6.08632361e-10
6.09057456e-10
5.92066608e-10
)
;

boundaryField
{
    closed
    {
        type            calculated;
        value           nonuniform List<scalar> 0();
    }
    open
    {
        type            calculated;
        value           nonuniform List<scalar> 0();
    }
    sides
    {
        type            empty;
    }
    procBoundary1to0
    {
        type            processor;
        value           uniform 5.89508903e-10;
    }
    procBoundary1to2
    {
        type            processor;
        value           uniform 5.8846258e-10;
    }
}


// ************************************************************************* //
