/*--------------------------------*- C++ -*----------------------------------*\
| =========                 |                                                 |
| \\      /  F ield         | OpenFOAM: The Open Source CFD Toolbox           |
|  \\    /   O peration     | Version:  2306                                  |
|   \\  /    A nd           | Website:  www.openfoam.com                      |
|    \\/     M anipulation  |                                                 |
\*---------------------------------------------------------------------------*/
FoamFile
{
    version     2.0;
    format      ascii;
    arch        "LSB;label=32;scalar=64";
    class       volScalarField;
    location    "0.00192";
    object      prefDPV_H2O;
}
// * * * * * * * * * * * * * * * * * * * * * * * * * * * * * * * * * * * * * //

dimensions      [1 -1 -1 0 0 0 0];

internalField   nonuniform List<scalar> 
531
(
-3.84218784e-07
-3.84401742e-07
-3.64118426e-07
-3.64383254e-07
-3.84303475e-07
-3.84680946e-07
-3.8437287e-07
-3.84810638e-07
-3.63538231e-07
-3.63527175e-07
-3.84360734e-07
-3.84832678e-07
-3.63865283e-07
-3.62573735e-07
-3.64813827e-07
-3.84792157e-07
-3.84250134e-07
-3.62970795e-07
-3.64511517e-07
-3.84674341e-07
-3.84304661e-07
-3.84751188e-07
-3.84414884e-07
-3.84728103e-07
-3.63738786e-07
-3.63646686e-07
-3.6381337e-07
-3.64962671e-07
-3.84411737e-07
-3.8402662e-07
-3.63736188e-07
-3.65712656e-07
-3.84463057e-07
-3.83859866e-07
-3.84428129e-07
-3.65275021e-07
-3.64152065e-07
-3.64936324e-07
-3.6499933e-07
-3.84028521e-07
-3.84159311e-07
-3.64210913e-07
-3.64351944e-07
-3.8397322e-07
-3.84163219e-07
-3.64609602e-07
-3.64781258e-07
-3.83805564e-07
-3.84110718e-07
-3.65236049e-07
-3.64521573e-07
-3.66783456e-07
-3.83994678e-07
-3.83424567e-07
-3.83836799e-07
-3.65967038e-07
-3.65815315e-07
-3.83669602e-07
-3.83562376e-07
-3.65042388e-07
-3.66672877e-07
-3.83697529e-07
-3.66031272e-07
-3.65643383e-07
-3.8370431e-07
-3.83519052e-07
-3.83836496e-07
-3.66064914e-07
-3.64727595e-07
-3.65203404e-07
-3.65056471e-07
-3.84025869e-07
-3.84215713e-07
-3.6377921e-07
-3.6277377e-07
-3.64493416e-07
-3.84497751e-07
-3.84081021e-07
-3.63529223e-07
-3.63969079e-07
-3.84358997e-07
-3.83997329e-07
-3.63752925e-07
-3.65249123e-07
-3.84368207e-07
-3.83729028e-07
-3.84327621e-07
-3.65722011e-07
-3.64357973e-07
-3.66455775e-07
-3.84039071e-07
-3.8370608e-07
-3.83931287e-07
-3.83931167e-07
-3.65251869e-07
-3.64495522e-07
-3.65646265e-07
-3.83933951e-07
-3.84109568e-07
-3.65509139e-07
-3.63481765e-07
-3.66518266e-07
-3.84321511e-07
-3.65139797e-07
-3.64199632e-07
-3.8403924e-07
-3.83946831e-07
-3.64491527e-07
-3.65635898e-07
-3.84197119e-07
-3.8355021e-07
-3.84213489e-07
-3.66613993e-07
-3.64239292e-07
-3.65098426e-07
-3.64808014e-07
-3.84124002e-07
-3.83935139e-07
-3.63714275e-07
-3.65002577e-07
-3.84166207e-07
-3.64530414e-07
-3.6435612e-07
-3.84117443e-07
-3.84074448e-07
-3.83985176e-07
-3.64505708e-07
-3.65276282e-07
-3.84065536e-07
-3.83816604e-07
-3.83952121e-07
-3.65799948e-07
-3.65447169e-07
-3.83918247e-07
-3.83854368e-07
-3.65221423e-07
-3.65276022e-07
-3.64442322e-07
-3.65701126e-07
-3.84119634e-07
-3.64635302e-07
-3.64369867e-07
-3.84282633e-07
-3.84163791e-07
-3.84280182e-07
-3.63815828e-07
-3.63620653e-07
-3.8419924e-07
-3.84239649e-07
-3.64179034e-07
-3.64014452e-07
-3.83672044e-07
-3.8423889e-07
-3.6796835e-07
-3.64435548e-07
-3.66490644e-07
-3.84270322e-07
-3.83556825e-07
-3.84182679e-07
-3.83807919e-07
-3.84073934e-07
-3.64565556e-07
-3.64577789e-07
-3.63862938e-07
-3.65281945e-07
-3.84223632e-07
-3.64708953e-07
-3.63778682e-07
-3.84185967e-07
-3.84094742e-07
-3.64748311e-07
-3.64428299e-07
-3.84121769e-07
-3.83965954e-07
-3.64986716e-07
-3.65035454e-07
-3.64853271e-07
-3.6598957e-07
-3.83954128e-07
-3.83632671e-07
-3.83822803e-07
-3.66126025e-07
-3.65430152e-07
-3.83805651e-07
-3.83838516e-07
-3.65861651e-07
-3.65153407e-07
-3.65279077e-07
-3.65232876e-07
-3.84123421e-07
-3.84154994e-07
-3.84091177e-07
-3.84272276e-07
-3.6414857e-07
-3.62807985e-07
-3.64279325e-07
-3.84518297e-07
-3.84089669e-07
-3.64122073e-07
-3.6418088e-07
-3.84180744e-07
-3.84108714e-07
-3.64827307e-07
-3.64593302e-07
-3.83989645e-07
-3.84058347e-07
-3.65756896e-07
-3.64448419e-07
-3.66239191e-07
-3.84307722e-07
-3.83486553e-07
-3.84158928e-07
-3.83565828e-07
-3.84028606e-07
-3.65708918e-07
-3.64510536e-07
-3.65073716e-07
-3.64857997e-07
-3.64624758e-07
-3.65174269e-07
-3.8406729e-07
-3.83708381e-07
-3.64748435e-07
-3.65419899e-07
-3.84048385e-07
-3.83774927e-07
-3.83957503e-07
-3.65249119e-07
-3.64519495e-07
-3.84038801e-07
-3.84050882e-07
-3.65477263e-07
-3.63970218e-07
-3.65106404e-07
-3.84262979e-07
-3.83799818e-07
-3.65027068e-07
-3.6468793e-07
-3.84160756e-07
-3.84002127e-07
-3.65714814e-07
-3.6452921e-07
-3.65180338e-07
-3.84056543e-07
-3.84009715e-07
-3.65547883e-07
-3.64105802e-07
-3.652504e-07
-3.84317983e-07
-3.83574606e-07
-3.64659142e-07
-3.65951358e-07
-3.84187853e-07
-3.66734436e-07
-3.64574417e-07
-3.83921046e-07
-3.83963118e-07
-3.65449459e-07
-3.64869237e-07
-3.84139753e-07
-3.83896747e-07
-3.65461421e-07
-3.65321889e-07
-3.84182022e-07
-3.83920772e-07
-3.65058969e-07
-3.65127331e-07
-3.64213574e-07
-3.6513794e-07
-3.84227052e-07
-3.83947816e-07
-3.84032113e-07
-3.65462421e-07
-3.64351833e-07
-3.84413016e-07
-3.83934466e-07
-3.65252534e-07
-3.64779056e-07
-3.84436394e-07
-3.83906283e-07
-3.65113306e-07
-3.64977127e-07
-3.84449392e-07
-3.83864018e-07
-3.64892121e-07
-3.65405362e-07
-3.84260742e-07
-3.83814618e-07
-3.84099829e-07
-3.65883007e-07
-3.64520424e-07
-3.64237216e-07
-3.64749452e-07
-3.84659553e-07
-3.8388226e-07
-3.84518356e-07
-3.65725582e-07
-3.62202966e-07
-3.64535057e-07
-3.84909405e-07
-3.84066073e-07
-3.84386332e-07
-3.64597826e-07
-3.63138359e-07
-3.84641235e-07
-3.84563926e-07
-3.65582509e-07
-3.84985396e-07
-3.83857904e-07
-3.64900757e-07
-3.64935194e-07
-3.84447047e-07
-3.84064834e-07
-3.6498038e-07
-3.64743434e-07
-3.63791855e-07
-3.64302882e-07
-3.8476107e-07
-3.84362898e-07
-3.84502832e-07
-3.6435212e-07
-3.63371262e-07
-3.8535023e-07
-3.84459634e-07
-3.63219956e-07
-3.6314893e-07
-3.85183993e-07
-3.84527793e-07
-3.84664624e-07
-3.84476216e-07
-3.64024468e-07
-3.63259017e-07
-3.85143637e-07
-3.84502836e-07
-3.65177181e-07
-3.63623555e-07
-3.63900611e-07
-3.84621174e-07
-3.84424999e-07
-3.65628186e-07
-3.63192633e-07
-3.6452883e-07
-3.84910284e-07
-3.839721e-07
-3.84341061e-07
-3.65809655e-07
-3.64174322e-07
-3.84660484e-07
-3.84331213e-07
-3.66310556e-07
-3.6378206e-07
-3.6496816e-07
-3.8468161e-07
-3.83814782e-07
-3.83967122e-07
-3.65875161e-07
-3.64757362e-07
-3.84558129e-07
-3.84090088e-07
-3.66588041e-07
-3.64813335e-07
-3.64901192e-07
-3.84369166e-07
-3.8394127e-07
-3.66216223e-07
-3.64595696e-07
-3.64566488e-07
-3.84579463e-07
-3.84127461e-07
-3.66263783e-07
-3.64109979e-07
-3.64584319e-07
-3.84524048e-07
-3.83975938e-07
-3.65756796e-07
-3.64929459e-07
-3.84677985e-07
-3.84099248e-07
-3.6678888e-07
-3.64729476e-07
-3.65669712e-07
-3.6412569e-07
-3.64707235e-07
-3.84971937e-07
-3.83989943e-07
-3.84487302e-07
-3.84027118e-07
-3.8416606e-07
-3.6461593e-07
-3.63570748e-07
-3.8533367e-07
-3.84274056e-07
-3.65176236e-07
-3.64396172e-07
-3.85140608e-07
-3.84152516e-07
-3.65927892e-07
-3.64737381e-07
-3.84857796e-07
-3.84200896e-07
-3.66659642e-07
-3.64400903e-07
-3.64476645e-07
-3.84675122e-07
-3.83996573e-07
-3.65990516e-07
-3.64418065e-07
-3.85016221e-07
-3.84159156e-07
-3.66511309e-07
-3.64160003e-07
-3.64170186e-07
-3.84539993e-07
-3.84517594e-07
-3.66343155e-07
-3.85185536e-07
-3.83780699e-07
-3.66473991e-07
-3.64983128e-07
-3.64875441e-07
-3.84957173e-07
-3.84107668e-07
-3.6655013e-07
-3.64270512e-07
-3.64153508e-07
-3.85189098e-07
-3.84411853e-07
-3.663595e-07
-3.62900321e-07
-3.63580505e-07
-3.85280077e-07
-3.84286977e-07
-3.84328183e-07
-3.64902809e-07
-3.6351422e-07
-3.86235518e-07
-3.84644936e-07
-3.85114386e-07
-3.84625702e-07
-3.63989944e-07
-3.63071086e-07
-3.86401578e-07
-3.84133698e-07
-3.84763258e-07
-3.67161958e-07
-3.64923799e-07
-3.85103346e-07
-3.84027165e-07
-3.683893e-07
-3.65560706e-07
-3.65352579e-07
-3.65161571e-07
-3.85456995e-07
-3.83972948e-07
-3.66277636e-07
-3.65164593e-07
-3.85257293e-07
-3.84019457e-07
-3.66715747e-07
-3.6511372e-07
-3.64339744e-07
-3.64278486e-07
-3.85672397e-07
-3.84199409e-07
-3.65157682e-07
-3.64275498e-07
-3.8595669e-07
-3.84184062e-07
-3.64984615e-07
-3.64450078e-07
-3.8617782e-07
-3.83993776e-07
-3.84524275e-07
-3.66169938e-07
-3.63988392e-07
-3.8572466e-07
-3.84407853e-07
-3.66047296e-07
-3.63555314e-07
-3.85755082e-07
-3.84715126e-07
-3.66418894e-07
-3.62020192e-07
-3.62451987e-07
-3.85899588e-07
-3.84353632e-07
-3.84835038e-07
-3.84000106e-07
-3.84035308e-07
-3.66398889e-07
-3.65789247e-07
-3.85606761e-07
-3.67687349e-07
-3.64872926e-07
-3.85652437e-07
-3.83759632e-07
-3.84120079e-07
-3.69641021e-07
-3.64595301e-07
-3.65034435e-07
-3.63180582e-07
-3.63070115e-07
-3.8610229e-07
-3.84443963e-07
-3.64850619e-07
-3.63984316e-07
-3.86484935e-07
-3.84158144e-07
-3.84605626e-07
-3.66146541e-07
-3.64348062e-07
-3.86012383e-07
-3.84303387e-07
-3.65814292e-07
-3.64812823e-07
-3.86421623e-07
-3.85051971e-07
-3.85038298e-07
-3.86396441e-07
-3.65458671e-07
-3.6350942e-07
-3.63378923e-07
-3.85424781e-07
-3.84673151e-07
-3.67144509e-07
-3.62835848e-07
-3.63340967e-07
-3.85641053e-07
-3.8395054e-07
-3.84296572e-07
-3.67571437e-07
)
;

boundaryField
{
    closed
    {
        type            calculated;
        value           nonuniform List<scalar> 0();
    }
    open
    {
        type            calculated;
        value           nonuniform List<scalar> 0();
    }
    sides
    {
        type            empty;
    }
    procBoundary1to0
    {
        type            processor;
        value           uniform -3.64495255e-07;
    }
    procBoundary1to2
    {
        type            processor;
        value           uniform -3.63120194e-07;
    }
}


// ************************************************************************* //
