/*--------------------------------*- C++ -*----------------------------------*\
| =========                 |                                                 |
| \\      /  F ield         | OpenFOAM: The Open Source CFD Toolbox           |
|  \\    /   O peration     | Version:  2306                                  |
|   \\  /    A nd           | Website:  www.openfoam.com                      |
|    \\/     M anipulation  |                                                 |
\*---------------------------------------------------------------------------*/
FoamFile
{
    version     2.0;
    format      ascii;
    arch        "LSB;label=32;scalar=64";
    class       volScalarField;
    location    "0.00198";
    object      alpha;
}
// * * * * * * * * * * * * * * * * * * * * * * * * * * * * * * * * * * * * * //

dimensions      [1 -1 -1 0 0 0 0];

internalField   nonuniform List<scalar> 
531
(
3.67896123e-05
3.59432666e-05
3.52415034e-05
3.52168194e-05
3.48536553e-05
3.47014284e-05
3.57676949e-05
3.68064518e-05
3.68567233e-05
3.68373292e-05
3.57967802e-05
3.55022762e-05
3.6771017e-05
3.68191951e-05
3.58409322e-05
3.56646612e-05
3.48767637e-05
3.4890404e-05
3.64457956e-05
3.68175749e-05
3.67852719e-05
3.68232079e-05
3.67707711e-05
3.58028862e-05
3.4806158e-05
3.48299385e-05
3.67017793e-05
3.68224974e-05
3.56587463e-05
3.51477243e-05
3.67762489e-05
3.67788819e-05
3.58490888e-05
3.49571797e-05
3.49672436e-05
3.67556831e-05
3.67903521e-05
3.67847618e-05
3.56708823e-05
3.51342141e-05
3.60649647e-05
3.67791382e-05
3.68230632e-05
3.68052994e-05
3.68066895e-05
3.57508899e-05
3.51673878e-05
3.51869012e-05
3.51395095e-05
3.47263526e-05
3.52100688e-05
3.67941827e-05
3.68378002e-05
3.67849876e-05
3.68446765e-05
3.57712299e-05
3.51968629e-05
3.68067381e-05
3.68211225e-05
3.5677581e-05
3.53397546e-05
3.67909442e-05
3.67905784e-05
3.5810218e-05
3.56274634e-05
3.50140176e-05
3.49592675e-05
3.61016374e-05
3.67790897e-05
3.68165415e-05
3.67798585e-05
3.59414888e-05
3.52714039e-05
3.52597701e-05
3.48230044e-05
3.47809307e-05
3.60015358e-05
3.67822438e-05
3.6802014e-05
3.5754025e-05
3.51620985e-05
3.62757078e-05
3.67734979e-05
3.68028018e-05
3.6793203e-05
3.57573834e-05
3.49379228e-05
3.67599987e-05
3.67785477e-05
3.57943258e-05
3.47796068e-05
3.48035896e-05
3.66952075e-05
3.67732899e-05
3.58359395e-05
3.49741712e-05
3.49830463e-05
3.63132903e-05
3.68018124e-05
3.67823162e-05
3.68145342e-05
3.578804e-05
3.55315557e-05
3.68017662e-05
3.57977914e-05
3.47453493e-05
3.68394423e-05
3.67878246e-05
3.57768587e-05
3.53625191e-05
3.48666585e-05
3.48726415e-05
3.67979788e-05
3.67805746e-05
3.6773957e-05
3.57859271e-05
3.53028436e-05
3.68087349e-05
3.67813288e-05
3.58585467e-05
3.4928734e-05
3.49347995e-05
3.68185781e-05
3.67825122e-05
3.58203354e-05
3.48825966e-05
3.49010996e-05
3.66503108e-05
3.67930065e-05
3.67489947e-05
3.67975497e-05
3.67523045e-05
3.58462641e-05
3.49849715e-05
3.4997562e-05
3.6798815e-05
3.67923222e-05
3.5829995e-05
3.48725397e-05
3.48973597e-05
3.67888458e-05
3.57710999e-05
3.48584677e-05
3.68129632e-05
3.67832345e-05
3.57612493e-05
3.53095072e-05
3.48282057e-05
3.47593775e-05
3.60144591e-05
3.67899028e-05
3.68362545e-05
3.67912091e-05
3.6793149e-05
3.57805146e-05
3.54678847e-05
3.67778289e-05
3.67374998e-05
3.67477049e-05
3.65145665e-05
3.56410274e-05
3.47043721e-05
3.47419928e-05
3.67777853e-05
3.6816001e-05
3.55477414e-05
3.50115441e-05
3.67895376e-05
3.68250353e-05
3.57809921e-05
3.52759867e-05
3.48877776e-05
3.48941467e-05
3.67842912e-05
3.6799297e-05
3.67734013e-05
3.68098544e-05
3.67702639e-05
3.5803586e-05
3.48982985e-05
3.49138555e-05
3.67933883e-05
3.67910212e-05
3.57891071e-05
3.44940921e-05
3.45202573e-05
3.65347405e-05
3.67906371e-05
3.67677182e-05
3.6796835e-05
3.57991549e-05
3.54230492e-05
3.68047577e-05
3.67961367e-05
3.57722769e-05
3.5504602e-05
3.52310907e-05
3.50062218e-05
3.57246561e-05
3.68007449e-05
3.68595995e-05
3.68023935e-05
3.68082064e-05
3.58851916e-05
3.50519626e-05
3.50591143e-05
3.68054491e-05
3.68123322e-05
3.57921106e-05
3.53902827e-05
3.48937373e-05
3.49096753e-05
3.6788929e-05
3.68121873e-05
3.5359332e-05
3.51162927e-05
3.67886834e-05
3.68150938e-05
3.53486814e-05
3.5254856e-05
3.68069161e-05
3.68022338e-05
3.67758641e-05
3.56809271e-05
3.52725687e-05
3.68367591e-05
3.67805044e-05
3.58244682e-05
3.50252004e-05
3.50476341e-05
3.68166393e-05
3.68153728e-05
3.56523001e-05
3.54322963e-05
3.68298833e-05
3.67994099e-05
3.57876347e-05
3.5607085e-05
3.51369672e-05
3.51887483e-05
3.68274929e-05
3.57588813e-05
3.48618703e-05
3.68388243e-05
3.67963872e-05
3.53346249e-05
3.51393525e-05
3.68326288e-05
3.68018187e-05
3.52066285e-05
3.52367442e-05
3.68449324e-05
3.67963496e-05
3.67910572e-05
3.56155344e-05
3.52111049e-05
3.68452176e-05
3.68015348e-05
3.53486917e-05
3.53774833e-05
3.68406423e-05
3.68023786e-05
3.6782759e-05
3.58102336e-05
3.5313033e-05
3.48045156e-05
3.48920547e-05
3.68248236e-05
3.68001575e-05
3.6765293e-05
3.58906226e-05
3.46085837e-05
3.47784559e-05
3.68111597e-05
3.68101137e-05
3.67864207e-05
3.6811363e-05
3.67741514e-05
3.57746565e-05
3.53959693e-05
3.52530644e-05
3.51484719e-05
3.4437066e-05
3.45120623e-05
3.68164363e-05
3.67904988e-05
3.67850552e-05
3.67881496e-05
3.57717521e-05
3.53455471e-05
3.68033002e-05
3.67760815e-05
3.59165692e-05
3.48984128e-05
3.49424299e-05
3.68170024e-05
3.68034281e-05
3.68011587e-05
3.68001418e-05
3.57726675e-05
3.52920281e-05
3.53024481e-05
3.51455831e-05
3.49726662e-05
3.4731787e-05
3.57090405e-05
3.67952046e-05
3.68696002e-05
3.68065435e-05
3.68526127e-05
3.53311599e-05
3.48469609e-05
3.68086202e-05
3.68182838e-05
3.52128399e-05
3.51571278e-05
3.68018605e-05
3.68155128e-05
3.6815004e-05
3.56434122e-05
3.51532966e-05
3.68100634e-05
3.68079437e-05
3.57598511e-05
3.47104618e-05
3.47216575e-05
3.68229569e-05
3.68470177e-05
3.68556163e-05
3.68591639e-05
3.52601723e-05
3.47248809e-05
3.68568571e-05
3.68760816e-05
3.57390477e-05
3.47359553e-05
3.47462023e-05
3.69008299e-05
3.69542746e-05
3.51102029e-05
3.49260696e-05
3.69503007e-05
3.70286825e-05
3.70216399e-05
3.51414395e-05
3.46622015e-05
3.70489534e-05
3.71329671e-05
3.47741893e-05
3.45338385e-05
3.69128421e-05
3.70165398e-05
3.69742297e-05
3.45158801e-05
3.42046701e-05
3.66880609e-05
3.6812835e-05
3.67345717e-05
3.676348e-05
3.67175675e-05
3.67271928e-05
3.66982044e-05
3.66973607e-05
3.6675966e-05
3.66706041e-05
3.6651743e-05
3.66471862e-05
3.66306229e-05
3.6633211e-05
3.66258018e-05
3.66424849e-05
3.66566748e-05
3.67047211e-05
3.676764e-05
3.69129892e-05
3.71633198e-05
3.7179179e-05
3.69764548e-05
3.68032664e-05
3.65953897e-05
3.64625424e-05
3.6263067e-05
3.61668513e-05
3.59938846e-05
3.59286874e-05
3.57513968e-05
3.56599533e-05
3.55156637e-05
3.55623318e-05
3.5400763e-05
3.53324603e-05
3.51437736e-05
3.50815728e-05
3.49370695e-05
3.48868737e-05
3.47839637e-05
3.45492917e-05
3.42691391e-05
3.3993563e-05
3.37562068e-05
3.34935747e-05
3.40941656e-05
3.59091716e-05
3.55141838e-05
3.50082561e-05
3.46033594e-05
3.40962499e-05
3.36711068e-05
3.31574772e-05
3.27109988e-05
3.21760708e-05
3.16997954e-05
3.13408487e-05
3.1258387e-05
3.19467354e-05
3.14148611e-05
3.10381738e-05
3.10555834e-05
3.22673636e-05
3.42236012e-05
3.39459485e-05
3.49002121e-05
3.62258753e-05
4.05665023e-05
4.13221558e-05
4.20945185e-05
4.29710882e-05
4.40411434e-05
4.53835926e-05
4.71455305e-05
4.91796039e-05
5.17117446e-05
5.51312163e-05
5.74008351e-05
5.87324753e-05
6.02952951e-05
6.17661721e-05
6.34780909e-05
6.44930956e-05
6.56338701e-05
6.65476026e-05
6.75723555e-05
6.8383208e-05
6.94273202e-05
7.01215895e-05
7.11111802e-05
7.1683062e-05
7.24130653e-05
7.28709871e-05
7.34773194e-05
7.39163278e-05
7.4442364e-05
7.48580216e-05
7.5349706e-05
7.5744891e-05
7.61770291e-05
7.65228252e-05
7.6881033e-05
7.72067106e-05
7.75016826e-05
7.78065671e-05
7.80889959e-05
7.83638817e-05
7.86366736e-05
7.8910102e-05
7.92010436e-05
7.94760349e-05
7.97322834e-05
7.99121511e-05
8.00798717e-05
8.02398632e-05
8.03876601e-05
8.0528458e-05
8.06578692e-05
8.07882623e-05
8.09279166e-05
8.10689522e-05
8.1203356e-05
8.13379735e-05
8.1464821e-05
8.15997771e-05
8.17399507e-05
8.18559947e-05
8.19789008e-05
8.20831778e-05
8.21948571e-05
8.2290299e-05
8.23953022e-05
8.24856965e-05
8.25806481e-05
8.26579314e-05
8.27456445e-05
8.28188843e-05
8.29022112e-05
8.29856534e-05
8.30810977e-05
8.31722001e-05
8.32686874e-05
8.33509231e-05
8.3438162e-05
8.35130425e-05
8.35835953e-05
8.36428877e-05
8.37096597e-05
8.37665652e-05
8.38299825e-05
8.38847595e-05
8.39452067e-05
8.39972608e-05
8.40544702e-05
8.41052878e-05
8.41606424e-05
8.42104647e-05
8.42641611e-05
8.431312e-05
8.4365337e-05
8.44135825e-05
8.44611841e-05
8.45035725e-05
8.45486226e-05
8.45900931e-05
8.46336034e-05
8.46742151e-05
8.47166403e-05
8.47589734e-05
8.4802077e-05
8.48431598e-05
8.4884497e-05
8.49244287e-05
8.49628225e-05
8.49987348e-05
)
;

boundaryField
{
    closed
    {
        type            calculated;
        value           nonuniform List<scalar> 0();
    }
    open
    {
        type            calculated;
        value           nonuniform List<scalar> 0();
    }
    sides
    {
        type            empty;
    }
    procBoundary4to3
    {
        type            processor;
        value           uniform 3.67902909e-05;
    }
    procBoundary4to5
    {
        type            processor;
        value           uniform 8.50344098e-05;
    }
}


// ************************************************************************* //
