/*--------------------------------*- C++ -*----------------------------------*\
| =========                 |                                                 |
| \\      /  F ield         | OpenFOAM: The Open Source CFD Toolbox           |
|  \\    /   O peration     | Version:  2306                                  |
|   \\  /    A nd           | Website:  www.openfoam.com                      |
|    \\/     M anipulation  |                                                 |
\*---------------------------------------------------------------------------*/
FoamFile
{
    version     2.0;
    format      ascii;
    arch        "LSB;label=32;scalar=64";
    class       volScalarField;
    location    "0.00198";
    object      H2;
}
// * * * * * * * * * * * * * * * * * * * * * * * * * * * * * * * * * * * * * //

dimensions      [0 0 0 0 0 0 0];

internalField   nonuniform List<scalar> 
531
(
0.0110234636
0.0108387229
0.0106644267
0.0106624969
0.0106333356
0.010625507
0.010779841
0.0110359493
0.011002848
0.0110055608
0.0107611768
0.010679109
0.0110652928
0.0110040522
0.0107817974
0.010691904
0.0106426575
0.010637737
0.0110018724
0.0110199237
0.0110404854
0.0110092503
0.0110160771
0.0107767036
0.0106393675
0.010632266
0.011071243
0.0110217735
0.0106976703
0.0106582997
0.0110744778
0.0110226099
0.0107893032
0.0106512724
0.0106476601
0.0110853214
0.0110155815
0.0110221584
0.0106919868
0.0106597627
0.010889457
0.0110230974
0.0110261711
0.0110097471
0.0110147401
0.0107383516
0.0106589416
0.0106592263
0.0106549953
0.0106300795
0.0106601976
0.0110554986
0.0110097489
0.0110222741
0.011010432
0.010729824
0.0106574366
0.0110668782
0.0110143473
0.0107000496
0.0106715753
0.0110633696
0.0110107769
0.0107541193
0.0106943041
0.0106497354
0.0106467489
0.0109015326
0.0110297033
0.0110193817
0.011022315
0.0108377793
0.0106690821
0.0106676905
0.0106355599
0.010633771
0.0108683882
0.0110208101
0.0110213989
0.0107117958
0.010662937
0.010954334
0.0110278327
0.011022974
0.011024176
0.0107024308
0.0106458268
0.0110841606
0.0110291504
0.010746191
0.0106388329
0.0106363072
0.0110708262
0.0110279874
0.0107816182
0.0106502605
0.0106466285
0.0109655027
0.0110208895
0.0110227186
0.0110124416
0.0107141571
0.0106826146
0.0110639526
0.0107728974
0.0106335805
0.0110620718
0.0110228799
0.0107363175
0.0106757657
0.0106421419
0.0106410901
0.0110783176
0.011013331
0.01102532
0.0107234629
0.010670888
0.0110542189
0.0110197631
0.010795989
0.010647069
0.0106448353
0.0110581651
0.0110256631
0.010773686
0.0106453858
0.0106417257
0.0110587423
0.0110177098
0.0110386263
0.0110080792
0.0110144883
0.0107947938
0.0106524924
0.0106472736
0.0110622572
0.0110238562
0.0107757428
0.0106428353
0.0106423083
0.01105901
0.0107390813
0.0106418273
0.0110624733
0.0110221893
0.0107230522
0.0106724746
0.0106330123
0.0106316546
0.0108741609
0.0110277104
0.0110234405
0.0110134192
0.0110153044
0.0107204331
0.0106838423
0.0110674361
0.0110253674
0.0110311576
0.0110255077
0.010693097
0.0106368311
0.0106300446
0.0110660196
0.0110229356
0.0106911467
0.0106461344
0.011068825
0.0110167414
0.0107263369
0.0106662974
0.0106429253
0.0106407854
0.0110632221
0.0110131872
0.0110316303
0.0110038398
0.011009881
0.0107734813
0.0106453535
0.0106406245
0.011065099
0.0110299976
0.0107336528
0.0106174293
0.0106153677
0.011027263
0.0110288673
0.0110317131
0.0110194063
0.0107363922
0.0106777127
0.011044059
0.0110086263
0.0107445945
0.0106837968
0.010657738
0.0106481677
0.0107515613
0.0110279715
0.0110033197
0.0110112831
0.0110109923
0.0108161357
0.0106537318
0.0106498392
0.0110476389
0.0110136036
0.0107321644
0.0106747629
0.0106458245
0.0106405275
0.0110639555
0.0110190835
0.0106791936
0.0106541034
0.0110614919
0.0110141527
0.0106774238
0.0106636696
0.0110596839
0.011006698
0.0110222038
0.0106949203
0.0106692841
0.0110362101
0.0110183862
0.0107844064
0.0106527091
0.01064909
0.0110368567
0.0110125538
0.010695905
0.010676696
0.0110303686
0.011005834
0.0107484233
0.0106908248
0.0106589322
0.0106612184
0.0110384643
0.0107160459
0.0106391598
0.0110358131
0.011021246
0.0106741761
0.0106568279
0.0110396079
0.0110168887
0.0106653066
0.0106626799
0.011044545
0.0110074865
0.011029701
0.0106911365
0.0106626631
0.0110288698
0.0110149192
0.0106739257
0.0106724823
0.0110368848
0.0110021554
0.0110260407
0.01077351
0.0106711291
0.0106352741
0.0106391743
0.0110492383
0.0110119123
0.0110406982
0.010818728
0.0106241579
0.0106300097
0.0110444345
0.0110157549
0.0110325128
0.0110052761
0.011015963
0.0107541164
0.0106781855
0.0106645486
0.0106601149
0.0106087881
0.0106142865
0.0110534777
0.0110283382
0.0110286826
0.0110226976
0.0107198314
0.0106742407
0.0110293035
0.0110191005
0.0108288647
0.0106425106
0.0106428516
0.0110418998
0.011019255
0.0110200443
0.011016958
0.0107515468
0.010669186
0.0106649206
0.010659247
0.0106383318
0.010630126
0.0107395216
0.0110338537
0.0110063324
0.0110205662
0.01101652
0.0106683044
0.0106334074
0.0110518552
0.0110182124
0.0106621098
0.0106561398
0.0110542251
0.011006539
0.0110163341
0.0106893657
0.0106578325
0.0110344153
0.0110201404
0.0107508742
0.010626062
0.0106232946
0.0110502631
0.0110226044
0.0110243806
0.0110211326
0.0106555714
0.0106206387
0.0110465266
0.0110191787
0.0107649896
0.0106179414
0.010613983
0.0110378877
0.0110054976
0.0106369863
0.0106184812
0.0110542472
0.0109927904
0.0110077648
0.0106236984
0.0105890637
0.0110365343
0.0109904293
0.010588288
0.0105618942
0.0110212763
0.0109566536
0.010963261
0.0105397237
0.0105092661
0.0109719336
0.010901267
0.0109156475
0.0108676902
0.0108649532
0.0108300656
0.0108209008
0.0107891602
0.0107777346
0.0107448073
0.0107316884
0.0106977982
0.0106822735
0.0106491746
0.0106306059
0.0106002176
0.0105783147
0.0105532755
0.010531834
0.0105135182
0.0105063053
0.0104855577
0.0104468736
0.0104106631
0.0103622497
0.0103275755
0.010268729
0.0102354782
0.010167071
0.0101338002
0.010058843
0.01002655
0.00996638758
0.00996145836
0.00990463014
0.00987551312
0.00978646073
0.00974224138
0.00964163407
0.0095812124
0.0094768601
0.00937912145
0.00926265368
0.00914624334
0.00904379736
0.00891373182
0.0089200253
0.00900835633
0.0088766532
0.00870559005
0.00856906764
0.00839604106
0.00825114652
0.00807492581
0.0079214135
0.00773819618
0.00757493394
0.00740420232
0.0072686323
0.00719884139
0.00700807669
0.00686372857
0.00679830243
0.00643626083
0.00634089511
0.00610030716
0.00608622967
0.00568767088
0.00526103483
0.00512161877
0.004913423
0.00477899026
0.00459186903
0.00442113134
0.00424619882
0.00403839615
0.00385434882
0.0035490975
0.00337879095
0.00318754878
0.00304747296
0.0028308147
0.00266395675
0.00248519968
0.00236303031
0.00219131763
0.00207199313
0.00191048263
0.00177765354
0.00163320508
0.00150175954
0.00138054438
0.00128248068
0.00118484432
0.00110566817
0.00101982943
0.00095566474
0.000883285556
0.000829641842
0.000770052244
0.000726621783
0.000677223036
0.000642416997
0.000599692694
0.000572239851
0.000536164923
0.000512291601
0.000482493317
0.000462091351
0.000436772534
0.000417068253
0.000395353802
0.000381040809
0.000366646181
0.000357580267
0.000345749423
0.000338811661
0.000328814908
0.000323192559
0.000314163583
0.00030860534
0.000299646957
0.000294360123
0.00028607303
0.000281871288
0.000274442586
0.000270021377
0.000263488813
0.000259708965
0.000253794685
0.000250384312
0.000244911931
0.000241728493
0.000236626524
0.000233635784
0.000228870472
0.000226047649
0.000221579139
0.000218896487
0.000214172241
0.000211071212
0.000206314174
0.000203247163
0.000198941743
0.000196185512
0.000192263657
0.000189815326
0.000186244264
0.000183925645
0.000180579856
0.000178380551
0.000175241927
0.000173152163
0.000170033869
0.000167868568
0.000164884385
0.000162788016
0.000159950333
0.000157918987
0.00015521891
0.000153248885
0.000150678141
0.000148754918
0.000146287094
0.000144420564
0.00014207031
0.000140261978
0.000138022774
0.000136257376
0.000134021652
0.00013223084
0.000130116297
0.000128399772
0.000126398355
0.000124745578
0.0001228326
)
;

boundaryField
{
    closed
    {
        type            calculated;
        value           nonuniform List<scalar> 0();
    }
    open
    {
        type            calculated;
        value           nonuniform List<scalar> 0();
    }
    sides
    {
        type            empty;
    }
    procBoundary4to3
    {
        type            processor;
        value           uniform 0.0110317541;
    }
    procBoundary4to5
    {
        type            processor;
        value           uniform 0.000121235993;
    }
}


// ************************************************************************* //
