/*--------------------------------*- C++ -*----------------------------------*\
| =========                 |                                                 |
| \\      /  F ield         | OpenFOAM: The Open Source CFD Toolbox           |
|  \\    /   O peration     | Version:  2306                                  |
|   \\  /    A nd           | Website:  www.openfoam.com                      |
|    \\/     M anipulation  |                                                 |
\*---------------------------------------------------------------------------*/
FoamFile
{
    version     2.0;
    format      ascii;
    arch        "LSB;label=32;scalar=64";
    class       surfaceScalarField;
    location    "0.00198";
    object      phi;
}
// * * * * * * * * * * * * * * * * * * * * * * * * * * * * * * * * * * * * * //

dimensions      [1 0 -1 0 0 0 0];

oriented        oriented;

internalField   nonuniform List<scalar> 
530
(
3.05815569e-06
3.08844369e-06
3.11275113e-06
3.1106263e-06
3.18281435e-06
3.17423563e-06
3.04241513e-06
3.03802727e-06
3.03565231e-06
3.0270936e-06
3.00398472e-06
3.01238162e-06
3.0303848e-06
3.01542148e-06
2.99580995e-06
2.9994714e-06
3.02376073e-06
3.05188572e-06
2.81685222e-06
2.79779614e-06
2.81344828e-06
2.79978913e-06
2.78367691e-06
2.78532176e-06
2.7682411e-06
2.73281409e-06
2.76200637e-06
2.73772037e-06
2.6796873e-06
2.65471863e-06
2.67129888e-06
2.65075483e-06
2.63132498e-06
2.54916569e-06
2.45908123e-06
2.59341398e-06
2.58253434e-06
2.53630904e-06
2.55257655e-06
2.52989457e-06
2.3775029e-06
2.35944496e-06
2.36562881e-06
2.34735231e-06
2.31378945e-06
2.31000231e-06
2.32383805e-06
2.31194533e-06
2.31190537e-06
2.27065614e-06
2.10331166e-06
2.09976071e-06
2.06376293e-06
2.03885911e-06
2.01165355e-06
1.98839782e-06
1.98330458e-06
2.00697966e-06
1.99191325e-06
1.88901889e-06
1.86241029e-06
1.89178e-06
1.8741377e-06
1.83631325e-06
1.80143536e-06
1.84551657e-06
1.84452088e-06
1.70809292e-06
1.69268424e-06
1.69632823e-06
1.67966225e-06
1.67998052e-06
1.6645345e-06
1.64745706e-06
1.69969186e-06
1.72263643e-06
1.58977194e-06
1.59497558e-06
1.61943662e-06
1.61119611e-06
1.59314618e-06
1.55761823e-06
1.55700344e-06
1.55994846e-06
1.58396775e-06
1.49005839e-06
1.51436324e-06
1.6644754e-06
1.68278621e-06
1.70681372e-06
1.6627778e-06
1.64981136e-06
1.87479854e-06
1.89122262e-06
1.89522023e-06
1.90297698e-06
1.91059939e-06
1.85518607e-06
1.86518287e-06
1.8817465e-06
1.8896087e-06
1.88842471e-06
1.9097084e-06
1.94085551e-06
1.94537117e-06
1.94911483e-06
1.98961911e-06
2.00446847e-06
2.00535781e-06
2.01497945e-06
1.99411896e-06
1.95301721e-06
2.03804284e-06
2.04883065e-06
2.06734173e-06
2.0698334e-06
2.07080453e-06
2.10007362e-06
2.10832824e-06
2.11377695e-06
2.11643704e-06
2.10587906e-06
2.12836295e-06
2.12977681e-06
2.12808508e-06
2.08895225e-06
2.0521705e-06
2.11894202e-06
2.12019469e-06
2.1152165e-06
2.11590298e-06
2.11094201e-06
2.12358885e-06
2.10981626e-06
2.13533595e-06
2.12757579e-06
2.13179834e-06
2.12505618e-06
2.10743449e-06
2.11107302e-06
2.12131046e-06
2.10800281e-06
2.08462616e-06
2.11003847e-06
2.10083265e-06
2.07557441e-06
2.06133857e-06
2.13386842e-06
2.14224361e-06
1.9720618e-06
1.95628628e-06
1.96175463e-06
1.93996885e-06
1.92189058e-06
1.89590839e-06
1.84284489e-06
1.85033023e-06
1.79818368e-06
1.7681929e-06
1.92025349e-06
1.87608459e-06
1.74165401e-06
1.65465103e-06
1.65892676e-06
1.6127852e-06
1.47048591e-06
1.41872529e-06
1.45017944e-06
1.39840966e-06
1.34367295e-06
1.28342453e-06
1.21651259e-06
1.13995264e-06
1.15304854e-06
1.10218447e-06
1.04616531e-06
1.00058927e-06
9.2901846e-07
8.89801959e-07
8.2338522e-07
7.88167484e-07
8.81679762e-07
8.67401016e-07
8.43068518e-07
8.00689013e-07
8.31467408e-07
9.0019109e-07
9.10814012e-07
9.29468372e-07
9.45311413e-07
9.5296432e-07
9.60190536e-07
1.05644591e-06
1.08295535e-06
1.09654634e-06
1.11291386e-06
1.22406576e-06
1.27522154e-06
1.28178799e-06
1.32768146e-06
1.35975198e-06
1.38858778e-06
1.42200932e-06
1.46632607e-06
1.48154807e-06
1.4641708e-06
1.52458356e-06
1.52960441e-06
1.51867898e-06
1.50072015e-06
1.46691728e-06
1.43227692e-06
1.41641713e-06
1.37014558e-06
1.23436933e-06
1.15222471e-06
1.10939228e-06
1.0198868e-06
8.11935411e-07
6.96433039e-07
6.36585969e-07
5.12080016e-07
3.64174525e-07
1.45870546e-07
-1.27762283e-08
-4.94545565e-08
-1.70960614e-07
-3.32119114e-07
-4.8661428e-07
-5.10840533e-07
-5.26766972e-07
-6.14080708e-07
-8.48256903e-07
-8.31399261e-07
-7.89314795e-07
-8.17508028e-07
-8.34525248e-07
-8.58236649e-07
-8.07257373e-07
-6.0814224e-07
-4.98636417e-07
-4.12952048e-07
-2.94259504e-07
-1.20552321e-07
3.94412292e-09
6.67679138e-09
1.24091541e-07
2.95255566e-07
4.43513406e-07
4.96870399e-07
5.99015501e-07
7.39490905e-07
8.61975583e-07
1.03406839e-06
1.12709023e-06
1.2258482e-06
1.29054801e-06
1.41439328e-06
1.54918433e-06
1.57960597e-06
1.65332106e-06
1.74920447e-06
1.8998347e-06
1.99275473e-06
2.08874588e-06
2.19938945e-06
2.19216447e-06
2.20860267e-06
2.27564188e-06
2.39108054e-06
2.46856971e-06
2.5567454e-06
2.50205774e-06
2.46333054e-06
2.48871124e-06
2.51555764e-06
2.5198546e-06
2.56378022e-06
2.56343034e-06
2.56865562e-06
2.54962799e-06
2.53703101e-06
2.52416192e-06
2.36377733e-06
2.28518701e-06
2.24535003e-06
2.21855046e-06
2.18525583e-06
2.1355405e-06
2.08455862e-06
2.0018852e-06
1.97837137e-06
1.97398802e-06
1.98235021e-06
1.90155335e-06
1.87414109e-06
1.86700118e-06
1.87684387e-06
1.87995697e-06
1.88790664e-06
1.90353939e-06
1.92022374e-06
1.92704711e-06
2.00606012e-06
2.0221925e-06
1.97333685e-06
1.95664919e-06
1.95128765e-06
1.94131004e-06
1.93586217e-06
2.00345551e-06
2.00669506e-06
1.95782244e-06
1.93789026e-06
1.94036098e-06
1.90598899e-06
1.86614963e-06
1.82965843e-06
1.79123272e-06
1.75436198e-06
1.71595019e-06
1.68795541e-06
1.6559851e-06
1.63042345e-06
1.59469011e-06
1.57796837e-06
1.55036391e-06
1.53353098e-06
1.50397011e-06
1.48985131e-06
1.50377676e-06
1.50474193e-06
1.54644186e-06
1.54348644e-06
1.53628145e-06
1.51683969e-06
1.52652009e-06
1.54069324e-06
1.54970869e-06
1.53924695e-06
1.54281653e-06
1.60570256e-06
1.61343946e-06
1.62129993e-06
1.59328862e-06
1.60237899e-06
1.61101504e-06
1.61719025e-06
1.60029321e-06
1.60247285e-06
1.61094198e-06
1.61627515e-06
1.61227454e-06
1.60952433e-06
1.60732557e-06
1.61114336e-06
1.61442974e-06
1.61007757e-06
1.6150817e-06
1.62114256e-06
1.62940011e-06
1.63892455e-06
1.65008498e-06
1.66260858e-06
1.6755034e-06
1.68813411e-06
1.69923482e-06
1.70909678e-06
1.71529426e-06
1.71914791e-06
1.71926433e-06
1.71663284e-06
1.71371947e-06
1.71162064e-06
1.71053094e-06
1.71475e-06
1.70661209e-06
1.70383717e-06
1.70681804e-06
1.71662049e-06
1.7358801e-06
1.76912745e-06
1.81231491e-06
1.87436365e-06
1.95020595e-06
2.04858403e-06
2.16537316e-06
2.30842387e-06
2.47669511e-06
2.66893856e-06
2.88304093e-06
3.1179044e-06
3.36071594e-06
3.60958192e-06
3.84238937e-06
4.08418642e-06
4.2794449e-06
4.45494385e-06
4.57794475e-06
4.67106823e-06
4.72050901e-06
4.49936905e-06
4.55827035e-06
4.57328533e-06
4.59818247e-06
4.60414822e-06
4.61586257e-06
4.64865006e-06
4.70875783e-06
4.8117251e-06
4.94693535e-06
5.08718791e-06
5.19341839e-06
5.27052656e-06
5.32947365e-06
5.39563062e-06
5.42810694e-06
5.45828008e-06
5.07229529e-06
5.11894846e-06
5.19593384e-06
5.07320917e-06
4.22661811e-06
4.19858531e-06
4.14676905e-06
4.1003261e-06
4.04956324e-06
3.98700754e-06
3.90112227e-06
3.82933575e-06
3.65595616e-06
3.65465088e-06
3.41458353e-06
3.41103638e-06
3.33241165e-06
3.30097416e-06
3.254382e-06
3.23499283e-06
3.20148482e-06
3.17032706e-06
3.13163397e-06
3.09512558e-06
3.05419323e-06
3.01338781e-06
2.97434747e-06
2.936034e-06
2.90067936e-06
2.87082464e-06
2.84212293e-06
2.81640623e-06
2.79156606e-06
2.76908337e-06
2.74767765e-06
2.7282768e-06
2.71136228e-06
2.69575835e-06
2.68446414e-06
2.67235982e-06
2.66736044e-06
2.66157967e-06
2.66169935e-06
2.66251091e-06
2.66790362e-06
2.67546904e-06
2.68595621e-06
2.69969342e-06
2.71539837e-06
2.7358895e-06
2.75796749e-06
2.78243796e-06
2.80771883e-06
2.83434966e-06
2.86107337e-06
2.88815662e-06
2.91405517e-06
2.93938536e-06
2.96322904e-06
2.98575314e-06
3.00666219e-06
3.02582627e-06
3.04237785e-06
3.05707129e-06
3.06973701e-06
3.08041798e-06
3.08901311e-06
3.09569661e-06
3.10038486e-06
3.1032256e-06
3.10425141e-06
3.10381232e-06
3.10177177e-06
3.09828249e-06
3.09338697e-06
3.08724171e-06
3.07960778e-06
3.07057238e-06
3.06058835e-06
3.04976368e-06
3.03811783e-06
3.02574054e-06
3.01288673e-06
2.99936798e-06
2.98519446e-06
2.97044049e-06
2.95512991e-06
2.93932968e-06
2.92305992e-06
2.90639964e-06
2.88937553e-06
2.87203602e-06
2.85440526e-06
2.8365518e-06
2.8185133e-06
2.80035167e-06
2.78211299e-06
2.76385215e-06
2.74562478e-06
2.72755814e-06
2.70962277e-06
2.69186502e-06
2.67432701e-06
2.65705502e-06
2.64008084e-06
2.62339063e-06
2.60706504e-06
2.59113432e-06
2.57560877e-06
2.56050261e-06
2.54582154e-06
2.53158848e-06
)
;

boundaryField
{
    closed
    {
        type            calculated;
        value           nonuniform List<scalar> 0();
    }
    open
    {
        type            calculated;
        value           nonuniform List<scalar> 0();
    }
    sides
    {
        type            empty;
        value           nonuniform List<scalar> 0();
    }
    procBoundary4to3
    {
        type            processor;
        value           uniform -3.07300282e-06;
    }
    procBoundary4to5
    {
        type            processor;
        value           uniform 2.51777232e-06;
    }
}


// ************************************************************************* //
