/*--------------------------------*- C++ -*----------------------------------*\
| =========                 |                                                 |
| \\      /  F ield         | OpenFOAM: The Open Source CFD Toolbox           |
|  \\    /   O peration     | Version:  2306                                  |
|   \\  /    A nd           | Website:  www.openfoam.com                      |
|    \\/     M anipulation  |                                                 |
\*---------------------------------------------------------------------------*/
FoamFile
{
    version     2.0;
    format      ascii;
    arch        "LSB;label=32;scalar=64";
    class       volScalarField;
    location    "0.00134";
    object      alpha;
}
// * * * * * * * * * * * * * * * * * * * * * * * * * * * * * * * * * * * * * //

dimensions      [1 -1 -1 0 0 0 0];

internalField   nonuniform List<scalar> 
530
(
7.6440599e-05
7.65932565e-05
7.65560953e-05
7.65464748e-05
7.66075706e-05
7.66933631e-05
7.67028309e-05
7.66869523e-05
7.67572037e-05
7.67874805e-05
7.68069632e-05
7.67992297e-05
7.68879913e-05
7.68845298e-05
7.69192999e-05
7.69200942e-05
7.7004793e-05
7.69811721e-05
7.70338902e-05
7.70286789e-05
7.71189475e-05
7.70775253e-05
7.71417572e-05
7.71362714e-05
7.72239753e-05
7.71747201e-05
7.72520561e-05
7.72423021e-05
7.73239018e-05
7.72757451e-05
7.73569581e-05
7.73466551e-05
7.74216649e-05
7.73750176e-05
7.74644078e-05
7.74516813e-05
7.75173702e-05
7.74725284e-05
7.75548046e-05
7.75540276e-05
7.7610585e-05
7.75698681e-05
7.76433552e-05
7.76522799e-05
7.7701393e-05
7.76653091e-05
7.77340192e-05
7.77465277e-05
7.77924247e-05
7.77599425e-05
7.78267585e-05
7.78338394e-05
7.78689581e-05
7.78535385e-05
7.7912936e-05
7.7912224e-05
7.79451656e-05
7.79319709e-05
7.79867774e-05
7.79865422e-05
7.80205781e-05
7.80091857e-05
7.80595935e-05
7.80593276e-05
7.80953445e-05
7.80859581e-05
7.81335839e-05
7.81321392e-05
7.81695657e-05
7.81628366e-05
7.82114636e-05
7.82052396e-05
7.82434219e-05
7.82387579e-05
7.82846138e-05
7.82789322e-05
7.83169939e-05
7.83149051e-05
7.83602369e-05
7.83535295e-05
7.83900467e-05
7.83909391e-05
7.84370253e-05
7.84333771e-05
7.8471131e-05
7.84698162e-05
7.85145084e-05
7.85143478e-05
7.85514918e-05
7.85507968e-05
7.85892347e-05
7.85951737e-05
7.863273e-05
7.86317929e-05
7.86689556e-05
7.86754478e-05
7.87136794e-05
7.8713493e-05
7.8750483e-05
7.87562781e-05
7.87958117e-05
7.87954676e-05
7.88332244e-05
7.88381045e-05
7.88786294e-05
7.88778112e-05
7.89188883e-05
7.89210011e-05
7.89623653e-05
7.89621599e-05
7.90077633e-05
7.90058546e-05
7.90465241e-05
7.90462879e-05
7.90925052e-05
7.90920988e-05
7.91312342e-05
7.91320505e-05
7.91770858e-05
7.91784554e-05
7.92183024e-05
7.92177346e-05
7.92574049e-05
7.9265266e-05
7.93053193e-05
7.93053269e-05
7.93430918e-05
7.93545116e-05
7.93937166e-05
7.93939901e-05
7.94303264e-05
7.94446128e-05
7.94830764e-05
7.94838921e-05
7.95190817e-05
7.95356488e-05
7.95731936e-05
7.95747399e-05
7.96119875e-05
7.96271229e-05
7.96651578e-05
7.96665428e-05
7.97096406e-05
7.97220733e-05
7.97617236e-05
7.97615384e-05
7.98094798e-05
7.98199742e-05
7.9858915e-05
7.98588427e-05
7.99096192e-05
7.99198784e-05
7.99570338e-05
7.99567423e-05
8.00117961e-05
8.00206126e-05
8.00559766e-05
8.00552936e-05
8.01144427e-05
8.01215674e-05
8.01555511e-05
8.01543263e-05
8.02173289e-05
8.02235881e-05
8.0255557e-05
8.02548464e-05
8.03230472e-05
8.03260832e-05
8.03555521e-05
8.0353941e-05
8.04184211e-05
8.04243224e-05
8.04491995e-05
8.04506276e-05
8.05100579e-05
8.05144727e-05
8.05410136e-05
8.05413166e-05
8.05955678e-05
8.06028346e-05
8.06318045e-05
8.06325203e-05
8.06838534e-05
8.06915411e-05
8.07219697e-05
8.07233169e-05
8.07714942e-05
8.07795609e-05
8.08111344e-05
8.08133058e-05
8.08577442e-05
8.08675519e-05
8.08990081e-05
8.09024935e-05
8.09419871e-05
8.0954891e-05
8.09852776e-05
8.09903856e-05
8.10236996e-05
8.10405905e-05
8.10699415e-05
8.10771736e-05
8.11065461e-05
8.11250393e-05
8.11554464e-05
8.11624226e-05
8.11900182e-05
8.12108288e-05
8.12414953e-05
8.12488149e-05
8.1274286e-05
8.12960933e-05
8.13260911e-05
8.13336871e-05
8.13587715e-05
8.13802509e-05
8.14090237e-05
8.14167627e-05
8.14429922e-05
8.14627611e-05
8.14903191e-05
8.14981384e-05
8.15265355e-05
8.15438495e-05
8.1570103e-05
8.15777153e-05
8.16073666e-05
8.16233538e-05
8.16481804e-05
8.16555062e-05
8.16856795e-05
8.17011449e-05
8.17246122e-05
8.17315026e-05
8.17611842e-05
8.17767602e-05
8.1799045e-05
8.18055471e-05
8.18332909e-05
8.18496515e-05
8.1871352e-05
8.18776957e-05
8.19009293e-05
8.19202825e-05
8.19413661e-05
8.19477747e-05
8.19630436e-05
8.19847167e-05
8.20078254e-05
8.20164164e-05
8.20224404e-05
8.20509468e-05
8.20733787e-05
8.20824781e-05
8.20835471e-05
8.2116538e-05
8.21373782e-05
8.21469361e-05
8.2146965e-05
8.21803439e-05
8.21997751e-05
8.22102723e-05
8.22113138e-05
8.22417675e-05
8.22604662e-05
8.22722862e-05
8.22766707e-05
8.23017536e-05
8.23193562e-05
8.23314739e-05
8.23438712e-05
8.23647358e-05
8.23770729e-05
8.23898233e-05
8.24099018e-05
8.24228839e-05
8.24320984e-05
8.24460418e-05
8.24708789e-05
8.2479264e-05
8.2487586e-05
8.25004784e-05
8.25264386e-05
8.25337064e-05
8.25406471e-05
8.25527963e-05
8.25786876e-05
8.25860372e-05
8.25912205e-05
8.26030402e-05
8.26284673e-05
8.26344075e-05
8.26394742e-05
8.26513539e-05
8.26761725e-05
8.2680361e-05
8.26855976e-05
8.26977385e-05
8.27220286e-05
8.27247603e-05
8.27298187e-05
8.2742491e-05
8.27663069e-05
8.27677551e-05
8.2771626e-05
8.27871127e-05
8.28073603e-05
8.2808687e-05
8.28104396e-05
8.28271748e-05
8.28433297e-05
8.28475844e-05
8.28490258e-05
8.28655419e-05
8.28794649e-05
8.28839159e-05
8.28860912e-05
8.2901327e-05
8.29144555e-05
8.29184367e-05
8.29222192e-05
8.2935367e-05
8.29483204e-05
8.29514018e-05
8.29565119e-05
8.2968123e-05
8.29802955e-05
8.29829464e-05
8.29884746e-05
8.29994929e-05
8.30103964e-05
8.30130518e-05
8.30184253e-05
8.30291233e-05
8.30388226e-05
8.30416077e-05
8.30467716e-05
8.30570478e-05
8.30657778e-05
8.30685813e-05
8.30736043e-05
8.30833397e-05
8.30912939e-05
8.30940132e-05
8.30989185e-05
8.31080716e-05
8.31153547e-05
8.31179413e-05
8.31227281e-05
8.31312836e-05
8.31379729e-05
8.31403801e-05
8.31450934e-05
8.315303e-05
8.31591989e-05
8.31614149e-05
8.31660493e-05
8.31733929e-05
8.31790722e-05
8.31811163e-05
8.31856225e-05
8.31924331e-05
8.3197629e-05
8.31995344e-05
8.32038613e-05
8.32102014e-05
8.32149205e-05
8.32167167e-05
8.32208277e-05
8.32267471e-05
8.32310097e-05
8.32327101e-05
8.32365921e-05
8.32421158e-05
8.32459674e-05
8.32475597e-05
8.32512334e-05
8.32563492e-05
8.32598672e-05
8.32613129e-05
8.32648254e-05
8.32695057e-05
8.32727696e-05
8.32740308e-05
8.32774193e-05
8.32816498e-05
8.32847239e-05
8.32857711e-05
8.32890691e-05
8.32928406e-05
8.32957797e-05
8.32966031e-05
8.32998241e-05
8.33031719e-05
8.33059811e-05
8.33066483e-05
8.3309744e-05
8.33127169e-05
8.33153837e-05
8.33159046e-05
8.33188145e-05
8.33216668e-05
8.33242211e-05
8.33243716e-05
8.33270735e-05
8.33296693e-05
8.33319808e-05
8.33321342e-05
8.33345637e-05
8.33368574e-05
8.33387652e-05
8.3339225e-05
8.33413365e-05
8.33436221e-05
8.33451044e-05
8.33457227e-05
8.33474547e-05
8.33498092e-05
8.33508981e-05
8.33516721e-05
8.33530621e-05
8.33554132e-05
8.33562087e-05
8.33570556e-05
8.33582099e-05
8.33604644e-05
8.33610866e-05
8.33619151e-05
8.33629307e-05
8.33650114e-05
8.33655555e-05
8.33662979e-05
8.33672424e-05
8.33691083e-05
8.33696302e-05
8.33702521e-05
8.33711597e-05
8.33728001e-05
8.3373332e-05
8.33738224e-05
8.3374709e-05
8.33761262e-05
8.33766969e-05
8.33770634e-05
8.33779178e-05
8.33791365e-05
8.33799236e-05
8.33802008e-05
8.33809769e-05
8.33820078e-05
8.33836981e-05
8.33838269e-05
8.33839116e-05
8.33849905e-05
8.33879008e-05
8.33886163e-05
8.33878904e-05
8.33887788e-05
8.33894631e-05
8.33903602e-05
8.33907133e-05
8.33916407e-05
8.33920802e-05
8.33929963e-05
8.33934601e-05
8.33943907e-05
8.33948417e-05
8.33957567e-05
8.33961897e-05
8.3397059e-05
8.33974675e-05
8.33982573e-05
8.33986366e-05
8.33993136e-05
8.33996586e-05
8.34001973e-05
8.34005001e-05
8.34008899e-05
8.34011393e-05
8.34013887e-05
8.34015735e-05
8.34017077e-05
8.34018237e-05
8.34018761e-05
8.34019315e-05
8.34019359e-05
8.340195e-05
8.34019353e-05
8.34019308e-05
8.34019182e-05
8.34018595e-05
8.34017753e-05
8.34017268e-05
8.34016817e-05
8.34016564e-05
8.34016404e-05
8.34016318e-05
8.34016273e-05
8.34016251e-05
8.34016242e-05
8.34016238e-05
8.34016237e-05
8.34016236e-05
8.34016236e-05
8.34016236e-05
8.34016236e-05
8.34016236e-05
8.34016236e-05
8.34016236e-05
8.34016236e-05
8.34016236e-05
8.34016236e-05
8.34016236e-05
8.34016236e-05
8.34016236e-05
8.34016236e-05
8.34016236e-05
8.34016236e-05
8.34016236e-05
8.34016236e-05
8.34016236e-05
8.34016236e-05
8.34016236e-05
8.34016236e-05
8.34016236e-05
8.34016236e-05
8.34016236e-05
8.34016236e-05
8.34016236e-05
8.34016236e-05
)
;

boundaryField
{
    closed
    {
        type            calculated;
        value           nonuniform List<scalar> 0();
    }
    open
    {
        type            calculated;
        value           uniform 8.34016236e-05;
    }
    sides
    {
        type            empty;
    }
    procBoundary5to4
    {
        type            processor;
        value           uniform 7.63900425e-05;
    }
}


// ************************************************************************* //
