/*--------------------------------*- C++ -*----------------------------------*\
| =========                 |                                                 |
| \\      /  F ield         | OpenFOAM: The Open Source CFD Toolbox           |
|  \\    /   O peration     | Version:  2306                                  |
|   \\  /    A nd           | Website:  www.openfoam.com                      |
|    \\/     M anipulation  |                                                 |
\*---------------------------------------------------------------------------*/
FoamFile
{
    version     2.0;
    format      ascii;
    arch        "LSB;label=32;scalar=64";
    class       volScalarField;
    location    "0.00134";
    object      H;
}
// * * * * * * * * * * * * * * * * * * * * * * * * * * * * * * * * * * * * * //

dimensions      [0 0 0 0 0 0 0];

internalField   nonuniform List<scalar> 
530
(
1.24494095e-05
1.67604037e-05
2.92893234e-10
2.91617157e-10
1.27009385e-05
1.38748707e-05
3.17212229e-10
3.14750013e-10
1.29758294e-05
1.10753091e-05
3.34742803e-10
3.33502389e-10
1.3402448e-05
9.21395448e-06
3.53737367e-10
3.53846284e-10
1.31579388e-05
8.17514692e-06
3.75147985e-10
3.7431066e-10
1.22624012e-05
7.71463328e-06
4.00417773e-10
3.9938149e-10
1.1481755e-05
7.27532353e-06
4.26290082e-10
4.24212267e-10
1.07734603e-05
6.79492654e-06
4.5099521e-10
4.48718443e-10
1.03288951e-05
6.24466229e-06
5.98261189e-09
4.73378002e-10
9.76387619e-06
5.96073472e-06
5.63150386e-08
4.97383294e-10
9.20995274e-06
5.7367e-06
1.03095491e-07
5.22363993e-10
8.60203118e-06
5.62014302e-06
9.53481324e-08
5.52929925e-10
7.98510702e-06
5.64092654e-06
5.43928568e-08
5.81200387e-10
7.60899943e-06
5.65412912e-06
6.06657243e-10
6.06492853e-10
7.24022553e-06
5.73663472e-06
6.3030169e-10
6.30245726e-10
7.02471446e-06
5.73614702e-06
6.53294397e-10
6.53207311e-10
6.83734188e-06
5.67166274e-06
6.76344156e-10
6.7586081e-10
6.66559702e-06
5.48516212e-06
7.02904097e-10
7.00588719e-10
6.49931229e-06
5.37444769e-06
7.34583834e-10
7.3243926e-10
6.36643995e-06
5.20422085e-06
7.66875339e-10
7.64253064e-10
6.40165615e-06
5.02542502e-06
7.99274912e-10
7.97835431e-10
6.2985654e-06
4.81329923e-06
8.31614108e-10
8.31558419e-10
6.26087708e-06
4.72223738e-06
8.62476095e-10
8.64925427e-10
6.05161532e-06
4.64886631e-06
8.9511167e-10
8.97788133e-10
5.85248137e-06
4.5505207e-06
9.28853135e-10
9.32053074e-10
5.67554133e-06
4.46935124e-06
9.75063392e-10
9.77766086e-10
5.47181878e-06
4.37942995e-06
1.02253734e-09
1.02374013e-09
5.26141555e-06
4.19734923e-06
1.07152343e-09
1.07052071e-09
5.11791736e-06
4.03858656e-06
1.11810184e-09
1.11786612e-09
5.07059012e-06
3.90815793e-06
1.16442593e-09
1.16513205e-09
4.92155137e-06
3.90471942e-06
1.20819646e-09
1.21255163e-09
4.86712422e-06
3.76192447e-06
1.25537008e-09
1.26346213e-09
4.79690352e-06
3.61609762e-06
1.31932163e-09
1.32949667e-09
4.71306002e-06
3.47977218e-06
1.38427637e-09
1.39620012e-09
4.60296164e-06
3.36259443e-06
1.45226079e-09
1.46328666e-09
4.49974461e-06
3.26148786e-06
1.52389514e-09
1.53307349e-09
4.32924943e-06
3.14296252e-06
1.59747667e-09
1.60532359e-09
4.16435468e-06
3.04441818e-06
1.6717238e-09
1.67948759e-09
3.97720373e-06
2.94916329e-06
1.7545034e-09
1.76292977e-09
3.78464676e-06
2.86664848e-06
1.8548753e-09
1.86179614e-09
3.58896773e-06
2.77883446e-06
1.95620263e-09
1.96236358e-09
3.41787624e-06
2.61831433e-06
2.06113946e-09
2.06418719e-09
3.28055546e-06
2.53973626e-06
2.15668129e-09
2.16261754e-09
3.18032214e-06
2.48641632e-06
2.2491836e-09
2.25365551e-09
3.10126024e-06
2.5490974e-06
2.33607585e-09
2.34355774e-09
3.06718595e-06
2.52843785e-06
2.43157059e-09
2.4414685e-09
3.02367214e-06
2.487158e-06
2.54733775e-09
2.55784716e-09
2.98402131e-06
2.42812771e-06
2.66213546e-09
2.67505219e-09
2.95703758e-06
2.35329388e-06
2.77517917e-09
2.79236582e-09
2.9441916e-06
2.26613457e-06
2.88575792e-09
2.90852813e-09
2.95484504e-06
2.17345204e-06
2.99883627e-09
3.02408731e-09
2.94651137e-06
2.1049871e-06
3.11384401e-09
3.14265535e-09
2.89880552e-06
2.01859039e-06
3.2311358e-09
3.26176517e-09
2.82669773e-06
1.93787479e-06
3.35002812e-09
3.38063844e-09
2.72803596e-06
1.86390393e-06
3.48720959e-09
3.52139778e-09
2.61124174e-06
1.79120543e-06
3.63668097e-09
3.66706917e-09
2.48899658e-06
1.71897951e-06
3.78286688e-09
3.81134e-09
2.37054625e-06
1.64931504e-06
3.92604575e-09
3.95396548e-09
2.27677122e-06
1.58795854e-06
4.06558111e-09
4.09405551e-09
2.21575083e-06
1.5427014e-06
4.20370307e-09
4.2403519e-09
2.19466265e-06
1.51658345e-06
4.34737747e-09
4.39154834e-09
2.20164404e-06
1.50621611e-06
4.48080845e-09
4.53120644e-09
2.26736717e-06
1.43480423e-06
4.61033006e-09
4.6775154e-09
2.27229428e-06
1.37505027e-06
4.74609299e-09
4.82507552e-09
2.22064008e-06
1.28055107e-06
4.88990607e-09
4.97099547e-09
2.12161912e-06
1.22976479e-06
5.04757449e-09
5.13369884e-09
1.98291343e-06
1.20254795e-06
5.23011895e-09
5.30209798e-09
1.80011344e-06
1.18562382e-06
5.4210731e-09
5.48175774e-09
1.56192471e-06
1.14892788e-06
5.61186244e-09
5.64997826e-09
1.35591666e-06
1.11268363e-06
5.79064934e-09
5.81537034e-09
1.28686514e-06
1.0712037e-06
5.95568562e-09
5.97722765e-09
1.23009146e-06
1.0313729e-06
6.11283637e-09
6.13480747e-09
1.18016958e-06
9.91677857e-07
6.26441707e-09
6.28219387e-09
1.13441261e-06
9.50764145e-07
6.41143773e-09
6.42381008e-09
1.0914744e-06
9.13247906e-07
6.55441408e-09
6.56221942e-09
1.05022159e-06
8.713299e-07
6.69402421e-09
6.69774293e-09
1.02247139e-06
8.07238482e-07
6.82487823e-09
6.82811063e-09
1.00353552e-06
7.73543115e-07
6.94051569e-09
6.95333459e-09
9.63016683e-07
7.38515834e-07
7.05778801e-09
7.0714253e-09
9.18222344e-07
7.11776914e-07
7.17241621e-09
7.18470506e-09
8.62689866e-07
6.85313194e-07
7.28439825e-09
7.29384375e-09
8.09355551e-07
6.53463287e-07
7.39110553e-09
7.39917738e-09
7.64332919e-07
6.17461691e-07
7.49242175e-09
7.50057685e-09
7.23701231e-07
5.82050327e-07
7.58886635e-09
7.59756227e-09
6.83960924e-07
5.47828588e-07
7.68103649e-09
7.68990234e-09
6.44370467e-07
5.15307297e-07
7.76894622e-09
7.77762228e-09
6.05634472e-07
4.84351768e-07
7.85244842e-09
7.8607524e-09
5.68240666e-07
4.54979898e-07
7.9380721e-09
7.94777926e-09
5.32242494e-07
4.27148415e-07
8.02346859e-09
8.03244587e-09
4.9780007e-07
4.00606238e-07
8.10380295e-09
8.1121202e-09
4.65235839e-07
3.75201996e-07
8.17914911e-09
8.18693406e-09
4.34703569e-07
3.50938598e-07
8.24964829e-09
8.25701497e-09
4.06131509e-07
3.27914547e-07
8.31549786e-09
8.32249656e-09
3.79267118e-07
3.06291136e-07
8.37693408e-09
8.38350986e-09
3.53762702e-07
2.86196398e-07
8.43421347e-09
8.44020336e-09
3.29376353e-07
2.6758391e-07
8.48754436e-09
8.49278664e-09
3.06071864e-07
2.5031893e-07
8.53709518e-09
8.54146149e-09
2.8386187e-07
2.34230664e-07
8.58303901e-09
8.58648355e-09
2.62793723e-07
2.18801049e-07
8.62553248e-09
8.62833226e-09
2.42731871e-07
2.0374098e-07
8.66478236e-09
8.66697495e-09
2.244657e-07
1.87252819e-07
8.70174662e-09
8.70238986e-09
2.08142204e-07
1.7422902e-07
8.73425755e-09
8.73491335e-09
1.93807052e-07
1.63608382e-07
8.76272114e-09
8.76466734e-09
1.81301199e-07
1.51094053e-07
8.78935273e-09
8.79196941e-09
1.70276195e-07
1.39110052e-07
8.81372001e-09
8.81699773e-09
1.59500685e-07
1.28228955e-07
8.83607883e-09
8.83966788e-09
1.48671393e-07
1.18592058e-07
8.85663448e-09
8.86014881e-09
1.37798371e-07
1.10023605e-07
8.87548085e-09
8.87863355e-09
1.27097296e-07
1.02257614e-07
8.89267581e-09
8.8953204e-09
1.16787904e-07
9.51101796e-08
8.90830521e-09
8.91039336e-09
1.06917661e-07
8.84395948e-08
8.92251835e-09
8.92408022e-09
9.7440132e-08
8.19442158e-08
8.93615528e-09
8.93733669e-09
8.58571109e-08
7.34040638e-08
8.95213223e-09
8.95267915e-09
7.16204457e-08
5.94533211e-08
2.87275389e-08
2.2611182e-08
4.38936825e-08
3.6358507e-08
3.73437432e-08
3.06191326e-08
3.637077e-08
2.99112714e-08
3.42828202e-08
2.82053368e-08
3.23534718e-08
2.64118882e-08
3.01561594e-08
2.46629884e-08
2.77485373e-08
2.29697001e-08
2.51818166e-08
2.13420154e-08
2.25430993e-08
1.97708582e-08
1.99555342e-08
1.82307967e-08
1.75575427e-08
1.66963555e-08
1.54670736e-08
1.51642108e-08
1.37416747e-08
1.36692108e-08
1.23594532e-08
1.22767033e-08
1.12442948e-08
1.10486745e-08
1.03188806e-08
1.00124009e-08
9.53215208e-09
9.17297207e-09
9.02845625e-09
9.02809194e-09
9.0278825e-09
9.02768757e-09
9.0275788e-09
9.02750994e-09
9.02747285e-09
9.0274535e-09
9.02744434e-09
9.0274403e-09
9.02743866e-09
9.02743805e-09
9.02743784e-09
9.02743778e-09
9.02743775e-09
9.02743775e-09
9.02743775e-09
9.02743774e-09
9.02743774e-09
9.02743774e-09
9.02743774e-09
9.02743774e-09
9.02743774e-09
9.02743774e-09
9.02743774e-09
9.02743774e-09
9.02743774e-09
9.02743774e-09
9.02743774e-09
9.02743774e-09
9.02743774e-09
9.02743774e-09
9.02743774e-09
9.02743774e-09
9.02743774e-09
9.02743774e-09
9.02743774e-09
9.02743774e-09
9.02743774e-09
9.02743774e-09
)
;

boundaryField
{
    closed
    {
        type            calculated;
        value           nonuniform List<scalar> 0();
    }
    open
    {
        type            calculated;
        value           uniform 9.02743774e-09;
    }
    sides
    {
        type            empty;
    }
    procBoundary5to4
    {
        type            processor;
        value           uniform 2.6634461e-10;
    }
}


// ************************************************************************* //
