/*--------------------------------*- C++ -*----------------------------------*\
| =========                 |                                                 |
| \\      /  F ield         | OpenFOAM: The Open Source CFD Toolbox           |
|  \\    /   O peration     | Version:  2306                                  |
|   \\  /    A nd           | Website:  www.openfoam.com                      |
|    \\/     M anipulation  |                                                 |
\*---------------------------------------------------------------------------*/
FoamFile
{
    version     2.0;
    format      ascii;
    arch        "LSB;label=32;scalar=64";
    class       volScalarField;
    location    "0.00134";
    object      prefDh_T;
}
// * * * * * * * * * * * * * * * * * * * * * * * * * * * * * * * * * * * * * //

dimensions      [1 1 -3 -1 0 0 0];

internalField   nonuniform List<scalar> 
530
(
0.00784934495
0.00764718543
0.00852345024
0.00851998066
0.00783319817
0.00777797826
0.00851809723
0.00851480975
0.00781636544
0.00790583751
0.00851212735
0.00850924591
0.00779208306
0.00799048624
0.00850575997
0.00850359198
0.00779852605
0.00803506628
0.00849912047
0.00849756882
0.00783472664
0.00805149997
0.00849205964
0.00849086135
0.00786523405
0.00806693859
0.00848495332
0.0084837947
0.00789254032
0.00808398345
0.00847759603
0.0084763536
0.0079068576
0.00810406651
0.0084695145
0.00846873909
0.00792648179
0.00811063552
0.00845657389
0.00846083743
0.00794520858
0.00811397687
0.0084438161
0.00845270273
0.00796630738
0.00811190187
0.00843629182
0.00844440686
0.00798855879
0.00810298044
0.00843176341
0.00843607276
0.00799882131
0.00809457024
0.00842821283
0.00842765304
0.00800870486
0.00808234316
0.00841949041
0.00841910496
0.00801108782
0.00807414932
0.00841089813
0.00841054436
0.00801210779
0.00806909919
0.00840241297
0.00840201708
0.00801240819
0.00807001126
0.00839411327
0.00839355949
0.00801250767
0.00806759339
0.00838577422
0.00838517196
0.00801102471
0.00806839698
0.00837748724
0.00837687805
0.00800128715
0.00806965922
0.00836927369
0.00836867759
0.00799829443
0.00807266106
0.00836116039
0.00836053831
0.00799225883
0.00806950279
0.00835302544
0.00835257297
0.00799458719
0.00806555501
0.00834509408
0.00834468287
0.00799650753
0.00806297956
0.00833735116
0.00833694099
0.00799796637
0.00805963382
0.00832967969
0.00832928045
0.00800105588
0.00805685187
0.0083221623
0.00832177146
0.0080045834
0.00805885689
0.00831487487
0.00831438543
0.00800477615
0.00805978863
0.00830763356
0.00830709768
0.00800015632
0.00805931943
0.00830049153
0.00830001526
0.00800088617
0.00805253037
0.0082933607
0.00829304423
0.00799692702
0.00805293808
0.00828651048
0.00828627957
0.0079938868
0.00805362718
0.00827974869
0.00827959407
0.00799167475
0.00805395171
0.00827317711
0.00827304553
0.00799095183
0.00805344005
0.00826675512
0.00826666182
0.00798991897
0.00805224008
0.00826047349
0.00826038443
0.00799240271
0.00805203775
0.00825438063
0.0082542602
0.00799473019
0.00805172157
0.0082484988
0.00824834578
0.00799829367
0.00805135329
0.00824278121
0.00824258906
0.00800223659
0.00805041901
0.00823717848
0.00823696775
0.00800646735
0.00804994594
0.0082317529
0.00823153627
0.00800962364
0.00805369411
0.00822660367
0.00822629871
0.00801190273
0.00805308122
0.00822165227
0.00822134442
0.00801275309
0.00805136558
0.00821686748
0.00821662371
0.00801266986
0.0080433365
0.00821222511
0.00821208363
0.00801028011
0.00804017285
0.00820789143
0.00820776464
0.00800861982
0.00803838464
0.00820375271
0.00820362839
0.00800695802
0.00803778982
0.00819984302
0.00819972811
0.00800481448
0.00803826383
0.00819615719
0.00819606405
0.00800211606
0.00803963142
0.00819269102
0.00819263352
0.00799832251
0.0080415082
0.00818938889
0.00818940536
0.00799571095
0.0080421923
0.00818627344
0.00818636086
0.00799539547
0.00804404011
0.0081833793
0.00818352223
0.00799656853
0.00804559097
0.00818071301
0.0081808781
0.00799935075
0.00804691934
0.00817823786
0.00817838891
0.00800326704
0.00804832969
0.00817594098
0.00817607839
0.00800761345
0.00804986716
0.00817382964
0.00817395341
0.00801189417
0.00805141143
0.00817186111
0.00817199231
0.00801494999
0.00805264191
0.00817001856
0.00817017906
0.00801635553
0.00805313528
0.00816824573
0.00816838494
0.00801573386
0.00805273009
0.00816643382
0.00816662775
0.0080137733
0.00805161548
0.00816470871
0.00816497669
0.0080088995
0.00805400078
0.00816315535
0.00816348934
0.0080074122
0.00805578332
0.00816177109
0.00816217796
0.00800904607
0.00805955382
0.00816058789
0.00816100134
0.008013263
0.00806187802
0.00815958562
0.00815992728
0.00801962494
0.00806357714
0.0081587518
0.00815900335
0.00802836149
0.00806443509
0.00815807773
0.00815822126
0.00804003482
0.00806693486
0.00815753085
0.00815753353
0.00805014065
0.00806945472
0.00815703441
0.00815694307
0.00805522162
0.00807244977
0.00815657188
0.00815643681
0.00805951663
0.0080753639
0.00815616193
0.00815600343
0.00806331416
0.00807832531
0.008155825
0.00815563886
0.0080668203
0.00808144701
0.00815556396
0.0081553377
0.00807013724
0.00808434725
0.00815537449
0.00815511862
0.00807335565
0.00808763524
0.00815524778
0.00815497033
0.008075542
0.00809270554
0.00815519001
0.00815487705
0.00807709767
0.00809542303
0.00815514437
0.00815486383
0.00808041639
0.0080982717
0.00815515372
0.00815489899
0.0080841024
0.00810051022
0.00815521734
0.00815499127
0.00808865503
0.00810275684
0.00815533826
0.0081551263
0.008093064
0.00810545562
0.00815551292
0.00815530101
0.00809683408
0.00810850926
0.00815572848
0.00815552197
0.00810024006
0.0081115211
0.0081559748
0.00815578376
0.00810360456
0.00811444521
0.00815625363
0.00815607859
0.00810698444
0.00811726388
0.00815656178
0.00815640024
0.00811032276
0.00811998389
0.00815689569
0.00815674448
0.00811357816
0.0081226021
0.00815724474
0.00815710269
0.00811674167
0.00812511895
0.00815760682
0.00815747556
0.00811979873
0.00812754957
0.0081579842
0.00815786161
0.00812272192
0.00812990341
0.00815837359
0.00815825893
0.00812549568
0.00813217834
0.00815877124
0.00815866495
0.00812812256
0.00813436379
0.00815917465
0.00815907636
0.00813062027
0.00813644426
0.00815958194
0.00815949078
0.0081330138
0.00813840792
0.00815999068
0.0081599063
0.00813531976
0.00814025606
0.00816039912
0.0081603202
0.00813753958
0.00814199715
0.00816080556
0.0081607313
0.00813967014
0.00814364358
0.00816120748
0.00816113822
0.00814170603
0.00814523405
0.00816160373
0.00816153915
0.0081436571
0.00814678877
0.008161993
0.00816193254
0.00814545961
0.00814844799
0.00816237499
0.00816231741
0.00814710159
0.0081498277
0.00816274355
0.00816269186
0.00814857889
0.00815100999
0.00816309925
0.00816305479
0.00814990418
0.00815233027
0.00816344624
0.00816340571
0.0081511025
0.00815359808
0.00816378134
0.0081637457
0.00815226873
0.00815476901
0.00816410397
0.00816407369
0.00815342643
0.00815583061
0.00816441463
0.00816438867
0.00815457507
0.00815679634
0.00816471329
0.00816469044
0.00815569772
0.00815768688
0.00816499967
0.00816497911
0.00815677694
0.00815851671
0.00816527339
0.00816525549
0.00815780802
0.00815929658
0.0081655351
0.00816552137
0.00815879141
0.00816004696
0.00816578727
0.00816578033
0.00815991375
0.00816093007
0.00816604228
0.00816604635
0.00816116932
0.00816217006
0.00816466797
0.00816517943
0.00816358781
0.0081642281
0.00816424973
0.00816483523
0.00816448031
0.00816505468
0.00816481333
0.00816536392
0.0081651475
0.00816569527
0.00816551362
0.00816603342
0.00816590488
0.00816637485
0.00816631403
0.00816671467
0.00816673006
0.00816704839
0.00816713816
0.00816737195
0.00816752139
0.00816768089
0.008167864
0.00816796927
0.00816815527
0.00816822922
0.00816839211
0.00816845223
0.00816857817
0.00816863257
0.00816872025
0.00816877029
0.00816882609
0.0081688698
0.00816889096
0.00816889914
0.00816890307
0.00816890633
0.00816890779
0.00816890857
0.00816890888
0.00816890898
0.008168909
0.00816890899
0.00816890898
0.00816890897
0.00816890897
0.00816890897
0.00816890897
0.00816890897
0.00816890897
0.00816890897
0.00816890897
0.00816890897
0.00816890897
0.00816890897
0.00816890897
0.00816890897
0.00816890897
0.00816890897
0.00816890897
0.00816890897
0.00816890897
0.00816890897
0.00816890897
0.00816890897
0.00816890897
0.00816890897
0.00816890897
0.00816890897
0.00816890897
0.00816890897
0.00816890897
0.00816890897
)
;

boundaryField
{
    closed
    {
        type            calculated;
        value           nonuniform List<scalar> 0();
    }
    open
    {
        type            calculated;
        value           uniform 0.00816890897;
    }
    sides
    {
        type            empty;
    }
    procBoundary5to4
    {
        type            processor;
        value           uniform 0.00852483189;
    }
}


// ************************************************************************* //
