/*--------------------------------*- C++ -*----------------------------------*\
| =========                 |                                                 |
| \\      /  F ield         | OpenFOAM: The Open Source CFD Toolbox           |
|  \\    /   O peration     | Version:  2306                                  |
|   \\  /    A nd           | Website:  www.openfoam.com                      |
|    \\/     M anipulation  |                                                 |
\*---------------------------------------------------------------------------*/
FoamFile
{
    version     2.0;
    format      ascii;
    arch        "LSB;label=32;scalar=64";
    class       volScalarField;
    location    "0.00134";
    object      sourcePV;
}
// * * * * * * * * * * * * * * * * * * * * * * * * * * * * * * * * * * * * * //

dimensions      [1 -3 -1 0 0 0 0];

internalField   nonuniform List<scalar> 
530
(
0.24474337
0.337934154
2.08016285e-08
2.08943469e-08
0.243240597
0.264623599
2.12790176e-08
2.13561987e-08
0.242965138
0.201271221
2.16867081e-08
2.17691054e-08
0.246519198
0.164039516
2.21226369e-08
2.21991141e-08
0.236917381
0.142420572
2.25933011e-08
2.26398352e-08
0.214677808
0.132322364
2.312277e-08
2.31563837e-08
0.196170382
0.12355416
2.3659328e-08
2.36827302e-08
0.181451456
0.114257307
2.41933341e-08
2.42202966e-08
0.17156066
0.104027176
0.000102997425
2.4767133e-08
0.159904005
0.098321238
0.00103322026
2.53210693e-08
0.148719673
0.0937015473
0.00187987162
2.59011066e-08
0.136898434
0.0909088719
0.00172218652
2.65589936e-08
0.126017439
0.0903408702
0.000969855818
2.72026568e-08
0.119337657
0.0896789501
2.78042914e-08
2.78300239e-08
0.112863865
0.0902308569
2.84387523e-08
2.84575074e-08
0.108773064
0.0895254167
2.90692664e-08
2.90866592e-08
0.105169488
0.0878766816
2.97025908e-08
2.97193909e-08
0.101858609
0.0844389819
3.03730016e-08
3.03829389e-08
0.0986844063
0.0822289548
3.112487e-08
3.11403622e-08
0.0960484113
0.0792429801
3.18876053e-08
3.19006939e-08
0.0958897157
0.0761707328
3.26549422e-08
3.26787432e-08
0.0937058483
0.0726413765
3.34232626e-08
3.34614013e-08
0.0924885405
0.0708457109
3.41881888e-08
3.42369275e-08
0.0888817709
0.0693227845
3.49617047e-08
3.5009819e-08
0.0854744316
0.0674696778
3.5740387e-08
3.57965359e-08
0.082453797
0.0658784842
3.6675059e-08
3.67263989e-08
0.079115633
0.0641874694
3.76151598e-08
3.76537095e-08
0.075722221
0.0612493994
3.85550745e-08
3.85837914e-08
0.0732624388
0.0586682799
3.94758091e-08
3.95152783e-08
0.0721095333
0.0564847712
4.03907553e-08
4.04337509e-08
0.0696107304
0.0560373802
4.12894616e-08
4.13473396e-08
0.068396203
0.0537315336
4.21966372e-08
4.22828161e-08
0.0669862057
0.0514137813
4.33044148e-08
4.33991074e-08
0.0654153549
0.0492493581
4.44042399e-08
4.45083485e-08
0.0635243867
0.0473634202
4.55131337e-08
4.56044181e-08
0.0617384472
0.0457108836
4.66333588e-08
4.67083296e-08
0.0590765427
0.0438303824
4.77447406e-08
4.78113283e-08
0.056523958
0.0421523211
4.88339338e-08
4.89014645e-08
0.0537256672
0.0405423253
4.99972042e-08
5.00822074e-08
0.0508979534
0.0391234564
5.13602032e-08
5.14343785e-08
0.0480704837
0.0376559618
5.26979887e-08
5.27661205e-08
0.0455871805
0.03525959
5.40156253e-08
5.40715908e-08
0.0435053384
0.0339621077
5.52326216e-08
5.53078833e-08
0.041887637
0.0330075953
5.63990628e-08
5.64566843e-08
0.040563079
0.0335498997
5.75034516e-08
5.75666636e-08
0.0398283035
0.0330305354
5.86487523e-08
5.87366366e-08
0.0389900667
0.0322623745
6.00215283e-08
6.01113343e-08
0.0382161128
0.0312867071
6.13407698e-08
6.14433329e-08
0.037614171
0.0301309716
6.26015502e-08
6.27261499e-08
0.0371994699
0.0288418559
6.38000682e-08
6.39511286e-08
0.0370821655
0.0275039859
6.49752028e-08
6.51258861e-08
0.0367195258
0.0264805613
6.61182127e-08
6.62739231e-08
0.0358779407
0.0252301615
6.72242023e-08
6.73757196e-08
0.0347638638
0.0240737569
6.82863974e-08
6.84279517e-08
0.0333557477
0.0230186907
6.95422814e-08
6.97440981e-08
0.0317564026
0.0219966888
7.09070329e-08
7.10783108e-08
0.0301163489
0.0209969746
7.21905867e-08
7.23451533e-08
0.0285438399
0.02004298
7.34039245e-08
7.35474527e-08
0.0272804903
0.0192007815
7.45482242e-08
7.46837556e-08
0.0264158565
0.0185594154
7.56317857e-08
7.57806547e-08
0.0260269521
0.0181507206
7.66740769e-08
7.68414423e-08
0.0259665139
0.017931961
7.76340622e-08
7.78086944e-08
0.0265512765
0.0170004168
7.85270895e-08
7.87554366e-08
0.026448174
0.0162097578
7.93988633e-08
7.96538632e-08
0.0257162797
0.0150375746
8.02482294e-08
8.05002211e-08
0.0244663644
0.014372726
8.13299909e-08
8.18889076e-08
0.0227891117
0.0139810405
8.29401241e-08
8.33946651e-08
0.0206379155
0.0137153196
8.45102009e-08
8.48941616e-08
0.0178878675
0.0132300018
8.59852352e-08
8.62407842e-08
0.0155184792
0.0127571495
8.73127465e-08
8.74992263e-08
0.0146745418
0.0122315251
8.84980936e-08
8.86719227e-08
0.013976464
0.0117309551
8.95823078e-08
8.97611027e-08
0.013362599
0.0112377415
9.05789395e-08
9.07373711e-08
0.0128017165
0.0107361109
9.14969386e-08
9.16338761e-08
0.0122778674
0.0102774003
9.23436437e-08
9.24626854e-08
0.0117776515
0.0097737182
9.31280284e-08
9.32309988e-08
0.0114322293
0.00902588648
9.38230261e-08
9.39338927e-08
0.0111889254
0.00862304947
9.44183633e-08
9.45666945e-08
0.0107086
0.00820856449
9.49891583e-08
9.51320396e-08
0.0101844318
0.00788952254
9.55151521e-08
9.56413774e-08
0.00954469944
0.00757600324
9.59966879e-08
9.61042365e-08
0.00893277282
0.00720499551
9.64243834e-08
9.65247957e-08
0.00841521563
0.006790311
9.68037044e-08
9.69020123e-08
0.00794638997
0.00638324992
9.71419065e-08
9.72369892e-08
0.0074902638
0.0059903339
9.74425858e-08
9.75326747e-08
0.0070384422
0.00561842734
9.77081565e-08
9.77925712e-08
0.00659844576
0.00526578757
9.79404123e-08
9.80194664e-08
0.00617538802
0.00493238735
9.82098277e-08
9.83029091e-08
0.00576961028
0.00461753792
9.84972288e-08
9.85831328e-08
0.0053826475
0.00431828578
9.87541386e-08
9.88339285e-08
0.0050178169
0.00403280389
9.898225e-08
9.90567942e-08
0.00467659395
0.00376097229
9.91836947e-08
9.92534092e-08
0.00435800798
0.00350372571
9.93604328e-08
9.94256906e-08
0.00405913877
0.00326269294
9.9514378e-08
9.95752242e-08
0.0037760513
0.00303914912
9.96476949e-08
9.9703497e-08
0.00350598447
0.0028324731
9.97620737e-08
9.98125271e-08
0.00324843687
0.00264109419
9.98589811e-08
9.99037747e-08
0.00300344698
0.00246306516
9.99401681e-08
9.99789917e-08
0.00277144129
0.00229266808
1.00006829e-07
1.00041093e-07
0.00255086665
0.0021266961
1.00060445e-07
1.00090516e-07
0.00235023611
0.00194554117
1.00105612e-07
1.00127554e-07
0.00217107796
0.00180239102
1.00134401e-07
1.00154457e-07
0.00201382675
0.00168563089
1.00148574e-07
1.00172193e-07
0.00187670193
0.00154850233
1.00157037e-07
1.00182437e-07
0.0017558747
0.00141733574
1.00158876e-07
1.00185695e-07
0.00163793682
0.00129832246
1.00155487e-07
1.00181955e-07
0.00151957376
0.0011929674
1.00147671e-07
1.00172362e-07
0.00140087441
0.00109933607
1.00135895e-07
1.00157887e-07
0.00128416033
0.00101451906
1.0012053e-07
1.00139426e-07
0.00117179838
0.000936502828
1.00102109e-07
1.0011757e-07
0.00106428737
0.000863735309
1.00081116e-07
1.00092787e-07
0.00096110976
0.000792930774
1.00060595e-07
1.00068284e-07
0.000835146977
0.000699985751
1.00049819e-07
1.00050981e-07
0.0006804367
0.00054835726
0.000214673429
0.000148220776
0.000379288078
0.000297447904
0.000308091427
0.00023504715
0.00029744335
0.000227280638
0.000274690865
0.000208679753
0.000253662261
0.000189130161
0.000229729944
0.000170069284
0.000203522035
0.000151619005
0.000175596319
0.000133889618
0.000146899571
0.000116784158
0.000118769147
0.000100027635
9.2707487e-05
8.33438002e-05
6.99942099e-05
6.66958344e-05
5.12528013e-05
5.04602444e-05
3.62439689e-05
3.53438785e-05
2.41394186e-05
2.20168553e-05
1.40975184e-05
1.07727554e-05
5.56180704e-06
1.66488847e-06
9.94620065e-08
9.94576589e-08
9.94554154e-08
9.94534545e-08
9.94524799e-08
9.9451909e-08
9.94516412e-08
9.94515187e-08
9.94514713e-08
9.9451455e-08
9.94514506e-08
9.94514499e-08
9.945145e-08
9.94514501e-08
9.94514502e-08
9.94514503e-08
9.94514503e-08
9.94514503e-08
9.94514503e-08
9.94514503e-08
9.94514503e-08
9.94514503e-08
9.94514503e-08
9.94514503e-08
9.94514503e-08
9.94514503e-08
9.94514503e-08
9.94514503e-08
9.94514503e-08
9.94514503e-08
9.94514503e-08
9.94514503e-08
9.94514503e-08
9.94514503e-08
9.94514503e-08
9.94514503e-08
9.94514503e-08
9.94514503e-08
9.94514503e-08
9.94514503e-08
)
;

boundaryField
{
    closed
    {
        type            calculated;
        value           nonuniform List<scalar> 0();
    }
    open
    {
        type            calculated;
        value           uniform 0;
    }
    sides
    {
        type            empty;
    }
    procBoundary5to4
    {
        type            processor;
        value           uniform 0;
    }
}


// ************************************************************************* //
