/*--------------------------------*- C++ -*----------------------------------*\
| =========                 |                                                 |
| \\      /  F ield         | OpenFOAM: The Open Source CFD Toolbox           |
|  \\    /   O peration     | Version:  2306                                  |
|   \\  /    A nd           | Website:  www.openfoam.com                      |
|    \\/     M anipulation  |                                                 |
\*---------------------------------------------------------------------------*/
FoamFile
{
    version     2.0;
    format      ascii;
    arch        "LSB;label=32;scalar=64";
    class       volScalarField;
    location    "0.00134";
    object      Z;
}
// * * * * * * * * * * * * * * * * * * * * * * * * * * * * * * * * * * * * * //

dimensions      [0 0 0 0 0 0 0];

internalField   nonuniform List<scalar> 
530
(
0.0142428313
0.0142984644
0.0140848763
0.0140758362
0.0142565808
0.0142780044
0.0140947806
0.0140851969
0.0142693609
0.0142570751
0.0140970624
0.0140895645
0.0142800945
0.0142416789
0.0140997048
0.0140950367
0.0142817819
0.0142332205
0.0141021659
0.0140979622
0.0142770145
0.0142288999
0.0141028711
0.0140993982
0.0142711023
0.0142233594
0.0141038578
0.0140998201
0.0142640068
0.0142174417
0.0141034851
0.0140991709
0.0142582426
0.0142098647
0.0141033643
0.0140982483
0.014250458
0.0142043711
0.0141017208
0.0140962874
0.0142418515
0.0141990557
0.014099308
0.0140932786
0.0142322971
0.0141944519
0.0140946455
0.0140896021
0.014221613
0.014191027
0.0140882361
0.0140847556
0.0142103581
0.0141877116
0.0140796712
0.0140783169
0.0141992701
0.0141819545
0.0140718388
0.0140709447
0.0141897376
0.0141750745
0.0140641202
0.0140632905
0.0141805202
0.0141675343
0.0140568097
0.0140556999
0.01417157
0.0141588634
0.0140505598
0.0140483398
0.0141628608
0.014150834
0.0140436008
0.0140413558
0.0141546176
0.0141422104
0.0140371386
0.0140347118
0.014147948
0.0141335905
0.0140310148
0.014029101
0.0141417659
0.0141252332
0.0140252157
0.0140237972
0.0141364132
0.0141190778
0.014018918
0.0140188522
0.0141298405
0.0141134744
0.0140138656
0.0140139809
0.0141236049
0.0141079451
0.014009529
0.0140095491
0.0141175877
0.0141029816
0.01400575
0.0140056464
0.0141114916
0.0140982962
0.0140027885
0.0140022541
0.014105801
0.0140930872
0.0140008663
0.0139994546
0.0141013156
0.014088486
0.0139983763
0.0139971029
0.0140984221
0.0140848507
0.0139960844
0.0139952337
0.0140952039
0.014083119
0.0139931213
0.0139936931
0.0140934321
0.0140803802
0.013991678
0.0139930501
0.0140920386
0.014078173
0.0139909022
0.0139929252
0.0140910358
0.0140766472
0.0139908147
0.0139932733
0.0140903081
0.0140758958
0.0139917651
0.013994077
0.0140901496
0.0140758554
0.013993838
0.0139957133
0.0140905186
0.014076442
0.0139967213
0.0139982053
0.0140914838
0.0140774558
0.0140001535
0.0140015278
0.0140927627
0.0140790431
0.0140043857
0.0140054483
0.0140945126
0.0140814041
0.0140091435
0.0140098789
0.0140967793
0.014084238
0.0140143699
0.0140149464
0.0140998873
0.0140865849
0.0140207363
0.0140205622
0.0141035014
0.0140906691
0.0140258094
0.0140261207
0.0141067798
0.0140955639
0.0140306435
0.0140308468
0.0141107729
0.0141017509
0.0140347689
0.014035698
0.0141158673
0.0141072359
0.0140401328
0.0140411839
0.0141212604
0.0141129202
0.0140459959
0.0140471214
0.0141271159
0.0141187412
0.0140521606
0.014053615
0.0141335306
0.0141247019
0.0140585073
0.0140605578
0.0141404783
0.0141308166
0.0140649337
0.014067771
0.014148036
0.0141372081
0.0140719567
0.0140752515
0.0141559087
0.0141441185
0.0140795408
0.0140834142
0.0141637404
0.0141514529
0.0140877973
0.0140919824
0.0141713926
0.0141590927
0.0140966413
0.0141008279
0.0141788121
0.0141669792
0.0141059941
0.014109882
0.0141861131
0.0141750312
0.0141157238
0.0141191475
0.0141934938
0.0141832103
0.0141254188
0.0141285793
0.0142010754
0.0141915275
0.0141350141
0.0141381037
0.0142091285
0.0142000438
0.0141444168
0.0141475993
0.0142177193
0.0142088397
0.0141534755
0.0141569165
0.0142269366
0.0142179651
0.0141619636
0.0141661117
0.014236621
0.0142273287
0.0141696293
0.0141744045
0.0142470132
0.0142360785
0.0141772079
0.0141834539
0.0142566234
0.0142447928
0.0141855373
0.0141928266
0.0142653889
0.0142530702
0.0141948122
0.0142022034
0.0142733903
0.014261297
0.0142047563
0.014211467
0.0142806892
0.0142693147
0.0142153954
0.0142208597
0.0142872077
0.0142773857
0.0142267989
0.0142311938
0.0142928291
0.0142848488
0.0142383054
0.0142408358
0.0142988973
0.0142922594
0.0142489728
0.0142503857
0.0143051923
0.0142994434
0.0142586854
0.0142597774
0.0143117796
0.0143065694
0.0142678947
0.0142689482
0.0143184334
0.0143135877
0.014276812
0.014277525
0.014325037
0.0143204709
0.0142855196
0.0142857941
0.0143315416
0.0143273381
0.0142940499
0.014293968
0.0143379325
0.0143339144
0.0143024334
0.014302048
0.0143445397
0.0143397789
0.0143103605
0.0143098655
0.0143511415
0.0143461282
0.0143173257
0.0143174854
0.0143571046
0.0143522229
0.0143244637
0.0143247253
0.0143627517
0.0143582927
0.0143315146
0.0143317536
0.0143679237
0.0143641504
0.0143384889
0.0143385849
0.014372947
0.0143696626
0.0143452263
0.0143452378
0.0143779497
0.0143748536
0.0143516979
0.0143517238
0.0143828467
0.0143798399
0.0143579177
0.0143580071
0.0143875296
0.0143846366
0.0143639296
0.0143640616
0.0143919845
0.0143892443
0.0143697314
0.0143698798
0.0143962338
0.0143936627
0.0143753107
0.0143754581
0.014400292
0.0143978963
0.0143806607
0.0143808
0.0144041612
0.0144019469
0.0143857793
0.0143859066
0.0144078496
0.0144058096
0.0143906666
0.0143907806
0.0144113698
0.0144094846
0.0143953215
0.014395427
0.0144147287
0.0144129774
0.0143997448
0.0143998488
0.0144179281
0.0144162944
0.0144039428
0.014404047
0.014420967
0.014419444
0.0144079247
0.0144080245
0.0144238415
0.0144224351
0.0144116991
0.014411786
0.0144265511
0.0144252716
0.0144152737
0.0144153368
0.0144291008
0.0144279559
0.0144186542
0.0144186856
0.0144314967
0.0144304905
0.014421844
0.0144218426
0.0144337463
0.0144328689
0.0144248492
0.0144248277
0.0144358541
0.0144350882
0.0144276777
0.0144276367
0.0144378439
0.0144371138
0.0144303755
0.014430267
0.0144397281
0.0144390677
0.0144328246
0.0144327309
0.0144415156
0.014440932
0.0144350468
0.0144350322
0.0144432109
0.0144426108
0.0144371587
0.0144371855
0.0144448074
0.0144441685
0.0144391324
0.0144392024
0.0144462809
0.0144456277
0.014440979
0.0144410766
0.0144476291
0.0144469968
0.0144427099
0.0144428141
0.0144488595
0.0144482779
0.0144443295
0.014444424
0.0144499842
0.0144494708
0.0144458403
0.014445916
0.0144510144
0.0144505775
0.0144472455
0.0144473012
0.0144519548
0.0144515993
0.0144485541
0.0144485949
0.0144528014
0.0144525264
0.0144498118
0.014449851
0.0144534707
0.0144532774
0.0144511869
0.0144512227
0.0144538279
0.0144536719
0.0144532439
0.0144532201
0.0144541099
0.0144541067
0.0144545218
0.0144545736
0.0144551058
0.0144551976
0.0144557049
0.0144558245
0.0144563457
0.0144564924
0.0144570024
0.0144571811
0.0144576648
0.0144578777
0.0144583197
0.0144585644
0.0144589527
0.0144592209
0.0144595488
0.0144598253
0.014460092
0.0144603573
0.0144605671
0.0144608014
0.0144609609
0.0144611494
0.0144612651
0.0144614015
0.0144614796
0.0144615667
0.0144616136
0.014461661
0.0144616845
0.014461705
0.0144617111
0.0144617138
0.0144617135
0.0144617123
0.0144617107
0.0144617093
0.0144617083
0.0144617077
0.0144617073
0.0144617071
0.014461707
0.0144617069
0.0144617069
0.0144617069
0.0144617069
0.0144617069
0.0144617069
0.0144617069
0.0144617069
0.0144617069
0.0144617069
0.0144617069
0.0144617069
0.0144617069
0.0144617069
0.0144617069
0.0144617069
0.0144617069
0.0144617069
0.0144617069
0.0144617069
0.0144617069
0.0144617069
0.0144617069
0.0144617069
0.0144617069
0.0144617069
0.0144617069
0.0144617069
0.0144617069
)
;

boundaryField
{
    closed
    {
        type            zeroGradient;
    }
    open
    {
        type            zeroGradient;
    }
    sides
    {
        type            empty;
    }
    procBoundary5to4
    {
        type            processor;
        value           uniform 0.0140634886;
    }
}


// ************************************************************************* //
