/*--------------------------------*- C++ -*----------------------------------*\
| =========                 |                                                 |
| \\      /  F ield         | OpenFOAM: The Open Source CFD Toolbox           |
|  \\    /   O peration     | Version:  2306                                  |
|   \\  /    A nd           | Website:  www.openfoam.com                      |
|    \\/     M anipulation  |                                                 |
\*---------------------------------------------------------------------------*/
FoamFile
{
    version     2.0;
    format      ascii;
    arch        "LSB;label=32;scalar=64";
    class       volScalarField;
    location    "0.00162";
    object      alpha;
}
// * * * * * * * * * * * * * * * * * * * * * * * * * * * * * * * * * * * * * //

dimensions      [1 -1 -1 0 0 0 0];

internalField   nonuniform List<scalar> 
531
(
3.57873177e-05
3.68050246e-05
3.6807596e-05
3.53099202e-05
3.53054197e-05
3.54801714e-05
3.57804862e-05
3.68383317e-05
3.68171096e-05
3.54187886e-05
3.53393535e-05
3.58195975e-05
3.6823398e-05
3.6826396e-05
3.54061427e-05
3.53295208e-05
3.58212129e-05
3.68260467e-05
3.68278516e-05
3.53759349e-05
3.53169351e-05
3.5823105e-05
3.68229528e-05
3.6827042e-05
3.53452917e-05
3.53155164e-05
3.58230105e-05
3.68132217e-05
3.68003372e-05
3.53448779e-05
3.53511294e-05
3.62199921e-05
3.68003658e-05
3.64832012e-05
3.51699111e-05
3.52800852e-05
3.63037712e-05
3.67632668e-05
3.67803025e-05
3.68035994e-05
3.52374758e-05
3.51440498e-05
3.54241474e-05
3.5429571e-05
3.59181282e-05
3.68194935e-05
3.67664112e-05
3.52272612e-05
3.57310773e-05
3.68421687e-05
3.68206418e-05
3.53308087e-05
3.51653003e-05
3.57745938e-05
3.68146236e-05
3.68552337e-05
3.54487328e-05
3.57433622e-05
3.68769651e-05
3.68243995e-05
3.56804642e-05
3.52784081e-05
3.57464315e-05
3.68419303e-05
3.68867233e-05
3.55066415e-05
3.57433536e-05
3.68615297e-05
3.6844133e-05
3.54193782e-05
3.53085261e-05
3.54606754e-05
3.55621879e-05
3.61191606e-05
3.68510772e-05
3.6829273e-05
3.56423362e-05
3.5290276e-05
3.56171061e-05
3.59464392e-05
3.68603307e-05
3.6889896e-05
3.55358678e-05
3.57453454e-05
3.6858236e-05
3.68530653e-05
3.54980347e-05
3.53374403e-05
3.55058938e-05
3.55505428e-05
3.60116444e-05
3.68354685e-05
3.68543236e-05
3.55575736e-05
3.52161593e-05
3.57714508e-05
3.68229751e-05
3.68634978e-05
3.54230002e-05
3.52015306e-05
3.57534041e-05
3.67828295e-05
3.68294423e-05
3.68568798e-05
3.53641474e-05
3.51419089e-05
3.53683439e-05
3.57594346e-05
3.68307118e-05
3.68580257e-05
3.55091139e-05
3.52665271e-05
3.57864917e-05
3.68046674e-05
3.68628847e-05
3.54851005e-05
3.52199511e-05
3.57486486e-05
3.68183695e-05
3.6892716e-05
3.56242683e-05
3.5742226e-05
3.68247773e-05
3.68544513e-05
3.54018185e-05
3.51598846e-05
3.57420893e-05
3.67966939e-05
3.68714201e-05
3.54354439e-05
3.51606443e-05
3.57433387e-05
3.67936597e-05
3.68694311e-05
3.5445651e-05
3.51740535e-05
3.57391106e-05
3.67870024e-05
3.68683962e-05
3.54746698e-05
3.51631599e-05
3.57333138e-05
3.67805714e-05
3.68676813e-05
3.54619622e-05
3.51136181e-05
3.5728458e-05
3.67869452e-05
3.6887396e-05
3.56793167e-05
3.56988734e-05
3.67620247e-05
3.68506726e-05
3.55237035e-05
3.51305194e-05
3.57189898e-05
3.67711062e-05
3.6884164e-05
3.5693709e-05
3.57377922e-05
3.67373209e-05
3.68474505e-05
3.5657265e-05
3.51974245e-05
3.57153504e-05
3.6754626e-05
3.68807511e-05
3.57110174e-05
3.57384674e-05
3.67014627e-05
3.68410009e-05
3.56642655e-05
3.52087516e-05
3.53964869e-05
3.53268466e-05
3.5616374e-05
3.67472349e-05
3.68830607e-05
3.56930683e-05
3.57039218e-05
3.66606304e-05
3.68409363e-05
3.57092011e-05
3.5291716e-05
3.56525421e-05
3.67275178e-05
3.68767818e-05
3.57156916e-05
3.56464179e-05
3.65417601e-05
3.68373956e-05
3.56926974e-05
3.51446532e-05
3.55596036e-05
3.67052455e-05
3.68666861e-05
3.57292761e-05
3.56331315e-05
3.6460461e-05
3.68337351e-05
3.57099198e-05
3.51444318e-05
3.55230883e-05
3.66985993e-05
3.68627215e-05
3.57402926e-05
3.56343894e-05
3.63999226e-05
3.68317543e-05
3.57377532e-05
3.51937038e-05
3.55572873e-05
3.66982294e-05
3.68559693e-05
3.5766635e-05
3.52646344e-05
3.56797737e-05
3.66959337e-05
3.68531176e-05
3.5782742e-05
3.54013388e-05
3.52999238e-05
3.55763173e-05
3.67062156e-05
3.68458542e-05
3.5790955e-05
3.52607337e-05
3.55499104e-05
3.6691313e-05
3.68496759e-05
3.58150003e-05
3.53133537e-05
3.55811927e-05
3.67061235e-05
3.68477663e-05
3.58177754e-05
3.52928164e-05
3.55339828e-05
3.67168518e-05
3.68491241e-05
3.58029601e-05
3.52306367e-05
3.54854821e-05
3.67236853e-05
3.68599891e-05
3.57712683e-05
3.56824308e-05
3.63887814e-05
3.683082e-05
3.57835424e-05
3.52152592e-05
3.55156055e-05
3.6755331e-05
3.68483172e-05
3.57925272e-05
3.5234741e-05
3.55488981e-05
3.67722212e-05
3.68415445e-05
3.5806218e-05
3.52856003e-05
3.5612253e-05
3.67887332e-05
3.6844168e-05
3.57845529e-05
3.53347449e-05
3.54103329e-05
3.52978672e-05
3.55274789e-05
3.68085886e-05
3.6845828e-05
3.57611182e-05
3.56410893e-05
3.66953402e-05
3.68401368e-05
3.5778442e-05
3.57123495e-05
3.67814087e-05
3.6817655e-05
3.5736034e-05
3.5137289e-05
3.55293579e-05
3.68406646e-05
3.68339294e-05
3.57316466e-05
3.51009144e-05
3.56137109e-05
3.68281304e-05
3.68408223e-05
3.57058394e-05
3.57384467e-05
3.6832147e-05
3.60621474e-05
3.55986828e-05
3.57835183e-05
3.68422522e-05
3.68216959e-05
3.56517529e-05
3.51214601e-05
3.56990121e-05
3.68458869e-05
3.68267576e-05
3.57211536e-05
3.51545577e-05
3.57055582e-05
3.68449475e-05
3.68191011e-05
3.5708648e-05
3.51187205e-05
3.57166189e-05
3.68195908e-05
3.68170029e-05
3.54271177e-05
3.50617427e-05
3.59101249e-05
3.68078447e-05
3.5793569e-05
3.5572883e-05
3.62213015e-05
3.68049563e-05
3.596617e-05
3.51924761e-05
3.51791237e-05
3.61512405e-05
3.6825382e-05
3.57518628e-05
3.55716239e-05
3.65805711e-05
3.68024882e-05
3.58086733e-05
3.51295961e-05
3.5180113e-05
3.63379478e-05
3.68334727e-05
3.5765555e-05
3.54877646e-05
3.67491216e-05
3.68498438e-05
3.57830539e-05
3.56099277e-05
3.68612019e-05
3.68382358e-05
3.57851449e-05
3.54165125e-05
3.52940085e-05
3.57468598e-05
3.68139147e-05
3.68428731e-05
3.51480151e-05
3.49130599e-05
3.62993179e-05
3.68257564e-05
3.57575907e-05
3.54433816e-05
3.68511068e-05
3.68426717e-05
3.56490187e-05
3.55143097e-05
3.68679979e-05
3.68010719e-05
3.57489283e-05
3.49236122e-05
3.50980649e-05
3.68130209e-05
3.68431523e-05
3.56385302e-05
3.54270461e-05
3.68305003e-05
3.6842451e-05
3.5645209e-05
3.55144099e-05
3.68558332e-05
3.68101122e-05
3.57481395e-05
3.50365256e-05
3.51675411e-05
3.68360495e-05
3.68484128e-05
3.57167818e-05
3.5553223e-05
3.6847796e-05
3.68402871e-05
3.5802464e-05
3.55365444e-05
3.53931888e-05
3.57080438e-05
3.684228e-05
3.6837862e-05
3.57442346e-05
3.51652669e-05
3.54477774e-05
3.68400155e-05
3.68271781e-05
3.57455413e-05
3.52179861e-05
3.55023843e-05
3.68377341e-05
3.68244697e-05
3.57436123e-05
3.52392759e-05
3.55067581e-05
3.6832674e-05
3.6852253e-05
3.57436188e-05
3.53616374e-05
3.52817667e-05
3.56291059e-05
3.68033297e-05
3.68443791e-05
3.61559621e-05
3.54995346e-05
3.52144407e-05
3.57744411e-05
3.68195372e-05
3.57648064e-05
3.53996904e-05
3.67558084e-05
3.68321159e-05
3.57493482e-05
3.5387888e-05
3.61484546e-05
3.68197992e-05
3.63044443e-05
3.52684094e-05
3.50677974e-05
3.58767828e-05
3.68237956e-05
3.57386303e-05
3.54192083e-05
3.68048981e-05
3.68386557e-05
3.57137495e-05
3.54815031e-05
3.68091011e-05
3.68376236e-05
3.56936834e-05
3.55213013e-05
3.68472691e-05
3.68059279e-05
3.57983956e-05
3.50729333e-05
3.52586464e-05
3.67937705e-05
3.6839338e-05
3.5729169e-05
3.54626972e-05
3.63965644e-05
3.68210726e-05
3.63832618e-05
3.55879825e-05
3.50997893e-05
3.54722661e-05
3.68409221e-05
3.68100879e-05
3.57501199e-05
3.51004827e-05
3.54446686e-05
3.68678199e-05
3.68100794e-05
3.57268882e-05
3.50440255e-05
3.54171335e-05
3.68752918e-05
3.68004851e-05
3.57087173e-05
3.5082936e-05
3.5690272e-05
3.68255014e-05
3.67996596e-05
3.53063619e-05
3.55073493e-05
3.6872911e-05
3.677799e-05
3.56856909e-05
3.50693803e-05
3.56877552e-05
3.68498255e-05
3.68496072e-05
3.67875422e-05
3.56860916e-05
3.5288112e-05
3.52386607e-05
3.55304601e-05
3.68771955e-05
3.67765895e-05
3.56873211e-05
3.50512569e-05
3.56901389e-05
3.68325288e-05
3.68122666e-05
3.54010996e-05
3.57321141e-05
3.68433322e-05
3.67948341e-05
3.54139426e-05
3.50889179e-05
3.57285946e-05
3.68306135e-05
3.68024901e-05
3.5489139e-05
3.57798884e-05
3.68415615e-05
3.67921996e-05
3.55744334e-05
3.5772645e-05
3.68509531e-05
3.68039521e-05
3.54457255e-05
3.51444684e-05
3.5747037e-05
3.68264682e-05
3.68302469e-05
3.54867759e-05
3.51694598e-05
3.57483685e-05
3.68293117e-05
3.68351989e-05
3.54879464e-05
3.51587632e-05
3.57464944e-05
3.68275137e-05
3.68390732e-05
3.55171606e-05
3.51649116e-05
3.5742872e-05
3.68270061e-05
3.68426188e-05
3.55579623e-05
3.51734447e-05
3.57371716e-05
3.68270031e-05
)
;

boundaryField
{
    closed
    {
        type            calculated;
        value           nonuniform List<scalar> 0();
    }
    open
    {
        type            calculated;
        value           nonuniform List<scalar> 0();
    }
    sides
    {
        type            empty;
    }
    procBoundary1to0
    {
        type            processor;
        value           uniform 3.51884047e-05;
    }
    procBoundary1to2
    {
        type            processor;
        value           uniform 3.6846191e-05;
    }
}


// ************************************************************************* //
