/*--------------------------------*- C++ -*----------------------------------*\
| =========                 |                                                 |
| \\      /  F ield         | OpenFOAM: The Open Source CFD Toolbox           |
|  \\    /   O peration     | Version:  2306                                  |
|   \\  /    A nd           | Website:  www.openfoam.com                      |
|    \\/     M anipulation  |                                                 |
\*---------------------------------------------------------------------------*/
FoamFile
{
    version     2.0;
    format      ascii;
    arch        "LSB;label=32;scalar=64";
    class       volScalarField;
    location    "0.00192";
    object      prefDZ_H;
}
// * * * * * * * * * * * * * * * * * * * * * * * * * * * * * * * * * * * * * //

dimensions      [1 -1 -1 0 0 0 0];

internalField   nonuniform List<scalar> 
530
(
0.000117099318
0.000109347697
0.000107887805
0.000107844263
0.000107840335
0.000107840113
0.000107840096
0.000107840095
0.000107840095
0.000107840095
0.000107840095
0.000107840095
0.000107840095
0.000107840095
0.000107840095
0.000107840095
0.000107840095
0.000107840095
0.000107840095
0.000107840095
0.000107840095
0.000107840095
0.000107840095
0.000107840095
0.000107840095
0.000107840095
0.000107840095
0.000107840095
0.000107840095
0.000107840095
0.000107840095
0.000107840095
0.000107840095
0.000107840095
0.000107840095
0.000107840095
0.000107840095
0.000107840095
0.000107840095
0.000107840095
0.000107840095
0.000107840095
0.000107840095
0.000107840095
0.000107840095
0.000107840095
0.000107840095
0.000107840095
0.000107840095
0.000107840095
0.000107840095
0.000107840095
0.000107840095
0.000107840095
0.000107840095
0.000107840095
0.000107840095
0.000107840095
0.000107840095
0.000107840096
0.000107840096
0.000107840098
0.000107840099
0.000107840111
0.000107840115
0.000107840166
0.000107840193
0.000107840344
0.000107840498
0.00010784095
0.000107841179
0.000107841411
0.000107842315
0.000107851641
0.000107857702
0.000107822147
0.000107807264
0.000107927483
0.00010806441
0.000107808442
0.000107612175
0.00010769999
0.000110526064
0.000110437915
0.000107825766
0.000107710549
0.000107750001
0.000107832572
0.000107771516
0.000107532136
0.000106892398
0.000107714092
0.000110357964
0.000110514574
0.000110409722
0.000107690429
0.000106102066
0.000107304293
0.000110215433
0.000110392877
0.000110389777
0.000106180543
0.000105899687
0.000105835691
0.000106873227
0.000110180523
0.000110372832
0.000110255626
0.000110353741
0.000110343626
0.000106721979
0.000106356281
0.000110132737
0.000110329499
0.000106389566
0.000106052172
0.000106095836
0.000107235298
0.000110158381
0.000110285571
0.000110216617
0.000110280792
0.000110271338
0.000106498236
0.000105160683
0.000106211643
0.000105145985
0.000106391723
0.000110093539
0.000110324424
0.000110299174
0.000105663357
0.000105559982
0.0001101188
0.000110178394
0.000110235768
0.000110264791
0.000106425417
0.000106123798
0.000110125453
0.000110277199
0.000106961453
0.000106830158
0.000110152364
0.00011026178
0.000107070575
0.000106140496
0.000106938067
0.000106211605
0.000107250113
0.000110189481
0.000110342001
0.000110259965
0.000110377399
0.000107043749
0.000106622389
0.000110155585
0.000110220293
0.0001073929
0.000105359466
0.000107841382
0.000110160074
0.000107140674
0.00010609381
0.000110113477
0.000110245842
0.000106436774
0.000106084855
0.000110100727
0.000110234589
0.000106009738
0.000106075906
0.000110137448
0.000110187312
0.000110263537
0.000110276274
0.000105950603
0.000105961749
0.000110126022
0.000110192766
0.000110240617
0.000110259473
0.000107089397
0.000106450227
0.000107225758
0.000106717904
0.000107297426
0.00011016975
0.000110369544
0.000106385085
0.000105320213
0.00010671386
0.000110231038
0.000110264946
0.000110345833
0.000106313191
0.000106691383
0.000110342759
0.000107028133
0.000106722614
0.000110143326
0.000110265964
0.000110280001
0.000107039299
0.000105793684
0.000107493148
0.000110138701
0.000110284275
0.000110189772
0.000110312288
0.000106533276
0.000105961297
0.000106202173
0.00010651612
0.000110206199
0.000110323532
0.000106504722
0.000106275067
0.000110168035
0.000110288335
0.000106509281
0.000106144584
0.000106456626
0.000107176216
0.000110224543
0.000110243621
0.000110253452
0.000110277995
0.000107067637
0.000106218519
0.000107397549
0.000110137733
0.000110308615
0.000106815821
0.000106393976
0.000110153089
0.00011018729
0.000106808107
0.000110069042
0.000110249903
0.000105404451
0.000104675018
0.000106313336
0.000110107574
0.000110189331
0.000110179744
0.000106209516
0.000105396929
0.000110151787
0.000110137948
0.000106997734
0.000110047178
0.000110248444
0.000105552078
0.000104887605
0.000106605672
0.000110152651
0.000110160551
0.000110227154
0.000106411044
0.000105705777
0.000110110315
0.000110269229
0.000106085475
0.000106325796
0.000110193646
0.000110178965
0.000110245592
0.000106678145
0.000106113509
0.00011017505
0.000110158791
0.000106730432
0.000105410559
0.000107310331
0.000110153095
0.000110262795
0.000110247474
0.000106147572
0.000105646532
0.000110249886
0.000110226189
0.000105928979
0.000104933098
0.000106729328
0.000110208582
0.000110334623
0.000110272307
0.000106894557
0.000106187456
0.000107299128
0.000106530677
0.000107761147
0.000110285306
0.000110391116
0.000110365402
0.00010745948
0.000106943108
0.000110345874
0.000110382248
0.000107018961
0.000106798194
0.000110325926
0.00011037511
0.000106838053
0.000106739089
0.000110326808
0.000110297282
0.000106686721
0.000105931432
0.000107051285
0.000110248198
0.000110425641
0.000106821636
0.000106774772
0.00011027662
0.000110318235
0.000107082029
0.000106280573
0.000107371526
0.000110255371
0.000110328049
0.000106786388
0.000105968948
0.000107325292
0.000110280001
0.000110249974
0.000110304644
0.000106423189
0.000106054791
0.000105951094
0.000107053212
0.000110285762
0.000110245916
0.000110315369
0.00010683527
0.000106137306
0.000110210942
0.0001102883
0.000106692156
0.000106475822
0.000110173169
0.00011026561
0.000106133628
0.000106576216
0.000110259922
0.000110187684
0.000110293772
0.00010618855
0.00010561171
0.000110216177
0.000110252538
0.000106822681
0.000106798358
0.000110268005
0.000110244485
0.000106764906
0.00010674541
0.000106876358
0.000107294726
0.000110362887
0.00011033042
0.000106775542
0.000106261544
0.000107793836
0.00011038616
0.00011042636
0.000110402492
0.000110443964
0.000107771333
0.000106551094
0.000106821491
0.000106901497
0.000110412495
0.000110449108
0.000106269797
0.000106321114
0.000106432089
0.000107306908
0.00011040825
0.000110373283
0.000110398957
0.00011038844
0.000110384688
0.000110392363
0.000107401102
0.000106312952
0.000106924868
0.000106559134
0.000106597898
0.000106944505
0.000110362298
0.000110413476
0.000106963593
0.00010692976
0.000110339638
0.000110375942
0.000107202773
0.000107235067
0.000110336394
0.000110316029
0.000106786135
0.000106801772
0.000106723605
0.000107124546
0.000110333853
0.000110351412
0.000106462686
0.000106527291
0.000110318241
0.000110349082
0.000106494738
0.000106577349
0.000110297873
0.00011032948
0.000106007416
0.000106100107
0.000105944221
0.000106984457
0.000110283896
0.000110322975
0.000110278167
0.000110322924
0.000110275102
0.000110313449
0.000110266485
0.000106376741
0.000105396834
0.000107055188
0.00011022231
0.000110362266
0.000106560284
0.000106969163
0.000110239903
0.000110312001
0.000106605325
0.000106620799
0.000106705992
0.00010708524
0.000110262792
0.000110246536
0.000106241449
0.000105395475
0.000107092702
0.000110241443
0.000110224919
0.000110263457
0.00010619254
0.000106432144
0.000110275805
0.000110196065
0.000110298517
0.00010617714
0.000106045423
0.00011023561
0.000110237334
0.000106847294
0.000106190978
0.000107514414
0.000110243758
0.000110299888
0.000106992149
0.000106354042
0.000107451253
0.000110273346
0.000110352004
0.000106157877
0.0001063347
0.000106126578
0.000107117605
0.000110256095
0.000110310851
0.000110245493
0.000106953105
0.000105463538
0.00010763861
0.000110186377
0.000110294682
0.000110209465
0.000110283316
0.000110234483
0.000105849448
0.000104317036
0.000106391349
0.00011021777
0.000110321219
0.000106829433
0.000110288677
0.000110264097
0.000106098244
0.000106055778
0.000106998166
0.000110252002
0.000110263975
0.000106441846
0.000105863091
0.000107085477
0.000110204566
0.000110324283
0.000106275845
0.000106629422
0.000110181329
0.000110281502
0.000105967272
0.000106873257
0.00011023541
0.000110169585
0.000110256368
0.000105669555
0.000106493632
0.000110231373
0.000106085843
0.000105909945
0.000110161373
0.000110208123
0.000105707208
0.000105980067
0.000110208847
0.000110164688
0.000110202937
0.000110204604
0.000105330325
0.000105626378
0.000110192033
0.000110200771
0.000105755978
0.000107116658
0.000110267348
0.000106627646
0.000106297275
)
;

boundaryField
{
    closed
    {
        type            calculated;
        value           uniform 0.00014424429;
    }
    open
    {
        type            calculated;
        value           nonuniform List<scalar> 0();
    }
    sides
    {
        type            empty;
    }
    procBoundary0to1
    {
        type            processor;
        value           uniform 0.000110187698;
    }
}


// ************************************************************************* //
