/*--------------------------------*- C++ -*----------------------------------*\
| =========                 |                                                 |
| \\      /  F ield         | OpenFOAM: The Open Source CFD Toolbox           |
|  \\    /   O peration     | Version:  2306                                  |
|   \\  /    A nd           | Website:  www.openfoam.com                      |
|    \\/     M anipulation  |                                                 |
\*---------------------------------------------------------------------------*/
FoamFile
{
    version     2.0;
    format      ascii;
    arch        "LSB;label=32;scalar=64";
    class       volScalarField;
    location    "0.00192";
    object      sourcePV;
}
// * * * * * * * * * * * * * * * * * * * * * * * * * * * * * * * * * * * * * //

dimensions      [1 -3 -1 0 0 0 0];

internalField   nonuniform List<scalar> 
530
(
0.0241168614
0.077871535
0.0819174993
0.0815741841
0.0815317915
0.0815304907
0.0815304451
0.081530443
0.0815304428
0.0815304428
0.0815304428
0.0815304428
0.0815304428
0.0815304428
0.0815304428
0.0815304428
0.0815304428
0.0815304428
0.0815304428
0.0815304428
0.0815304428
0.0815304428
0.0815304428
0.0815304428
0.0815304428
0.0815304428
0.0815304428
0.0815304428
0.0815304428
0.0815304428
0.0815304428
0.0815304428
0.0815304428
0.0815304428
0.0815304428
0.0815304428
0.0815304428
0.0815304428
0.0815304428
0.0815304428
0.0815304428
0.0815304428
0.0815304428
0.0815304428
0.0815304428
0.0815304428
0.0815304428
0.0815304428
0.0815304428
0.0815304428
0.0815304428
0.0815304428
0.0815304428
0.0815304428
0.0815304428
0.0815304428
0.0815304428
0.0815304429
0.081530443
0.0815304439
0.0815304444
0.0815304499
0.0815304518
0.0815304919
0.0815304828
0.0815305193
0.0815309595
0.0815317019
0.0815294166
0.0815258263
0.0815384986
0.0816148183
0.0816233763
0.0809291514
0.0806422434
0.0843813192
0.0872122049
0.0751828304
0.0663336526
0.0860119067
0.132982935
0.122291206
0.00629075973
0.00634918855
0.0830576615
0.130065232
0.108141726
0.0833131653
0.112687415
0.134258879
0.148974331
0.128975663
0.00604311285
0.00680549512
0.00575949007
0.102362915
0.166243913
0.139304549
0.0052802131
0.00612745128
0.00538026008
0.164221849
0.170308544
0.171811229
0.149537359
0.00498110912
0.00609242838
0.00506146889
0.00597109483
0.00518309648
0.152894766
0.161050478
0.00491765019
0.00547981777
0.160139982
0.167325453
0.16654172
0.142279926
0.00504323278
0.00608448089
0.00514363758
0.00589287057
0.00512552772
0.157686889
0.185657708
0.163884235
0.185933067
0.160069762
0.00445148417
0.00570796353
0.00511680687
0.175244848
0.177632401
0.00456093274
0.00491184722
0.00543369804
0.00506029547
0.159355185
0.166103357
0.00491359687
0.00554955671
0.148112253
0.151271938
0.00516921875
0.00571320776
0.145318858
0.165735359
0.148241603
0.164297133
0.14168957
0.00527980736
0.00578334015
0.00577549356
0.00559464015
0.146185932
0.155527991
0.00522353549
0.0054639348
0.138294706
0.181697834
0.122643637
0.00475068567
0.143873568
0.166816753
0.00482848125
0.00536866766
0.159337805
0.166919218
0.00456749875
0.00537520637
0.168189397
0.167221629
0.00459530708
0.0050721251
0.0053338868
0.00520219813
0.16927621
0.169458255
0.0047849122
0.00542246777
0.00571368181
0.00567888284
0.144872362
0.159462312
0.14203639
0.154001056
0.140473447
0.00526956488
0.00587052964
0.160259909
0.182424481
0.153531333
0.00484316731
0.00583531845
0.00546665936
0.161605291
0.153887739
0.00528649081
0.146646167
0.153226051
0.00484826418
0.00598204505
0.00553230598
0.146167287
0.172918008
0.136788085
0.00504695226
0.00584517458
0.00548242986
0.00556794256
0.157234801
0.169354694
0.164377077
0.15780706
0.00530059697
0.00570889936
0.157851568
0.162686047
0.00494631296
0.00559966133
0.15762886
0.165597379
0.158961364
0.144098962
0.00547576764
0.00584373318
0.00583658099
0.00581376094
0.145642558
0.164326974
0.138769036
0.00529675886
0.00596601252
0.151669888
0.16044061
0.00517167036
0.00511208979
0.151367019
0.00418184438
0.00549463652
0.180788453
0.19523452
0.162312965
0.00450686138
0.00565161006
0.00504484231
0.164143525
0.180947679
0.00511415347
0.00492167201
0.147415719
0.00419299569
0.00558526049
0.177849566
0.191074026
0.15637269
0.00459572318
0.00571112388
0.00499898853
0.160114031
0.17458953
0.00488002708
0.0055318962
0.166941816
0.161896254
0.00501381542
0.00571857178
0.00525473473
0.154498818
0.16632816
0.00523637458
0.00533289841
0.153089881
0.180690989
0.140742401
0.00484542281
0.00599076225
0.00530743255
0.1652681
0.175802199
0.00507725071
0.00526387964
0.169719908
0.190194937
0.152795012
0.00507788723
0.00612144399
0.00564839681
0.148845544
0.164662558
0.139993092
0.157551844
0.115009117
0.00562486401
0.00662925777
0.00600106254
0.13658401
0.148146168
0.00586694687
0.00608670461
0.146405772
0.151200723
0.00570610968
0.00603382563
0.150422315
0.152652478
0.0056490602
0.00578607154
0.153402128
0.169970015
0.145404276
0.00552828339
0.00623249723
0.151197552
0.151643986
0.00577123843
0.00587937601
0.145157278
0.162757428
0.138888444
0.00562225362
0.00601217003
0.151854344
0.169136076
0.140443942
0.00533464397
0.00599941916
0.0054873672
0.159579328
0.167275145
0.169546788
0.146273694
0.00529940329
0.0060309419
0.00545011447
0.150973093
0.165560479
0.00563015301
0.00571626061
0.154311342
0.158536405
0.00545919806
0.00580123197
0.165899854
0.156627076
0.00525625564
0.00567705897
0.00527919874
0.164671618
0.176488664
0.00563242079
0.00561643636
0.151310695
0.151947612
0.00586464091
0.00588398064
0.152220471
0.1529799
0.149824721
0.140992759
0.0060580221
0.00603038158
0.151388551
0.162798821
0.128320897
0.00606278936
0.00640972264
0.00641904397
0.00618810732
0.124584862
0.156282264
0.150359626
0.148543825
0.00600485563
0.0061371959
0.162287513
0.161096355
0.158935599
0.139884901
0.00607069357
0.00618467548
0.00621276454
0.00598763595
0.00634078436
0.00587041409
0.137806646
0.161673612
0.148333
0.156366465
0.155497595
0.147842145
0.00606806411
0.00618646823
0.147671964
0.148159724
0.00618499279
0.00617465435
0.142630806
0.141982898
0.00614624172
0.00606935821
0.151567636
0.15149632
0.153027924
0.144379612
0.00594862168
0.00600304972
0.158490646
0.157052088
0.00590841837
0.00586280327
0.157924145
0.156073242
0.00576940805
0.00573761568
0.168210291
0.166169049
0.169602572
0.147280831
0.00553465771
0.00607025329
0.0053593108
0.00596882465
0.00520854526
0.00588965687
0.00517123287
0.160272934
0.180914557
0.145636505
0.00557601912
0.0060939474
0.156943726
0.14764937
0.0058179209
0.00588150486
0.155870144
0.155451466
0.153827214
0.145593431
0.00579236442
0.00563488457
0.163375547
0.180942936
0.14541656
0.00524537177
0.00586453309
0.00535026152
0.16452811
0.15959122
0.00548925311
0.00565166021
0.00543214959
0.164926795
0.167532337
0.00582084052
0.00551545914
0.150563931
0.164761854
0.136055818
0.00583702643
0.00600016648
0.147460666
0.161172841
0.137285475
0.00570125912
0.00596106846
0.165160367
0.161187306
0.16589528
0.144410724
0.00555182986
0.00617375227
0.0053447363
0.147976462
0.179606382
0.133126945
0.00504748285
0.00616576735
0.00481584278
0.00585365848
0.00472006712
0.171459113
0.202335288
0.160068455
0.00542044419
0.00548875227
0.151057517
0.0054706705
0.00568389307
0.166307987
0.167426011
0.147312545
0.00568073259
0.00571820692
0.159147421
0.171449155
0.145324953
0.00553141458
0.00589992471
0.162993403
0.155159636
0.00554489364
0.0057704273
0.169328742
0.150357573
0.0053192609
0.00561080057
0.00534577225
0.175413316
0.158430742
0.00532385569
0.166952206
0.170469378
0.0054417399
0.00530487044
0.174627467
0.16911166
0.00536551091
0.00510433855
0.00529273413
0.00500641704
0.182247331
0.176283262
0.00536308696
0.00549098902
0.173607656
0.145537305
0.00548169106
0.15579103
0.162404219
)
;

boundaryField
{
    closed
    {
        type            calculated;
        value           uniform 0;
    }
    open
    {
        type            calculated;
        value           nonuniform List<scalar> 0();
    }
    sides
    {
        type            empty;
    }
    procBoundary0to1
    {
        type            processor;
        value           uniform 0;
    }
}


// ************************************************************************* //
