/*--------------------------------*- C++ -*----------------------------------*\
| =========                 |                                                 |
| \\      /  F ield         | OpenFOAM: The Open Source CFD Toolbox           |
|  \\    /   O peration     | Version:  2306                                  |
|   \\  /    A nd           | Website:  www.openfoam.com                      |
|    \\/     M anipulation  |                                                 |
\*---------------------------------------------------------------------------*/
FoamFile
{
    version     2.0;
    format      ascii;
    arch        "LSB;label=32;scalar=64";
    class       volVectorField;
    location    "0.00014";
    object      U;
}
// * * * * * * * * * * * * * * * * * * * * * * * * * * * * * * * * * * * * * //

dimensions      [0 1 -1 0 0 0 0];

internalField   nonuniform List<vector> 
530
(
(-1.01195852 0 0)
(-0.997879287 0 0)
(-0.983720038 0 0)
(-0.969491475 0 0)
(-0.955204557 0 0)
(-0.940869808 0 0)
(-0.926497531 0 0)
(-0.912098058 0 0)
(-0.897681737 0 0)
(-0.883258888 0 0)
(-0.868839832 0 0)
(-0.854434924 0 0)
(-0.840054582 0 0)
(-0.825709313 0 0)
(-0.811409729 0 0)
(-0.797166572 0 0)
(-0.782990733 0 0)
(-0.768893276 0 0)
(-0.754885447 0 0)
(-0.740978695 0 0)
(-0.727184676 0 0)
(-0.713515271 0 0)
(-0.699982582 0 0)
(-0.686598939 0 0)
(-0.673376896 0 0)
(-0.660329224 0 0)
(-0.6474689 0 0)
(-0.634809093 0 0)
(-0.622363144 0 0)
(-0.610144542 0 0)
(-0.598166892 0 0)
(-0.586443885 0 0)
(-0.574989258 0 0)
(-0.563816752 0 0)
(-0.552940068 0 0)
(-0.54237281 0 0)
(-0.532128438 0 0)
(-0.522220204 0 0)
(-0.512661095 0 0)
(-0.503463767 0 0)
(-0.494640477 0 0)
(-0.486203017 0 0)
(-0.478162642 0 0)
(-0.470529998 0 0)
(-0.463315055 0 0)
(-0.456527028 0 0)
(-0.450174315 0 0)
(-0.444264422 0 0)
(-0.438803899 0 0)
(-0.433798274 0 0)
(-0.429251994 0 0)
(-0.425168371 0 0)
(-0.421549524 0 0)
(-0.418396338 0 0)
(-0.415708423 0 0)
(-0.41348408 0 0)
(-0.411720274 0 0)
(-0.410412618 0 0)
(-0.409555359 0 0)
(-0.409141381 0 0)
(-0.409162207 0 0)
(-0.409608017 0 0)
(-0.410467676 0 0)
(-0.411728765 0 0)
(-0.413377627 0 0)
(-0.41539942 0 0)
(-0.417778181 0 0)
(-0.420496893 0 0)
(-0.423537569 0 0)
(-0.426881339 0 0)
(-0.430508543 0 0)
(-0.434398834 0 0)
(-0.438531287 0 0)
(-0.44288451 0 0)
(-0.447436766 0 0)
(-0.452166087 0 0)
(-0.457050406 0 0)
(-0.462067675 0 0)
(-0.467195997 0 0)
(-0.472413747 0 0)
(-0.4776997 0 0)
(-0.483033149 0 0)
(-0.488394024 0 0)
(-0.493763007 0 0)
(-0.499121635 0 0)
(-0.504452407 0 0)
(-0.509738873 0 0)
(-0.514965722 0 0)
(-0.520118857 0 0)
(-0.525185465 0 0)
(-0.530154073 0 0)
(-0.535014597 0 0)
(-0.539758376 0 0)
(-0.544378197 0 0)
(-0.548868314 0 0)
(-0.553224446 0 0)
(-0.557443772 0 0)
(-0.56152491 0 0)
(-0.565467889 0 0)
(-0.569274107 0 0)
(-0.57294628 0 0)
(-0.576488386 0 0)
(-0.579905588 0 0)
(-0.583204163 0 0)
(-0.586391415 0 0)
(-0.589475579 0 0)
(-0.592465726 0 0)
(-0.595371655 0 0)
(-0.598203787 0 0)
(-0.60097305 0 0)
(-0.603690763 0 0)
(-0.606368518 0 0)
(-0.609018065 0 0)
(-0.611651185 0 0)
(-0.614279578 0 0)
(-0.616914744 0 0)
(-0.619567869 0 0)
(-0.622249714 0 0)
(-0.624970506 0 0)
(-0.627739839 0 0)
(-0.630566576 0 0)
(-0.633458758 0 0)
(-0.636423524 0 0)
(-0.639467032 0 0)
(-0.642594394 0 0)
(-0.645809615 0 0)
(-0.649115545 0 0)
(-0.652513838 0 0)
(-0.656004918 0 0)
(-0.659587961 0 0)
(-0.66326088 0 0)
(-0.667020327 0 0)
(-0.670861698 0 0)
(-0.674779148 0 0)
(-0.678765626 0 0)
(-0.682812902 0 0)
(-0.68691162 0 0)
(-0.691051346 0 0)
(-0.695220633 0 0)
(-0.699407089 0 0)
(-0.703597454 0 0)
(-0.707777681 0 0)
(-0.711933026 0 0)
(-0.716048142 0 0)
(-0.720107171 0 0)
(-0.724093853 0 0)
(-0.72799162 0 0)
(-0.731783709 0 0)
(-0.735453265 0 0)
(-0.738983447 0 0)
(-0.742357534 0 0)
(-0.74555903 0 0)
(-0.748571768 0 0)
(-0.751380009 0 0)
(-0.753968536 0 0)
(-0.75632275 0 0)
(-0.758428756 0 0)
(-0.760273447 0 0)
(-0.76184458 0 0)
(-0.763130847 0 0)
(-0.764121941 0 0)
(-0.764808614 0 0)
(-0.765182728 0 0)
(-0.7652373 0 0)
(-0.764966539 0 0)
(-0.764365876 0 0)
(-0.763431987 0 0)
(-0.762162813 0 0)
(-0.760557562 0 0)
(-0.758616719 0 0)
(-0.756342036 0 0)
(-0.753736527 0 0)
(-0.750804448 0 0)
(-0.747551279 0 0)
(-0.743983694 0 0)
(-0.740109533 0 0)
(-0.735937761 0 0)
(-0.731478434 0 0)
(-0.726742652 0 0)
(-0.721742511 0 0)
(-0.71649106 0 0)
(-0.711002242 0 0)
(-0.705290846 0 0)
(-0.69937245 0 0)
(-0.693263368 0 0)
(-0.686980588 0 0)
(-0.680541723 0 0)
(-0.67396495 0 0)
(-0.667268955 0 0)
(-0.660472877 0 0)
(-0.653596257 0 0)
(-0.646658981 0 0)
(-0.63968123 0 0)
(-0.63268343 0 0)
(-0.625686203 0 0)
(-0.618710321 0 0)
(-0.61177666 0 0)
(-0.604906158 0 0)
(-0.598119775 0 0)
(-0.591438451 0 0)
(-0.58488307 0 0)
(-0.578474422 0 0)
(-0.572233173 0 0)
(-0.566179825 0 0)
(-0.56033469 0 0)
(-0.554717853 0 0)
(-0.549349147 0 0)
(-0.544248116 0 0)
(-0.53943399 0 0)
(-0.534925653 0 0)
(-0.530741609 0 0)
(-0.526899955 0 0)
(-0.523418346 0 0)
(-0.520313961 0 0)
(-0.517603467 0 0)
(-0.515302982 0 0)
(-0.513428039 0 0)
(-0.51199354 0 0)
(-0.511013716 0 0)
(-0.510502079 0 0)
(-0.510471377 0 0)
(-0.51093354 0 0)
(-0.511899628 0 0)
(-0.513379778 0 0)
(-0.515383145 0 0)
(-0.517917843 0 0)
(-0.520990884 0 0)
(-0.52460812 0 0)
(-0.528774174 0 0)
(-0.533492383 0 0)
(-0.538764732 0 0)
(-0.544591793 0 0)
(-0.550972663 0 0)
(-0.55790491 0 0)
(-0.56538451 0 0)
(-0.573405803 0 0)
(-0.581961437 0 0)
(-0.591042332 0 0)
(-0.600637638 0 0)
(-0.610734709 0 0)
(-0.621319076 0 0)
(-0.632374435 0 0)
(-0.643882641 0 0)
(-0.655823708 0 0)
(-0.668175829 0 0)
(-0.680915394 0 0)
(-0.694017028 0 0)
(-0.707453638 0 0)
(-0.72119647 0 0)
(-0.735215177 0 0)
(-0.749477905 0 0)
(-0.763951382 0 0)
(-0.778601021 0 0)
(-0.79339104 0 0)
(-0.808284584 0 0)
(-0.823243861 0 0)
(-0.838230288 0 0)
(-0.853204642 0 0)
(-0.868127219 0 0)
(-0.882958003 0 0)
(-0.897656833 0 0)
(-0.912183581 0 0)
(-0.926498329 0 0)
(-0.940561545 0 0)
(-0.954334266 0 0)
(-0.967778276 0 0)
(-0.980856276 0 0)
(-0.993532061 0 0)
(-1.00577068 0 0)
(-1.01753861 0 0)
(-1.02880389 0 0)
(-1.03953628 0 0)
(-1.04970737 0 0)
(-1.05929075 0 0)
(-1.06826209 0 0)
(-1.07659923 0 0)
(-1.08428232 0 0)
(-1.09129382 0 0)
(-1.09761864 0 0)
(-1.10324415 0 0)
(-1.10816021 0 0)
(-1.11235921 0 0)
(-1.11583608 0 0)
(-1.11858827 0 0)
(-1.12061576 0 0)
(-1.12192101 0 0)
(-1.1225089 0 0)
(-1.12238674 0 0)
(-1.12156414 0 0)
(-1.12005298 0 0)
(-1.11786731 0 0)
(-1.11502325 0 0)
(-1.11153893 0 0)
(-1.10743431 0 0)
(-1.10273116 0 0)
(-1.09745284 0 0)
(-1.09162425 0 0)
(-1.0852717 0 0)
(-1.0784227 0 0)
(-1.07110592 0 0)
(-1.06335099 0 0)
(-1.0551884 0 0)
(-1.04664933 0 0)
(-1.03776551 0 0)
(-1.02856912 0 0)
(-1.0190926 0 0)
(-1.00936856 0 0)
(-0.999429602 0 0)
(-0.989308228 0 0)
(-0.979036685 0 0)
(-0.968646852 0 0)
(-0.958170117 0 0)
(-0.94763726 0 0)
(-0.937078344 0 0)
(-0.926522609 0 0)
(-0.915998372 0 0)
(-0.905532933 0 0)
(-0.895152489 0 0)
(-0.884882049 0 0)
(-0.874745365 0 0)
(-0.86476486 0 0)
(-0.854961569 0 0)
(-0.845355087 0 0)
(-0.835963521 0 0)
(-0.826803453 0 0)
(-0.817889911 0 0)
(-0.80923634 0 0)
(-0.800854592 0 0)
(-0.792754913 0 0)
(-0.784945945 0 0)
(-0.77743473 0 0)
(-0.770226724 0 0)
(-0.763325819 0 0)
(-0.756734364 0 0)
(-0.750453206 0 0)
(-0.744481725 0 0)
(-0.738817881 0 0)
(-0.733458264 0 0)
(-0.728398153 0 0)
(-0.723631578 0 0)
(-0.719151381 0 0)
(-0.714949294 0 0)
(-0.711016008 0 0)
(-0.707341251 0 0)
(-0.703913873 0 0)
(-0.700721924 0 0)
(-0.697752742 0 0)
(-0.694993041 0 0)
(-0.692428996 0 0)
(-0.690046333 0 0)
(-0.687830422 0 0)
(-0.685766361 0 0)
(-0.683839066 0 0)
(-0.682033362 0 0)
(-0.680334067 0 0)
(-0.678726075 0 0)
(-0.677194442 0 0)
(-0.675724466 0 0)
(-0.674301761 0 0)
(-0.672912336 0 0)
(-0.671542663 0 0)
(-0.670179746 0 0)
(-0.668811182 0 0)
(-0.667425223 0 0)
(-0.666010829 0 0)
(-0.664557719 0 0)
(-0.663056413 0 0)
(-0.661498277 0 0)
(-0.659875552 0 0)
(-0.65818139 0 0)
(-0.656409869 0 0)
(-0.654556022 0 0)
(-0.652615839 0 0)
(-0.65058628 0 0)
(-0.648465277 0 0)
(-0.646251724 0 0)
(-0.64394547 0 0)
(-0.641547303 0 0)
(-0.639058928 0 0)
(-0.636482937 0 0)
(-0.633822782 0 0)
(-0.63108273 0 0)
(-0.628267827 0 0)
(-0.625383845 0 0)
(-0.622437234 0 0)
(-0.619435062 0 0)
(-0.616384957 0 0)
(-0.613295044 0 0)
(-0.610173877 0 0)
(-0.607030367 0 0)
(-0.603873717 0 0)
(-0.600713341 0 0)
(-0.597558794 0 0)
(-0.594419698 0 0)
(-0.591305662 0 0)
(-0.588226211 0 0)
(-0.585190712 0 0)
(-0.5822083 0 0)
(-0.579287814 0 0)
(-0.576437721 0 0)
(-0.573666064 0 0)
(-0.570980396 0 0)
(-0.568387728 0 0)
(-0.56589448 0 0)
(-0.563506441 0 0)
(-0.561228727 0 0)
(-0.559065758 0 0)
(-0.557021229 0 0)
(-0.555098099 0 0)
(-0.553298584 0 0)
(-0.551624152 0 0)
(-0.550075538 0 0)
(-0.548652758 0 0)
(-0.547355132 0 0)
(-0.546181319 0 0)
(-0.545129355 0 0)
(-0.544196701 0 0)
(-0.543380295 0 0)
(-0.542676615 0 0)
(-0.542081744 0 0)
(-0.541591441 0 0)
(-0.541201212 0 0)
(-0.540906395 0 0)
(-0.540702234 0 0)
(-0.540583967 0 0)
(-0.540546904 0 0)
(-0.54058651 0 0)
(-0.540698485 0 0)
(-0.54087884 0 0)
(-0.541123974 0 0)
(-0.541430737 0 0)
(-0.541796495 0 0)
(-0.542219182 0 0)
(-0.542697354 0 0)
(-0.543230217 0 0)
(-0.543817664 0 0)
(-0.544460292 0 0)
(-0.545159406 0 0)
(-0.54591702 0 0)
(-0.54673584 0 0)
(-0.547619239 0 0)
(-0.548571219 0 0)
(-0.549596364 0 0)
(-0.550699778 0 0)
(-0.551887016 0 0)
(-0.553164005 0 0)
(-0.554536954 0 0)
(-0.556012259 0 0)
(-0.5575964 0 0)
(-0.559295827 0 0)
(-0.561116854 0 0)
(-0.563065538 0 0)
(-0.56514756 0 0)
(-0.56736811 0 0)
(-0.569731771 0 0)
(-0.572242403 0 0)
(-0.574903039 0 0)
(-0.577715782 0 0)
(-0.58068171 0 0)
(-0.583800794 0 0)
(-0.587071825 0 0)
(-0.590492353 0 0)
(-0.59405864 0 0)
(-0.597765626 0 0)
(-0.601606912 0 0)
(-0.605574757 0 0)
(-0.609660092 0 0)
(-0.613852551 0 0)
(-0.618140515 0 0)
(-0.62251118 0 0)
(-0.62695063 0 0)
(-0.631443931 0 0)
(-0.635975243 0 0)
(-0.640527935 0 0)
(-0.645084722 0 0)
(-0.6496278 0 0)
(-0.654139006 0 0)
(-0.65859997 0 0)
(-0.662992276 0 0)
(-0.667297632 0 0)
(-0.671498033 0 0)
(-0.675575928 0 0)
(-0.679514379 0 0)
(-0.68329722 0 0)
(-0.686909205 0 0)
(-0.690336147 0 0)
(-0.693565051 0 0)
(-0.696584224 0 0)
(-0.699383382 0 0)
(-0.701953735 0 0)
(-0.704288058 0 0)
(-0.706380742 0 0)
(-0.708227829 0 0)
(-0.709827027 0 0)
(-0.711177708 0 0)
(-0.712280881 0 0)
(-0.713139155 0 0)
(-0.713756676 0 0)
(-0.714139049 0 0)
(-0.71429324 0 0)
(-0.714227471 0 0)
(-0.713951087 0 0)
(-0.71347442 0 0)
(-0.712808638 0 0)
(-0.711965581 0 0)
(-0.710957591 0 0)
(-0.709797321 0 0)
(-0.708497564 0 0)
(-0.707071105 0 0)
(-0.70553051 0 0)
(-0.703887866 0 0)
(-0.702154517 0 0)
(-0.700341189 0 0)
(-0.698458192 0 0)
(-0.696514575 0 0)
(-0.694516922 0 0)
(-0.692470541 0 0)
(-0.690380357 0 0)
(-0.688252052 0 0)
(-0.68608776 0 0)
(-0.683882581 0 0)
(-0.681632445 0 0)
(-0.679338141 0 0)
(-0.67699683 0 0)
(-0.674600071 0 0)
(-0.672133129 0 0)
(-0.669583662 0 0)
(-0.666946634 0 0)
(-0.664209695 0 0)
(-0.661353679 0 0)
)
;

boundaryField
{
    closed
    {
        type            noSlip;
    }
    open
    {
        type            inletOutlet;
        inletValue      nonuniform List<vector> 0();
        value           nonuniform List<vector> 0();
    }
    sides
    {
        type            empty;
    }
    procBoundary2to1
    {
        type            processor;
        value           uniform (-1.02594779 0 0);
    }
    procBoundary2to3
    {
        type            processor;
        value           uniform (-0.658361093 0 0);
    }
}


// ************************************************************************* //
