/*--------------------------------*- C++ -*----------------------------------*\
| =========                 |                                                 |
| \\      /  F ield         | OpenFOAM: The Open Source CFD Toolbox           |
|  \\    /   O peration     | Version:  2306                                  |
|   \\  /    A nd           | Website:  www.openfoam.com                      |
|    \\/     M anipulation  |                                                 |
\*---------------------------------------------------------------------------*/
FoamFile
{
    version     2.0;
    format      ascii;
    arch        "LSB;label=32;scalar=64";
    class       volScalarField;
    location    "0.00074";
    object      prefDZ_H;
}
// * * * * * * * * * * * * * * * * * * * * * * * * * * * * * * * * * * * * * //

dimensions      [1 -1 -1 0 0 0 0];

internalField   nonuniform List<scalar> 
531
(
0.000107832625
0.000110252259
0.000110384141
0.000107709644
0.000106291206
0.000107361251
0.000110224754
0.000110480184
0.000107111344
0.000106836132
0.000110219541
0.000110351166
0.000107748905
0.000105794648
0.000107031326
0.000110319247
0.000110460072
0.00010781229
0.000107049305
0.00010693701
0.00010759435
0.000110345044
0.000110443895
0.000107746253
0.000106769861
0.000107799445
0.000110376354
0.000110400487
0.000107707901
0.000106394331
0.000107625274
0.00011027182
0.000110441635
0.000110397895
0.000107348179
0.000105847231
0.000107375598
0.000110258329
0.000110360929
0.000107345673
0.000105907409
0.000107324869
0.000110205391
0.000110363617
0.000110298406
0.000107194872
0.000105799728
0.0001077451
0.000110058152
0.000110412599
0.000105561189
0.000105291719
0.000110056996
0.000110283668
0.000106632517
0.000106551442
0.000110194056
0.000110159908
0.000107754421
0.000105548515
0.000107013576
0.000110039417
0.000110402393
0.000110218521
0.000107032985
0.000105494797
0.000107729112
0.000110116705
0.000110425266
0.000107477264
0.000106573342
0.000107829059
0.00011029116
0.000110268792
0.000107239365
0.000105485503
0.000107336609
0.000110098451
0.000110340174
0.000110265326
0.000106283993
0.000105820771
0.000110305903
0.000110166806
0.000107769634
0.000105426505
0.000107254586
0.000110183558
0.00011036606
0.000110295989
0.000107393131
0.000106270518
0.000106343455
0.000106880633
0.000110400461
0.000110254774
0.000107737279
0.000106215131
0.000107076378
0.000110243431
0.000110474311
0.00010691501
0.000106698722
0.000110200598
0.000110389661
0.000106589013
0.000106922669
0.000110296781
0.000110241099
0.000110315389
0.000107219958
0.000106136912
0.000105888647
0.000106895379
0.000110275649
0.000110249573
0.000110324267
0.000106391611
0.000105895457
0.000110264034
0.000110271032
0.000110305545
0.000110307925
0.000107170266
0.000106201659
0.000107172063
0.000106517715
0.000107532437
0.000110306408
0.000110274852
0.000107803742
0.000106214642
0.000107490247
0.000110277226
0.000110299656
0.00011031523
0.00010583617
0.000105992651
0.00011030883
0.000110178582
0.00011032788
0.000106885132
0.000105848986
0.000105701595
0.000106673678
0.000110243007
0.000110280512
0.000110272257
0.000107420158
0.000105502449
0.000107840179
0.000110108131
0.000110357425
0.000110104184
0.000110357604
0.000105684309
0.00010539678
0.000105285612
0.00010656089
0.000110286213
0.00011022054
0.000110362599
0.000110246902
0.000107793586
0.00010608115
0.000106847243
0.00010574473
0.000106980636
0.000110355517
0.000110316968
0.000110402902
0.00011033495
0.000107774034
0.000106375091
0.000107365186
0.000106302687
0.000107642596
0.000110319908
0.000110359951
0.00011033222
0.000110334381
0.000107698247
0.000106347122
0.000107194689
0.000105795925
0.000107154815
0.000110239332
0.000110207822
0.000110273315
0.000106102429
0.000106307039
0.00011000258
0.000110182494
0.000109774295
0.000105558267
0.000105249725
0.000110252433
0.000110199965
0.000106203343
0.000106475427
0.000110419677
0.000110217305
0.00010772239
0.000105755596
0.000106945865
0.000110285287
0.000110430042
0.000106309769
0.000106757059
0.000110418105
0.000110341569
0.000107767323
0.000106271776
0.000107175356
0.000110345551
0.000110371219
0.000107474564
0.000106007415
0.000107589922
0.000110287707
0.000110313242
0.000110324799
0.0001069252
0.000106230213
0.000106108488
0.000106971502
0.000110314303
0.0001103278
0.000110337036
0.000107435305
0.00010610974
0.000107809841
0.000110302479
0.000110383729
0.00010700948
0.000106924682
0.000110325788
0.000110303349
0.00010773004
0.000105541437
0.000107099572
0.000110190736
0.000110274196
0.000110188169
0.000110242352
0.000105451099
0.000105415772
0.000105239711
0.000106154269
0.000110268261
0.000110199705
0.000110304856
0.000110252885
0.000107656447
0.000105606415
0.000107063222
0.000110246587
0.000110332595
0.000107181294
0.000105718659
0.000106942943
0.000110267165
0.000110379823
0.000106420546
0.000106493074
0.000110321071
0.000110350743
0.000106582852
0.00010664482
0.000110382847
0.000110364662
0.000106854423
0.000106920035
0.000110422661
0.000110369358
0.000107744869
0.000106622277
0.000107515074
0.000110401871
0.000110436716
0.000107741517
0.000106526416
0.000107389511
0.000110391376
0.000110477869
0.000106854633
0.000106824837
0.000110408186
0.000110431543
0.000107402548
0.000106560231
0.000107306101
0.000110370115
0.000110421867
0.000107194914
0.000106529292
0.000107990998
0.000110264467
0.000110392623
0.000110275344
0.000107750176
0.000106527946
0.000107136612
0.000106214873
0.000106719678
0.000110212111
0.000110377231
0.000106159725
0.000106546826
0.000110273631
0.000110295816
0.000110304545
0.000106275137
0.000105894612
0.000110280917
0.000110290137
0.000107286435
0.000106111469
0.000107110718
0.000110260862
0.000110387686
0.000106967769
0.000106845965
0.000110332661
0.000110367516
0.000107655102
0.000106307653
0.000107160697
0.00011032053
0.0001104221
0.000106938861
0.000106815032
0.00011035958
0.000110386098
0.000107653282
0.000106311265
0.000107137759
0.000110328483
0.000110421002
0.000106958176
0.000106819203
0.000110371098
0.000110382825
0.000107774579
0.000106328874
0.000107119145
0.000110325136
0.000110431904
0.000106997259
0.000106852572
0.000110365879
0.000110394797
0.000107763987
0.000106645523
0.000107217827
0.000110368172
0.000110421103
0.000107759459
0.000106684291
0.00010715901
0.000110380243
0.000110390916
0.000107567072
0.000106332052
0.000106925071
0.000110293271
0.000110425552
0.000106612912
0.000106577006
0.000110302985
0.000110390208
0.000106729645
0.000107266077
0.00011038907
0.000107659506
0.000106794953
0.000110321847
0.000110365074
0.000108073712
0.000106567682
0.000106590899
0.000110404313
0.000110370664
0.000107705972
0.000106255583
0.000107054991
0.000110317288
0.000110451752
0.000106658704
0.000107196781
0.000110373298
0.000107639679
0.000106585558
0.000110358332
0.000110330388
0.000107146304
0.000106633553
0.000110365007
0.000110274569
0.000107771146
0.000105643388
0.000106752063
0.000110231354
0.000110299402
0.000110271736
0.000105825888
0.000105842521
0.000110230453
0.000110212555
0.000110275569
0.000107100348
0.000105290377
0.000106304942
0.000110249835
0.000110277725
0.000107832964
0.000106451399
0.00010701777
0.000110334361
0.000110347792
0.000107761441
0.00010664938
0.000106931956
0.000110376167
0.000110393078
0.000107748524
0.000106639986
0.000106944986
0.000110393072
0.000110404995
0.000107738194
0.000106686458
0.000106927586
0.000110403289
0.000110407155
0.000107748707
0.000106447869
0.000106844477
0.000110368709
0.000110406082
0.00010719152
0.000106718379
0.000110384683
0.000110356718
0.000107761626
0.000106419235
0.000106809306
0.000110347217
0.000110403888
0.000107230405
0.000106731074
0.000110383749
0.000110350316
0.000107757557
0.00010642884
0.000106789296
0.000110338411
0.000110417677
0.000107272585
0.000106760173
0.000110372918
0.000110386428
0.00010776497
0.000106674882
0.000106823694
0.000110396712
0.000110387772
0.000107741063
0.000106413765
0.000106733873
0.000110357159
0.000110405079
0.000107327257
0.000106984288
0.000110360669
0.000110347242
0.000107783511
0.000107152202
0.000106762572
0.000106760902
0.00011030317
0.000110328253
0.000110310002
0.000107187647
0.000105999718
0.000110339302
0.000110279487
0.000107624467
0.000106006884
0.000106473137
0.000110271784
0.000110343093
0.000107154793
0.000106507768
0.000110338055
0.000110304232
0.000107787174
0.000106137426
0.000106515578
0.000110280735
0.000110389976
0.000106963065
0.000106575987
0.000110319283
0.000110375967
0.000107184563
0.000106831582
0.0001103669
0.000110337086
0.000107774857
0.000107043641
0.000107049872
0.000110325965
0.000110381709
0.000107790951
0.00010676788
0.000106766613
0.000110383521
0.000110350239
0.0001077532
0.000106506709
0.000106845508
0.000110348306
0.00011042118
0.000107301003
0.000106708477
0.000110378538
0.000110408583
0.000107775151
0.000106589905
0.000106659109
)
;

boundaryField
{
    closed
    {
        type            calculated;
        value           nonuniform List<scalar> 0();
    }
    open
    {
        type            calculated;
        value           nonuniform List<scalar> 0();
    }
    sides
    {
        type            empty;
    }
    procBoundary3to2
    {
        type            processor;
        value           uniform 0.000106616559;
    }
    procBoundary3to4
    {
        type            processor;
        value           uniform 0.000110405936;
    }
}


// ************************************************************************* //
