/*--------------------------------*- C++ -*----------------------------------*\
| =========                 |                                                 |
| \\      /  F ield         | OpenFOAM: The Open Source CFD Toolbox           |
|  \\    /   O peration     | Version:  2306                                  |
|   \\  /    A nd           | Website:  www.openfoam.com                      |
|    \\/     M anipulation  |                                                 |
\*---------------------------------------------------------------------------*/
FoamFile
{
    version     2.0;
    format      ascii;
    arch        "LSB;label=32;scalar=64";
    class       volScalarField;
    location    "0.00074";
    object      rho;
}
// * * * * * * * * * * * * * * * * * * * * * * * * * * * * * * * * * * * * * //

dimensions      [1 -3 0 0 0 0 0];

internalField   nonuniform List<scalar> 
531
(
0.940797336
0.90515054
0.904106609
0.942301173
0.95888125
0.946379714
0.905263984
0.903131969
0.949298055
0.952514052
0.905273955
0.904308356
0.939218324
0.964660564
0.95021741
0.904378357
0.903393928
0.937596579
0.949994533
0.951305672
0.943609614
0.904337422
0.903543741
0.940511066
0.953240492
0.941162613
0.904006361
0.903935073
0.940432902
0.957599731
0.943199676
0.904718517
0.903628674
0.903810765
0.946425213
0.963947439
0.946099818
0.904875428
0.904147038
0.946434444
0.963214665
0.94666952
0.905258311
0.904279931
0.904688891
0.948165614
0.964426774
0.940678844
0.906641123
0.903581363
0.967171188
0.970350172
0.906009508
0.904598706
0.954690007
0.955631801
0.905492492
0.905948307
0.939794494
0.96726942
0.950217933
0.906453647
0.903762447
0.904901907
0.949973449
0.96787316
0.940620957
0.90619512
0.903532091
0.944769373
0.955323514
0.938179977
0.904603599
0.904916659
0.947527391
0.967947007
0.946385653
0.905875418
0.90428179
0.904550031
0.958673091
0.96404447
0.904166712
0.905634372
0.940964204
0.968607514
0.947312529
0.905263401
0.904129885
0.904511991
0.945682163
0.958788231
0.957945764
0.951667323
0.903512389
0.904982145
0.939042939
0.959421132
0.949368872
0.904876071
0.902888773
0.951252573
0.953779171
0.905193014
0.903679538
0.955051378
0.951155455
0.904209194
0.905219153
0.90410149
0.947678282
0.960312207
0.963201198
0.951463337
0.90429217
0.905026394
0.903924628
0.957340668
0.96312034
0.90449377
0.904620011
0.904361134
0.904338025
0.948237878
0.9595375
0.948215498
0.955851311
0.944002535
0.904501773
0.904827161
0.939817703
0.959374463
0.944486336
0.904345903
0.904525201
0.904047986
0.963791989
0.961954593
0.904015467
0.905645353
0.903890926
0.951541052
0.963624582
0.965328197
0.954003608
0.904668845
0.904785342
0.904458464
0.945275217
0.967616796
0.939906328
0.906012302
0.903917413
0.906109476
0.903692608
0.965488884
0.968855433
0.970127003
0.955278513
0.904342615
0.905163686
0.903861094
0.904881986
0.937956626
0.960850618
0.951916776
0.96476705
0.950350788
0.903737534
0.904233124
0.903500867
0.904004912
0.940893638
0.95739062
0.945824273
0.958227048
0.942572442
0.904154147
0.903907731
0.904192204
0.904016066
0.941905423
0.957674186
0.9477834
0.96407928
0.948239574
0.904604256
0.905246501
0.904314758
0.960483169
0.958100334
0.906626547
0.905329043
0.907943009
0.966805906
0.970348597
0.904518786
0.905045107
0.959274607
0.956081031
0.903186779
0.904931761
0.939009524
0.964440726
0.950563359
0.904212284
0.902936716
0.957971677
0.952742491
0.903127206
0.903762032
0.937811022
0.958375356
0.947818099
0.903763862
0.903402896
0.944300743
0.961414066
0.942938098
0.904063007
0.90417565
0.903688271
0.95067727
0.958776234
0.960186078
0.950111987
0.903713337
0.903956748
0.903464375
0.944660123
0.960118821
0.940261206
0.903972963
0.903304634
0.949601792
0.950585604
0.903906954
0.903828193
0.941153867
0.966662232
0.948510398
0.904791345
0.904118169
0.904802583
0.904235368
0.967678074
0.968079047
0.970124495
0.959472258
0.90408535
0.904670968
0.903944916
0.90407349
0.941918622
0.965807027
0.948836593
0.904333552
0.903446366
0.947440541
0.964480437
0.950210427
0.90400543
0.90300499
0.956287248
0.955437083
0.903576882
0.903226521
0.954375014
0.953644289
0.902998714
0.903144801
0.951180596
0.950409154
0.902743178
0.903106925
0.940527993
0.953861587
0.94342311
0.902906275
0.902491585
0.940260527
0.954956354
0.944866594
0.902830073
0.902069585
0.951108033
0.951451594
0.902770776
0.902444714
0.944685541
0.954521698
0.945805528
0.903058401
0.902556781
0.947095698
0.954861797
0.932999783
0.904026524
0.90305068
0.903908096
0.939364539
0.954847973
0.947747222
0.958485566
0.95260984
0.904366976
0.902857379
0.959121566
0.954612607
0.903662132
0.903643003
0.903363291
0.957769928
0.962194512
0.90379172
0.903578266
0.945959848
0.959652498
0.948006931
0.903935696
0.902808307
0.949670221
0.951089582
0.903388852
0.902943164
0.941628141
0.957355836
0.947403109
0.903351367
0.902470332
0.94999039
0.951434313
0.903101479
0.902751563
0.941632583
0.957300111
0.947656685
0.903260202
0.902473539
0.949751692
0.95137293
0.90298651
0.902780104
0.940163816
0.957083634
0.947863114
0.903283624
0.902368084
0.949286081
0.950974663
0.903026087
0.902691251
0.939963161
0.953387257
0.94670379
0.903032457
0.902471463
0.93921423
0.952933739
0.947390699
0.902868544
0.90274843
0.942618268
0.957035874
0.950121317
0.903524483
0.902383106
0.953763093
0.954183914
0.903418701
0.902766669
0.952401062
0.946138588
0.902630486
0.941540471
0.951637737
0.903370215
0.902986811
0.931500585
0.95429022
0.954017406
0.902629892
0.902886029
0.939894676
0.957922313
0.948596321
0.903273157
0.902238801
0.953223971
0.946940611
0.902739252
0.941762292
0.954074429
0.903034214
0.903313745
0.947526937
0.953509885
0.903017397
0.903747625
0.939493985
0.965026248
0.95212706
0.90389772
0.903500271
0.903652851
0.962913345
0.962710567
0.903758574
0.904374148
0.903412768
0.94805578
0.969126845
0.957325021
0.903994608
0.903703444
0.938556025
0.955616149
0.949012072
0.903281104
0.903154015
0.938493875
0.953306636
0.950008238
0.902886564
0.902690331
0.939370645
0.953412158
0.949851199
0.902715676
0.90258249
0.939029767
0.95286635
0.950050755
0.902606485
0.902572666
0.939794186
0.955643817
0.951015898
0.902787366
0.902548531
0.946958793
0.952482688
0.902696369
0.90297492
0.939949405
0.955964487
0.951415946
0.902980252
0.902558237
0.946495079
0.952324364
0.902686961
0.903020698
0.939934373
0.955841837
0.951639454
0.903054208
0.902416789
0.945992715
0.951974575
0.902778219
0.902687655
0.939548527
0.952963919
0.95122634
0.902610148
0.902695263
0.939565749
0.956002178
0.952269276
0.90284671
0.90253765
0.945337047
0.949341402
0.902877758
0.903141929
0.938734681
0.947376726
0.951920951
0.951938868
0.903125076
0.903297649
0.903187809
0.94695579
0.960802198
0.902957266
0.90353073
0.941846247
0.960706946
0.955285586
0.903568679
0.903031216
0.947327829
0.954873608
0.902978086
0.903335997
0.93992816
0.959175934
0.954778337
0.903450653
0.902580861
0.949551592
0.954066961
0.9030127
0.902736106
0.946959176
0.951077575
0.902689032
0.903150849
0.939448655
0.9485973
0.948521403
0.903209709
0.902718109
0.93901412
0.951803548
0.951816992
0.902588684
0.902938153
0.939723576
0.954840388
0.950889225
0.902830138
0.902299677
0.945566314
0.952483179
0.902520201
0.902359391
0.939429112
0.953860051
0.953051305
)
;

boundaryField
{
    closed
    {
        type            calculated;
        value           nonuniform List<scalar> 0();
    }
    open
    {
        type            calculated;
        value           nonuniform List<scalar> 0();
    }
    sides
    {
        type            empty;
    }
    procBoundary3to2
    {
        type            processor;
        value           uniform 0.955099277;
    }
    procBoundary3to4
    {
        type            processor;
        value           uniform 0.902372112;
    }
}


// ************************************************************************* //
