/*--------------------------------*- C++ -*----------------------------------*\
| =========                 |                                                 |
| \\      /  F ield         | OpenFOAM: The Open Source CFD Toolbox           |
|  \\    /   O peration     | Version:  2306                                  |
|   \\  /    A nd           | Website:  www.openfoam.com                      |
|    \\/     M anipulation  |                                                 |
\*---------------------------------------------------------------------------*/
FoamFile
{
    version     2.0;
    format      ascii;
    arch        "LSB;label=32;scalar=64";
    class       volVectorField;
    location    "0.00074";
    object      U;
}
// * * * * * * * * * * * * * * * * * * * * * * * * * * * * * * * * * * * * * //

dimensions      [0 1 -1 0 0 0 0];

internalField   nonuniform List<vector> 
531
(
(0.355015764 0 0)
(0.361443032 0 0)
(0.3593538 0 0)
(0.357431361 0 0)
(0.36108355 0 0)
(0.355841942 0 0)
(0.352558627 0 0)
(0.348507624 0 0)
(0.343365199 0 0)
(0.348105635 0 0)
(0.353932981 0 0)
(0.34975641 0 0)
(0.339386432 0 0)
(0.335476478 0 0)
(0.334423222 0 0)
(0.334240249 0 0)
(0.330093379 0 0)
(0.320750912 0 0)
(0.318421562 0 0)
(0.319145649 0 0)
(0.312700767 0 0)
(0.30809028 0 0)
(0.303188012 0 0)
(0.292447261 0 0)
(0.287830543 0 0)
(0.290601181 0 0)
(0.295070072 0 0)
(0.290664567 0 0)
(0.280309855 0 0)
(0.275153305 0 0)
(0.270869315 0 0)
(0.26921898 0 0)
(0.268591717 0 0)
(0.262857581 0 0)
(0.257841505 0 0)
(0.258438202 0 0)
(0.253270999 0 0)
(0.248194699 0 0)
(0.244122712 0 0)
(0.24090671 0 0)
(0.24182583 0 0)
(0.237180677 0 0)
(0.234195566 0 0)
(0.232918284 0 0)
(0.227628798 0 0)
(0.223820046 0 0)
(0.225060067 0 0)
(0.226363781 0 0)
(0.227906848 0 0)
(0.222880434 0 0)
(0.215379633 0 0)
(0.218864888 0 0)
(0.228859701 0 0)
(0.229248918 0 0)
(0.221203845 0 0)
(0.216903844 0 0)
(0.216727501 0 0)
(0.212237323 0 0)
(0.20409065 0 0)
(0.198057446 0 0)
(0.194637036 0 0)
(0.196134707 0 0)
(0.197871596 0 0)
(0.195082415 0 0)
(0.193318138 0 0)
(0.193719115 0 0)
(0.193510751 0 0)
(0.194674851 0 0)
(0.193003972 0 0)
(0.192379503 0 0)
(0.195431163 0 0)
(0.19594858 0 0)
(0.196267523 0 0)
(0.193944645 0 0)
(0.193381407 0 0)
(0.195352385 0 0)
(0.190658352 0 0)
(0.188736304 0 0)
(0.189940232 0 0)
(0.186430267 0 0)
(0.18193817 0 0)
(0.181285427 0 0)
(0.183242634 0 0)
(0.181310885 0 0)
(0.174980396 0 0)
(0.170677484 0 0)
(0.168756774 0 0)
(0.168783224 0 0)
(0.168862929 0 0)
(0.165015562 0 0)
(0.160281441 0 0)
(0.159658727 0 0)
(0.160937033 0 0)
(0.158240732 0 0)
(0.155344304 0 0)
(0.152661325 0 0)
(0.14756129 0 0)
(0.144711489 0 0)
(0.143174623 0 0)
(0.142531783 0 0)
(0.14014753 0 0)
(0.136061179 0 0)
(0.135832926 0 0)
(0.138019296 0 0)
(0.136309432 0 0)
(0.132071655 0 0)
(0.129051996 0 0)
(0.128072391 0 0)
(0.128222521 0 0)
(0.125990892 0 0)
(0.123993143 0 0)
(0.124427315 0 0)
(0.123966926 0 0)
(0.120111382 0 0)
(0.117481334 0 0)
(0.117277673 0 0)
(0.114728602 0 0)
(0.112577967 0 0)
(0.113079647 0 0)
(0.114325088 0 0)
(0.114772683 0 0)
(0.113850494 0 0)
(0.112051391 0 0)
(0.10932 0 0)
(0.108697686 0 0)
(0.109614228 0 0)
(0.109589451 0 0)
(0.106539983 0 0)
(0.103549365 0 0)
(0.101690698 0 0)
(0.098418114 0 0)
(0.0965317228 0 0)
(0.0946759579 0 0)
(0.0939234477 0 0)
(0.093960575 0 0)
(0.0918981398 0 0)
(0.0913588452 0 0)
(0.0921691707 0 0)
(0.092330152 0 0)
(0.093093022 0 0)
(0.0919597083 0 0)
(0.0896754812 0 0)
(0.089976813 0 0)
(0.0910459254 0 0)
(0.0898076672 0 0)
(0.0889661778 0 0)
(0.0887544712 0 0)
(0.0875358246 0 0)
(0.0864998398 0 0)
(0.0873643625 0 0)
(0.0887231338 0 0)
(0.0901102781 0 0)
(0.0903984345 0 0)
(0.0903020598 0 0)
(0.0891491276 0 0)
(0.0886067306 0 0)
(0.0937059648 0 0)
(0.0971920419 0 0)
(0.0945210235 0 0)
(0.0919194367 0 0)
(0.0918538026 0 0)
(0.0920290222 0 0)
(0.0914002374 0 0)
(0.0881093867 0 0)
(0.0860975124 0 0)
(0.0890755031 0 0)
(0.0922072015 0 0)
(0.0914589333 0 0)
(0.0900361725 0 0)
(0.0897309855 0 0)
(0.0898303567 0 0)
(0.0895989789 0 0)
(0.0870333016 0 0)
(0.0859242284 0 0)
(0.0881491084 0 0)
(0.0899648156 0 0)
(0.0883620341 0 0)
(0.0858798283 0 0)
(0.0850983559 0 0)
(0.0849219492 0 0)
(0.0840644945 0 0)
(0.0822111751 0 0)
(0.0822341542 0 0)
(0.0834709517 0 0)
(0.0838955875 0 0)
(0.082928529 0 0)
(0.082518906 0 0)
(0.0821762891 0 0)
(0.0817666625 0 0)
(0.0794419859 0 0)
(0.0770085141 0 0)
(0.0715817781 0 0)
(0.064337597 0 0)
(0.0906219032 0 0)
(0.116691398 0 0)
(0.106739401 0 0)
(0.100093822 0 0)
(0.0981325395 0 0)
(0.0981498195 0 0)
(0.0985941831 0 0)
(0.097522283 0 0)
(0.0971103567 0 0)
(0.0946429123 0 0)
(0.0940570305 0 0)
(0.0953689592 0 0)
(0.0966585914 0 0)
(0.0962080631 0 0)
(0.0966520124 0 0)
(0.0983322673 0 0)
(0.0982687548 0 0)
(0.0979069719 0 0)
(0.0953857656 0 0)
(0.0956463886 0 0)
(0.0959879257 0 0)
(0.0959415218 0 0)
(0.0952368753 0 0)
(0.0947008245 0 0)
(0.0973715294 0 0)
(0.0971280678 0 0)
(0.0963298278 0 0)
(0.0956775349 0 0)
(0.0956177549 0 0)
(0.0949482152 0 0)
(0.0985454563 0 0)
(0.10041154 0 0)
(0.0989182624 0 0)
(0.098926462 0 0)
(0.0983944557 0 0)
(0.0983874997 0 0)
(0.0990675897 0 0)
(0.102799689 0 0)
(0.100790844 0 0)
(0.0983094287 0 0)
(0.0981003863 0 0)
(0.0982221938 0 0)
(0.100152516 0 0)
(0.101150962 0 0)
(0.10043986 0 0)
(0.0981286522 0 0)
(0.0979554018 0 0)
(0.0984747438 0 0)
(0.097610256 0 0)
(0.0964264196 0 0)
(0.0963828299 0 0)
(0.0969876515 0 0)
(0.0970075326 0 0)
(0.102483933 0 0)
(0.104457259 0 0)
(0.101575797 0 0)
(0.100057098 0 0)
(0.0991535292 0 0)
(0.099323982 0 0)
(0.0997833048 0 0)
(0.09678315 0 0)
(0.0956768143 0 0)
(0.095503864 0 0)
(0.0951385056 0 0)
(0.0939428897 0 0)
(0.0919777549 0 0)
(0.0940135734 0 0)
(0.0932511911 0 0)
(0.0926515172 0 0)
(0.0921414648 0 0)
(0.0908357891 0 0)
(0.0901296134 0 0)
(0.0898595037 0 0)
(0.0894143186 0 0)
(0.089041531 0 0)
(0.0904564812 0 0)
(0.0905519938 0 0)
(0.0895950775 0 0)
(0.0887285268 0 0)
(0.0885761763 0 0)
(0.0889650028 0 0)
(0.087897541 0 0)
(0.0856836479 0 0)
(0.0861709265 0 0)
(0.0855307005 0 0)
(0.0845226034 0 0)
(0.0834124742 0 0)
(0.0805188564 0 0)
(0.0802815297 0 0)
(0.0798156499 0 0)
(0.0797121833 0 0)
(0.0791751541 0 0)
(0.0787498597 0 0)
(0.0807588238 0 0)
(0.0820532631 0 0)
(0.0809969618 0 0)
(0.0792733216 0 0)
(0.0798704404 0 0)
(0.0784684127 0 0)
(0.0776214544 0 0)
(0.0767082613 0 0)
(0.0755530637 0 0)
(0.0771191617 0 0)
(0.078482643 0 0)
(0.0799226119 0 0)
(0.0801887363 0 0)
(0.0800662636 0 0)
(0.0777684448 0 0)
(0.0765452491 0 0)
(0.0776564425 0 0)
(0.0781825674 0 0)
(0.0773826753 0 0)
(0.0780569382 0 0)
(0.0779465997 0 0)
(0.0770679021 0 0)
(0.0767517427 0 0)
(0.0768319488 0 0)
(0.0770595304 0 0)
(0.0768078362 0 0)
(0.0775248192 0 0)
(0.0807633937 0 0)
(0.0832694121 0 0)
(0.0831108321 0 0)
(0.0810701344 0 0)
(0.0806728238 0 0)
(0.0798409128 0 0)
(0.0797200683 0 0)
(0.0796702871 0 0)
(0.0794254223 0 0)
(0.0808305449 0 0)
(0.0823426272 0 0)
(0.0822627145 0 0)
(0.0800528122 0 0)
(0.0795278368 0 0)
(0.0798721656 0 0)
(0.080655037 0 0)
(0.0806588946 0 0)
(0.080469951 0 0)
(0.0823751825 0 0)
(0.084366629 0 0)
(0.084248095 0 0)
(0.0818614817 0 0)
(0.0813325172 0 0)
(0.0818214968 0 0)
(0.0827441681 0 0)
(0.082832209 0 0)
(0.0827167703 0 0)
(0.0847448416 0 0)
(0.0869532053 0 0)
(0.0869773184 0 0)
(0.0852617314 0 0)
(0.0853607127 0 0)
(0.0861928139 0 0)
(0.0875215007 0 0)
(0.087616454 0 0)
(0.0873905504 0 0)
(0.0895970824 0 0)
(0.092007773 0 0)
(0.0911309772 0 0)
(0.0884564016 0 0)
(0.0888242225 0 0)
(0.089789426 0 0)
(0.0909620157 0 0)
(0.0905877011 0 0)
(0.0880601205 0 0)
(0.0879185568 0 0)
(0.0890564999 0 0)
(0.0907561343 0 0)
(0.0898056115 0 0)
(0.0876900878 0 0)
(0.0884231116 0 0)
(0.0890951275 0 0)
(0.0904829222 0 0)
(0.0903221758 0 0)
(0.089417327 0 0)
(0.0921477367 0 0)
(0.0953852883 0 0)
(0.09490579 0 0)
(0.0939620192 0 0)
(0.0943652233 0 0)
(0.0941175896 0 0)
(0.09310253 0 0)
(0.0932910213 0 0)
(0.0950630033 0 0)
(0.0947031393 0 0)
(0.0935806545 0 0)
(0.0943218039 0 0)
(0.096713663 0 0)
(0.0992100367 0 0)
(0.0981801079 0 0)
(0.0954288173 0 0)
(0.0946491074 0 0)
(0.0959153679 0 0)
(0.0979262342 0 0)
(0.0974485641 0 0)
(0.0963872826 0 0)
(0.0973664472 0 0)
(0.0975221442 0 0)
(0.0964072063 0 0)
(0.0969717129 0 0)
(0.0994258503 0 0)
(0.0982882242 0 0)
(0.0970908576 0 0)
(0.0993917863 0 0)
(0.101890009 0 0)
(0.101470174 0 0)
(0.0987123159 0 0)
(0.0977113137 0 0)
(0.0986720077 0 0)
(0.10049713 0 0)
(0.101268908 0 0)
(0.100231011 0 0)
(0.097590234 0 0)
(0.0988793668 0 0)
(0.102802448 0 0)
(0.103761928 0 0)
(0.102025427 0 0)
(0.0999771279 0 0)
(0.101283589 0 0)
(0.102666968 0 0)
(0.104387243 0 0)
(0.103933203 0 0)
(0.10059859 0 0)
(0.0995397012 0 0)
(0.100822067 0 0)
(0.102647307 0 0)
(0.101816074 0 0)
(0.0984909783 0 0)
(0.0978282812 0 0)
(0.0994657104 0 0)
(0.101607595 0 0)
(0.100998995 0 0)
(0.0977706517 0 0)
(0.096936543 0 0)
(0.0983051003 0 0)
(0.100280646 0 0)
(0.0996979116 0 0)
(0.0964795737 0 0)
(0.0953952881 0 0)
(0.0966512655 0 0)
(0.0986239933 0 0)
(0.0988724508 0 0)
(0.0963640403 0 0)
(0.0950009928 0 0)
(0.0961156155 0 0)
(0.0981293745 0 0)
(0.0978031411 0 0)
(0.0960646231 0 0)
(0.0968962316 0 0)
(0.0993396339 0 0)
(0.099096538 0 0)
(0.096099979 0 0)
(0.0946544025 0 0)
(0.0955712896 0 0)
(0.0976164674 0 0)
(0.0974198887 0 0)
(0.0956856101 0 0)
(0.0963439145 0 0)
(0.098740712 0 0)
(0.0987246462 0 0)
(0.0959399639 0 0)
(0.0944889722 0 0)
(0.0954905751 0 0)
(0.0976916466 0 0)
(0.0976647268 0 0)
(0.0959869668 0 0)
(0.0966761104 0 0)
(0.0992407816 0 0)
(0.0994527223 0 0)
(0.0968864245 0 0)
(0.0957588829 0 0)
(0.0972090466 0 0)
(0.0997844677 0 0)
(0.0995227409 0 0)
(0.0965225973 0 0)
(0.0956303443 0 0)
(0.0976508502 0 0)
(0.100593564 0 0)
(0.10086916 0 0)
(0.0992579545 0 0)
(0.0999628865 0 0)
(0.10262942 0 0)
(0.103208018 0 0)
(0.100957143 0 0)
(0.0989217797 0 0)
(0.0983093019 0 0)
(0.0983673829 0 0)
(0.10115594 0 0)
(0.103981094 0 0)
(0.102431489 0 0)
(0.100911128 0 0)
(0.102515843 0 0)
(0.105831993 0 0)
(0.106236517 0 0)
(0.10298 0 0)
(0.10092416 0 0)
(0.101977001 0 0)
(0.104746896 0 0)
(0.10518662 0 0)
(0.103274127 0 0)
(0.103617069 0 0)
(0.106543746 0 0)
(0.107272053 0 0)
(0.104152672 0 0)
(0.101963095 0 0)
(0.103434346 0 0)
(0.106654686 0 0)
(0.107159624 0 0)
(0.105170237 0 0)
(0.105984764 0 0)
(0.10950353 0 0)
(0.110204282 0 0)
(0.108086656 0 0)
(0.10841015 0 0)
(0.111569698 0 0)
(0.112558309 0 0)
(0.110382604 0 0)
(0.108696933 0 0)
(0.11139499 0 0)
(0.114925612 0 0)
(0.114407313 0 0)
(0.112205294 0 0)
(0.111120543 0 0)
(0.112375612 0 0)
(0.116154427 0 0)
(0.118126417 0 0)
(0.116048975 0 0)
(0.114880381 0 0)
(0.116107984 0 0)
(0.119059137 0 0)
(0.119849762 0 0)
(0.118503772 0 0)
(0.119981678 0 0)
(0.124099438 0 0)
(0.125362544 0 0)
(0.122927107 0 0)
(0.121741406 0 0)
(0.123574891 0 0)
)
;

boundaryField
{
    closed
    {
        type            noSlip;
    }
    open
    {
        type            inletOutlet;
        inletValue      nonuniform List<vector> 0();
        value           nonuniform List<vector> 0();
    }
    sides
    {
        type            empty;
    }
    procBoundary3to2
    {
        type            processor;
        value           uniform (0.35103959 0 0);
    }
    procBoundary3to4
    {
        type            processor;
        value           uniform (0.127242911 0 0);
    }
}


// ************************************************************************* //
