/*--------------------------------*- C++ -*----------------------------------*\
| =========                 |                                                 |
| \\      /  F ield         | OpenFOAM: The Open Source CFD Toolbox           |
|  \\    /   O peration     | Version:  2306                                  |
|   \\  /    A nd           | Website:  www.openfoam.com                      |
|    \\/     M anipulation  |                                                 |
\*---------------------------------------------------------------------------*/
FoamFile
{
    version     2.0;
    format      ascii;
    arch        "LSB;label=32;scalar=64";
    class       volScalarField;
    location    "0.00018";
    object      PV;
}
// * * * * * * * * * * * * * * * * * * * * * * * * * * * * * * * * * * * * * //

dimensions      [0 0 0 0 0 0 0];

internalField   nonuniform List<scalar> 
531
(
-0.0071583462
-0.00715797151
-0.00715782206
-0.00715798522
-0.0071580966
-0.0071580359
-0.00715797023
-0.00715798934
-0.00715802216
-0.00715801719
-0.00715800294
-0.00715800382
-0.00715800938
-0.00715800931
-0.00715800749
-0.00715800741
-0.00715800792
-0.007158008
-0.00715800789
-0.00715800785
-0.00715800789
-0.00715800791
-0.00715800791
-0.00715800791
-0.00715800792
-0.00715800792
-0.00715800793
-0.00715800793
-0.00715800794
-0.00715800795
-0.00715800795
-0.00715800796
-0.00715800796
-0.00715800797
-0.00715800797
-0.00715800798
-0.00715800799
-0.00715800799
-0.007158008
-0.007158008
-0.00715800801
-0.00715800801
-0.00715800802
-0.00715800803
-0.00715800803
-0.00715800804
-0.00715800804
-0.00715800805
-0.00715800805
-0.00715800806
-0.00715800806
-0.00715800807
-0.00715800808
-0.00715800808
-0.00715800809
-0.00715800809
-0.0071580081
-0.0071580081
-0.00715800811
-0.00715800811
-0.00715800811
-0.00715800812
-0.00715800812
-0.00715800813
-0.00715800813
-0.00715800814
-0.00715800814
-0.00715800815
-0.00715800815
-0.00715800816
-0.00715800816
-0.00715800816
-0.00715800817
-0.00715800817
-0.00715800818
-0.00715800818
-0.00715800819
-0.00715800819
-0.00715800819
-0.0071580082
-0.0071580082
-0.0071580082
-0.00715800821
-0.00715800821
-0.00715800821
-0.00715800822
-0.00715800822
-0.00715800822
-0.00715800823
-0.00715800823
-0.00715800823
-0.00715800823
-0.00715800824
-0.00715800824
-0.00715800824
-0.00715800824
-0.00715800825
-0.00715800825
-0.00715800825
-0.00715800825
-0.00715800825
-0.00715800825
-0.00715800826
-0.00715800826
-0.00715800826
-0.00715800826
-0.00715800826
-0.00715800827
-0.00715800827
-0.00715800827
-0.00715800827
-0.00715800827
-0.00715800828
-0.00715800828
-0.00715800828
-0.00715800828
-0.00715800829
-0.00715800829
-0.00715800829
-0.00715800829
-0.0071580083
-0.0071580083
-0.0071580083
-0.00715800831
-0.00715800831
-0.00715800831
-0.00715800832
-0.00715800832
-0.00715800833
-0.00715800833
-0.00715800834
-0.00715800834
-0.00715800835
-0.00715800835
-0.00715800836
-0.00715800836
-0.00715800837
-0.00715800837
-0.00715800838
-0.00715800839
-0.00715800839
-0.0071580084
-0.00715800841
-0.00715800841
-0.00715800842
-0.00715800843
-0.00715800843
-0.00715800844
-0.00715800845
-0.00715800845
-0.00715800846
-0.00715800847
-0.00715800848
-0.00715800848
-0.00715800849
-0.0071580085
-0.0071580085
-0.00715800851
-0.00715800852
-0.00715800853
-0.00715800853
-0.00715800854
-0.00715800855
-0.00715800856
-0.00715800856
-0.00715800857
-0.00715800858
-0.00715800859
-0.00715800859
-0.0071580086
-0.00715800861
-0.00715800862
-0.00715800863
-0.00715800863
-0.00715800864
-0.00715800865
-0.00715800866
-0.00715800866
-0.00715800867
-0.00715800868
-0.00715800869
-0.0071580087
-0.0071580087
-0.00715800871
-0.00715800872
-0.00715800873
-0.00715800874
-0.00715800875
-0.00715800875
-0.00715800876
-0.00715800877
-0.00715800878
-0.00715800879
-0.0071580088
-0.00715800881
-0.00715800882
-0.00715800883
-0.00715800883
-0.00715800885
-0.00715800885
-0.00715800886
-0.00715800887
-0.00715800888
-0.00715800889
-0.0071580089
-0.00715800891
-0.00715800892
-0.00715800892
-0.00715800893
-0.00715800894
-0.00715800895
-0.00715800896
-0.00715800897
-0.00715800898
-0.00715800899
-0.007158009
-0.00715800901
-0.00715800901
-0.00715800902
-0.00715800903
-0.00715800904
-0.00715800905
-0.00715800906
-0.00715800907
-0.00715800907
-0.00715800908
-0.00715800909
-0.0071580091
-0.00715800911
-0.00715800912
-0.00715800913
-0.00715800914
-0.00715800914
-0.00715800915
-0.00715800916
-0.00715800917
-0.00715800918
-0.00715800919
-0.00715800919
-0.0071580092
-0.00715800921
-0.00715800922
-0.00715800923
-0.00715800924
-0.00715800924
-0.00715800925
-0.00715800926
-0.00715800927
-0.00715800928
-0.00715800928
-0.00715800929
-0.0071580093
-0.00715800931
-0.00715800931
-0.00715800932
-0.00715800933
-0.00715800934
-0.00715800934
-0.00715800935
-0.00715800936
-0.00715800936
-0.00715800937
-0.00715800938
-0.00715800938
-0.00715800939
-0.0071580094
-0.0071580094
-0.00715800941
-0.00715800942
-0.00715800942
-0.00715800943
-0.00715800943
-0.00715800944
-0.00715800945
-0.00715800945
-0.00715800946
-0.00715800946
-0.00715800947
-0.00715800947
-0.00715800947
-0.00715800948
-0.00715800949
-0.00715800949
-0.0071580095
-0.0071580095
-0.00715800951
-0.00715800951
-0.00715800952
-0.00715800952
-0.00715800952
-0.00715800953
-0.00715800953
-0.00715800954
-0.00715800954
-0.00715800955
-0.00715800955
-0.00715800956
-0.00715800956
-0.00715800956
-0.00715800957
-0.00715800957
-0.00715800958
-0.00715800958
-0.00715800959
-0.00715800959
-0.00715800959
-0.0071580096
-0.0071580096
-0.00715800961
-0.00715800961
-0.00715800962
-0.00715800962
-0.00715800963
-0.00715800963
-0.00715800963
-0.00715800964
-0.00715800964
-0.00715800965
-0.00715800965
-0.00715800965
-0.00715800966
-0.00715800966
-0.00715800967
-0.00715800967
-0.00715800967
-0.00715800967
-0.00715800968
-0.00715800968
-0.00715800968
-0.00715800969
-0.00715800969
-0.00715800969
-0.0071580097
-0.0071580097
-0.0071580097
-0.0071580097
-0.00715800971
-0.00715800971
-0.00715800971
-0.00715800971
-0.00715800971
-0.00715800972
-0.00715800972
-0.00715800972
-0.00715800972
-0.00715800973
-0.00715800973
-0.00715800973
-0.00715800973
-0.00715800974
-0.00715800974
-0.00715800974
-0.00715800975
-0.00715800975
-0.00715800976
-0.00715800976
-0.00715800976
-0.00715800977
-0.00715800977
-0.00715800978
-0.00715800978
-0.00715800979
-0.0071580098
-0.0071580098
-0.00715800981
-0.00715800982
-0.00715800982
-0.00715800983
-0.00715800984
-0.00715800985
-0.00715800985
-0.00715800986
-0.00715800987
-0.00715800988
-0.00715800989
-0.0071580099
-0.00715800991
-0.00715800992
-0.00715800993
-0.00715800994
-0.00715800995
-0.00715800996
-0.00715800997
-0.00715800998
-0.00715800998
-0.00715800999
-0.00715801
-0.00715801001
-0.00715801002
-0.00715801003
-0.00715801004
-0.00715801005
-0.00715801006
-0.00715801007
-0.00715801008
-0.00715801009
-0.0071580101
-0.00715801011
-0.00715801011
-0.00715801012
-0.00715801013
-0.00715801014
-0.00715801015
-0.00715801015
-0.00715801016
-0.00715801017
-0.00715801018
-0.00715801018
-0.00715801019
-0.0071580102
-0.00715801021
-0.00715801021
-0.00715801022
-0.00715801023
-0.00715801023
-0.00715801024
-0.00715801025
-0.00715801025
-0.00715801026
-0.00715801026
-0.00715801027
-0.00715801028
-0.00715801028
-0.00715801029
-0.0071580103
-0.0071580103
-0.00715801031
-0.00715801032
-0.00715801033
-0.00715801033
-0.00715801034
-0.00715801034
-0.00715801035
-0.00715801036
-0.00715801037
-0.00715801038
-0.00715801038
-0.00715801039
-0.0071580104
-0.00715801041
-0.00715801042
-0.00715801043
-0.00715801044
-0.00715801045
-0.00715801046
-0.00715801047
-0.00715801048
-0.00715801049
-0.0071580105
-0.00715801051
-0.00715801052
-0.00715801053
-0.00715801054
-0.00715801056
-0.00715801057
-0.00715801058
-0.00715801059
-0.00715801061
-0.00715801062
-0.00715801063
-0.00715801064
-0.00715801065
-0.00715801067
-0.00715801068
-0.00715801069
-0.0071580107
-0.00715801071
-0.00715801072
-0.00715801074
-0.00715801074
-0.00715801076
-0.00715801077
-0.00715801078
-0.00715801079
-0.0071580108
-0.00715801081
-0.00715801082
-0.00715801083
-0.00715801084
-0.00715801085
-0.00715801086
-0.00715801086
-0.00715801088
-0.00715801088
-0.00715801089
-0.0071580109
-0.00715801091
-0.00715801091
-0.00715801092
-0.00715801093
-0.00715801094
-0.00715801096
-0.00715801097
-0.00715801093
-0.00715801089
-0.00715801097
-0.00715801132
-0.00715801131
-0.0071580102
-0.00715800939
-0.00715801162
-0.00715801655
-0.00715801506
-0.00715799753
-0.00715799226
-0.00715802637
-0.00715806626
-0.00715803885
-0.00715788813
-0.00715788319
-0.00715814553
-0.00715832907
-0.00715808435
-0.00715744759
-0.00715750429
-0.00715857929
-0.00715900376
-0.00715803896
-0.00715667976
-0.00715700721
-0.00715921566
-0.00715948107
-0.00715772322
-0.00715656474
-0.00715739004
-0.00715906405
-0.00715892773
-0.00715753308
-0.00715732305
-0.00715802314
-0.00715841585
)
;

boundaryField
{
    closed
    {
        type            zeroGradient;
    }
    open
    {
        type            zeroGradient;
    }
    sides
    {
        type            empty;
    }
    procBoundary3to2
    {
        type            processor;
        value           uniform -0.0071582197;
    }
    procBoundary3to4
    {
        type            processor;
        value           uniform -0.00715816247;
    }
}


// ************************************************************************* //
