/*--------------------------------*- C++ -*----------------------------------*\
| =========                 |                                                 |
| \\      /  F ield         | OpenFOAM: The Open Source CFD Toolbox           |
|  \\    /   O peration     | Version:  2306                                  |
|   \\  /    A nd           | Website:  www.openfoam.com                      |
|    \\/     M anipulation  |                                                 |
\*---------------------------------------------------------------------------*/
FoamFile
{
    version     2.0;
    format      ascii;
    arch        "LSB;label=32;scalar=64";
    class       volScalarField;
    location    "0.00146";
    object      alpha;
}
// * * * * * * * * * * * * * * * * * * * * * * * * * * * * * * * * * * * * * //

dimensions      [1 -1 -1 0 0 0 0];

internalField   nonuniform List<scalar> 
531
(
3.68519464e-05
3.68182817e-05
3.5439554e-05
3.53623534e-05
3.68485399e-05
3.68187318e-05
3.57191041e-05
3.52099025e-05
3.5304938e-05
3.68418185e-05
3.68180832e-05
3.5711798e-05
3.50487959e-05
3.52403292e-05
3.68300836e-05
3.68332111e-05
3.52938474e-05
3.5411666e-05
3.68484561e-05
3.68187359e-05
3.68319068e-05
3.57664214e-05
3.53715347e-05
3.53903979e-05
3.52926386e-05
3.4942412e-05
3.50778934e-05
3.68498756e-05
3.68103342e-05
3.68392148e-05
3.57412093e-05
3.54676852e-05
3.68380943e-05
3.68056873e-05
3.57560786e-05
3.55538421e-05
3.52564896e-05
3.52526763e-05
3.68327805e-05
3.68248765e-05
3.52581967e-05
3.52277024e-05
3.68266806e-05
3.68155442e-05
3.52067414e-05
3.52014432e-05
3.68130215e-05
3.6803886e-05
3.49780363e-05
3.50444123e-05
3.68348222e-05
3.68118152e-05
3.6820306e-05
3.68139468e-05
3.50672303e-05
3.49699841e-05
3.6823068e-05
3.6803737e-05
3.5169157e-05
3.53608539e-05
3.6837152e-05
3.56158359e-05
3.51679118e-05
3.68403125e-05
3.68043135e-05
3.68292423e-05
3.57609563e-05
3.52741389e-05
3.52366335e-05
3.51196913e-05
3.68367836e-05
3.6797851e-05
3.55281707e-05
3.48016401e-05
3.49927958e-05
3.68035991e-05
3.68160906e-05
3.51909837e-05
3.51159107e-05
3.68221112e-05
3.67917882e-05
3.50859914e-05
3.52036195e-05
3.68321812e-05
3.67980029e-05
3.68187173e-05
3.52041872e-05
3.50465499e-05
3.68596446e-05
3.67960895e-05
3.68520286e-05
3.67956256e-05
3.57056705e-05
3.52342019e-05
3.51341601e-05
3.50501445e-05
3.68577155e-05
3.68069133e-05
3.55852473e-05
3.50077716e-05
3.51706728e-05
3.68153749e-05
3.68365033e-05
3.55479785e-05
3.54400707e-05
3.68381083e-05
3.68222721e-05
3.55526916e-05
3.55231229e-05
3.6840622e-05
3.68132981e-05
3.57186774e-05
3.54591509e-05
3.51198532e-05
3.51417443e-05
3.68366293e-05
3.6816116e-05
3.49662858e-05
3.49877746e-05
3.68353544e-05
3.68132718e-05
3.53315496e-05
3.54234892e-05
3.68412735e-05
3.68161839e-05
3.68284666e-05
3.55337943e-05
3.53277545e-05
3.68595364e-05
3.68157211e-05
3.57157906e-05
3.52133678e-05
3.52764649e-05
3.68457157e-05
3.68211231e-05
3.57045282e-05
3.49047975e-05
3.50446387e-05
3.68271153e-05
3.68351224e-05
3.52195874e-05
3.51052069e-05
3.68418158e-05
3.68198311e-05
3.51407577e-05
3.51450431e-05
3.68457479e-05
3.68075003e-05
3.51165529e-05
3.52439006e-05
3.68526348e-05
3.68080618e-05
3.6841019e-05
3.54283165e-05
3.53180292e-05
3.6854214e-05
3.6812226e-05
3.68347756e-05
3.57805655e-05
3.53718432e-05
3.56442129e-05
3.54529399e-05
3.55828843e-05
3.53436039e-05
3.55027699e-05
3.68359915e-05
3.57584539e-05
3.52719463e-05
3.68511511e-05
3.68295291e-05
3.54229907e-05
3.53841741e-05
3.68554296e-05
3.68198365e-05
3.52848206e-05
3.54151946e-05
3.68548303e-05
3.68161901e-05
3.68411337e-05
3.57366641e-05
3.49703223e-05
3.50693663e-05
3.68373299e-05
3.68222272e-05
3.57143252e-05
3.48914877e-05
3.51481076e-05
3.68279454e-05
3.68196089e-05
3.68080402e-05
3.58170188e-05
3.53329524e-05
3.54850808e-05
3.50912914e-05
3.51976129e-05
3.68400032e-05
3.68134608e-05
3.68372441e-05
3.56528644e-05
3.52372505e-05
3.68501045e-05
3.68192339e-05
3.53953782e-05
3.53402387e-05
3.68439357e-05
3.68124969e-05
3.52337725e-05
3.53721098e-05
3.68467732e-05
3.68007385e-05
3.68267306e-05
3.55824232e-05
3.50764105e-05
3.50743541e-05
3.51592823e-05
3.68392746e-05
3.54753151e-05
3.50297933e-05
3.68410329e-05
3.6797756e-05
3.68375769e-05
3.54477417e-05
3.52137167e-05
3.68455308e-05
3.67961512e-05
3.68348554e-05
3.57427179e-05
3.4900314e-05
3.50062377e-05
3.68265545e-05
3.68157577e-05
3.57250945e-05
3.49690216e-05
3.50871537e-05
3.68252494e-05
3.68123038e-05
3.55090379e-05
3.52851893e-05
3.68467877e-05
3.68002397e-05
3.57577133e-05
3.5227739e-05
3.52646816e-05
3.68357398e-05
3.68140732e-05
3.57192847e-05
3.49508091e-05
3.50733787e-05
3.6828631e-05
3.68267814e-05
3.53283391e-05
3.54251277e-05
3.68498734e-05
3.5723463e-05
3.49810059e-05
3.6860504e-05
3.68164307e-05
3.54200777e-05
3.52555097e-05
3.68599658e-05
3.67995068e-05
3.5483806e-05
3.52928026e-05
3.68534209e-05
3.67881419e-05
3.57399637e-05
3.49318468e-05
3.50785886e-05
3.68187971e-05
3.68231239e-05
3.68092219e-05
3.68239784e-05
3.52111879e-05
3.53220827e-05
3.6839494e-05
3.57184995e-05
3.48216344e-05
3.68374666e-05
3.67918184e-05
3.53359907e-05
3.51925989e-05
3.68353914e-05
3.67877717e-05
3.49063065e-05
3.50036252e-05
3.6842384e-05
3.67912188e-05
3.68168311e-05
3.57405613e-05
3.51417393e-05
3.4937774e-05
3.49577412e-05
3.68282552e-05
3.67965327e-05
3.680662e-05
3.57428241e-05
3.47643272e-05
3.50262966e-05
3.68116026e-05
3.6826072e-05
3.68026645e-05
3.68321768e-05
3.54305269e-05
3.54900743e-05
3.68493328e-05
3.56939192e-05
3.47841881e-05
3.6868915e-05
3.68134765e-05
3.52881739e-05
3.52383563e-05
3.68645994e-05
3.67958098e-05
3.59494875e-05
3.55392446e-05
3.51141364e-05
3.51300958e-05
3.68398922e-05
3.68029363e-05
3.58353487e-05
3.51655259e-05
3.53466955e-05
3.68348503e-05
3.57200725e-05
3.5251553e-05
3.6852697e-05
3.68023808e-05
3.68270029e-05
3.58449008e-05
3.53386092e-05
3.52330774e-05
3.52118023e-05
3.68457979e-05
3.68103661e-05
3.57370924e-05
3.51994676e-05
3.52394941e-05
3.68357601e-05
3.68037974e-05
3.57709567e-05
3.51194193e-05
3.52304777e-05
3.68040427e-05
3.68048558e-05
3.62897622e-05
3.53001657e-05
3.52393391e-05
3.68549272e-05
3.68037362e-05
3.57393382e-05
3.51416216e-05
3.51972533e-05
3.68429695e-05
3.6819639e-05
3.58975289e-05
3.52763931e-05
3.52935822e-05
3.68534029e-05
3.68178225e-05
3.57510068e-05
3.51873341e-05
3.5211497e-05
3.68452595e-05
3.68253169e-05
3.5722675e-05
3.51214942e-05
3.51495748e-05
3.68394246e-05
3.68197618e-05
3.57228604e-05
3.50262891e-05
3.50762008e-05
3.68298252e-05
3.68173407e-05
3.55120839e-05
3.51350972e-05
3.68476667e-05
3.68097837e-05
3.56918555e-05
3.47376521e-05
3.4899846e-05
3.6826578e-05
3.68182287e-05
3.6816045e-05
3.68112183e-05
3.68033086e-05
3.57457593e-05
3.54095806e-05
3.51148402e-05
3.51141759e-05
3.68407585e-05
3.68208704e-05
3.52983206e-05
3.51945257e-05
3.6847864e-05
3.6816142e-05
3.54484785e-05
3.52587601e-05
3.68537606e-05
3.68100505e-05
3.5728388e-05
3.51337466e-05
3.51779783e-05
3.68365909e-05
3.68229486e-05
3.55755617e-05
3.53060021e-05
3.68600262e-05
3.68089321e-05
3.57414508e-05
3.51382286e-05
3.53026002e-05
3.68302066e-05
3.58013259e-05
3.51779628e-05
3.68657987e-05
3.68120341e-05
3.57780853e-05
3.52662233e-05
3.52895788e-05
3.6839623e-05
3.68145553e-05
3.57724972e-05
3.5201605e-05
3.5215026e-05
3.68376739e-05
3.68134505e-05
3.57228639e-05
3.47821667e-05
3.49227472e-05
3.68231709e-05
3.68058527e-05
3.68147794e-05
3.52529202e-05
3.50872417e-05
3.68454074e-05
3.67983194e-05
3.6817146e-05
3.57401994e-05
3.47542973e-05
3.49898283e-05
3.68271747e-05
3.68166848e-05
3.6820928e-05
3.57069147e-05
3.53048926e-05
3.68567521e-05
3.68135762e-05
3.57732799e-05
3.54778927e-05
3.51984436e-05
3.51988552e-05
3.68437439e-05
3.68319906e-05
3.55181958e-05
3.53651321e-05
3.68423563e-05
3.6818709e-05
3.57532096e-05
3.54687313e-05
3.51519842e-05
3.51534042e-05
3.68210955e-05
3.68187311e-05
3.5246073e-05
3.51574203e-05
3.68222495e-05
3.68053333e-05
3.51085651e-05
3.51468089e-05
3.68335515e-05
3.67910291e-05
3.68089655e-05
3.54286243e-05
3.50039871e-05
3.68238978e-05
3.67981445e-05
3.52152947e-05
3.50693125e-05
3.68218494e-05
3.68079591e-05
3.50787072e-05
3.50567727e-05
3.68378044e-05
3.68131741e-05
3.68151802e-05
3.68138229e-05
3.57732196e-05
3.54225843e-05
3.52679543e-05
3.52948599e-05
3.68229458e-05
3.57438084e-05
3.51260366e-05
3.68335964e-05
3.67834345e-05
3.5997232e-05
3.53652374e-05
3.53488322e-05
3.48912744e-05
3.49156181e-05
3.68172689e-05
3.67888424e-05
3.68039411e-05
3.53174888e-05
3.51434731e-05
3.68356785e-05
3.67912174e-05
3.68199334e-05
3.55763135e-05
3.50467131e-05
3.68317852e-05
3.67997428e-05
3.52553103e-05
3.52853298e-05
3.68397557e-05
3.67986775e-05
3.68094882e-05
3.57576011e-05
3.53020711e-05
3.51660734e-05
3.51186761e-05
3.68265835e-05
3.67934808e-05
3.55845055e-05
3.46933645e-05
3.48417458e-05
3.6802459e-05
3.67885404e-05
3.67944514e-05
3.52550514e-05
)
;

boundaryField
{
    closed
    {
        type            calculated;
        value           nonuniform List<scalar> 0();
    }
    open
    {
        type            calculated;
        value           nonuniform List<scalar> 0();
    }
    sides
    {
        type            empty;
    }
    procBoundary1to0
    {
        type            processor;
        value           uniform 3.53303003e-05;
    }
    procBoundary1to2
    {
        type            processor;
        value           uniform 3.51431372e-05;
    }
}


// ************************************************************************* //
