/*--------------------------------*- C++ -*----------------------------------*\
| =========                 |                                                 |
| \\      /  F ield         | OpenFOAM: The Open Source CFD Toolbox           |
|  \\    /   O peration     | Version:  2306                                  |
|   \\  /    A nd           | Website:  www.openfoam.com                      |
|    \\/     M anipulation  |                                                 |
\*---------------------------------------------------------------------------*/
FoamFile
{
    version     2.0;
    format      ascii;
    arch        "LSB;label=32;scalar=64";
    class       volScalarField;
    location    "0.00146";
    object      mu;
}
// * * * * * * * * * * * * * * * * * * * * * * * * * * * * * * * * * * * * * //

dimensions      [1 -1 -1 0 0 0 0];

internalField   nonuniform List<scalar> 
531
(
2.03129401e-05
2.02915405e-05
1.96176654e-05
1.95749648e-05
2.03131553e-05
2.02912488e-05
1.97587056e-05
1.9493673e-05
1.95447176e-05
2.03078911e-05
2.02898324e-05
1.975475e-05
1.94068565e-05
1.95108147e-05
2.02978773e-05
2.03003109e-05
1.95388922e-05
1.96019263e-05
2.03089605e-05
2.02951689e-05
2.02991804e-05
1.97753193e-05
1.95796854e-05
1.95904779e-05
1.95372259e-05
1.93507668e-05
1.94225175e-05
2.03078825e-05
2.0288329e-05
2.03028384e-05
1.97685628e-05
1.96315284e-05
2.03081721e-05
2.02863228e-05
1.97705925e-05
1.96775707e-05
1.95186874e-05
1.95166542e-05
2.02994856e-05
2.02948802e-05
1.95194039e-05
1.95030985e-05
2.02956911e-05
2.02891187e-05
1.94914548e-05
1.94886863e-05
2.02863187e-05
2.02809878e-05
1.93687051e-05
1.94045574e-05
2.02957687e-05
2.02849348e-05
2.02875981e-05
2.02857705e-05
1.94164872e-05
1.93646536e-05
2.02927542e-05
2.02807578e-05
1.94717714e-05
1.95739919e-05
2.03007005e-05
1.9710888e-05
1.94708235e-05
2.03051625e-05
2.02852255e-05
2.02970489e-05
1.97761956e-05
1.95271803e-05
1.95080795e-05
1.94443022e-05
2.03033357e-05
2.02755296e-05
1.96642537e-05
1.92736175e-05
1.93775316e-05
2.02802091e-05
2.0287477e-05
1.948275e-05
1.94425723e-05
2.02920504e-05
2.02733713e-05
1.94269761e-05
1.94892994e-05
2.02962357e-05
2.02787565e-05
2.02875967e-05
1.94904759e-05
1.94052058e-05
2.03150773e-05
2.0276266e-05
2.03125693e-05
2.02761404e-05
1.97557196e-05
1.95053546e-05
1.94539589e-05
1.94072213e-05
2.03157037e-05
2.0281315e-05
1.96955401e-05
1.93843566e-05
1.9473522e-05
2.02896496e-05
2.03019625e-05
1.96745722e-05
1.9617134e-05
2.03054092e-05
2.02951945e-05
1.96776768e-05
1.96614103e-05
2.03078673e-05
2.02899697e-05
1.9765093e-05
1.9626701e-05
1.94452437e-05
1.94570892e-05
2.02993798e-05
2.02871487e-05
1.93631867e-05
1.9374654e-05
2.02998832e-05
2.02865845e-05
1.95587231e-05
1.96078166e-05
2.03039074e-05
2.0292456e-05
2.02959064e-05
1.96677259e-05
1.95563971e-05
2.0319407e-05
2.02892776e-05
1.9755377e-05
1.94955273e-05
1.95297231e-05
2.03097604e-05
2.02908808e-05
1.97538674e-05
1.93297474e-05
1.94059707e-05
2.02946858e-05
2.02992177e-05
1.94987479e-05
1.94376543e-05
2.03038569e-05
2.02905875e-05
1.9456785e-05
1.94586958e-05
2.03057446e-05
2.0283268e-05
1.94439602e-05
1.95114172e-05
2.03091032e-05
2.02861248e-05
2.0302374e-05
1.96106344e-05
1.95514565e-05
2.03119006e-05
2.0290684e-05
2.03001095e-05
1.97811458e-05
1.95799183e-05
1.97262496e-05
1.96231804e-05
1.96933217e-05
1.95647674e-05
1.96507131e-05
2.03014092e-05
1.97719724e-05
1.95272298e-05
2.03135097e-05
2.0298299e-05
1.96084784e-05
1.95871674e-05
2.03137091e-05
2.02926951e-05
1.95343981e-05
1.96037298e-05
2.03113048e-05
2.02936534e-05
2.03020111e-05
1.97670264e-05
1.93654282e-05
1.94185625e-05
2.03036331e-05
2.02907005e-05
1.9760899e-05
1.93225005e-05
1.94609355e-05
2.02944467e-05
2.0293927e-05
2.02841007e-05
1.97947635e-05
1.95587316e-05
1.9640801e-05
1.94295744e-05
1.94869293e-05
2.03011935e-05
2.02902604e-05
2.02999815e-05
1.973119e-05
1.95080176e-05
2.0311825e-05
2.02919708e-05
1.95934021e-05
1.95632972e-05
2.0305983e-05
2.02883884e-05
1.9506386e-05
1.95801714e-05
2.03047292e-05
2.0283194e-05
2.02921461e-05
1.96927672e-05
1.9420509e-05
1.94208449e-05
1.94649901e-05
2.03004934e-05
1.96347547e-05
1.93965722e-05
2.03025819e-05
2.02790404e-05
2.02996449e-05
1.96205772e-05
1.94951183e-05
2.0305205e-05
2.02803946e-05
2.02971517e-05
1.97767797e-05
1.93274061e-05
1.93842763e-05
2.02966049e-05
2.02868666e-05
1.97682224e-05
1.93638798e-05
1.94277794e-05
2.02947574e-05
2.02865336e-05
1.96540312e-05
1.95329685e-05
2.03108463e-05
2.02802866e-05
1.97718193e-05
1.95026691e-05
1.95228393e-05
2.03032647e-05
2.02872633e-05
1.97612493e-05
1.93541976e-05
1.9420908e-05
2.0295547e-05
2.02961301e-05
1.95570448e-05
1.96089787e-05
2.03079134e-05
1.97607336e-05
1.93709668e-05
2.03180957e-05
2.02888181e-05
1.96071386e-05
1.9517242e-05
2.03165746e-05
2.0279872e-05
1.96411351e-05
1.9536678e-05
2.03145488e-05
2.02718571e-05
1.97654472e-05
1.93432972e-05
1.94235037e-05
2.02869324e-05
2.02927221e-05
2.02825331e-05
2.0293998e-05
1.94935531e-05
1.95536238e-05
2.0299593e-05
1.97660354e-05
1.92846412e-05
2.03033165e-05
2.02731222e-05
1.9560954e-05
1.94828536e-05
2.02983203e-05
2.02716535e-05
1.93308747e-05
1.93821872e-05
2.03003885e-05
2.02762799e-05
2.02862283e-05
1.9777177e-05
1.94555905e-05
1.93472376e-05
1.93575598e-05
2.02915849e-05
2.02796227e-05
2.02791046e-05
1.97730254e-05
1.92534456e-05
1.93953818e-05
2.02824066e-05
2.02949085e-05
2.02797582e-05
2.03000852e-05
1.96110765e-05
1.96441219e-05
2.03058979e-05
1.97517976e-05
1.92652366e-05
2.03215904e-05
2.02861136e-05
1.95365099e-05
1.95080748e-05
2.0317282e-05
2.02793848e-05
1.98501518e-05
1.96693674e-05
1.9442228e-05
1.94502373e-05
2.03039603e-05
2.02811251e-05
1.98015016e-05
1.94692073e-05
1.95669279e-05
2.02989536e-05
1.97667486e-05
1.95153554e-05
2.03103715e-05
2.02840486e-05
2.02952167e-05
1.98064438e-05
1.95620144e-05
1.95058611e-05
1.94940877e-05
2.03074596e-05
2.02858399e-05
1.9767279e-05
1.9487509e-05
1.95091275e-05
2.03025217e-05
2.02819595e-05
1.97768731e-05
1.94439793e-05
1.95044901e-05
2.02779993e-05
2.02837675e-05
2.00076375e-05
1.9542043e-05
1.95080033e-05
2.03131602e-05
2.02820361e-05
1.9764747e-05
1.94566888e-05
1.94870571e-05
2.0305156e-05
2.02921519e-05
1.98274639e-05
1.95294126e-05
1.95383304e-05
2.03129853e-05
2.02909166e-05
1.97684261e-05
1.94814386e-05
1.94946658e-05
2.03079041e-05
2.02946761e-05
1.97620719e-05
1.94460142e-05
1.94612956e-05
2.0304025e-05
2.02907083e-05
1.97632238e-05
1.93946368e-05
1.94220207e-05
2.02965037e-05
2.02891066e-05
1.9655691e-05
1.94526967e-05
2.030897e-05
2.02835122e-05
1.97521624e-05
1.92396216e-05
1.93277323e-05
2.02898808e-05
2.02904521e-05
2.02864532e-05
2.02892961e-05
2.02826457e-05
1.97727315e-05
1.95998995e-05
1.94423629e-05
1.94421272e-05
2.0300427e-05
2.02919068e-05
1.95409005e-05
1.94851033e-05
2.03063234e-05
2.02896428e-05
1.9621713e-05
1.95191539e-05
2.03126257e-05
2.02856678e-05
1.97622354e-05
1.94522464e-05
1.9476731e-05
2.03012239e-05
2.0293728e-05
1.96899635e-05
1.95445215e-05
2.0317037e-05
2.02853727e-05
1.97643367e-05
1.9454528e-05
1.95439731e-05
2.02955621e-05
1.97865859e-05
1.94761674e-05
2.03204789e-05
2.02873184e-05
1.97777897e-05
1.95234585e-05
1.95363272e-05
2.03045285e-05
2.028903e-05
1.97776586e-05
1.94887897e-05
1.94960456e-05
2.03025576e-05
2.0286197e-05
1.97675957e-05
1.92634186e-05
1.93395623e-05
2.02873138e-05
2.02823022e-05
2.02844965e-05
1.9516246e-05
1.94271089e-05
2.03002624e-05
2.02811888e-05
2.0285184e-05
1.97732999e-05
1.92484911e-05
1.93756954e-05
2.0290509e-05
2.0291394e-05
2.02900527e-05
1.97603259e-05
1.9543928e-05
2.03145967e-05
2.02899197e-05
1.97765672e-05
1.96371346e-05
1.94875084e-05
1.94879962e-05
2.03033595e-05
2.0299686e-05
1.9658861e-05
1.95767682e-05
2.0305257e-05
2.02931781e-05
1.9773641e-05
1.96320036e-05
1.94617892e-05
1.94632644e-05
2.02879214e-05
2.02907317e-05
1.95119952e-05
1.9465083e-05
2.02879918e-05
2.02828243e-05
1.94384831e-05
1.94588579e-05
2.0293811e-05
2.0275266e-05
2.0280689e-05
1.96100204e-05
1.93820407e-05
2.02903435e-05
2.02772817e-05
1.94956033e-05
1.94174887e-05
2.02877366e-05
2.02835657e-05
1.94224751e-05
1.94111822e-05
2.02960198e-05
2.02872296e-05
2.02875748e-05
2.02887365e-05
1.97824178e-05
1.96069349e-05
1.95238356e-05
1.95387005e-05
2.02904902e-05
1.97712891e-05
1.94475052e-05
2.0298962e-05
2.02704068e-05
1.98721734e-05
1.95755306e-05
1.95668351e-05
1.93217969e-05
1.93347932e-05
2.0284121e-05
2.02723758e-05
2.02785258e-05
1.95504326e-05
1.94568114e-05
2.02939316e-05
2.02760104e-05
2.0286522e-05
1.9689465e-05
1.94050836e-05
2.02958177e-05
2.02793819e-05
1.95177048e-05
1.95331844e-05
2.02993733e-05
2.02824984e-05
2.02839107e-05
1.97764592e-05
1.95416476e-05
1.94696498e-05
1.94434721e-05
2.02923827e-05
2.02729403e-05
1.96937445e-05
1.92152076e-05
1.92955288e-05
2.02742836e-05
2.0271482e-05
2.02724324e-05
1.95167398e-05
)
;

boundaryField
{
    closed
    {
        type            calculated;
        value           nonuniform List<scalar> 0();
    }
    open
    {
        type            calculated;
        value           nonuniform List<scalar> 0();
    }
    sides
    {
        type            empty;
    }
    procBoundary1to0
    {
        type            processor;
        value           uniform 1.95580831e-05;
    }
    procBoundary1to2
    {
        type            processor;
        value           uniform 1.94562572e-05;
    }
}


// ************************************************************************* //
