/*--------------------------------*- C++ -*----------------------------------*\
| =========                 |                                                 |
| \\      /  F ield         | OpenFOAM: The Open Source CFD Toolbox           |
|  \\    /   O peration     | Version:  2306                                  |
|   \\  /    A nd           | Website:  www.openfoam.com                      |
|    \\/     M anipulation  |                                                 |
\*---------------------------------------------------------------------------*/
FoamFile
{
    version     2.0;
    format      ascii;
    arch        "LSB;label=32;scalar=64";
    class       volScalarField;
    location    "0.00146";
    object      p;
}
// * * * * * * * * * * * * * * * * * * * * * * * * * * * * * * * * * * * * * //

dimensions      [1 -1 -2 0 0 0 0];

internalField   nonuniform List<scalar> 
531
(
101286.766
101286.88
101286.992
101287.111
101287.219
101287.338
101287.457
101287.586
101287.714
101287.82
101287.946
101288.071
101288.207
101288.343
101288.463
101288.596
101288.734
101288.876
101289
101289.137
101289.275
101289.415
101289.56
101289.711
101289.864
101290.033
101290.198
101290.328
101290.481
101290.64
101290.801
101290.966
101291.118
101291.28
101291.438
101291.6
101291.789
101291.964
101292.116
101292.283
101292.453
101292.638
101292.801
101292.975
101293.146
101293.335
101293.506
101293.684
101293.865
101294.044
101294.204
101294.375
101294.553
101294.73
101294.906
101295.11
101295.279
101295.463
101295.648
101295.837
101296.003
101296.171
101296.383
101296.535
101296.711
101296.886
101297.059
101297.236
101297.425
101297.593
101297.74
101297.902
101298.046
101298.237
101298.416
101298.553
101298.712
101298.865
101299.039
101299.19
101299.352
101299.511
101299.668
101299.808
101299.962
101300.115
101300.262
101300.427
101300.562
101300.712
101300.861
101301.012
101301.159
101301.309
101301.482
101301.634
101301.766
101301.915
101302.046
101302.219
101302.381
101302.503
101302.647
101302.782
101302.937
101303.067
101303.21
101303.344
101303.488
101303.614
101303.754
101303.886
101304.016
101304.169
101304.307
101304.426
101304.566
101304.703
101304.831
101304.947
101305.079
101305.203
101305.33
101305.443
101305.567
101305.691
101305.809
101305.94
101306.053
101306.184
101306.308
101306.439
101306.572
101306.679
101306.808
101306.935
101307.071
101307.214
101307.319
101307.449
101307.574
101307.72
101307.843
101307.981
101308.214
101308.313
101308.403
101308.51
101308.618
101308.728
101308.825
101308.938
101309.054
101309.163
101309.299
101309.406
101309.532
101309.659
101309.786
101309.919
101310.057
101310.194
101310.336
101310.486
101310.646
101310.773
101310.917
101311.073
101311.207
101311.356
101311.501
101311.657
101311.799
101311.954
101312.108
101312.268
101312.405
101312.558
101312.716
101312.875
101313.046
101313.223
101313.362
101313.526
101313.693
101313.869
101314.053
101314.202
101314.374
101314.55
101314.721
101314.9
101315.092
101315.286
101315.487
101315.649
101315.833
101316.019
101316.2
101316.413
101316.596
101316.789
101316.98
101317.186
101317.373
101317.567
101317.766
101317.971
101318.15
101318.342
101318.536
101318.722
101318.947
101319.172
101319.395
101319.584
101319.781
101320.03
101320.219
101320.429
101320.639
101320.843
101321.093
101321.295
101321.515
101321.74
101321.969
101322.211
101322.46
101322.662
101322.892
101323.128
101323.374
101323.63
101323.839
101324.072
101324.306
101324.565
101324.795
101325.037
101325.28
101325.542
101325.804
101326.03
101326.277
101326.528
101326.795
101327.07
101327.309
101327.566
101327.829
101328.12
101328.363
101328.624
101328.904
101329.145
101329.405
101329.67
101329.951
101330.206
101330.47
101330.739
101331.03
101331.293
101331.567
101331.842
101332.135
101332.437
101332.697
101332.97
101333.251
101333.527
101333.809
101334.124
101334.377
101334.649
101334.931
101335.165
101335.412
101335.65
101335.904
101336.125
101336.342
101336.561
101336.777
101336.939
101337.109
101337.272
101337.405
101337.956
101338.516
101339.044
101339.487
101339.949
101340.408
101340.86
101341.315
101341.785
101342.089
101342.495
101342.934
101343.339
101343.614
101344.064
101344.445
101344.84
101345.256
101345.6
101345.956
101346.301
101346.686
101347.026
101347.368
101347.708
101348.054
101348.438
101348.798
101349.112
101349.437
101349.764
101350.112
101350.478
101350.755
101351.077
101351.424
101351.727
101352.038
101352.362
101352.63
101352.951
101353.309
101353.612
101353.908
101354.184
101354.461
101354.797
101355.17
101355.434
101355.718
101356.001
101356.294
101356.694
101356.917
101357.199
101357.526
101357.757
101358.012
101358.338
101358.593
101358.849
101359.128
101359.433
101359.662
101359.902
101360.135
101360.387
101360.64
101360.864
101361.083
101361.298
101361.535
101361.768
101361.963
101362.164
101362.368
101362.586
101362.804
101362.993
101363.188
101363.39
101363.611
101363.84
101364.04
101364.244
101364.451
101364.699
101364.947
101365.178
101365.388
101365.692
101365.982
101366.203
101366.448
101366.705
101366.969
101367.236
101367.506
101367.783
101368.089
101368.376
101368.66
101368.928
101369.194
101369.503
101369.795
101370.06
101370.32
101370.615
101370.892
101371.147
101371.405
101371.678
101371.949
101372.178
101372.401
101372.614
101372.859
101373.088
101373.298
101373.507
101373.729
101373.969
101374.145
101374.327
101374.529
101374.729
101374.912
101375.072
101375.254
101375.432
101375.583
101375.731
101375.875
101376.033
101376.183
101376.31
101376.434
101376.558
101376.691
101376.831
101376.93
101377.031
101377.128
101377.214
101377.326
101377.417
101377.499
101377.578
101377.643
101377.714
101377.8
101377.837
101377.88
101377.924
101377.964
101378.137
101378.304
101378.454
101378.601
101378.752
101378.911
101379.043
101379.159
101379.263
101379.366
101379.483
101379.583
101379.666
101379.747
101379.833
101379.926
101380.003
101380.068
101380.118
101380.171
101380.24
101380.291
101380.325
101380.363
101380.41
101380.445
101380.47
101380.494
101380.511
101380.539
101380.561
101380.571
101380.58
101380.599
101380.604
101380.595
101380.59
101380.591
101380.578
101380.56
101380.547
101380.528
101380.508
101380.495
101380.488
101380.47
101380.437
101380.408
101380.395
101380.369
101380.342
101380.315
101380.278
101380.247
101380.221
101380.188
101380.147
101380.101
101380.052
101380.002
101379.961
101379.909
101379.849
101379.783
101379.713
101379.65
101379.571
101379.473
101379.372
101379.268
101379.329
101379.244
101379.152
101379.068
101378.986
101378.912
101378.819
101378.723
101378.621
101378.517
101378.426
101378.329
101378.218
101378.103
101377.988
101377.881
)
;

boundaryField
{
    closed
    {
        type            zeroGradient;
    }
    open
    {
        type            waveTransmissive;
        gamma           1.25;
        fieldInf        101325;
        lInf            1;
        value           nonuniform List<scalar> 0();
    }
    sides
    {
        type            empty;
    }
    procBoundary1to0
    {
        type            processor;
        value           uniform 101286.663;
    }
    procBoundary1to2
    {
        type            processor;
        value           uniform 101377.772;
    }
}


// ************************************************************************* //
