/*--------------------------------*- C++ -*----------------------------------*\
| =========                 |                                                 |
| \\      /  F ield         | OpenFOAM: The Open Source CFD Toolbox           |
|  \\    /   O peration     | Version:  2306                                  |
|   \\  /    A nd           | Website:  www.openfoam.com                      |
|    \\/     M anipulation  |                                                 |
\*---------------------------------------------------------------------------*/
FoamFile
{
    version     2.0;
    format      ascii;
    arch        "LSB;label=32;scalar=64";
    class       volScalarField;
    location    "0.00146";
    object      prefDZ_T;
}
// * * * * * * * * * * * * * * * * * * * * * * * * * * * * * * * * * * * * * //

dimensions      [1 -1 -1 -1 0 0 0];

internalField   nonuniform List<scalar> 
531
(
-1.22621956e-09
-1.22697101e-09
-1.18862425e-09
-1.18849125e-09
-1.22549974e-09
-1.22715407e-09
-1.19425915e-09
-1.18726958e-09
-1.18791196e-09
-1.22598135e-09
-1.22750411e-09
-1.19424687e-09
-1.18628244e-09
-1.18721893e-09
-1.22709707e-09
-1.22687839e-09
-1.18779471e-09
-1.18867576e-09
-1.22688621e-09
-1.22584474e-09
-1.22700824e-09
-1.19815984e-09
-1.18862123e-09
-1.18853854e-09
-1.18811224e-09
-1.18523881e-09
-1.18646579e-09
-1.22751659e-09
-1.22653333e-09
-1.22717524e-09
-1.1951889e-09
-1.18921459e-09
-1.2251792e-09
-1.22632041e-09
-1.19777308e-09
-1.18988172e-09
-1.18758651e-09
-1.18755592e-09
-1.22707233e-09
-1.22710872e-09
-1.18766224e-09
-1.18743282e-09
-1.22718071e-09
-1.2272599e-09
-1.1874152e-09
-1.18735476e-09
-1.22771602e-09
-1.22776068e-09
-1.18585998e-09
-1.18623542e-09
-1.22870306e-09
-1.22794915e-09
-1.22867348e-09
-1.22807515e-09
-1.18649227e-09
-1.18571848e-09
-1.22747539e-09
-1.22780923e-09
-1.18700089e-09
-1.18853465e-09
-1.22749759e-09
-1.19030399e-09
-1.18708215e-09
-1.22660705e-09
-1.22642594e-09
-1.22721401e-09
-1.19651639e-09
-1.18802208e-09
-1.18743412e-09
-1.18695897e-09
-1.22654665e-09
-1.22843727e-09
-1.18955448e-09
-1.18481244e-09
-1.18566792e-09
-1.22796637e-09
-1.22791244e-09
-1.18738666e-09
-1.18683694e-09
-1.22752872e-09
-1.22800599e-09
-1.18648472e-09
-1.18754789e-09
-1.22804471e-09
-1.22738797e-09
-1.22837189e-09
-1.18727194e-09
-1.18641066e-09
-1.22696932e-09
-1.2278564e-09
-1.22635916e-09
-1.22781019e-09
-1.19242822e-09
-1.18787297e-09
-1.18645019e-09
-1.18640724e-09
-1.22639292e-09
-1.22822686e-09
-1.18974818e-09
-1.18616e-09
-1.18671084e-09
-1.22705029e-09
-1.22695233e-09
-1.18979316e-09
-1.18888564e-09
-1.22610544e-09
-1.22650848e-09
-1.18964314e-09
-1.18956186e-09
-1.22576175e-09
-1.22654852e-09
-1.19147666e-09
-1.18923383e-09
-1.18668523e-09
-1.18680369e-09
-1.22783966e-09
-1.22802699e-09
-1.18552654e-09
-1.18569284e-09
-1.22742894e-09
-1.22767477e-09
-1.18818473e-09
-1.18890352e-09
-1.22720939e-09
-1.22626624e-09
-1.22744839e-09
-1.18944941e-09
-1.18825099e-09
-1.22550106e-09
-1.22724043e-09
-1.19490362e-09
-1.18729514e-09
-1.18762346e-09
-1.2260976e-09
-1.22773174e-09
-1.19294519e-09
-1.18525417e-09
-1.1858215e-09
-1.2275994e-09
-1.22760727e-09
-1.18737551e-09
-1.18649817e-09
-1.22732941e-09
-1.22758409e-09
-1.18672461e-09
-1.18687885e-09
-1.22744623e-09
-1.22768583e-09
-1.18650602e-09
-1.18766443e-09
-1.22763333e-09
-1.22683794e-09
-1.22767362e-09
-1.18886468e-09
-1.18809438e-09
-1.22699843e-09
-1.22610598e-09
-1.2272432e-09
-1.19896262e-09
-1.18860182e-09
-1.19046264e-09
-1.18925029e-09
-1.19003381e-09
-1.18840431e-09
-1.18934701e-09
-1.22703997e-09
-1.19773577e-09
-1.18761407e-09
-1.22587788e-09
-1.22685069e-09
-1.18860343e-09
-1.18848573e-09
-1.22662498e-09
-1.22688072e-09
-1.18762023e-09
-1.18872917e-09
-1.22731488e-09
-1.22586725e-09
-1.22781674e-09
-1.19479045e-09
-1.18552956e-09
-1.18620792e-09
-1.22655111e-09
-1.22800194e-09
-1.19223767e-09
-1.18519834e-09
-1.18670881e-09
-1.22783715e-09
-1.22642577e-09
-1.22751022e-09
-1.201646e-09
-1.18843277e-09
-1.18935655e-09
-1.1866e-09
-1.18723263e-09
-1.22787504e-09
-1.22648227e-09
-1.22775545e-09
-1.19042936e-09
-1.18756433e-09
-1.22624203e-09
-1.22700825e-09
-1.18849296e-09
-1.18827349e-09
-1.22702184e-09
-1.22692461e-09
-1.18746505e-09
-1.18856849e-09
-1.2279807e-09
-1.22642524e-09
-1.22837513e-09
-1.19012837e-09
-1.18684638e-09
-1.18636869e-09
-1.1874096e-09
-1.22797051e-09
-1.18954544e-09
-1.18618118e-09
-1.22760677e-09
-1.22724619e-09
-1.22793126e-09
-1.18915433e-09
-1.18748882e-09
-1.2275853e-09
-1.22648868e-09
-1.22824708e-09
-1.19208237e-09
-1.18520311e-09
-1.18591009e-09
-1.22685134e-09
-1.22805314e-09
-1.19163419e-09
-1.185795e-09
-1.18643488e-09
-1.22722068e-09
-1.22750777e-09
-1.1894056e-09
-1.18814401e-09
-1.22593842e-09
-1.22730187e-09
-1.1976287e-09
-1.18757711e-09
-1.18772134e-09
-1.22637187e-09
-1.2276003e-09
-1.19322808e-09
-1.18564243e-09
-1.1861735e-09
-1.22759976e-09
-1.22705317e-09
-1.18814818e-09
-1.18882465e-09
-1.22750586e-09
-1.19440689e-09
-1.18566464e-09
-1.22612357e-09
-1.22752893e-09
-1.18851187e-09
-1.18787453e-09
-1.22652977e-09
-1.2273011e-09
-1.18902303e-09
-1.18831736e-09
-1.22596218e-09
-1.22781882e-09
-1.19622263e-09
-1.18574859e-09
-1.18627336e-09
-1.22860908e-09
-1.22749678e-09
-1.22825871e-09
-1.22723281e-09
-1.18753825e-09
-1.18812509e-09
-1.22831322e-09
-1.19104208e-09
-1.18485071e-09
-1.22668295e-09
-1.22809496e-09
-1.18826433e-09
-1.18764313e-09
-1.22795838e-09
-1.22781649e-09
-1.18516181e-09
-1.18611394e-09
-1.22859699e-09
-1.22692598e-09
-1.22847054e-09
-1.19139514e-09
-1.18728476e-09
-1.18554309e-09
-1.1858048e-09
-1.22885264e-09
-1.22681912e-09
-1.22890975e-09
-1.19367941e-09
-1.18461194e-09
-1.18593646e-09
-1.22875364e-09
-1.22732658e-09
-1.22793936e-09
-1.22675713e-09
-1.1891179e-09
-1.18918713e-09
-1.22807684e-09
-1.19138089e-09
-1.1843769e-09
-1.22655505e-09
-1.22787108e-09
-1.18754364e-09
-1.18774398e-09
-1.22717471e-09
-1.22676117e-09
-1.20898397e-09
-1.18989682e-09
-1.18662936e-09
-1.18691699e-09
-1.22692899e-09
-1.22753427e-09
-1.20305595e-09
-1.18717366e-09
-1.18826539e-09
-1.22764379e-09
-1.19110325e-09
-1.18777126e-09
-1.22722109e-09
-1.22645181e-09
-1.22740056e-09
-1.20315826e-09
-1.18839287e-09
-1.18750896e-09
-1.18747668e-09
-1.22688237e-09
-1.22737119e-09
-1.1947824e-09
-1.18737877e-09
-1.18760997e-09
-1.22662409e-09
-1.22741915e-09
-1.19855224e-09
-1.18701409e-09
-1.18748328e-09
-1.22878913e-09
-1.22701622e-09
-1.22136296e-09
-1.18791524e-09
-1.1879431e-09
-1.22671295e-09
-1.22738194e-09
-1.1963757e-09
-1.18691033e-09
-1.18712728e-09
-1.22711456e-09
-1.22702473e-09
-1.20650873e-09
-1.18770997e-09
-1.18792712e-09
-1.22648151e-09
-1.22709222e-09
-1.19751844e-09
-1.18715383e-09
-1.18723661e-09
-1.22663139e-09
-1.22726068e-09
-1.19366074e-09
-1.18673184e-09
-1.18685599e-09
-1.22681846e-09
-1.22753055e-09
-1.19321852e-09
-1.18617507e-09
-1.18632188e-09
-1.22750707e-09
-1.22760551e-09
-1.18941895e-09
-1.18702345e-09
-1.22673288e-09
-1.22803835e-09
-1.19069117e-09
-1.18427524e-09
-1.18501354e-09
-1.22910328e-09
-1.22732466e-09
-1.22824593e-09
-1.22637826e-09
-1.22709694e-09
-1.19447693e-09
-1.18895128e-09
-1.1867122e-09
-1.18666883e-09
-1.22827491e-09
-1.22734076e-09
-1.18795122e-09
-1.18726574e-09
-1.22765522e-09
-1.22719842e-09
-1.18892313e-09
-1.18784318e-09
-1.22666974e-09
-1.22736871e-09
-1.19490778e-09
-1.18692592e-09
-1.18698907e-09
-1.22721591e-09
-1.22712723e-09
-1.18980019e-09
-1.18816498e-09
-1.22638664e-09
-1.2272547e-09
-1.19704208e-09
-1.18699636e-09
-1.18773267e-09
-1.22789434e-09
-1.20149931e-09
-1.18716717e-09
-1.2263339e-09
-1.2271942e-09
-1.19983046e-09
-1.18779871e-09
-1.18785293e-09
-1.22668787e-09
-1.22710153e-09
-1.19857486e-09
-1.18735056e-09
-1.18742572e-09
-1.22697602e-09
-1.22783826e-09
-1.19138664e-09
-1.18460107e-09
-1.18531624e-09
-1.22931332e-09
-1.22769534e-09
-1.22865921e-09
-1.18773038e-09
-1.18666644e-09
-1.22921426e-09
-1.22663543e-09
-1.22887944e-09
-1.19296287e-09
-1.18440632e-09
-1.18572631e-09
-1.22900678e-09
-1.22671635e-09
-1.22797141e-09
-1.19077231e-09
-1.18815665e-09
-1.22657978e-09
-1.22661808e-09
-1.19922864e-09
-1.18924515e-09
-1.18719557e-09
-1.18711285e-09
-1.22786244e-09
-1.22685515e-09
-1.18949697e-09
-1.18841076e-09
-1.22696417e-09
-1.22650496e-09
-1.19580907e-09
-1.18924943e-09
-1.18712938e-09
-1.18690994e-09
-1.22871556e-09
-1.22732677e-09
-1.18786806e-09
-1.18704559e-09
-1.22891149e-09
-1.22742217e-09
-1.18683414e-09
-1.18714345e-09
-1.2291158e-09
-1.22722867e-09
-1.22882624e-09
-1.18911581e-09
-1.18622633e-09
-1.22843893e-09
-1.22790763e-09
-1.18761587e-09
-1.1865438e-09
-1.22892069e-09
-1.22767359e-09
-1.18662558e-09
-1.18632224e-09
-1.22918635e-09
-1.22744063e-09
-1.22770667e-09
-1.22706038e-09
-1.19671238e-09
-1.18902381e-09
-1.18798763e-09
-1.18803706e-09
-1.22820888e-09
-1.19463622e-09
-1.18706743e-09
-1.22740253e-09
-1.22740872e-09
-1.21070336e-09
-1.18882576e-09
-1.18867708e-09
-1.18538743e-09
-1.185573e-09
-1.22925811e-09
-1.22777869e-09
-1.22859386e-09
-1.18832572e-09
-1.18720312e-09
-1.22948008e-09
-1.22701575e-09
-1.22896232e-09
-1.19009273e-09
-1.18647941e-09
-1.2281091e-09
-1.22750971e-09
-1.18769041e-09
-1.18809993e-09
-1.22843643e-09
-1.22626593e-09
-1.22784897e-09
-1.1956299e-09
-1.18838289e-09
-1.18712964e-09
-1.18704388e-09
-1.22826807e-09
-1.22847172e-09
-1.19018775e-09
-1.18419213e-09
-1.18495451e-09
-1.22972966e-09
-1.22801989e-09
-1.22882588e-09
-1.18795361e-09
)
;

boundaryField
{
    closed
    {
        type            calculated;
        value           nonuniform List<scalar> 0();
    }
    open
    {
        type            calculated;
        value           nonuniform List<scalar> 0();
    }
    sides
    {
        type            empty;
    }
    procBoundary1to0
    {
        type            processor;
        value           uniform -1.18816631e-09;
    }
    procBoundary1to2
    {
        type            processor;
        value           uniform -1.1873212e-09;
    }
}


// ************************************************************************* //
