/*--------------------------------*- C++ -*----------------------------------*\
| =========                 |                                                 |
| \\      /  F ield         | OpenFOAM: The Open Source CFD Toolbox           |
|  \\    /   O peration     | Version:  2306                                  |
|   \\  /    A nd           | Website:  www.openfoam.com                      |
|    \\/     M anipulation  |                                                 |
\*---------------------------------------------------------------------------*/
FoamFile
{
    version     2.0;
    format      ascii;
    arch        "LSB;label=32;scalar=64";
    class       volScalarField;
    location    "0.00174";
    object      sourcePV;
}
// * * * * * * * * * * * * * * * * * * * * * * * * * * * * * * * * * * * * * //

dimensions      [1 -3 -1 0 0 0 0];

internalField   nonuniform List<scalar> 
530
(
0.175248832
0.161112237
0.00494102606
0.00625499479
0.00563317681
0.123778564
0.171369082
0.170007512
0.00505350772
0.00571987619
0.14969627
0.163804377
0.00475983998
0.00582036168
0.157982329
0.157615084
0.00462665804
0.00613150524
0.00554676959
0.131713403
0.163638072
0.174818676
0.174535551
0.00443652563
0.00543646788
0.00554575993
0.00550511805
0.125681778
0.171457391
0.17034769
0.00511586785
0.00577146392
0.149426434
0.153052926
0.00467101376
0.00614472289
0.00556572663
0.13294612
0.164544219
0.179255754
0.178992086
0.00427462984
0.00575593072
0.0049481391
0.140716851
0.177260076
0.00485153804
0.00552476905
0.00579887292
0.00577131472
0.102143613
0.149680221
0.154363297
0.158596259
0.005072617
0.00563756485
0.133522387
0.169494786
0.168749243
0.0051968418
0.00543564495
0.127363719
0.177652896
0.165444099
0.00493914891
0.00613947953
0.00571396643
0.126736558
0.166179291
0.164978251
0.00516713136
0.00593260911
0.143147085
0.1452433
0.00491166428
0.00638080973
0.00584637659
0.0950823403
0.148984348
0.156301068
0.16131187
0.00494351006
0.00543514697
0.138015068
0.181989741
0.180903532
0.00470458786
0.00539385007
0.158923833
0.175278049
0.00434863202
0.00541118112
0.00539158102
0.00545162594
0.132962228
0.16861376
0.182479863
0.182206858
0.00414446481
0.00562810081
0.00498353506
0.146161403
0.16847425
0.00450682993
0.00594955412
0.0053429099
0.132064897
0.147995076
0.00497915981
0.129703375
0.162319611
0.00481205403
0.00616549188
0.00553282222
0.116520898
0.160883565
0.168478024
0.168424012
0.00452608597
0.00606466613
0.00529557708
0.127650546
0.168762934
0.00547407758
0.00545382132
0.118413931
0.173272731
0.158035976
0.00496452993
0.137564038
0.165046051
0.00474327655
0.00608249767
0.0055119891
0.12584115
0.172847532
0.169658988
0.00514076228
0.00584251588
0.147229715
0.146877226
0.00470457653
0.121922662
0.177964156
0.00508952201
0.00546313617
0.145509019
0.165367372
0.00479183706
0.0056337877
0.152472653
0.163110275
0.00465694295
0.00563931417
0.157365559
0.165269785
0.00456003855
0.00557568023
0.00566735683
0.0056135506
0.106790348
0.163168755
0.153038613
0.183723639
0.182671259
0.00428677646
0.00548893379
0.00512979918
0.00574582326
0.148221684
0.147868718
0.00444079013
0.129011275
0.186808825
0.00482867516
0.00517815344
0.155619146
0.176690094
0.00444063299
0.0053274063
0.166221016
0.17742293
0.00431468403
0.00534480265
0.0055272325
0.00547462989
0.124162287
0.1687185
0.148222979
0.176191958
0.163140237
0.00497946739
0.00582529264
0.00576907619
0.00580607277
0.129147567
0.163801793
0.00534922581
0.00548468232
0.133268342
0.179156727
0.177998954
0.00490665948
0.00572387613
0.152132459
0.151779779
0.00450937278
0.136484576
0.174535695
0.00456963633
0.0058513979
0.00533068893
0.132857842
0.182601479
0.179998179
0.00487875963
0.00550716001
0.00574689265
0.00571162461
0.120136905
0.15108035
0.00544458013
0.00584092573
0.125191109
0.151803658
0.171813322
0.17168406
0.0041294301
0.00544130423
0.00487912727
0.00554089358
0.164742805
0.164570922
0.00419944558
0.128959089
0.187321795
0.00508760454
0.00504137979
0.133669893
0.181666608
0.180466509
0.004751653
0.00536147989
0.00572813828
0.00547256042
0.114813315
0.174987055
0.152658139
0.00468603979
0.122726369
0.177514792
0.00518124742
0.00528991369
0.136103567
0.168331367
0.186194178
0.185484455
0.00390143909
0.00518816617
0.00479572082
0.00535684956
0.00559863142
0.00560099784
0.133427041
0.174789212
0.173748227
0.00485791272
0.00553311079
0.14466874
0.166525092
0.00491157799
0.00555479319
0.139826124
0.167163976
0.184060945
0.184025774
0.00412597893
0.00543584393
0.00508226296
0.00571059242
0.149588151
0.150584242
0.00456825172
0.138395531
0.173977318
0.00435075993
0.00595549576
0.00498720509
0.126850106
0.17147174
0.00513729975
0.00551813269
0.139707116
0.162573232
0.00503331679
0.00553745123
0.13964571
0.16680367
0.187206922
0.186831566
0.00394889545
0.00522018159
0.00493120684
0.00538148884
0.00578096265
0.00559900257
0.120106654
0.160130744
0.162922469
0.169995552
0.00468101809
0.0052848266
0.140562122
0.180738248
0.17987697
0.00474760042
0.00532052778
0.142196854
0.173141664
0.00485221395
0.00511357296
0.136819893
0.191232749
0.1896093
0.00439860567
0.00515246818
0.00516298222
0.00528310842
0.00585898193
0.00542237986
0.120277891
0.165675031
0.175531365
0.175447078
0.00413510102
0.00541984211
0.170762654
0.175141955
0.00414259882
0.00550200419
0.00545848599
0.0056485836
0.115861957
0.155454492
0.156510793
0.164544937
0.00480500459
0.00539027668
0.135316398
0.183418618
0.176183059
0.00468164896
0.00579764111
0.00549661706
0.138302175
0.144223333
0.00459123677
0.111236795
0.181522744
0.00514799007
0.00514722813
0.137106927
0.190630373
0.183314992
0.0044864122
0.00566464972
0.00530340464
0.00605774821
0.0059880106
0.129754178
0.15073583
0.166960214
0.16675894
0.00455679425
0.00607118508
0.00535633531
0.123518703
0.167239565
0.00529991028
0.00543265619
0.121491141
0.171691513
0.161357145
0.00490875518
0.00620374108
0.00579213798
0.116843323
0.163036383
0.154553994
0.185307672
0.184612943
0.0041449349
0.00542755115
0.00524345385
0.160399059
0.169968398
0.0039315348
0.00582405751
0.00499696523
0.140734524
0.165197419
0.00435981983
0.00604065441
0.00535152442
0.124884337
0.173636869
0.173096786
0.00501923776
0.00538473823
0.130246509
0.175911722
0.175036897
0.00479613051
0.00545393196
0.139776648
0.172262197
0.00487271308
0.00525319818
0.1311492
0.186967101
0.176041531
0.00451765491
0.00587312435
0.00541530491
0.135149296
0.1644126
0.00483321469
0.00570922945
0.139770385
0.157905793
0.00486000972
0.00579370765
0.135357461
0.156206038
0.00508136499
0.00570523948
0.121804832
0.161716271
0.160639162
0.00499546472
0.00565045324
0.123629531
0.166646954
0.16570531
0.00484773174
0.00569884427
0.136811089
0.15987293
0.00474648758
0.00562322356
0.137723677
0.166194679
0.00479076596
0.00522070036
0.131768162
0.189974825
0.185222254
0.00417737645
0.00545125229
0.00501453918
0.00573721041
0.00563314944
0.144151553
0.171825114
0.19707924
0.196951179
0.00340263637
0.00536762546
0.0045708241
0.00591124879
0.00542149474
0.121267842
0.162462173
0.168943177
0.168849852
0.00405580515
0.00555923715
0.158860906
0.167496306
0.00399538832
0.005617693
0.159589792
0.165974621
0.00391874758
0.00569120549
0.00544976055
0.00581672517
0.114940342
0.150796634
0.160552745
0.160110406
0.00433100314
0.00586031975
0.15141972
0.152599144
0.00407452252
0.00623021748
0.00553266922
0.0856093635
0.153669794
0.159027588
0.158476829
0.00446109163
0.00598993258
0.142579805
0.143403154
0.00447395871
0.121378932
0.154374717
0.00456363079
0.130967626
0.160432933
0.00420360265
0.00619585043
0.00549032669
0.101611058
0.158635416
0.166463478
0.165956097
0.00398881676
0.00570853031
0.161624464
0.163697395
0.00367143421
0.00600787913
0.00533156251
0.135846907
0.158929712
0.00427284886
0.00616659039
)
;

boundaryField
{
    closed
    {
        type            calculated;
        value           nonuniform List<scalar> 0();
    }
    open
    {
        type            calculated;
        value           nonuniform List<scalar> 0();
    }
    sides
    {
        type            empty;
    }
    procBoundary2to1
    {
        type            processor;
        value           uniform 0;
    }
    procBoundary2to3
    {
        type            processor;
        value           uniform 0;
    }
}


// ************************************************************************* //
