/*--------------------------------*- C++ -*----------------------------------*\
| =========                 |                                                 |
| \\      /  F ield         | OpenFOAM: The Open Source CFD Toolbox           |
|  \\    /   O peration     | Version:  2306                                  |
|   \\  /    A nd           | Website:  www.openfoam.com                      |
|    \\/     M anipulation  |                                                 |
\*---------------------------------------------------------------------------*/
FoamFile
{
    version     2.0;
    format      ascii;
    arch        "LSB;label=32;scalar=64";
    class       volScalarField;
    location    "0.00024";
    object      Z;
}
// * * * * * * * * * * * * * * * * * * * * * * * * * * * * * * * * * * * * * //

dimensions      [0 0 0 0 0 0 0];

internalField   nonuniform List<scalar> 
531
(
0.014780359
0.0140819575
0.0140999273
0.0148439922
0.0148170327
0.0140888333
0.014086974
0.014702291
0.0147913055
0.0143932566
0.0141948329
0.014476972
0.0146593087
0.0144753412
0.0143765312
0.01444493
0.0145126943
0.0144740301
0.0144419571
0.0144550091
0.0144699984
0.0144648926
0.0144589681
0.0144605269
0.014462617
0.0144620422
0.0144613807
0.0144617101
0.0144619016
0.0144616011
0.0144615522
0.0144618272
0.0144618282
0.0144616077
0.0144616165
0.014461784
0.014461768
0.0144616459
0.0144616729
0.0144617677
0.0144617164
0.0144616241
0.0144617127
0.0144618319
0.0144617083
0.014461531
0.0144616639
0.0144619265
0.0144618266
0.0144614667
0.0144614985
0.0144619282
0.0144619637
0.0144615709
0.0144614299
0.014461731
0.0144619798
0.0144617951
0.0144614585
0.0144615187
0.0144619203
0.0144619324
0.0144615746
0.0144614797
0.0144617539
0.0144619027
0.0144617227
0.014461574
0.0144616726
0.0144617637
0.014461708
0.014461708
0.0144617864
0.0144616915
0.0144615249
0.0144616798
0.0144619778
0.0144618218
0.0144613852
0.014461492
0.0144620324
0.0144619986
0.0144614162
0.0144614057
0.0144619174
0.0144619814
0.0144615733
0.0144614793
0.0144617834
0.0144618802
0.0144616627
0.0144615829
0.014461743
0.014461798
0.0144616597
0.0144616248
0.0144617732
0.0144618025
0.0144616308
0.0144615851
0.0144617662
0.0144618507
0.0144616983
0.0144615642
0.014461639
0.0144618102
0.0144618096
0.0144617195
0.014461628
0.0144615712
0.0144616655
0.0144619388
0.0144619301
0.014461446
0.0144613035
0.0144618757
0.0144622731
0.014461741
0.0144610291
0.0144613957
0.0144624126
0.0144623067
0.0144610648
0.0144609771
0.0144620993
0.0144624718
0.0144616235
0.0144609863
0.0144614871
0.0144623064
0.0144621792
0.0144612914
0.0144611714
0.014461787
0.0144622035
0.0144619953
0.014461313
0.0144612244
0.0144618091
0.0144622597
0.0144619998
0.014461157
0.0144611579
0.0144620422
0.0144623826
0.014461714
0.0144610025
0.0144612894
0.0144623757
0.0144623622
0.0144612967
0.0144609532
0.0144617311
0.01446246
0.0144621326
0.0144610243
0.0144610323
0.0144620703
0.0144624586
0.0144617883
0.0144610152
0.0144611896
0.0144622216
0.0144623899
0.014461611
0.0144610276
0.0144613108
0.0144622973
0.0144623452
0.0144614543
0.0144609914
0.014461548
0.0144623898
0.0144622511
0.0144611251
0.0144609961
0.0144619934
0.0144624948
0.0144617712
0.0144608993
0.014461261
0.0144624881
0.0144624377
0.0144611014
0.0144608424
0.0144619588
0.014462619
0.01446187
0.0144608576
0.014461104
0.0144624211
0.0144624545
0.0144613985
0.01446098
0.0144615824
0.0144622916
0.0144621629
0.0144613349
0.014461199
0.014461734
0.0144621322
0.0144619816
0.0144614241
0.0144613519
0.0144617163
0.0144620143
0.0144619485
0.0144615215
0.0144613782
0.0144616578
0.0144620345
0.0144619721
0.0144614404
0.0144613661
0.014461817
0.0144620449
0.0144617433
0.0144614229
0.0144615776
0.0144619133
0.0144618659
0.0144615755
0.0144615818
0.0144617667
0.0144617794
0.0144616923
0.0144616833
0.0144617036
0.0144616925
0.0144616977
0.0144617607
0.0144617542
0.0144616149
0.0144616044
0.0144618065
0.0144618811
0.0144616506
0.014461459
0.0144616558
0.0144620064
0.0144619329
0.0144613824
0.0144613704
0.0144619262
0.014462113
0.0144616562
0.0144612771
0.01446156
0.0144621148
0.0144620404
0.0144613629
0.0144613081
0.0144618714
0.0144621198
0.0144617434
0.0144613241
0.0144614659
0.0144620393
0.0144620313
0.014461521
0.0144613815
0.0144617306
0.0144619889
0.0144618006
0.0144614901
0.0144615596
0.0144618651
0.0144618488
0.0144615863
0.0144615863
0.0144618236
0.0144618325
0.0144615679
0.0144615427
0.0144618628
0.0144619284
0.0144615608
0.0144614294
0.0144618163
0.0144620313
0.0144616513
0.0144613356
0.0144616879
0.0144621382
0.0144618441
0.0144612071
0.01446138
0.0144622613
0.0144622249
0.0144612031
0.0144610619
0.0144620189
0.0144624138
0.0144616512
0.0144610275
0.0144615159
0.0144622778
0.0144620628
0.014461285
0.0144613272
0.0144619654
0.0144619988
0.0144615832
0.0144615014
0.0144617788
0.0144618743
0.0144616428
0.0144615186
0.0144617518
0.0144619528
0.0144617315
0.0144614034
0.0144615503
0.0144620416
0.0144620006
0.0144614118
0.0144613493
0.0144618583
0.0144620754
0.0144617331
0.0144613827
0.0144614957
0.0144619614
0.0144619624
0.0144616316
0.0144614785
0.0144615939
0.0144618867
0.0144618917
0.0144616477
0.0144615185
0.0144616467
0.0144618702
0.014461841
0.0144615853
0.0144615649
0.0144617653
0.0144618345
0.0144616964
0.014461601
0.0144616889
0.01446179
0.0144617378
0.0144616436
0.0144616742
0.0144617548
0.0144617356
0.014461669
0.0144616829
0.0144617385
0.0144617284
0.0144616797
0.0144616872
0.0144617274
0.0144617235
0.014461694
0.0144616957
0.0144617123
0.0144617127
0.0144617019
0.0144617041
0.0144617118
0.0144617043
0.0144616949
0.0144617092
0.0144617259
0.0144617005
0.0144616607
0.0144616907
0.0144617767
0.014461755
0.0144615966
0.0144616073
0.0144618137
0.0144618003
0.0144615488
0.0144618159
0.0144625084
0.0144611765
0.0144584403
0.0144632914
0.0144754006
0.0144625457
0.0144269878
0.0144524986
0.0145677578
0.0145198089
0.0142974322
0.0143650446
0.0147333421
0.014717973
0.0140741881
0.0140683488
0.0147147263
0.0148059035
0.0145777765
0.0140696284
0.0140669717
0.0147490508
0.0148429099
0.0145238065
0.0140455758
0.0140342414
0.0147391654
0.0148723827
0.0146620786
0.0140366306
0.0140275997
0.0140293476
0.0140612013
0.0144727152
0.0140494167
0.0139761432
0.0139740362
0.0139197579
0.0139095038
0.0138572282
0.0138317568
0.0137689942
0.0137078392
0.0135949406
0.0135412071
0.0134819741
0.0134292041
0.0133661707
0.0133176923
0.0132669749
0.0131772851
0.0132904471
0.0136738401
0.0135366593
0.0131683985
0.013211606
0.0134427481
0.0133988215
0.0131888419
0.0129003136
0.0126123837
0.0128422922
0.0131875373
0.0133043355
0.0132960191
0.0133077705
0.0132814182
0.0133580919
0.013419871
0.0135203338
0.0135173028
0.0136819139
0.0136775887
0.0138961979
0.0138371868
0.0141036961
0.0140152618
0.014406318
0.0141816044
0.0144295032
0.0144784731
0.0152427079
0.0144032551
0.0143948336
0.0144957017
0.0159664092
0.0142655977
0.0135843061
0.0143490592
0.0168070444
0.0143103792
0.0126017717
0.013923027
0.0170945004
0.0137584635
0.0121099192
0.0129575324
0.0163874915
0.0126469854
0.0120429937
0.0126025215
0.0154411489
0.0121972369
0.0123933333
0.0125974655
0.0148700221
0.0120782289
0.0126293937
0.0123669845
0.0143628581
0.012107904
0.0125929618
0.012277459
0.0138730512
0.0122136945
0.0126226398
0.012377913
0.0135367507
0.0123922794
0.0126599557
0.0125000084
0.0133366338
0.0125156711
0.0127143626
0.0125826463
0.0132318002
0.0126031289
0.0127626458
0.0126517853
0.0131811091
0.0126761031
0.0128028813
0.0127178179
0.0131586483
0.012745892
0.0128403667
0.0127870017
0.0131517919
0.0128166126
0.0128789901
0.0128587054
0.0131561264
0.0128866835
0.0129222401
0.0129298617
0.0131722042
0.0129541643
0.0129707023
0.0129983812
0.0131986886
0.0130242551
0.0130238434
0.0130603788
0.0132352685
)
;

boundaryField
{
    closed
    {
        type            zeroGradient;
    }
    open
    {
        type            zeroGradient;
    }
    sides
    {
        type            empty;
    }
    procBoundary4to3
    {
        type            processor;
        value           uniform 0.0148332661;
    }
    procBoundary4to5
    {
        type            processor;
        value           uniform 0.0130984614;
    }
}


// ************************************************************************* //
