/*--------------------------------*- C++ -*----------------------------------*\
| =========                 |                                                 |
| \\      /  F ield         | OpenFOAM: The Open Source CFD Toolbox           |
|  \\    /   O peration     | Version:  2306                                  |
|   \\  /    A nd           | Website:  www.openfoam.com                      |
|    \\/     M anipulation  |                                                 |
\*---------------------------------------------------------------------------*/
FoamFile
{
    version     2.0;
    format      ascii;
    arch        "LSB;label=32;scalar=64";
    class       surfaceScalarField;
    location    "0.00168";
    object      phi;
}
// * * * * * * * * * * * * * * * * * * * * * * * * * * * * * * * * * * * * * //

dimensions      [1 0 -1 0 0 0 0];

oriented        oriented;

internalField   nonuniform List<scalar> 
529
(
1.53953125e-06
9.58742715e-07
-9.40035277e-07
-2.67058197e-06
-3.61181564e-06
-3.58808941e-06
-2.69422611e-06
-1.43428127e-06
-2.98119913e-07
4.63726692e-07
8.91804127e-07
1.21896171e-06
1.4707782e-06
1.70333338e-06
1.95350826e-06
2.24319543e-06
2.5603482e-06
2.88465537e-06
3.18814231e-06
3.44789618e-06
3.65467581e-06
3.81325613e-06
3.9260424e-06
3.9783703e-06
3.94542983e-06
3.81776372e-06
3.60745905e-06
3.33882575e-06
3.04491116e-06
2.7627309e-06
2.52240819e-06
2.33952263e-06
2.21542229e-06
2.13972399e-06
2.09245536e-06
2.04982787e-06
1.99447445e-06
1.92246455e-06
1.83966958e-06
1.75352754e-06
1.668787e-06
1.58725169e-06
1.50872901e-06
1.43236624e-06
1.35808229e-06
1.28696755e-06
1.22039262e-06
1.15891386e-06
1.10200043e-06
1.0485671e-06
9.97654187e-07
9.4875592e-07
9.01770398e-07
8.56799369e-07
8.13994299e-07
7.73502085e-07
7.35472197e-07
7.0007302e-07
6.67487878e-07
6.37885782e-07
6.11376832e-07
5.87968378e-07
5.67536759e-07
5.49824169e-07
5.34461082e-07
5.21010624e-07
5.09021087e-07
4.98077801e-07
4.87842751e-07
4.78072346e-07
4.68610902e-07
4.59402519e-07
4.50442223e-07
4.41837524e-07
4.33496149e-07
4.25069125e-07
4.1689669e-07
4.11655459e-07
4.07143735e-07
3.97720413e-07
3.8840897e-07
3.9791373e-07
4.47640878e-07
4.42588401e-07
4.37378049e-07
4.31839844e-07
4.31217919e-07
4.26761904e-07
4.32751849e-07
4.20415489e-07
4.10103998e-07
4.22027957e-07
4.20654369e-07
4.13158023e-07
4.1331319e-07
4.07167112e-07
3.99044917e-07
4.05027427e-07
4.00022953e-07
3.99377665e-07
3.9463079e-07
3.78081067e-07
3.82696237e-07
3.91208075e-07
4.01502927e-07
4.00969558e-07
4.11594355e-07
4.0739675e-07
4.11353095e-07
3.88649019e-07
3.98360758e-07
3.9087512e-07
3.9257799e-07
3.93182928e-07
3.83905702e-07
3.83321533e-07
4.04820039e-07
4.06916022e-07
4.05999482e-07
4.0918209e-07
4.063313e-07
3.93864038e-07
3.84363303e-07
3.80591828e-07
3.71841314e-07
3.66185985e-07
3.76264412e-07
3.96908658e-07
3.98702984e-07
3.98547988e-07
3.91756296e-07
3.56952578e-07
3.62776078e-07
3.63199801e-07
3.69029356e-07
3.66265262e-07
3.55509792e-07
3.76020322e-07
4.17847738e-07
4.17527193e-07
4.17590488e-07
3.99233754e-07
3.96025501e-07
3.98090686e-07
3.96091546e-07
3.81813289e-07
3.61192682e-07
3.76562052e-07
3.90984493e-07
3.98931997e-07
4.01321032e-07
4.07341341e-07
4.09606225e-07
3.95385309e-07
4.14483872e-07
4.48713083e-07
4.50355508e-07
4.53020049e-07
4.4127624e-07
4.31683886e-07
4.69132069e-07
4.71201037e-07
4.62036205e-07
4.65346133e-07
4.67687928e-07
4.68179353e-07
4.55159588e-07
4.49292494e-07
4.53406667e-07
4.53371243e-07
4.33080579e-07
4.12521308e-07
4.25082996e-07
4.25622634e-07
4.3204184e-07
4.22776517e-07
4.11733215e-07
4.13599811e-07
4.15001073e-07
4.21155698e-07
4.12704254e-07
3.84139107e-07
4.01490416e-07
4.39908737e-07
4.4176417e-07
4.35549893e-07
4.43222674e-07
4.43061441e-07
4.44796873e-07
4.2952307e-07
4.18041784e-07
4.4346417e-07
4.53640198e-07
4.61078326e-07
4.67395628e-07
4.72775573e-07
4.80284002e-07
4.8423258e-07
4.29444803e-07
4.30910026e-07
4.29798602e-07
4.31945862e-07
4.36377307e-07
4.1323919e-07
4.02891517e-07
4.02906217e-07
4.04961807e-07
4.07173884e-07
4.07694204e-07
3.68094936e-07
3.63801534e-07
3.601969e-07
3.76623158e-07
4.13731153e-07
4.00045745e-07
4.00489368e-07
3.88168552e-07
3.74225647e-07
3.76530392e-07
3.84255853e-07
3.61769926e-07
3.63992902e-07
3.87084411e-07
3.91820152e-07
4.01192964e-07
4.06641179e-07
4.12707366e-07
4.25190465e-07
4.45228938e-07
4.39146378e-07
4.42722721e-07
4.43023637e-07
4.45088114e-07
4.60727523e-07
4.80976112e-07
4.83338304e-07
4.74526641e-07
4.89791632e-07
4.90055338e-07
4.96326649e-07
4.84446421e-07
4.85491367e-07
5.14758277e-07
5.17958667e-07
5.22908823e-07
5.27081593e-07
5.2334387e-07
5.28342565e-07
5.29702213e-07
5.25664805e-07
5.32160262e-07
5.31296647e-07
5.3660556e-07
5.23146195e-07
5.18003806e-07
5.3469443e-07
5.29292191e-07
5.31125769e-07
5.71465054e-07
5.67647412e-07
5.57882659e-07
5.53402888e-07
5.50933226e-07
5.09235151e-07
4.75226758e-07
5.09181658e-07
5.10773669e-07
5.25867551e-07
5.45224414e-07
5.39664561e-07
5.4036482e-07
4.97637789e-07
4.93254765e-07
4.88570144e-07
4.89517436e-07
4.89962779e-07
4.91226218e-07
4.6993407e-07
4.84609704e-07
4.97458096e-07
4.95204359e-07
4.99191004e-07
4.96722174e-07
5.03896912e-07
5.39593432e-07
5.41037644e-07
5.4177237e-07
5.45075497e-07
5.40601809e-07
5.45031641e-07
5.71765808e-07
5.72515453e-07
5.75408434e-07
5.77322403e-07
5.80741326e-07
5.74877388e-07
5.80088829e-07
5.80420078e-07
5.85202856e-07
5.85892486e-07
5.77253202e-07
5.7066197e-07
5.70850715e-07
5.70964463e-07
5.66532591e-07
5.65927432e-07
5.65669632e-07
5.71997888e-07
5.66392656e-07
5.83630486e-07
6.0173347e-07
6.01436754e-07
6.03054939e-07
5.99886237e-07
5.95305403e-07
5.95288855e-07
5.95101108e-07
5.89632299e-07
6.02393996e-07
6.13111352e-07
6.15311029e-07
6.17583147e-07
6.06339534e-07
5.87160792e-07
5.99589267e-07
6.25839983e-07
6.29355451e-07
6.51153198e-07
6.45651153e-07
6.12439291e-07
6.18214696e-07
6.16411522e-07
6.26269044e-07
6.25106568e-07
6.25859747e-07
6.26119752e-07
6.17077734e-07
6.1734318e-07
6.17427852e-07
6.15251609e-07
6.11484376e-07
6.13135216e-07
6.13357693e-07
6.11124792e-07
6.10062448e-07
6.1230739e-07
6.13615415e-07
6.08355427e-07
6.21590729e-07
6.34929934e-07
6.35607705e-07
6.37460919e-07
6.38144611e-07
6.3585815e-07
6.38070853e-07
6.39561323e-07
6.37102522e-07
6.27840432e-07
6.39494646e-07
6.25195e-07
6.4882283e-07
6.5014769e-07
6.47159052e-07
6.46722296e-07
6.49077727e-07
6.51980425e-07
6.53470257e-07
6.53028267e-07
6.49426507e-07
6.44713949e-07
6.47580393e-07
6.58747551e-07
6.57290372e-07
6.69398708e-07
6.71362249e-07
6.69614693e-07
6.64707001e-07
6.65812055e-07
6.67647878e-07
6.6771637e-07
6.69206192e-07
6.7011802e-07
6.76592614e-07
6.71777981e-07
6.72658688e-07
6.71868628e-07
6.66124227e-07
6.63861131e-07
6.7053004e-07
6.77760564e-07
6.77475418e-07
6.78056066e-07
6.77267893e-07
6.76492335e-07
6.71834076e-07
6.70872629e-07
6.70758082e-07
6.74913524e-07
6.7183628e-07
6.71169719e-07
6.70842633e-07
6.69266506e-07
6.63870706e-07
6.7430261e-07
6.86868439e-07
6.87348161e-07
6.87359154e-07
6.86447653e-07
6.84928844e-07
6.83505387e-07
6.84700285e-07
6.84315225e-07
6.85994338e-07
6.84798352e-07
6.92207193e-07
6.57111789e-07
6.70400918e-07
6.78973411e-07
6.80728779e-07
6.8156767e-07
6.82878938e-07
6.83686722e-07
6.86499602e-07
6.87433047e-07
6.90224332e-07
6.81394691e-07
6.83104553e-07
6.91829718e-07
7.06434872e-07
6.99237027e-07
6.9939136e-07
7.01364801e-07
6.96996778e-07
6.94650754e-07
6.94472616e-07
6.93098429e-07
6.84897531e-07
6.96867809e-07
6.97976338e-07
6.95320278e-07
6.94895587e-07
6.93110569e-07
6.98492634e-07
7.08173608e-07
7.06525384e-07
7.06964875e-07
7.11559237e-07
7.01013131e-07
7.00445193e-07
6.97481847e-07
6.98242359e-07
6.95489636e-07
7.05205228e-07
7.01310313e-07
7.06546616e-07
7.05614542e-07
7.02090454e-07
7.12323372e-07
7.49273812e-07
7.25310532e-07
7.2212374e-07
7.19886016e-07
7.31692132e-07
7.33973622e-07
7.34210557e-07
7.34445711e-07
7.33195946e-07
7.27955109e-07
7.34470797e-07
7.18715587e-07
7.31268768e-07
7.31775445e-07
7.26837607e-07
7.34580228e-07
7.30309267e-07
7.26058577e-07
7.26033117e-07
7.24058929e-07
7.3094399e-07
7.22492225e-07
7.20527701e-07
7.19851931e-07
7.27688491e-07
7.41790628e-07
7.35458734e-07
7.33887257e-07
7.32561497e-07
7.29516681e-07
7.29928869e-07
7.21656225e-07
7.26066784e-07
7.06085366e-07
7.19556217e-07
7.20459607e-07
7.17302956e-07
7.24343917e-07
7.263226e-07
7.2362312e-07
7.22998407e-07
7.27366044e-07
7.25216506e-07
7.21133237e-07
7.20281424e-07
7.25357451e-07
7.22829283e-07
7.18266558e-07
7.17540351e-07
7.15585051e-07
7.16904756e-07
7.22349067e-07
7.19625871e-07
7.17436036e-07
7.19328602e-07
7.14487057e-07
7.14058684e-07
7.19287949e-07
7.21535175e-07
7.18118393e-07
7.17228953e-07
7.17655382e-07
7.15158429e-07
7.22279728e-07
7.30502973e-07
7.28491294e-07
7.27486173e-07
7.28389301e-07
7.38920472e-07
7.24580317e-07
7.22077361e-07
)
;

boundaryField
{
    closed
    {
        type            calculated;
        value           uniform 0;
    }
    open
    {
        type            calculated;
        value           nonuniform List<scalar> 0();
    }
    sides
    {
        type            empty;
        value           nonuniform List<scalar> 0();
    }
    procBoundary0to1
    {
        type            processor;
        value           uniform 7.29093177e-07;
    }
}


// ************************************************************************* //
