/*--------------------------------*- C++ -*----------------------------------*\
| =========                 |                                                 |
| \\      /  F ield         | OpenFOAM: The Open Source CFD Toolbox           |
|  \\    /   O peration     | Version:  2306                                  |
|   \\  /    A nd           | Website:  www.openfoam.com                      |
|    \\/     M anipulation  |                                                 |
\*---------------------------------------------------------------------------*/
FoamFile
{
    version     2.0;
    format      ascii;
    arch        "LSB;label=32;scalar=64";
    class       volScalarField;
    location    "0.00138";
    object      prefDh_H2O;
}
// * * * * * * * * * * * * * * * * * * * * * * * * * * * * * * * * * * * * * //

dimensions      [1 1 -3 0 0 0 0];

internalField   nonuniform List<scalar> 
530
(
-201.828646
-201.98745
-202.133708
-202.285475
-202.425691
-202.570861
-202.705389
-202.844377
-202.973548
-203.103893
-203.222941
-203.345243
-203.459418
-203.576474
-203.68601
-203.798115
-203.903233
-204.010666
-204.111576
-204.214604
-204.311504
-204.410377
-204.50346
-204.598417
-204.687863
-204.779133
-204.864867
-204.952528
-205.035662
-205.125345
-205.208983
-205.295423
-205.376022
-205.459385
-205.53706
-205.6175
-205.692365
-205.770026
-205.842194
-205.917214
-205.986795
-206.059303
-206.126403
-206.196524
-206.261246
-206.329098
-206.391545
-206.457242
-206.517512
-206.581162
-206.639351
-206.70106
-206.756801
-206.814432
-206.866694
-206.922654
-206.973168
-207.027523
-207.076347
-207.129158
-207.176348
-207.227674
-207.273282
-207.323182
-207.36726
-207.41579
-207.458386
-207.505602
-207.546762
-207.592718
-207.632485
-207.677234
-207.715652
-207.759246
-207.796353
-207.838844
-207.874677
-207.916118
-207.950709
-207.991153
-208.024534
-208.064033
-208.096231
-208.134841
-208.16588
-208.203654
-208.233556
-208.270551
-208.299337
-208.335607
-208.363296
-208.398895
-208.425511
-208.460487
-208.486057
-208.520459
-208.545011
-208.578893
-208.60245
-208.634502
-208.657815
-208.688617
-208.712248
-208.741432
-208.76531
-208.792987
-208.817067
-208.843315
-208.867557
-208.892448
-208.916817
-208.940415
-208.964879
-208.987243
-209.011775
-209.032958
-209.057538
-209.077585
-209.102209
-209.121147
-209.145213
-209.163465
-209.187371
-209.205307
-209.228508
-209.246128
-209.268647
-209.285959
-209.307812
-209.324823
-209.346025
-209.362743
-209.383308
-209.399738
-209.41968
-209.435827
-209.455162
-209.471029
-209.489773
-209.505362
-209.523531
-209.538845
-209.556453
-209.571495
-209.588558
-209.60333
-209.619861
-209.634368
-209.65038
-209.664623
-209.680129
-209.694113
-209.709126
-209.722852
-209.737384
-209.750856
-209.764919
-209.778139
-209.791744
-209.804715
-209.817874
-209.830598
-209.843322
-209.855802
-209.868101
-209.88034
-209.892225
-209.904224
-209.915705
-209.927468
-209.938555
-209.950084
-209.960785
-209.972084
-209.982409
-209.99348
-210.003437
-210.014283
-210.023881
-210.034507
-210.043754
-210.054161
-210.063064
-210.073256
-210.081825
-210.091804
-210.100047
-210.109815
-210.117741
-210.127299
-210.134921
-210.144272
-210.151587
-210.160676
-210.167802
-210.176619
-210.183522
-210.192086
-210.198767
-210.207084
-210.213549
-210.221625
-210.227879
-210.235719
-210.241809
-210.250094
-210.256554
-210.264641
-210.270973
-210.278862
-210.285067
-210.292761
-210.298838
-210.306338
-210.312288
-210.319598
-210.32542
-210.33254
-210.338235
-210.345169
-210.350737
-210.357485
-210.362926
-210.369491
-210.374805
-210.381188
-210.386377
-210.392579
-210.397642
-210.403666
-210.408605
-210.414451
-210.419266
-210.424036
-210.427759
-210.432244
-210.435837
-210.440149
-210.443615
-210.447755
-210.451095
-210.455066
-210.45828
-210.462086
-210.465175
-210.468818
-210.471782
-210.475265
-210.478107
-210.481432
-210.484151
-210.487323
-210.48992
-210.49294
-210.495416
-210.498289
-210.500645
-210.503372
-210.505609
-210.508193
-210.510314
-210.512757
-210.514763
-210.517068
-210.51896
-210.521128
-210.52291
-210.524943
-210.526616
-210.528516
-210.530083
-210.531805
-210.533107
-210.534578
-210.535727
-210.537039
-210.53804
-210.539196
-210.540054
-210.541057
-210.541775
-210.54263
-210.543212
-210.543922
-210.544373
-210.544941
-210.545264
-210.545694
-210.545893
-210.54619
-210.546267
-210.546435
-210.546395
-210.546437
-210.546282
-210.546204
-210.545938
-210.545741
-210.545368
-210.545057
-210.54458
-210.544159
-210.543581
-210.543053
-210.542378
-210.541746
-210.540977
-210.540245
-210.539387
-210.538559
-210.537612
-210.536693
-210.535659
-210.534656
-210.532538
-210.530184
-210.527742
-210.525336
-210.52285
-210.520397
-210.517869
-210.515372
-210.512803
-210.510265
-210.507657
-210.50508
-210.502435
-210.499822
-210.497144
-210.494495
-210.491786
-210.489106
-210.486368
-210.483657
-210.480893
-210.478155
-210.475366
-210.472603
-210.469793
-210.467007
-210.464176
-210.46137
-210.458522
-210.455697
-210.452834
-210.449993
-210.447117
-210.444262
-210.441375
-210.438508
-210.435612
-210.432736
-210.429832
-210.42695
-210.424041
-210.421153
-210.418241
-210.41535
-210.412437
-210.409545
-210.406633
-210.403742
-210.400832
-210.397944
-210.395039
-210.392154
-210.389257
-210.386377
-210.383491
-210.380616
-210.377742
-210.374874
-210.372015
-210.369139
-210.366225
-210.363305
-210.360388
-210.357475
-210.35456
-210.351656
-210.348747
-210.345853
-210.342954
-210.340071
-210.337186
-210.334318
-210.331448
-210.328597
-210.325746
-210.322914
-210.320083
-210.317272
-210.314465
-210.311678
-210.308896
-210.306134
-210.303379
-210.300645
-210.297919
-210.295214
-210.292519
-210.289845
-210.287182
-210.284541
-210.281912
-210.279305
-210.276712
-210.274141
-210.271584
-210.26905
-210.266531
-210.264036
-210.261556
-210.2591
-210.25666
-210.254245
-210.251846
-210.249473
-210.247116
-210.244785
-210.242471
-210.240183
-210.237913
-210.235668
-210.232907
-210.229947
-210.227016
-210.22412
-210.221252
-210.218419
-210.215614
-210.212844
-210.210103
-210.207396
-210.204718
-210.202073
-210.199458
-210.196877
-210.194324
-210.191805
-210.189315
-210.186858
-210.184431
-210.182036
-210.17967
-210.177336
-210.175031
-210.172759
-210.170515
-210.168303
-210.16612
-210.163969
-210.161843
-210.159672
-210.15738
-210.154966
-210.152425
-210.149757
-210.146956
-210.144026
-210.140962
-210.137769
-210.134446
-210.131001
-210.127434
-210.123759
-210.119981
-210.116117
-210.112178
-210.108187
-210.10416
-210.100129
-210.096117
-210.092161
-210.08829
-210.084549
-210.080973
-210.07761
-210.074496
-210.07168
-210.069197
-210.067085
-210.065369
-210.064075
-210.063205
-210.062762
-210.062721
-210.063053
-210.063706
-210.064623
-210.065728
-210.066949
-210.068204
-210.069433
-210.070567
-210.071584
-210.072448
-210.073136
-210.073856
-210.073781
-210.073698
-210.073663
-210.073643
-210.073635
-210.073633
-210.073632
-210.073632
-210.073632
-210.073632
-210.073632
-210.073632
-210.073632
-210.073632
-210.073632
-210.073632
-210.073632
-210.073632
-210.073632
-210.073632
-210.073632
-210.073632
-210.073632
-210.073632
-210.073632
-210.073632
-210.073632
-210.073632
-210.073632
-210.073632
-210.073632
)
;

boundaryField
{
    closed
    {
        type            calculated;
        value           nonuniform List<scalar> 0();
    }
    open
    {
        type            calculated;
        value           uniform -210.073632;
    }
    sides
    {
        type            empty;
    }
    procBoundary5to4
    {
        type            processor;
        value           uniform -201.675968;
    }
}


// ************************************************************************* //
