/*--------------------------------*- C++ -*----------------------------------*\
| =========                 |                                                 |
| \\      /  F ield         | OpenFOAM: The Open Source CFD Toolbox           |
|  \\    /   O peration     | Version:  2306                                  |
|   \\  /    A nd           | Website:  www.openfoam.com                      |
|    \\/     M anipulation  |                                                 |
\*---------------------------------------------------------------------------*/
FoamFile
{
    version     2.0;
    format      ascii;
    arch        "LSB;label=32;scalar=64";
    class       volScalarField;
    location    "0.00138";
    object      prefDZ_H;
}
// * * * * * * * * * * * * * * * * * * * * * * * * * * * * * * * * * * * * * //

dimensions      [1 -1 -1 0 0 0 0];

internalField   nonuniform List<scalar> 
530
(
0.000377872182
0.000378105393
0.000378317396
0.000378541953
0.000378746078
0.000378962578
0.000379159426
0.000379368423
0.000379558581
0.000379755229
0.000379929519
0.00038011486
0.000380283077
0.000380462155
0.00038062465
0.000380797768
0.000380954854
0.000381122324
0.000381274287
0.00038143642
0.000381583532
0.000381740634
0.000381883152
0.000382035533
0.000382173696
0.000382321678
0.000382452287
0.000382591199
0.000382717403
0.000382859625
0.000382986979
0.000383124865
0.000383248075
0.000383381808
0.000383501027
0.000383630778
0.000383746157
0.000383872091
0.00038398378
0.000384106052
0.000384214197
0.00038433296
0.000384437706
0.000384553108
0.000384654594
0.000384766779
0.000384865146
0.000384974256
0.00038506964
0.000385175816
0.000385268347
0.000385371736
0.000385460666
0.000385557132
0.000385640116
0.000385733801
0.000385814016
0.000385905
0.000385982505
0.000386070854
0.000386145706
0.000386231483
0.000386303738
0.000386387003
0.000386456711
0.000386537527
0.000386604737
0.000386683164
0.000386747919
0.000386824021
0.000386886362
0.000386960199
0.000387020165
0.000387091801
0.000387149427
0.000387218925
0.000387274243
0.000387341669
0.000387394705
0.000387460129
0.000387510906
0.000387574403
0.000387622935
0.000387684586
0.000387730879
0.000387790778
0.000387834827
0.000387893075
0.000387934867
0.000387991577
0.000388031092
0.000388086379
0.000388123604
0.000388177578
0.000388212522
0.000388265273
0.000388297992
0.000388349598
0.000388380125
0.000388426906
0.00038845636
0.000388500047
0.000388529764
0.000388569662
0.000388599448
0.000388635821
0.000388665498
0.000388698566
0.000388727963
0.000388757923
0.000388786885
0.000388813911
0.000388842299
0.000388866542
0.00038889424
0.00038891583
0.000388942743
0.000388961789
0.000388987852
0.000389004438
0.000389028841
0.000389043293
0.000389067042
0.000389079454
0.0003891019
0.000389112329
0.000389133443
0.000389141949
0.000389161695
0.000389168332
0.000389186677
0.000389191497
0.000389208413
0.00038921146
0.000389226927
0.000389228241
0.000389242241
0.000389241858
0.000389254381
0.000389252332
0.000389263368
0.000389259684
0.000389269227
0.000389263934
0.000389271982
0.000389265105
0.000389271657
0.00038926322
0.000389268275
0.000389258301
0.000389261862
0.000389250373
0.000389252443
0.00038923946
0.000389240043
0.000389225587
0.00038922469
0.00038920878
0.000389206411
0.000389189066
0.000389185232
0.000389166471
0.000389161183
0.000389141025
0.000389134293
0.000389112757
0.000389104591
0.000389081697
0.00038907211
0.000389047876
0.000389036881
0.000389011328
0.000388998938
0.000388972084
0.000388958315
0.000388930181
0.000388915048
0.000388885652
0.000388869174
0.000388838533
0.000388820734
0.00038878886
0.000388769767
0.000388736667
0.000388716318
0.000388681993
0.000388660433
0.000388624878
0.000388602164
0.000388565372
0.000388541555
0.000388503529
0.000388478652
0.000388440582
0.000388413253
0.000388374471
0.000388345617
0.000388306156
0.000388275783
0.000388235705
0.000388203824
0.00038816317
0.000388129817
0.000388088603
0.000388053856
0.000388012462
0.000387976595
0.000387934585
0.000387897376
0.000387854723
0.000387816231
0.000387772912
0.000387733191
0.00038768919
0.000387648291
0.000387603596
0.000387561566
0.000387516168
0.000387473051
0.000387426947
0.000387382785
0.000387335973
0.000387290806
0.000387243287
0.000387197151
0.000387148929
0.000387101861
0.000387052941
0.000387004976
0.000386955365
0.000386906537
0.000386856244
0.000386806586
0.000386755045
0.000386703971
0.000386651704
0.000386599861
0.000386546952
0.000386494373
0.000386440838
0.000386387551
0.000386333406
0.000386279441
0.000386224703
0.000386170088
0.000386114776
0.000386059539
0.000386003672
0.000385947841
0.000385891439
0.00038583504
0.000385778125
0.000385721185
0.000385663777
0.000385606322
0.000385548444
0.000385490501
0.000385432173
0.000385373768
0.000385315014
0.000385256173
0.000385197015
0.000385137764
0.000385078224
0.00038501859
0.000384958691
0.000384898699
0.000384838464
0.00038477814
0.000384717593
0.000384656962
0.000384596149
0.000384535288
0.00038447421
0.000384413025
0.000384351647
0.000384290165
0.000384228513
0.000384166763
0.000384104862
0.00038404287
0.000383980746
0.000383918539
0.000383856218
0.000383793824
0.000383731331
0.000383668775
0.000383606136
0.000383543445
0.000383480685
0.000383417884
0.000383355028
0.000383292144
0.000383229218
0.000383166275
0.000383103303
0.000383040327
0.000382977334
0.000382914348
0.000382851359
0.000382788389
0.000382725427
0.000382662497
0.000382599586
0.00038253672
0.000382473882
0.000382411103
0.000382348363
0.000382285694
0.000382223075
0.000382160537
0.000382098062
0.000382035677
0.000381973369
0.000381910543
0.000381847652
0.000381784894
0.000381722252
0.000381659756
0.000381597384
0.000381535167
0.000381473084
0.000381411164
0.000381349388
0.000381287784
0.000381226334
0.000381165062
0.000381103955
0.000381043034
0.000380982286
0.000380921734
0.000380861362
0.000380801194
0.000380741215
0.000380681447
0.000380621876
0.000380562525
0.000380503378
0.000380444457
0.000380385749
0.000380327275
0.000380269019
0.000380211005
0.000380153217
0.000380095677
0.00038003837
0.000379981317
0.000379924504
0.000379867951
0.000379811644
0.000379755604
0.000379699815
0.0003796443
0.000379589041
0.000379534062
0.000379479345
0.000379424911
0.000379370747
0.00037931687
0.000379263268
0.000379209959
0.000379156928
0.000379104196
0.000379051746
0.000378999599
0.000378947739
0.000378896187
0.000378844924
0.000378793975
0.000378743316
0.000378692979
0.00037864293
0.000378593212
0.000378543815
0.000378494862
0.000378446189
0.000378397839
0.000378349779
0.000378302041
0.000378254599
0.000378207481
0.000378160665
0.000378114174
0.000378067989
0.000378022131
0.000377976584
0.000377931365
0.000377886459
0.000377841885
0.000377797626
0.0003777537
0.000377710092
0.000377666819
0.000377623866
0.000377581249
0.000377538953
0.000377496995
0.00037745536
0.000377414063
0.00037737309
0.000377332457
0.000377292148
0.00037725218
0.000377212536
0.000377173233
0.000377134256
0.000377095619
0.000377057308
0.000377019337
0.000376981692
0.000376944387
0.000376907407
0.000376870767
0.000376834452
0.000376798475
0.000376762824
0.000376727508
0.000376692518
0.000376657863
0.000376623532
0.000376589534
0.000376555859
0.000376522516
0.000376489494
0.000376456344
0.000376423323
0.00037639064
0.000376358284
0.000376326262
0.000376294566
0.000376263202
0.000376232161
0.000376201449
0.000376171058
0.000376140993
0.000376111247
0.000376081823
0.000376052716
0.000376023928
0.000375995454
0.000375967296
0.000375939448
0.000375911914
0.000375884687
0.00037585777
0.000375831157
0.00037580485
0.000375778844
0.000375753141
0.000375727736
0.000375702629
0.000375677817
0.000375653274
0.000375628133
0.000375601548
0.000375573463
0.000375543828
0.000375512592
0.000375479713
0.000375445151
0.000375408877
0.000375370866
0.000375331111
0.000375289609
0.000375246379
0.000375201453
0.000375154883
0.000375106745
0.000375057136
0.000375006184
0.000374954041
0.0003749009
0.000374846974
0.000374792527
0.000374737839
0.000374683245
0.000374629087
0.000374575764
0.000374523668
0.000374473234
0.000374424873
0.000374379019
0.000374336052
0.000374296344
0.000374260182
0.000374227809
0.000374199354
0.000374174866
0.000374154272
0.000374137397
0.000374123972
0.000374113623
0.000374105947
0.000374100474
0.000374096765
0.0003740944
0.000374092999
0.000374092249
0.000374092074
0.000374091354
0.00037409086
0.000374090646
0.000374090523
0.000374090479
0.000374090463
0.000374090458
0.000374090456
0.000374090455
0.000374090455
0.000374090455
0.000374090455
0.000374090455
0.000374090455
0.000374090455
0.000374090455
0.000374090455
0.000374090455
0.000374090455
0.000374090455
0.000374090455
0.000374090455
0.000374090455
0.000374090455
0.000374090455
0.000374090455
0.000374090455
0.000374090455
0.000374090455
0.000374090455
0.000374090455
)
;

boundaryField
{
    closed
    {
        type            calculated;
        value           nonuniform List<scalar> 0();
    }
    open
    {
        type            calculated;
        value           uniform 0.000374090455;
    }
    sides
    {
        type            empty;
    }
    procBoundary5to4
    {
        type            processor;
        value           uniform 0.000377651675;
    }
}


// ************************************************************************* //
