/*--------------------------------*- C++ -*----------------------------------*\
| =========                 |                                                 |
| \\      /  F ield         | OpenFOAM: The Open Source CFD Toolbox           |
|  \\    /   O peration     | Version:  2306                                  |
|   \\  /    A nd           | Website:  www.openfoam.com                      |
|    \\/     M anipulation  |                                                 |
\*---------------------------------------------------------------------------*/
FoamFile
{
    version     2.0;
    format      ascii;
    arch        "LSB;label=32;scalar=64";
    class       volScalarField;
    location    "0.0009";
    object      mu;
}
// * * * * * * * * * * * * * * * * * * * * * * * * * * * * * * * * * * * * * //

dimensions      [1 -1 -1 0 0 0 0];

internalField   nonuniform List<scalar> 
531
(
1.97509979e-05
1.93631207e-05
1.95067093e-05
1.98957436e-05
2.02632531e-05
1.97981462e-05
1.96534341e-05
1.98205864e-05
2.02747559e-05
1.98234997e-05
1.96803724e-05
1.98251534e-05
2.02797821e-05
1.98474342e-05
1.94268523e-05
1.95381986e-05
1.98585247e-05
2.02746865e-05
1.98804264e-05
1.97299575e-05
1.98148273e-05
2.0289153e-05
1.99180998e-05
1.94740011e-05
1.95471064e-05
1.98365485e-05
2.02772411e-05
1.99222141e-05
1.97544983e-05
1.98151544e-05
2.02969296e-05
1.99863711e-05
1.95435791e-05
1.95942381e-05
1.98353466e-05
2.02818438e-05
2.00116386e-05
1.95454781e-05
1.95117625e-05
1.95971421e-05
1.98000823e-05
2.03070082e-05
2.03049816e-05
2.02854943e-05
2.02865796e-05
2.00073994e-05
1.951319e-05
1.9517476e-05
1.95414934e-05
1.95273224e-05
1.97568262e-05
2.02984061e-05
2.02862452e-05
2.00678348e-05
1.96225036e-05
1.95449219e-05
1.97505989e-05
2.02858715e-05
2.01467417e-05
1.97548788e-05
1.95386135e-05
1.97366448e-05
2.02913902e-05
2.01906858e-05
1.97876884e-05
1.94991801e-05
1.94856123e-05
1.97279196e-05
2.02913876e-05
2.02884732e-05
2.02644186e-05
2.02995225e-05
2.02120256e-05
1.9759682e-05
1.95115244e-05
1.94748364e-05
1.96849207e-05
2.02735441e-05
2.02356008e-05
1.97747045e-05
1.9494921e-05
1.96667383e-05
2.02806821e-05
2.02547827e-05
1.97861785e-05
1.95356486e-05
1.96770181e-05
2.02843079e-05
2.02630326e-05
1.97956602e-05
1.95578121e-05
1.96582408e-05
2.02894459e-05
2.02815462e-05
1.97980989e-05
1.96187075e-05
1.94971074e-05
1.95488783e-05
2.01975984e-05
2.02871286e-05
1.97783982e-05
1.96808136e-05
2.00576228e-05
2.02922309e-05
1.97716023e-05
1.96866445e-05
2.01040592e-05
2.02723768e-05
1.9774987e-05
1.94005283e-05
1.9479123e-05
2.0226754e-05
2.0287955e-05
1.97787741e-05
1.97425693e-05
1.99033973e-05
2.0307427e-05
2.02805651e-05
1.9762162e-05
1.94869728e-05
1.95399499e-05
2.00555766e-05
2.02917921e-05
2.00126509e-05
1.97215405e-05
1.94612867e-05
1.94978854e-05
2.00212552e-05
2.02758662e-05
1.97564615e-05
1.95708248e-05
1.99391616e-05
2.02776171e-05
1.97554315e-05
1.95964399e-05
1.99552187e-05
2.02841952e-05
1.97594743e-05
1.96255552e-05
1.99757135e-05
2.0290088e-05
1.97673593e-05
1.96809208e-05
2.00080132e-05
2.02816016e-05
1.97794436e-05
1.94458781e-05
1.95273435e-05
2.01925592e-05
2.03004787e-05
1.97816292e-05
1.973277e-05
2.00105012e-05
2.02891882e-05
1.97951293e-05
1.94845141e-05
1.9573888e-05
2.02420418e-05
2.02915304e-05
1.97897845e-05
1.94840406e-05
1.95389286e-05
2.02021193e-05
2.03086538e-05
1.97868462e-05
1.97591684e-05
1.99601522e-05
2.02932765e-05
1.98246823e-05
1.95293965e-05
1.96064238e-05
2.02588509e-05
2.02947313e-05
1.98156515e-05
1.95672862e-05
1.96303461e-05
2.02632517e-05
2.03094693e-05
1.98146543e-05
1.96516435e-05
1.95497416e-05
1.95757547e-05
1.99654e-05
2.02978084e-05
2.03026184e-05
1.97702253e-05
1.97666624e-05
1.99719668e-05
2.03054873e-05
1.98451698e-05
1.96674415e-05
1.95342821e-05
1.96607619e-05
2.00664807e-05
2.02919219e-05
2.02838657e-05
1.98379454e-05
1.96536549e-05
1.96117264e-05
1.95590582e-05
1.95378923e-05
1.99096e-05
2.02848391e-05
1.9802855e-05
1.96171533e-05
1.98165574e-05
2.02808621e-05
1.97891136e-05
1.95905388e-05
1.98256957e-05
2.02792501e-05
1.97848539e-05
1.96147309e-05
1.98459823e-05
2.02889465e-05
1.97939789e-05
1.97362002e-05
1.98301016e-05
2.02906709e-05
2.02840157e-05
1.97621949e-05
1.94945826e-05
1.9564528e-05
2.01765024e-05
2.0281032e-05
1.97967296e-05
1.95307588e-05
1.9576284e-05
2.0162102e-05
2.02783032e-05
1.97884543e-05
1.95072989e-05
1.95290052e-05
2.01272524e-05
2.02853483e-05
1.97775442e-05
1.97633135e-05
2.00185401e-05
2.02795653e-05
1.97697495e-05
1.9477521e-05
1.95494946e-05
2.01298106e-05
2.02819858e-05
1.97689983e-05
1.97238436e-05
2.00304043e-05
2.02758525e-05
1.97633459e-05
1.97495472e-05
2.00552554e-05
2.02691021e-05
1.9760097e-05
1.94826811e-05
1.96075077e-05
2.01419905e-05
2.02709996e-05
1.97775006e-05
1.97906963e-05
2.01210476e-05
2.02741979e-05
1.97686535e-05
1.95598469e-05
1.97313909e-05
2.020345e-05
2.02778113e-05
1.97776761e-05
1.95943127e-05
1.97521315e-05
2.02039087e-05
2.02845743e-05
1.97766584e-05
1.96032712e-05
1.95326024e-05
1.97524873e-05
2.0117862e-05
2.0296009e-05
2.0260052e-05
2.02970764e-05
2.02959648e-05
1.97978197e-05
1.97352746e-05
1.97161598e-05
1.97223692e-05
1.97270422e-05
1.97284183e-05
1.96798574e-05
1.97665883e-05
2.0237201e-05
2.02786768e-05
1.97632257e-05
1.95758661e-05
1.97365822e-05
2.01707232e-05
2.02263098e-05
1.97666517e-05
1.97749036e-05
2.01469037e-05
2.0189283e-05
1.97679761e-05
1.97774433e-05
2.01706091e-05
2.02219355e-05
1.97432422e-05
1.95279612e-05
1.97587523e-05
2.01466248e-05
2.01447829e-05
1.97738662e-05
1.97736115e-05
2.01944668e-05
2.02144876e-05
1.97492759e-05
1.95941354e-05
1.97589046e-05
2.01762983e-05
2.02153712e-05
1.97519469e-05
1.96200305e-05
1.97579153e-05
2.01841034e-05
2.02065421e-05
1.97504506e-05
1.96262523e-05
1.97572847e-05
2.01911805e-05
2.01933617e-05
1.97496111e-05
1.96271185e-05
1.97600019e-05
2.01995713e-05
2.01569637e-05
1.97501001e-05
1.96288983e-05
1.97691397e-05
2.02088319e-05
2.01079443e-05
1.97511758e-05
1.96289438e-05
1.97852359e-05
2.0218318e-05
2.00482501e-05
1.97350919e-05
1.96177807e-05
1.98087093e-05
2.02288169e-05
1.99707562e-05
1.96617789e-05
1.95828314e-05
1.98298747e-05
2.02412457e-05
1.98514757e-05
1.97630974e-05
1.9869471e-05
2.02544989e-05
1.98592744e-05
1.95903733e-05
1.96067319e-05
1.99575979e-05
2.02656121e-05
1.984804e-05
1.9591721e-05
1.96490198e-05
2.00030984e-05
2.02801397e-05
1.98263153e-05
1.95473256e-05
1.96635781e-05
2.00523066e-05
2.03307626e-05
2.02687177e-05
1.9758386e-05
1.9480262e-05
1.96355943e-05
2.00937207e-05
2.03120345e-05
1.97211558e-05
1.94128423e-05
1.95865637e-05
2.0160113e-05
2.034397e-05
1.96381909e-05
1.92340596e-05
1.94568349e-05
2.02869751e-05
2.04578377e-05
2.04303695e-05
2.03981495e-05
2.03890869e-05
2.02666692e-05
1.92806721e-05
1.91271583e-05
1.98902924e-05
2.0287196e-05
2.02586551e-05
2.02386659e-05
2.02371333e-05
2.02320553e-05
2.02407334e-05
2.02465833e-05
2.02613837e-05
2.02722079e-05
2.02979646e-05
2.03208363e-05
2.03671641e-05
2.04339643e-05
2.05635536e-05
2.06959651e-05
2.05861145e-05
2.04363631e-05
2.03239486e-05
2.02260918e-05
2.01377158e-05
2.00750267e-05
1.99962723e-05
1.99333056e-05
1.98904308e-05
1.98788117e-05
1.98064633e-05
1.97324124e-05
1.96780432e-05
1.96442374e-05
1.96360409e-05
1.94708844e-05
1.93167733e-05
1.92029407e-05
1.92151621e-05
2.06328005e-05
2.02854216e-05
2.01438957e-05
1.97607821e-05
1.95384531e-05
1.92478234e-05
1.8971192e-05
1.87156113e-05
1.84035919e-05
1.90285532e-05
1.93707514e-05
1.99700774e-05
2.1498625e-05
2.3119998e-05
2.27255353e-05
2.34355351e-05
2.49208079e-05
2.61651193e-05
2.68126053e-05
2.85827863e-05
3.00251519e-05
3.3238695e-05
3.45276682e-05
3.63974258e-05
3.79424917e-05
4.00409971e-05
4.09908266e-05
4.21048877e-05
4.28418592e-05
4.39913565e-05
4.47946753e-05
4.57249739e-05
4.64315467e-05
4.72068719e-05
4.78255063e-05
4.84727613e-05
4.90248635e-05
4.95829715e-05
5.00680926e-05
5.05524104e-05
5.09777893e-05
5.13960255e-05
5.1706452e-05
5.20446111e-05
5.23333943e-05
5.26572036e-05
5.2933897e-05
5.32293359e-05
5.3485545e-05
5.37714099e-05
5.39986673e-05
5.42560375e-05
5.44572456e-05
5.46917962e-05
5.48829656e-05
5.50968844e-05
5.53256092e-05
5.56071487e-05
5.58315664e-05
5.60186696e-05
5.61491646e-05
5.62910114e-05
5.64193991e-05
5.65460896e-05
5.66624643e-05
5.67787247e-05
5.68898157e-05
5.6996636e-05
5.70995467e-05
5.72008048e-05
5.73061981e-05
5.74143807e-05
5.75328714e-05
5.76575878e-05
5.77694939e-05
5.78671504e-05
5.79602408e-05
5.80508709e-05
5.81381212e-05
5.82257926e-05
5.8310025e-05
5.83947938e-05
5.84760486e-05
5.8552739e-05
5.86218903e-05
5.8692309e-05
5.87586914e-05
5.88266265e-05
5.88996946e-05
5.89770248e-05
5.90465916e-05
5.91189424e-05
5.91837513e-05
5.92514237e-05
5.9311934e-05
5.93752305e-05
5.94274487e-05
5.94803657e-05
5.9527472e-05
5.95779754e-05
5.96227931e-05
5.96710307e-05
5.97137823e-05
5.97599057e-05
)
;

boundaryField
{
    closed
    {
        type            calculated;
        value           nonuniform List<scalar> 0();
    }
    open
    {
        type            calculated;
        value           nonuniform List<scalar> 0();
    }
    sides
    {
        type            empty;
    }
    procBoundary4to3
    {
        type            processor;
        value           uniform 2.02606231e-05;
    }
    procBoundary4to5
    {
        type            processor;
        value           uniform 5.97997245e-05;
    }
}


// ************************************************************************* //
