/*--------------------------------*- C++ -*----------------------------------*\
| =========                 |                                                 |
| \\      /  F ield         | OpenFOAM: The Open Source CFD Toolbox           |
|  \\    /   O peration     | Version:  2306                                  |
|   \\  /    A nd           | Website:  www.openfoam.com                      |
|    \\/     M anipulation  |                                                 |
\*---------------------------------------------------------------------------*/
FoamFile
{
    version     2.0;
    format      ascii;
    arch        "LSB;label=32;scalar=64";
    class       volScalarField;
    location    "0.0009";
    object      prefDZ_T;
}
// * * * * * * * * * * * * * * * * * * * * * * * * * * * * * * * * * * * * * //

dimensions      [1 -1 -1 -1 0 0 0];

internalField   nonuniform List<scalar> 
531
(
-1.19879996e-09
-1.18619476e-09
-1.18748486e-09
-1.21291217e-09
-1.23082136e-09
-1.20465299e-09
-1.18965039e-09
-1.20633651e-09
-1.23005689e-09
-1.20700885e-09
-1.18987882e-09
-1.20648125e-09
-1.22940796e-09
-1.20918926e-09
-1.18671611e-09
-1.18799508e-09
-1.20948378e-09
-1.22912941e-09
-1.21195964e-09
-1.19038017e-09
-1.20504323e-09
-1.22840243e-09
-1.21491022e-09
-1.18720903e-09
-1.18810695e-09
-1.20733597e-09
-1.22863146e-09
-1.21519091e-09
-1.19100358e-09
-1.20498854e-09
-1.22791181e-09
-1.21986352e-09
-1.18818185e-09
-1.18877076e-09
-1.20729655e-09
-1.22832916e-09
-1.22161892e-09
-1.18862118e-09
-1.18764682e-09
-1.18872068e-09
-1.20424185e-09
-1.22752958e-09
-1.22690539e-09
-1.22823608e-09
-1.22789748e-09
-1.22136285e-09
-1.1878947e-09
-1.18796201e-09
-1.18792045e-09
-1.18797511e-09
-1.19978992e-09
-1.22829797e-09
-1.22741129e-09
-1.22557878e-09
-1.18922987e-09
-1.18840162e-09
-1.19843001e-09
-1.22957441e-09
-1.23066062e-09
-1.19096227e-09
-1.18836952e-09
-1.19575499e-09
-1.22943605e-09
-1.23337281e-09
-1.19293174e-09
-1.18767639e-09
-1.18773825e-09
-1.19010856e-09
-1.22970702e-09
-1.22782021e-09
-1.22948787e-09
-1.22708152e-09
-1.23218849e-09
-1.19574376e-09
-1.18804271e-09
-1.18744116e-09
-1.1895741e-09
-1.2314787e-09
-1.23089483e-09
-1.19648589e-09
-1.18810638e-09
-1.18936084e-09
-1.23074515e-09
-1.22969325e-09
-1.19920228e-09
-1.18862858e-09
-1.18971534e-09
-1.2304469e-09
-1.22892037e-09
-1.201045e-09
-1.18896996e-09
-1.1895715e-09
-1.23002671e-09
-1.22823163e-09
-1.20054974e-09
-1.18929702e-09
-1.18804566e-09
-1.18827077e-09
-1.23334011e-09
-1.22861468e-09
-1.19579664e-09
-1.18993024e-09
-1.22465085e-09
-1.22847703e-09
-1.19576377e-09
-1.19017091e-09
-1.22757035e-09
-1.22936728e-09
-1.19751862e-09
-1.18700688e-09
-1.18731949e-09
-1.23408545e-09
-1.22893134e-09
-1.19673428e-09
-1.19071267e-09
-1.21361823e-09
-1.22652453e-09
-1.2282021e-09
-1.19542591e-09
-1.18783317e-09
-1.18796275e-09
-1.22462487e-09
-1.22748659e-09
-1.22175406e-09
-1.19057795e-09
-1.18762618e-09
-1.18774291e-09
-1.22225204e-09
-1.23057386e-09
-1.19480981e-09
-1.18903761e-09
-1.2164879e-09
-1.2303725e-09
-1.196176e-09
-1.18932765e-09
-1.21766001e-09
-1.22988252e-09
-1.19660283e-09
-1.18961687e-09
-1.21911423e-09
-1.22919987e-09
-1.19756814e-09
-1.19036401e-09
-1.22134599e-09
-1.22936812e-09
-1.1997965e-09
-1.18760738e-09
-1.18790808e-09
-1.23306321e-09
-1.22841467e-09
-1.1978093e-09
-1.19087355e-09
-1.22152445e-09
-1.22862435e-09
-1.20227498e-09
-1.1880995e-09
-1.18860942e-09
-1.23356112e-09
-1.22858228e-09
-1.2003102e-09
-1.18798893e-09
-1.18810723e-09
-1.2335688e-09
-1.2279004e-09
-1.19990593e-09
-1.19103668e-09
-1.21799767e-09
-1.22831335e-09
-1.20620497e-09
-1.18860336e-09
-1.18903736e-09
-1.23256451e-09
-1.2279346e-09
-1.20451018e-09
-1.18905267e-09
-1.18936854e-09
-1.23212715e-09
-1.22740752e-09
-1.20426058e-09
-1.18942246e-09
-1.18836544e-09
-1.18860378e-09
-1.2183709e-09
-1.22707208e-09
-1.22773522e-09
-1.1971874e-09
-1.19107996e-09
-1.21884359e-09
-1.22780676e-09
-1.20815081e-09
-1.18960122e-09
-1.1884074e-09
-1.18981017e-09
-1.22528002e-09
-1.22704095e-09
-1.22723482e-09
-1.20746815e-09
-1.18967242e-09
-1.18911227e-09
-1.18857113e-09
-1.18837167e-09
-1.21417717e-09
-1.22929068e-09
-1.20417456e-09
-1.18945738e-09
-1.20612286e-09
-1.23033237e-09
-1.20316211e-09
-1.18923599e-09
-1.20714839e-09
-1.23042101e-09
-1.20251001e-09
-1.18952539e-09
-1.208963e-09
-1.22978913e-09
-1.20321071e-09
-1.19087234e-09
-1.20692215e-09
-1.22779529e-09
-1.22926934e-09
-1.19367171e-09
-1.1884661e-09
-1.1888387e-09
-1.23211989e-09
-1.22908838e-09
-1.20186938e-09
-1.18866554e-09
-1.1890267e-09
-1.23124421e-09
-1.22940057e-09
-1.20067851e-09
-1.18834035e-09
-1.18839566e-09
-1.22912566e-09
-1.22988894e-09
-1.19807843e-09
-1.19150778e-09
-1.2220565e-09
-1.2299932e-09
-1.1989342e-09
-1.18797076e-09
-1.18854249e-09
-1.22925582e-09
-1.23071311e-09
-1.19622007e-09
-1.19102226e-09
-1.22283821e-09
-1.23142754e-09
-1.19613236e-09
-1.1913945e-09
-1.22445226e-09
-1.23117792e-09
-1.19743502e-09
-1.18810842e-09
-1.18924676e-09
-1.23001113e-09
-1.23145521e-09
-1.19701404e-09
-1.192921e-09
-1.22865919e-09
-1.23056887e-09
-1.19847604e-09
-1.18919177e-09
-1.19073258e-09
-1.23373716e-09
-1.23008807e-09
-1.19972487e-09
-1.18958304e-09
-1.19093005e-09
-1.23379001e-09
-1.23005056e-09
-1.19884713e-09
-1.18889141e-09
-1.18831459e-09
-1.19054576e-09
-1.22854628e-09
-1.22800662e-09
-1.22957177e-09
-1.22756443e-09
-1.22779595e-09
-1.20342882e-09
-1.19056904e-09
-1.19022809e-09
-1.19043715e-09
-1.19050911e-09
-1.19045208e-09
-1.1902778e-09
-1.19541596e-09
-1.23261673e-09
-1.22983369e-09
-1.19865024e-09
-1.18904738e-09
-1.19056039e-09
-1.23175129e-09
-1.23429721e-09
-1.19438825e-09
-1.1927791e-09
-1.23024484e-09
-1.23283586e-09
-1.19388356e-09
-1.19336115e-09
-1.23175413e-09
-1.23354616e-09
-1.19409555e-09
-1.18852842e-09
-1.19118529e-09
-1.23033451e-09
-1.23021622e-09
-1.19462609e-09
-1.19538235e-09
-1.23329785e-09
-1.23364822e-09
-1.19417143e-09
-1.18932731e-09
-1.19417952e-09
-1.23226709e-09
-1.23348679e-09
-1.19489792e-09
-1.18961192e-09
-1.19537124e-09
-1.23276696e-09
-1.23387561e-09
-1.19407842e-09
-1.18959978e-09
-1.19648495e-09
-1.23321284e-09
-1.23337393e-09
-1.1928642e-09
-1.18951339e-09
-1.19788659e-09
-1.23374666e-09
-1.23115431e-09
-1.19200362e-09
-1.18945264e-09
-1.19986663e-09
-1.23353962e-09
-1.22807342e-09
-1.1911822e-09
-1.18938483e-09
-1.20229536e-09
-1.23292987e-09
-1.2241578e-09
-1.19030613e-09
-1.18918166e-09
-1.20510622e-09
-1.2324274e-09
-1.21874263e-09
-1.18946479e-09
-1.18867524e-09
-1.20736928e-09
-1.23226769e-09
-1.20919736e-09
-1.19290842e-09
-1.21090848e-09
-1.23122412e-09
-1.20993055e-09
-1.1887803e-09
-1.18881798e-09
-1.21779177e-09
-1.23040158e-09
-1.20897639e-09
-1.18882242e-09
-1.18911359e-09
-1.2210331e-09
-1.22988914e-09
-1.20717938e-09
-1.18806292e-09
-1.18873488e-09
-1.22435319e-09
-1.2265209e-09
-1.23058035e-09
-1.2018482e-09
-1.18693826e-09
-1.18782219e-09
-1.22680926e-09
-1.23031482e-09
-1.19911547e-09
-1.18526716e-09
-1.18610819e-09
-1.23058185e-09
-1.23107881e-09
-1.19328934e-09
-1.1818028e-09
-1.18254957e-09
-1.23718797e-09
-1.22514154e-09
-1.22774852e-09
-1.22716322e-09
-1.22347925e-09
-1.23306471e-09
-1.1751447e-09
-1.17421181e-09
-1.21261188e-09
-1.21420535e-09
-1.21292022e-09
-1.21019646e-09
-1.20699567e-09
-1.204743e-09
-1.20141127e-09
-1.19861341e-09
-1.19479975e-09
-1.19210703e-09
-1.18739423e-09
-1.18444144e-09
-1.18050223e-09
-1.17756741e-09
-1.17528948e-09
-1.1741132e-09
-1.17029019e-09
-1.16416585e-09
-1.15857755e-09
-1.15260985e-09
-1.14572901e-09
-1.13908321e-09
-1.13032435e-09
-1.12529663e-09
-1.12027563e-09
-1.11800021e-09
-1.11252024e-09
-1.10320046e-09
-1.09274565e-09
-1.08218441e-09
-1.07075979e-09
-1.05429455e-09
-1.0382647e-09
-1.02608346e-09
-1.01325245e-09
-1.05342219e-09
-1.01408589e-09
-1.00272751e-09
-9.72836056e-10
-9.55074263e-10
-9.31577157e-10
-9.08820021e-10
-8.87547286e-10
-8.58677763e-10
-8.6312751e-10
-8.1497327e-10
-7.9564487e-10
-7.8081789e-10
-7.17918106e-10
-7.4247358e-10
-6.92005832e-10
-6.44528259e-10
-6.14316946e-10
-5.89895542e-10
-5.49360752e-10
-5.21292126e-10
-4.65841225e-10
-4.44911943e-10
-4.12553396e-10
-3.88194181e-10
-3.57190613e-10
-3.41168118e-10
-3.2233549e-10
-3.10428672e-10
-2.91261662e-10
-2.7899876e-10
-2.63490642e-10
-2.52981233e-10
-2.40154903e-10
-2.31311626e-10
-2.20895762e-10
-2.13350374e-10
-2.0477857e-10
-1.98579353e-10
-1.91691261e-10
-1.86727451e-10
-1.81403901e-10
-1.78091212e-10
-1.74170738e-10
-1.71244674e-10
-1.67677239e-10
-1.64872487e-10
-1.61721537e-10
-1.59178238e-10
-1.56348536e-10
-1.5413141e-10
-1.51698382e-10
-1.49867835e-10
-1.47836627e-10
-1.46234321e-10
-1.44493855e-10
-1.42770681e-10
-1.40725828e-10
-1.3919815e-10
-1.37865451e-10
-1.36878136e-10
-1.35789951e-10
-1.34850747e-10
-1.33879103e-10
-1.33062507e-10
-1.32203202e-10
-1.3141746e-10
-1.3062831e-10
-1.29895895e-10
-1.29147673e-10
-1.28401122e-10
-1.27630539e-10
-1.26823862e-10
-1.25999054e-10
-1.25253674e-10
-1.24603433e-10
-1.23968133e-10
-1.23368797e-10
-1.22765646e-10
-1.22190923e-10
-1.21603273e-10
-1.21056211e-10
-1.20486731e-10
-1.19995997e-10
-1.19495594e-10
-1.19045808e-10
-1.18563655e-10
-1.18133949e-10
-1.1761806e-10
-1.17139795e-10
-1.16647699e-10
-1.16202969e-10
-1.15745636e-10
-1.15331791e-10
-1.149063e-10
-1.14520635e-10
-1.14146925e-10
-1.1381833e-10
-1.13474738e-10
-1.13161944e-10
-1.12834596e-10
-1.12536174e-10
-1.12224154e-10
-1.11938839e-10
)
;

boundaryField
{
    closed
    {
        type            calculated;
        value           nonuniform List<scalar> 0();
    }
    open
    {
        type            calculated;
        value           nonuniform List<scalar> 0();
    }
    sides
    {
        type            empty;
    }
    procBoundary4to3
    {
        type            processor;
        value           uniform -1.23117094e-09;
    }
    procBoundary4to5
    {
        type            processor;
        value           uniform -1.11646294e-10;
    }
}


// ************************************************************************* //
