/*--------------------------------*- C++ -*----------------------------------*\
| =========                 |                                                 |
| \\      /  F ield         | OpenFOAM: The Open Source CFD Toolbox           |
|  \\    /   O peration     | Version:  2306                                  |
|   \\  /    A nd           | Website:  www.openfoam.com                      |
|    \\/     M anipulation  |                                                 |
\*---------------------------------------------------------------------------*/
FoamFile
{
    version     2.0;
    format      ascii;
    arch        "LSB;label=32;scalar=64";
    class       volScalarField;
    location    "0.00084";
    object      H;
}
// * * * * * * * * * * * * * * * * * * * * * * * * * * * * * * * * * * * * * //

dimensions      [0 0 0 0 0 0 0];

internalField   nonuniform List<scalar> 
530
(
1.90831727e-08
2.22389246e-08
2.22591304e-08
2.22490568e-08
2.22482632e-08
2.22482499e-08
2.22482494e-08
2.22482494e-08
2.22482494e-08
2.22482494e-08
2.22482494e-08
2.22482494e-08
2.22482494e-08
2.22482494e-08
2.22482494e-08
2.22482494e-08
2.22482494e-08
2.22482494e-08
2.22482494e-08
2.22482494e-08
2.22482494e-08
2.22482494e-08
2.22482494e-08
2.22482494e-08
2.22482494e-08
2.22482494e-08
2.22482494e-08
2.22482494e-08
2.22482494e-08
2.22482494e-08
2.22482494e-08
2.22482494e-08
2.22482494e-08
2.22482494e-08
2.22482494e-08
2.22482494e-08
2.22482494e-08
2.22482494e-08
2.22482494e-08
2.22482494e-08
2.22482494e-08
2.22482494e-08
2.22482494e-08
2.22482494e-08
2.22482494e-08
2.22482494e-08
2.22482494e-08
2.22482494e-08
2.22482494e-08
2.22482494e-08
2.22482494e-08
2.22482494e-08
2.22482494e-08
2.22482494e-08
2.22482494e-08
2.22482494e-08
2.22482494e-08
2.22482494e-08
2.22482494e-08
2.22482494e-08
2.22482494e-08
2.22482494e-08
2.22482494e-08
2.22482494e-08
2.22482494e-08
2.22482494e-08
2.22482494e-08
2.22482494e-08
2.22482495e-08
2.22482496e-08
2.22482498e-08
2.22482504e-08
2.22482501e-08
2.22482579e-08
2.22482773e-08
2.22482717e-08
2.22482167e-08
2.22484576e-08
2.2248637e-08
2.22478941e-08
2.22524621e-08
2.22620516e-08
2.22181081e-08
2.21045864e-08
2.23728071e-08
2.32925034e-08
2.23710033e-08
1.90870611e-08
2.0755076e-08
3.50384816e-08
3.44489359e-08
1.15924633e-09
1.18196155e-09
3.83955069e-08
4.95403421e-08
3.43091802e-08
9.93032776e-10
1.35278454e-09
1.21323033e-09
3.93816813e-08
4.49124459e-08
4.55773458e-08
4.07905513e-08
1.09876604e-09
1.28690177e-09
1.26639862e-09
1.293077e-09
3.66194303e-08
4.2884668e-08
4.2795212e-08
3.61041454e-08
1.21125534e-09
1.38168143e-09
3.44785385e-08
4.09437494e-08
3.90305617e-08
4.11901387e-08
2.55539655e-08
1.21109258e-09
1.32895599e-09
1.32252107e-09
1.26303764e-09
3.54021388e-08
4.87122802e-08
4.29411763e-08
1.08653201e-09
1.25168322e-09
3.67635319e-08
4.6520867e-08
4.39092541e-08
1.0584409e-09
1.28923927e-09
3.90805241e-08
4.33079153e-08
8.94886954e-10
1.27507936e-09
4.13175366e-08
4.46095008e-08
8.72051183e-10
1.27149949e-09
3.97522629e-08
4.23861534e-08
9.38313253e-10
1.23114377e-09
3.62255404e-08
4.63637909e-08
4.32191941e-08
1.04234139e-09
1.31007521e-09
3.86864477e-08
4.29793903e-08
8.88933087e-10
1.30675373e-09
3.86848379e-08
4.1769721e-08
9.37514417e-10
1.2588326e-09
3.5203501e-08
4.50092955e-08
4.19873435e-08
1.06582963e-09
1.33754714e-09
3.67113076e-08
4.126906e-08
9.0087457e-10
1.32847331e-09
3.7103376e-08
4.04377075e-08
9.31363086e-10
1.2706342e-09
3.46800031e-08
4.42291506e-08
4.24901738e-08
1.07937855e-09
1.31074943e-09
3.42477672e-08
4.18383802e-08
4.30370274e-08
4.29005508e-08
9.25534156e-10
1.31256288e-09
3.61096059e-08
4.08036284e-08
8.69929826e-10
1.32177299e-09
3.7255362e-08
4.0729117e-08
8.82404614e-10
1.25646294e-09
3.5071351e-08
4.51654293e-08
4.43516263e-08
1.0248312e-09
1.31107038e-09
3.49434922e-08
3.98460705e-08
8.80216835e-10
1.2700061e-09
3.41517296e-08
4.46719218e-08
4.3896181e-08
1.04817598e-09
1.23342107e-09
3.42790638e-08
4.59021937e-08
4.56270868e-08
9.28699353e-10
1.27060905e-09
3.7019198e-08
4.29401756e-08
7.40043415e-10
1.2711358e-09
3.90044101e-08
4.39073793e-08
6.87002085e-10
1.25151216e-09
3.95907013e-08
4.46044374e-08
6.52054653e-10
1.23967952e-09
3.98989311e-08
4.49157798e-08
6.25351545e-10
1.23446825e-09
3.99456762e-08
4.49805133e-08
6.06246517e-10
1.23460735e-09
3.96527192e-08
4.46494083e-08
5.97333193e-10
1.24092312e-09
3.90982747e-08
4.38705474e-08
6.00853429e-10
1.24464717e-09
3.84827134e-08
4.32196224e-08
6.47169063e-10
1.18993048e-09
3.50096803e-08
4.79581252e-08
4.75330236e-08
7.36814422e-10
1.25574361e-09
3.5571373e-08
4.2179513e-08
6.14815614e-10
1.28609284e-09
3.6066057e-08
4.1498709e-08
6.44749228e-10
1.23245614e-09
3.33272676e-08
4.5822452e-08
4.56240086e-08
7.5484715e-10
1.27975586e-09
3.40410349e-08
4.03744891e-08
6.81010381e-10
1.25438782e-09
3.2218309e-08
4.45535118e-08
4.41586545e-08
7.31100496e-10
1.30692911e-09
3.35541415e-08
4.01103493e-08
6.7342868e-10
1.31600545e-09
3.20945861e-08
4.09136114e-08
4.32022361e-08
4.28795275e-08
6.94181762e-10
1.31290276e-09
3.32108193e-08
3.90073347e-08
7.12686167e-10
1.29431159e-09
3.02317118e-08
4.29866948e-08
4.13147775e-08
9.6659267e-10
1.39478172e-09
1.36823636e-09
3.1390549e-08
4.0160681e-08
4.31911169e-08
4.3129168e-08
7.52247518e-10
1.26313649e-09
3.00333532e-08
4.30915441e-08
4.2849616e-08
8.2101089e-10
1.29057253e-09
2.84354867e-08
4.15780098e-08
4.14524807e-08
9.20909778e-10
1.29456945e-09
2.89421453e-08
4.27063637e-08
4.25723932e-08
8.13554236e-10
1.25197142e-09
3.03059769e-08
4.44419798e-08
4.39658531e-08
7.51059657e-10
1.28509925e-09
3.4146822e-08
4.08367196e-08
7.34911114e-10
1.22497233e-09
3.30344246e-08
4.71408444e-08
4.66318261e-08
6.82333927e-10
1.24368979e-09
3.6543611e-08
4.29360786e-08
5.07828937e-10
1.21330107e-09
1.05474698e-09
1.20251356e-09
3.23948047e-08
4.65360339e-08
4.84392588e-08
4.8085192e-08
5.68823294e-10
1.21374937e-09
3.6876805e-08
4.31987237e-08
6.07136896e-10
1.25539295e-09
3.70382452e-08
4.26196449e-08
6.62321734e-10
1.19980741e-09
3.28285863e-08
4.71002721e-08
4.64256174e-08
6.74498211e-10
1.26828867e-09
3.42723831e-08
4.10577896e-08
6.73502752e-10
1.31217043e-09
3.468998e-08
4.04226536e-08
7.21324504e-10
1.27824914e-09
2.94135902e-08
4.28375622e-08
4.11241145e-08
1.02436046e-09
1.32664032e-09
2.81001755e-08
4.09318909e-08
3.95244751e-08
4.46701078e-08
4.44252367e-08
7.19111329e-10
1.24016866e-09
1.17758466e-09
1.24712301e-09
2.69604988e-08
4.49250842e-08
4.47851229e-08
8.35247553e-10
1.23306658e-09
2.99132412e-08
4.34372322e-08
4.14833689e-08
4.83837951e-08
4.81182158e-08
6.44887335e-10
1.19971513e-09
1.09806006e-09
1.23458423e-09
3.41550687e-08
4.38186259e-08
7.61711572e-10
1.19381356e-09
3.25396155e-08
4.76074526e-08
4.72652309e-08
7.93478534e-10
1.23750937e-09
3.45245098e-08
4.1518045e-08
7.94534607e-10
1.21373209e-09
3.16262592e-08
4.68449011e-08
4.65231899e-08
8.12473905e-10
1.25235979e-09
3.69180589e-08
3.94782817e-08
6.73529451e-10
3.48375032e-08
4.87033134e-08
5.41997871e-10
1.19981748e-09
1.02971009e-09
3.83816488e-08
4.68011652e-08
5.80201061e-10
1.28876656e-09
1.15629485e-09
3.23682993e-08
4.48348479e-08
4.1143372e-08
4.618184e-08
4.56903085e-08
8.22101655e-10
1.26325128e-09
3.5848582e-08
4.10092397e-08
7.19258051e-10
1.30380126e-09
1.2564834e-09
3.76574823e-08
4.39952084e-08
7.83392507e-10
1.15874515e-09
3.24640045e-08
4.89271468e-08
4.83734022e-08
7.71762929e-10
1.22739662e-09
3.74523234e-08
4.21158613e-08
6.58168488e-10
1.34043659e-09
1.13819726e-09
3.32435276e-08
4.98099836e-08
4.93026583e-08
8.13812205e-10
1.16377606e-09
2.96434413e-08
4.58973109e-08
4.56263862e-08
9.03829095e-10
1.19874043e-09
2.80513119e-08
4.45504252e-08
4.42240231e-08
9.08200415e-10
1.20645565e-09
2.8691842e-08
4.55498806e-08
4.53675845e-08
9.15067605e-10
1.1738467e-09
2.99780748e-08
4.82603705e-08
4.79548338e-08
8.17124772e-10
1.16683966e-09
1.13953463e-09
1.16649722e-09
2.86432741e-08
4.92126569e-08
4.90076805e-08
9.07985723e-10
1.1293828e-09
3.17211965e-08
4.95540338e-08
4.88945174e-08
8.48232764e-10
1.22058544e-09
3.72644745e-08
4.34938875e-08
7.96035098e-10
1.26399011e-09
3.92954314e-08
4.34881502e-08
7.97026039e-10
1.25464305e-09
3.86352103e-08
4.29952083e-08
8.94392598e-10
1.17711854e-09
3.28550546e-08
4.83954572e-08
4.78192949e-08
9.1143649e-10
1.23792967e-09
3.62894287e-08
4.2018169e-08
8.82674484e-10
1.28113086e-09
3.76546079e-08
4.21354763e-08
9.56273035e-10
1.19617241e-09
3.28371476e-08
4.84681192e-08
4.77653145e-08
9.46317151e-10
1.25079779e-09
3.66550665e-08
4.20226588e-08
9.33330218e-10
1.29936083e-09
3.76081813e-08
4.16366159e-08
1.01134593e-09
1.23378375e-09
3.2113175e-08
4.68507331e-08
4.63439556e-08
1.07078556e-09
1.21503696e-09
2.89406028e-08
4.58534662e-08
3.33193316e-08
1.12261073e-09
2.91902997e-08
4.27243871e-08
1.06332327e-09
1.30253724e-09
3.65272283e-08
4.04208219e-08
)
;

boundaryField
{
    closed
    {
        type            calculated;
        value           uniform 4.22143554e-13;
    }
    open
    {
        type            calculated;
        value           nonuniform List<scalar> 0();
    }
    sides
    {
        type            empty;
    }
    procBoundary0to1
    {
        type            processor;
        value           uniform 1.09388364e-09;
    }
}


// ************************************************************************* //
