/*--------------------------------*- C++ -*----------------------------------*\
| =========                 |                                                 |
| \\      /  F ield         | OpenFOAM: The Open Source CFD Toolbox           |
|  \\    /   O peration     | Version:  2306                                  |
|   \\  /    A nd           | Website:  www.openfoam.com                      |
|    \\/     M anipulation  |                                                 |
\*---------------------------------------------------------------------------*/
FoamFile
{
    version     2.0;
    format      ascii;
    arch        "LSB;label=32;scalar=64";
    class       volScalarField;
    location    "0.00084";
    object      H2;
}
// * * * * * * * * * * * * * * * * * * * * * * * * * * * * * * * * * * * * * //

dimensions      [0 0 0 0 0 0 0];

internalField   nonuniform List<scalar> 
530
(
0.0109233021
0.0108147225
0.0108035147
0.0108034658
0.0108034605
0.0108034603
0.0108034603
0.0108034603
0.0108034603
0.0108034603
0.0108034603
0.0108034603
0.0108034603
0.0108034603
0.0108034603
0.0108034603
0.0108034603
0.0108034603
0.0108034603
0.0108034603
0.0108034603
0.0108034603
0.0108034603
0.0108034603
0.0108034603
0.0108034603
0.0108034603
0.0108034603
0.0108034603
0.0108034603
0.0108034603
0.0108034603
0.0108034603
0.0108034603
0.0108034603
0.0108034603
0.0108034603
0.0108034603
0.0108034603
0.0108034603
0.0108034603
0.0108034603
0.0108034603
0.0108034603
0.0108034603
0.0108034603
0.0108034603
0.0108034603
0.0108034603
0.0108034603
0.0108034603
0.0108034603
0.0108034603
0.0108034603
0.0108034603
0.0108034603
0.0108034603
0.0108034603
0.0108034603
0.0108034603
0.0108034603
0.0108034603
0.0108034603
0.0108034603
0.0108034603
0.0108034603
0.0108034603
0.0108034603
0.0108034603
0.0108034603
0.0108034603
0.0108034603
0.0108034604
0.0108034605
0.0108034606
0.0108034616
0.0108034634
0.0108034645
0.0108034673
0.0108034852
0.0108034531
0.0108033783
0.0108038718
0.0108051103
0.0108024236
0.010793315
0.0108027493
0.010837771
0.010819902
0.0106951847
0.0107000638
0.0110187879
0.011016979
0.0106788768
0.0106493808
0.0107007643
0.0110318328
0.0109999346
0.0110133059
0.0106758059
0.0106600852
0.0106584133
0.0106755205
0.0110232721
0.0110066592
0.0110083789
0.0110067518
0.0106833751
0.0106644167
0.0106661868
0.0106882469
0.0110133984
0.0109981791
0.0106961495
0.0106725158
0.01067683
0.0106730109
0.0107711222
0.011012969
0.0110031799
0.0110032668
0.0110089799
0.0106880852
0.0106483982
0.0106665559
0.0110243875
0.011009304
0.0106857617
0.0106582423
0.0106631031
0.0110263252
0.0110064353
0.0106838816
0.0106637573
0.0110409438
0.0110078468
0.0106767926
0.0106593643
0.011042939
0.0110079339
0.0106818875
0.0106697412
0.0110372858
0.0110108669
0.0106886057
0.0106601648
0.0106652959
0.011027679
0.0110047064
0.0106850493
0.0106634838
0.0110414636
0.0110050656
0.0106848141
0.0106701519
0.0110374202
0.0110086077
0.0106918373
0.0106640637
0.0106690196
0.0110256307
0.0110022223
0.0106914569
0.0106694285
0.0110403495
0.0110029947
0.010690388
0.0106752125
0.0110378703
0.0110074111
0.0106963483
0.0106670639
0.0106683463
0.0110245044
0.01100429
0.0107009217
0.0106703543
0.0106704791
0.0106663066
0.011037802
0.0110042386
0.010694816
0.0106723892
0.0110430223
0.011003374
0.0106902012
0.0106747127
0.011042164
0.0110086552
0.0106931481
0.0106642704
0.0106617996
0.01102908
0.011004169
0.0106985894
0.0106778301
0.0110421081
0.0110074596
0.0107020657
0.0106651668
0.0106665858
0.0110274261
0.0110105179
0.0106991072
0.0106623091
0.0106574451
0.0110373938
0.0110078632
0.0106933364
0.0106658594
0.0110541364
0.0110079086
0.0106885284
0.0106627754
0.0110587147
0.0110095948
0.010687055
0.0106607291
0.0110617454
0.0110106106
0.0106863018
0.0106598113
0.0110640657
0.0110110585
0.0106863326
0.0106596571
0.0110657202
0.0110110282
0.0106874506
0.0106609082
0.0110664917
0.0110104186
0.0106891618
0.0106640268
0.0110662253
0.0110098982
0.0106897199
0.0106680911
0.0110624564
0.0110144154
0.0106945034
0.0106564526
0.0106508273
0.0110540403
0.0110091847
0.0106993409
0.0106683301
0.0110650073
0.0110064916
0.0106975876
0.0106723613
0.0110626195
0.0110108144
0.0107077207
0.0106631282
0.0106576705
0.0110525842
0.0110068806
0.0107061837
0.0106761238
0.0110595331
0.0110088364
0.0107159762
0.0106679672
0.0106615113
0.0110545669
0.0110047312
0.010710637
0.0106742603
0.0110601133
0.0110040342
0.0107183971
0.010672856
0.0106709218
0.0106664023
0.0110580366
0.0110039938
0.0107122236
0.010679621
0.0110568426
0.0110055065
0.0107319639
0.0106694772
0.0106729912
0.0110348571
0.0109966542
0.0109987125
0.0107201412
0.0106751464
0.0106673987
0.0106662115
0.0110533499
0.0110081559
0.0107335271
0.0106705978
0.0106668007
0.0110469655
0.0110057164
0.0107476066
0.0106745225
0.0106731696
0.0110382582
0.0110052135
0.0107430158
0.0106715006
0.0106688218
0.0110476733
0.0110089736
0.0107313734
0.0106673923
0.0106624011
0.0110528872
0.0110063955
0.0107050069
0.0106751927
0.0110549544
0.0110113935
0.0107095946
0.0106596813
0.0106536423
0.0110587813
0.0110100924
0.010698301
0.0106673913
0.0110743973
0.0110128913
0.0110261461
0.0110140376
0.010715313
0.0106556774
0.0106529861
0.0106498464
0.0110689692
0.0110127035
0.0106967816
0.0106667073
0.0110658154
0.0110089978
0.0106942031
0.0106698462
0.0110612831
0.0110135422
0.0107117821
0.0106605601
0.0106539467
0.0110595239
0.0110081383
0.0107070692
0.0106718222
0.011060072
0.011004292
0.0107024042
0.0106750058
0.0110562012
0.0110068943
0.0107395191
0.0106705881
0.0106747373
0.0110296144
0.0110025603
0.0107500079
0.0106745966
0.0106786895
0.0106655767
0.0106633601
0.0110559923
0.0110100393
0.0110153071
0.0110095331
0.0107603782
0.0106637944
0.0106616427
0.0110459492
0.0110106147
0.0107351521
0.0106698642
0.0106728757
0.0106548377
0.0106505542
0.0110624492
0.011013872
0.0110222548
0.0110110502
0.0107033204
0.0106649806
0.0110530126
0.0110142496
0.010714307
0.0106576189
0.0106528765
0.0110494009
0.0110104116
0.0107033304
0.0106745952
0.0110499624
0.0110122398
0.0107221509
0.0106602957
0.0106564673
0.0110476997
0.0110088341
0.0106952815
0.0106816454
0.0110602772
0.0106968492
0.010654071
0.0110723618
0.0110131084
0.0110289328
0.0106870808
0.0106560282
0.0110688427
0.0110057933
0.011016938
0.0107143169
0.0106679899
0.0106738441
0.0106645503
0.0106590783
0.0110466439
0.0110080615
0.0106991026
0.0106746368
0.0110568634
0.011004273
0.0110083566
0.0106881218
0.0106669119
0.0110513642
0.0110169955
0.0107153583
0.0106552337
0.0106492438
0.011051235
0.0110114278
0.0106961729
0.0106700019
0.0110618865
0.0110013514
0.0110183578
0.0107074379
0.0106507385
0.0106458111
0.0110480433
0.0110166518
0.0107395851
0.0106639703
0.0106616585
0.0110400727
0.011013199
0.0107527373
0.0106689807
0.0106662094
0.011039723
0.0110126149
0.01074729
0.0106647385
0.0106622276
0.0110393452
0.0110156093
0.0107364624
0.0106553858
0.0106527441
0.0110478081
0.0110164371
0.0110187618
0.0110165726
0.010746585
0.0106496439
0.0106479789
0.0110401121
0.0110196436
0.0107210474
0.0106520489
0.010646337
0.0110447672
0.01101223
0.0106966083
0.0106652638
0.0110496875
0.0110084164
0.0106894237
0.0106651701
0.0110497161
0.0110089953
0.0106899424
0.0106699814
0.0110415941
0.0110153048
0.010712939
0.0106565472
0.0106510892
0.0110393105
0.0110105631
0.0106996295
0.0106708322
0.0110423305
0.0110066911
0.0106920961
0.0106719799
0.0110364525
0.0110137844
0.0107121066
0.0106548375
0.0106500072
0.0110365535
0.0110096657
0.0106968326
0.0106694477
0.0110381871
0.0110053088
0.0106911039
0.0106721999
0.0110318625
0.0110106927
0.0107178516
0.0106574399
0.0106562612
0.0110264714
0.0110124621
0.0107426331
0.0106593543
0.0107069518
0.0110215276
0.0107404477
0.0106679029
0.0110276484
0.0110049194
0.010691934
0.0106763029
)
;

boundaryField
{
    closed
    {
        type            calculated;
        value           uniform 0.0144407035;
    }
    open
    {
        type            calculated;
        value           nonuniform List<scalar> 0();
    }
    sides
    {
        type            empty;
    }
    procBoundary0to1
    {
        type            processor;
        value           uniform 0.0110249562;
    }
}


// ************************************************************************* //
