/*--------------------------------*- C++ -*----------------------------------*\
| =========                 |                                                 |
| \\      /  F ield         | OpenFOAM: The Open Source CFD Toolbox           |
|  \\    /   O peration     | Version:  2306                                  |
|   \\  /    A nd           | Website:  www.openfoam.com                      |
|    \\/     M anipulation  |                                                 |
\*---------------------------------------------------------------------------*/
FoamFile
{
    version     2.0;
    format      ascii;
    arch        "LSB;label=32;scalar=64";
    class       volScalarField;
    location    "0.00084";
    object      p;
}
// * * * * * * * * * * * * * * * * * * * * * * * * * * * * * * * * * * * * * //

dimensions      [1 -1 -2 0 0 0 0];

internalField   nonuniform List<scalar> 
530
(
101200.601
101223.83
101199.037
101159.858
101183.942
101261.088
101318.789
101368.386
101447.093
101542.843
101569.775
101530.552
101502.591
101496.16
101487.248
101486.179
101496.09
101510.39
101514.201
101507.314
101495.447
101482.381
101469.684
101457.886
101447.716
101438.836
101430.022
101420.784
101411.844
101404.336
101398.877
101395.379
101393.485
101392.842
101393.56
101396.497
101402.976
101414.583
101433.076
101459.359
101492.484
101528.914
101563.068
101589.522
101604.709
101607.846
101600.48
101585.446
101565.795
101544.165
101522.617
101502.649
101485.246
101470.915
101459.728
101451.096
101445.316
101441.573
101439.376
101438.324
101438.082
101438.392
101439.058
101439.934
101440.907
101441.898
101442.849
101443.725
101444.502
101445.171
101445.73
101446.182
101446.533
101446.79
101446.963
101447.061
101447.094
101447.07
101446.999
101446.89
101446.749
101446.584
101446.399
101446.197
101445.981
101445.752
101445.512
101445.263
101444.999
101444.72
101444.435
101444.137
101443.822
101443.53
101443.192
101442.867
101442.54
101442.234
101441.93
101441.164
101440.988
101440.79
101440.573
101440.393
101440.187
101439.98
101439.769
101439.582
101439.351
101439.11
101438.774
101438.546
101438.267
101437.999
101437.736
101437.445
101437.125
101436.794
101436.448
101436.061
101435.646
101435.192
101434.705
101434.824
101434.889
101434.918
101434.866
101434.81
101434.707
101434.586
101434.446
101434.239
101434.04
101433.819
101433.555
101433.242
101432.951
101432.642
101432.29
101431.894
101431.523
101431.133
101430.709
101430.251
101429.815
101429.329
101428.839
101428.368
101427.846
101427.353
101426.826
101426.267
101425.68
101425.131
101424.559
101423.959
101423.339
101422.75
101422.398
101422.043
101421.702
101421.308
101420.944
101420.562
101420.146
101419.685
101419.254
101418.807
101418.32
101417.783
101417.261
101416.734
101416.183
101415.631
101415.002
101414.382
101413.749
101413.062
101412.404
101412.592
101412.075
101411.573
101411.07
101410.531
101409.963
101409.44
101408.903
101408.347
101407.775
101407.256
101406.784
101406.325
101405.884
101405.375
101404.886
101404.825
101404.707
101404.496
101404.291
101404.072
101403.82
101403.534
101403.135
101402.732
101402.324
101401.951
101402.576
101402.34
101402.105
101401.882
101401.613
101401.284
101400.995
101400.703
101400.369
101399.981
101399.643
101399.311
101398.941
101398.517
101398.149
101397.79
101397.392
101396.939
101396.542
101396.153
101395.722
101395.233
101394.801
101394.374
101393.904
101393.377
101392.91
101392.448
101391.949
101391.407
101390.938
101390.488
101390.033
101389.562
101389.196
101389.396
101389.704
101388.635
101388.462
101388.359
101388.295
101388.189
101387.972
101387.79
101387.636
101387.408
101387.035
101386.668
101386.296
101385.982
101387.06
101386.949
101386.863
101386.757
101386.62
101386.439
101386.359
101386.367
101386.468
101385.245
101384.95
101384.737
101384.591
101384.401
101384.135
101383.923
101383.721
101383.471
101383.254
101382.944
101382.569
101382.274
101382.031
101381.763
101381.432
101381.167
101380.926
101380.688
101380.434
101379.979
101379.474
101379.825
101380.002
101380.038
101380.078
101380.003
101379.857
101379.761
101379.676
101379.612
101379.445
101379.232
101379.097
101378.986
101378.894
101378.742
101378.534
101378.374
101378.221
101378.072
101377.813
101377.501
101377.255
101377.029
101376.819
101376.551
101376.263
101376.064
101375.965
101375.86
101375.742
101375.735
101375.813
101375.935
101374.779
101374.536
101374.403
101374.31
101374.207
101374.057
101373.926
101373.801
101373.702
101373.612
101373.487
101373.373
101373.204
101372.981
101372.834
101372.735
101372.611
101372.429
101372.321
101372.265
101372.186
101372.044
101371.955
101371.876
101371.767
101371.517
101371.241
101371.056
101370.97
101370.866
101370.714
101370.634
101370.615
101370.571
101370.475
101370.443
101370.449
101370.469
101370.51
101370.489
101370.529
101370.589
101370.623
101370.649
101370.679
101370.609
101370.521
101370.464
101370.386
101370.328
101370.261
101370.205
101370.041
101369.792
101369.582
101369.38
101369.138
101368.87
101368.686
101369.636
101369.65
101369.638
101369.68
101369.733
101369.797
101369.802
101369.709
101369.626
101369.544
101369.484
101370.437
101370.534
101370.677
101370.836
101370.99
101371.129
101371.348
101371.638
101371.96
101371.249
101371.251
101371.326
101371.428
101371.482
101371.516
101371.607
101371.689
101371.75
101371.787
101371.147
101371.398
101371.652
101371.847
101372.047
101372.279
101372.543
101372.807
101373.112
101373.455
101372.884
101372.95
101373.085
101373.263
101373.423
101373.539
101373.659
101373.816
101374.007
101374.154
101374.223
101374.305
101374.39
101374.467
101375.345
101375.549
101375.801
101376.134
101376.462
101376.791
101377.162
101377.589
101378.077
101378.584
101378.204
101378.464
101378.821
101379.274
101379.752
101379.427
101379.685
101380.035
101380.476
101380.959
101380.73
101381.008
101381.343
101381.751
101382.224
101382.749
101383.193
101383.673
101384.192
101384.755
101385.322
101385.843
101386.375
101386.888
101387.402
101387.919
101388.443
101389.583
101390.215
101390.892
101391.626
101392.387
101392.458
101392.973
101393.554
101394.238
101394.925
101395.562
101396.25
101397.062
101397.868
101398.617
101399.414
101400.334
101401.253
101402.119
101403.023
101403.98
101404.969
101405.913
101406.824
101407.772
101408.855
101409.935
101410.949
101411.999
101413.186
101414.372
101415.496
101416.656
101417.869
101419.115
101420.302
101421.455
101422.638
101423.978
101425.315
101426.577
101427.868
101429.32
101430.772
101432.154
101433.572
101435.043
101436.55
101437.988
101439.404
101440.86
101442.373
101443.926
101445.49
101447.038
101448.648
101450.316
101451.894
101453.489
101455.293
)
;

boundaryField
{
    closed
    {
        type            zeroGradient;
    }
    open
    {
        type            waveTransmissive;
        gamma           1.25;
        fieldInf        101325;
        lInf            1;
        value           nonuniform List<scalar> 0();
    }
    sides
    {
        type            empty;
    }
    procBoundary0to1
    {
        type            processor;
        value           uniform 101457.092;
    }
}


// ************************************************************************* //
