/*--------------------------------*- C++ -*----------------------------------*\
| =========                 |                                                 |
| \\      /  F ield         | OpenFOAM: The Open Source CFD Toolbox           |
|  \\    /   O peration     | Version:  2306                                  |
|   \\  /    A nd           | Website:  www.openfoam.com                      |
|    \\/     M anipulation  |                                                 |
\*---------------------------------------------------------------------------*/
FoamFile
{
    version     2.0;
    format      ascii;
    arch        "LSB;label=32;scalar=64";
    class       volScalarField;
    location    "0.00084";
    object      prefDZ_H2O;
}
// * * * * * * * * * * * * * * * * * * * * * * * * * * * * * * * * * * * * * //

dimensions      [1 -1 -1 0 0 0 0];

internalField   nonuniform List<scalar> 
530
(
-7.59912274e-07
-7.52449561e-07
-7.52070452e-07
-7.52079328e-07
-7.52080012e-07
-7.52080021e-07
-7.52080022e-07
-7.52080022e-07
-7.52080022e-07
-7.52080022e-07
-7.52080022e-07
-7.52080022e-07
-7.52080022e-07
-7.52080022e-07
-7.52080022e-07
-7.52080022e-07
-7.52080022e-07
-7.52080022e-07
-7.52080022e-07
-7.52080022e-07
-7.52080022e-07
-7.52080022e-07
-7.52080022e-07
-7.52080022e-07
-7.52080022e-07
-7.52080022e-07
-7.52080022e-07
-7.52080022e-07
-7.52080022e-07
-7.52080022e-07
-7.52080022e-07
-7.52080022e-07
-7.52080022e-07
-7.52080022e-07
-7.52080022e-07
-7.52080022e-07
-7.52080022e-07
-7.52080022e-07
-7.52080022e-07
-7.52080022e-07
-7.52080022e-07
-7.52080022e-07
-7.52080022e-07
-7.52080022e-07
-7.52080022e-07
-7.52080022e-07
-7.52080022e-07
-7.52080022e-07
-7.52080022e-07
-7.52080022e-07
-7.52080022e-07
-7.52080022e-07
-7.52080022e-07
-7.52080022e-07
-7.52080022e-07
-7.52080022e-07
-7.52080022e-07
-7.52080022e-07
-7.52080022e-07
-7.52080022e-07
-7.52080022e-07
-7.52080022e-07
-7.52080022e-07
-7.52080022e-07
-7.52080022e-07
-7.52080022e-07
-7.52080022e-07
-7.52080022e-07
-7.52080022e-07
-7.52080021e-07
-7.52080021e-07
-7.52080021e-07
-7.52080022e-07
-7.52080017e-07
-7.52079999e-07
-7.52080021e-07
-7.52080103e-07
-7.52079887e-07
-7.52079758e-07
-7.52080762e-07
-7.52075834e-07
-7.52065379e-07
-7.52115728e-07
-7.52245199e-07
-7.51943673e-07
-7.50922723e-07
-7.51951701e-07
-7.55715292e-07
-7.53783684e-07
-7.39301495e-07
-7.39870911e-07
-7.74940241e-07
-7.74782404e-07
-7.37494827e-07
-7.3341424e-07
-7.39978937e-07
-7.76076464e-07
-7.73311473e-07
-7.74466948e-07
-7.37101649e-07
-7.35002335e-07
-7.3476518e-07
-7.36841715e-07
-7.75332264e-07
-7.73890876e-07
-7.74040381e-07
-7.7389628e-07
-7.38125919e-07
-7.35667992e-07
-7.35813267e-07
-7.38573401e-07
-7.7447526e-07
-7.73155977e-07
-7.3962511e-07
-7.3659439e-07
-7.37236547e-07
-7.36588917e-07
-7.48459228e-07
-7.74439485e-07
-7.73588131e-07
-7.73597682e-07
-7.74091346e-07
-7.38705948e-07
-7.3348928e-07
-7.35815381e-07
-7.75428992e-07
-7.74121943e-07
-7.38278675e-07
-7.34588679e-07
-7.35396053e-07
-7.7559831e-07
-7.73871528e-07
-7.37748749e-07
-7.35547186e-07
-7.76867173e-07
-7.7399332e-07
-7.36845351e-07
-7.35001788e-07
-7.77040494e-07
-7.74001761e-07
-7.37487518e-07
-7.36144286e-07
-7.7654931e-07
-7.74258252e-07
-7.38579668e-07
-7.34756143e-07
-7.35675278e-07
-7.75715882e-07
-7.73721131e-07
-7.37901784e-07
-7.355833e-07
-7.76912328e-07
-7.73752013e-07
-7.37884689e-07
-7.36279792e-07
-7.76560913e-07
-7.74061799e-07
-7.39023765e-07
-7.3527637e-07
-7.36159414e-07
-7.75538133e-07
-7.7350593e-07
-7.38709286e-07
-7.36311763e-07
-7.7681557e-07
-7.73573042e-07
-7.38564078e-07
-7.36879044e-07
-7.7660011e-07
-7.73958588e-07
-7.39540533e-07
-7.35630875e-07
-7.36024036e-07
-7.75440288e-07
-7.73686462e-07
-7.40017551e-07
-7.36282967e-07
-7.36086714e-07
-7.35804039e-07
-7.76594418e-07
-7.73681567e-07
-7.39059391e-07
-7.36608877e-07
-7.7704772e-07
-7.73606804e-07
-7.38524609e-07
-7.36792686e-07
-7.76973137e-07
-7.74066453e-07
-7.39164449e-07
-7.3526435e-07
-7.35224471e-07
-7.75837611e-07
-7.73676335e-07
-7.39549799e-07
-7.37172438e-07
-7.76968315e-07
-7.73962821e-07
-7.40131063e-07
-7.35415481e-07
-7.35653413e-07
-7.75693497e-07
-7.74228447e-07
-7.39895391e-07
-7.34992973e-07
-7.3468585e-07
-7.76558964e-07
-7.73996191e-07
-7.38796432e-07
-7.35764428e-07
-7.78012822e-07
-7.73999784e-07
-7.38104453e-07
-7.35372364e-07
-7.78410374e-07
-7.74146198e-07
-7.37895842e-07
-7.35102561e-07
-7.78673607e-07
-7.74234401e-07
-7.37787685e-07
-7.34981727e-07
-7.7887518e-07
-7.74273283e-07
-7.37781955e-07
-7.34959272e-07
-7.79018892e-07
-7.74270723e-07
-7.37914383e-07
-7.35107919e-07
-7.79085902e-07
-7.74218035e-07
-7.3813515e-07
-7.35470396e-07
-7.79063018e-07
-7.74173558e-07
-7.38281138e-07
-7.3588022e-07
-7.78736691e-07
-7.74566117e-07
-7.39274414e-07
-7.34206404e-07
-7.33872236e-07
-7.78003069e-07
-7.74110764e-07
-7.39485307e-07
-7.36075933e-07
-7.78957152e-07
-7.73877267e-07
-7.3927203e-07
-7.36488516e-07
-7.78750678e-07
-7.74253504e-07
-7.40860477e-07
-7.35066599e-07
-7.34702846e-07
-7.77877185e-07
-7.73911632e-07
-7.40427638e-07
-7.36956932e-07
-7.78482581e-07
-7.74082169e-07
-7.41883389e-07
-7.3564068e-07
-7.3523656e-07
-7.78048893e-07
-7.73724305e-07
-7.40922565e-07
-7.36864368e-07
-7.78532756e-07
-7.73663442e-07
-7.42083613e-07
-7.36624569e-07
-7.36090705e-07
-7.35814659e-07
-7.78351242e-07
-7.73661198e-07
-7.41180266e-07
-7.37446629e-07
-7.78248839e-07
-7.73792827e-07
-7.43794806e-07
-7.36021905e-07
-7.36566227e-07
-7.76338282e-07
-7.73025425e-07
-7.73205011e-07
-7.42538094e-07
-7.3692118e-07
-7.35834346e-07
-7.35757889e-07
-7.77945129e-07
-7.74022871e-07
-7.43984672e-07
-7.36086035e-07
-7.35849029e-07
-7.77389847e-07
-7.73811461e-07
-7.45599568e-07
-7.36633898e-07
-7.36555865e-07
-7.76634018e-07
-7.73768411e-07
-7.45079983e-07
-7.36218508e-07
-7.36044884e-07
-7.77451401e-07
-7.74094307e-07
-7.43723485e-07
-7.35618021e-07
-7.35334891e-07
-7.77903385e-07
-7.73869619e-07
-7.40307672e-07
-7.36809717e-07
-7.78084778e-07
-7.74303957e-07
-7.41112409e-07
-7.34584776e-07
-7.34234139e-07
-7.78414382e-07
-7.74190021e-07
-7.39244157e-07
-7.35877564e-07
-7.79774138e-07
-7.74432372e-07
-7.75583476e-07
-7.74531161e-07
-7.41757692e-07
-7.34399146e-07
-7.3387011e-07
-7.33704416e-07
-7.79301176e-07
-7.74416559e-07
-7.39075355e-07
-7.3578233e-07
-7.79028187e-07
-7.74095323e-07
-7.38857323e-07
-7.36111997e-07
-7.78635145e-07
-7.74490427e-07
-7.4134014e-07
-7.34655772e-07
-7.34292127e-07
-7.78479202e-07
-7.7401979e-07
-7.40371453e-07
-7.36523931e-07
-7.78529042e-07
-7.73686129e-07
-7.39896946e-07
-7.3686637e-07
-7.78193299e-07
-7.73913253e-07
-7.44638668e-07
-7.36129022e-07
-7.36727218e-07
-7.75883287e-07
-7.73537787e-07
-7.45911172e-07
-7.36749627e-07
-7.37290351e-07
-7.35445755e-07
-7.3532601e-07
-7.7817414e-07
-7.74186607e-07
-7.74643904e-07
-7.74142385e-07
-7.4708777e-07
-7.35271305e-07
-7.35138229e-07
-7.77301893e-07
-7.74236642e-07
-7.44136656e-07
-7.35972691e-07
-7.36528977e-07
-7.34014132e-07
-7.33750054e-07
-7.78735166e-07
-7.74518102e-07
-7.75246224e-07
-7.74272558e-07
-7.40203715e-07
-7.35549208e-07
-7.77916333e-07
-7.74551262e-07
-7.41628214e-07
-7.34352865e-07
-7.34068086e-07
-7.77601363e-07
-7.74218446e-07
-7.40029837e-07
-7.36649501e-07
-7.77650971e-07
-7.74377734e-07
-7.42531644e-07
-7.34681432e-07
-7.34458953e-07
-7.77453573e-07
-7.74082548e-07
-7.38957416e-07
-7.37516247e-07
-7.78547565e-07
-7.39495631e-07
-7.33902047e-07
-7.79601595e-07
-7.74453927e-07
-7.75824468e-07
-7.38103457e-07
-7.34378513e-07
-7.79294393e-07
-7.73818422e-07
-7.74785751e-07
-7.41713644e-07
-7.35593418e-07
-7.36658204e-07
-7.35107304e-07
-7.34794157e-07
-7.77361463e-07
-7.74014972e-07
-7.39420924e-07
-7.36739408e-07
-7.7825149e-07
-7.73687347e-07
-7.7404152e-07
-7.38302912e-07
-7.3566019e-07
-7.7777293e-07
-7.74790181e-07
-7.41726124e-07
-7.33946467e-07
-7.33610142e-07
-7.77760462e-07
-7.74306158e-07
-7.3893274e-07
-7.36209675e-07
-7.78688273e-07
-7.7343297e-07
-7.7490905e-07
-7.40884816e-07
-7.33464395e-07
-7.3319783e-07
-7.77484011e-07
-7.74760163e-07
-7.44520443e-07
-7.35114891e-07
-7.3499357e-07
-7.76791529e-07
-7.74461782e-07
-7.4607911e-07
-7.35715261e-07
-7.35569244e-07
-7.7676115e-07
-7.74410948e-07
-7.454424e-07
-7.35231562e-07
-7.35080087e-07
-7.76728197e-07
-7.74670159e-07
-7.441744e-07
-7.34075672e-07
-7.33937783e-07
-7.774636e-07
-7.7474142e-07
-7.74943143e-07
-7.74752905e-07
-7.45431603e-07
-7.33491334e-07
-7.33406902e-07
-7.76794702e-07
-7.75019615e-07
-7.42421272e-07
-7.33604657e-07
-7.33307724e-07
-7.77199198e-07
-7.74375071e-07
-7.38996807e-07
-7.35625796e-07
-7.77626985e-07
-7.74044276e-07
-7.38120789e-07
-7.35619907e-07
-7.77629539e-07
-7.74095344e-07
-7.38271622e-07
-7.36057418e-07
-7.76923197e-07
-7.74643799e-07
-7.41394317e-07
-7.34135934e-07
-7.33841279e-07
-7.76725366e-07
-7.74230968e-07
-7.3938547e-07
-7.36287389e-07
-7.769875e-07
-7.73895453e-07
-7.38597187e-07
-7.36351645e-07
-7.76475708e-07
-7.74511633e-07
-7.41354745e-07
-7.33999209e-07
-7.33772033e-07
-7.76485731e-07
-7.7415232e-07
-7.39116651e-07
-7.36184857e-07
-7.76627016e-07
-7.73774744e-07
-7.38531719e-07
-7.36453115e-07
-7.76076081e-07
-7.7424297e-07
-7.42043113e-07
-7.34472635e-07
-7.34475113e-07
-7.75608038e-07
-7.7439602e-07
-7.45060624e-07
-7.34785974e-07
-7.40819512e-07
-7.75179799e-07
-7.44808733e-07
-7.3595139e-07
-7.75708672e-07
-7.73741408e-07
-7.3877561e-07
-7.36962259e-07
)
;

boundaryField
{
    closed
    {
        type            calculated;
        value           uniform -1.03294754e-06;
    }
    open
    {
        type            calculated;
        value           nonuniform List<scalar> 0();
    }
    sides
    {
        type            empty;
    }
    procBoundary0to1
    {
        type            processor;
        value           uniform -7.75474676e-07;
    }
}


// ************************************************************************* //
