/*--------------------------------*- C++ -*----------------------------------*\
| =========                 |                                                 |
| \\      /  F ield         | OpenFOAM: The Open Source CFD Toolbox           |
|  \\    /   O peration     | Version:  2306                                  |
|   \\  /    A nd           | Website:  www.openfoam.com                      |
|    \\/     M anipulation  |                                                 |
\*---------------------------------------------------------------------------*/
FoamFile
{
    version     2.0;
    format      ascii;
    arch        "LSB;label=32;scalar=64";
    class       volScalarField;
    location    "0.00194";
    object      prefDPV_H2;
}
// * * * * * * * * * * * * * * * * * * * * * * * * * * * * * * * * * * * * * //

dimensions      [1 -1 -1 0 0 0 0];

internalField   nonuniform List<scalar> 
530
(
-3.3257779e-05
-3.13025325e-05
-3.0930775e-05
-3.09198651e-05
-3.09188677e-05
-3.09188116e-05
-3.09188072e-05
-3.0918807e-05
-3.0918807e-05
-3.0918807e-05
-3.0918807e-05
-3.0918807e-05
-3.0918807e-05
-3.0918807e-05
-3.0918807e-05
-3.0918807e-05
-3.0918807e-05
-3.0918807e-05
-3.0918807e-05
-3.0918807e-05
-3.0918807e-05
-3.0918807e-05
-3.0918807e-05
-3.0918807e-05
-3.0918807e-05
-3.0918807e-05
-3.0918807e-05
-3.0918807e-05
-3.0918807e-05
-3.0918807e-05
-3.0918807e-05
-3.0918807e-05
-3.0918807e-05
-3.0918807e-05
-3.0918807e-05
-3.0918807e-05
-3.0918807e-05
-3.0918807e-05
-3.0918807e-05
-3.0918807e-05
-3.0918807e-05
-3.0918807e-05
-3.0918807e-05
-3.0918807e-05
-3.0918807e-05
-3.0918807e-05
-3.0918807e-05
-3.0918807e-05
-3.0918807e-05
-3.0918807e-05
-3.0918807e-05
-3.0918807e-05
-3.0918807e-05
-3.0918807e-05
-3.0918807e-05
-3.0918807e-05
-3.0918807e-05
-3.0918807e-05
-3.0918807e-05
-3.09188071e-05
-3.09188072e-05
-3.09188077e-05
-3.09188079e-05
-3.09188111e-05
-3.0918812e-05
-3.09188257e-05
-3.09188323e-05
-3.09188729e-05
-3.09189138e-05
-3.0919029e-05
-3.09191072e-05
-3.09191185e-05
-3.09193442e-05
-3.09216583e-05
-3.09238804e-05
-3.09148363e-05
-3.09090095e-05
-3.09346713e-05
-3.09803188e-05
-3.0930943e-05
-3.0874485e-05
-3.08688048e-05
-3.14660575e-05
-3.15736937e-05
-3.10078583e-05
-3.08840666e-05
-3.08994073e-05
-3.09098806e-05
-3.08984625e-05
-3.08913271e-05
-3.06836668e-05
-3.06827628e-05
-3.14785728e-05
-3.1548863e-05
-3.15340385e-05
-3.09394877e-05
-3.05504015e-05
-3.05510199e-05
-3.14831239e-05
-3.15496814e-05
-3.15446666e-05
-3.09092994e-05
-3.05510598e-05
-3.02897896e-05
-3.02956139e-05
-3.14693786e-05
-3.15284228e-05
-3.14962714e-05
-3.15384044e-05
-3.15320386e-05
-3.09145961e-05
-3.05353676e-05
-3.15072851e-05
-3.15294402e-05
-3.09257574e-05
-3.05562895e-05
-3.0361688e-05
-3.03629498e-05
-3.14610578e-05
-3.15197682e-05
-3.14856707e-05
-3.15348561e-05
-3.1518736e-05
-3.09101426e-05
-3.04593352e-05
-3.05142999e-05
-3.01557108e-05
-3.01683028e-05
-3.14515652e-05
-3.15028063e-05
-3.14963219e-05
-3.06228917e-05
-3.03086143e-05
-3.14459269e-05
-3.15162366e-05
-3.14721187e-05
-3.15254093e-05
-3.08315893e-05
-3.04874643e-05
-3.14671874e-05
-3.15225009e-05
-3.08100265e-05
-3.05990005e-05
-3.14808848e-05
-3.15110941e-05
-3.09227526e-05
-3.05921964e-05
-3.06714117e-05
-3.03898687e-05
-3.03975276e-05
-3.14475645e-05
-3.15135649e-05
-3.1478145e-05
-3.15198749e-05
-3.09408955e-05
-3.05886027e-05
-3.14869335e-05
-3.15070975e-05
-3.09223801e-05
-3.03676721e-05
-3.05507843e-05
-3.14806749e-05
-3.09346693e-05
-3.03812065e-05
-3.14634031e-05
-3.15024021e-05
-3.07009962e-05
-3.0467989e-05
-3.14422588e-05
-3.15116756e-05
-3.05611696e-05
-3.04182907e-05
-3.14247632e-05
-3.15131679e-05
-3.14563018e-05
-3.15183544e-05
-3.07291839e-05
-3.04366909e-05
-3.14492252e-05
-3.15108727e-05
-3.14855669e-05
-3.15098201e-05
-3.09191205e-05
-3.06362334e-05
-3.07254865e-05
-3.04906027e-05
-3.04976128e-05
-3.14658297e-05
-3.15110935e-05
-3.09360592e-05
-3.02902271e-05
-3.02963651e-05
-3.14792213e-05
-3.15143327e-05
-3.15174805e-05
-3.08314326e-05
-3.06545624e-05
-3.14795626e-05
-3.09227442e-05
-3.04381833e-05
-3.14780382e-05
-3.15130405e-05
-3.14989803e-05
-3.09271939e-05
-3.0394041e-05
-3.04034714e-05
-3.14572979e-05
-3.15101252e-05
-3.14941492e-05
-3.15190496e-05
-3.09260222e-05
-3.05709581e-05
-3.04062078e-05
-3.04107256e-05
-3.14601581e-05
-3.15192927e-05
-3.07516758e-05
-3.05248147e-05
-3.14714212e-05
-3.15171119e-05
-3.09469519e-05
-3.05807333e-05
-3.04258926e-05
-3.04244999e-05
-3.14495577e-05
-3.14896719e-05
-3.14773022e-05
-3.14874805e-05
-3.09274522e-05
-3.05026628e-05
-3.05134327e-05
-3.14478918e-05
-3.14950027e-05
-3.08908657e-05
-3.04519634e-05
-3.14669424e-05
-3.14558901e-05
-3.08854912e-05
-3.14405863e-05
-3.15141264e-05
-3.08217012e-05
-3.01358417e-05
-3.01350157e-05
-3.14446954e-05
-3.14879032e-05
-3.14806375e-05
-3.07583693e-05
-3.02385669e-05
-3.1455658e-05
-3.14413718e-05
-3.08652261e-05
-3.14237129e-05
-3.15085716e-05
-3.08489565e-05
-3.01628035e-05
-3.01662311e-05
-3.14397441e-05
-3.14849266e-05
-3.14855959e-05
-3.08936851e-05
-3.03840185e-05
-3.14399964e-05
-3.15010907e-05
-3.06470834e-05
-3.05124274e-05
-3.14406412e-05
-3.15016116e-05
-3.14912807e-05
-3.07969792e-05
-3.04673728e-05
-3.14591613e-05
-3.14884104e-05
-3.09401607e-05
-3.02971534e-05
-3.03153159e-05
-3.14641797e-05
-3.15030001e-05
-3.15033281e-05
-3.07977517e-05
-3.04031718e-05
-3.14801894e-05
-3.15056854e-05
-3.09219962e-05
-3.02094986e-05
-3.02221504e-05
-3.14693179e-05
-3.15331131e-05
-3.15089162e-05
-3.09021669e-05
-3.06387586e-05
-3.07443846e-05
-3.05284169e-05
-3.05311936e-05
-3.14906658e-05
-3.15179223e-05
-3.15184898e-05
-3.09266345e-05
-3.07070124e-05
-3.1476601e-05
-3.15404011e-05
-3.0898986e-05
-3.06700969e-05
-3.14698424e-05
-3.1536716e-05
-3.08671019e-05
-3.06217526e-05
-3.14816907e-05
-3.15150754e-05
-3.09149494e-05
-3.04274647e-05
-3.0434502e-05
-3.14573536e-05
-3.15276439e-05
-3.0919841e-05
-3.06356467e-05
-3.14700765e-05
-3.15136704e-05
-3.09249513e-05
-3.05016139e-05
-3.05059646e-05
-3.14634515e-05
-3.15058709e-05
-3.09258966e-05
-3.04309532e-05
-3.04362784e-05
-3.1469794e-05
-3.15228831e-05
-3.15217809e-05
-3.09235685e-05
-3.06000508e-05
-3.03698682e-05
-3.03665331e-05
-3.14561854e-05
-3.15013122e-05
-3.14969057e-05
-3.09559762e-05
-3.05103311e-05
-3.1438587e-05
-3.15123721e-05
-3.08125405e-05
-3.05744023e-05
-3.14210698e-05
-3.15115919e-05
-3.07042078e-05
-3.05698046e-05
-3.14290326e-05
-3.15027871e-05
-3.14917692e-05
-3.08179933e-05
-3.04355881e-05
-3.14334389e-05
-3.15108637e-05
-3.08400169e-05
-3.06141086e-05
-3.14450084e-05
-3.1514213e-05
-3.0942275e-05
-3.07135476e-05
-3.05458504e-05
-3.05468721e-05
-3.1460767e-05
-3.15017451e-05
-3.09198346e-05
-3.0505201e-05
-3.05163858e-05
-3.14387336e-05
-3.15287848e-05
-3.1488327e-05
-3.15406453e-05
-3.09367605e-05
-3.07610907e-05
-3.05482432e-05
-3.05549001e-05
-3.14790197e-05
-3.15471082e-05
-3.09209991e-05
-3.06394884e-05
-3.04379995e-05
-3.04460291e-05
-3.14358794e-05
-3.15273517e-05
-3.14749136e-05
-3.15339589e-05
-3.15138339e-05
-3.15414959e-05
-3.09292132e-05
-3.06983917e-05
-3.0703539e-05
-3.06406948e-05
-3.04560685e-05
-3.04656742e-05
-3.14496759e-05
-3.15378413e-05
-3.0935214e-05
-3.06943832e-05
-3.14461006e-05
-3.15397601e-05
-3.09593386e-05
-3.07402725e-05
-3.14539186e-05
-3.15348354e-05
-3.09380555e-05
-3.07369299e-05
-3.05205104e-05
-3.05249919e-05
-3.14333918e-05
-3.15283202e-05
-3.08650551e-05
-3.0606176e-05
-3.14298739e-05
-3.15337607e-05
-3.08346888e-05
-3.05859629e-05
-3.1443418e-05
-3.1530123e-05
-3.09450344e-05
-3.05874848e-05
-3.03109047e-05
-3.03177121e-05
-3.13843717e-05
-3.15125143e-05
-3.14548301e-05
-3.15285794e-05
-3.14979956e-05
-3.15460142e-05
-3.15166513e-05
-3.08952803e-05
-3.03960332e-05
-3.04079452e-05
-3.14236356e-05
-3.15290923e-05
-3.09183178e-05
-3.06443068e-05
-3.14377698e-05
-3.15222671e-05
-3.09449472e-05
-3.06953733e-05
-3.04846636e-05
-3.04893352e-05
-3.14294642e-05
-3.1493205e-05
-3.09404935e-05
-3.03060188e-05
-3.03180586e-05
-3.14164777e-05
-3.14945409e-05
-3.14973064e-05
-3.08507657e-05
-3.05544067e-05
-3.14313033e-05
-3.15066823e-05
-3.14946566e-05
-3.08500145e-05
-3.0487762e-05
-3.14349614e-05
-3.14943792e-05
-3.09356734e-05
-3.04624801e-05
-3.04706692e-05
-3.14272231e-05
-3.14879966e-05
-3.09302904e-05
-3.05058147e-05
-3.05098804e-05
-3.14383879e-05
-3.15165902e-05
-3.09375156e-05
-3.06603142e-05
-3.04105614e-05
-3.04230864e-05
-3.14211939e-05
-3.15198853e-05
-3.14846725e-05
-3.0918992e-05
-3.03586818e-05
-3.03668776e-05
-3.14202676e-05
-3.15161303e-05
-3.14800893e-05
-3.15352056e-05
-3.15141236e-05
-3.09103579e-05
-3.01905026e-05
-3.01891148e-05
-3.14218956e-05
-3.14483734e-05
-3.09266829e-05
-3.14163921e-05
-3.15183989e-05
-3.0948453e-05
-3.04078269e-05
-3.04084794e-05
-3.14432727e-05
-3.14835137e-05
-3.09300466e-05
-3.0378842e-05
-3.0394503e-05
-3.14045818e-05
-3.15086199e-05
-3.08820273e-05
-3.05923651e-05
-3.13995209e-05
-3.15093565e-05
-3.07906158e-05
-3.0573445e-05
-3.13897311e-05
-3.14943484e-05
-3.14754223e-05
-3.0765735e-05
-3.06097778e-05
-3.13588785e-05
-3.09331088e-05
-3.02076052e-05
-3.13513356e-05
-3.14737832e-05
-3.08322975e-05
-3.03994335e-05
-3.10408512e-05
-3.14818152e-05
-3.15102108e-05
-3.15082498e-05
-3.09049178e-05
-3.04244734e-05
-3.1312132e-05
-3.15025003e-05
-3.07939576e-05
-3.06493927e-05
-3.12965841e-05
-3.09385173e-05
-3.03244887e-05
)
;

boundaryField
{
    closed
    {
        type            calculated;
        value           uniform -4.05150648e-05;
    }
    open
    {
        type            calculated;
        value           nonuniform List<scalar> 0();
    }
    sides
    {
        type            empty;
    }
    procBoundary0to1
    {
        type            processor;
        value           uniform -3.13788919e-05;
    }
}


// ************************************************************************* //
