/*--------------------------------*- C++ -*----------------------------------*\
| =========                 |                                                 |
| \\      /  F ield         | OpenFOAM: The Open Source CFD Toolbox           |
|  \\    /   O peration     | Version:  2306                                  |
|   \\  /    A nd           | Website:  www.openfoam.com                      |
|    \\/     M anipulation  |                                                 |
\*---------------------------------------------------------------------------*/
FoamFile
{
    version     2.0;
    format      ascii;
    arch        "LSB;label=32;scalar=64";
    class       volScalarField;
    location    "0.00018";
    object      PV;
}
// * * * * * * * * * * * * * * * * * * * * * * * * * * * * * * * * * * * * * //

dimensions      [0 0 0 0 0 0 0];

internalField   nonuniform List<scalar> 
530
(
0.00643750827
0.00648962054
0.00646884532
0.00643599771
0.00647487307
0.00653063859
0.0065151194
0.00648000516
0.00651609086
0.00657266836
0.0065612491
0.00652469385
0.00655907509
0.00661270685
0.00660606909
0.00656900883
0.00660209936
0.00665211093
0.00664772802
0.00661268325
0.00664491928
0.00669550401
0.00668914005
0.0066587483
0.00668849896
0.00674077699
0.00673380189
0.006703528
0.0067309439
0.00678289375
0.00677681603
0.00674665086
0.00677124232
0.00682188583
0.00681685267
0.00678843319
0.00680962826
0.00685820187
0.00685503269
0.00682871235
0.00684565857
0.00689152728
0.00689087027
0.0068664975
0.00687971218
0.00692193952
0.00692319387
0.00690121455
0.00691177629
0.0069502173
0.00695277687
0.00693301714
0.006941457
0.00697615918
0.0069802178
0.00696213178
0.00696849325
0.00700036075
0.00700572581
0.00698834054
0.00699318631
0.0070225809
0.00702888667
0.0070118061
0.00701560323
0.00704259742
0.00704951587
0.00703217617
0.00703557241
0.007060764
0.00706787271
0.00705041998
0.00705333197
0.00707684497
0.00708410978
0.00706658846
0.00706902518
0.00709105227
0.00709810081
0.00708109665
0.00708308302
0.00710318287
0.00711023167
0.0070942793
0.00709562863
0.00711362001
0.00712044969
0.00710610339
0.00710669053
0.00712253439
0.00712909264
0.00711637601
0.00711636101
0.00713025977
0.0071363584
0.00712509248
0.0071247008
0.00713691854
0.00714245025
0.00713242243
0.00713179608
0.00714258886
0.00714753421
0.0071385552
0.0071377975
0.00714736863
0.00715173828
0.00714367764
0.00714284542
0.00715136187
0.00715517362
0.00714793549
0.0071470837
0.00715466157
0.00715795437
0.00715145474
0.0071506342
0.00715736451
0.00716017864
0.00715435276
0.00715358986
0.00715955173
0.0071619406
0.00715673149
0.00715603561
0.00716130597
0.00716331722
0.00715867889
0.00715805162
0.00716269779
0.00716437742
0.00716026316
0.00715970663
0.00716379297
0.00716517944
0.00716154844
0.00716105915
0.00716464507
0.00716577566
0.0071625821
0.00716216557
0.00716529865
0.00716621168
0.00716341559
0.00716306832
0.00716578812
0.00716652171
0.00716408908
0.00716380251
0.00716615229
0.00716673579
0.00716463057
0.00716439729
0.00716641955
0.00716687724
0.00716506505
0.00716487898
0.00716661081
0.00716696545
0.00716541412
0.00716527057
0.00716674418
0.00716701474
0.00716569526
0.00716558917
0.00716683329
0.00716703691
0.0071659248
0.00716584611
0.00716688962
0.00716703985
0.00716611111
0.00716605658
0.00716692261
0.00716703086
0.0071662612
0.00716622823
0.00716693824
0.00716701426
0.007166388
0.00716636542
0.00716694097
0.00716699436
0.00716649401
0.00716647856
0.00716693589
0.00716697212
0.00716657957
0.00716657358
0.00716692668
0.00716694961
0.00716665099
0.0071666492
0.0071669141
0.00716692845
0.00716671298
0.00716671168
0.00716689991
0.00716690869
0.00716676395
0.00716676402
0.00716688584
0.00716689069
0.0071668066
0.0071668073
0.00716687302
0.00716687544
0.00716684157
0.00716684231
0.0071668666
0.00716686769
0.00716686972
0.00716687037
0.00716688143
0.00716688216
0.00716688789
0.00716688871
0.00716689201
0.0071668928
0.00716689515
0.00716689583
0.00716689723
0.00716689779
0.00716689874
0.00716689916
0.00716689977
0.00716690009
0.0071669005
0.00716690073
0.007166901
0.00716690117
0.00716690135
0.00716690148
0.0071669016
0.00716690169
0.00716690177
0.00716690184
0.00716690189
0.00716690194
0.00716690198
0.00716690201
0.00716690204
0.00716690207
0.00716690209
0.00716690211
0.00716690212
0.00716690214
0.00716690215
0.00716690216
0.00716690217
0.00716690218
0.00716690218
0.00716690219
0.00716690219
0.0071669022
0.0071669022
0.00716690221
0.00716690221
0.00716690221
0.00716690221
0.00716690222
0.00716690222
0.00716690222
0.00716690222
0.00716690222
0.00716690222
0.00716690222
0.00716690223
0.00716690223
0.00716690223
0.00716690223
0.00716690223
0.00716690223
0.00716690223
0.00716690223
0.00716690223
0.00716690223
0.00716690223
0.00716690223
0.00716690223
0.00716690223
0.00716690223
0.00716690223
0.00716690223
0.00716690223
0.00716690223
0.00716690223
0.00716690223
0.00716690223
0.00716690223
0.00716690223
0.00716690223
0.00716690223
0.00716690223
0.00716690223
0.00716690223
0.00716690223
0.00716690223
0.00716690223
0.00716690223
0.00716690223
0.00716690223
0.00716690223
0.00716690223
0.00716690223
0.00716690223
0.00716690223
0.00716690223
0.00716690223
0.00716690223
0.00716690223
0.00716690223
0.00716690223
0.00716690223
0.00716690223
0.00716690223
0.00716690223
0.00716690223
0.00716690223
0.00716690223
0.00716690223
0.00716690223
0.00716690223
0.00716690223
0.00716690223
0.00716690223
0.00716690223
0.00716690223
0.00716690223
0.00716690223
0.00716690223
0.00716690223
0.00716690223
0.00716690223
0.00716690223
0.00716690223
0.00716690223
0.00716690223
0.00716690223
0.00716690223
0.00716690223
0.00716690223
0.00716690223
0.00716690223
0.00716690223
0.00716690223
0.00716690223
0.00716690223
0.00716690223
0.00716690223
0.00716690223
0.00716690223
0.00716690223
0.00716690223
0.00716690223
0.00716690223
0.00716690223
0.00716690223
0.00716690223
0.00716690223
0.00716690223
0.00716690223
0.00716690223
0.00716690223
0.00716690223
0.00716690223
0.00716690223
0.00716690223
0.00716690223
0.00716690223
0.00716690223
0.00716690223
0.00716690223
0.00716690223
0.00716690223
0.00716690223
0.00716690223
0.00716690223
0.00716690223
0.00716690223
0.00716690223
0.00716690223
0.00716690223
0.00716690223
0.00716690223
0.00716690223
0.00716690223
0.00716690223
0.00716690223
0.00716690223
0.00716690223
0.00716690223
0.00716690223
0.00716690223
0.00716690223
0.00716690223
0.00716690223
0.00716690223
0.00716690223
0.00716690223
0.00716690223
0.00716690223
0.00716690223
0.00716690223
0.00716690223
0.00716690223
0.00716690223
0.00716690223
0.00716690223
0.00716690223
0.00716690223
0.00716690223
0.00716690223
0.00716690223
0.00716690223
0.00716690223
0.00716690223
0.00716690223
0.00716690223
0.00716690223
0.00716690223
0.00716690223
0.00716690223
0.00716690223
0.00716690223
0.00716690223
0.00716690223
0.00716690223
0.00716690223
0.00716690223
0.00716690223
0.00716690223
0.00716690223
0.00716690223
0.00716690223
0.00716690223
0.00716690223
0.00716690223
0.00716690223
0.00716690223
0.00716690223
0.00716690223
0.00716690223
0.00716690223
0.00716690223
0.00716690223
0.00716690223
0.00716690223
0.00716690223
0.00716690223
0.00716690223
0.00716690223
0.00716690223
0.00716690223
0.00716690223
0.00716690223
0.00716690223
0.00716690223
0.00716690223
0.00716690223
0.00716690223
0.00716690223
0.00716690223
0.00716690223
0.00716690223
0.00716690223
0.00716690223
0.00716690223
0.00716690223
0.00716690223
0.00716690223
0.00716690223
0.00716690223
0.00716690223
0.00716690223
0.00716690223
0.00716690223
0.00716690223
0.00716690223
0.00716690223
0.00716690223
0.00716690223
0.00716690223
0.00716690223
0.00716690223
0.00716690223
0.00716690223
0.00716690223
0.00716690223
0.00716690223
0.00716690223
0.00716690223
0.00716690223
0.00716690223
0.00716690223
0.00716690223
0.00716690223
0.00716690223
0.00716690223
0.00716690223
0.00716690223
0.00716690223
0.00716690223
0.00716690223
0.00716690223
0.00716690223
0.00716690223
0.00716690223
0.00716690223
0.00716690223
0.00716690223
0.00716690223
0.00716690223
0.00716690223
0.00716690223
0.00716690223
0.00716690223
0.00716690223
0.00716690223
0.00716690223
0.00716690223
0.00716690223
0.00716690223
0.00716690223
0.00716690223
0.00716690223
0.00716690223
0.00716690223
0.00716690223
0.00716690223
)
;

boundaryField
{
    closed
    {
        type            zeroGradient;
    }
    open
    {
        type            zeroGradient;
    }
    sides
    {
        type            empty;
    }
    procBoundary5to4
    {
        type            processor;
        value           uniform 0.00639199666;
    }
}


// ************************************************************************* //
