/*--------------------------------*- C++ -*----------------------------------*\
| =========                 |                                                 |
| \\      /  F ield         | OpenFOAM: The Open Source CFD Toolbox           |
|  \\    /   O peration     | Version:  2306                                  |
|   \\  /    A nd           | Website:  www.openfoam.com                      |
|    \\/     M anipulation  |                                                 |
\*---------------------------------------------------------------------------*/
FoamFile
{
    version     2.0;
    format      ascii;
    arch        "LSB;label=32;scalar=64";
    class       volScalarField;
    location    "0.0008";
    object      prefDh_T;
}
// * * * * * * * * * * * * * * * * * * * * * * * * * * * * * * * * * * * * * //

dimensions      [1 1 -3 -1 0 0 0];

internalField   nonuniform List<scalar> 
531
(
-0.000749107125
-0.000749212784
-0.000564250096
-0.000529484154
-0.000576669246
-0.000750239968
-0.000751718971
-0.00056802582
-0.000549061518
-0.000576329521
-0.000749355996
-0.000751601475
-0.000580893999
-0.000582928868
-0.000750720953
-0.000746764785
-0.000587071054
-0.000566117903
-0.000576369169
-0.000518760655
-0.000557221101
-0.000710160763
-0.000746410787
-0.000729518116
-0.000747231282
-0.000566814686
-0.000510670289
-0.000564857276
-0.000746874846
-0.000743499826
-0.000540306343
-0.000513677509
-0.000530888534
-0.000742618615
-0.000748664787
-0.000528764067
-0.000524847819
-0.000740990827
-0.000747146162
-0.000513192268
-0.000535547212
-0.000744984943
-0.0007462189
-0.000746223983
-0.000562373306
-0.000468753233
-0.000541359775
-0.000744355933
-0.00074419868
-0.000543219037
-0.000519587271
-0.000537999798
-0.000743017067
-0.000748170736
-0.000557996946
-0.000548150471
-0.000741276872
-0.0007490758
-0.000571720233
-0.000558058548
-0.00074286745
-0.000748279078
-0.000576842613
-0.000568343191
-0.000555552437
-0.000578922617
-0.000748795887
-0.000744746309
-0.000570434657
-0.000529273184
-0.000543954163
-0.00074250483
-0.000751124083
-0.000543547449
-0.000534462913
-0.000740409166
-0.000749437996
-0.000530819446
-0.000537933481
-0.000746417006
-0.000748180275
-0.000748024521
-0.000582029476
-0.000494991112
-0.000568131892
-0.000744709091
-0.000745795545
-0.0005623655
-0.000534152692
-0.000566456007
-0.000523103376
-0.000592150894
-0.00074571014
-0.000747582928
-0.000748591667
-0.000575985106
-0.000527639341
-0.00074633403
-0.000745354847
-0.000576249161
-0.000511501224
-0.000558264059
-0.000743202717
-0.000749240664
-0.000560807975
-0.000548025914
-0.000743177014
-0.000745913614
-0.000572005555
-0.000511995086
-0.000534804121
-0.000740143257
-0.000748235997
-0.000540143398
-0.00052600406
-0.000736496464
-0.000746670518
-0.000501634674
-0.000497903128
-0.000739502433
-0.000746691618
-0.000745026931
-0.000586762946
-0.000491948268
-0.000583557971
-0.000740578509
-0.000743943002
-0.000593961862
-0.00053776317
-0.000562376034
-0.000743737629
-0.000741274076
-0.000560889333
-0.000502323044
-0.000508307906
-0.00074014972
-0.000746578719
-0.000539826359
-0.000514313123
-0.000737151949
-0.000747991296
-0.000542290413
-0.000516770832
-0.000738030836
-0.000746789791
-0.000562877498
-0.000541220704
-0.000743333129
-0.000744040398
-0.000593230194
-0.000537308769
-0.00058681851
-0.000741416389
-0.00075447411
-0.000601244046
-0.000570976244
-0.000551186429
-0.000556551572
-0.000745371271
-0.000749373831
-0.00057621693
-0.00057994936
-0.000749270775
-0.00059560563
-0.000534332315
-0.000744170051
-0.000750173665
-0.000578072061
-0.000545716147
-0.000745762435
-0.000748190798
-0.000592816443
-0.000530918832
-0.000580565412
-0.000747062977
-0.000749651191
-0.000594365695
-0.000539459386
-0.000547543407
-0.000745951221
-0.000747893254
-0.000582142157
-0.000551694766
-0.00074519581
-0.000746440328
-0.000595469461
-0.000514252236
-0.000529625848
-0.000743202429
-0.000748409851
-0.000577516027
-0.00054479313
-0.000742786969
-0.0007477393
-0.000597687765
-0.00051894154
-0.000535635398
-0.000748448889
-0.000746127594
-0.000589273275
-0.000529522699
-0.0005911933
-0.000743427844
-0.000754258857
-0.000589205946
-0.000553889967
-0.000741933513
-0.000752823831
-0.000599564644
-0.000569863427
-0.000557939902
-0.000587577836
-0.00074375731
-0.000750129932
-0.0006017917
-0.000558596821
-0.000743313074
-0.000747201966
-0.000597167217
-0.000517678404
-0.000526496019
-0.000744646741
-0.000745421172
-0.000596052344
-0.00052811275
-0.000531010354
-0.000745893138
-0.000743916479
-0.000593340953
-0.000528477771
-0.000530170056
-0.000741954868
-0.000747130949
-0.000595285412
-0.000552693411
-0.000741629527
-0.000745603977
-0.000597622084
-0.000525466706
-0.000538073185
-0.000744408624
-0.000742721155
-0.000595703463
-0.000516494744
-0.000516924768
-0.000735677129
-0.000746807496
-0.000569994061
-0.000524314142
-0.000734998817
-0.000747665072
-0.000555851469
-0.000518056823
-0.000732649851
-0.00074681056
-0.000551112088
-0.000514517926
-0.000732364966
-0.000746236732
-0.000538109607
-0.000499853378
-0.000733275918
-0.000745322235
-0.000564931169
-0.000529147715
-0.000736967649
-0.000742786726
-0.000598642197
-0.000527131326
-0.000547747858
-0.000742384026
-0.000742855091
-0.000595376175
-0.000517771583
-0.000518055074
-0.000735757159
-0.000746386012
-0.000578980522
-0.000533139599
-0.000737391335
-0.000745859685
-0.000574790753
-0.000532121792
-0.000738898596
-0.000742494038
-0.000598308516
-0.000494634573
-0.000518678846
-0.000739301144
-0.000745115962
-0.000743822399
-0.00059689156
-0.000484187228
-0.000511111687
-0.000741715652
-0.000745661585
-0.000746421369
-0.000598961093
-0.000518239246
-0.000502610667
-0.000502180792
-0.000735976508
-0.000744270442
-0.000593095316
-0.00054983072
-0.000739469418
-0.000743981136
-0.000594911674
-0.000532311809
-0.000534367748
-0.000743911574
-0.000744605604
-0.000592358325
-0.000520824973
-0.000521247129
-0.000738137665
-0.0007476996
-0.000601449929
-0.000553011238
-0.000742811076
-0.000746889979
-0.000592943184
-0.000528679077
-0.000528718878
-0.000745180788
-0.000746418324
-0.000590540378
-0.000541739289
-0.000541058782
-0.000745293199
-0.00074671351
-0.000589522409
-0.000542891663
-0.000542946895
-0.000744435299
-0.00074723563
-0.000589671251
-0.000540975589
-0.00054028296
-0.000744345496
-0.000747203865
-0.000589762202
-0.000539576442
-0.000539010425
-0.000744128019
-0.00074706969
-0.000589800158
-0.000542188016
-0.000541870293
-0.000745609389
-0.000746868077
-0.000589921189
-0.000540619981
-0.000540459762
-0.000743010445
-0.000746791038
-0.000590790559
-0.000529075002
-0.000528994398
-0.00074231455
-0.000747058139
-0.000592062877
-0.000525404454
-0.000525224433
-0.000743463738
-0.000745729746
-0.000591068646
-0.000527579791
-0.000527926142
-0.000740828736
-0.000747255917
-0.000600053999
-0.000559629276
-0.000744700704
-0.000744749357
-0.000591558215
-0.0005198412
-0.000548539395
-0.00074337988
-0.000747838339
-0.000745130737
-0.000594460381
-0.000526054606
-0.000548242349
-0.000484550055
-0.00050099137
-0.000741832646
-0.000743303651
-0.000743627292
-0.000601999908
-0.000515682537
-0.000743130049
-0.000743801723
-0.000573385402
-0.000529825591
-0.000744201727
-0.000742314054
-0.000598402495
-0.000498321853
-0.000499722735
-0.00073896944
-0.000745298392
-0.000594094247
-0.000539633663
-0.000745146956
-0.000743788002
-0.0005973383
-0.000491516297
-0.000492819433
-0.000740581171
-0.0007476979
-0.000582520089
-0.000536874722
-0.000744113877
-0.000746932151
-0.000581174223
-0.000545366905
-0.000746808873
-0.000744220834
-0.000594899734
-0.000520016987
-0.000523099443
-0.00074461157
-0.000745846841
-0.0005983001
-0.00055143585
-0.000511586765
-0.000512514902
-0.000744643134
-0.000744993138
-0.000744375773
-0.000598449553
-0.000526383054
-0.000750731124
-0.000744455155
-0.00059191838
-0.000498746166
-0.000535579314
-0.000747744135
-0.000747701524
-0.000745967818
-0.000596451631
-0.000545185539
-0.000520620468
-0.000522290272
-0.000750403673
-0.000744498977
-0.000591737924
-0.000537894511
-0.000553145066
-0.000748546955
-0.00074475681
-0.000591936782
-0.000522054438
-0.000525586488
-0.000748371958
-0.000746593965
-0.000593074064
-0.000549284997
-0.000752851251
-0.000744284866
-0.000595964266
-0.000504215044
-0.00051015984
-0.000747107515
-0.000745522742
-0.00058480856
-0.000540735639
-0.000753272089
-0.000743236416
-0.000597126358
-0.000490160814
-0.00049840501
-0.000747106063
-0.000748384463
-0.000568781619
-0.000537920279
-0.000752081882
-0.00074945623
-0.000565295084
-0.000556488036
-0.000755425873
-0.000749104599
-0.00058989573
-0.000589594705
-0.000595246408
-0.000594114255
-0.000579429465
-0.000588039322
-0.000751299539
-0.00074550085
-0.000598944492
-0.000574547774
-0.000755036646
-0.000742553819
-0.000594867474
-0.000496778816
-0.000519609957
-0.000749599249
-0.000746350025
-0.000740280456
-0.000589206898
-0.000470088496
-0.000499343718
-0.000749704512
-0.000741190888
-0.000599128548
-0.000495719302
-0.000525189967
-0.000748694123
-0.000743712236
-0.000573082585
-0.000569763447
-0.000756677763
-0.000740949765
-0.00058881353
-0.000575339612
-0.000596904689
-0.000550425566
-0.000570499954
-0.00074829046
-0.000740797933
-0.000542794674
-0.000564627179
-0.000752835645
-0.000751635954
-0.00074084183
-0.000591653974
-0.000498335474
-0.000563069279
-0.000751098014
)
;

boundaryField
{
    closed
    {
        type            calculated;
        value           nonuniform List<scalar> 0();
    }
    open
    {
        type            calculated;
        value           nonuniform List<scalar> 0();
    }
    sides
    {
        type            empty;
    }
    procBoundary1to0
    {
        type            processor;
        value           uniform -0.000551624061;
    }
    procBoundary1to2
    {
        type            processor;
        value           uniform -0.000743353603;
    }
}


// ************************************************************************* //
