/*--------------------------------*- C++ -*----------------------------------*\
| =========                 |                                                 |
| \\      /  F ield         | OpenFOAM: The Open Source CFD Toolbox           |
|  \\    /   O peration     | Version:  2306                                  |
|   \\  /    A nd           | Website:  www.openfoam.com                      |
|    \\/     M anipulation  |                                                 |
\*---------------------------------------------------------------------------*/
FoamFile
{
    version     2.0;
    format      ascii;
    arch        "LSB;label=32;scalar=64";
    class       volVectorField;
    location    "0.0008";
    object      U;
}
// * * * * * * * * * * * * * * * * * * * * * * * * * * * * * * * * * * * * * //

dimensions      [0 1 -1 0 0 0 0];

internalField   nonuniform List<vector> 
531
(
(0.110269156 0 0)
(0.11103372 0 0)
(0.111812487 0 0)
(0.114277452 0 0)
(0.11355039 0 0)
(0.113310401 0 0)
(0.113451137 0 0)
(0.11429734 0 0)
(0.116959086 0 0)
(0.11693662 0 0)
(0.117479879 0 0)
(0.117513434 0 0)
(0.117029921 0 0)
(0.117329955 0 0)
(0.11846279 0 0)
(0.118830045 0 0)
(0.11915746 0 0)
(0.121220031 0 0)
(0.120232298 0 0)
(0.110636378 0 0)
(0.101010503 0 0)
(0.122250158 0 0)
(0.14626281 0 0)
(0.144807497 0 0)
(0.140066597 0 0)
(0.138643013 0 0)
(0.139811088 0 0)
(0.138662184 0 0)
(0.138440286 0 0)
(0.138212753 0 0)
(0.138727329 0 0)
(0.141247773 0 0)
(0.140875911 0 0)
(0.14194126 0 0)
(0.141800606 0 0)
(0.14073999 0 0)
(0.144563784 0 0)
(0.149221158 0 0)
(0.148738961 0 0)
(0.147317567 0 0)
(0.14799789 0 0)
(0.150068731 0 0)
(0.152150919 0 0)
(0.149764009 0 0)
(0.150157303 0 0)
(0.154027857 0 0)
(0.153767673 0 0)
(0.154646672 0 0)
(0.154929439 0 0)
(0.155241522 0 0)
(0.157451181 0 0)
(0.156791688 0 0)
(0.15778041 0 0)
(0.157740042 0 0)
(0.156593967 0 0)
(0.15971085 0 0)
(0.164469156 0 0)
(0.164806205 0 0)
(0.162538961 0 0)
(0.16448561 0 0)
(0.169149 0 0)
(0.169928161 0 0)
(0.169526907 0 0)
(0.171935606 0 0)
(0.172344798 0 0)
(0.169775942 0 0)
(0.169249132 0 0)
(0.169230063 0 0)
(0.16972771 0 0)
(0.172078585 0 0)
(0.171676265 0 0)
(0.17305995 0 0)
(0.17273754 0 0)
(0.171061892 0 0)
(0.174771331 0 0)
(0.180539408 0 0)
(0.180730858 0 0)
(0.178534579 0 0)
(0.178983064 0 0)
(0.181481065 0 0)
(0.183645109 0 0)
(0.182885318 0 0)
(0.182047782 0 0)
(0.183369144 0 0)
(0.182851301 0 0)
(0.183300896 0 0)
(0.183583936 0 0)
(0.184531076 0 0)
(0.188718805 0 0)
(0.190386395 0 0)
(0.190165308 0 0)
(0.187253384 0 0)
(0.186475668 0 0)
(0.188091045 0 0)
(0.187725791 0 0)
(0.185255512 0 0)
(0.186347857 0 0)
(0.19243396 0 0)
(0.194144563 0 0)
(0.19369303 0 0)
(0.195013538 0 0)
(0.194234499 0 0)
(0.195299262 0 0)
(0.195118228 0 0)
(0.193466904 0 0)
(0.196817033 0 0)
(0.202535062 0 0)
(0.203500777 0 0)
(0.202587998 0 0)
(0.203664487 0 0)
(0.203152792 0 0)
(0.205305265 0 0)
(0.205268463 0 0)
(0.202955779 0 0)
(0.206455766 0 0)
(0.213318914 0 0)
(0.214112062 0 0)
(0.211535787 0 0)
(0.217239105 0 0)
(0.225772107 0 0)
(0.228476919 0 0)
(0.226354249 0 0)
(0.224054358 0 0)
(0.226040071 0 0)
(0.225344628 0 0)
(0.225370354 0 0)
(0.226191824 0 0)
(0.226778364 0 0)
(0.22926279 0 0)
(0.228170427 0 0)
(0.229417567 0 0)
(0.229957245 0 0)
(0.230744388 0 0)
(0.233827218 0 0)
(0.233901215 0 0)
(0.237426953 0 0)
(0.237828337 0 0)
(0.235603243 0 0)
(0.240123507 0 0)
(0.248335174 0 0)
(0.249219359 0 0)
(0.245308652 0 0)
(0.248634811 0 0)
(0.257016752 0 0)
(0.258190117 0 0)
(0.254481304 0 0)
(0.256990024 0 0)
(0.264327448 0 0)
(0.265728853 0 0)
(0.260381601 0 0)
(0.25835195 0 0)
(0.262273024 0 0)
(0.268887886 0 0)
(0.270041659 0 0)
(0.26467024 0 0)
(0.262807627 0 0)
(0.26333164 0 0)
(0.262321104 0 0)
(0.265036288 0 0)
(0.265740932 0 0)
(0.264956337 0 0)
(0.271618499 0 0)
(0.273773195 0 0)
(0.267262086 0 0)
(0.267185497 0 0)
(0.274067793 0 0)
(0.275471035 0 0)
(0.272069543 0 0)
(0.275021126 0 0)
(0.283237803 0 0)
(0.284932969 0 0)
(0.279776594 0 0)
(0.277476934 0 0)
(0.276066119 0 0)
(0.277711129 0 0)
(0.278149949 0 0)
(0.272847494 0 0)
(0.269991308 0 0)
(0.269868446 0 0)
(0.273951519 0 0)
(0.274924233 0 0)
(0.272882229 0 0)
(0.276911569 0 0)
(0.285056334 0 0)
(0.287133398 0 0)
(0.285550253 0 0)
(0.285951355 0 0)
(0.285910603 0 0)
(0.290450094 0 0)
(0.291485255 0 0)
(0.289049352 0 0)
(0.293210199 0 0)
(0.301897959 0 0)
(0.303776586 0 0)
(0.297742268 0 0)
(0.293928603 0 0)
(0.293460529 0 0)
(0.297823477 0 0)
(0.298584665 0 0)
(0.292645671 0 0)
(0.29051591 0 0)
(0.295632262 0 0)
(0.303822922 0 0)
(0.304813981 0 0)
(0.30238661 0 0)
(0.307575584 0 0)
(0.317498984 0 0)
(0.319582247 0 0)
(0.313660317 0 0)
(0.311566265 0 0)
(0.312881569 0 0)
(0.310377345 0 0)
(0.310675459 0 0)
(0.311079981 0 0)
(0.305203672 0 0)
(0.306025169 0 0)
(0.314895402 0 0)
(0.317053431 0 0)
(0.310920508 0 0)
(0.306647191 0 0)
(0.306501927 0 0)
(0.311871528 0 0)
(0.313689385 0 0)
(0.308062867 0 0)
(0.304137694 0 0)
(0.303809785 0 0)
(0.308955623 0 0)
(0.310644132 0 0)
(0.305283984 0 0)
(0.301471627 0 0)
(0.301323394 0 0)
(0.306876675 0 0)
(0.308882905 0 0)
(0.306586407 0 0)
(0.310439994 0 0)
(0.319453234 0 0)
(0.321675658 0 0)
(0.315911907 0 0)
(0.312154057 0 0)
(0.311668391 0 0)
(0.316423771 0 0)
(0.317683427 0 0)
(0.311154155 0 0)
(0.306090621 0 0)
(0.311779431 0 0)
(0.321434133 0 0)
(0.320043876 0 0)
(0.316331156 0 0)
(0.320334277 0 0)
(0.330590147 0 0)
(0.332302875 0 0)
(0.327071196 0 0)
(0.330165437 0 0)
(0.340803684 0 0)
(0.342678074 0 0)
(0.337159918 0 0)
(0.340157014 0 0)
(0.350903561 0 0)
(0.35248815 0 0)
(0.347006453 0 0)
(0.351370589 0 0)
(0.363821021 0 0)
(0.366275866 0 0)
(0.360824328 0 0)
(0.36372563 0 0)
(0.374390767 0 0)
(0.376696734 0 0)
(0.369783504 0 0)
(0.36516162 0 0)
(0.363478238 0 0)
(0.367802924 0 0)
(0.368184497 0 0)
(0.359931172 0 0)
(0.353945468 0 0)
(0.359792396 0 0)
(0.370856461 0 0)
(0.369290163 0 0)
(0.364778584 0 0)
(0.368920238 0 0)
(0.379788842 0 0)
(0.381081339 0 0)
(0.375621209 0 0)
(0.378787134 0 0)
(0.389489357 0 0)
(0.391063246 0 0)
(0.382308906 0 0)
(0.375538299 0 0)
(0.374415265 0 0)
(0.381685184 0 0)
(0.387053954 0 0)
(0.384088423 0 0)
(0.374641883 0 0)
(0.368836314 0 0)
(0.368963945 0 0)
(0.37567974 0 0)
(0.380177806 0 0)
(0.379009345 0 0)
(0.371846253 0 0)
(0.366996593 0 0)
(0.365230814 0 0)
(0.368571038 0 0)
(0.378463544 0 0)
(0.378301303 0 0)
(0.37161924 0 0)
(0.372228645 0 0)
(0.380627795 0 0)
(0.381360944 0 0)
(0.37320556 0 0)
(0.367280524 0 0)
(0.365104061 0 0)
(0.369432193 0 0)
(0.369319481 0 0)
(0.360357035 0 0)
(0.353577489 0 0)
(0.358645443 0 0)
(0.368965293 0 0)
(0.367239501 0 0)
(0.359106186 0 0)
(0.358170692 0 0)
(0.365927927 0 0)
(0.366204732 0 0)
(0.35755443 0 0)
(0.350985102 0 0)
(0.348829612 0 0)
(0.352783764 0 0)
(0.352533213 0 0)
(0.344430976 0 0)
(0.338366911 0 0)
(0.342762141 0 0)
(0.348495266 0 0)
(0.343119427 0 0)
(0.335440415 0 0)
(0.330307212 0 0)
(0.335260226 0 0)
(0.341415619 0 0)
(0.336387638 0 0)
(0.328487513 0 0)
(0.322713138 0 0)
(0.319495329 0 0)
(0.323828062 0 0)
(0.325494504 0 0)
(0.317436789 0 0)
(0.311284112 0 0)
(0.314463647 0 0)
(0.319996191 0 0)
(0.315708528 0 0)
(0.307760812 0 0)
(0.30186188 0 0)
(0.30528169 0 0)
(0.309530071 0 0)
(0.303815094 0 0)
(0.295779263 0 0)
(0.289618361 0 0)
(0.292604716 0 0)
(0.297913756 0 0)
(0.2937644 0 0)
(0.285210741 0 0)
(0.278077648 0 0)
(0.280485912 0 0)
(0.28661309 0 0)
(0.28404023 0 0)
(0.276083515 0 0)
(0.269058272 0 0)
(0.265623041 0 0)
(0.269532047 0 0)
(0.271298449 0 0)
(0.263392886 0 0)
(0.256239644 0 0)
(0.25853998 0 0)
(0.263637676 0 0)
(0.26030148 0 0)
(0.25334245 0 0)
(0.250685462 0 0)
(0.253734763 0 0)
(0.253049673 0 0)
(0.245681041 0 0)
(0.239179506 0 0)
(0.236747527 0 0)
(0.238185767 0 0)
(0.2396352 0 0)
(0.233651536 0 0)
(0.226037399 0 0)
(0.221727785 0 0)
(0.219224116 0 0)
(0.215464274 0 0)
(0.212859239 0 0)
(0.214151674 0 0)
(0.216198361 0 0)
(0.209111342 0 0)
(0.200224542 0 0)
(0.197548359 0 0)
(0.199820241 0 0)
(0.19944477 0 0)
(0.191391053 0 0)
(0.186131275 0 0)
(0.187259337 0 0)
(0.18707944 0 0)
(0.180061575 0 0)
(0.1722884 0 0)
(0.173921234 0 0)
(0.176828729 0 0)
(0.173737377 0 0)
(0.165345982 0 0)
(0.158781802 0 0)
(0.158373111 0 0)
(0.157812974 0 0)
(0.151058377 0 0)
(0.143478724 0 0)
(0.141527073 0 0)
(0.142629792 0 0)
(0.142296294 0 0)
(0.133370869 0 0)
(0.125776471 0 0)
(0.124798697 0 0)
(0.124100229 0 0)
(0.115130008 0 0)
(0.106680645 0 0)
(0.104999934 0 0)
(0.105083542 0 0)
(0.100032496 0 0)
(0.09305196 0 0)
(0.0913216956 0 0)
(0.0895162067 0 0)
(0.0877095676 0 0)
(0.0834128141 0 0)
(0.0755412315 0 0)
(0.069570911 0 0)
(0.0678732042 0 0)
(0.0664481593 0 0)
(0.0679144522 0 0)
(0.0607755375 0 0)
(0.0553782451 0 0)
(0.0508627335 0 0)
(0.0466006589 0 0)
(0.0463824537 0 0)
(0.0415290436 0 0)
(0.0342998465 0 0)
(0.0316384982 0 0)
(0.0286312942 0 0)
(0.0270454457 0 0)
(0.0189955727 0 0)
(0.0140399381 0 0)
(0.00736914478 0 0)
(0.00201389903 0 0)
(-0.000214485396 0 0)
(-0.00471958112 0 0)
(-0.00578561619 0 0)
(-0.0103163673 0 0)
(-0.0187254121 0 0)
(-0.0221191648 0 0)
(-0.0272997903 0 0)
(-0.0316990456 0 0)
(-0.0365719832 0 0)
(-0.0443208609 0 0)
(-0.0454645537 0 0)
(-0.0492830854 0 0)
(-0.053221984 0 0)
(-0.0661213187 0 0)
(-0.0779350424 0 0)
(-0.0831721768 0 0)
(-0.0871155314 0 0)
(-0.0918814364 0 0)
(-0.098222334 0 0)
(-0.0991142299 0 0)
(-0.104313493 0 0)
(-0.107900343 0 0)
(-0.119525464 0 0)
(-0.130480501 0 0)
(-0.138287364 0 0)
(-0.143829651 0 0)
(-0.147358845 0 0)
(-0.152829488 0 0)
(-0.15245825 0 0)
(-0.157570672 0 0)
(-0.162232578 0 0)
(-0.173748069 0 0)
(-0.183672 0 0)
(-0.190953114 0 0)
(-0.196890061 0 0)
(-0.206970742 0 0)
(-0.215908137 0 0)
(-0.22322439 0 0)
(-0.229831478 0 0)
(-0.231943898 0 0)
(-0.239663637 0 0)
(-0.247094085 0 0)
(-0.254853888 0 0)
(-0.261015075 0 0)
(-0.259041594 0 0)
(-0.265941501 0 0)
(-0.273943422 0 0)
(-0.274130949 0 0)
(-0.271944113 0 0)
(-0.279385762 0 0)
(-0.286100078 0 0)
(-0.292429101 0 0)
(-0.299677126 0 0)
(-0.293620583 0 0)
(-0.298872734 0 0)
(-0.307202205 0 0)
(-0.315812892 0 0)
(-0.327310392 0 0)
(-0.338469483 0 0)
(-0.329326256 0 0)
(-0.334965226 0 0)
(-0.34336834 0 0)
(-0.341601565 0 0)
(-0.341818276 0 0)
(-0.33333326 0 0)
(-0.337627587 0 0)
(-0.345767806 0 0)
(-0.352783295 0 0)
(-0.357364748 0 0)
(-0.36438457 0 0)
(-0.370442624 0 0)
(-0.3685399 0 0)
(-0.374325545 0 0)
(-0.384059636 0 0)
(-0.388069984 0 0)
(-0.381751844 0 0)
(-0.387602548 0 0)
(-0.396673495 0 0)
(-0.39441923 0 0)
(-0.389512272 0 0)
(-0.396756747 0 0)
(-0.40612765 0 0)
(-0.408610797 0 0)
(-0.402075039 0 0)
(-0.398994128 0 0)
(-0.390463461 0 0)
(-0.392316394 0 0)
)
;

boundaryField
{
    closed
    {
        type            noSlip;
    }
    open
    {
        type            inletOutlet;
        inletValue      nonuniform List<vector> 0();
        value           nonuniform List<vector> 0();
    }
    sides
    {
        type            empty;
    }
    procBoundary1to0
    {
        type            processor;
        value           uniform (0.107198525 0 0);
    }
    procBoundary1to2
    {
        type            processor;
        value           uniform (-0.396550784 0 0);
    }
}


// ************************************************************************* //
