/*--------------------------------*- C++ -*----------------------------------*\
| =========                 |                                                 |
| \\      /  F ield         | OpenFOAM: The Open Source CFD Toolbox           |
|  \\    /   O peration     | Version:  2306                                  |
|   \\  /    A nd           | Website:  www.openfoam.com                      |
|    \\/     M anipulation  |                                                 |
\*---------------------------------------------------------------------------*/
FoamFile
{
    version     2.0;
    format      ascii;
    arch        "LSB;label=32;scalar=64";
    class       volScalarField;
    location    "0.00196";
    object      H;
}
// * * * * * * * * * * * * * * * * * * * * * * * * * * * * * * * * * * * * * //

dimensions      [0 0 0 0 0 0 0];

internalField   nonuniform List<scalar> 
531
(
9.67783402e-10
1.17141694e-09
2.73053681e-08
4.74233185e-08
4.0533396e-08
1.04182554e-09
1.35855511e-09
1.3079659e-09
3.50525385e-08
4.35786817e-08
9.83499231e-10
1.26594376e-09
2.97720123e-08
4.36627186e-08
4.89608984e-08
4.45953201e-08
9.26046634e-10
7.11782872e-10
4.96087229e-08
4.96659827e-08
7.41393742e-10
1.20821817e-09
9.26432933e-10
1.27981545e-09
7.24245778e-09
3.85870048e-08
4.29706812e-08
4.91014428e-08
3.8708495e-08
9.86624918e-10
3.17391667e-08
4.51077431e-08
8.4472061e-10
1.27336584e-09
1.11764703e-09
2.52652803e-08
4.09492568e-08
5.22879184e-08
5.20432345e-08
7.18172901e-10
1.13359215e-09
4.19440056e-08
4.68027695e-08
7.96227682e-10
1.18411902e-09
3.97327987e-08
4.56797122e-08
9.1344199e-10
1.12952783e-09
2.6406615e-08
5.14730807e-08
5.11059751e-08
8.52348293e-10
1.22167453e-09
1.07696682e-09
3.069859e-08
4.06416989e-08
9.54476738e-10
1.31190072e-09
3.68780509e-08
3.66250567e-08
9.17549919e-10
2.5230123e-08
4.74934719e-08
8.53160142e-10
1.25142214e-09
1.15514501e-09
2.45541313e-08
3.92780037e-08
4.96959462e-08
4.96787867e-08
8.55322666e-10
1.05433158e-09
3.00176377e-08
5.63970081e-08
5.60411064e-08
8.94333081e-10
1.11331762e-09
3.65717352e-08
4.84447284e-08
1.45976094e-08
1.14032521e-09
3.57331356e-08
4.44810052e-08
7.83876472e-09
1.25076321e-09
1.05662454e-09
2.11702615e-08
5.36234311e-08
5.33693162e-08
6.99212509e-10
1.05823928e-09
8.95873735e-10
1.07774919e-09
1.13380118e-08
4.90236744e-08
4.90561529e-08
8.5081259e-10
1.08130974e-09
2.70765586e-08
5.10445658e-08
4.93304884e-08
8.68818924e-10
3.23471466e-08
5.12137538e-08
8.55733564e-10
1.15751622e-09
4.27052089e-08
4.3236184e-08
7.69463915e-10
1.29311242e-09
1.1176157e-09
2.32181034e-08
4.08468737e-08
5.0787147e-08
5.06329674e-08
7.94773311e-10
1.17927039e-09
4.30847688e-08
4.28244806e-08
8.16508135e-10
3.36987791e-08
5.47679874e-08
7.20506158e-10
1.13571028e-09
9.7578551e-10
3.84382889e-08
4.56285728e-08
7.79969851e-10
1.25847926e-09
1.08273771e-09
3.40334971e-08
4.26892353e-08
9.98832051e-10
1.24037345e-09
2.96581942e-08
3.91485054e-08
4.91806188e-08
4.91333816e-08
8.39855883e-10
3.61808045e-08
5.30029634e-08
6.94045913e-10
1.16436253e-09
9.64922658e-10
3.78101721e-08
5.00691656e-08
8.54655148e-10
1.11842925e-09
4.04735199e-08
4.78014934e-08
9.20925135e-10
1.08747858e-09
2.62639089e-08
5.26238314e-08
5.22183889e-08
7.76427322e-10
1.16422346e-09
9.90453546e-10
1.26141374e-09
1.21677311e-09
2.27262775e-08
3.8529597e-08
5.02055652e-08
5.01711463e-08
8.5814511e-10
3.3890738e-08
5.43353015e-08
8.60528893e-10
1.1174852e-09
4.05373479e-08
4.6066792e-08
9.19605747e-10
1.20881334e-09
3.19161313e-08
4.11760615e-08
5.03383766e-08
5.0194196e-08
7.65532037e-10
1.23448428e-09
1.09426372e-09
3.19895246e-08
4.2190211e-08
9.89041113e-10
1.2427258e-09
2.9346765e-08
3.91825473e-08
5.13738796e-08
5.13264565e-08
6.65819277e-10
1.04691181e-09
1.02602344e-09
1.03871527e-09
2.36615982e-08
5.44226416e-08
5.39604821e-08
7.93472244e-10
1.12030194e-09
4.14010708e-08
4.77307886e-08
8.08366711e-10
1.16510734e-09
3.96010445e-08
4.64855542e-08
9.11047618e-10
1.10141733e-09
2.91719358e-08
5.2751057e-08
5.23829031e-08
7.39716252e-10
1.10320992e-09
9.63066672e-10
1.10632515e-09
1.1563109e-09
1.00307475e-08
3.71898599e-08
4.38764944e-08
4.3318468e-08
5.24288968e-08
5.21225014e-08
7.88616575e-10
1.17807721e-09
4.14845836e-08
4.32893261e-08
8.11090295e-10
1.2879629e-09
1.2105434e-09
3.71655899e-08
4.47129474e-08
9.72175244e-10
1.14927552e-09
2.89325516e-08
5.07431647e-08
5.03592482e-08
8.92689792e-10
1.1741333e-09
3.72283742e-08
4.53076242e-08
9.4410181e-10
1.16417612e-09
2.92757165e-08
4.91657121e-08
4.90664151e-08
9.410152e-10
1.11778616e-09
2.85612207e-08
5.03492214e-08
4.99390634e-08
8.89791597e-10
1.22679043e-09
3.9190674e-08
3.90146565e-08
8.23620708e-10
2.67669091e-08
5.07727231e-08
8.88150384e-10
1.15962303e-09
3.85697088e-08
4.4112795e-08
8.88328632e-10
1.2332883e-09
3.76098359e-08
4.22649599e-08
9.47254554e-10
1.24568543e-09
3.2353051e-08
4.12967775e-08
5.10167382e-08
5.09117676e-08
7.28643776e-10
1.2341953e-09
1.03231137e-09
3.34960047e-08
4.68480434e-08
8.86188808e-10
1.20388995e-09
3.92247283e-08
4.41227709e-08
8.39759307e-10
1.24800823e-09
4.00994913e-08
4.32305089e-08
8.27975971e-10
1.27236181e-09
4.12408794e-08
4.13529596e-08
8.10786346e-10
1.34176397e-09
1.20331211e-09
3.01515294e-08
4.25320265e-08
5.08000087e-08
5.08023568e-08
7.51697962e-10
1.24527633e-09
1.07220829e-09
3.17153928e-08
5.524423e-08
5.48220868e-08
7.7916052e-10
1.16085109e-09
1.12651479e-09
4.11829613e-08
5.32402797e-08
8.70980922e-10
8.66338091e-10
3.46128485e-08
6.69644309e-10
1.33839588e-09
4.22305001e-08
4.26375227e-08
8.4815547e-10
1.21843776e-09
3.46964429e-08
4.33886948e-08
5.38784862e-08
5.37664868e-08
6.10069844e-10
1.13251479e-09
9.39996287e-10
3.94934957e-08
5.23215692e-08
6.86207898e-10
1.05978294e-09
4.94676362e-08
5.33421773e-08
5.04121256e-10
1.05075231e-09
9.16690253e-10
1.07027288e-09
3.81594422e-08
5.04943489e-08
8.6525098e-10
1.06108509e-09
3.41027907e-08
5.37833398e-08
5.34478439e-08
8.44540103e-10
1.0408548e-09
3.28441252e-08
5.51068219e-08
5.40402722e-08
8.30494427e-10
1.19450519e-09
1.1300721e-09
3.59080009e-08
4.67554287e-08
9.5467867e-10
1.11303647e-09
3.08780113e-08
5.13778456e-08
5.11629909e-08
9.08060489e-10
1.23286184e-09
1.17762394e-09
3.52472207e-08
4.39687118e-08
9.95509091e-10
1.17305593e-09
2.92042392e-08
4.7605657e-08
4.73165744e-08
9.60271828e-10
1.16006375e-09
2.99404601e-08
4.85066216e-08
4.83043027e-08
9.6732564e-10
1.13874136e-09
3.06073406e-08
4.9708047e-08
4.94371632e-08
9.54872671e-10
1.1850409e-09
3.6417703e-08
4.40198609e-08
1.00662877e-09
1.1967857e-09
2.77066591e-08
4.42840082e-08
4.25504208e-08
5.36148639e-08
5.32596316e-08
6.93724774e-10
1.14368622e-09
9.66880526e-10
1.2236819e-09
1.18480652e-09
3.81133734e-08
4.57212107e-08
9.18744059e-10
1.20258387e-09
4.09675137e-08
4.60862955e-08
9.14297404e-10
1.19810945e-09
3.89138827e-08
4.56560127e-08
9.97651142e-10
1.15137292e-09
3.16929658e-08
4.92997253e-08
4.88591585e-08
9.52122554e-10
1.18051859e-09
3.69928509e-08
4.58554168e-08
1.00033421e-09
1.15313285e-09
3.23893571e-08
5.02676818e-08
5.02143166e-08
9.70024965e-10
1.02341997e-09
3.38788494e-08
9.12041129e-10
1.3029735e-09
3.32006695e-08
4.57766801e-08
4.5793062e-08
1.02127568e-09
1.15027787e-09
3.19818762e-08
4.96453729e-08
4.93695947e-08
9.64942867e-10
1.07935621e-09
3.41316637e-08
5.56826669e-08
5.46063366e-08
8.20106368e-10
1.12949596e-09
1.00667039e-09
4.27307955e-08
5.19344981e-08
7.22861786e-10
1.10414201e-09
9.75286968e-10
1.14425123e-09
4.40927586e-08
4.72141478e-08
7.93070215e-10
1.26585563e-09
1.07382691e-09
3.53469253e-08
4.56953299e-08
1.05773753e-09
1.21781953e-09
3.07045657e-08
4.06296089e-08
4.53478528e-08
4.53091813e-08
9.58495503e-10
1.22054744e-09
3.84914508e-08
4.29798413e-08
1.0325255e-09
1.23920463e-09
3.38263429e-08
4.23443152e-08
4.87847327e-08
4.86300233e-08
8.75422242e-10
1.17572654e-09
4.41846975e-08
4.69862562e-08
8.70377418e-10
1.19933982e-09
4.61113561e-08
4.60495784e-08
8.36801172e-10
1.2501674e-09
1.07204179e-09
3.85223301e-08
4.90171694e-08
9.94396927e-10
1.12464577e-09
4.03307912e-08
5.04553266e-08
1.01659462e-09
1.04271523e-09
3.66268989e-08
5.88089041e-08
5.71253411e-08
8.28077787e-10
1.12469011e-09
1.02371715e-09
1.22322701e-09
1.21959061e-09
3.7258623e-08
3.8250164e-08
1.01012967e-09
3.20302739e-08
4.66718672e-08
9.92555597e-10
1.28890091e-09
1.1736533e-09
2.67607154e-08
4.5595006e-08
4.32726002e-08
5.36152244e-08
5.34116504e-08
8.74220356e-10
1.1245398e-09
4.76660901e-08
4.81386971e-08
8.03169581e-10
1.19242227e-09
1.02579368e-09
4.04191721e-08
4.91599261e-08
9.28104981e-10
1.11694025e-09
4.54042486e-08
4.90961691e-08
8.52538968e-10
1.08689359e-09
1.09940213e-09
1.10488124e-09
3.47493625e-08
5.31359469e-08
5.29381288e-08
1.01635013e-09
1.04701119e-09
3.5408636e-08
5.51510405e-08
5.17672553e-08
9.22774406e-10
1.23683351e-09
1.10733168e-09
3.46012553e-08
)
;

boundaryField
{
    closed
    {
        type            calculated;
        value           nonuniform List<scalar> 0();
    }
    open
    {
        type            calculated;
        value           nonuniform List<scalar> 0();
    }
    sides
    {
        type            empty;
    }
    procBoundary1to0
    {
        type            processor;
        value           uniform 4.68742217e-08;
    }
    procBoundary1to2
    {
        type            processor;
        value           uniform 5.20248336e-08;
    }
}


// ************************************************************************* //
