/*--------------------------------*- C++ -*----------------------------------*\
| =========                 |                                                 |
| \\      /  F ield         | OpenFOAM: The Open Source CFD Toolbox           |
|  \\    /   O peration     | Version:  2306                                  |
|   \\  /    A nd           | Website:  www.openfoam.com                      |
|    \\/     M anipulation  |                                                 |
\*---------------------------------------------------------------------------*/
FoamFile
{
    version     2.0;
    format      ascii;
    arch        "LSB;label=32;scalar=64";
    class       volScalarField;
    location    "0.00196";
    object      prefDPV_H2;
}
// * * * * * * * * * * * * * * * * * * * * * * * * * * * * * * * * * * * * * //

dimensions      [1 -1 -1 0 0 0 0];

internalField   nonuniform List<scalar> 
531
(
-3.15316038e-05
-3.15285848e-05
-3.09041693e-05
-3.0485006e-05
-3.07353331e-05
-3.15176422e-05
-3.15340243e-05
-3.15311224e-05
-3.092145e-05
-3.06211565e-05
-3.15324884e-05
-3.15506598e-05
-3.09118083e-05
-3.06201172e-05
-3.04273974e-05
-3.05992338e-05
-3.14801626e-05
-3.14538928e-05
-3.04045112e-05
-3.04036178e-05
-3.14484537e-05
-3.15049403e-05
-3.14511565e-05
-3.15225951e-05
-3.11903601e-05
-3.08040344e-05
-3.06554975e-05
-3.0420238e-05
-3.08051411e-05
-3.15105171e-05
-3.09041619e-05
-3.05729407e-05
-3.15246357e-05
-3.15175298e-05
-3.15106377e-05
-3.09333493e-05
-3.07304673e-05
-3.02988413e-05
-3.03069878e-05
-3.14765906e-05
-3.15141787e-05
-3.06966819e-05
-3.05073892e-05
-3.14885918e-05
-3.15177422e-05
-3.07747177e-05
-3.05518408e-05
-3.1503214e-05
-3.15029898e-05
-3.09291288e-05
-3.03303718e-05
-3.0344586e-05
-3.15025778e-05
-3.15030315e-05
-3.15022257e-05
-3.09327118e-05
-3.07385207e-05
-3.1501591e-05
-3.15265143e-05
-3.08809294e-05
-3.08805331e-05
-3.15010742e-05
-3.09181429e-05
-3.04837196e-05
-3.1517811e-05
-3.15107976e-05
-3.150925e-05
-3.09332013e-05
-3.07938172e-05
-3.03988517e-05
-3.03997108e-05
-3.1503978e-05
-3.15012579e-05
-3.09152292e-05
-3.01345706e-05
-3.01496205e-05
-3.15167872e-05
-3.15277719e-05
-3.08721238e-05
-3.04437425e-05
-3.10322907e-05
-3.15222531e-05
-3.09059544e-05
-3.05942169e-05
-3.119017e-05
-3.15123869e-05
-3.14822833e-05
-3.09552549e-05
-3.02459313e-05
-3.02556441e-05
-3.14653995e-05
-3.14829142e-05
-3.14553516e-05
-3.14804526e-05
-3.10944017e-05
-3.04271296e-05
-3.04273627e-05
-3.14887486e-05
-3.1483811e-05
-3.0930581e-05
-3.03484831e-05
-3.04128272e-05
-3.14923559e-05
-3.09284015e-05
-3.03406664e-05
-3.15020536e-05
-3.15064388e-05
-3.06645863e-05
-3.06429493e-05
-3.14955132e-05
-3.15126248e-05
-3.14980663e-05
-3.09418185e-05
-3.07350743e-05
-3.03578495e-05
-3.03619412e-05
-3.14856316e-05
-3.15136983e-05
-3.06531709e-05
-3.06571711e-05
-3.14943191e-05
-3.0922189e-05
-3.01997471e-05
-3.14998028e-05
-3.14948085e-05
-3.14945099e-05
-3.08202577e-05
-3.05568876e-05
-3.14974918e-05
-3.1504146e-05
-3.14983031e-05
-3.09394853e-05
-3.06675116e-05
-3.15118233e-05
-3.15046265e-05
-3.09257803e-05
-3.07996315e-05
-3.04195997e-05
-3.04213105e-05
-3.14960515e-05
-3.08985071e-05
-3.02704195e-05
-3.14936163e-05
-3.14980181e-05
-3.14953831e-05
-3.08405073e-05
-3.03856677e-05
-3.15026913e-05
-3.14999318e-05
-3.07440957e-05
-3.04735643e-05
-3.15023817e-05
-3.14910473e-05
-3.09270374e-05
-3.02858673e-05
-3.03004073e-05
-3.14801102e-05
-3.15070641e-05
-3.1483245e-05
-3.15169861e-05
-3.14946762e-05
-3.09391893e-05
-3.0821156e-05
-3.03783944e-05
-3.03800009e-05
-3.15083186e-05
-3.09230021e-05
-3.02170408e-05
-3.15107522e-05
-3.15093237e-05
-3.07383751e-05
-3.05367645e-05
-3.15098309e-05
-3.15106002e-05
-3.09269857e-05
-3.07241584e-05
-3.03741928e-05
-3.0380109e-05
-3.1490084e-05
-3.15035329e-05
-3.15003775e-05
-3.09353344e-05
-3.06860942e-05
-3.15018297e-05
-3.15012531e-05
-3.0931379e-05
-3.08006632e-05
-3.03350686e-05
-3.03366719e-05
-3.14733667e-05
-3.1484579e-05
-3.1490354e-05
-3.14837956e-05
-3.09374309e-05
-3.02136223e-05
-3.02315342e-05
-3.14742645e-05
-3.15148942e-05
-3.07157338e-05
-3.04726488e-05
-3.14846007e-05
-3.15117813e-05
-3.07798514e-05
-3.0522702e-05
-3.14924305e-05
-3.14938716e-05
-3.09281063e-05
-3.02809128e-05
-3.02943775e-05
-3.1466856e-05
-3.14881464e-05
-3.14743129e-05
-3.14790676e-05
-3.14887815e-05
-3.11230065e-05
-3.08637462e-05
-3.06282086e-05
-3.06387152e-05
-3.02934032e-05
-3.03031224e-05
-3.14827633e-05
-3.1522129e-05
-3.0709957e-05
-3.06371827e-05
-3.14971501e-05
-3.15236506e-05
-3.15178472e-05
-3.08593473e-05
-3.05875494e-05
-3.15117057e-05
-3.15098679e-05
-3.09105714e-05
-3.03588591e-05
-3.03697996e-05
-3.14924284e-05
-3.15239129e-05
-3.08616699e-05
-3.05644391e-05
-3.15016243e-05
-3.15101284e-05
-3.09201563e-05
-3.0420065e-05
-3.0421798e-05
-3.14984594e-05
-3.15025748e-05
-3.09174816e-05
-3.03753798e-05
-3.03867371e-05
-3.14800588e-05
-3.15237751e-05
-3.07981379e-05
-3.07949145e-05
-3.14840161e-05
-3.09182694e-05
-3.0357464e-05
-3.14975182e-05
-3.15106385e-05
-3.08134151e-05
-3.06093663e-05
-3.14945405e-05
-3.15197098e-05
-3.08485777e-05
-3.06776207e-05
-3.15006248e-05
-3.1515348e-05
-3.09268715e-05
-3.0717903e-05
-3.03473413e-05
-3.0351516e-05
-3.14872516e-05
-3.15101675e-05
-3.15054872e-05
-3.09341597e-05
-3.05071701e-05
-3.14885743e-05
-3.151961e-05
-3.07937933e-05
-3.06057761e-05
-3.14809016e-05
-3.15303496e-05
-3.07634613e-05
-3.06367133e-05
-3.14808058e-05
-3.15325797e-05
-3.07196678e-05
-3.07060946e-05
-3.14883645e-05
-3.1529063e-05
-3.15104504e-05
-3.09166973e-05
-3.06713615e-05
-3.03553138e-05
-3.03555813e-05
-3.14891182e-05
-3.15118509e-05
-3.15025857e-05
-3.0926246e-05
-3.01805578e-05
-3.01976468e-05
-3.14663822e-05
-3.151069e-05
-3.14927892e-05
-3.07148288e-05
-3.02612255e-05
-3.14976189e-05
-3.14628009e-05
-3.09089204e-05
-3.14472377e-05
-3.15406191e-05
-3.06915269e-05
-3.0660817e-05
-3.14653337e-05
-3.15118446e-05
-3.09619875e-05
-3.06440054e-05
-3.02355666e-05
-3.02399623e-05
-3.144997e-05
-3.14840423e-05
-3.14748407e-05
-3.07884801e-05
-3.02979671e-05
-3.14484056e-05
-3.1483492e-05
-3.04116791e-05
-3.0256564e-05
-3.14431068e-05
-3.14948979e-05
-3.14705232e-05
-3.15019213e-05
-3.08343507e-05
-3.03688506e-05
-3.14763562e-05
-3.14935263e-05
-3.09403631e-05
-3.02394135e-05
-3.02520203e-05
-3.1464816e-05
-3.14965332e-05
-3.09414811e-05
-3.0186005e-05
-3.02287637e-05
-3.14773502e-05
-3.15034451e-05
-3.15031064e-05
-3.09105532e-05
-3.05138673e-05
-3.14905914e-05
-3.14971341e-05
-3.09237987e-05
-3.03347196e-05
-3.03409934e-05
-3.14898202e-05
-3.15124074e-05
-3.15094376e-05
-3.09308747e-05
-3.06177683e-05
-3.14992952e-05
-3.15044034e-05
-3.0917678e-05
-3.04809933e-05
-3.04870321e-05
-3.14891367e-05
-3.15127693e-05
-3.09218149e-05
-3.04451962e-05
-3.04501793e-05
-3.14938293e-05
-3.15102185e-05
-3.09174125e-05
-3.03992044e-05
-3.04057971e-05
-3.14917899e-05
-3.15198129e-05
-3.08891587e-05
-3.06142558e-05
-3.15029797e-05
-3.15052372e-05
-3.09177234e-05
-3.06084424e-05
-3.06656524e-05
-3.0246051e-05
-3.02590774e-05
-3.14649636e-05
-3.15104609e-05
-3.14895252e-05
-3.15180738e-05
-3.15145502e-05
-3.08262565e-05
-3.05483655e-05
-3.1500844e-05
-3.15215606e-05
-3.07228875e-05
-3.0533281e-05
-3.15013841e-05
-3.15198205e-05
-3.07967816e-05
-3.05519596e-05
-3.15063673e-05
-3.15077275e-05
-3.09153118e-05
-3.04157238e-05
-3.04272353e-05
-3.14858935e-05
-3.15216534e-05
-3.08707103e-05
-3.05440554e-05
-3.1499257e-05
-3.15113955e-05
-3.09263303e-05
-3.03770187e-05
-3.03776423e-05
-3.15014961e-05
-3.14997034e-05
-3.09153088e-05
-3.14897263e-05
-3.15320241e-05
-3.09357472e-05
-3.05478312e-05
-3.05464952e-05
-3.15036689e-05
-3.15075574e-05
-3.09224425e-05
-3.04022939e-05
-3.04095178e-05
-3.14864959e-05
-3.15045609e-05
-3.09412924e-05
-3.01627936e-05
-3.02062706e-05
-3.1477292e-05
-3.14955277e-05
-3.14917683e-05
-3.06630757e-05
-3.03120016e-05
-3.14780789e-05
-3.15044667e-05
-3.14908909e-05
-3.15166287e-05
-3.06113717e-05
-3.04910838e-05
-3.14932088e-05
-3.1518356e-05
-3.15068022e-05
-3.09243575e-05
-3.05528373e-05
-3.15086978e-05
-3.15060114e-05
-3.092557e-05
-3.07423591e-05
-3.05657398e-05
-3.05647025e-05
-3.14938268e-05
-3.15169338e-05
-3.08182751e-05
-3.06514328e-05
-3.15023539e-05
-3.15168446e-05
-3.09384207e-05
-3.06770643e-05
-3.04346486e-05
-3.04379293e-05
-3.14856384e-05
-3.15173578e-05
-3.06096342e-05
-3.04995664e-05
-3.14900646e-05
-3.15184759e-05
-3.05353904e-05
-3.05350687e-05
-3.14951349e-05
-3.15175338e-05
-3.15063744e-05
-3.08102128e-05
-3.04249495e-05
-3.15095657e-05
-3.15074333e-05
-3.07441354e-05
-3.03695963e-05
-3.1511202e-05
-3.15002026e-05
-3.08764706e-05
-3.00353171e-05
-3.01065248e-05
-3.14839831e-05
-3.15133064e-05
-3.14992248e-05
-3.15166266e-05
-3.15139998e-05
-3.08585297e-05
-3.08262429e-05
-3.15146703e-05
-3.09249607e-05
-3.05132785e-05
-3.1509205e-05
-3.15142333e-05
-3.15078022e-05
-3.09238319e-05
-3.05587364e-05
-3.06397662e-05
-3.02459694e-05
-3.02531558e-05
-3.14820411e-05
-3.15075443e-05
-3.04782676e-05
-3.04582643e-05
-3.14836977e-05
-3.14994183e-05
-3.14896843e-05
-3.07499121e-05
-3.04219479e-05
-3.14861801e-05
-3.14891393e-05
-3.05649285e-05
-3.0424038e-05
-3.14874153e-05
-3.14906875e-05
-3.14996551e-05
-3.15011367e-05
-3.09470225e-05
-3.02651695e-05
-3.02721353e-05
-3.14923099e-05
-3.14989459e-05
-3.09271348e-05
-3.01842645e-05
-3.03174352e-05
-3.14874786e-05
-3.15119806e-05
-3.14981251e-05
-3.09346496e-05
)
;

boundaryField
{
    closed
    {
        type            calculated;
        value           nonuniform List<scalar> 0();
    }
    open
    {
        type            calculated;
        value           nonuniform List<scalar> 0();
    }
    sides
    {
        type            empty;
    }
    procBoundary1to0
    {
        type            processor;
        value           uniform -3.04994352e-05;
    }
    procBoundary1to2
    {
        type            processor;
        value           uniform -3.03094824e-05;
    }
}


// ************************************************************************* //
