/*--------------------------------*- C++ -*----------------------------------*\
| =========                 |                                                 |
| \\      /  F ield         | OpenFOAM: The Open Source CFD Toolbox           |
|  \\    /   O peration     | Version:  2306                                  |
|   \\  /    A nd           | Website:  www.openfoam.com                      |
|    \\/     M anipulation  |                                                 |
\*---------------------------------------------------------------------------*/
FoamFile
{
    version     2.0;
    format      ascii;
    arch        "LSB;label=32;scalar=64";
    class       volScalarField;
    location    "0.0019";
    object      alpha;
}
// * * * * * * * * * * * * * * * * * * * * * * * * * * * * * * * * * * * * * //

dimensions      [1 -1 -1 0 0 0 0];

internalField   nonuniform List<scalar> 
530
(
3.68216324e-05
3.68292707e-05
3.57185982e-05
3.52270593e-05
3.56997665e-05
3.68252068e-05
3.68457827e-05
3.5709483e-05
3.51897005e-05
3.56087007e-05
3.68438735e-05
3.68423686e-05
3.57063409e-05
3.52088918e-05
3.56223568e-05
3.68449328e-05
3.68410668e-05
3.57097254e-05
3.52023163e-05
3.55320622e-05
3.68309839e-05
3.68197656e-05
3.5725819e-05
3.48379908e-05
3.49443944e-05
3.68261253e-05
3.68266969e-05
3.6815799e-05
3.68452686e-05
3.57333691e-05
3.52284897e-05
3.52230318e-05
3.55826392e-05
3.68163167e-05
3.6849448e-05
3.57608134e-05
3.56849395e-05
3.68680014e-05
3.68465936e-05
3.68141829e-05
3.57067413e-05
3.53124789e-05
3.52745364e-05
3.55755982e-05
3.68768817e-05
3.68320666e-05
3.56826612e-05
3.51594664e-05
3.56208128e-05
3.68645262e-05
3.68559353e-05
3.57093358e-05
3.52943763e-05
3.54261418e-05
3.50866648e-05
3.53364631e-05
3.6860516e-05
3.68229021e-05
3.68361229e-05
3.57887958e-05
3.57221964e-05
3.6823652e-05
3.68385587e-05
3.65127045e-05
3.5686871e-05
3.53340135e-05
3.53172555e-05
3.56105502e-05
3.68812373e-05
3.68403322e-05
3.56748081e-05
3.50164949e-05
3.55662445e-05
3.68569523e-05
3.68422013e-05
3.57099446e-05
3.50312041e-05
3.52376084e-05
3.68270165e-05
3.68366244e-05
3.5589639e-05
3.54963728e-05
3.68410775e-05
3.68112425e-05
3.60193557e-05
3.54742028e-05
3.53787037e-05
3.50310522e-05
3.50629626e-05
3.62944001e-05
3.68165467e-05
3.68311821e-05
3.68152837e-05
3.58007808e-05
3.55503063e-05
3.57056746e-05
3.53318283e-05
3.53979755e-05
3.68702836e-05
3.68604166e-05
3.68571945e-05
3.68623561e-05
3.57088421e-05
3.56052697e-05
3.59047781e-05
3.56505212e-05
3.55897003e-05
3.68651449e-05
3.60591931e-05
3.54424865e-05
3.68729501e-05
3.68256552e-05
3.59444232e-05
3.56490327e-05
3.54962536e-05
3.53423651e-05
3.57058722e-05
3.68820065e-05
3.68414057e-05
3.56517363e-05
3.50492836e-05
3.56567196e-05
3.68341915e-05
3.68793703e-05
3.56986019e-05
3.53461254e-05
3.68855076e-05
3.68830888e-05
3.55581659e-05
3.57359019e-05
3.68300226e-05
3.62733151e-05
3.55357735e-05
3.5431858e-05
3.53162409e-05
3.57107123e-05
3.68567835e-05
3.68378151e-05
3.56937374e-05
3.51070573e-05
3.56890438e-05
3.68535261e-05
3.68408701e-05
3.56912716e-05
3.50330998e-05
3.57758614e-05
3.6791597e-05
3.67967696e-05
3.47638493e-05
3.4655703e-05
3.68694951e-05
3.67951018e-05
3.57451626e-05
3.68177954e-05
3.68209509e-05
3.57787553e-05
3.5596567e-05
3.50255472e-05
3.50227389e-05
3.68637142e-05
3.68220094e-05
3.57236e-05
3.68371784e-05
3.68257792e-05
3.57690353e-05
3.56596865e-05
3.5589459e-05
3.5331283e-05
3.57003585e-05
3.6805547e-05
3.68490345e-05
3.55117492e-05
3.51749972e-05
3.6821984e-05
3.68163186e-05
3.55168963e-05
3.53505557e-05
3.67969053e-05
3.67663865e-05
3.59031017e-05
3.49792868e-05
3.49966526e-05
3.67518888e-05
3.67549523e-05
3.67615275e-05
3.48813461e-05
3.48226768e-05
3.67435594e-05
3.67864082e-05
3.6744633e-05
3.57690966e-05
3.48699781e-05
3.50873073e-05
3.67947883e-05
3.68145697e-05
3.68040658e-05
3.57129008e-05
3.52777981e-05
3.50802582e-05
3.51158421e-05
3.68172982e-05
3.57812255e-05
3.51769088e-05
3.68080386e-05
3.68361862e-05
3.56336127e-05
3.54285434e-05
3.68175077e-05
3.68315817e-05
3.5827051e-05
3.56410952e-05
3.52904273e-05
3.52916238e-05
3.68193718e-05
3.58028688e-05
3.52697722e-05
3.68012464e-05
3.68389875e-05
3.56181379e-05
3.53590981e-05
3.6791475e-05
3.68300315e-05
3.56358742e-05
3.53814424e-05
3.67827655e-05
3.68113877e-05
3.56297021e-05
3.51003153e-05
3.67900445e-05
3.67829986e-05
3.57094203e-05
3.67800898e-05
3.68299369e-05
3.57671699e-05
3.49753526e-05
3.49779965e-05
3.67866955e-05
3.68159336e-05
3.5658661e-05
3.53602661e-05
3.67849843e-05
3.67961689e-05
3.58705005e-05
3.50613803e-05
3.50677819e-05
3.67756462e-05
3.68252351e-05
3.56802106e-05
3.54055012e-05
3.67772211e-05
3.6797623e-05
3.59076042e-05
3.51223869e-05
3.5125419e-05
3.67838106e-05
3.68148299e-05
3.60096078e-05
3.53508627e-05
3.52032392e-05
3.58849351e-05
3.68212011e-05
3.57308151e-05
3.55309043e-05
3.67869608e-05
3.68147263e-05
3.58489027e-05
3.5637884e-05
3.51863e-05
3.51882925e-05
3.67434738e-05
3.68047891e-05
3.67728286e-05
3.6828725e-05
3.55900184e-05
3.5201837e-05
3.67646355e-05
3.68098525e-05
3.57609021e-05
3.53692525e-05
3.51576802e-05
3.52306812e-05
3.68078498e-05
3.57696016e-05
3.53368702e-05
3.68120463e-05
3.68211833e-05
3.57715774e-05
3.52619704e-05
3.54283747e-05
3.67948906e-05
3.68401429e-05
3.68132193e-05
3.58449687e-05
3.5222961e-05
3.54756386e-05
3.68046135e-05
3.57941509e-05
3.5436017e-05
3.68031636e-05
3.68083376e-05
3.58508055e-05
3.52064287e-05
3.52021377e-05
3.62139638e-05
3.67922263e-05
3.62502738e-05
3.52209734e-05
3.51153232e-05
3.61348751e-05
3.67645961e-05
3.62760905e-05
3.5069338e-05
3.50468587e-05
3.67665611e-05
3.67773111e-05
3.59415097e-05
3.50782512e-05
3.50789668e-05
3.67657006e-05
3.68217528e-05
3.56460935e-05
3.54571515e-05
3.67547566e-05
3.68151123e-05
3.59054113e-05
3.53921352e-05
3.53144517e-05
3.58086717e-05
3.67841016e-05
3.68555229e-05
3.54585848e-05
3.5145262e-05
3.67470992e-05
3.68094229e-05
3.58127102e-05
3.55423021e-05
3.51599884e-05
3.51595847e-05
3.6753953e-05
3.6820233e-05
3.56209015e-05
3.54375631e-05
3.67282798e-05
3.6796389e-05
3.6110352e-05
3.52107071e-05
3.52002544e-05
3.67562832e-05
3.67901359e-05
3.58830877e-05
3.50794091e-05
3.51110735e-05
3.67688103e-05
3.68208337e-05
3.55557454e-05
3.54112456e-05
3.66990259e-05
3.67967771e-05
3.65313643e-05
3.52874312e-05
3.52017503e-05
3.67318548e-05
3.68040916e-05
3.57740744e-05
3.55245005e-05
3.51730933e-05
3.51764063e-05
3.67703878e-05
3.68368758e-05
3.56714875e-05
3.55105432e-05
3.67520919e-05
3.68182372e-05
3.57680153e-05
3.55991177e-05
3.51767192e-05
3.53289649e-05
3.68061625e-05
3.57227027e-05
3.51032362e-05
3.67608247e-05
3.6837283e-05
3.55082488e-05
3.53374987e-05
3.67661192e-05
3.68397939e-05
3.55496514e-05
3.53836885e-05
3.67725086e-05
3.68483809e-05
3.55670826e-05
3.5410968e-05
3.67840753e-05
3.68537583e-05
3.55827943e-05
3.54534321e-05
3.67995334e-05
3.68547426e-05
3.56373754e-05
3.55725466e-05
3.68119599e-05
3.68347734e-05
3.57774574e-05
3.56391515e-05
3.52302133e-05
3.54285287e-05
3.68412835e-05
3.5749167e-05
3.52181294e-05
3.68350549e-05
3.68529346e-05
3.54861978e-05
3.54265385e-05
3.68419657e-05
3.68512596e-05
3.55602402e-05
3.55542654e-05
3.68497504e-05
3.68339408e-05
3.57620498e-05
3.56249538e-05
3.52302049e-05
3.5439411e-05
3.68549485e-05
3.57502015e-05
3.52058436e-05
3.6857103e-05
3.68394187e-05
3.54556962e-05
3.54462083e-05
3.68323518e-05
3.68260822e-05
3.54242041e-05
3.5518833e-05
3.67811038e-05
3.6805392e-05
3.67681639e-05
3.55439341e-05
3.51234854e-05
3.51393762e-05
3.5001004e-05
3.59160053e-05
3.67765272e-05
3.68142372e-05
3.67765083e-05
3.68127688e-05
3.48825832e-05
3.48898833e-05
3.6843729e-05
3.67831458e-05
3.52958911e-05
3.52863162e-05
3.68561399e-05
3.67894783e-05
3.57137078e-05
3.4908678e-05
3.51969487e-05
3.68358683e-05
3.68158517e-05
3.54141135e-05
3.53921909e-05
3.68593189e-05
3.67895948e-05
3.57594919e-05
3.50726154e-05
3.53215463e-05
3.68508096e-05
3.6794236e-05
3.57864538e-05
3.50544158e-05
3.53020998e-05
3.68590114e-05
3.67869922e-05
3.57664358e-05
3.50074091e-05
3.52737026e-05
3.683845e-05
3.68107574e-05
3.54602227e-05
3.54594761e-05
3.68622619e-05
3.6791669e-05
3.57708962e-05
3.5082888e-05
3.53038187e-05
3.6865555e-05
3.67921086e-05
3.5745789e-05
3.49664832e-05
3.52289828e-05
3.68484615e-05
3.68117747e-05
3.54398069e-05
3.54106227e-05
3.68779667e-05
3.6787982e-05
3.57389386e-05
3.49888828e-05
3.52275231e-05
3.68433313e-05
3.68107706e-05
3.54561242e-05
3.54687348e-05
3.68525545e-05
3.67966458e-05
3.55090137e-05
3.5557934e-05
3.68660189e-05
3.67848956e-05
3.58136708e-05
3.51208432e-05
3.53711291e-05
3.68642406e-05
3.67801225e-05
3.58380401e-05
3.50769945e-05
3.53390092e-05
3.68665885e-05
3.67781597e-05
3.58068111e-05
3.50575759e-05
3.53362139e-05
3.68661693e-05
3.67783615e-05
3.58098809e-05
3.5051881e-05
3.53358071e-05
3.68680634e-05
3.67786741e-05
3.58080872e-05
)
;

boundaryField
{
    closed
    {
        type            calculated;
        value           nonuniform List<scalar> 0();
    }
    open
    {
        type            calculated;
        value           nonuniform List<scalar> 0();
    }
    sides
    {
        type            empty;
    }
    procBoundary2to1
    {
        type            processor;
        value           uniform 3.5213426e-05;
    }
    procBoundary2to3
    {
        type            processor;
        value           uniform 3.50492859e-05;
    }
}


// ************************************************************************* //
