/*--------------------------------*- C++ -*----------------------------------*\
| =========                 |                                                 |
| \\      /  F ield         | OpenFOAM: The Open Source CFD Toolbox           |
|  \\    /   O peration     | Version:  2306                                  |
|   \\  /    A nd           | Website:  www.openfoam.com                      |
|    \\/     M anipulation  |                                                 |
\*---------------------------------------------------------------------------*/
FoamFile
{
    version     2.0;
    format      ascii;
    arch        "LSB;label=32;scalar=64";
    class       volScalarField;
    location    "0.0019";
    object      Z;
}
// * * * * * * * * * * * * * * * * * * * * * * * * * * * * * * * * * * * * * //

dimensions      [0 0 0 0 0 0 0];

internalField   nonuniform List<scalar> 
530
(
0.014102939
0.0140775064
0.0146323618
0.0148161462
0.0146632128
0.0140833141
0.0140659517
0.0146356914
0.0148200095
0.0147180848
0.0140807317
0.0140673133
0.0146267341
0.0148157124
0.0147138798
0.0140796409
0.0140677372
0.0146379272
0.0148191967
0.014740464
0.0140822932
0.0140781397
0.0146621029
0.0149062603
0.0148789159
0.0141015704
0.0140836683
0.0140861311
0.014077767
0.0146655093
0.0148085353
0.0148174267
0.0147230141
0.014082642
0.0140576561
0.0146341828
0.0146698628
0.014092048
0.0140575527
0.0140878534
0.014630141
0.0147968609
0.0147962986
0.0147326546
0.0140672015
0.0140712797
0.0146345517
0.014826849
0.0147081382
0.0140708667
0.0140627977
0.0146208766
0.014793933
0.0147606654
0.0148440422
0.0147843913
0.0140786263
0.0140677116
0.0140709287
0.0145329334
0.0146042879
0.0140947637
0.0140576699
0.0142028053
0.0146775288
0.0147977429
0.0147852126
0.0147241584
0.0140644289
0.0140715923
0.0146488389
0.0148597767
0.014723798
0.0140740745
0.0140710473
0.0146522591
0.014859663
0.014806898
0.014083755
0.014071789
0.0147330727
0.0147497072
0.0140845703
0.014072727
0.0143694013
0.0147570745
0.0147846965
0.0148603341
0.0148532915
0.0142660593
0.0140823571
0.0140792925
0.0140781806
0.0145068094
0.0147417544
0.0146753392
0.014791475
0.0147665684
0.0140792718
0.0140669155
0.0140728671
0.014065526
0.014632189
0.0147201848
0.0144231913
0.0147117093
0.0147269222
0.0140725485
0.0143484612
0.0147568233
0.0140796987
0.0140669799
0.0144027422
0.0147108282
0.0147482783
0.0147814231
0.0146789981
0.0140621596
0.0140700426
0.0146806145
0.014854748
0.014660129
0.0140764621
0.0140561104
0.0147013036
0.0147713127
0.0140672962
0.0140574921
0.0147312219
0.0145736079
0.0140693987
0.0142709547
0.0147409568
0.0147669877
0.0147928461
0.0146642106
0.014067818
0.0140691881
0.0146511605
0.0148408792
0.0146739025
0.0140734437
0.0140697212
0.0146987762
0.0148621745
0.0145645055
0.0140956696
0.0141145282
0.0149228635
0.0149524423
0.0140919007
0.014102001
0.0145845406
0.0140947396
0.0140650818
0.014594769
0.0147290433
0.0148632791
0.0148623013
0.0140886894
0.0140933073
0.0146033673
0.014093351
0.0140631052
0.0145601913
0.0147137527
0.0147229335
0.0147943897
0.0146456548
0.0140882531
0.0140650954
0.0147523579
0.0148223905
0.014105221
0.014079655
0.0147549393
0.0147934785
0.0141048012
0.0140920889
0.0144508511
0.0148850484
0.0148769956
0.0141347495
0.0140991861
0.0141242774
0.0149043695
0.0149160541
0.0141536708
0.0140828517
0.0141122226
0.0145798685
0.0149086913
0.0148478436
0.0141091558
0.0140737542
0.0140783497
0.014680718
0.0148087198
0.0148478259
0.0148444725
0.0141063447
0.0145633176
0.0148247343
0.014109671
0.0140731907
0.0147198792
0.0147626506
0.0141071094
0.0140677465
0.0144920325
0.0147131507
0.0147997829
0.0147990923
0.0140993985
0.0145222558
0.0148011298
0.0141145539
0.0140727647
0.0147273652
0.0147797378
0.0141199078
0.014073994
0.0147263982
0.0147788474
0.0141225753
0.0140814399
0.0147276188
0.0148484266
0.0141235342
0.0141075696
0.0146823596
0.0141302737
0.0140755442
0.0146158939
0.014876413
0.0148737783
0.0141174615
0.0140825366
0.0147180229
0.0147873663
0.0141232526
0.0140855583
0.0144664908
0.0148598283
0.0148512906
0.0141250532
0.0140797959
0.014715391
0.0147760548
0.0141256074
0.0140839757
0.0144402559
0.0148449861
0.014840403
0.0141241557
0.014080386
0.0143748481
0.0147810311
0.0148196755
0.0144310473
0.0140857408
0.0146389458
0.0147435858
0.0141185596
0.0140722035
0.0144908135
0.0147212724
0.0148344909
0.0148299006
0.0141391568
0.0140928129
0.0141015771
0.0140881931
0.0147333099
0.0148235156
0.0141321875
0.0140821619
0.014639702
0.0147838668
0.014833929
0.0148148189
0.0141063096
0.0145454707
0.0147900324
0.0141136463
0.0140780388
0.0145304734
0.014810591
0.0147606782
0.0141041119
0.0140627473
0.0140723973
0.0144635603
0.0148175356
0.0147516481
0.0141021846
0.0145128828
0.0147682494
0.0141128766
0.0140802991
0.0144710232
0.0148241343
0.0148208222
0.014290439
0.0140895916
0.0142765693
0.0148185531
0.0148481274
0.0143180144
0.0140987529
0.0142677854
0.0148605373
0.0148643243
0.0141399617
0.0140934961
0.0144162077
0.0148569218
0.0148509804
0.0141276181
0.0140799022
0.014718325
0.0147626739
0.0141239301
0.0140758313
0.0144356973
0.0147712052
0.0147958456
0.014483428
0.0140946695
0.0140722961
0.0147584004
0.0148317335
0.0141384167
0.0140799944
0.014526391
0.0147437459
0.014834333
0.0148327449
0.0141255662
0.0140788749
0.0147205576
0.0147689815
0.014137911
0.014082224
0.0143293601
0.0148184171
0.0148262952
0.0141288033
0.0140886243
0.0144465208
0.0148548432
0.0148429071
0.0141183492
0.0140792157
0.0147402749
0.0147757401
0.0141521455
0.0140815578
0.0141947907
0.0147981099
0.014827173
0.014135893
0.0140807242
0.0145561744
0.0147470328
0.0148266049
0.014826779
0.014117391
0.0140759109
0.0147001605
0.0147472684
0.0141209063
0.014072461
0.014559111
0.014726657
0.0148255667
0.0147910005
0.014107499
0.0146174878
0.0148419415
0.0141239016
0.0140782657
0.0147427928
0.0147869841
0.0141219689
0.0140754507
0.0147343305
0.0147745026
0.01411634
0.0140720093
0.0147289681
0.0147663135
0.0141103852
0.0140696022
0.0147232195
0.0147554782
0.01410282
0.0140673104
0.0147072264
0.0147281411
0.0140921825
0.0140657656
0.0145320161
0.0147117538
0.0148104927
0.0147611605
0.0140882057
0.014549321
0.0148105628
0.0140869595
0.0140712503
0.0147419932
0.0147625367
0.0140834685
0.0140681316
0.014724003
0.0147326073
0.0140734092
0.0140655182
0.014543056
0.014715995
0.014809585
0.0147581809
0.0140790768
0.0145511774
0.0148142224
0.0140707608
0.0140734861
0.0147538324
0.0147617419
0.0140783184
0.0140748074
0.0147722889
0.014746248
0.0141052805
0.0140712517
0.0141299529
0.0147370526
0.0148580155
0.0148301632
0.0148769901
0.0144192915
0.0140960544
0.01409268
0.0140961992
0.0141042056
0.014897056
0.0148979741
0.0140863753
0.0140939631
0.0147971953
0.0148083966
0.0140672069
0.0140919181
0.0146307931
0.014891238
0.0148168598
0.0140801609
0.0140828604
0.0147687609
0.0147809391
0.0140650469
0.0140881466
0.0145665697
0.0148528415
0.014793328
0.0140718023
0.0140885467
0.01453479
0.0148561606
0.0147990837
0.0140706585
0.0140914398
0.0145458497
0.0148696503
0.0148000906
0.014079458
0.0140835427
0.0147600647
0.0147640813
0.0140666739
0.0140874385
0.0145519122
0.0148489573
0.0147970204
0.0140696764
0.0140917916
0.0145726472
0.0148775396
0.0148094008
0.014078615
0.0140855894
0.0147630837
0.014774678
0.0140646058
0.0140910909
0.0145759117
0.0148729022
0.0148079436
0.0140799269
0.0140886193
0.0147627959
0.0147558789
0.0140737946
0.0140877717
0.0147491878
0.014738736
0.0140687736
0.0140874291
0.0145032321
0.0148421613
0.0147817695
0.014074487
0.0140918623
0.0144796092
0.0148527655
0.0147895175
0.0140741365
0.0140933632
0.0145098085
0.0148577757
0.0147896594
0.0140748784
0.0140933554
0.0145070347
0.0148590965
0.01478959
0.0140750882
0.0140934097
0.0145087962
)
;

boundaryField
{
    closed
    {
        type            zeroGradient;
    }
    open
    {
        type            zeroGradient;
    }
    sides
    {
        type            empty;
    }
    procBoundary2to1
    {
        type            processor;
        value           uniform 0.0148122099;
    }
    procBoundary2to3
    {
        type            processor;
        value           uniform 0.0148596587;
    }
}


// ************************************************************************* //
