/*--------------------------------*- C++ -*----------------------------------*\
| =========                 |                                                 |
| \\      /  F ield         | OpenFOAM: The Open Source CFD Toolbox           |
|  \\    /   O peration     | Version:  2306                                  |
|   \\  /    A nd           | Website:  www.openfoam.com                      |
|    \\/     M anipulation  |                                                 |
\*---------------------------------------------------------------------------*/
FoamFile
{
    version     2.0;
    format      ascii;
    arch        "LSB;label=32;scalar=64";
    class       volScalarField;
    location    "0.00056";
    object      prefDh_T;
}
// * * * * * * * * * * * * * * * * * * * * * * * * * * * * * * * * * * * * * //

dimensions      [1 1 -3 -1 0 0 0];

internalField   nonuniform List<scalar> 
530
(
-0.000706146815
-0.000609712142
-0.00059138026
-0.000591212091
-0.000591194796
-0.000591194517
-0.000591194501
-0.000591194501
-0.000591194501
-0.000591194501
-0.000591194501
-0.000591194501
-0.000591194501
-0.000591194501
-0.000591194501
-0.000591194501
-0.000591194501
-0.000591194501
-0.000591194501
-0.000591194501
-0.000591194501
-0.000591194501
-0.000591194501
-0.000591194501
-0.000591194501
-0.000591194501
-0.000591194501
-0.000591194501
-0.000591194501
-0.000591194501
-0.000591194501
-0.000591194501
-0.000591194501
-0.000591194501
-0.000591194501
-0.000591194501
-0.000591194501
-0.000591194501
-0.000591194501
-0.000591194501
-0.000591194501
-0.000591194501
-0.000591194501
-0.000591194501
-0.000591194501
-0.000591194501
-0.000591194501
-0.000591194501
-0.000591194501
-0.000591194501
-0.000591194501
-0.000591194501
-0.000591194501
-0.000591194501
-0.000591194501
-0.000591194501
-0.000591194501
-0.000591194501
-0.000591194501
-0.000591194501
-0.000591194501
-0.000591194501
-0.000591194501
-0.000591194501
-0.000591194501
-0.000591194501
-0.000591194501
-0.000591194501
-0.000591194501
-0.000591194501
-0.000591194501
-0.000591194501
-0.000591194501
-0.000591194502
-0.000591194506
-0.00059119451
-0.000591194546
-0.000591194603
-0.00059119479
-0.000591195215
-0.000591196092
-0.000591198143
-0.000591201959
-0.000591212881
-0.000591224512
-0.000591244986
-0.000591296601
-0.000591354793
-0.000591509014
-0.000591598468
-0.000591225737
-0.000591235618
-0.000592936044
-0.00059648927
-0.000595554547
-0.000589012048
-0.000595209157
-0.000614233777
-0.00069129234
-0.000597929654
-0.000580132182
-0.000527694085
-0.000578219223
-0.00074381927
-0.000749540933
-0.000738080399
-0.00058877329
-0.000556532942
-0.000541173501
-0.000589576916
-0.000753028289
-0.000756115078
-0.000585713375
-0.000581369984
-0.000754207339
-0.000747198467
-0.000572548591
-0.000462691321
-0.000561996061
-0.000744043058
-0.000754440856
-0.000548246143
-0.000541552235
-0.000747341881
-0.000750081119
-0.000536725425
-0.000532458053
-0.000747655183
-0.000748400661
-0.000524558557
-0.000523746582
-0.000747136039
-0.000747572821
-0.000522350787
-0.000523140696
-0.000747126448
-0.000747487692
-0.000530114129
-0.000531486108
-0.000747532312
-0.000746817084
-0.000544108718
-0.00054852847
-0.000748506814
-0.000741688185
-0.000554575732
-0.000456957316
-0.000563046311
-0.000741906915
-0.000748599367
-0.000555397303
-0.000558028363
-0.000746635201
-0.000741811854
-0.000561666359
-0.000458112284
-0.000561493774
-0.000739950235
-0.000748827603
-0.000538223147
-0.000537456766
-0.000743162077
-0.000746186431
-0.000532740458
-0.00053088901
-0.000743031634
-0.000746173211
-0.000524610412
-0.000523920077
-0.000742571124
-0.000746313586
-0.00052927437
-0.000528685544
-0.000742630931
-0.000746064409
-0.000541553788
-0.000542970796
-0.000742909006
-0.00074324411
-0.000554640126
-0.000452940781
-0.000554093318
-0.000738503861
-0.000749893835
-0.0005527719
-0.000546619119
-0.000740639078
-0.000747363144
-0.000565533753
-0.000561913529
-0.000740915381
-0.000743635965
-0.00057002389
-0.000470818378
-0.000559575689
-0.000738092365
-0.00074910136
-0.000569524239
-0.000560517332
-0.000738017747
-0.000743564944
-0.000573595546
-0.0004640678
-0.000549200858
-0.000735489666
-0.000749148535
-0.000558531573
-0.000540476936
-0.000732780012
-0.00074713852
-0.000555472367
-0.000537223606
-0.000731823053
-0.000746845817
-0.00055463033
-0.00053528224
-0.000730416898
-0.000746209431
-0.000562916848
-0.000544396578
-0.000729550245
-0.00074181673
-0.000580839295
-0.000453128602
-0.000522835656
-0.000729910638
-0.000748373858
-0.000573922999
-0.000536505888
-0.000719685214
-0.000747248343
-0.00057931395
-0.000539374175
-0.000716916609
-0.000746679007
-0.000589139006
-0.000547089133
-0.000714049942
-0.000742777977
-0.000591334812
-0.000466159377
-0.000502305606
-0.000721805638
-0.000749830717
-0.000595965799
-0.000550257098
-0.000697985246
-0.000748387343
-0.00059409104
-0.00056455682
-0.000694661766
-0.000744293064
-0.000588041253
-0.000501306093
-0.0005058946
-0.000713777637
-0.00075019312
-0.00059336181
-0.000592277842
-0.000680260685
-0.000744879058
-0.000593212332
-0.000571607276
-0.000577984312
-0.000546064829
-0.000544285829
-0.00067854552
-0.000742945274
-0.000595456767
-0.000531978342
-0.000520507079
-0.000667386956
-0.000748879012
-0.000593169547
-0.000583779881
-0.000642863691
-0.000747756106
-0.000594936981
-0.000593436557
-0.000639085096
-0.000744348424
-0.000605589717
-0.000589280252
-0.000566943261
-0.000564107717
-0.000528942404
-0.000532824824
-0.00067620902
-0.000744425101
-0.000744661321
-0.00060393852
-0.000587122634
-0.000605434005
-0.000737132295
-0.000599918367
-0.000581289521
-0.000599524039
-0.000732244078
-0.000617669518
-0.000545490419
-0.000499280941
-0.000591792577
-0.00072879837
-0.00062700978
-0.000558690479
-0.000506400391
-0.000588156156
-0.00073058241
-0.000614729045
-0.000598887415
-0.000592221521
-0.000729956653
-0.000639324469
-0.000580990448
-0.000524819814
-0.000586779993
-0.000727351676
-0.00065117602
-0.00059411941
-0.000535176809
-0.00058690388
-0.00072711943
-0.000665297543
-0.000596503898
-0.000548785693
-0.000588989979
-0.000729374262
-0.000665677477
-0.000592063361
-0.000568789603
-0.000551586305
-0.000585303291
-0.000725512084
-0.000678436613
-0.00059507518
-0.000536039146
-0.000583558535
-0.000726398921
-0.000678232325
-0.0005943034
-0.00051450765
-0.000579446568
-0.000727617672
-0.000646479757
-0.000601423602
-0.000583496041
-0.000732178192
-0.000649977155
-0.00060316361
-0.000585553371
-0.000731806133
-0.000682022588
-0.000593921485
-0.000505874615
-0.000582803969
-0.000727210867
-0.000690380284
-0.000595153794
-0.00050710407
-0.000581895275
-0.000727409676
-0.000661356356
-0.000606285039
-0.000589201205
-0.000733161487
-0.000696991523
-0.000594878673
-0.00050277366
-0.000583692259
-0.00072805112
-0.00066629186
-0.000607431529
-0.000591526387
-0.000733798401
-0.000705591392
-0.000595750925
-0.000512741036
-0.000589347785
-0.00072870044
-0.000712151636
-0.000596701077
-0.000513217204
-0.000590344928
-0.000728495192
-0.000712693323
-0.000597429832
-0.00049833389
-0.000589013322
-0.00072810732
-0.0006766438
-0.000594870392
-0.000593145812
-0.00073347673
-0.000676628913
-0.000592767454
-0.000596582883
-0.00073503348
-0.00070789925
-0.000586967644
-0.000476298301
-0.000592858989
-0.00072863898
-0.00068354026
-0.00058527024
-0.000596661107
-0.000733996027
-0.000685237926
-0.000591742746
-0.000600626063
-0.000736263881
-0.00071751649
-0.000593150559
-0.000482281328
-0.000595315387
-0.000728924882
-0.000694531984
-0.000595027506
-0.000603762929
-0.000736948361
-0.000722986499
-0.000597433224
-0.000486301391
-0.000596733476
-0.00072940646
-0.000699297511
-0.000593641547
-0.000606071908
-0.000737828726
-0.000722289763
-0.000591854535
-0.000475259217
-0.000598720141
-0.000730960052
-0.000699288721
-0.000573547077
-0.000604887766
-0.000737176096
-0.000697626307
-0.000570864986
-0.000604552311
-0.000737680024
-0.000698256633
-0.000574223093
-0.000608502589
-0.000741211165
-0.000726424495
-0.000583837275
-0.000473468654
-0.000598437682
-0.00073470461
-0.000708492263
-0.000587320513
-0.00060804093
-0.000743864633
-0.000732381319
-0.000597745394
-0.000494450532
-0.000596363896
-0.00074002117
-0.00073650796
-0.000595795099
-0.000492430027
-0.000594605122
-0.000739133617
-0.000711331483
-0.00058672652
-0.000605511482
-0.000749401099
-0.000734407599
-0.000585078846
-0.000484436616
-0.000592224872
-0.000741357516
-0.000707484341
-0.000583823135
-0.000601925111
-0.000749961964
-0.000739907572
-0.000594427275
-0.000510289958
-0.000591277054
-0.000742497835
-0.000740809178
-0.000600275651
-0.000533331629
-0.000512434952
-0.000584245126
-0.000737979007
-0.000754982241
-0.00073326987
-0.000587921135
-0.00057313252
-0.000583482107
-0.00057251466
-0.000553252121
-0.000593980894
-0.000747283346
-0.000726175971
-0.000595863853
-0.000598705928
-0.000754113533
-0.000742052917
-0.000591893688
-0.000505476154
-0.000588770258
-0.000746720323
-0.000746647487
-0.000599973522
-0.000529575362
-0.000527402748
-0.000597326316
-0.000749928414
-0.000709703867
-0.000591142724
-0.000597915464
-0.00075314274
-0.000745898223
-0.000593467011
-0.000515689284
-0.00058940153
-0.00074663254
-0.000745912129
-0.000575697098
-0.000487635859
-0.000588904025
-0.000746924694
-0.00074709215
-0.000558551728
-0.000474106833
-0.00058946234
)
;

boundaryField
{
    closed
    {
        type            calculated;
        value           uniform -0.00447111896;
    }
    open
    {
        type            calculated;
        value           nonuniform List<scalar> 0();
    }
    sides
    {
        type            empty;
    }
    procBoundary0to1
    {
        type            processor;
        value           uniform -0.000745027024;
    }
}


// ************************************************************************* //
