/*--------------------------------*- C++ -*----------------------------------*\
| =========                 |                                                 |
| \\      /  F ield         | OpenFOAM: The Open Source CFD Toolbox           |
|  \\    /   O peration     | Version:  2306                                  |
|   \\  /    A nd           | Website:  www.openfoam.com                      |
|    \\/     M anipulation  |                                                 |
\*---------------------------------------------------------------------------*/
FoamFile
{
    version     2.0;
    format      ascii;
    arch        "LSB;label=32;scalar=64";
    class       volScalarField;
    location    "0.00056";
    object      Z;
}
// * * * * * * * * * * * * * * * * * * * * * * * * * * * * * * * * * * * * * //

dimensions      [0 0 0 0 0 0 0];

internalField   nonuniform List<scalar> 
530
(
0.0145348498
0.0144801543
0.0144619561
0.0144617289
0.0144617072
0.0144617069
0.0144617069
0.0144617069
0.0144617069
0.0144617069
0.0144617069
0.0144617069
0.0144617069
0.0144617069
0.0144617069
0.0144617069
0.0144617069
0.0144617069
0.0144617069
0.0144617069
0.0144617069
0.0144617069
0.0144617069
0.0144617069
0.0144617069
0.0144617069
0.0144617069
0.0144617069
0.0144617069
0.0144617069
0.0144617069
0.0144617069
0.0144617069
0.0144617069
0.0144617069
0.0144617069
0.0144617069
0.0144617069
0.0144617069
0.0144617069
0.0144617069
0.0144617069
0.0144617069
0.0144617069
0.0144617069
0.0144617069
0.0144617069
0.0144617069
0.0144617069
0.0144617069
0.0144617069
0.0144617069
0.0144617069
0.0144617069
0.0144617069
0.0144617069
0.0144617069
0.0144617069
0.0144617069
0.0144617069
0.0144617069
0.0144617069
0.0144617069
0.0144617069
0.0144617069
0.0144617069
0.0144617069
0.0144617069
0.0144617069
0.0144617069
0.0144617069
0.0144617069
0.0144617069
0.0144617069
0.0144617069
0.0144617069
0.014461707
0.014461707
0.0144617072
0.0144617076
0.0144617084
0.0144617123
0.0144617159
0.014461716
0.0144617461
0.0144618036
0.0144618383
0.0144617609
0.01446141
0.0144615384
0.0144660004
0.0144687071
0.0144561253
0.0144357119
0.0144455461
0.0145619673
0.0146039916
0.014359222
0.0141910579
0.0144514549
0.0147295606
0.0148052391
0.0147231007
0.014098234
0.0140609649
0.0140916506
0.0145705535
0.0147623935
0.0147710723
0.0147106994
0.0140669255
0.0140596962
0.0147114748
0.0147202255
0.0140655713
0.0140742514
0.0147279581
0.0148778953
0.0147424125
0.0140834442
0.0140659147
0.0147698623
0.0147723103
0.0140770402
0.0140726102
0.0147823012
0.0147875255
0.0140773039
0.0140760813
0.0147973819
0.014799412
0.0140782939
0.0140779522
0.0147997893
0.0148001127
0.0140773471
0.0140771074
0.0147894649
0.0147895271
0.0140750245
0.0140760464
0.0147704345
0.0147712116
0.0140719944
0.0140828219
0.0147559604
0.014887075
0.0147458236
0.0140826308
0.0140714832
0.0147599843
0.0147583872
0.0140717061
0.0140817853
0.0147474458
0.0148864556
0.0147482165
0.0140857417
0.0140723954
0.0147831639
0.0147811948
0.0140790362
0.0140773347
0.0147860322
0.0147911779
0.0140817657
0.0140780588
0.0147952289
0.014799877
0.0140830712
0.0140780287
0.014788646
0.0147940511
0.0140827247
0.0140769294
0.0147717367
0.0147787025
0.0140819119
0.0140805119
0.0147540217
0.0148917043
0.0147572914
0.0140899069
0.0140717578
0.0147618832
0.0147691119
0.0140843501
0.0140737008
0.0147408921
0.0147536128
0.0140853559
0.0140782089
0.0147334725
0.0148698112
0.0147513821
0.0140903833
0.0140717127
0.0147389877
0.0147544869
0.0140906323
0.0140785626
0.0147294978
0.0148787014
0.0147656055
0.0140960112
0.0140732866
0.0147550784
0.0147773809
0.0141024368
0.0140759902
0.0147564589
0.0147826806
0.0141062551
0.0140764191
0.0147568777
0.0147854133
0.014109878
0.0140767134
0.0147450412
0.0147763626
0.0141122172
0.0140829368
0.0147178527
0.0148920414
0.014800613
0.0141087214
0.0140746468
0.0147333621
0.0147812986
0.0141313249
0.0140753628
0.0147238762
0.0147781338
0.014139168
0.0140752191
0.0147082183
0.0147701746
0.0141464518
0.0140818012
0.0146614409
0.0148746434
0.0148261622
0.0141277608
0.0140714154
0.0146688403
0.0147589512
0.014174475
0.014071938
0.0146437689
0.0147432637
0.0141812312
0.0140785602
0.0145834152
0.0148295285
0.0148216099
0.0141443985
0.0140666517
0.0145768865
0.0147025944
0.0142042753
0.0140730598
0.0145043474
0.014735125
0.0147257835
0.0147742121
0.0147754008
0.0142068651
0.0140785661
0.0144693476
0.0147888274
0.0148007878
0.0142304478
0.0140710336
0.014518466
0.0147064091
0.0142817629
0.0140746088
0.0144906991
0.0146886334
0.0142901058
0.0140793682
0.0144082557
0.014700756
0.0147409031
0.0147409092
0.0147947689
0.0147941889
0.0142184324
0.0140755417
0.0140728661
0.0144109273
0.0147057401
0.0143779572
0.0140977158
0.0144309596
0.0147196734
0.0143989754
0.0141077806
0.0143533462
0.0147678853
0.0148314469
0.0144315283
0.0141129387
0.0143229292
0.0147499868
0.0148215138
0.0144499096
0.0141089046
0.0143651027
0.0146886214
0.0144387892
0.0141109872
0.0142883049
0.0147190015
0.0148014814
0.0144679322
0.0141147826
0.0142590624
0.0146996382
0.0147898323
0.0144724133
0.0141140098
0.0142282655
0.0146786305
0.0147733943
0.014468522
0.0141084941
0.0142267888
0.0146128605
0.0147449907
0.0147672994
0.0145189948
0.0141187943
0.014202742
0.0146736648
0.014793321
0.0145253581
0.0141190194
0.0142045027
0.0146898974
0.0148178291
0.0145635302
0.0141201666
0.014271868
0.0146928736
0.0145450471
0.0141127923
0.0142642722
0.0146940967
0.0145523367
0.0141142278
0.0141994734
0.0146965277
0.0148315511
0.0145926549
0.0141223864
0.0141854109
0.0146924948
0.0148302185
0.0145948354
0.0141202575
0.0142402277
0.0146908858
0.0145689182
0.0141110531
0.0141742796
0.0146913615
0.014836908
0.0146097187
0.0141197748
0.014230771
0.0146938014
0.0145826527
0.0141093838
0.0141599877
0.014679737
0.0148281009
0.0146109859
0.014117869
0.0141490077
0.0146768124
0.0148292393
0.0146173742
0.0141185152
0.0141490869
0.0146869547
0.014846095
0.0146376747
0.0141205949
0.014212367
0.014715538
0.0146181369
0.0141107232
0.0142126493
0.0147182751
0.0146280725
0.0141101446
0.0141585526
0.0147090769
0.0148717938
0.0146734801
0.0141223331
0.0142016341
0.0147290978
0.0146430084
0.0141103799
0.0141982226
0.0147200671
0.0146433843
0.0141073086
0.0141425727
0.0147013013
0.0148662143
0.0146733376
0.0141192949
0.0141828082
0.014718056
0.0146482617
0.0141047308
0.014131718
0.0146953401
0.0148623548
0.0146718823
0.0141170837
0.0141750868
0.0147204414
0.0146544875
0.0141028392
0.0141331347
0.0147039199
0.0148754187
0.0146864416
0.0141163221
0.014176641
0.0147451823
0.0146767032
0.0141048028
0.0141795865
0.0147463059
0.014679586
0.0141034533
0.0141785268
0.014742219
0.0146799118
0.0140982084
0.0141283961
0.0147142433
0.0148764839
0.0146785491
0.0141067605
0.0141625164
0.0147259066
0.0146600497
0.0140895301
0.0141150285
0.0146969449
0.0148519266
0.0146429351
0.0140955638
0.0141087479
0.0147007704
0.0148531369
0.0146394451
0.0140949558
0.0141589367
0.0147241143
0.0146455741
0.0140791158
0.0141138887
0.0147106916
0.0148612268
0.0146347019
0.0140919958
0.0141661522
0.0147257428
0.0146361353
0.0140765858
0.0141032702
0.0147019625
0.0148282299
0.0145760872
0.014084075
0.0141017812
0.0146411242
0.0147903425
0.0148217082
0.0145872125
0.0141014747
0.01405612
0.0141010597
0.0145773987
0.014745544
0.0147199551
0.0147384534
0.0147620762
0.0145463737
0.0140739518
0.0141329937
0.014654511
0.0145701053
0.0140644051
0.0140970696
0.0147009551
0.0148313217
0.0145728646
0.0140778286
0.0140947206
0.0146885144
0.0147963289
0.0147920838
0.0146272989
0.0140754379
0.0141636933
0.0147093591
0.0145974202
0.0140656149
0.0140872472
0.0147012848
0.0148171522
0.014535026
0.0140766617
0.0140901326
0.0147264242
0.0148521271
0.0145849834
0.0140799888
0.0140929396
0.0147485106
0.0148678288
0.0145868621
)
;

boundaryField
{
    closed
    {
        type            zeroGradient;
    }
    open
    {
        type            zeroGradient;
    }
    sides
    {
        type            empty;
    }
    procBoundary0to1
    {
        type            processor;
        value           uniform 0.0140821977;
    }
}


// ************************************************************************* //
