/*--------------------------------*- C++ -*----------------------------------*\
| =========                 |                                                 |
| \\      /  F ield         | OpenFOAM: The Open Source CFD Toolbox           |
|  \\    /   O peration     | Version:  2306                                  |
|   \\  /    A nd           | Website:  www.openfoam.com                      |
|    \\/     M anipulation  |                                                 |
\*---------------------------------------------------------------------------*/
FoamFile
{
    version     2.0;
    format      ascii;
    arch        "LSB;label=32;scalar=64";
    class       volScalarField;
    location    "0.0002";
    object      mu;
}
// * * * * * * * * * * * * * * * * * * * * * * * * * * * * * * * * * * * * * //

dimensions      [1 -1 -1 0 0 0 0];

internalField   nonuniform List<scalar> 
3801
(
2.02920695e-05
1.96675744e-05
1.93169402e-05
1.95272277e-05
2.0284216e-05
2.0303786e-05
1.96924952e-05
1.95132523e-05
1.94535728e-05
1.94881542e-05
2.027855e-05
2.02959716e-05
2.02873695e-05
2.03097394e-05
2.02969654e-05
1.97261325e-05
1.93466179e-05
1.95218375e-05
2.02912328e-05
2.03095229e-05
1.97632367e-05
1.95547958e-05
1.95402914e-05
1.9607241e-05
2.02945065e-05
2.02899783e-05
1.97634153e-05
1.95247115e-05
1.96737436e-05
2.02732399e-05
2.03115317e-05
1.97889245e-05
1.96441172e-05
2.02720889e-05
2.03098066e-05
1.9778415e-05
1.9564656e-05
1.94737821e-05
1.95950305e-05
2.02818594e-05
2.02866776e-05
2.02879764e-05
1.97763228e-05
1.95634082e-05
2.0268222e-05
2.03012764e-05
1.97946074e-05
1.96483181e-05
2.02703845e-05
2.02885024e-05
1.97685767e-05
1.95552559e-05
1.97517591e-05
2.02625053e-05
2.0314839e-05
1.97939468e-05
1.9671644e-05
2.02648806e-05
2.03027054e-05
1.97714042e-05
1.95254303e-05
1.95781978e-05
1.95782592e-05
1.95989301e-05
1.96696002e-05
1.96082368e-05
1.97669601e-05
2.02607409e-05
2.03039003e-05
2.02730935e-05
2.03046804e-05
1.97881045e-05
1.95180075e-05
2.02340038e-05
2.02908149e-05
2.02434333e-05
2.02932174e-05
1.95920003e-05
1.93026993e-05
2.02472076e-05
2.02878849e-05
1.95705712e-05
1.93629952e-05
1.93754903e-05
1.9550791e-05
2.02663472e-05
2.02815314e-05
2.02801299e-05
2.02913869e-05
1.96550253e-05
1.93422533e-05
1.96516113e-05
2.02894306e-05
2.02902942e-05
1.95953156e-05
1.94462146e-05
1.97632073e-05
2.02940496e-05
2.0294632e-05
2.02960298e-05
1.95468981e-05
1.94916731e-05
1.95833597e-05
1.97684745e-05
2.03049533e-05
2.02779934e-05
1.95223763e-05
1.95202459e-05
1.9764623e-05
2.0296108e-05
2.02750656e-05
1.96208947e-05
1.97799404e-05
2.02998318e-05
2.02524303e-05
1.94939943e-05
1.94898083e-05
1.97809933e-05
2.0291934e-05
2.025087e-05
1.96408306e-05
1.97972699e-05
2.0306911e-05
2.02455241e-05
1.96549194e-05
1.97912014e-05
2.03000624e-05
2.02673433e-05
2.02890731e-05
2.0053555e-05
1.9431247e-05
1.94283307e-05
1.9603848e-05
1.96225691e-05
1.96848609e-05
1.98284088e-05
2.02956218e-05
2.01617346e-05
1.96407729e-05
1.97971216e-05
2.02980599e-05
2.01812559e-05
1.94672073e-05
1.94631101e-05
1.96001347e-05
1.97921438e-05
2.02924387e-05
2.01109453e-05
1.94037724e-05
1.94042575e-05
1.9579455e-05
1.98015503e-05
2.02968327e-05
2.02832356e-05
2.02894364e-05
2.025039e-05
2.02762266e-05
2.02366488e-05
1.94490567e-05
1.94486547e-05
1.96369934e-05
1.97747604e-05
2.03227215e-05
2.02754965e-05
1.97075532e-05
1.9542427e-05
1.96548038e-05
1.96936745e-05
1.98168435e-05
2.0305423e-05
2.02631877e-05
1.96536515e-05
1.97788246e-05
2.03145346e-05
2.02649034e-05
1.94360776e-05
1.94325946e-05
1.97723941e-05
2.02977644e-05
2.02652797e-05
1.96157415e-05
1.97794762e-05
2.03121069e-05
2.025609e-05
1.96248235e-05
1.97822546e-05
2.03047396e-05
2.02496082e-05
1.94849019e-05
1.94850024e-05
1.97851966e-05
2.0292608e-05
2.0258702e-05
1.96537119e-05
1.97872979e-05
2.03091941e-05
2.0252006e-05
1.96468326e-05
1.97885337e-05
2.03075533e-05
2.02584756e-05
1.96418047e-05
1.97708989e-05
2.00373531e-05
1.97657567e-05
1.97792088e-05
2.0315716e-05
2.02601553e-05
1.96040332e-05
1.97820836e-05
2.03048353e-05
2.02675045e-05
1.94266485e-05
1.94241194e-05
1.97755489e-05
2.0286623e-05
2.02817385e-05
1.94652198e-05
1.94497314e-05
1.97778819e-05
2.02901883e-05
2.0283018e-05
1.9514578e-05
1.94509189e-05
1.97688853e-05
2.02875588e-05
2.02870181e-05
1.96849462e-05
1.97580909e-05
2.02883817e-05
2.03044489e-05
2.02655379e-05
1.95963653e-05
1.93852766e-05
1.96077473e-05
1.95661293e-05
1.97535347e-05
2.02996338e-05
2.03042968e-05
1.96591119e-05
1.95494456e-05
1.9622427e-05
1.9769161e-05
2.03084742e-05
2.0299132e-05
1.97553963e-05
1.97433222e-05
2.03063217e-05
2.02969141e-05
1.97405507e-05
1.97061028e-05
2.03056031e-05
2.02808272e-05
1.9716854e-05
1.94338371e-05
1.97601197e-05
2.03060797e-05
2.02902975e-05
1.97368321e-05
1.94009823e-05
1.97129566e-05
2.02419096e-05
2.03018955e-05
1.97732425e-05
1.96548436e-05
2.00088179e-05
2.02831464e-05
1.97530041e-05
1.95215947e-05
1.9591102e-05
1.97666814e-05
2.00711736e-05
2.02766891e-05
1.976485e-05
1.95275365e-05
1.97179493e-05
2.0062815e-05
2.02765287e-05
1.97755924e-05
1.96822875e-05
1.98917417e-05
1.98492342e-05
1.94922687e-05
1.95049998e-05
1.97428946e-05
1.99668135e-05
2.03084684e-05
2.02865536e-05
2.0294081e-05
2.02966926e-05
2.02641887e-05
1.97932587e-05
1.94699602e-05
1.95108255e-05
1.96989965e-05
1.98089906e-05
2.02937805e-05
1.99592665e-05
1.96604792e-05
1.9790847e-05
2.02929734e-05
2.00071694e-05
1.96419347e-05
1.98074611e-05
2.01263491e-05
1.97608077e-05
1.97836856e-05
2.0292317e-05
2.02933148e-05
2.0184515e-05
1.94877206e-05
1.94917795e-05
1.95828103e-05
1.95694029e-05
1.95883672e-05
1.97575551e-05
2.03044035e-05
2.02271633e-05
1.96406838e-05
1.97792454e-05
2.03110227e-05
2.02399821e-05
1.96407221e-05
1.97713775e-05
2.03130405e-05
2.02751175e-05
1.95597017e-05
1.95380854e-05
1.97464676e-05
2.03011668e-05
2.0282937e-05
1.96363719e-05
1.9691687e-05
2.03102884e-05
2.02917198e-05
1.96224406e-05
1.94600779e-05
1.97220912e-05
2.03039041e-05
2.03044952e-05
2.0305184e-05
1.9623277e-05
1.95585436e-05
2.03075409e-05
2.03051689e-05
1.95469322e-05
1.95504158e-05
2.03003196e-05
2.02997476e-05
1.95311632e-05
1.95003704e-05
2.02893733e-05
2.02969109e-05
1.95902408e-05
1.93996349e-05
1.94297502e-05
2.02838193e-05
2.02942252e-05
1.96855499e-05
1.95177931e-05
1.95181117e-05
1.95184058e-05
2.0257908e-05
2.02797891e-05
1.97740168e-05
1.94557491e-05
1.94567215e-05
2.02465082e-05
2.02802518e-05
2.02720878e-05
2.02956347e-05
1.96429751e-05
1.96246863e-05
2.02522615e-05
1.97852231e-05
1.95098752e-05
1.95930365e-05
1.95529355e-05
1.94270111e-05
1.94278401e-05
2.02461781e-05
2.02815373e-05
2.02777779e-05
1.97805019e-05
1.94779876e-05
2.02444016e-05
2.02702697e-05
1.97766457e-05
1.93031636e-05
1.93121255e-05
2.01917234e-05
2.02803983e-05
2.02480554e-05
2.02874569e-05
2.02765196e-05
2.02955075e-05
1.97750747e-05
1.93839116e-05
2.01577349e-05
2.02931399e-05
1.9760331e-05
1.94826715e-05
2.01100876e-05
2.02876668e-05
1.97985759e-05
1.95387855e-05
2.0112102e-05
2.02881274e-05
1.97985981e-05
1.95608453e-05
2.01182067e-05
2.02871069e-05
1.97996673e-05
1.95561469e-05
2.01772969e-05
2.02716755e-05
1.98027713e-05
1.94168913e-05
1.9419938e-05
2.01080428e-05
2.02650976e-05
1.9824428e-05
1.94365655e-05
1.94379003e-05
2.01111774e-05
2.02713761e-05
2.0267696e-05
1.97943159e-05
1.96214883e-05
2.02601e-05
2.02740194e-05
1.98136946e-05
1.94689509e-05
1.94640439e-05
1.99725154e-05
2.02808413e-05
1.97668307e-05
1.95145689e-05
1.98039265e-05
2.02812706e-05
2.02972098e-05
2.02976023e-05
2.02989263e-05
1.97490007e-05
1.94992145e-05
1.95371532e-05
1.95167583e-05
1.95165339e-05
1.95440101e-05
1.95290489e-05
1.95518726e-05
1.93472713e-05
1.93505448e-05
2.02768579e-05
2.02686583e-05
2.02692897e-05
1.97927195e-05
1.96428513e-05
2.02861951e-05
2.03068207e-05
1.9790261e-05
1.96594867e-05
2.02843191e-05
2.03100683e-05
1.97600386e-05
1.96939134e-05
2.02801843e-05
2.02819668e-05
2.02632608e-05
1.99716907e-05
1.95434388e-05
1.94084123e-05
1.97902891e-05
2.02864998e-05
1.99724349e-05
1.94666961e-05
1.94118285e-05
1.98573236e-05
2.02954918e-05
1.99165678e-05
1.95095587e-05
1.94487791e-05
1.97692968e-05
2.0287825e-05
2.03272065e-05
1.97727655e-05
1.9704108e-05
2.03194997e-05
2.03057027e-05
2.02958834e-05
1.97655297e-05
1.95588498e-05
2.00039998e-05
2.02958907e-05
1.98365255e-05
1.95657726e-05
1.94596161e-05
1.97668409e-05
2.03035009e-05
2.03041124e-05
1.96055188e-05
1.93561035e-05
1.97593134e-05
2.02791127e-05
1.99328142e-05
1.95354152e-05
1.97735269e-05
2.02951553e-05
1.98521484e-05
1.95129354e-05
1.97869052e-05
2.02978285e-05
1.97738627e-05
1.9504695e-05
2.00161408e-05
2.02905756e-05
1.97462693e-05
1.94892186e-05
2.03324185e-05
2.02878881e-05
1.97584067e-05
1.9316808e-05
1.93606709e-05
2.03105684e-05
2.027992e-05
1.97657037e-05
1.94945835e-05
1.9585358e-05
1.93454116e-05
1.94064139e-05
2.02968672e-05
2.02908568e-05
2.02859877e-05
1.97709509e-05
1.95725038e-05
1.99492401e-05
2.02816202e-05
1.9817189e-05
1.95695839e-05
1.97528195e-05
2.02925265e-05
2.03121755e-05
1.95670463e-05
1.95591579e-05
2.02986743e-05
2.02793979e-05
1.95960954e-05
1.96021222e-05
2.03027403e-05
2.02728327e-05
1.95965082e-05
1.96247397e-05
2.0297243e-05
2.02626752e-05
1.95505632e-05
1.95724381e-05
2.02897919e-05
2.02535539e-05
1.93597718e-05
1.94367465e-05
2.02908292e-05
2.02763908e-05
2.02744775e-05
2.02677721e-05
1.95237753e-05
1.93887638e-05
1.93294406e-05
1.95173639e-05
2.02887648e-05
2.02882386e-05
2.02645899e-05
2.02863735e-05
2.02532196e-05
1.96108451e-05
1.93902941e-05
1.9737052e-05
2.02855865e-05
2.02952548e-05
1.95115374e-05
1.94090719e-05
1.97025937e-05
2.02925509e-05
2.03014433e-05
1.95166949e-05
1.95704352e-05
1.95890211e-05
1.97612854e-05
2.02867415e-05
2.03096474e-05
1.95753629e-05
1.95775624e-05
1.96259564e-05
1.97597367e-05
2.02858504e-05
2.03164728e-05
1.96371341e-05
1.96126674e-05
2.02844419e-05
2.03343519e-05
1.95440327e-05
1.97520775e-05
2.0303757e-05
1.97540856e-05
1.9431446e-05
1.95823685e-05
1.95848383e-05
1.9537277e-05
1.97629226e-05
2.02901425e-05
2.03042931e-05
2.02934544e-05
2.03101391e-05
1.96668388e-05
1.9582104e-05
2.02957162e-05
2.02941163e-05
1.97705393e-05
1.95336266e-05
1.99889098e-05
2.02942449e-05
1.97130118e-05
1.95822183e-05
2.02741622e-05
2.03142214e-05
1.95559322e-05
1.96718157e-05
2.02808767e-05
1.98230197e-05
1.93512425e-05
1.95511268e-05
1.94430827e-05
1.97314173e-05
2.0279265e-05
2.03021923e-05
2.03040922e-05
1.96539927e-05
1.95872377e-05
2.02871208e-05
2.03056214e-05
1.96771066e-05
1.97675369e-05
2.02927929e-05
2.02898374e-05
2.02964116e-05
1.99718449e-05
1.94425063e-05
1.93910696e-05
1.97640989e-05
2.02769214e-05
2.03118314e-05
1.95512203e-05
1.95225814e-05
2.02712414e-05
2.03114816e-05
1.94164901e-05
1.94240184e-05
2.02744654e-05
2.03049491e-05
2.02856471e-05
2.03163522e-05
2.02921606e-05
1.97456855e-05
1.92780767e-05
1.94700593e-05
1.95060998e-05
1.96172852e-05
1.96057684e-05
1.97769473e-05
2.02906972e-05
2.03093103e-05
1.95783194e-05
1.94802357e-05
1.97744622e-05
2.02835332e-05
2.0308229e-05
1.96014679e-05
1.96040901e-05
2.03019107e-05
2.02896679e-05
1.95261065e-05
1.96280972e-05
2.03075949e-05
2.0278202e-05
2.02982912e-05
2.02746503e-05
1.96324424e-05
1.9490958e-05
2.0254716e-05
2.0265941e-05
1.95658236e-05
1.93928485e-05
1.95877305e-05
1.95085009e-05
1.97526607e-05
2.03000101e-05
2.02905365e-05
1.95804064e-05
1.94788567e-05
1.95399784e-05
1.9759149e-05
2.03142391e-05
2.02855523e-05
1.97798204e-05
1.96834942e-05
2.01542994e-05
2.0286576e-05
1.97837245e-05
1.97244799e-05
2.02148554e-05
2.02639183e-05
2.02634315e-05
2.02660962e-05
1.95026923e-05
1.93151555e-05
1.95456996e-05
1.95563257e-05
1.97489101e-05
2.03013107e-05
2.02902878e-05
1.97696875e-05
1.96733993e-05
2.01310411e-05
2.02808435e-05
1.97728473e-05
1.96850154e-05
2.01755001e-05
2.02759687e-05
1.97823426e-05
1.96781099e-05
2.02146792e-05
2.02612221e-05
1.96787852e-05
1.9451113e-05
1.96145981e-05
1.9730671e-05
1.98317276e-05
2.02908228e-05
2.02607504e-05
2.03060781e-05
2.02373357e-05
1.9711615e-05
1.95580582e-05
1.98909829e-05
2.02819494e-05
2.00184432e-05
1.95553076e-05
1.96214051e-05
2.00578917e-05
2.02439569e-05
1.97420856e-05
1.94572951e-05
1.96921439e-05
2.00871248e-05
2.02762132e-05
1.98629446e-05
1.96477007e-05
1.97963854e-05
2.02811145e-05
1.99381677e-05
1.96305928e-05
1.97871727e-05
2.02867484e-05
1.9979739e-05
1.95903089e-05
1.97821224e-05
2.02875073e-05
2.00146921e-05
1.94941947e-05
1.97744675e-05
2.02846687e-05
2.00366071e-05
1.92490303e-05
1.92542495e-05
1.95221314e-05
1.97888913e-05
2.02968402e-05
2.0276344e-05
2.02918483e-05
2.02503714e-05
1.93875131e-05
1.9380793e-05
1.9588542e-05
1.95508731e-05
1.97633293e-05
2.02971167e-05
2.03032134e-05
2.02657109e-05
1.96141816e-05
1.96589787e-05
2.03061946e-05
2.02690957e-05
1.9471643e-05
1.94738746e-05
1.95179403e-05
1.97488333e-05
2.03091161e-05
2.03238959e-05
2.02990665e-05
1.97441515e-05
1.93767653e-05
1.97279383e-05
2.03052432e-05
2.03205227e-05
1.95459972e-05
1.94262004e-05
1.97456954e-05
2.03100461e-05
2.03097309e-05
1.96010595e-05
1.96230356e-05
2.0324936e-05
2.03087446e-05
1.95700792e-05
1.94162231e-05
1.97344503e-05
2.03078275e-05
2.032586e-05
1.95597567e-05
1.9528289e-05
1.95654885e-05
1.97406722e-05
2.03178489e-05
2.03199286e-05
1.96617708e-05
1.96521762e-05
2.03408778e-05
2.03120726e-05
1.96313208e-05
1.95668143e-05
2.03458217e-05
2.03095698e-05
1.96064677e-05
1.936206e-05
1.96484482e-05
2.03319344e-05
2.03244341e-05
1.97355572e-05
1.95382523e-05
1.98912468e-05
2.03212493e-05
1.98135292e-05
1.95176554e-05
1.97766194e-05
2.03251099e-05
1.98641615e-05
1.94981985e-05
1.97513013e-05
2.03295893e-05
1.99200562e-05
1.94862151e-05
1.97379146e-05
2.03317213e-05
1.99891402e-05
1.94769643e-05
1.97321431e-05
2.0329499e-05
1.99225559e-05
1.941351e-05
1.97762071e-05
2.03293073e-05
1.97067548e-05
1.92220322e-05
1.95855763e-05
2.03496868e-05
2.0356824e-05
2.03713282e-05
2.03487359e-05
1.96945602e-05
1.93171453e-05
1.97898818e-05
2.0326819e-05
1.97056725e-05
1.91696474e-05
1.94955312e-05
2.03704357e-05
2.03494127e-05
1.96988951e-05
1.9210336e-05
1.94973029e-05
2.03831211e-05
2.03579555e-05
1.96817082e-05
1.92506405e-05
1.96683309e-05
2.03943647e-05
2.03735009e-05
1.96633282e-05
1.92280521e-05
1.95000185e-05
2.02717833e-05
2.03879742e-05
1.97792779e-05
1.93860536e-05
1.97065704e-05
2.03908161e-05
1.98620556e-05
1.93400828e-05
1.97039099e-05
2.03989643e-05
1.96669354e-05
1.92849978e-05
1.98010966e-05
2.04192439e-05
2.04182357e-05
2.04157088e-05
2.04227155e-05
2.0393855e-05
2.0458669e-05
2.03552576e-05
1.95279642e-05
1.90117625e-05
1.92920171e-05
2.01455639e-05
2.04154455e-05
1.95491207e-05
1.90966209e-05
1.9155566e-05
1.93500299e-05
1.95943517e-05
2.04932817e-05
2.04935545e-05
2.04786486e-05
2.04867797e-05
2.04809953e-05
2.04812919e-05
2.04790323e-05
2.04784106e-05
2.04781891e-05
2.04783959e-05
2.04797497e-05
2.04809203e-05
2.04833849e-05
2.04855277e-05
2.04886144e-05
2.0491531e-05
2.04950224e-05
2.04984073e-05
2.05021867e-05
2.05057831e-05
2.05097459e-05
2.05133938e-05
2.05174502e-05
2.05210667e-05
2.05251688e-05
2.05287048e-05
2.05328661e-05
2.0536266e-05
2.05405602e-05
2.05437514e-05
2.05482673e-05
2.05512182e-05
2.0555892e-05
2.05583366e-05
2.05632654e-05
2.05645956e-05
2.05703943e-05
2.05702126e-05
2.05780464e-05
2.05807317e-05
2.05885062e-05
1.85728928e-05
1.86410555e-05
1.86811656e-05
1.88124446e-05
1.87394142e-05
1.87513633e-05
1.87025158e-05
1.91194754e-05
1.87609962e-05
1.94856596e-05
1.91306208e-05
1.88667144e-05
1.8975084e-05
1.90288123e-05
1.91272752e-05
1.88857941e-05
1.89897956e-05
1.89240814e-05
1.88889408e-05
1.87617367e-05
1.87544126e-05
1.88263009e-05
1.88021486e-05
1.88292422e-05
1.88133185e-05
1.88438457e-05
1.88690071e-05
1.88584815e-05
1.95272353e-05
1.93426036e-05
1.97702721e-05
2.02111801e-05
2.00081221e-05
2.08881859e-05
2.05871922e-05
2.06770069e-05
2.05945559e-05
2.08850951e-05
2.11847405e-05
2.11817412e-05
2.13245234e-05
2.17073227e-05
2.15739042e-05
2.19671569e-05
2.09566506e-05
2.29167027e-05
2.22524345e-05
2.22153162e-05
2.23286718e-05
2.28235308e-05
2.28252106e-05
2.32196676e-05
2.28900641e-05
2.32003322e-05
2.35435813e-05
2.29675251e-05
2.24897325e-05
2.39220254e-05
2.32222953e-05
2.28505037e-05
2.2996446e-05
2.24105124e-05
2.23241828e-05
2.23104327e-05
2.28198518e-05
2.2810199e-05
2.29151086e-05
2.3167563e-05
2.3600397e-05
2.39940804e-05
2.45072355e-05
2.50761157e-05
2.58280863e-05
2.64654337e-05
2.70820518e-05
2.76114317e-05
2.81592372e-05
2.86267656e-05
2.91239575e-05
2.95773171e-05
3.00582951e-05
3.04909829e-05
3.0952596e-05
3.13770602e-05
3.18206593e-05
3.22378451e-05
3.26581347e-05
3.30670885e-05
3.34622437e-05
3.38595663e-05
3.42332066e-05
3.46117362e-05
3.49636331e-05
3.53202871e-05
3.56510634e-05
3.59924024e-05
3.63087648e-05
3.66367559e-05
3.69408786e-05
3.72552277e-05
3.75515247e-05
3.78497576e-05
3.81389535e-05
3.84206255e-05
3.87027806e-05
3.89692547e-05
3.92431165e-05
3.9495718e-05
3.97602822e-05
4.00016293e-05
4.0258052e-05
4.04897317e-05
4.07373916e-05
4.09608265e-05
4.11994337e-05
4.14156889e-05
4.16452226e-05
4.18554683e-05
4.20757248e-05
4.22805066e-05
4.24892224e-05
4.26895556e-05
4.28879998e-05
4.30855782e-05
4.32743838e-05
4.346955e-05
4.36502525e-05
4.38425352e-05
4.40155591e-05
4.42053153e-05
4.43720408e-05
4.45615657e-05
4.47337222e-05
4.49284339e-05
4.50950991e-05
4.52973923e-05
4.54680214e-05
4.56742958e-05
4.58360112e-05
4.6084042e-05
4.62744959e-05
4.62984782e-05
4.63423363e-05
4.67370431e-05
4.6890563e-05
4.67354668e-05
4.67814463e-05
4.73342495e-05
4.74896047e-05
4.71422582e-05
4.72274388e-05
4.79392887e-05
4.81162353e-05
4.76427796e-05
4.77457088e-05
4.84864549e-05
4.85252875e-05
4.8191394e-05
4.82770557e-05
4.87800276e-05
4.87105945e-05
4.86106777e-05
4.86354681e-05
4.9232922e-05
4.96071995e-05
4.89657877e-05
4.89986881e-05
4.98813238e-05
4.99082381e-05
4.93700013e-05
4.95242347e-05
5.0213931e-05
5.02762277e-05
4.99336926e-05
4.98745831e-05
5.02132541e-05
5.04045693e-05
5.02737687e-05
5.04303874e-05
5.05505538e-05
5.04256839e-05
5.07472393e-05
5.06581087e-05
5.08765227e-05
5.0891105e-05
5.10505564e-05
5.10978433e-05
5.11293912e-05
5.11512934e-05
5.12982675e-05
5.1346272e-05
5.13930156e-05
5.14223714e-05
5.15282565e-05
5.15755839e-05
5.16349515e-05
5.16790805e-05
5.17590296e-05
5.18060978e-05
5.18802676e-05
5.19275156e-05
5.19972265e-05
5.20425501e-05
5.21130917e-05
5.21593197e-05
5.2222064e-05
5.22657716e-05
5.23326068e-05
5.23775952e-05
5.243531e-05
5.24770748e-05
5.25408634e-05
5.25831331e-05
5.26361673e-05
5.2675182e-05
5.27356847e-05
5.27748822e-05
5.28247853e-05
5.286294e-05
5.29194797e-05
5.29567263e-05
5.30085107e-05
5.30456346e-05
5.30950326e-05
5.31301809e-05
5.31863607e-05
5.32219655e-05
5.32609418e-05
5.32954181e-05
5.33628695e-05
5.3396491e-05
5.34146819e-05
5.34481092e-05
5.35349961e-05
5.35653245e-05
5.3556882e-05
5.3590744e-05
5.37044425e-05
5.3727849e-05
5.36890713e-05
5.37254448e-05
5.38646741e-05
5.38774656e-05
5.38143015e-05
5.38534958e-05
5.40178793e-05
5.40158009e-05
5.39347753e-05
5.39785405e-05
5.41511143e-05
5.41403001e-05
5.40492583e-05
5.4101328e-05
5.42701713e-05
5.42523061e-05
5.41563279e-05
5.42174469e-05
5.43822566e-05
5.43550518e-05
5.42579141e-05
5.43255092e-05
5.4479611e-05
5.44500291e-05
5.43562235e-05
5.44237551e-05
5.45668343e-05
5.45410215e-05
5.44522047e-05
5.45140166e-05
5.46440086e-05
5.46290295e-05
5.45456677e-05
5.45945334e-05
5.47167216e-05
5.47146262e-05
5.46367151e-05
5.46661159e-05
5.47878763e-05
5.4796344e-05
5.47288021e-05
5.47333591e-05
5.48541456e-05
5.4873059e-05
5.48242946e-05
5.48048941e-05
5.49099314e-05
5.49444062e-05
5.49153707e-05
5.48773833e-05
5.49584309e-05
5.50103458e-05
5.50009709e-05
5.49495364e-05
5.50009136e-05
5.50716667e-05
5.50762271e-05
5.50216935e-05
5.5038296e-05
5.51293778e-05
5.51472001e-05
5.50947814e-05
5.50837646e-05
5.51796337e-05
5.52117501e-05
5.51702787e-05
5.51349786e-05
5.52232726e-05
5.52701872e-05
5.52414825e-05
5.51913675e-05
5.52634781e-05
5.532335e-05
5.53065245e-05
5.52507563e-05
5.53011923e-05
5.537255e-05
5.53676075e-05
5.53114686e-05
5.53391187e-05
5.54178044e-05
5.54248577e-05
5.53715595e-05
5.53807371e-05
5.54610471e-05
5.54775503e-05
5.54318284e-05
5.54304346e-05
5.55007182e-05
5.55243764e-05
5.5490195e-05
5.54827519e-05
5.55384366e-05
5.55685929e-05
5.55440986e-05
5.55354919e-05
5.55770765e-05
5.56096105e-05
5.55937146e-05
5.55862791e-05
5.56164685e-05
5.56487014e-05
5.56400367e-05
5.5634867e-05
5.56567563e-05
5.56865889e-05
5.56842356e-05
5.56810479e-05
5.56975671e-05
5.57241261e-05
5.57261838e-05
5.57258435e-05
5.57381603e-05
5.57616373e-05
5.57663061e-05
5.5767789e-05
5.57791601e-05
5.57984491e-05
5.58055099e-05
5.58091167e-05
5.5819204e-05
5.58352772e-05
5.58435625e-05
5.58485487e-05
5.58580373e-05
5.58719719e-05
5.58808351e-05
5.58867465e-05
5.58959846e-05
5.59085021e-05
5.59175721e-05
5.59245617e-05
5.59334017e-05
5.59446691e-05
5.59536334e-05
5.59613506e-05
5.597013e-05
5.59806994e-05
5.59896769e-05
5.59979647e-05
5.60065414e-05
5.60165397e-05
5.60252778e-05
5.6033744e-05
5.60420862e-05
5.60517732e-05
5.60602676e-05
5.60689444e-05
5.60770468e-05
5.6086533e-05
5.60946316e-05
5.61035329e-05
5.61112756e-05
5.61207102e-05
5.61283788e-05
5.61375087e-05
5.614486e-05
5.61543449e-05
5.61615637e-05
5.61709357e-05
5.61778813e-05
5.61879553e-05
5.61946841e-05
5.62097878e-05
5.62164735e-05
5.62322114e-05
5.62384355e-05
5.62547885e-05
5.62608158e-05
5.62778119e-05
5.62837493e-05
5.63013895e-05
5.63072542e-05
5.63254965e-05
5.63313043e-05
5.63501126e-05
5.6355892e-05
5.6375214e-05
5.63810009e-05
5.64007741e-05
5.6406618e-05
5.64267751e-05
5.64327369e-05
5.64531852e-05
5.64592372e-05
5.64798034e-05
5.64852337e-05
5.65058664e-05
5.65117092e-05
5.65324602e-05
5.65387792e-05
5.65593005e-05
5.65663014e-05
5.65872374e-05
5.65943964e-05
5.66148358e-05
5.66222554e-05
5.66461797e-05
5.665235e-05
5.66729883e-05
5.66792281e-05
5.67159338e-05
5.6714999e-05
5.67203845e-05
5.67283551e-05
5.67193906e-05
5.67403008e-05
5.67412322e-05
5.67515059e-05
5.67103389e-05
5.67348339e-05
5.67484997e-05
5.67594991e-05
5.66994721e-05
5.67277269e-05
5.67509022e-05
5.67625044e-05
5.66824876e-05
5.67151651e-05
5.67317019e-05
5.67516465e-05
5.66500935e-05
5.66893136e-05
5.67081713e-05
5.67305017e-05
5.66040056e-05
5.66451571e-05
5.66997162e-05
5.67121548e-05
5.65514374e-05
5.66034887e-05
5.67011506e-05
5.67108694e-05
5.65000603e-05
5.65586749e-05
5.67016695e-05
5.67094465e-05
5.64625678e-05
5.65208344e-05
5.6703285e-05
5.67130232e-05
5.64344312e-05
5.64906818e-05
5.67061028e-05
5.67154619e-05
5.6413321e-05
5.6468091e-05
5.67104031e-05
5.67186719e-05
5.64016761e-05
5.645349e-05
5.67166694e-05
5.67243828e-05
5.6396563e-05
5.64453171e-05
5.6724547e-05
5.67307685e-05
5.63979777e-05
5.64424182e-05
5.67341226e-05
5.67405296e-05
5.6412062e-05
5.64488307e-05
5.67471006e-05
5.67537138e-05
5.64322621e-05
5.646105e-05
5.67621178e-05
5.67697218e-05
5.64547097e-05
5.64766121e-05
5.67768513e-05
5.67867774e-05
5.64784689e-05
5.64944734e-05
5.67923992e-05
5.68073177e-05
5.65082243e-05
5.65371579e-05
5.6803876e-05
5.68281837e-05
5.65528847e-05
5.65959053e-05
5.68174376e-05
5.68467178e-05
5.66003749e-05
5.66456303e-05
5.68397049e-05
5.68675653e-05
5.66716916e-05
5.67105756e-05
5.68832921e-05
5.68953297e-05
5.67949463e-05
5.68026932e-05
5.69054174e-05
5.69286235e-05
5.68879509e-05
5.68754873e-05
5.68787969e-05
5.69214804e-05
5.68951317e-05
5.68976792e-05
5.68884888e-05
5.68971241e-05
5.68944472e-05
5.68959653e-05
5.6894855e-05
5.68909773e-05
5.68978437e-05
5.68974431e-05
5.69000192e-05
5.68987318e-05
5.69026808e-05
5.6902514e-05
5.69053232e-05
5.69049925e-05
5.69080472e-05
5.69071876e-05
5.69097145e-05
5.69091314e-05
5.69115331e-05
5.69111676e-05
5.69135007e-05
5.69131755e-05
5.69156401e-05
5.69153002e-05
5.69178763e-05
5.69175273e-05
5.69202195e-05
5.69198801e-05
5.69226834e-05
5.6922364e-05
5.69252789e-05
5.692499e-05
5.69280161e-05
5.69277649e-05
5.6930903e-05
5.69306948e-05
5.69339451e-05
5.69337843e-05
5.69371468e-05
5.69370364e-05
5.69405107e-05
5.6940453e-05
5.69440376e-05
5.69440356e-05
5.6947728e-05
5.6947705e-05
5.69513362e-05
5.69504831e-05
5.69540386e-05
5.69532807e-05
5.69567771e-05
5.69560959e-05
5.69595327e-05
5.695893e-05
5.69623074e-05
5.69617829e-05
5.69651031e-05
5.69646552e-05
5.6967921e-05
5.69675483e-05
5.6970762e-05
5.69704636e-05
5.69736278e-05
5.69734025e-05
5.69765196e-05
5.69763665e-05
5.6979439e-05
5.6979357e-05
5.69823875e-05
5.69823757e-05
5.69853666e-05
5.69854241e-05
5.6988378e-05
5.69885034e-05
5.69914228e-05
5.69916152e-05
5.69945024e-05
5.69947607e-05
5.69976178e-05
5.69979409e-05
5.70007698e-05
5.70009865e-05
5.70036742e-05
5.70033133e-05
5.70059484e-05
5.70056857e-05
5.70082725e-05
5.70081045e-05
5.70106468e-05
5.70105702e-05
5.70130718e-05
5.70130836e-05
5.70155476e-05
5.70156451e-05
5.70180745e-05
5.70182553e-05
5.70206527e-05
5.70209145e-05
5.70232824e-05
5.70236232e-05
5.70259636e-05
5.70263815e-05
5.70286963e-05
5.70291896e-05
5.70314805e-05
5.70320476e-05
5.7034316e-05
5.70349553e-05
5.70372026e-05
5.70379126e-05
5.70401396e-05
5.70409189e-05
5.70431262e-05
5.70439736e-05
5.70461612e-05
5.70470754e-05
5.7049243e-05
5.70502229e-05
5.70523693e-05
5.70534144e-05
5.70555379e-05
5.7056649e-05
5.70587464e-05
5.70599265e-05
5.70619916e-05
5.70626287e-05
5.70647099e-05
5.70653364e-05
5.70673786e-05
5.70681185e-05
5.70701283e-05
5.7070975e-05
5.70729573e-05
5.70739081e-05
5.70758669e-05
5.70769236e-05
5.70788612e-05
5.70800303e-05
5.708195e-05
5.70832442e-05
5.7085146e-05
5.70865878e-05
5.70884791e-05
5.70901031e-05
5.70919759e-05
5.70937379e-05
5.70957509e-05
5.70975895e-05
5.70998696e-05
5.71017186e-05
5.71046535e-05
5.71062659e-05
5.71101544e-05
5.71112741e-05
5.71174484e-05
5.71170211e-05
5.71262137e-05
5.71233083e-05
5.71390891e-05
5.71306807e-05
5.71523933e-05
5.71378645e-05
5.71725543e-05
5.71459151e-05
5.71468876e-05
5.71524904e-05
5.72095403e-05
5.71625908e-05
5.70824005e-05
5.71675026e-05
5.72082973e-05
5.71768427e-05
5.6944734e-05
5.71656634e-05
5.71725828e-05
5.71841304e-05
5.68348603e-05
5.71646248e-05
5.71645226e-05
5.71915955e-05
5.68031624e-05
5.71705469e-05
5.71648292e-05
5.72006108e-05
5.67779379e-05
5.71808299e-05
5.71737131e-05
5.721053e-05
5.67625126e-05
5.71927986e-05
5.71855699e-05
5.72204377e-05
5.67605594e-05
5.72058013e-05
5.72000679e-05
5.72320551e-05
5.67670951e-05
5.72179502e-05
5.7216198e-05
5.72433968e-05
5.6781754e-05
5.72295269e-05
5.72339462e-05
5.72536903e-05
5.679552e-05
5.72399115e-05
5.72505812e-05
5.72640599e-05
5.68157027e-05
5.7251507e-05
5.72674581e-05
5.72754607e-05
5.68376943e-05
5.72639133e-05
5.72843407e-05
5.72870871e-05
5.68615664e-05
5.72757848e-05
5.73009432e-05
5.72984629e-05
5.68870347e-05
5.72871899e-05
5.73172894e-05
5.73096471e-05
5.69141014e-05
5.72990449e-05
5.73335502e-05
5.73211394e-05
5.69478103e-05
5.73113971e-05
5.73496762e-05
5.73331748e-05
5.69803869e-05
5.73241963e-05
5.73655719e-05
5.73452883e-05
5.70103646e-05
5.7337198e-05
5.73812032e-05
5.73576707e-05
5.70375587e-05
5.7350411e-05
5.73963966e-05
5.73704082e-05
5.70621814e-05
5.7363893e-05
5.74112872e-05
5.73835861e-05
5.70840284e-05
5.73777194e-05
5.74261366e-05
5.73972881e-05
5.71025921e-05
5.73918895e-05
5.7440959e-05
5.74115298e-05
5.71167455e-05
5.74063562e-05
5.74557704e-05
5.74262931e-05
5.71295573e-05
5.74207697e-05
5.74706921e-05
5.74415278e-05
5.71412877e-05
5.74353748e-05
5.74857475e-05
5.7457095e-05
5.71521487e-05
5.74501773e-05
5.7500951e-05
5.74728119e-05
5.71623421e-05
5.74651435e-05
5.75163189e-05
5.74888375e-05
5.71720557e-05
5.74802137e-05
5.75318696e-05
5.75051334e-05
5.71814833e-05
5.74953488e-05
5.75476213e-05
5.7521657e-05
5.7190816e-05
5.75105231e-05
5.75636488e-05
5.75383703e-05
5.72004652e-05
5.75257468e-05
5.7579946e-05
5.75552351e-05
5.72181828e-05
5.75410444e-05
5.75965363e-05
5.7572216e-05
5.72368189e-05
5.75564139e-05
5.76133593e-05
5.75893439e-05
5.72557276e-05
5.75718736e-05
5.76304645e-05
5.76066499e-05
5.72748952e-05
5.75874561e-05
5.76478802e-05
5.76241631e-05
5.72943114e-05
5.76031931e-05
5.7665632e-05
5.76419191e-05
5.73139546e-05
5.76191064e-05
5.76837343e-05
5.76599658e-05
5.73337795e-05
5.76352082e-05
5.77021857e-05
5.76783598e-05
5.73537023e-05
5.76514817e-05
5.77209593e-05
5.76971572e-05
5.73735953e-05
5.76678472e-05
5.77400352e-05
5.77163797e-05
5.73932994e-05
5.7684113e-05
5.77592665e-05
5.77359927e-05
5.7412532e-05
5.77000175e-05
5.77785026e-05
5.77560008e-05
5.74310864e-05
5.77152406e-05
5.77975878e-05
5.77767929e-05
5.74481043e-05
5.77302232e-05
5.78163009e-05
5.77982748e-05
5.74644307e-05
5.77424794e-05
5.78345441e-05
5.78213697e-05
5.74810924e-05
5.77460283e-05
5.78524116e-05
5.78472243e-05
5.7498324e-05
5.77393061e-05
5.78699178e-05
5.78709837e-05
5.751639e-05
5.77191908e-05
5.78873387e-05
5.78926128e-05
5.75353988e-05
5.76898386e-05
5.79056581e-05
5.79071985e-05
5.75555698e-05
5.76610397e-05
5.79263012e-05
5.79299215e-05
5.75806868e-05
5.76604887e-05
5.79505997e-05
5.79557333e-05
5.76071978e-05
5.76834987e-05
5.79756088e-05
5.79836474e-05
5.76354227e-05
5.77082443e-05
5.80021777e-05
5.80122987e-05
5.7664841e-05
5.77337423e-05
5.80295666e-05
5.80402992e-05
5.76949755e-05
5.77589137e-05
5.80575e-05
5.80682849e-05
5.77256101e-05
5.77848592e-05
5.8085836e-05
5.80968665e-05
5.77566135e-05
5.78107987e-05
5.81144264e-05
5.81258327e-05
5.77877808e-05
5.78376671e-05
5.81431429e-05
5.81549507e-05
5.78189094e-05
5.78650051e-05
5.81718329e-05
5.81839873e-05
5.78498745e-05
5.78925181e-05
5.82003748e-05
5.82127952e-05
5.78805644e-05
5.79201824e-05
5.82286201e-05
5.82412361e-05
5.79108447e-05
5.79483376e-05
5.82564962e-05
5.82692931e-05
5.79406188e-05
5.7976493e-05
5.8283958e-05
5.82969365e-05
5.7967385e-05
5.80044498e-05
5.83109514e-05
5.83240928e-05
5.7992712e-05
5.80320354e-05
5.83317544e-05
5.83506965e-05
5.80177541e-05
5.80591223e-05
5.83521972e-05
5.83767045e-05
5.80424271e-05
5.80856263e-05
5.83725715e-05
5.84020983e-05
5.80667078e-05
5.81115141e-05
5.83925019e-05
5.84268837e-05
5.80904997e-05
5.81367987e-05
5.84117085e-05
5.84510859e-05
5.81137656e-05
5.81615085e-05
5.84299442e-05
5.84747093e-05
5.81364612e-05
5.81857103e-05
5.84473646e-05
5.84977714e-05
5.81585683e-05