/*--------------------------------*- C++ -*----------------------------------*\
| =========                 |                                                 |
| \\      /  F ield         | OpenFOAM: The Open Source CFD Toolbox           |
|  \\    /   O peration     | Version:  2306                                  |
|   \\  /    A nd           | Website:  www.openfoam.com                      |
|    \\/     M anipulation  |                                                 |
\*---------------------------------------------------------------------------*/
FoamFile
{
    version     2.0;
    format      ascii;
    arch        "LSB;label=32;scalar=64";
    class       volScalarField;
    location    "0.00016";
    object      p;
}
// * * * * * * * * * * * * * * * * * * * * * * * * * * * * * * * * * * * * * //

dimensions      [1 -1 -2 0 0 0 0];

internalField   nonuniform List<scalar> 
3801
(
102339.587
102370.781
102402.575
102434.716
102469.404
102504.239
102536.736
102570.222
102604.499
102639.225
102672.816
102706.438
102736.815
102767.77
102801.785
102834.25
102863.393
102891.7
102922.127
102950.3
102974.411
102996.752
103019.758
103039.766
103055.941
103068.818
103078.955
103087.83
103093.39
103095.939
103095.232
103091.299
103084.078
103073.425
103059.589
103042.08
103021.087
102996.697
102969.353
102939.013
102906.506
102867.122
102823.788
102778.826
102731.43
102682.277
102633.19
102576.264
102518.737
102460.419
102401.184
102338.295
102276.398
102214.929
102152.353
102086.654
102019.486
101952.388
101886.926
101823.063
101760.138
101697.09
101637.961
101583.586
101533.464
101484.652
101441.141
101400.524
101363.486
101328.9
101299.454
101271.626
101246.265
101218.862
101194.253
101171.686
101147.601
101124.563
101104.167
101086.998
101068.791
101051.511
101036.094
101022.113
101009.271
100998.617
100988.798
100979.999
100970.894
100962.528
100954.159
100946.11
100938.806
100931.26
100924.236
100917.914
100911.924
100905.766
100900.358
100895.163
100890.259
100885.906
100881.4
100876.695
100872.758
100868.953
100865.327
100861.073
100857.286
100853.495
100849.602
100846.042
100842.771
100839.831
100837.195
100834.724
100832.682
100830.876
100828.277
100826.817
100824.59
100822.994
100821.338
100819.694
100818.196
100817.092
100816.085
100815.425
100815.248
100815.458
100815.78
100816.578
100818.109
100820.157
100822.458
100825.611
100829.896
100834.828
100839.902
100845.656
100853.505
100861.713
100870.436
100879.855
100889.874
100901.011
100912.797
100925.237
100938.911
100953.112
100966.78
100980.749
100995.18
101009.147
101033.613
101040.698
101053.21
101068.305
101083.868
101098.824
101116.429
101136.311
101148.28
101165.104
101183.848
101202.402
101220.384
101239.728
101260.785
101282.592
101305.269
101328.362
101351.9
101377.018
101403.572
101431.495
101461.55
101492.412
101523.55
101556.776
101593.072
101630.53
101669.391
101708.612
101746.573
101786.333
101828.284
101869.834
101907.78
101946.681
101985.796
102023.326
102054.394
102084.773
102113
102137.68
102160.048
102179.7
102190.363
102198.398
102200.757
102201.607
102189.996
102175.144
102152.957
102130.127
102093.043
102051.612
102001.056
101950.568
101885.282
101814.553
101732.555
101649.666
101549.775
101440.768
101317.777
101196.19
101062.936
100926.729
100780.677
100627.53
100471.452
100314.476
100158.733
99997.5668
99834.2477
99659.8715
99489.489
99330.5121
99187.9242
99050.791
98925.8261
98807.9308
98722.549
98644.362
98581.0923
98531.8551
98509.4098
98509.1233
98530.9043
98579.1667
98667.1172
98773.9858
98891.8322
99018.1394
99154.2267
99312.0321
99469.0714
99622.9359
99775.8183
99922.9489
100061.194
100194.456
100321.144
100440.179
100551.12
100651.502
100744.325
100831.818
100911.898
100984.252
101050.782
101112.762
101171.559
101226.509
101278.469
101325.54
101371.533
101415.515
101457.733
101495.793
101533.053
101567.656
101603.58
101638.054
101667.728
101696.866
101724.741
101751.397
101775.459
101799.533
101823.154
101846.159
101867.102
101888.448
101909.203
101931.317
101953.524
101975.843
101996.433
102018.213
102039.626
102060.906
102079.503
102097.805
102115.526
102133.549
102155.434
102178.453
102201.419
102223.629
102245.489
102267.913
102291.105
102306.762
102327.29
102346.741
102365.685
102384.506
102402.705
102422.422
102441.729
102458.054
102474.83
102490.909
102505.956
102519.103
102532.342
102544.597
102555.856
102565.812
102575.826
102584.557
102592.321
102598.65
102604.818
102610.323
102615.093
102618.387
102621.54
102623.977
102625.609
102626.336
102626.185
102625.24
102623.896
102620.806
102616.849
102612.849
102608.181
102601.716
102594.359
102587.257
102579.398
102569.744
102559.258
102549.519
102538.923
102527.022
102513.908
102498.247
102486.036
102473.141
102459.867
102444.559
102429.978
102415.153
102400.553
102386.385
102370.977
102356.162
102341.79
102327.242
102311.594
102296.385
102281.951
102269.053
102254.53
102241.672
102229.51
102218.267
102206.22
102193.997
102182.292
102172.311
102162.646
102154.423
102145.682
102137.462
102129.977
102123.939
102117.843
102112.682
102107.111
102102.34
102098.172
102094.296
102090.898
102090.809
102089.263
102089.121
102089.978
102092.242
102095.718
102099.993
102104.87
102110.944
102118.193
102125.604
102133.29
102141.748
102149.344
102156.577
102165.37
102173.984
102182.956
102192.285
102202.562
102212.194
102221.863
102232.397
102243.531
102255.468
102267.806
102280.87
102296.246
102310.288
102326.308
102343.088
102360.116
102379.207
102396.492
102414.99
102433.681
102453.504
102472.053
102490.479
102508.296
102525.011
102542.245
102556.594
102570.744
102583.698
102596.872
102608.623
102619.704
102629.745
102639.099
102648.232
102656.711
102664.194
102670.205
102675.92
102681.852
102686.263
102688.603
102690.742
102692.153
102694.012
102695.145
102693.532
102690.727
102687.423
102682.986
102675.819
102668.286
102659.917
102650.66
102638.908
102626.233
102612.729
102596.8
102578.047
102557.86
102536.431
102513.96
102490.521
102466.41
102441.586
102416.863
102390.87
102362.894
102337.738
102307.05
102276.617
102246.036
102216.102
102189.245
102157.942
102108.766
102074.611
102025.288
101976.156
101932.249
101886.475
101841.651
101797.8
101755.466
101715.552
101677.357
101639.031
101601.125
101564.48
101532.376
101496.405
101459.971
101426.174
101391.944
101357.991
101327.646
101293.494
101260.044
101228.183
101196.94
101166.939
101133.349
101100.273
101068.737
101037.114
101007.587
100979.402
100950.141
100920.801
100894.02
100867.593
100838.428
100809.586
100785.188
100760.986
100736.286
100712.64
100693.06
100674.723
100657.199
100639.26
100622.79
100608.368
100595.288
100582.501
100570.761
100561.237
100553.053
100545.214
100538.282
100532.902
100528.574
100524.582
100521.265
100519.043
100517.427
100516.475
100515.934
100516.191
100517.433
100519.667
100522.848
100526.933
100531.754
100537.662
100544.746
100552.748
100562.057
100572.139
100582.174
100593.26
100605.624
100618.536
100630.999
100644.563
100659.475
100674.856
100689.599
100705.75
100723.542
100741.947
100759.689
100779.352
100800.945
100823.329
100844.477
100867.856
100892.461
100919.359
100946.806
100971.922
100998.439
101024.85
101052.655
101079.25
101104.877
101130.82
101156.034
101180.318
101202.803
101225.554
101246.358
101265.92
101283.476
101296.358
101308.455
101319.113
101328.191
101334.531
101339
101341.905
101344.746
101343.703
101342.437
101337.779
101331.228
101324.207
101319.48
101314.205
101310.146
101310.582
101313.884
101322.476
101330.746
101337.027
101341.8
101343.602
101344.757
101345.309
101346.214
101349.659
101352.75
101356.932
101363.009
101372.868
101383.13
101394.392
101407.796
101423.381
101441.049
101460.5
101481.291
101505.259
101530.081
101547.764
101565.863
101583.853
101601.129
101617.264
101629.804
101641.362
101652.016
101662.43
101664.955
101664.49
101658.231
101646.524
101654.903
101660.867
101669.608
101670.443
101686.381
101700.878
101713.853
101724.299
101732.877
101741.662
101754.708
101761.478
101763.839
101768.241
101772.409
101776.116
101777.12
101774.967
101769.845
101763.407
101756.921
101750.395
101744.256
101739.375
101735.833
101733.654
101733.624
101736.162
101753.311
101760.527
101761.349
101776.995
101796.689
101818.438
101840.224
101863.693
101896.847
101923.384
101938.667
101946.911
101948.33
101941.29
101927.892
101907.872
101880.68
101850.002
101817.559
101767.21
101710.38
101641.76
101570.57
101498.815
101410.191
101313.813
101205.802
101098.967
100980.849
100859.59
100728.789
100596.727
100465.706
100324.273
100184.819
100050.405
99914.863
99774.3682
99640.2722
99503.611
99371.4834
99237.6148
99116.1342
99010.1974
98920.7368
98840.4707
98775.2566
98722.0667
98690.3329
98675.7045
98681.3258
98702.7938
98735.5367
98782.2388
98852.4187
98933.9578
99028.4583
99132.8706
99259.3704
99386.8011
99517.3203
99651.1179
99785.3044
99917.8656
100043.79
100173.988
100301.262
100424
100542.033
100655.344
100754.74
100850.617
100942.646
101029.933
101106.898
101179.947
101249.37
101314.266
101370.894
101424.368
101475.158
101522.779
101565.072
101606.966
101648.864
101686.337
101722.056
101756.634
101786.864
101817.291
101846.822
101875.482
101905.051
101930.636
101955.126
101985.508
102008.07
102029.392
102051.04
102072.085
102092.508
102112.593
102130.262
102148.047
102165.589
102182.418
102197.264
102211.577
102232.16
102245.331
102258.526
102272.612
102286.264
102300.588
102312.503
102325.119
102335.479
102346.508
102356.212
102366.136
102374.411
102382.683
102389.595
102396.438
102402.694
102408.413
102413.246
102416.699
102420.376
102422.602
102423.673
102423.989
102424.208
102422.521
102419.775
102415.779
102410.61
102405.037
102398.161
102388.67
102377.884
102368.042
102358.005
102343.084
102326.933
102308.51
102287.263
102268.2
102247.041
102226.126
102203.034
102178.251
102153.412
102130.912
102108.805
102085.216
102062.572
102043.559
102025.707
102008.484
101992.263
101976.489
101965.926
101957.964
101951.552
101946.676
101943.337
101942.429
101942.66
101944.447
101947.479
101951.525
101955.859
101960.542
101965.269
101969.672
101972.802
101975.162
101976.645
101977.177
101975.84
101973.011
101968.012
101961.67
101953.723
101944.244
101932.638
101919.865
101906.393
101893.546
101880.532
101867.982
101855.167
101843.362
101832.895
101824.34
101816.981
101811.5
101807.09
101807.875
101809.522
101813.24
101818.84
101825.759
101834.876
101846.257
101858.48
101870.583
101883.749
101898.334
101912.526
101925.588
101938.606
101952.261
101963.865
101974.184
101983.345
101990.369
101998.824
102003.582
102005.661
102005.665
102002.793
101997.76
101989.246
101978.986
101966.387
101950.848
101930.672
101907.551
101882.342
101853.982
101820.992
101785.643
101751.124
101715.099
101678.576
101640.195
101602.692
101566.51
101532.754
101500.432
101471.426
101445.287
101425.084
101409.394
101401.391
101397.866
101404.23
101421.722
101448.163
101479.316
101522.337
101579.854
101647.984
101718.848
101792.982
101873.147
101957.06
102042.347
102127.404
102211.749
102300.628
102387.225
102455.536
102518.212
102592.206
102654.108
102705.673
102753.219
102798.781
102839.126
102875.157
102909.981
102946.404
102981.175
103015.22
103048.579
103079.54
103103.922
103122.363
103135.803
103142.961
103142.899
103136.687
103124.157
103106.337
103083.886
103057.223
103026.445
102991.189
102950.729
102904.146
102850.581
102789.485
102720.815
102645.125
102563.436
102477.142
102387.734
102296.697
102205.626
102116.571
102032.5
101957.479
101896.202
101852.549
101827.452
101816.952
101811.946
101800.84
101775.128
101735.603
101695.77
101679.629
101708.061
101764.136
101805.612
101775.872
102408.463
103183.09
102386.308
101603.591
101441.963
101624.874
101249.677
101897.875
102084.537
102238.633
101537.731
100738.355
100496.363
99964.2639
100911.172
101001.303
101622.996
101812.24
101613.267
103100.434
104183.95
103278.968
102140.579
102806.473
103248.024
101745.87
100965.513
102775.037
102952.511
102070.773
103934.434
101655.571
101602.47
104213.686
103810.093
103729.758
103491.706
103271.89
103443.487
103525.538
103477.695
103494.334
103455.892
103395.063
103314.976
103194.855
103038.817
102886.303
102785.764
102515.147
101740.915
102314.395
104486.201
103163.123
100019.378
100887.759
103189.906
102245.87
101507.165
101655.774
102159.494
102156.301
101857.008
101830.266
101861.187
98553.4806
96445.8534
104775.399
104118.315
101033.445
100775.405
102017.827
102421.11
102199.831
102154.964
102152.261
102145.865
102137.157
102125.942
102112.325
102096.411
102079.541
102062.539
102045.652
102029.845
102014.277
101998.809
101983.702
101968.514
101952.98
101937.457
101922.284
101907.946
101894.893
101883.788
101875.015
101868.987
101866.014
101866.281
101869.789
101876.494
101886.204
101898.697
101913.628
101930.686
101949.479
101969.69
101990.905
102012.829
102035.054
102057.356
102079.359
102100.943
102121.868
102142.072
102161.183
102179.23
102196.155
102211.802
102226.007
102238.932
102250.449
102260.647
102269.427
102276.855
102282.906
102287.684
102291.157
102293.441
102294.472
102294.382
102293.18
102290.979
102287.806
102283.764
102278.909
102273.334
102267.117
102260.336
102253.087
102245.426
102237.465
102229.225
102220.846
102212.318
102203.783
102195.186
102186.701
102178.228
102169.968
102161.761
102153.817
102145.999
102138.631
102131.237
102123.828
102117.088
102112.354
102105.824
102095.299
102089.737
102095.749
102093.01
102068.993
102060.072
102093.258
102132.051
102227.257
102179.984
101898.893
101877.947
102387.13
102412.754
101611.402
101487.746
102317.238
102306.716
101546.209
101583.41
102238.978
102192.227
101708.902
101773.819
102108.412
101930.352
101627.518
101637.35
102128.591
102291.862
101781.44
101936.524
102681.208
102448.585
101908.5
102135.895
102406.391
102215.862
102160.241
102247.084
102290.565
102117.054
102215.721
102554.476
102272.702
102009.465
102284.924
102401.884
102134.782
101928.355
102222.507
102488.492
102269.226
102080.926
102208.631
102286.951
102214.857
102159.389
102224.252
102198.536
102062.808
102002.887
102092.51
102129.104
102103.713
102094.697
102100.423
102103.201
102104.102
102104.746
102104.319
102103.812
102102.963
102101.311
102099.821
102100.216
102096.901
102087.813
102088.23
102087.604
102083.054
102075.902
102072.195
102071.925
102064.523
102050.109
102046.375
102052.946
102040.899
102011.314
102009.176
102031.144
102012.059
101962.125
101960.984
101993.674
101966.044
101897.606
101899.876
101947.555
101910.428
101819.253
101825.689
101886.64
101836.174
101726.73
101733.871
101796.798
101735.1
101618.023
101630.835
101692.608
101615.433
101493.215
101520.755
101588.022
101494.857
101366.943
101404.953
101475.884
101376.693
101248.606
101290.091
101358.964
101258.036
101135.375
101178.835
101238.961
101142.748
101035.419
101075.683
101124.537
101030.252
100931.14
100968.406
101009.037
100925.233
100846.918
100890.627
100926.006
100850.162
100789.165
100837.486
100869.425
100798.051
100748.881
100800.046
100828.741
100763.784
100726.408
100778.547
100803.333
100747.419
100723.045
100772.898
100791.83
100745.215
100720.857
100773.043
100798.144
100734.488
100694.484
100736.549
100755.896
100707.907
100678.458
100695.643
100695.699
100661.745
100638.927
100634.963
100619.893
100591.609
100565.066
100540.47
100511.987
100479.462
100445.124
100409.022
100370.463
100329.54
100286.751
100242.34
100196.478
100149.556
100102.158
100054.794
100007.694
99961.7733
99919.1325
99880.1262
99840.2828
99803.2197
99787.4285
99784.4584
99712.1734
99609.5526
99764.5674
100000.779
99941.9877
99948.8515
100049.059
100125.671
100359.963
100632.793
100734.822
100734.401
100847.908
101049.901
101079.93
100950.053
100944.775
101078.143
101088.082
100951.092
100919.752
101037.341
101084.543
100994.951
100935.869
101029.429
101093.438
101026.624
100910.221
100935.259
100952.941
100844.383
100730.215
100747.353
100743.838
100633.393
100551.685
100588.207
100577.269
100464.408
100412.01
100472.143
100457.219
100339.263
100309.762
100393.51
100380.624
100260.136
100249.02
100357.242
100350.625
100227.766
100231.12
100360.322
100358.975
100232.16
100243.644
100384.481
100380.875
100251.999
100277.034
100419.686
100402.829
100280.034
100324.761
100465.192
100437.858
100325.815
100385.145
100520.158
100486.755
100388.776
100458.983
100584.53
100549.596
100502.929
100581.108
100639.645
100630.513
100645.985
100698.214
100782.889
100859.672
100788.713
100735.385
100877.365
100984.608
100880.794
100835.364
100965.093
101021.461
100913.745
100898.005
101025.492
101057.131
100955.185
100972.691
101097.736
101128.466
101043.515
101057.38
101161.221
101187.951
101121.754
101127.412
101216.553
101232.328
101185.453
101183.612
101216.128
101233.653
101242.637
101218.708
101167.741
101198.945
101268.804
101233.293
101166.763
101191.287
101231.556
101207.859
101177.419
101186.339
101195.574
101183.175
101174.519
101177.513
101175.941
101171.393
101174.752
101179.351
101176.119
101178.84
101193.274
101201.351
101199.674
101209.882
101233.573
101246.023
101246.949
101263.653
101296.02
101311.227
101311.709
101333.571
101369.461
101387.695
101392.586
101410.159
101440.563
101461.517
101468.238
101480.68
101504.276
101523.693
101533.111
101543.44
101560.145
101575.582
101584.979
101593.386
101604.835
101616.199
101624.57
101631.809
101640.089
101648.23
101655.172
101661.479
101667.817
101674.005
101679.617
101684.827
101689.894
101694.772
101699.365
101703.715
101707.883
101711.875
101715.699
101719.374
101722.891
101726.26
101729.512
101732.654
101735.672
101738.573
101741.369
101744.118
101746.746
101749.266
101751.719
101754.104
101756.408
101758.635
101760.797
101762.898
101764.935
101766.912
101768.831
101770.698
101772.512
101774.276
101775.992
101777.662
101779.286
101780.865
101782.401
101783.893
101785.343
101786.749
101788.111
101789.43
101790.702
101791.929
101793.107
101794.236
101795.313
101796.337
101797.306
101798.217
101799.07
101799.861
101800.589
101801.252
101801.849
101802.378
101802.838
101803.229
101803.549
101803.797
101803.974
101804.079
101804.113
101804.075
101803.966
101803.786
101803.535
101803.217
101802.829
101802.374
101801.851
101801.262
101800.606
101799.883
101799.094
101798.238
101797.314
101796.32
101795.255
101794.116
101792.9
101791.603
101790.22
101788.745
101787.173
101785.494
101783.701
101781.782
101779.728
101777.524
101775.158
101772.612
101769.872
101766.917
101763.729
101760.287
101756.566
101752.545
101748.197
101743.497
101738.416
101732.927
101727.002
101720.609
101713.72
101706.306
101698.337
101689.781
101680.612
101670.807
101660.339
101649.155
101637.252
101624.653
101611.299
101597.148
101582.22
101566.504
101549.992
101532.684
101514.58
101495.689
101476.021
101455.592
101434.421
101412.533
101389.958
101366.73
101342.887
101318.47
101293.527
101268.108
101242.268
101216.064
101189.56
101162.816
101135.895
101108.867
101081.8
101054.767
101027.834
101001.073
100974.556
100948.351
100922.528
100897.154
100872.294
100848.011
100824.367
100801.418
100779.219
100757.822
100737.274
100717.618
100698.894
100681.138
100664.38
100648.649
100633.966
100620.351
100607.818
100596.378
100586.036
100576.795
100568.655
100561.609
100555.65
100550.766
100546.942
100544.161
100542.402
100541.642
100541.857
100543.019
100545.099
100548.067
100551.891
100556.536
100561.97
100568.154
100575.056
100582.639
100590.867
100599.696
100609.092
100619.029
100629.467
100640.347
100651.64
100663.357
100675.449
100687.798
100700.393
100713.375
100726.664
100739.914
100753.174
100767.037
100781.308
100794.821
100807.837
100822.492
100838.187
100850.943
100861.807
100878.001
100897.545
100907.244
100910.98
100932.479
100961.015
100962.592
100950.723
100983.971
101044.887
101026.107
100972.468
101033.389
101160.121
101120.07
101001.432
101074.406
101283.983
101256.411
101081.986
101138
101394.501
101380.314
101167.809
101207.641
101488.368
101488.363
101261.576
101276.008
101561.223
101576.398
101343.018
101340.417
101629.118
101651.075
101411.616
101410.315
101690.186
101710.376
101471.539
101472.224
101744.102
101763.582
101528.401
101529.554
101793.487
101812.78
101581.954
101582.064
101837.825
101856.619
101629.812
101628.373
101877.008
101896.069
101673.384
101669.898
101911.901
101931.45
101712.327
101706.581
101942.971
101961.775
101744.445
101737.157
101968.889
101986.803
101771.153
101762.205
101989.526
102006.989
101793.282
101782.983
102006.332
102023.717
101812.484
101801.243
102020.889
102037.98
101828.691
101816.02
102031.782
102048.301
101840.607
101826.525
102038.875
102055.104
101848.499
101832.664
102042.282
102058.823
101853.442
101835.836
102042.541
102059.416
101855.84
101836.909
102040.765
102058.047
101856.274
101836.26
102037.424
102054.477
101854.577
101834.192
102033.402
102050.042
101851.728
101831.658
102028.116
102044.19
101847.753
101828.197
102022.865
102038.878
101844.256
101824.72
102017.856
102033.896
101841.194
101821.216
102012.288
102028.925
101838.458
101818.182
102007.329
102024.515
101836.196
101815.588
102002.771
102020.301
101833.597
101813.359
101999.764
102015.897
101829.389
101810.543
101996.656
102011.206
101824.911
101807.555
101993.436
102006.43
101820.451
101804.789
101990.608
102002.195
101816.723
101802.84
101988.696
101999.004
101813.947
101801.815
101987.801
101996.905
101812.238
101801.693
101987.69
101995.576
101811.221
101801.855
101988.682
101996.545
101811.203
101801.964
101990.457
101998.643
101812.418
101803.462
101993.276
102001.532
101814.549
101805.936
101997.26
102005.698
101818.355
101810.697
102002.538
102010.877
101822.587
101815.263
102008.745
102016.958
101827.935
101820.782
102015.35
102024.014
101834.582
101827.625
102023.231
102032.323
101842.421
101835.549
102032.086
102041.559
101851.131
101844.277
102041.711
102051.548
101860.569
101853.737
102052.082
102062.253
101870.683
101863.87
102063.136
102073.655
101881.519
101874.776
102075.035
102085.959
101893.293
101886.682
102087.902
102099.17
101906.043
101899.636
102101.795
102113.37
101919.762
101913.521
102116.547
102128.38
101934.279
101928.179
102132.004
102144.082
101949.521
101943.544
102148.121
102160.462
101965.391
101959.411
102164.747
102177.334
101981.671
101975.597
102181.577
102194.258
101997.878
101991.626
102198.078
102210.606
102013.298
102006.715
102213.428
102225.525
102027.085
102020.047
102226.932
102238.559
102039.003
102031.545
102238.748
102250.272
102049.907
102042.146
102249.878
102261.832
102060.986
102052.722
102260.834
102273.163
102071.987
102062.81
102270.633
102282.834
102080.914
102071.665
102279.921
102290.499
102087.653
102080.083
102288.252
102297.587
102093.389
102085.121
102292.493
102299.987
102095.088
102086.155
102292.089
102299.767
102093.069
102082.824
102288.661
102295.256
102087.993
102077.581
102283.088
102288.411
102081.072
102071.326
102275.638
102280.175
102073.794
102066.504
102270.85
102273.427
102067.137
102056.644
102256.705
102258.52
102053.696
102042.468
102241.306
102243.201
102039.306
102027.899
102225.817
102227.702
102024.914
102014.299
102211.495
102212.345
102010.043
101999.986
102196.173
102196.024
101994.451
101985.66
102181.396
102180.164
101979.807
101973.538
102170.741
102165.758
101964.638
101958.22
102154.242
102148.555
101948.2
101942.213
102137.419
102131.493
101932.081
101926.477
102121.011
102115.087
101916.767
101911.74
102105.973
102100.486
101902.785
101897.939
102091.11
102084.882
101885.595
101883.968
102077.632
102072.106
101873.361
101871.902
102065.212
102059.433
101861.252
101860.034
102053.067
102047.222
101850.146
101849.28
102042.774
102038.17
101843.42
101838.553
102029.651
102027.375
101834.407
101829.772
102021.288
102020.275
101827.995
101822.975
102014.655
102014.722
101822.908
101817.218
102009.058
102010.206
101818.72
101812.4
102004.542
102007.038
101816.342
101810.415
102002.768
102006.367
101817.339
101810.483
102001.417
102005.728
101817.062
101809.577
102000.552
102005.716
101817.052
101808.751
101999.927
102006.023
101817.311
101808.412
102000.107
102007.217
101818.368
101808.912
102001.251
102009.364
101820.269
101810.27
102003.35
102012.451
101823.004
101812.474
102006.389
102016.463
101826.554
101815.497
102010.337
102021.367
101830.884
101819.295
102015.142
102027.114
101835.946
101823.81
102020.742
102033.647
101841.683
101828.977
102027.067
102040.897
101848.03
101834.719
102034.034
102048.791
101854.915
101840.951
102041.563
102057.268
101862.277
101847.604
102049.587
102066.269
101870.06
101854.607
102058.022
102075.71
101878.181
101861.846
102066.708
102085.41
101886.343
101868.781
102075.324
102095.128
101894.603
101876.549
102083.349
102102.911
101902.049
101884.232
102091.262
102110.611
101909.511
101892.062
102099.238
102118.225
101917.002
101900.024
102107.267
102125.81
101924.47
101907.991
102115.289
102133.358
101931.893
101915.928
102123.286
102140.857
101939.268
101923.842
102131.268
102148.325
101946.613
101931.757
102139.269
102155.798
101953.969
101939.721
102147.347
102163.34
101961.405
101947.817
102155.599
102171.055
101969.014
101956.105
102164.113
102179.072
101976.796
101964.511
102172.808
102187.261
101984.754
101973.136
102181.752
102195.678
101992.922
101981.98
102190.908
102204.267
102001.239
101990.98
102200.215
102212.98
102009.672
102000.106
102209.645
102221.795
102018.199
102009.336
102219.176
102230.693
102026.809
102018.663
102228.813
102239.699
102035.54
102028.139
102238.643
102248.908
102044.515
102037.961
102248.627
102258.023
102053.581
102047.997
102258.663
102267.08
102062.579
102057.927
102268.506
102275.901
102071.336
102067.559
102277.975
102284.309
102079.659
102076.743
102287.01
102292.237
102087.493
102085.57
102295.584
102299.88
102095.406
102093.669
102302.814
102306.516
102102.492
102101.007
102309.277
102312.36
102108.768
102107.493
102314.817
102317.213
102114.011
102112.889
102319.187
102320.827
102117.97
102116.94
102322.139
102322.959
102120.41
102119.421
102323.46
102323.408
102121.15
102120.139
102322.981
102322.074
102119.91
102118.69
102320.342
102318.556
102116.479
102115.042
102315.447
102312.71
102110.766
102109.242
102308.105
102304.237
102102.721
102100.588
102297.345
102292.606
102091.834
102088.527
102282.669
102277.447
102077.62
102072.829
102264.423
102259.206
102060.096
102053.328
102242.314
102237.295
102039.101
102030.163
102216.313
102211.634
102014.557
102003.27
102186.366
102182.173
101986.426
101972.646
102152.502
102148.951
101954.777
101938.403
102114.89
102112.155
101919.799
101900.766
102073.789
102072.021
101881.724
101860.005
102029.521
102028.865
101840.896
101816.531
101982.581
101983.185
101797.85
101770.966
101933.697
101935.708
101753.398
101724.274
101884.013
101887.593
101708.834
101677.885
101835.104
101840.313
101665.803
101633.626
101788.969
101795.791
101626.788
101594.093
101748.592
101755.795
101596.305
101561.538
101713.748
101722.178
101564.606
101529.196
101679.388
101689.021
101533.308
101497.217
101645.104
101655.712
101502.176
101464.703
101609.048
101621.933
101465.392
101429.769
101568.539
101582.293
101421.973
101383.747
101513.996
101531.881
101370.884
101332.353
101458.211
101479.856
101320.339
101282.989
101409.234
101434.306
101277.612
101241.82
101372.986
101400.36
101246.766
101212.513
101348.61
101376.972
101225.589
101192.637
101330.935
101360.185
101210.623
101178.643
101318.219
101348.458
101200.432
101169.127
101309.56
101340.81
101194.006
101163.132
101304.205
101336.498
101190.65
101159.993
101301.582
101334.932
101189.804
101159.193
101301.208
101335.606
101190.991
101160.289
101302.653
101338.074
101193.819
101162.956
101305.592
101341.997
101197.998
101166.954
101309.772
101347.055
101203.271
101172.08
101314.884
101352.872
101209.321
101178.081
101320.712
101359.229
101215.806
101184.526
101326.949
101365.986
101222.638
101191.351
101333.516
101373.056
101229.726
101198.469
101340.307
101380.334
101236.966
101205.789
101347.208
101387.704
101244.248
101213.203
101354.085
101395.027
101251.426
101220.564
101360.751
101402.105
101258.295
101227.641
101366.957
101408.667
101264.567
101234.112
101372.391
101414.385
101269.855
101239.637
101376.792
101419.258
101274.575
101244.485
101382.229
101424.845
101279.902
101250.049
101388.488
101431.249
101286.075
101256.547
101395.751
101438.637
101293.258
101264.093
101404.076
101447.058
101301.497
101272.69
101413.422
101456.459
101310.739
101282.258
101423.675
101466.717
101320.867
101292.666
101434.688
101477.672
101331.73
101303.739
101446.253
101489.113
101343.134
101315.298
101458.196
101500.855
101354.92
101327.229
101470.364
101512.736
101367.034
101339.329
101483.987
101525.243
101380.437
101352.137
101501.442
101539.387
101395.475
101367.629
101520.085
101558.128
101414.844
101388.491
101544.285
101582.507
101441.167
101414.912
101574.942
101611.201
101474.398
101447.155
101609.952
101644.457
101505.135
101478.693
101644.153
101676.697
101534.954
101509.496
101677.398
101707.782
101563.831
101539.004
101708.715
101736.864
101588.953
101564.292
101734.658
101761.181
101607.033
101583.214
101754.441
101779.523
101621.459
101598.146
101770.005
101793.804
101632.926
101609.874
101782.152
101804.811
101641.786
101618.786
101791.268
101812.91
101648.196
101625.05
101797.533
101818.27
101652.229
101628.75
101801.031
101820.99
101653.953
101629.936
101801.807
101821.126
101653.402
101628.687
101799.992
101818.788
101650.668
101625.127
101795.74
101814.139
101645.926
101619.469
101789.311
101807.442
101639.457
101612.046
101781.097
101799.092
101631.67
101603.325
101771.619
101789.593
101623.086
101593.887
101761.489
101779.509
101614.229
101584.274
101751.285
101769.39
101605.596
101574.987
101741.513
101759.692
101597.584
101566.373
101732.498
101750.591
101590.524
101558.475
101724.017
101741.961
101583.423
101550.28
101714.851
101732.956
101574.519
101540.525
101704.139
101722.575
101564.405
101529.505
101692.048
101710.955
101553.199
101517.314
101678.649
101698.149
101540.945
101503.998
101663.972
101684.177
101527.665
101489.609
101648.083
101669.096
101513.441
101474.254