/*--------------------------------*- C++ -*----------------------------------*\
| =========                 |                                                 |
| \\      /  F ield         | OpenFOAM: The Open Source CFD Toolbox           |
|  \\    /   O peration     | Version:  2306                                  |
|   \\  /    A nd           | Website:  www.openfoam.com                      |
|    \\/     M anipulation  |                                                 |
\*---------------------------------------------------------------------------*/
FoamFile
{
    version     2.0;
    format      ascii;
    arch        "LSB;label=32;scalar=64";
    class       volScalarField;
    location    "0.00016";
    object      prefDZ_H2O;
}
// * * * * * * * * * * * * * * * * * * * * * * * * * * * * * * * * * * * * * //

dimensions      [1 -1 -1 0 0 0 0];

internalField   nonuniform List<scalar> 
3801
(
-7.78050875e-07
-7.73623258e-07
-7.74805053e-07
-7.39085325e-07
-7.35360806e-07
-7.76951489e-07
-7.74372993e-07
-7.39963766e-07
-7.35692872e-07
-7.34874387e-07
-7.34720596e-07
-7.76866962e-07
-7.7418792e-07
-7.38582615e-07
-7.36595148e-07
-7.76523591e-07
-7.74043768e-07
-7.37629744e-07
-7.35454191e-07
-7.76119369e-07
-7.74691754e-07
-7.37322627e-07
-7.31905386e-07
-7.33569974e-07
-7.74933612e-07
-7.74871623e-07
-7.38135744e-07
-7.32232132e-07
-7.36710458e-07
-7.74680375e-07
-7.73791872e-07
-7.73611748e-07
-7.73890192e-07
-7.40680333e-07
-7.35770564e-07
-7.37999349e-07
-7.36552253e-07
-7.46837124e-07
-7.73984284e-07
-7.74406641e-07
-7.35281768e-07
-7.35189589e-07
-7.37637268e-07
-7.46597488e-07
-7.73489691e-07
-7.75189541e-07
-7.36709185e-07
-7.37947312e-07
-7.73674685e-07
-7.7588155e-07
-7.36093431e-07
-7.3865068e-07
-7.73736308e-07
-7.75859835e-07
-7.35960264e-07
-7.36282542e-07
-7.38993908e-07
-7.50097701e-07
-7.72904102e-07
-7.7536266e-07
-7.3829479e-07
-7.39951703e-07
-7.73228035e-07
-7.75320255e-07
-7.37737439e-07
-7.3941704e-07
-7.73463966e-07
-7.75177777e-07
-7.37381398e-07
-7.38757239e-07
-7.74012536e-07
-7.75363116e-07
-7.35382104e-07
-7.54790381e-07
-7.7524814e-07
-7.38881482e-07
-7.38850582e-07
-7.74371844e-07
-7.75162513e-07
-7.33538634e-07
-7.3277352e-07
-7.35792994e-07
-7.36020198e-07
-7.35604904e-07
-7.37772162e-07
-7.74315774e-07
-7.73448176e-07
-7.38266112e-07
-7.38701621e-07
-7.74472684e-07
-7.72843514e-07
-7.74598002e-07
-7.37982738e-07
-7.36962781e-07
-7.73432347e-07
-7.73894196e-07
-7.36209848e-07
-7.3731906e-07
-7.73490514e-07
-7.73919384e-07
-7.36952769e-07
-7.34935845e-07
-7.35068487e-07
-7.37096126e-07
-7.73924259e-07
-7.7346625e-07
-7.36179068e-07
-7.36665734e-07
-7.73746318e-07
-7.73289611e-07
-7.36455655e-07
-7.37555952e-07
-7.74246875e-07
-7.72731371e-07
-7.74606928e-07
-7.42251957e-07
-7.3400971e-07
-7.35910173e-07
-7.3553216e-07
-7.34186413e-07
-7.36239698e-07
-7.74055529e-07
-7.73564953e-07
-7.366781e-07
-7.36637854e-07
-7.73798177e-07
-7.73392325e-07
-7.37018103e-07
-7.36628926e-07
-7.73968717e-07
-7.73423008e-07
-7.36925034e-07
-7.36469032e-07
-7.7408192e-07
-7.73538081e-07
-7.37242302e-07
-7.36485103e-07
-7.73937796e-07
-7.73975827e-07
-7.39156323e-07
-7.3521489e-07
-7.34182815e-07
-7.35699575e-07
-7.75900074e-07
-7.74449533e-07
-7.75522413e-07
-7.74695067e-07
-7.60804656e-07
-7.33320061e-07
-7.34199153e-07
-7.75098884e-07
-7.74179653e-07
-7.41043914e-07
-7.36955802e-07
-7.71632242e-07
-7.74057459e-07
-7.5217957e-07
-7.35906155e-07
-7.36262131e-07
-7.35704641e-07
-7.35658243e-07
-7.64861071e-07
-7.73945243e-07
-7.5258468e-07
-7.36951845e-07
-7.57189289e-07
-7.74080306e-07
-7.53291102e-07
-7.35180092e-07
-7.35381523e-07
-7.35726346e-07
-7.58942265e-07
-7.74069395e-07
-7.73649731e-07
-7.73833421e-07
-7.53182534e-07
-7.36721099e-07
-7.53780879e-07
-7.74081914e-07
-7.56741394e-07
-7.35275836e-07
-7.3558674e-07
-7.3650613e-07
-7.57821618e-07
-7.73874418e-07
-7.51639646e-07
-7.36631612e-07
-7.60297258e-07
-7.74068739e-07
-7.49250216e-07
-7.36953269e-07
-7.62675326e-07
-7.74824987e-07
-7.4827463e-07
-7.3463749e-07
-7.35158961e-07
-7.36770107e-07
-7.66317572e-07
-7.7544656e-07
-7.43753171e-07
-7.37199413e-07
-7.70774078e-07
-7.75914316e-07
-7.42702816e-07
-7.37752565e-07
-7.73244487e-07
-7.7644207e-07
-7.41839831e-07
-7.37999473e-07
-7.74388252e-07
-7.76957391e-07
-7.41580735e-07
-7.38324002e-07
-7.74791948e-07
-7.773791e-07
-7.41909475e-07
-7.38744585e-07
-7.7468713e-07
-7.77716588e-07
-7.42424067e-07
-7.39917824e-07
-7.64016353e-07
-7.57516718e-07
-7.41198698e-07
-7.62175609e-07
-7.77117776e-07
-7.47352434e-07
-7.35393128e-07
-7.36167849e-07
-7.38585325e-07
-7.64649969e-07
-7.76859219e-07
-7.50869631e-07
-7.3920189e-07
-7.60031527e-07
-7.75044458e-07
-7.62470597e-07
-7.36320715e-07
-7.37694871e-07
-7.59294662e-07
-7.74064105e-07
-7.79021529e-07
-7.37513387e-07
-7.37436583e-07
-7.52818479e-07
-7.73988141e-07
-7.74992264e-07
-7.40259824e-07
-7.49303601e-07
-7.72805359e-07
-7.77226145e-07
-7.38945293e-07
-7.37738948e-07
-7.37819403e-07
-7.36971217e-07
-7.36937224e-07
-7.35924453e-07
-7.42496275e-07
-7.73173235e-07
-7.75938086e-07
-7.39125789e-07
-7.35352203e-07
-7.41027327e-07
-7.73756963e-07
-7.7681491e-07
-7.37344024e-07
-7.39149172e-07
-7.73173261e-07
-7.7643362e-07
-7.36686727e-07
-7.38082787e-07
-7.73039052e-07
-7.75309429e-07
-7.36496818e-07
-7.33471592e-07
-7.36522088e-07
-7.74161342e-07
-7.75311311e-07
-7.35741349e-07
-7.36404472e-07
-7.73473275e-07
-7.74997476e-07
-7.36138627e-07
-7.36837672e-07
-7.72976894e-07
-7.73971373e-07
-7.3803371e-07
-7.36828936e-07
-7.37219355e-07
-7.37408067e-07
-7.73011191e-07
-7.73650051e-07
-7.38009554e-07
-7.38070507e-07
-7.73090543e-07
-7.7372255e-07
-7.3694685e-07
-7.39053663e-07
-7.73880807e-07
-7.51384445e-07
-7.344711e-07
-7.35421534e-07
-7.34620303e-07
-7.32679168e-07
-7.34764797e-07
-7.74843569e-07
-7.73828219e-07
-7.75142628e-07
-7.73450948e-07
-7.7549954e-07
-7.3742432e-07
-7.33307713e-07
-7.35717407e-07
-7.74336204e-07
-7.74733825e-07
-7.36778323e-07
-7.36599018e-07
-7.737733e-07
-7.74703832e-07
-7.36703174e-07
-7.37069064e-07
-7.73721231e-07
-7.74741995e-07
-7.3631566e-07
-7.37224606e-07
-7.73712647e-07
-7.73796625e-07
-7.73701529e-07
-7.74488641e-07
-7.36473278e-07
-7.35289259e-07
-7.36100117e-07
-7.35660516e-07
-7.35529544e-07
-7.3667317e-07
-7.7374888e-07
-7.74822637e-07
-7.36330982e-07
-7.37104678e-07
-7.73527516e-07
-7.74711134e-07
-7.36432892e-07
-7.37290987e-07
-7.73464943e-07
-7.74657515e-07
-7.36236977e-07
-7.37324572e-07
-7.73531823e-07
-7.74607654e-07
-7.35450225e-07
-7.34334695e-07
-7.37362498e-07
-7.74296215e-07
-7.73876016e-07
-7.3589162e-07
-7.3832767e-07
-7.74610724e-07
-7.73316301e-07
-7.7475512e-07
-7.36864686e-07
-7.36407003e-07
-7.73888874e-07
-7.7450625e-07
-7.36176585e-07
-7.36624625e-07
-7.74105764e-07
-7.74399681e-07
-7.35752863e-07
-7.36432943e-07
-7.74355165e-07
-7.74364469e-07
-7.34531497e-07
-7.34460163e-07
-7.3496508e-07
-7.37426767e-07
-7.74540699e-07
-7.74132598e-07
-7.35037806e-07
-7.34991485e-07
-7.3515363e-07
-7.37715793e-07
-7.74212429e-07
-7.74416194e-07
-7.35754094e-07
-7.32427607e-07
-7.39894617e-07
-7.75442088e-07
-7.73092008e-07
-7.74814856e-07
-7.37278208e-07
-7.35278674e-07
-7.74270031e-07
-7.74070765e-07
-7.3628717e-07
-7.36033591e-07
-7.74574259e-07
-7.74086852e-07
-7.35437928e-07
-7.34768657e-07
-7.35536007e-07
-7.37568854e-07
-7.74300623e-07
-7.73479204e-07
-7.36774792e-07
-7.36006965e-07
-7.74459212e-07
-7.74077755e-07
-7.35924357e-07
-7.34555601e-07
-7.35135195e-07
-7.40332376e-07
-7.7462352e-07
-7.73576767e-07
-7.74367991e-07
-7.7401305e-07
-7.37150565e-07
-7.36348463e-07
-7.75484792e-07
-7.73613621e-07
-7.75426726e-07
-7.38258916e-07
-7.35551248e-07
-7.74372597e-07
-7.75535787e-07
-7.36142629e-07
-7.32755138e-07
-7.38640536e-07
-7.74792871e-07
-7.7344174e-07
-7.37684264e-07
-7.36388607e-07
-7.74590043e-07
-7.7607323e-07
-7.35730873e-07
-7.33204381e-07
-7.40656099e-07
-7.74730012e-07
-7.72888278e-07
-7.37833714e-07
-7.37990105e-07
-7.74551223e-07
-7.62850852e-07
-7.34276613e-07
-7.34316169e-07
-7.60891031e-07
-7.76540841e-07
-7.7418004e-07
-7.76863179e-07
-7.3695419e-07
-7.36011189e-07
-7.75407839e-07
-7.74110397e-07
-7.37342879e-07
-7.36604384e-07
-7.7550865e-07
-7.73290693e-07
-7.38000698e-07
-7.4211795e-07
-7.74871616e-07
-7.73074262e-07
-7.73782828e-07
-7.56632514e-07
-7.34067469e-07
-7.34127467e-07
-7.35301284e-07
-7.3538304e-07
-7.36317839e-07
-7.36452855e-07
-7.37555507e-07
-7.37408503e-07
-7.46841266e-07
-7.75215449e-07
-7.74838651e-07
-7.35635433e-07
-7.32459273e-07
-7.46682839e-07
-7.75817562e-07
-7.74337668e-07
-7.37153869e-07
-7.37189038e-07
-7.76599009e-07
-7.77261396e-07
-7.3282628e-07
-7.33260443e-07
-7.77895995e-07
-7.74247906e-07
-7.76444964e-07
-7.73546313e-07
-7.74912913e-07
-7.45812976e-07
-7.35679522e-07
-7.41209531e-07
-7.75341648e-07
-7.76852593e-07
-7.34040491e-07
-7.3275854e-07
-7.36808876e-07
-7.44163501e-07
-7.74638313e-07
-7.76202607e-07
-7.34049077e-07
-7.32288072e-07
-7.48936225e-07
-7.74822641e-07
-7.73684882e-07
-7.36764841e-07
-7.41854293e-07
-7.74239822e-07
-7.75736132e-07
-7.74140911e-07
-7.77187948e-07
-7.35904818e-07
-7.36872644e-07
-7.74379692e-07
-7.75370883e-07
-7.33836068e-07
-7.3306597e-07
-7.47987867e-07
-7.74731539e-07
-7.74152801e-07
-7.35683404e-07
-7.37513073e-07
-7.74458337e-07
-7.74712496e-07
-7.33759086e-07
-7.33451342e-07
-7.47294019e-07
-7.74443871e-07
-7.74104773e-07
-7.36153567e-07
-7.37348867e-07
-7.73985304e-07
-7.74393899e-07
-7.35941555e-07
-7.36985316e-07
-7.7410226e-07
-7.73985408e-07
-7.3434687e-07
-7.42690856e-07
-7.74672823e-07
-7.37340789e-07
-7.34677854e-07
-7.36748862e-07
-7.39819823e-07
-7.74000527e-07
-7.74082413e-07
-7.34371448e-07
-7.34550401e-07
-7.35775729e-07
-7.39601716e-07
-7.73677735e-07
-7.73364748e-07
-7.36174397e-07
-7.36814739e-07
-7.73621307e-07
-7.73776702e-07
-7.36115698e-07
-7.3648617e-07
-7.73582547e-07
-7.73922424e-07
-7.36021172e-07
-7.36440919e-07
-7.73579847e-07
-7.7406659e-07
-7.35928716e-07
-7.36435955e-07
-7.73550681e-07
-7.74306489e-07
-7.35880492e-07
-7.36290653e-07
-7.73414171e-07
-7.74485358e-07
-7.36302061e-07
-7.34436072e-07
-7.3835582e-07
-7.73685693e-07
-7.74002951e-07
-7.37588288e-07
-7.35724515e-07
-7.43703652e-07
-7.73627864e-07
-7.73530992e-07
-7.73531899e-07
-7.75136679e-07
-7.36717278e-07
-7.34197497e-07
-7.36757724e-07
-7.34941665e-07
-7.38421983e-07
-7.73961197e-07
-7.74050808e-07
-7.73962275e-07
-7.76641058e-07
-7.3626224e-07
-7.36926175e-07
-7.73839869e-07
-7.75804604e-07
-7.36552197e-07
-7.35198072e-07
-7.34959954e-07
-7.39067897e-07
-7.73916647e-07
-7.75880652e-07
-7.3841403e-07
-7.34269705e-07
-7.39246737e-07
-7.75290998e-07
-7.74474391e-07
-7.45979605e-07
-7.37568094e-07
-7.58283704e-07
-7.75164887e-07
-7.44692238e-07
-7.36525992e-07
-7.7572029e-07
-7.78998897e-07
-7.32995779e-07
-7.35174177e-07
-7.76489208e-07
-7.75811581e-07
-7.41358032e-07
-7.35414576e-07
-7.36528363e-07
-7.36200638e-07
-7.36456121e-07
-7.36671786e-07
-7.36303106e-07
-7.3795399e-07
-7.74564728e-07
-7.73197845e-07
-7.7588811e-07
-7.52246839e-07
-7.37334357e-07
-7.57554937e-07
-7.74341701e-07
-7.49104859e-07
-7.37298453e-07
-7.68140125e-07
-7.74448126e-07
-7.42436514e-07
-7.37193379e-07
-7.79662413e-07
-7.74420424e-07
-7.39502576e-07
-7.37343576e-07
-7.75489739e-07
-7.74151258e-07
-7.4001048e-07
-7.38812622e-07
-7.63799372e-07
-7.51714174e-07
-7.37621912e-07
-7.72736154e-07
-7.77934918e-07
-7.3375466e-07
-7.35798335e-07
-7.75353662e-07
-7.76127738e-07
-7.39478877e-07
-7.33395788e-07
-7.38356695e-07
-7.76251062e-07
-7.74770596e-07
-7.75122362e-07
-7.76548852e-07
-7.40832558e-07
-7.33021563e-07
-7.37410617e-07
-7.76566295e-07
-7.75335479e-07
-7.38700001e-07
-7.37449479e-07
-7.77421124e-07
-7.76219216e-07
-7.39221336e-07
-7.33781525e-07
-7.38816319e-07
-7.79090196e-07
-7.73576244e-07
-7.77066442e-07
-7.73569698e-07
-7.7792069e-07
-7.41400662e-07
-7.34624215e-07
-7.35598077e-07
-7.3590033e-07
-7.35791091e-07
-7.38519786e-07
-7.75563131e-07
-7.77123793e-07
-7.41630275e-07
-7.34642678e-07
-7.38312514e-07
-7.76967862e-07
-7.76994107e-07
-7.43379998e-07
-7.38963099e-07
-7.71415967e-07
-7.77199557e-07
-7.44751057e-07
-7.35532701e-07
-7.3990442e-07
-7.77192917e-07
-7.74371823e-07
-7.75207384e-07
-7.77308847e-07
-7.48797109e-07
-7.40026142e-07
-7.64257184e-07
-7.76796511e-07
-7.48607811e-07
-7.35657493e-07
-7.36231714e-07
-7.38277446e-07
-7.5858234e-07
-7.75352142e-07
-7.59788576e-07
-7.35487385e-07
-7.3591686e-07
-7.3686846e-07
-7.37093217e-07
-7.51255826e-07
-7.74778126e-07
-7.68965794e-07
-7.37400404e-07
-7.44870566e-07
-7.74082055e-07
-7.74415885e-07
-7.36654284e-07
-7.4445894e-07
-7.73317164e-07
-7.74157983e-07
-7.73442155e-07
-7.77504173e-07
-7.36082152e-07
-7.35431099e-07
-7.36156824e-07
-7.35051887e-07
-7.34726709e-07
-7.37660348e-07
-7.73905371e-07
-7.77149105e-07
-7.35929707e-07
-7.37381843e-07
-7.73535221e-07
-7.76001014e-07
-7.36494865e-07
-7.37692972e-07
-7.73406302e-07
-7.75146136e-07
-7.36666111e-07
-7.37650723e-07
-7.73616632e-07
-7.74553877e-07
-7.3524396e-07
-7.3535699e-07
-7.33751416e-07
-7.3681224e-07
-7.74363286e-07
-7.73547945e-07
-7.74465447e-07
-7.3704913e-07
-7.36197689e-07
-7.73319267e-07
-7.74012469e-07
-7.37521303e-07
-7.37725737e-07
-7.72850174e-07
-7.73990186e-07
-7.38971049e-07
-7.3639043e-07
-7.37978444e-07
-7.73524575e-07
-7.73568456e-07
-7.37798244e-07
-7.378588e-07
-7.7313537e-07
-7.73626836e-07
-7.37307673e-07
-7.37463272e-07
-7.72905807e-07
-7.74310886e-07
-7.37430562e-07
-7.34546912e-07
-7.37706364e-07
-7.73748677e-07
-7.7311556e-07
-7.74428019e-07
-7.36575596e-07
-7.36669591e-07
-7.7334042e-07
-7.7481208e-07
-7.36027836e-07
-7.34387754e-07
-7.35671953e-07
-7.3399222e-07
-7.36425839e-07
-7.74131119e-07
-7.7558427e-07
-7.35811448e-07
-7.36682326e-07
-7.73638684e-07
-7.75283725e-07
-7.36009869e-07
-7.33677157e-07
-7.38146946e-07
-7.74052285e-07
-7.73308495e-07
-7.76002449e-07
-7.36780056e-07
-7.37247329e-07
-7.73734941e-07
-7.75413105e-07
-7.35124114e-07
-7.35154834e-07
-7.34730283e-07
-7.37980064e-07
-7.74319167e-07
-7.73387097e-07
-7.75626754e-07
-7.36628439e-07
-7.33985409e-07
-7.38163281e-07
-7.74177839e-07
-7.75192772e-07
-7.36287346e-07
-7.37118685e-07
-7.73756915e-07
-7.74663097e-07
-7.35513473e-07
-7.34736361e-07
-7.37229572e-07
-7.73984095e-07
-7.74351306e-07
-7.35748763e-07
-7.34362916e-07
-7.37210472e-07
-7.74012141e-07
-7.74086387e-07
-7.36405344e-07
-7.36664118e-07
-7.73532808e-07
-7.74097103e-07
-7.36355265e-07
-7.36677679e-07
-7.73534252e-07
-7.73986352e-07
-7.36104565e-07
-7.36273402e-07
-7.7374028e-07
-7.73985815e-07
-7.35036766e-07
-7.35450362e-07
-7.7374963e-07
-7.73823742e-07
-7.36088115e-07
-7.35883134e-07
-7.36315887e-07
-7.36807184e-07
-7.73497035e-07
-7.7352583e-07
-7.35783371e-07
-7.35862109e-07
-7.73607462e-07
-7.73653675e-07
-7.35110943e-07
-7.35361843e-07
-7.73214115e-07
-7.73551373e-07
-7.43436615e-07
-7.3539164e-07
-7.36754046e-07
-7.7395601e-07
-7.72816681e-07
-7.36249681e-07
-7.35513799e-07
-7.74343893e-07
-7.73191405e-07
-7.35587992e-07
-7.34965534e-07
-7.74540758e-07
-7.73345596e-07
-7.3467029e-07
-7.34668369e-07
-7.7450841e-07
-7.72936881e-07
-7.74533987e-07
-7.37507737e-07
-7.31531534e-07
-7.35111315e-07
-7.74048827e-07
-7.73656274e-07
-7.35975312e-07
-7.32421091e-07
-7.35215085e-07
-7.74117592e-07
-7.73412689e-07
-7.33604484e-07
-7.32372124e-07
-7.73568832e-07
-7.74038298e-07
-7.37183557e-07
-7.32293417e-07
-7.3409924e-07
-7.74082496e-07
-7.72876339e-07
-7.35655777e-07
-7.34348109e-07
-7.74691737e-07
-7.72769947e-07
-7.35100032e-07
-7.33622335e-07
-7.75643636e-07
-7.72923605e-07
-7.3467819e-07
-7.32797981e-07
-7.76747017e-07
-7.73247163e-07
-7.34565196e-07
-7.31578366e-07
-7.77487145e-07
-7.74210724e-07
-7.36002264e-07
-7.27594674e-07
-7.28116131e-07
-7.7821596e-07
-7.74458283e-07
-7.75608518e-07
-7.74320764e-07
-7.73977488e-07
-7.74129115e-07
-7.32485559e-07
-7.27065019e-07
-7.77720605e-07
-7.74586127e-07
-7.34059424e-07
-7.25944319e-07
-7.27344007e-07
-7.75311903e-07
-7.7370635e-07
-7.32085938e-07
-7.29693148e-07
-7.74510371e-07
-7.73284727e-07
-7.31043188e-07
-7.29403971e-07
-7.73243338e-07
-7.7336077e-07
-7.30648333e-07
-7.29639499e-07
-7.7309013e-07
-7.71595768e-07
-7.74178492e-07
-7.71402755e-07
-7.73114301e-07
-7.71060196e-07
-7.7200859e-07
-7.70675215e-07
-7.71121702e-07
-7.70283949e-07
-7.70476882e-07
-7.69886714e-07
-7.69954292e-07
-7.69485828e-07
-7.69475932e-07
-7.69062662e-07
-7.69000179e-07
-7.6860651e-07
-7.68508046e-07
-7.68112332e-07
-7.67993134e-07
-7.67578923e-07
-7.67455403e-07
-7.67007785e-07
-7.66898613e-07
-7.66402174e-07
-7.66330339e-07
-7.65765734e-07
-7.65762521e-07
-7.65100887e-07
-7.65205694e-07
-7.644114e-07
-7.64640737e-07
-7.63707817e-07
-7.64029133e-07
-7.63021905e-07
-7.63093285e-07
-7.61248008e-07
-7.40812736e-07
-7.40646885e-07
-7.79959883e-07
-7.77785925e-07
-7.22519472e-07
-7.14642026e-07
-7.24576495e-07
-7.61052909e-07
-7.74648301e-07
-6.88247282e-07
-6.84838506e-07
-7.61155025e-07
-7.40155547e-07
-7.2175204e-07
-7.35100676e-07
-7.10399497e-07
-7.1362461e-07
-7.48643786e-07
-7.30454975e-07
-7.05963226e-07
-7.16947643e-07
-7.42475641e-07
-7.20040713e-07
-7.07692282e-07
-7.15128662e-07
-7.25076862e-07
-7.03769446e-07
-7.01152256e-07
-7.11359101e-07
-7.20174214e-07
-6.84049268e-07
-6.72073851e-07
-7.00554408e-07
-7.20657298e-07
-6.76963183e-07
-6.96870256e-07
-7.04895437e-07
-7.02185382e-07
-6.72696758e-07
-6.90325159e-07
-6.71266069e-07
-6.94440697e-07
-6.66713529e-07
-6.84049857e-07
-6.57843085e-07
-6.81316461e-07
-6.58214651e-07
-6.70317108e-07
-6.53600881e-07
-6.58540499e-07
-6.53293186e-07
-6.78022287e-07
-6.4248599e-07
-6.40007447e-07
-6.28810726e-07
-7.05346407e-07
-6.56442851e-07
-6.1332137e-07
-6.44731824e-07
-6.49237997e-07
-6.3876116e-07
-6.25215157e-07
-6.22078556e-07
-6.30331113e-07
-6.33436078e-07
-6.19874265e-07
-7.02989249e-07
-6.75052484e-07
-6.09148056e-07
-6.02743992e-07
-6.25939977e-07
-5.91872718e-07
-6.31696819e-07
-5.768941e-07
-5.81709538e-07
-5.70396319e-07
-5.73164035e-07
-5.41478762e-07
-5.50192955e-07
-5.4741575e-07
-5.35433098e-07
-5.24367023e-07
-5.23654001e-07
-5.11364647e-07
-5.04254746e-07
-4.86303111e-07
-4.77728059e-07
-4.6429777e-07
-4.46542304e-07
-4.23975468e-07
-4.08355352e-07
-3.87667952e-07
-3.71741166e-07
-3.51586002e-07
-3.32681233e-07
-3.09077905e-07
-2.89819028e-07
-2.69113376e-07
-2.51153669e-07
-2.31484985e-07
-2.13140159e-07
-1.93768326e-07
-1.74671567e-07
-1.54753263e-07
-1.34462208e-07
-1.13988228e-07
-9.27656206e-08
-7.22290258e-08
-5.06765081e-08
-3.02609316e-08
-8.57140636e-09
1.17252478e-08
3.31132533e-08
5.30439766e-08
7.40213261e-08
9.37071635e-08
1.14198173e-07
1.33904614e-07
1.53534905e-07
1.72643453e-07
1.92037893e-07
2.10708022e-07
2.29643308e-07
2.47987639e-07
2.66606156e-07
2.84629976e-07
3.02741649e-07
3.19919876e-07
3.37401316e-07
3.54129587e-07
3.71481107e-07
3.87279157e-07
4.03735858e-07
4.18242355e-07
4.33858632e-07
4.47123318e-07
4.62011721e-07
4.74289821e-07
4.88741092e-07
5.00261383e-07
5.14364353e-07
5.25218677e-07
5.38986551e-07
5.49200122e-07
5.62634222e-07
5.72290766e-07
5.85411937e-07
5.94562379e-07
6.07310346e-07
6.16013387e-07
6.28274564e-07
6.3661795e-07
6.48202473e-07
6.56332755e-07
6.66983653e-07
6.75135619e-07
6.84552011e-07
6.93816836e-07
7.02362493e-07
7.12765887e-07
7.19699996e-07
7.32126967e-07
7.34558302e-07
7.49231618e-07
7.53357367e-07
7.73688929e-07
7.5480135e-07
7.74614904e-07
7.97594929e-07
8.38879331e-07
7.39665772e-07
7.48975388e-07
8.55477247e-07
9.41377852e-07
6.90080086e-07
6.95777293e-07
9.38841412e-07
1.01863894e-06
6.80300969e-07
6.90216782e-07
1.03172113e-06
1.10405488e-06
6.99300296e-07
7.00335562e-07
1.11769379e-06
1.17760347e-06
7.32860742e-07
7.16038829e-07
1.18811785e-06
1.30579965e-06
8.28768899e-07
7.53271834e-07
1.33568597e-06
1.34752914e-06
9.42063818e-07
8.40972152e-07
1.36134497e-06
1.38352355e-06
1.0740406e-06
9.43147063e-07
1.37163791e-06
1.43149156e-06
1.16088857e-06
1.08000495e-06
1.39809572e-06
1.42949061e-06
1.25802012e-06
1.16636277e-06
1.40901859e-06
1.41972165e-06
1.31661591e-06
1.28362359e-06
1.42710726e-06
1.42862302e-06
1.3766888e-06
1.35509742e-06
1.43875449e-06
1.4423952e-06
1.42812586e-06
1.42145157e-06
1.44525035e-06
1.44567695e-06
1.45808598e-06
1.46180622e-06
1.46866357e-06
1.47323693e-06
1.47922831e-06
1.48459208e-06
1.48979191e-06
1.49553501e-06
1.50053463e-06
1.50648197e-06
1.51146068e-06
1.51744676e-06
1.52253411e-06
1.52859447e-06
1.53384906e-06
1.53979586e-06
1.54627872e-06
1.55251211e-06
1.5593387e-06
1.56769755e-06
1.57442376e-06
1.57812312e-06
1.58601505e-06
1.59687717e-06
1.60345359e-06
1.60229281e-06
1.61145479e-06
1.62894461e-06
1.63477544e-06
1.62348688e-06
1.63464411e-06
1.66554113e-06
1.66936291e-06
1.6398601e-06
1.65456936e-06
1.70759765e-06
1.70748252e-06
1.65190881e-06
1.6715431e-06
1.75282583e-06
1.74678072e-06
1.66227265e-06
1.68959339e-06
1.79540948e-06
1.7818319e-06
1.67374861e-06
1.71055571e-06
1.83256756e-06
1.81064412e-06
1.68819897e-06
1.73484691e-06
1.86506159e-06
1.83290447e-06
1.70588799e-06
1.76129163e-06
1.89343985e-06
1.84811854e-06
1.72413038e-06
1.78890512e-06
1.91705092e-06
1.85872845e-06
1.74244913e-06
1.8156255e-06
1.93470005e-06
1.86651928e-06
1.75963252e-06
1.84032577e-06
1.94577892e-06
1.87243105e-06
1.77534028e-06
1.86296924e-06
1.95406154e-06
1.87689256e-06
1.78993448e-06
1.88303817e-06
1.96058715e-06
1.88051074e-06
1.80410067e-06
1.90034013e-06
1.96535341e-06
1.88384011e-06
1.81898008e-06
1.91468746e-06
1.96840028e-06
1.88788083e-06
1.83383194e-06
1.92530518e-06
1.96982198e-06
1.89419757e-06
1.84931589e-06
1.93173385e-06
1.9693596e-06
1.90323576e-06
1.86908878e-06
1.9345632e-06
1.96507715e-06
1.91410549e-06
1.89650359e-06
1.93610738e-06
1.95066064e-06
1.92510084e-06
1.91964207e-06
1.93809254e-06
1.94320585e-06
1.93533047e-06
1.93540947e-06
1.94161899e-06
1.94385769e-06
1.94417798e-06
1.94570157e-06
1.94827285e-06
1.95011358e-06
1.95189379e-06
1.95367829e-06
1.95571413e-06
1.95759964e-06
1.95958816e-06
1.96155086e-06
1.9635451e-06
1.96553946e-06
1.96748574e-06
1.96950173e-06
1.9714245e-06
1.97345302e-06
1.97533912e-06
1.97747829e-06
1.97946251e-06
1.98156188e-06
1.98326552e-06
1.98561206e-06
1.98799241e-06
1.98971431e-06
1.98835029e-06
1.99349398e-06
2.00121352e-06
1.99822785e-06
1.92805808e-06
2.00134793e-06
2.08341991e-06
2.00592416e-06
1.74969723e-06
2.01105483e-06
2.14787158e-06
2.0136119e-06
1.73562168e-06
2.02252723e-06
2.16043484e-06
2.02289495e-06
1.75961884e-06
2.03387709e-06
2.15941898e-06
2.03160749e-06
1.78747026e-06
2.04524479e-06
2.15648792e-06
2.03887974e-06
1.83311177e-06
2.0541955e-06
2.1470223e-06
2.04510541e-06
1.88832284e-06
2.06001288e-06
2.13417981e-06
2.0509549e-06
1.91756559e-06
2.06422506e-06
2.13126841e-06
2.05600172e-06
1.93198266e-06
2.06804419e-06
2.13327434e-06
2.06025061e-06
1.93475498e-06
2.07180858e-06
2.13782524e-06
2.06381763e-06
1.93081329e-06
2.07553027e-06
2.14279405e-06
2.06660374e-06
1.92592972e-06
2.07910243e-06
2.14662531e-06
2.06826142e-06
1.92270891e-06
2.08270518e-06
2.14915743e-06
2.06878455e-06
1.92250067e-06
2.08566876e-06
2.15063662e-06
2.06829319e-06
1.92356562e-06
2.08836248e-06
2.15176826e-06
2.06635556e-06
1.92460504e-06
2.0901716e-06
2.15285264e-06
2.06578125e-06
1.92455594e-06
2.08988685e-06
2.15397281e-06
2.0683038e-06
1.92172362e-06
2.08621357e-06
2.15580283e-06
2.07488146e-06
1.91868465e-06
2.07708264e-06
2.15917449e-06
2.09065209e-06
1.91543775e-06
2.04829283e-06
2.16106287e-06
2.12277166e-06
1.91697295e-06
2.00514316e-06
2.1611671e-06
2.13862012e-06
1.92233667e-06
1.99009491e-06
2.15952108e-06
2.1439337e-06
1.93159776e-06
1.98674374e-06
2.15634983e-06
2.1456881e-06
1.94545122e-06
1.98895449e-06
2.15332605e-06
2.1462807e-06
1.96249126e-06
1.99380497e-06
2.15063674e-06
2.14564802e-06
1.97475243e-06
2.00171822e-06
2.14787389e-06
2.14090085e-06
1.98591741e-06
2.01276876e-06
2.13811235e-06
2.12997597e-06
2.00382809e-06
2.02721984e-06
2.11721868e-06
2.11431738e-06
2.03007217e-06
2.04320559e-06
2.0979127e-06
2.10538255e-06
2.04822314e-06
2.05365586e-06
2.09155072e-06
2.10029034e-06
2.05681402e-06
2.05926878e-06
2.09090931e-06
2.09756303e-06
2.06221456e-06
2.06334672e-06
2.09108539e-06
2.09660571e-06
2.0659275e-06
2.06654699e-06
2.09212476e-06
2.09670711e-06
2.06883358e-06
2.06929294e-06
2.0934573e-06
2.09732079e-06
2.07154628e-06
2.07197263e-06
2.09458607e-06
2.09804463e-06
2.07486971e-06
2.07513472e-06
2.09489816e-06
2.09851212e-06
2.08041193e-06
2.07880914e-06
2.09397086e-06
2.09871208e-06
2.08613124e-06
2.08288952e-06
2.09279021e-06
2.09876832e-06
2.0910718e-06
2.08731362e-06
2.09297578e-06
2.09878718e-06
2.09458567e-06
2.09139872e-06
2.09436209e-06
2.09881672e-06
2.09697776e-06
2.09504913e-06
2.09648308e-06
2.09940315e-06
2.09880039e-06
2.0980604e-06
2.09868623e-06
2.1006094e-06
2.10051484e-06
2.10050983e-06
2.10084784e-06
2.10215915e-06
2.10228197e-06
2.10266766e-06
2.10290374e-06
2.10391306e-06
2.10409047e-06
2.1046944e-06
2.10488451e-06
2.10576428e-06
2.10593592e-06
2.10665751e-06
2.10681782e-06
2.10765544e-06
2.10784266e-06
2.10863062e-06
2.10881799e-06
2.10964051e-06
2.1098123e-06
2.11062826e-06
2.11078546e-06
2.1116152e-06
2.1117595e-06
2.11259149e-06
2.11272373e-06
2.11355817e-06
2.1136771e-06
2.11448227e-06
2.11459152e-06
2.11540188e-06
2.11550288e-06
2.11631698e-06
2.11641091e-06
2.11722838e-06
2.11731655e-06
2.11813653e-06
2.11822014e-06
2.11904207e-06
2.11912238e-06
2.11994559e-06
2.12002382e-06
2.12084772e-06
2.12092509e-06
2.12174907e-06
2.12182682e-06
2.1226503e-06
2.12272965e-06
2.12355205e-06
2.12363422e-06
2.12445497e-06
2.12454115e-06
2.12535971e-06
2.1254511e-06
2.12626692e-06
2.12636467e-06
2.12717722e-06
2.12728249e-06
2.12809123e-06
2.12820515e-06
2.12900956e-06
2.12913326e-06
2.12993279e-06
2.13006738e-06
2.13086147e-06
2.13100805e-06
2.1317665e-06
2.13192236e-06
2.13266789e-06
2.13283617e-06
2.13357535e-06
2.13375689e-06
2.13448925e-06
2.13468479e-06
2.13540992e-06
2.13562009e-06
2.13633766e-06
2.13656303e-06
2.13727275e-06
2.1375138e-06
2.13821544e-06
2.13847256e-06
2.13916596e-06
2.13943946e-06
2.14012449e-06
2.14041459e-06
2.14109119e-06
2.14139801e-06
2.14206618e-06
2.14238972e-06
2.14304952e-06
2.14338969e-06
2.14404122e-06
2.14439782e-06
2.14504127e-06
2.14541396e-06
2.14604955e-06
2.14643793e-06
2.14706591e-06
2.14746934e-06
2.14809009e-06
2.14850838e-06
2.14912174e-06
2.14953896e-06
2.15011726e-06
2.15054526e-06
2.15111458e-06
2.15155299e-06
2.15211716e-06
2.15257641e-06
2.153123e-06
2.15358063e-06
2.154135e-06
2.1546079e-06
2.15514943e-06
2.15562188e-06
2.15616827e-06
2.15664525e-06
2.15718995e-06
2.15766733e-06
2.15821014e-06
2.15868691e-06
2.15923086e-06
2.15970669e-06
2.16025298e-06
2.16072628e-06
2.16127571e-06
2.16174495e-06
2.16229845e-06
2.1627623e-06
2.16331994e-06
2.16377792e-06
2.1643383e-06
2.16479121e-06
2.16535867e-06
2.16580131e-06
2.16637199e-06
2.16680649e-06
2.16735491e-06
2.16776096e-06
2.16831266e-06
2.16870975e-06
2.16926479e-06
2.16965265e-06
2.17021047e-06
2.17058876e-06
2.17114853e-06
2.1715171e-06
2.17207803e-06
2.17243679e-06
2.17299798e-06
2.1733469e-06
2.17390736e-06
2.1742465e-06
2.17480517e-06
2.17513461e-06
2.17569038e-06
2.17601026e-06
2.17656197e-06
2.17687244e-06
2.1774189e-06
2.17772016e-06
2.17826016e-06
2.17855241e-06
2.17908465e-06
2.17936816e-06
2.17989131e-06
2.18016633e-06
2.18067896e-06
2.1809459e-06
2.18144642e-06
2.18170555e-06
2.18219231e-06
2.18244441e-06
2.18291516e-06
2.1831612e-06
2.18361299e-06
2.18384769e-06
2.18428382e-06
2.18449408e-06
2.18491656e-06
2.18511008e-06
2.18552113e-06
2.18568617e-06
2.18609193e-06
2.186234e-06
2.18663134e-06
2.18671566e-06
2.18712383e-06
2.18718533e-06
2.18758932e-06
2.18751604e-06
2.18797449e-06
2.18791983e-06
2.18836869e-06
2.18795895e-06
2.18858224e-06
2.18840381e-06
2.18895243e-06
2.18775823e-06
2.18881852e-06
2.18869108e-06
2.18936057e-06
2.18622893e-06
2.18838178e-06
2.18920231e-06
2.18972935e-06
2.18178008e-06
2.18655955e-06
2.19144439e-06
2.19060829e-06
2.17062964e-06
2.18180494e-06
2.19824718e-06
2.19340696e-06
2.14818762e-06
2.17089383e-06
2.20979301e-06
2.20032983e-06
2.12237707e-06
2.15138948e-06
2.21838293e-06
2.21010798e-06
2.10516277e-06
2.13143592e-06
2.22243064e-06
2.21755684e-06
2.09299991e-06
2.11744863e-06
2.22425441e-06
2.22165271e-06
2.08653069e-06
2.10685168e-06
2.2253381e-06
2.22422917e-06
2.08076251e-06
2.09931805e-06
2.22649959e-06
2.22610849e-06
2.07603268e-06
2.09616568e-06
2.22786895e-06
2.22741653e-06
2.07304347e-06
2.09395903e-06
2.2291782e-06
2.22865369e-06
2.07155961e-06
2.09241803e-06
2.23050456e-06
2.2299651e-06
2.07124858e-06
2.09150912e-06
2.23175931e-06
2.23135173e-06
2.07141312e-06
2.09170187e-06
2.2326413e-06
2.23274008e-06
2.07183851e-06
2.09275318e-06
2.23352227e-06
2.23422197e-06
2.07202375e-06
2.09449325e-06
2.23443109e-06
2.23565205e-06
2.07201583e-06
2.09652348e-06
2.2353542e-06
2.23690859e-06
2.07231393e-06
2.09834165e-06
2.23635415e-06
2.23800787e-06
2.07312206e-06
2.09989112e-06
2.23739395e-06
2.23913935e-06
2.07426686e-06
2.10138562e-06
2.23858264e-06
2.24030284e-06
2.0756098e-06
2.10273071e-06
2.23976694e-06
2.24145226e-06
2.0771535e-06
2.10392567e-06
2.24097271e-06
2.24256197e-06
2.07884033e-06
2.10513215e-06
2.24222231e-06
2.24371326e-06
2.08034702e-06
2.10658884e-06
2.24337421e-06
2.24484523e-06
2.0818901e-06
2.10777236e-06
2.24461246e-06
2.24591196e-06
2.08377218e-06
2.10916628e-06
2.24564996e-06
2.2471038e-06
2.08548819e-06
2.10992511e-06
2.2468529e-06
2.24811522e-06
2.08813243e-06
2.1112368e-06
2.24757872e-06
2.24925846e-06
2.09042616e-06
2.11163316e-06
2.24891013e-06
2.25034965e-06
2.0929276e-06
2.11193715e-06
2.25059048e-06
2.25162418e-06
2.09451243e-06
2.11325812e-06
2.25182177e-06
2.25280021e-06
2.09605392e-06
2.11466581e-06
2.25300124e-06
2.25397249e-06
2.09755452e-06
2.11605301e-06
2.25417057e-06
2.25511992e-06
2.09898222e-06
2.11737118e-06
2.25539238e-06
2.25624886e-06
2.1002304e-06
2.11860056e-06
2.256619e-06
2.25736513e-06
2.10153305e-06
2.11974474e-06
2.25781376e-06
2.25845622e-06
2.10289891e-06
2.12082505e-06
2.25898757e-06
2.25953791e-06
2.10424993e-06
2.1219155e-06
2.2601317e-06
2.2605864e-06
2.10553828e-06
2.12305473e-06
2.26124457e-06
2.2616053e-06
2.10677868e-06
2.12425965e-06
2.26233287e-06
2.26263203e-06