/*--------------------------------*- C++ -*----------------------------------*\
| =========                 |                                                 |
| \\      /  F ield         | OpenFOAM: The Open Source CFD Toolbox           |
|  \\    /   O peration     | Version:  2306                                  |
|   \\  /    A nd           | Website:  www.openfoam.com                      |
|    \\/     M anipulation  |                                                 |
\*---------------------------------------------------------------------------*/
FoamFile
{
    version     2.0;
    format      ascii;
    arch        "LSB;label=32;scalar=64";
    class       volScalarField;
    location    "0.00146";
    object      prefDh_H;
}
// * * * * * * * * * * * * * * * * * * * * * * * * * * * * * * * * * * * * * //

dimensions      [1 1 -3 0 0 0 0];

internalField   nonuniform List<scalar> 
530
(
23016.1422
23928.68
23917.8493
23920.6874
23413.5229
23129.6919
22990.7697
22992.1371
23921.57
23939.8803
23041.9275
22983.9034
23930.7129
23945.7493
22985.8034
23001.1272
23942.6623
23948.9496
23934.7485
23390.6741
22737.088
22820.1793
23924.3722
23947.2502
23934.612
23949.1754
23402.8119
23177.8848
23067.958
23071.3156
23914.7808
23945.2093
23168.9883
23185.4266
23931.9236
23932.3011
23927.3922
23342.2362
22955.6738
22888.5027
22915.0235
23914.5764
23910.3219
23916.4916
23233.888
22902.6943
23936.0668
23926.0435
23946.204
23939.2044
23401.0114
22984.3439
22936.9332
22921.1506
23939.6223
23933.7133
23390.0039
23099.2312
23100.8457
23941.8276
23932.4196
23382.977
22976.4915
23027.0234
23929.5679
23958.533
23938.4974
23381.1653
22961.5025
22973.498
23930.966
23961.3834
23228.5591
23195.2467
23934.5027
23956.6767
23945.4851
23383.9181
23184.9135
23062.5342
23052.5158
23940.4891
23935.5769
23371.4428
22917.311
22928.6324
23903.8706
23949.0534
23265.7889
23178.6338
23854.1045
23936.5925
23840.5723
23238.3268
22925.3401
22799.1749
22808.9114
23917.3309
23936.3709
23943.3762
23949.4455
23387.6055
23165.9276
23942.8236
23948.1313
23409.7439
23143.2781
23261.625
23945.2423
23392.8067
23162.2407
23928.0095
23945.6156
23938.712
23400.5075
22957.9054
22933.0862
22939.9683
23901.6512
23925.7177
23921.605
23324.695
23018.6727
23924.8996
23917.2838
23389.4752
23044.7512
23128.7766
23933.3181
23394.0937
23043.392
23934.2346
23953.5558
23953.3175
23391.0629
22798.972
22810.1594
23912.5151
23953.5459
23248.6848
23233.5207
23915.4652
23385.932
22957.7501
23922.401
23943.9583
23279.8839
23116.8601
23910.9439
23948.3515
23268.4946
23168.4468
23896.4571
23940.8582
23199.6995
23186.6593
23893.7972
23934.7104
23926.6463
23412.2065
22955.8583
22859.9782
22861.1252
23862.6949
23916.8568
23863.5651
23930.8939
23666.3857
23388.0001
22829.7167
23030.9723
23897.2121
23404.4285
22833.403
23902.3855
23925.0766
23175.2002
22987.2944
23894.2445
23933.1767
23145.4005
23116.5585
23891.7598
23935.94
23927.3157
23406.7114
23052.6771
22812.7004
22817.9124
23880.8443
23931.9963
23909.5553
23943.5679
23935.6353
23394.0749
23005.4255
23008.1677
23898.775
23928.1167
23405.5892
22852.1513
22862.7482
23883.8481
23935.7742
23175.6281
23131.6817
23882.7382
23352.6317
22782.7589
23881.4971
23913.4292
23909.9509
23216.8834
22880.6461
23869.1175
23911.7023
23884.9775
23912.3367
23551.2324
23061.8725
23053.2776
23882.3727
23935.9362
23420.135
23143.3938
22944.4978
22950.9362
23890.2676
23945.9052
23917.4761
23384.3525
22905.2441
23046.0723
23904.1992
23381.2666
22961.2029
23931.1634
23931.2763
23375.5652
23083.7728
23341.9635
23933.3933
23973.9657
23955.065
23376.9413
23305.4945
23100.2034
23105.7434
23926.1663
23391.5246
23058.4338
23914.1145
23938.1863
23400.6029
23249.2988
22947.0391
22949.5738
23896.936
23943.6031
23917.1567
23952.2934
23947.001
23389.562
23134.939
22970.4819
22972.0231
23904.0705
23947.5712
23319.9097
23115.5078
23908.6662
23943.0906
23402.9119
23176.0655
22937.3955
22934.7017
23883.2824
23888.2928
23892.0719
23715.1148
23020.7866
23030.2833
23881.8713
23413.6738
22998.7769
23901.5706
23938.4008
23929.652
23404.6164
23002.8354
23912.6309
23943.8289
23257.6674
23051.1813
23916.0452
23949.1458
23396.9671
23194.8769
22860.4038
22869.4298
23888.3139
23951.1872
23904.5799
23957.7088
23485.4478
23370.8487
23308.8105
23319.5574
23172.61
23175.0292
23921.1605
23939.9237
23383.7955
23048.9805
23054.9025
23913.4437
23956.4023
23409.7603
23199.5755
23920.9271
23936.9904
23403.8267
23047.5565
23051.8435
23906.283
23952.3368
23924.951
23956.7663
23402.784
23281.7405
23271.7304
23244.7862
23022.8957
23028.0326
23901.1923
23946.9349
23194.032
23020.9324
23892.2063
23946.5829
23912.7671
23947.7135
23406.9693
23220.4944
23037.1274
23038.3817
23910.2396
23927.1088
23409.7559
22751.4804
22764.1651
23899.516
23926.5325
23926.514
23260.7111
23174.3551
23899.6986
23394.7117
22952.0213
23922.6614
23916.6208
23390.3559
22951.4474
22960.5748
23912.3873
23944.6298
23930.5812
23946.9385
23404.2538
23227.8566
23285.332
23041.3687
23047.0742
23929.3454
23953.1927
23950.8812
23397.4468
23183.2814
23943.4145
23937.4059
23378.9038
23075.7799
23082.3186
23914.5231
23960.033
23478.4776
23389.8544
23257.3554
23262.3255
23013.82
23019.9703
23898.0123
23929.9555
23587.0191
22960.4541
22964.6827
23906.7818
23928.1854
23923.6505
23421.9704
23180.1089
23887.8922
23942.2834
23635.1827
23364.6356
22940.3034
22950.8128
23924.8192
23925.2369
23393.782
22944.3211
22952.2935
23914.375
23941.7613
23320.8116
23088.6097
23927.3191
23929.9336
23400.9823
22900.2057
22909.3596
23901.5707
23920.858
23584.9749
23076.3474
23069.3787
23911.1748
23952.568
23309.4269
23119.4817
23929.9393
23963.9431
23407.1574
23181.5188
23944.9383
23949.6215
23387.3001
23133.7433
23134.6604
23938.7137
23936.4814
23381.8895
22901.0116
22909.0153
23929.2064
23957.9441
23269.4759
23047.142
23927.2043
23954.0135
23372.0526
23145.0184
23939.9087
23938.8729
23392.8738
23039.1551
23041.5587
23943.5199
23954.2237
23950.4558
23401.5194
23343.998
23270.4214
23261.5013
23004.4405
23007.6013
23940.2314
23948.92
23950.1708
23949.497
23388.2212
23245.8974
23386.7398
23131.9199
23134.9754
23924.1454
23962.3064
23254.9746
23089.0516
23906.2475
23949.5868
23151.3803
22976.208
23895.14
23942.7109
23909.2651
23943.5889
23411.8999
23107.1063
23026.1613
23027.2887
23896.4544
23934.7424
23202.0971
23203.5596
23905.35
23944.5484
23920.3096
23396.0479
23015.4251
22964.6315
22970.8441
23944.6892
23951.7847
23324.8818
23329.8294
23940.0573
23392.8142
23365.6469
23946.4567
23418.7775
23192.6617
23914.8591
23943.8986
23625.7108
23348.1117
23138.7219
22953.9307
22954.3733
23925.6601
23943.2921
23147.5367
23085.0885
23931.287
23939.6354
23933.8065
23333.3433
23177.8356
23933.9019
23962.6479
)
;

boundaryField
{
    closed
    {
        type            calculated;
        value           nonuniform List<scalar> 0();
    }
    open
    {
        type            calculated;
        value           nonuniform List<scalar> 0();
    }
    sides
    {
        type            empty;
    }
    procBoundary2to1
    {
        type            processor;
        value           uniform 23091.2522;
    }
    procBoundary2to3
    {
        type            processor;
        value           uniform 23928.7386;
    }
}


// ************************************************************************* //
