/*--------------------------------*- C++ -*----------------------------------*\
| =========                 |                                                 |
| \\      /  F ield         | OpenFOAM: The Open Source CFD Toolbox           |
|  \\    /   O peration     | Version:  2306                                  |
|   \\  /    A nd           | Website:  www.openfoam.com                      |
|    \\/     M anipulation  |                                                 |
\*---------------------------------------------------------------------------*/
FoamFile
{
    version     2.0;
    format      ascii;
    arch        "LSB;label=32;scalar=64";
    class       volVectorField;
    location    "0.00146";
    object      U;
}
// * * * * * * * * * * * * * * * * * * * * * * * * * * * * * * * * * * * * * //

dimensions      [0 1 -1 0 0 0 0];

internalField   nonuniform List<vector> 
530
(
(0.0955899715 0 0)
(0.0995444753 0 0)
(0.103188962 0 0)
(0.104803287 0 0)
(0.103413573 0 0)
(0.0999355679 0 0)
(0.0997855348 0 0)
(0.104816615 0 0)
(0.110613086 0 0)
(0.111657644 0 0)
(0.108618955 0 0)
(0.109022816 0 0)
(0.113804651 0 0)
(0.115074132 0 0)
(0.112753811 0 0)
(0.112546824 0 0)
(0.116166752 0 0)
(0.119708 0 0)
(0.120644773 0 0)
(0.116499784 0 0)
(0.112833337 0 0)
(0.116915328 0 0)
(0.124606194 0 0)
(0.129505385 0 0)
(0.131449553 0 0)
(0.131534294 0 0)
(0.129325246 0 0)
(0.127315943 0 0)
(0.128365984 0 0)
(0.133627574 0 0)
(0.14017655 0 0)
(0.141162228 0 0)
(0.13737011 0 0)
(0.134908347 0 0)
(0.137673262 0 0)
(0.141697352 0 0)
(0.141740597 0 0)
(0.140738361 0 0)
(0.140270045 0 0)
(0.139704824 0 0)
(0.14407243 0 0)
(0.150585559 0 0)
(0.153196135 0 0)
(0.153377624 0 0)
(0.151022836 0 0)
(0.151256765 0 0)
(0.156286101 0 0)
(0.160747928 0 0)
(0.163272693 0 0)
(0.162016373 0 0)
(0.157690353 0 0)
(0.15638304 0 0)
(0.159786669 0 0)
(0.166514618 0 0)
(0.174733616 0 0)
(0.17728274 0 0)
(0.174283384 0 0)
(0.172003195 0 0)
(0.173228415 0 0)
(0.179042917 0 0)
(0.181974231 0 0)
(0.178716884 0 0)
(0.176438579 0 0)
(0.179741699 0 0)
(0.187753973 0 0)
(0.192691875 0 0)
(0.192544724 0 0)
(0.188729623 0 0)
(0.186764824 0 0)
(0.190157512 0 0)
(0.197607238 0 0)
(0.199731396 0 0)
(0.196978896 0 0)
(0.199210986 0 0)
(0.206160062 0 0)
(0.210499592 0 0)
(0.210363993 0 0)
(0.206781713 0 0)
(0.204630489 0 0)
(0.205410549 0 0)
(0.210127011 0 0)
(0.218030092 0 0)
(0.219693974 0 0)
(0.215569777 0 0)
(0.213002581 0 0)
(0.220774771 0 0)
(0.230923075 0 0)
(0.22937014 0 0)
(0.22354833 0 0)
(0.222059555 0 0)
(0.226140254 0 0)
(0.229919007 0 0)
(0.241366289 0 0)
(0.249683081 0 0)
(0.241078743 0 0)
(0.231837705 0 0)
(0.236152432 0 0)
(0.247129548 0 0)
(0.251946618 0 0)
(0.252441327 0 0)
(0.249878061 0 0)
(0.245468221 0 0)
(0.246440424 0 0)
(0.253523964 0 0)
(0.255577349 0 0)
(0.252526606 0 0)
(0.251387374 0 0)
(0.252497196 0 0)
(0.254177393 0 0)
(0.251503994 0 0)
(0.251240023 0 0)
(0.258815171 0 0)
(0.264236436 0 0)
(0.261903486 0 0)
(0.253977871 0 0)
(0.248493444 0 0)
(0.245842915 0 0)
(0.249920673 0 0)
(0.258996544 0 0)
(0.262311765 0 0)
(0.259057627 0 0)
(0.255823876 0 0)
(0.259177819 0 0)
(0.265986005 0 0)
(0.267862498 0 0)
(0.262479771 0 0)
(0.258129797 0 0)
(0.259577864 0 0)
(0.263328771 0 0)
(0.2610682 0 0)
(0.260277481 0 0)
(0.26765782 0 0)
(0.272716535 0 0)
(0.270265859 0 0)
(0.262390438 0 0)
(0.256813639 0 0)
(0.266408554 0 0)
(0.279267549 0 0)
(0.27782024 0 0)
(0.272868467 0 0)
(0.274445907 0 0)
(0.279033749 0 0)
(0.276255685 0 0)
(0.274179016 0 0)
(0.2806653 0 0)
(0.282361964 0 0)
(0.27721854 0 0)
(0.27816184 0 0)
(0.285701376 0 0)
(0.286832098 0 0)
(0.281359882 0 0)
(0.282287305 0 0)
(0.28985317 0 0)
(0.290756021 0 0)
(0.284662151 0 0)
(0.285740179 0 0)
(0.294713435 0 0)
(0.300348825 0 0)
(0.298393327 0 0)
(0.291643814 0 0)
(0.286276229 0 0)
(0.283153891 0 0)
(0.287323309 0 0)
(0.296175978 0 0)
(0.29852241 0 0)
(0.297097877 0 0)
(0.29537862 0 0)
(0.302013201 0 0)
(0.307056377 0 0)
(0.300418853 0 0)
(0.297549095 0 0)
(0.300842791 0 0)
(0.297984282 0 0)
(0.296078188 0 0)
(0.304189224 0 0)
(0.306242046 0 0)
(0.299509046 0 0)
(0.300318214 0 0)
(0.309550356 0 0)
(0.311001648 0 0)
(0.303900261 0 0)
(0.304550933 0 0)
(0.31427149 0 0)
(0.320563313 0 0)
(0.317509145 0 0)
(0.309705982 0 0)
(0.303655018 0 0)
(0.300367051 0 0)
(0.306722117 0 0)
(0.31910248 0 0)
(0.32388011 0 0)
(0.324568588 0 0)
(0.324373322 0 0)
(0.320699181 0 0)
(0.312608067 0 0)
(0.306574485 0 0)
(0.304674785 0 0)
(0.314048464 0 0)
(0.321415963 0 0)
(0.313494983 0 0)
(0.305685614 0 0)
(0.305696735 0 0)
(0.316016156 0 0)
(0.320561167 0 0)
(0.314173332 0 0)
(0.315593845 0 0)
(0.321579833 0 0)
(0.319656299 0 0)
(0.317322734 0 0)
(0.325635658 0 0)
(0.332868485 0 0)
(0.331707935 0 0)
(0.321501568 0 0)
(0.316377797 0 0)
(0.325730581 0 0)
(0.332746697 0 0)
(0.331791418 0 0)
(0.328408798 0 0)
(0.327912979 0 0)
(0.32675551 0 0)
(0.327179629 0 0)
(0.335647229 0 0)
(0.338708951 0 0)
(0.332091793 0 0)
(0.32604964 0 0)
(0.322528053 0 0)
(0.32125498 0 0)
(0.33050338 0 0)
(0.340440434 0 0)
(0.336295993 0 0)
(0.326673621 0 0)
(0.320439722 0 0)
(0.322379205 0 0)
(0.327032257 0 0)
(0.325143652 0 0)
(0.323540173 0 0)
(0.331373165 0 0)
(0.334491971 0 0)
(0.328206782 0 0)
(0.323999825 0 0)
(0.32155625 0 0)
(0.323244666 0 0)
(0.326828484 0 0)
(0.322857995 0 0)
(0.316662916 0 0)
(0.31372587 0 0)
(0.312928684 0 0)
(0.3134554 0 0)
(0.31719008 0 0)
(0.31709131 0 0)
(0.31494505 0 0)
(0.321550775 0 0)
(0.32499387 0 0)
(0.319256685 0 0)
(0.31319784 0 0)
(0.308994754 0 0)
(0.306626335 0 0)
(0.314761636 0 0)
(0.32497193 0 0)
(0.325251251 0 0)
(0.324209261 0 0)
(0.321027905 0 0)
(0.314916582 0 0)
(0.310148934 0 0)
(0.30799976 0 0)
(0.312470422 0 0)
(0.322117233 0 0)
(0.323150294 0 0)
(0.315344656 0 0)
(0.313725575 0 0)
(0.321973096 0 0)
(0.325261202 0 0)
(0.319440787 0 0)
(0.31372613 0 0)
(0.309606312 0 0)
(0.304806678 0 0)
(0.310316244 0 0)
(0.317579577 0 0)
(0.314529072 0 0)
(0.32814106 0 0)
(0.339365213 0 0)
(0.336405711 0 0)
(0.337918896 0 0)
(0.335265334 0 0)
(0.331586735 0 0)
(0.338087153 0 0)
(0.344922958 0 0)
(0.338341299 0 0)
(0.327190507 0 0)
(0.326550818 0 0)
(0.335703324 0 0)
(0.338012083 0 0)
(0.331134092 0 0)
(0.331699043 0 0)
(0.341482238 0 0)
(0.344744747 0 0)
(0.337455786 0 0)
(0.329857358 0 0)
(0.324990688 0 0)
(0.33058313 0 0)
(0.341840886 0 0)
(0.345817452 0 0)
(0.345283687 0 0)
(0.341665336 0 0)
(0.339775854 0 0)
(0.340404779 0 0)
(0.338766072 0 0)
(0.334691596 0 0)
(0.32983491 0 0)
(0.331806785 0 0)
(0.338623952 0 0)
(0.337331065 0 0)
(0.328762272 0 0)
(0.320923764 0 0)
(0.326136567 0 0)
(0.335968672 0 0)
(0.334393315 0 0)
(0.326885255 0 0)
(0.325137053 0 0)
(0.332296239 0 0)
(0.334319157 0 0)
(0.326902899 0 0)
(0.318897346 0 0)
(0.315242245 0 0)
(0.322700865 0 0)
(0.331700768 0 0)
(0.330906365 0 0)
(0.326086689 0 0)
(0.320737803 0 0)
(0.318870453 0 0)
(0.318676197 0 0)
(0.316077346 0 0)
(0.310749415 0 0)
(0.313020192 0 0)
(0.320207979 0 0)
(0.317552967 0 0)
(0.308781364 0 0)
(0.307115074 0 0)
(0.315588575 0 0)
(0.32198711 0 0)
(0.321811199 0 0)
(0.317543897 0 0)
(0.311143979 0 0)
(0.306325289 0 0)
(0.303337576 0 0)
(0.305971811 0 0)
(0.314146284 0 0)
(0.315443729 0 0)
(0.306189379 0 0)
(0.29629268 0 0)
(0.29595931 0 0)
(0.306792254 0 0)
(0.314995555 0 0)
(0.307744474 0 0)
(0.300879635 0 0)
(0.304334792 0 0)
(0.308541087 0 0)
(0.305444675 0 0)
(0.300965205 0 0)
(0.305076328 0 0)
(0.306831645 0 0)
(0.298709325 0 0)
(0.289355461 0 0)
(0.28664968 0 0)
(0.293411845 0 0)
(0.300125353 0 0)
(0.299745352 0 0)
(0.295619206 0 0)
(0.290734915 0 0)
(0.287844727 0 0)
(0.284370172 0 0)
(0.279726898 0 0)
(0.284014105 0 0)
(0.292109567 0 0)
(0.293652907 0 0)
(0.290391942 0 0)
(0.283888315 0 0)
(0.282876321 0 0)
(0.288863074 0 0)
(0.290055829 0 0)
(0.283007093 0 0)
(0.275863314 0 0)
(0.274655315 0 0)
(0.28045257 0 0)
(0.283724289 0 0)
(0.281431564 0 0)
(0.279614521 0 0)
(0.276987072 0 0)
(0.272870764 0 0)
(0.268035037 0 0)
(0.264673509 0 0)
(0.268625596 0 0)
(0.273229322 0 0)
(0.27342459 0 0)
(0.270760546 0 0)
(0.269959806 0 0)
(0.276938112 0 0)
(0.281504028 0 0)
(0.276721066 0 0)
(0.268953971 0 0)
(0.267473048 0 0)
(0.271621416 0 0)
(0.274562869 0 0)
(0.278755781 0 0)
(0.280714728 0 0)
(0.273846816 0 0)
(0.269247944 0 0)
(0.273666269 0 0)
(0.275823886 0 0)
(0.26894426 0 0)
(0.261719198 0 0)
(0.260946151 0 0)
(0.268014707 0 0)
(0.270841182 0 0)
(0.264553938 0 0)
(0.262809037 0 0)
(0.268487689 0 0)
(0.27001779 0 0)
(0.262768176 0 0)
(0.254618809 0 0)
(0.253377802 0 0)
(0.259169349 0 0)
(0.26301606 0 0)
(0.264988777 0 0)
(0.264240861 0 0)
(0.261845312 0 0)
(0.265914056 0 0)
(0.2660874 0 0)
(0.258389144 0 0)
(0.256438475 0 0)
(0.262857733 0 0)
(0.264148455 0 0)
(0.257958799 0 0)
(0.256550332 0 0)
(0.262270311 0 0)
(0.263557335 0 0)
(0.257533047 0 0)
(0.251672647 0 0)
(0.254822192 0 0)
(0.261611229 0 0)
(0.260846779 0 0)
(0.254134733 0 0)
(0.247821397 0 0)
(0.247796921 0 0)
(0.255491724 0 0)
(0.25871157 0 0)
(0.251879032 0 0)
(0.250643732 0 0)
(0.257641869 0 0)
(0.259202311 0 0)
(0.251965296 0 0)
(0.249154084 0 0)
(0.254569081 0 0)
(0.256280361 0 0)
(0.25047022 0 0)
(0.24462575 0 0)
(0.244853642 0 0)
(0.251454079 0 0)
(0.256298423 0 0)
(0.254726309 0 0)
(0.251090595 0 0)
(0.248971232 0 0)
(0.247790186 0 0)
(0.245713857 0 0)
(0.24216359 0 0)
(0.240190045 0 0)
(0.245575203 0 0)
(0.251604679 0 0)
(0.252322485 0 0)
(0.249825066 0 0)
(0.246034774 0 0)
(0.244642557 0 0)
(0.244353324 0 0)
(0.242714704 0 0)
(0.240943278 0 0)
(0.245492859 0 0)
(0.2475998 0 0)
(0.241340871 0 0)
(0.240641099 0 0)
(0.247052716 0 0)
(0.247361113 0 0)
(0.239106322 0 0)
(0.236542575 0 0)
(0.243979903 0 0)
(0.250127135 0 0)
(0.25184221 0 0)
(0.25000185 0 0)
(0.24471129 0 0)
(0.240517158 0 0)
(0.239068956 0 0)
(0.237623227 0 0)
(0.243089522 0 0)
(0.246654844 0 0)
(0.238234354 0 0)
(0.230449813 0 0)
(0.235931806 0 0)
(0.245211537 0 0)
(0.244581095 0 0)
(0.239202019 0 0)
(0.233604594 0 0)
(0.231361891 0 0)
(0.236283637 0 0)
(0.243902216 0 0)
(0.243282873 0 0)
(0.237534321 0 0)
(0.236033937 0 0)
(0.237472321 0 0)
(0.235648416 0 0)
(0.233199289 0 0)
(0.231906741 0 0)
(0.229051489 0 0)
(0.227213652 0 0)
(0.228855504 0 0)
(0.230415734 0 0)
(0.236836732 0 0)
(0.240881055 0 0)
(0.233248606 0 0)
(0.226100261 0 0)
(0.229997563 0 0)
(0.237022432 0 0)
(0.234694551 0 0)
(0.226962377 0 0)
(0.225081233 0 0)
(0.23109522 0 0)
(0.235444479 0 0)
(0.232541436 0 0)
(0.227046666 0 0)
(0.22625474 0 0)
(0.230720573 0 0)
(0.234306339 0 0)
)
;

boundaryField
{
    closed
    {
        type            noSlip;
    }
    open
    {
        type            inletOutlet;
        inletValue      nonuniform List<vector> 0();
        value           nonuniform List<vector> 0();
    }
    sides
    {
        type            empty;
    }
    procBoundary2to1
    {
        type            processor;
        value           uniform (0.0950065308 0 0);
    }
    procBoundary2to3
    {
        type            processor;
        value           uniform (0.232620984 0 0);
    }
}


// ************************************************************************* //
