/*--------------------------------*- C++ -*----------------------------------*\
| =========                 |                                                 |
| \\      /  F ield         | OpenFOAM: The Open Source CFD Toolbox           |
|  \\    /   O peration     | Version:  2306                                  |
|   \\  /    A nd           | Website:  www.openfoam.com                      |
|    \\/     M anipulation  |                                                 |
\*---------------------------------------------------------------------------*/
FoamFile
{
    version     2.0;
    format      ascii;
    arch        "LSB;label=32;scalar=64";
    class       volScalarField;
    location    "0.00072";
    object      alpha;
}
// * * * * * * * * * * * * * * * * * * * * * * * * * * * * * * * * * * * * * //

dimensions      [1 -1 -1 0 0 0 0];

internalField   nonuniform List<scalar> 
530
(
8.62720028e-05
8.6319607e-05
8.63534012e-05
8.63966606e-05
8.64280487e-05
8.64698053e-05
8.64994308e-05
8.65425271e-05
8.65731151e-05
8.66162853e-05
8.66449712e-05
8.66865041e-05
8.67133855e-05
8.67509722e-05
8.67740288e-05
8.68093861e-05
8.68308999e-05
8.68644046e-05
8.68846277e-05
8.69148063e-05
8.6934912e-05
8.69627759e-05
8.69821377e-05
8.70083494e-05
8.70278096e-05
8.70513528e-05
8.70708157e-05
8.70919814e-05
8.71095068e-05
8.71263592e-05
8.71432449e-05
8.71582449e-05
8.71744574e-05
8.71877825e-05
8.72032351e-05
8.72150362e-05
8.72296686e-05
8.72400714e-05
8.72538453e-05
8.72629571e-05
8.72758504e-05
8.72837654e-05
8.72957669e-05
8.73025679e-05
8.73136729e-05
8.73194248e-05
8.73296353e-05
8.73343706e-05
8.73426944e-05
8.73453025e-05
8.73520543e-05
8.73535634e-05
8.73597215e-05
8.73600232e-05
8.7365599e-05
8.73647052e-05
8.73696779e-05
8.7367636e-05
8.73719707e-05
8.73690364e-05
8.73728733e-05
8.73689533e-05
8.73721012e-05
8.73672098e-05
8.73696634e-05
8.73638473e-05
8.73656077e-05
8.73589101e-05
8.73599829e-05
8.73524451e-05
8.73528388e-05
8.7344502e-05
8.73442263e-05
8.73351328e-05
8.73341984e-05
8.73243886e-05
8.73228116e-05
8.73123123e-05
8.7309405e-05
8.72974083e-05
8.72936909e-05
8.72809937e-05
8.72765968e-05
8.72632222e-05
8.72581537e-05
8.72441269e-05
8.72383939e-05
8.72237383e-05
8.72173498e-05
8.72020878e-05
8.71950545e-05
8.71792083e-05
8.71715412e-05
8.71551338e-05
8.71468441e-05
8.71298987e-05
8.71209981e-05
8.71035384e-05
8.70940387e-05
8.70760885e-05
8.70660025e-05
8.7047585e-05
8.70369267e-05
8.70180642e-05
8.70068495e-05
8.69875625e-05
8.69758091e-05
8.6956117e-05
8.69438437e-05
8.69237655e-05
8.69109906e-05
8.68905472e-05
8.68772857e-05
8.68565018e-05
8.6842762e-05
8.68216678e-05
8.68074458e-05
8.67860761e-05
8.67713596e-05
8.67497421e-05
8.67346008e-05
8.67126718e-05
8.6697582e-05
8.6676452e-05
8.66612427e-05
8.66389106e-05
8.66225977e-05
8.66003191e-05
8.65830092e-05
8.65610412e-05
8.65430207e-05
8.6521223e-05
8.65026026e-05
8.64808822e-05
8.6461766e-05
8.64400568e-05
8.64205226e-05
8.63987847e-05
8.637889e-05
8.63571009e-05
8.63368903e-05
8.6315039e-05
8.62945497e-05
8.62726318e-05
8.62518969e-05
8.62299125e-05
8.62089619e-05
8.61869139e-05
8.61657756e-05
8.6143669e-05
8.61223684e-05
8.61002098e-05
8.6078771e-05
8.60565682e-05
8.60350132e-05
8.60127752e-05
8.59911248e-05
8.59688615e-05
8.59471353e-05
8.59248572e-05
8.59030738e-05
8.58807727e-05
8.5858908e-05
8.58365669e-05
8.58146348e-05
8.57922679e-05
8.57702868e-05
8.57479086e-05
8.57258963e-05
8.57035213e-05
8.56814952e-05
8.56591379e-05
8.56371149e-05
8.56147896e-05
8.55927862e-05
8.55705072e-05
8.55485392e-05
8.55263205e-05
8.55044035e-05
8.5482259e-05
8.54604079e-05
8.54383514e-05
8.54165806e-05
8.53946254e-05
8.53730961e-05
8.53514466e-05
8.53300859e-05
8.53085979e-05
8.5287392e-05
8.52660752e-05
8.52450341e-05
8.52238979e-05
8.52030313e-05
8.51820848e-05
8.51614024e-05
8.51406544e-05
8.51201655e-05
8.50996249e-05
8.50793385e-05
8.50590138e-05
8.5038939e-05
8.50188386e-05
8.49989841e-05
8.49791161e-05
8.49594906e-05
8.49398631e-05
8.49204751e-05
8.49010957e-05
8.48819539e-05
8.48628302e-05
8.4843943e-05
8.48250825e-05
8.48064579e-05
8.47878686e-05
8.47695139e-05
8.47512049e-05
8.47331258e-05
8.47151069e-05
8.4697309e-05
8.4679589e-05
8.46621125e-05
8.46447467e-05
8.46275815e-05
8.46104965e-05
8.45936133e-05
8.45768138e-05
8.45602125e-05
8.45437015e-05
8.45273827e-05
8.45111617e-05
8.44951267e-05
8.44791964e-05
8.44634466e-05
8.44478074e-05
8.44323436e-05
8.4416996e-05
8.44018189e-05
8.43867629e-05
8.43718729e-05
8.43571082e-05
8.43425055e-05
8.43280316e-05
8.43137161e-05
8.42995325e-05
8.42855036e-05
8.42716716e-05
8.42580258e-05
8.42445112e-05
8.42311362e-05
8.42178966e-05
8.42047929e-05
8.41918282e-05
8.41789962e-05
8.41663061e-05
8.41537458e-05
8.41413299e-05
8.41290409e-05
8.41168986e-05
8.41048804e-05
8.40930109e-05
8.40812629e-05
8.40696651e-05
8.40581865e-05
8.4046859e-05
8.4035649e-05
8.40245903e-05
8.40136441e-05
8.40027591e-05
8.39919915e-05
8.39813817e-05
8.39708853e-05
8.39605479e-05
8.39503206e-05
8.39402526e-05
8.39302919e-05
8.39204903e-05
8.39107938e-05
8.39012556e-05
8.38918204e-05
8.38825426e-05
8.38733657e-05
8.38643451e-05
8.38554235e-05
8.38466567e-05
8.38379874e-05
8.38294711e-05
8.38210506e-05
8.38127813e-05
8.38046064e-05
8.37965805e-05
8.37886477e-05
8.37808614e-05
8.37731672e-05
8.37656169e-05
8.37581575e-05
8.37508392e-05
8.37436111e-05
8.37365209e-05
8.37295203e-05
8.37226542e-05
8.3715877e-05
8.3709231e-05
8.37026735e-05
8.36962434e-05
8.36899015e-05
8.36836832e-05
8.36775528e-05
8.36715421e-05
8.36656191e-05
8.36598117e-05
8.3654092e-05
8.36484836e-05
8.3642963e-05
8.36375494e-05
8.36322235e-05
8.36270003e-05
8.3621865e-05
8.36168279e-05
8.36118788e-05
8.36070234e-05
8.36022562e-05
8.35975782e-05
8.35929885e-05
8.35884836e-05
8.35840671e-05
8.35797309e-05
8.35754831e-05
8.35713113e-05
8.35672281e-05
8.35632163e-05
8.35592932e-05
8.35554372e-05
8.35516699e-05
8.35479655e-05
8.35443496e-05
8.35407925e-05
8.35373238e-05
8.35339097e-05
8.35305839e-05
8.35273089e-05
8.35241218e-05
8.35209816e-05
8.3517929e-05
8.35149196e-05
8.35119973e-05
8.35091148e-05
8.35063187e-05
8.35035591e-05
8.35008851e-05
8.34982446e-05
8.34956887e-05
8.34931633e-05
8.34907216e-05
8.34883078e-05
8.34859764e-05
8.34836703e-05
8.34814453e-05
8.34792434e-05
8.34771211e-05
8.34750198e-05
8.34729965e-05
8.34709922e-05
8.34690644e-05
8.34671538e-05
8.34653177e-05
8.34634975e-05
8.34617498e-05
8.34600166e-05
8.34583538e-05
8.34567045e-05
8.34551233e-05
8.34535547e-05
8.34520519e-05
8.3450561e-05
8.34491333e-05
8.34477171e-05
8.34463615e-05
8.3445017e-05
8.34437305e-05
8.34424549e-05
8.34412345e-05
8.3440025e-05
8.3438868e-05
8.34377219e-05
8.34366254e-05
8.34355401e-05
8.34345015e-05
8.34334743e-05
8.3432491e-05
8.34315196e-05
8.34305889e-05
8.34296708e-05
8.34287905e-05
8.34279233e-05
8.3427091e-05
8.34262724e-05
8.34254858e-05
8.34247137e-05
8.34239706e-05
8.34232427e-05
8.3422541e-05
8.34218554e-05
8.34211931e-05
8.34205476e-05
8.34199228e-05
8.34193156e-05
8.34187263e-05
8.34181555e-05
8.34176e-05
8.34170637e-05
8.34165403e-05
8.34160369e-05
8.34155439e-05
8.34150716e-05
8.34146075e-05
8.34141646e-05
8.3413728e-05
8.3413313e-05
8.34129023e-05
8.34125138e-05
8.34121277e-05
8.34117642e-05
8.34114014e-05
8.34110614e-05
8.34107208e-05
8.3410403e-05
8.34100833e-05
8.34097865e-05
8.34094866e-05
8.34092095e-05
8.34089285e-05
8.34086699e-05
8.34084066e-05
8.34081654e-05
8.34079191e-05
8.34076942e-05
8.34074638e-05
8.34072542e-05
8.3407039e-05
8.34068436e-05
8.34066428e-05
8.34064607e-05
8.34062735e-05
8.34061039e-05
8.34059296e-05
8.34057715e-05
8.34056094e-05
8.34054622e-05
8.34053116e-05
8.34051744e-05
8.34050348e-05
8.34049069e-05
8.34047775e-05
8.34046537e-05
8.34045213e-05
8.34043899e-05
8.34042518e-05
8.34041139e-05
8.34039723e-05
8.34038293e-05
8.34036872e-05
8.3403541e-05
8.34034021e-05
8.3403255e-05
8.34031233e-05
8.34029783e-05
8.34028582e-05
8.34027187e-05
8.34026142e-05
8.34024843e-05
8.34023986e-05
8.34022823e-05
8.3402218e-05
8.34021182e-05
8.34020775e-05
8.34020071e-05
8.34019669e-05
8.34019281e-05
8.34018974e-05
8.34018801e-05
8.34018674e-05
8.34018647e-05
8.3401866e-05
8.34018726e-05
8.34018631e-05
8.34017722e-05
8.34017093e-05
8.34016708e-05
8.34016481e-05
8.34016356e-05
8.34016291e-05
8.3401626e-05
8.34016246e-05
8.34016241e-05
8.34016238e-05
8.34016236e-05
8.34016236e-05
8.34016236e-05
8.34016236e-05
8.34016236e-05
8.34016236e-05
8.34016236e-05
8.34016236e-05
8.34016236e-05
8.34016236e-05
8.34016236e-05
8.34016236e-05
8.34016236e-05
8.34016236e-05
8.34016236e-05
8.34016236e-05
8.34016236e-05
8.34016236e-05
8.34016236e-05
8.34016236e-05
8.34016236e-05
8.34016236e-05
8.34016236e-05
8.34016236e-05
8.34016236e-05
8.34016236e-05
8.34016236e-05
8.34016236e-05
8.34016236e-05
8.34016236e-05
8.34016236e-05
8.34016236e-05
8.34016236e-05
8.34016236e-05
8.34016236e-05
)
;

boundaryField
{
    closed
    {
        type            calculated;
        value           nonuniform List<scalar> 0();
    }
    open
    {
        type            calculated;
        value           uniform 8.34016236e-05;
    }
    sides
    {
        type            empty;
    }
    procBoundary5to4
    {
        type            processor;
        value           uniform 8.62346751e-05;
    }
}


// ************************************************************************* //
