/*--------------------------------*- C++ -*----------------------------------*\
| =========                 |                                                 |
| \\      /  F ield         | OpenFOAM: The Open Source CFD Toolbox           |
|  \\    /   O peration     | Version:  2306                                  |
|   \\  /    A nd           | Website:  www.openfoam.com                      |
|    \\/     M anipulation  |                                                 |
\*---------------------------------------------------------------------------*/
FoamFile
{
    version     2.0;
    format      ascii;
    arch        "LSB;label=32;scalar=64";
    class       volScalarField;
    location    "0.00072";
    object      PV;
}
// * * * * * * * * * * * * * * * * * * * * * * * * * * * * * * * * * * * * * //

dimensions      [0 0 0 0 0 0 0];

internalField   nonuniform List<scalar> 
530
(
0.00779325425
0.00779969193
0.00780479185
0.00781084304
0.00781558574
0.00782135002
0.00782576703
0.00783106266
0.00783497222
0.00783987833
0.00784348323
0.0078481317
0.00785144581
0.00785577966
0.00785876339
0.00786283364
0.00786555977
0.00786938415
0.00787186924
0.00787534971
0.00787767697
0.00788088445
0.00788300202
0.00788599141
0.00788795015
0.00789065257
0.00789246182
0.00789488922
0.00789653195
0.00789866552
0.00790015878
0.00790203433
0.0079033788
0.00790500574
0.00790620073
0.00790758871
0.00790863357
0.00790979201
0.00791068638
0.00791162432
0.00791236816
0.00791309421
0.00791368813
0.00791421022
0.00791465669
0.00791498075
0.00791528699
0.00791541399
0.00791557959
0.00791548331
0.00791554262
0.00791521161
0.00791519448
0.00791459279
0.00791452706
0.00791365312
0.0079135404
0.00791240774
0.00791223922
0.00791085533
0.00791060821
0.00790900172
0.00790867499
0.00790686571
0.00790644984
0.00790445274
0.00790394065
0.00790176846
0.00790115509
0.00789881886
0.00789810073
0.00789561027
0.00789478509
0.00789214933
0.00789121574
0.00788844282
0.00788740034
0.0078844976
0.00788333223
0.00788028983
0.00787901164
0.0078758509
0.00787446256
0.00787118898
0.00786969102
0.00786630997
0.00786470318
0.00786121976
0.00785950523
0.00785592434
0.0078541034
0.00785042984
0.00784850402
0.00784474248
0.00784271345
0.00783886859
0.00783673817
0.00783281452
0.00783058472
0.00782658668
0.00782425975
0.0078201915
0.00781776998
0.00781363539
0.00781112213
0.0078069248
0.00780432291
0.00780006624
0.00779737886
0.00779306634
0.00779029636
0.00778593182
0.0077830815
0.00777866931
0.00777573967
0.00777128496
0.00776827484
0.00776378358
0.00776069119
0.00775616805
0.007753009
0.00774844104
0.00774529821
0.0077408847
0.00773771822
0.00773310218
0.00772974318
0.00772518483
0.00772166083
0.00771713985
0.00771349185
0.0077090214
0.00770527011
0.00770083593
0.00769699955
0.00769258969
0.00768868323
0.00768428972
0.00768032482
0.0076759428
0.00767192861
0.00766755534
0.00766349941
0.00765913353
0.00765504243
0.00765068351
0.00764656316
0.00764221135
0.00763806727
0.00763372311
0.00762956042
0.00762522478
0.00762104827
0.00761672227
0.00761253642
0.00760822138
0.00760403038
0.00759972783
0.00759553556
0.00759124718
0.00758705452
0.00758277803
0.00757859235
0.00757433676
0.00757016382
0.00756593094
0.00756177373
0.00755756536
0.00755342672
0.00754924468
0.00754512731
0.00754097337
0.00753687987
0.00753275579
0.00752868861
0.00752459613
0.0075205576
0.00751649841
0.00751249076
0.00750846651
0.00750449182
0.0075005042
0.00749656437
0.00749261522
0.00748870319
0.00748478227
0.007480905
0.00747702298
0.00747318353
0.00746934216
0.00746554231
0.00746174317
0.00745798468
0.00745422931
0.00745051387
0.00744680375
0.00744313294
0.0074394695
0.00743584485
0.00743222946
0.00742865241
0.00742508638
0.0074215583
0.00741804291
0.00741456509
0.00741110153
0.00740767524
0.00740426463
0.00740089105
0.00739753444
0.00739421473
0.00739091312
0.00738764833
0.00738440269
0.00738119381
0.00737800509
0.00737485296
0.00737172211
0.00736862752
0.00736555535
0.00736252451
0.00735952177
0.00735655404
0.00735361021
0.00735070097
0.00734781627
0.0073449656
0.00734214015
0.0073393481
0.00733658189
0.00733384849
0.00733114143
0.00732846664
0.00732581861
0.00732320231
0.00732061315
0.00731805514
0.00731552465
0.0073130247
0.00731055259
0.00730811045
0.00730569632
0.00730331174
0.00730095514
0.00729862781
0.00729632245
0.00729404262
0.00729179135
0.00728956873
0.0072873749
0.00728520905
0.00728307204
0.00728096244
0.00727888162
0.00727682767
0.00727480241
0.00727280348
0.00727083314
0.00726888859
0.00726697247
0.00726508164
0.00726321901
0.00726138126
0.00725957133
0.00725778602
0.00725602799
0.00725429466
0.00725259302
0.00725091488
0.00724926332
0.00724763437
0.00724603202
0.00724445158
0.00724289759
0.00724136493
0.00723985844
0.00723837281
0.007236913
0.00723547358
0.00723405963
0.00723266562
0.00723129667
0.00722994723
0.00722862244
0.00722731674
0.00722603525
0.00722477244
0.00722353338
0.00722231259
0.00722111509
0.00721993547
0.00721877863
0.00721763931
0.00721652226
0.00721542236
0.0072143442
0.00721328285
0.00721224268
0.007211219
0.00721021594
0.00720922904
0.00720826219
0.00720731119
0.00720637966
0.00720546368
0.00720456657
0.00720368473
0.00720282116
0.00720197259
0.00720114167
0.00720032549
0.00719952635
0.00719874168
0.00719797344
0.00719721944
0.00719648123
0.00719575703
0.007195048
0.00719435275
0.00719367205
0.0071930049
0.00719235169
0.00719171182
0.00719108527
0.00719047185
0.00718987114
0.00718928335
0.00718870768
0.00718814473
0.00718759329
0.00718705438
0.00718652641
0.00718601075
0.00718550547
0.00718501231
0.00718452896
0.00718405754
0.0071835954
0.00718314497
0.0071827033
0.00718227315
0.00718185124
0.00718144065
0.0071810378
0.00718064607
0.00718026162
0.00717988807
0.00717952134
0.00717916531
0.00717881566
0.00717847648
0.00717814328
0.00717782032
0.00717750295
0.0071771956
0.00717689346
0.0071766011
0.00717631362
0.00717603566
0.00717576226
0.00717549813
0.00717523825
0.0071749874
0.00717474051
0.00717450238
0.00717426797
0.00717404204
0.00717381959
0.00717360534
0.00717339436
0.0071731913
0.00717299132
0.00717279896
0.00717260951
0.00717242739
0.00717224803
0.00717207568
0.00717190597
0.00717174297
0.00717158249
0.00717142841
0.00717127674
0.00717113117
0.00717098794
0.00717085048
0.00717071529
0.00717058557
0.00717045805
0.00717033569
0.0071702155
0.00717010014
0.00716998693
0.00716987824
0.00716977167
0.00716966932
0.00716956908
0.00716947274
0.00716937853
0.00716928791
0.00716919941
0.00716911422
0.00716903116
0.00716895111
0.00716887321
0.00716879804
0.00716872504
0.00716865449
0.00716858614
0.00716851996
0.00716845601
0.00716839398
0.00716833419
0.00716827607
0.00716822023
0.00716816582
0.0071681137
0.00716806279
0.00716801419
0.0071679666
0.00716792132
0.00716787685
0.0071678347
0.00716779318
0.00716775399
0.00716771525
0.00716767884
0.00716764273
0.00716760893
0.0071675753
0.00716754395
0.00716751266
0.00716748361
0.00716745453
0.00716742764
0.00716740064
0.00716737576
0.00716735072
0.00716732773
0.00716730454
0.00716728331
0.00716726186
0.00716724228
0.00716722246
0.00716720441
0.00716718613
0.00716716952
0.00716715268
0.00716713739
0.00716712192
0.00716710787
0.00716709367
0.00716708076
0.00716706776
0.00716705546
0.00716704231
0.0071670295
0.007167016
0.00716700286
0.00716698929
0.00716697605
0.00716696277
0.00716694973
0.00716693714
0.00716692466
0.00716691323
0.00716690168
0.00716689189
0.00716688171
0.00716687396
0.0071668656
0.00716686016
0.00716685401
0.00716685106
0.00716684731
0.00716684694
0.00716684653
0.00716684663
0.00716684903
0.00716685082
0.00716685464
0.00716685815
0.00716686282
0.00716686714
0.00716687176
0.00716687981
0.00716688911
0.00716689553
0.00716689913
0.00716690105
0.00716690197
0.00716690236
0.00716690249
0.00716690252
0.00716690252
0.00716690251
0.00716690251
0.00716690251
0.0071669025
0.0071669025
0.0071669025
0.0071669025
0.0071669025
0.0071669025
0.0071669025
0.0071669025
0.0071669025
0.0071669025
0.0071669025
0.0071669025
0.0071669025
0.0071669025
0.0071669025
0.0071669025
0.0071669025
0.0071669025
0.0071669025
0.0071669025
0.0071669025
0.0071669025
0.0071669025
0.0071669025
0.0071669025
0.0071669025
0.0071669025
0.0071669025
0.0071669025
0.0071669025
0.0071669025
0.0071669025
0.0071669025
)
;

boundaryField
{
    closed
    {
        type            zeroGradient;
    }
    open
    {
        type            zeroGradient;
    }
    sides
    {
        type            empty;
    }
    procBoundary5to4
    {
        type            processor;
        value           uniform 0.00778776023;
    }
}


// ************************************************************************* //
