/*--------------------------------*- C++ -*----------------------------------*\
| =========                 |                                                 |
| \\      /  F ield         | OpenFOAM: The Open Source CFD Toolbox           |
|  \\    /   O peration     | Version:  2306                                  |
|   \\  /    A nd           | Website:  www.openfoam.com                      |
|    \\/     M anipulation  |                                                 |
\*---------------------------------------------------------------------------*/
FoamFile
{
    version     2.0;
    format      ascii;
    arch        "LSB;label=32;scalar=64";
    class       volScalarField;
    location    "0.00072";
    object      sourcePV;
}
// * * * * * * * * * * * * * * * * * * * * * * * * * * * * * * * * * * * * * //

dimensions      [1 -3 -1 0 0 0 0];

internalField   nonuniform List<scalar> 
530
(
0.410117559
0.399331386
0.391225126
0.381877783
0.374370428
0.365301713
0.358146022
0.348928315
0.341739179
0.332602896
0.325821858
0.317030911
0.310625731
0.302872061
0.297409653
0.290077596
0.284894282
0.277846676
0.272913675
0.266299182
0.261479955
0.255200916
0.250561033
0.244542947
0.239981187
0.23433744
0.229844117
0.224549685
0.220637894
0.216285034
0.212444348
0.208363128
0.204567548
0.200742607
0.196992707
0.19340851
0.189705247
0.186346731
0.182691076
0.179543791
0.175936954
0.172986753
0.169430849
0.166663187
0.163162127
0.160561134
0.157121391
0.154669011
0.151628348
0.149652845
0.146864676
0.144970959
0.142254314
0.140418717
0.137794823
0.136003428
0.133478175
0.131721738
0.129297381
0.127553829
0.125216122
0.123497645
0.121259061
0.119568026
0.117423924
0.115760239
0.113705522
0.112069328
0.110098891
0.10849028
0.106599242
0.105018132
0.103201936
0.101648003
0.0999024585
0.0983751279
0.0966963965
0.0951949197
0.0938466492
0.0926596589
0.0913997871
0.0902323059
0.0890178555
0.0878696148
0.0866986675
0.0855694317
0.0844401078
0.083329665
0.0822401412
0.0811482672
0.0800968063
0.0790232434
0.0780082083
0.0769526607
0.075972513
0.074934651
0.0739879429
0.0729674097
0.0720527731
0.0710491931
0.070165327
0.0691783156
0.0683239726
0.0673531467
0.0665271201
0.0655721059
0.06477322
0.0638336553
0.0630607574
0.0621362889
0.0613882378
0.0604785219
0.0597541656
0.0588588895
0.058157058
0.0572759711
0.0565956072
0.0557284427
0.0550691389
0.0542150574
0.0535779852
0.0527345045
0.0521217664
0.051300953
0.050704053
0.0498902951
0.0493003732
0.0486451969
0.0482217946
0.0476563432
0.0472348626
0.0466817307
0.0462634118
0.0457226829
0.0453074105
0.0447787625
0.0443666156
0.043849498
0.0434406668
0.0429344934
0.0425291772
0.042033407
0.0416317652
0.0411459208
0.0407480614
0.0402717264
0.0398777115
0.0394105207
0.0390203793
0.0385620068
0.0381757487
0.0377258924
0.0373435241
0.0369018885
0.0365234293
0.0360897075
0.035715205
0.0352890672
0.0349186078
0.0344997071
0.034130366
0.0337145273
0.0333496847
0.0329447526
0.0325871779
0.0321925361
0.0318420488
0.0314571633
0.0311135393
0.0307379387
0.0304009248
0.0300341819
0.0297035091
0.0293452308
0.0290206231
0.0286704434
0.0283516255
0.0280091978
0.0276959055
0.027360878
0.0270528856
0.0267248289
0.0264220195
0.0261002926
0.0257944652
0.0254686006
0.0251643476
0.0248429784
0.0245419631
0.0242248804
0.023927146
0.0236142463
0.0233197474
0.0230109456
0.0227196204
0.0224148249
0.0221266153
0.0218257233
0.0215405781
0.0212434754
0.0209613481
0.0206679116
0.0203887568
0.0200988593
0.0198226261
0.0195361434
0.0192627672
0.0189795886
0.0187089792
0.0184290198
0.0181610491
0.0178842579
0.0176187546
0.0173451067
0.0170818697
0.0168113364
0.0165501686
0.0162826861
0.0160234172
0.0157589398
0.0155774087
0.0154603439
0.0153461573
0.0152291351
0.0151151356
0.0149982591
0.0148844349
0.0147677935
0.0146541278
0.0145377988
0.0144242892
0.0143083241
0.0141949943
0.0140794197
0.013966316
0.0138511434
0.0137383221
0.0136235625
0.0135110713
0.0133967535
0.0132846108
0.0131707995
0.0130589846
0.0129457828
0.0128342595
0.0127128696
0.0125874247
0.0124614777
0.0123375876
0.0122131701
0.0120907429
0.0119678761
0.0118468629
0.0117255366
0.0116059192
0.0114861058
0.0113678755
0.0112495479
0.0111326915
0.011015834
0.0109003262
0.010784938
0.0106707407
0.010556831
0.0104438987
0.0103314744
0.0102198973
0.0101121622
0.0100051154
0.00989856907
0.00979284605
0.0096875197
0.00958307636
0.00947899443
0.00937580147
0.00927297377
0.00917101613
0.00906944217
0.00896871409
0.00886838894
0.00876888959
0.00866980773
0.00857153858
0.00847369558
0.00837665926
0.00828005218
0.00818425208
0.0080888794
0.00799431958
0.00790018095
0.00780686613
0.00771396216
0.00762189762
0.00753022971
0.00743942122
0.00734899141
0.00725944513
0.00717025599
0.0070819783
0.00699403284
0.00690703025
0.00682033182
0.00673461081
0.00664916301
0.00656472996
0.00648053654
0.00639739761
0.00631446237
0.00623262342
0.00615095014
0.00607041662
0.00599000899
0.00591078589
0.00583164743
0.00575373918
0.00567587317
0.00559928358
0.00552269301
0.00544742523
0.00537211274
0.00529816918
0.00522413701
0.00515151933
0.00507876931
0.00500747835
0.00493601181
0.0048660476
0.0047958654
0.0047272271
0.00465832957
0.00459101549
0.00452340242
0.00445740998
0.00439108062
0.00432640639
0.00426135942
0.00419799907
0.0041342326
0.00407218096
0.00400969256
0.00394894359
0.00388773022
0.00382827708
0.00376833515
0.00371017016
0.00365149552
0.00359461022
0.00353719812
0.00348158329
0.00342542846
0.00337107414
0.0033161707
0.00326306623
0.00320940777
0.00315754179
0.00310512134
0.00305448185
0.00300329186
0.00295386624
0.00290389862
0.00285567365
0.00280691976
0.00275988165
0.00271233228
0.00266646672
0.00262011209
0.00257540427
0.00253023407
0.00248666869
0.00244267202
0.00240023335
0.00235739877
0.00231607068
0.00227438618
0.00223415214
0.00219360515
0.00215444831
0.00211502571
0.0020769289
0.002038617
0.00200156277
0.00196434733
0.00192831801
0.00189218426
0.00185716196
0.00182209458
0.00178806126
0.00175404439
0.00172098189
0.00168799916
0.00165588922
0.00162392376
0.0015927481
0.00156178253
0.00153152287
0.00150153933
0.00147217742
0.0014431576
0.00141467528
0.00138660044
0.00135897968
0.00133183064
0.00130505357
0.00127881075
0.00125285971
0.00122750319
0.00120236075
0.00117787022
0.00115351923
0.00112987411
0.0011062977
0.0010834771
0.00106065875
0.00103864153
0.00101656506
0.000995329848
0.000973979441
0.000953504703
0.000932864905
0.000913128952
0.000893184693
0.000874165731
0.000854902317
0.000836578491
0.000817981597
0.00080033103
0.000782386691
0.000765387535
0.000748082127
0.000731712606
0.000715032826
0.000699271286
0.000683204122
0.000668029086
0.00065256179
0.000637952001
0.000623072055
0.000609006533
0.000594701613
0.000581159701
0.000567417642
0.000554379062
0.000541187815
0.000528632713
0.000515980313
0.00050388931
0.000491763835
0.000480118067
0.000468507604
0.000457288772
0.000446181383
0.000435371786
0.000424744295
0.000413933522
0.000402683762
0.000390774672
0.000378572309
0.000365527758
0.000352424834
0.000338228017
0.00032432846
0.000308989245
0.00029446151
0.000278023629
0.00026311206
0.000245661385
0.000230693958
0.000212367292
0.000197757056
0.000178750562
0.000164987659
0.000145573399
0.000133179314
0.000113833618
0.000103058469
8.50011338e-05
7.48272983e-05
5.99970729e-05
4.92114135e-05
3.78050901e-05
2.83657594e-05
1.94540685e-05
1.19823998e-05
5.46368737e-06
9.94553124e-08
9.94535792e-08
9.94524566e-08
9.9451867e-08
9.94515819e-08
9.94514658e-08
9.94514311e-08
9.94514291e-08
9.94514354e-08
9.94514409e-08
9.94514458e-08
9.94514483e-08
9.94514496e-08
9.945145e-08
9.94514502e-08
9.94514503e-08
9.94514503e-08
9.94514503e-08
9.94514503e-08
9.94514503e-08
9.94514503e-08
9.94514503e-08
9.94514503e-08
9.94514503e-08
9.94514503e-08
9.94514503e-08
9.94514503e-08
9.94514503e-08
9.94514503e-08
9.94514503e-08
9.94514503e-08
9.94514503e-08
9.94514503e-08
9.94514503e-08
9.94514503e-08
9.94514503e-08
9.94514503e-08
9.94514503e-08
9.94514503e-08
9.94514503e-08
9.94514503e-08
9.94514503e-08
9.94514503e-08
9.94514503e-08
9.94514503e-08
9.94514503e-08
)
;

boundaryField
{
    closed
    {
        type            calculated;
        value           nonuniform List<scalar> 0();
    }
    open
    {
        type            calculated;
        value           uniform 0;
    }
    sides
    {
        type            empty;
    }
    procBoundary5to4
    {
        type            processor;
        value           uniform 0;
    }
}


// ************************************************************************* //
