/*--------------------------------*- C++ -*----------------------------------*\
| =========                 |                                                 |
| \\      /  F ield         | OpenFOAM: The Open Source CFD Toolbox           |
|  \\    /   O peration     | Version:  2306                                  |
|   \\  /    A nd           | Website:  www.openfoam.com                      |
|    \\/     M anipulation  |                                                 |
\*---------------------------------------------------------------------------*/
FoamFile
{
    version     2.0;
    format      ascii;
    arch        "LSB;label=32;scalar=64";
    class       volScalarField;
    location    "0.00186";
    object      H2O;
}
// * * * * * * * * * * * * * * * * * * * * * * * * * * * * * * * * * * * * * //

dimensions      [0 0 0 0 0 0 0];

internalField   nonuniform List<scalar> 
530
(
0.00172144558
0.00446571558
0.00453413788
0.00450997646
0.00450724324
0.00450714167
0.00450713576
0.00450713545
0.00450713543
0.00450713542
0.00450713542
0.00450713542
0.00450713542
0.00450713542
0.00450713542
0.00450713542
0.00450713542
0.00450713542
0.00450713542
0.00450713542
0.00450713542
0.00450713542
0.00450713542
0.00450713542
0.00450713542
0.00450713542
0.00450713542
0.00450713542
0.00450713542
0.00450713542
0.00450713542
0.00450713542
0.00450713542
0.00450713542
0.00450713542
0.00450713542
0.00450713542
0.00450713542
0.00450713542
0.00450713542
0.00450713542
0.00450713542
0.00450713542
0.00450713542
0.00450713542
0.00450713542
0.00450713542
0.00450713542
0.00450713542
0.00450713542
0.00450713542
0.00450713542
0.00450713542
0.00450713542
0.00450713542
0.00450713543
0.00450713543
0.00450713543
0.00450713543
0.00450713546
0.00450713551
0.00450713568
0.00450713607
0.00450713707
0.00450713868
0.00450714263
0.00450714714
0.00450718083
0.0045071822
0.00450717581
0.00450743744
0.00450754932
0.00450732045
0.00450742655
0.00450910094
0.0045089208
0.00450829611
0.00450724965
0.00450863121
0.00451663217
0.00452741214
0.00454519021
0.00452662532
0.004294007
0.00433549698
0.00504018831
0.0063573294
0.0061014463
0.000740890557
0.00103957481
0.00280088207
0.006746018
0.00701331311
0.00693741086
0.00737434916
0.00661181128
0.000925560674
0.0010292664
0.000977868633
0.000994514856
0.00106847698
0.000903498217
0.00669806139
0.00717057696
0.00692452965
0.00712650481
0.00715723649
0.00709040651
0.00741517027
0.00567983535
0.00100684754
0.00106515088
0.00100124038
0.000980746075
0.00103324163
0.000822084322
0.00739702937
0.00750398266
0.00721368596
0.00722332624
0.00746218817
0.00613075186
0.0010703589
0.00107015249
0.000979577062
0.00103752067
0.000911644689
0.00104424044
0.000730346669
0.00748023236
0.00756523202
0.00711363412
0.00708570315
0.00711849237
0.00550950824
0.0010911272
0.000941587578
0.00654957613
0.00706159391
0.00694541312
0.00463736992
0.00104420095
0.00101475066
0.00102879148
0.000756531454
0.0076288374
0.00776840983
0.00566277963
0.00104258141
0.000871673864
0.00703895512
0.00722778203
0.00530943711
0.00105441175
0.000825226075
0.0066948774
0.00564415065
0.00110345213
0.000880409314
0.00686347644
0.00710992291
0.00494253252
0.00106962244
0.000847083947
0.00709242532
0.00727149333
0.00502562397
0.00112171076
0.00112184343
0.000887604132
0.0059991564
0.00707204995
0.00514502504
0.0010784341
0.000858777188
0.00686788921
0.00711646008
0.00484704004
0.00108467825
0.000886363106
0.00672909878
0.00704262275
0.00694242105
0.00708761555
0.00724341266
0.00576509015
0.00101204941
0.00160874956
0.00720273998
0.00612739361
0.000994374738
0.00106871475
0.00197714907
0.00679840133
0.005624358
0.00105179386
0.00110796001
0.000740260048
0.0072681284
0.00735627855
0.00712537544
0.00574280992
0.00101870729
0.00178741208
0.00699306424
0.00590738161
0.00103480403
0.00180144234
0.00691045025
0.00581549402
0.00103971944
0.00180871629
0.00688956487
0.00577596901
0.00104080402
0.00181151278
0.00685963677
0.00565964589
0.00104405283
0.00114154101
0.00753973775
0.00754823408
0.00527350938
0.0010021084
0.00188535663
0.00695792048
0.00567227581
0.00103282483
0.0013526653
0.00760366196
0.0076144969
0.00521779887
0.00098597656
0.00227505032
0.0070724582
0.00567616628
0.00100889761
0.00251929971
0.00701696813
0.00558817612
0.00100911321
0.00258352997
0.00700268286
0.00553097581
0.00100958167
0.00261420488
0.00697126588
0.00546155987
0.00101323653
0.00260394362
0.00691083618
0.00532252242
0.00102225317
0.00201430794
0.00754591443
0.00753793423
0.0046846061
0.00097760747
0.00275792311
0.0069862869
0.00519232525
0.0010103942
0.00287072351
0.00682554225
0.00499459189
0.00102360263
0.00238285292
0.00743231035
0.00738401444
0.00415081042
0.000979905387
0.00309049919
0.00687039739
0.00473948543
0.00101422753
0.00276522136
0.00741532157
0.00732682617
0.00386837259
0.00097252093
0.00356549623
0.00687787574
0.00439173053
0.000992190679
0.00392262453
0.0066995823
0.0039037561
0.00101657201
0.00330101552
0.00733056221
0.00714047104
0.0029083215
0.000957345032
0.00473306924
0.00663999694
0.00309395555
0.00103410118
0.00321370605
0.00720479668
0.00720381153
0.00705639531
0.00695849102
0.00291895631
0.00094861897
0.00527137149
0.00665431543
0.00258030734
0.00103022181
0.00347759778
0.00719322916
0.00697269775
0.00320226728
0.00102540721
0.0026301151
0.00716319522
0.00701483936
0.00315037637
0.00102985256
0.00251371146
0.00712636679
0.00698484176
0.00314625615
0.00103586858
0.0021017255
0.00717705897
0.00711436429
0.00380151832
0.00106180617
0.000757029793
0.00689182642
0.00689266378
0.00326930554
0.00106121074
0.000780910236
0.00741841205
0.00743508014
0.00671316009
0.00219951282
0.000950127474
0.00628750532
0.00648416568
0.00083372844
0.00105665464
0.00354561324
0.00716874745
0.00705095278
0.00385216105
0.0010475654
0.000698408154
0.00722519939
0.00725391613
0.00398389922
0.00104250216
0.000724504098
0.00727107293
0.00731475172
0.00413307497
0.00104485139
0.000748381864
0.00720658548
0.00725729879
0.00374774243
0.00103714429
0.000789674048
0.0075394079
0.00761639993
0.00701242706
0.00233279906
0.000858204642
0.00632113807
0.00593694523
0.00109078273
0.000993320813
0.00619518777
0.00735835212
0.00685943376
0.000794546141
0.000904835688
0.00651533868
0.00604272421
0.00109284065
0.00102135451
0.00616653094
0.00741556156
0.0068328477
0.000908132247
0.000934789488
0.00674643514
0.00641615018
0.00107428097
0.00104609855
0.00604727617
0.00746485851
0.00681877994
0.000952575675
0.000983921124
0.00679842562
0.00662707999
0.00107280929
0.00107133701
0.00575551515
0.00751916905
0.00686543004
0.000958706987
0.001052183
0.00437052529
0.00743334768
0.00704249455
0.00101602672
0.00104977573
0.00522458376
0.00753844562
0.00712826886
0.000989746457
0.00103675619
0.00548826681
0.00768474205
0.00737398809
0.0009320793
0.00104490021
0.00693388529
0.00713530689
0.000904343346
0.00105996073
0.00677264092
0.00703313163
0.000897645885
0.00107444339
0.00660095338
0.00683102366
0.000918994778
0.00106655529
0.00537373475
0.00744722743
0.00731932429
0.000945102063
0.00105985209
0.00639824271
0.00679533886
0.000885962242
0.00109164191
0.00624657752
0.00653281524
0.000900854274
0.00111160829
0.00493466221
0.00671874479
0.00718631055
0.00714552792
0.000912913198
0.00107760137
0.00390023925
0.00684777853
0.00695738821
0.00751078551
0.00741372762
0.000862686498
0.00101110324
0.00639484012
0.00669089189
0.000836183726
0.00103238094
0.00545877197
0.00742725633
0.00724266964
0.000891528269
0.000995406984
0.0062609045
0.00668951879
0.000841017885
0.00100554146
0.00631610515
0.00660853184
0.000826530986
0.00100024838
0.00625308754
0.00646110066
0.000824208346
0.00100231634
0.00545181005
0.00737885114
0.00693821626
0.000864735213
0.000966918767
0.00539610507
0.00741842164
0.00690424057
0.00085686001
0.000950005613
0.0055127765
0.007421406
0.00684307996
0.000852519471
0.000938592269
0.00559212641
0.00740399506
0.00688806501
0.000850404498
0.000917472305
0.00618163881
0.00641312789
0.000777619314
0.000940562681
0.00570928852
0.00735541613
0.00679988297
0.000864869546
0.000910910413
0.00617426583
0.00636935633
0.000794272138
0.000932928357
0.00577480932
0.00734938886
0.00661364083
0.000883783722
0.000922724816
0.00571591031
0.00735929367
0.00677190266
0.000948414881
0.00108015737
0.000918313524
0.00511877481
0.00702498689
0.00707016052
0.00741297417
0.00689011685
0.000870499222
0.00107178635
)
;

boundaryField
{
    closed
    {
        type            calculated;
        value           uniform 1.62081982e-06;
    }
    open
    {
        type            calculated;
        value           nonuniform List<scalar> 0();
    }
    sides
    {
        type            empty;
    }
    procBoundary0to1
    {
        type            processor;
        value           uniform 0.000907894818;
    }
}


// ************************************************************************* //
