/*--------------------------------*- C++ -*----------------------------------*\
| =========                 |                                                 |
| \\      /  F ield         | OpenFOAM: The Open Source CFD Toolbox           |
|  \\    /   O peration     | Version:  2306                                  |
|   \\  /    A nd           | Website:  www.openfoam.com                      |
|    \\/     M anipulation  |                                                 |
\*---------------------------------------------------------------------------*/
FoamFile
{
    version     2.0;
    format      ascii;
    arch        "LSB;label=32;scalar=64";
    class       surfaceScalarField;
    location    "0.00072";
    object      phi;
}
// * * * * * * * * * * * * * * * * * * * * * * * * * * * * * * * * * * * * * //

dimensions      [1 0 -1 0 0 0 0];

oriented        oriented;

internalField   nonuniform List<scalar> 
530
(
1.19296427e-06
1.22076177e-06
1.2266035e-06
1.25041741e-06
1.2865042e-06
1.29856952e-06
1.31926494e-06
1.51790052e-06
1.51997705e-06
1.39104561e-06
1.40858769e-06
1.41081394e-06
1.46243926e-06
1.48348309e-06
1.45643986e-06
1.52167642e-06
1.53336208e-06
1.54805135e-06
1.56767837e-06
1.57292669e-06
1.50945588e-06
1.52096493e-06
1.52526401e-06
1.54971658e-06
1.57596839e-06
1.52166955e-06
1.53053582e-06
1.53196232e-06
1.56935363e-06
1.57770715e-06
1.51005249e-06
1.54149404e-06
1.54015177e-06
1.55544462e-06
1.57882632e-06
1.6063285e-06
1.51334919e-06
1.52440812e-06
1.52422448e-06
1.54194824e-06
1.56530882e-06
1.4998643e-06
1.51845538e-06
1.52492184e-06
1.53578337e-06
1.6217843e-06
1.64854983e-06
1.59454873e-06
1.612989e-06
1.69131291e-06
1.84006999e-06
1.81994958e-06
1.74778881e-06
1.74734998e-06
1.77744438e-06
1.77053363e-06
1.77067917e-06
1.77136165e-06
1.79728839e-06
1.7827554e-06
1.80767847e-06
1.77222807e-06
1.77968663e-06
1.84419684e-06
1.90710118e-06
1.88797234e-06
1.85705397e-06
1.86248469e-06
1.86496633e-06
1.86986751e-06
1.90280704e-06
1.83740967e-06
1.84695601e-06
1.85092779e-06
1.86487939e-06
1.853932e-06
1.72415179e-06
1.71366975e-06
1.70269591e-06
1.86357076e-06
1.8719042e-06
1.81697583e-06
1.83536674e-06
1.83077326e-06
1.81882254e-06
1.79555987e-06
1.75170151e-06
1.79175172e-06
1.79216382e-06
1.78707095e-06
1.78586739e-06
1.77752783e-06
1.76792475e-06
1.70445697e-06
1.75658937e-06
1.75490919e-06
1.78289694e-06
1.74953178e-06
1.73006779e-06
1.7377147e-06
1.73203782e-06
1.68225629e-06
1.67726854e-06
1.688007e-06
1.68107912e-06
1.64851795e-06
1.64000545e-06
1.64597176e-06
1.63977784e-06
1.62442469e-06
1.61556981e-06
1.60448242e-06
1.58739045e-06
1.62601448e-06
1.5971228e-06
1.59221596e-06
1.5901221e-06
1.56424927e-06
1.54788941e-06
1.50301502e-06
1.49742889e-06
1.49266028e-06
1.47785657e-06
1.47593527e-06
1.46709254e-06
1.46121974e-06
1.44573143e-06
1.37290441e-06
1.36845628e-06
1.34514305e-06
1.34553e-06
1.30909367e-06
1.23353705e-06
1.20724819e-06
1.18357768e-06
1.35377912e-06
1.32049513e-06
1.26345536e-06
1.27304201e-06
1.25256249e-06
1.23839947e-06
1.2172517e-06
1.16364651e-06
1.15721491e-06
1.1441395e-06
1.15831577e-06
1.14112823e-06
1.12575643e-06
1.11495487e-06
1.08303821e-06
1.07338618e-06
1.0625567e-06
1.01892392e-06
9.90883762e-07
1.13506833e-06
1.10218452e-06
1.01516348e-06
9.67945425e-07
9.30092461e-07
9.39586835e-07
9.18607106e-07
9.06212163e-07
8.84770465e-07
8.96575461e-07
8.46591023e-07
7.82888056e-07
7.39931269e-07
7.13312676e-07
7.28868723e-07
7.05501581e-07
7.00937618e-07
6.77326613e-07
6.44290401e-07
5.9561908e-07
5.79346197e-07
5.55975225e-07
5.10820722e-07
5.11341115e-07
4.81198814e-07
4.65062878e-07
4.35833059e-07
4.03015582e-07
3.5778561e-07
3.26580968e-07
2.81452264e-07
2.8161823e-07
2.89281124e-07
2.60468391e-07
2.36274749e-07
1.09511145e-07
6.53074253e-08
8.2617724e-08
5.36032668e-08
1.06158055e-07
2.36461775e-08
-5.16443117e-08
-1.90617484e-08
-5.31626873e-08
-2.37199851e-07
-2.55244292e-07
-2.34006196e-07
-2.6528494e-07
-3.21498565e-07
-3.99419276e-07
-3.97307458e-07
-3.80248493e-07
-4.19053795e-07
-6.08481237e-07
-5.92805768e-07
-5.80504666e-07
-6.11363144e-07
-6.84345451e-07
-7.46980607e-07
-7.16405999e-07
-6.98774864e-07
-7.36126678e-07
-8.12904941e-07
-8.72044889e-07
-7.60181024e-07
-7.70356663e-07
-7.92291924e-07
-8.26190308e-07
-8.58839228e-07
-9.4837706e-07
-9.55053452e-07
-8.3996953e-07
-8.49719173e-07
-8.70434354e-07
-8.95109857e-07
-9.25693572e-07
-9.55766304e-07
-9.38953521e-07
-9.29641318e-07
-9.68246967e-07
-1.12729924e-06
-1.04431055e-06
-1.03653352e-06
-1.0655399e-06
-1.14728046e-06
-1.20133256e-06
-1.07433294e-06
-1.06640567e-06
-1.06601358e-06
-1.06085618e-06
-1.08878944e-06
-1.23947491e-06
-1.33022844e-06
-1.3429764e-06
-1.19249314e-06
-1.18121651e-06
-1.19267374e-06
-1.17452452e-06
-1.19497155e-06
-1.28023619e-06
-1.29912746e-06
-1.13652936e-06
-1.12858449e-06
-1.14265016e-06
-1.19776691e-06
-1.21444903e-06
-1.05945736e-06
-1.06603165e-06
-1.08210959e-06
-1.21252797e-06
-1.13388726e-06
-1.12947428e-06
-1.14271895e-06
-1.26405338e-06
-1.1813918e-06
-1.17539356e-06
-1.18891405e-06
-1.29802672e-06
-1.20820779e-06
-1.19898423e-06
-1.20473869e-06
-1.24926303e-06
-1.2528456e-06
-1.12056316e-06
-1.11209915e-06
-1.11113829e-06
-1.15553101e-06
-1.16534524e-06
-1.05284637e-06
-1.04799322e-06
-1.04851484e-06
-1.13898682e-06
-1.05088463e-06
-1.04569344e-06
-1.0467476e-06
-1.06729199e-06
-1.064659e-06
-9.55741178e-07
-9.49611935e-07
-9.45541118e-07
-9.51334165e-07
-9.21963595e-07
-8.97544321e-07
-8.94638276e-07
-8.92213691e-07
-8.88382744e-07
-9.10438828e-07
-9.28589547e-07
-9.30045982e-07
-9.11614758e-07
-8.25571439e-07
-8.21099846e-07
-8.21530948e-07
-8.63301495e-07
-8.10806349e-07
-8.11026533e-07
-8.02334871e-07
-7.89176652e-07
-8.19866246e-07
-7.59548175e-07
-7.60191548e-07
-7.51343507e-07
-7.65623057e-07
-7.65051564e-07
-6.77205353e-07
-6.76671386e-07
-6.65244444e-07
-7.1259829e-07
-6.71632096e-07
-6.72357135e-07
-6.64000991e-07
-6.80205214e-07
-6.73202448e-07
-5.96821004e-07
-5.97412742e-07
-5.85605621e-07
-6.26089291e-07
-5.96321287e-07
-5.98108473e-07
-5.89598043e-07
-6.05436495e-07
-6.00259703e-07
-5.34937505e-07
-5.37037139e-07
-5.25568989e-07
-5.62011946e-07
-5.41465041e-07
-5.4488227e-07
-5.37400984e-07
-5.55567762e-07
-5.52715713e-07
-4.96471645e-07
-5.00705705e-07
-4.90478544e-07
-5.23966596e-07
-5.1045494e-07
-5.16087423e-07
-5.093376e-07
-5.2884946e-07
-5.21744282e-07
-4.73592892e-07
-4.77980588e-07
-4.69308496e-07
-4.9575105e-07
-4.88513685e-07
-4.49102489e-07
-4.56885249e-07
-4.50613756e-07
-4.66826717e-07
-4.7104952e-07
-4.38817554e-07
-4.46864262e-07
-4.40409818e-07
-4.60487199e-07
-4.6528816e-07
-4.76577546e-07
-4.72088343e-07
-4.95866761e-07
-4.98708367e-07
-5.00327049e-07
-5.14358813e-07
-5.06766103e-07
-5.17460288e-07
-5.1823011e-07
-5.48207389e-07
-5.47153405e-07
-5.23336864e-07
-5.33806289e-07
-5.33545552e-07
-5.67283035e-07
-5.77377877e-07
-5.4468017e-07
-5.59052555e-07
-5.51867124e-07
-5.8150444e-07
-5.76000006e-07
-5.84737829e-07
-5.99325927e-07
-5.96735791e-07
-6.12350234e-07
-6.17104387e-07
-6.18992561e-07
-6.255411e-07
-6.36723512e-07
-6.45973178e-07
-6.81577047e-07
-6.99903566e-07
-6.65087945e-07
-6.70244803e-07
-6.73773452e-07
-6.72454984e-07
-7.00331511e-07
-6.90304322e-07
-7.01547349e-07
-7.11765939e-07
-7.15225838e-07
-7.939594e-07
-7.91399943e-07
-7.36126656e-07
-7.43709018e-07
-7.47155583e-07
-7.81650003e-07
-7.77960857e-07
-7.17372256e-07
-7.26191617e-07
-7.25585628e-07
-7.63176932e-07
-7.55475362e-07
-7.0227069e-07
-7.11360249e-07
-7.08518078e-07
-7.35323134e-07
-7.26882114e-07
-6.72719555e-07
-6.79274894e-07
-6.75381372e-07
-7.02560578e-07
-6.9265152e-07
-6.42748921e-07
-6.49003767e-07
-6.43994941e-07
-6.61874235e-07
-6.58773995e-07
-6.15354188e-07
-6.18977671e-07
-6.09650858e-07
-6.11408123e-07
-6.06190236e-07
-6.10533875e-07
-6.04868462e-07
-6.14375616e-07
-6.09379003e-07
-5.69025816e-07
-5.69682272e-07
-5.53040393e-07
-5.4993962e-07
-5.46016973e-07
-5.46242943e-07
-5.3495963e-07
-5.39131438e-07
-5.30032427e-07
-4.92993119e-07
-4.89217104e-07
-4.63591021e-07
-4.55486552e-07
-4.54280576e-07
-4.49591435e-07
-4.31560761e-07
-4.31935779e-07
-4.09960388e-07
-3.73265226e-07
-3.6585325e-07
-3.42701005e-07
-3.41697644e-07
-3.21962187e-07
-2.90648479e-07
-2.79440136e-07
-2.39642969e-07
-2.25512572e-07
-2.33127191e-07
-2.22590331e-07
-1.98607307e-07
-1.95339457e-07
-1.91225038e-07
-1.56787263e-07
-1.43716896e-07
-1.27300331e-07
-1.10911851e-07
-7.5615218e-08
-3.8678313e-08
-5.72210149e-08
-4.454698e-08
-9.99749357e-09
4.99932501e-09
2.40841914e-08
3.03461911e-08
4.51451241e-08
9.26718019e-08
1.21332466e-07
9.76035526e-08
1.05801892e-07
1.40736738e-07
1.5721697e-07
1.81609708e-07
1.79763916e-07
1.91788058e-07
2.36304833e-07
2.70480904e-07
2.3510467e-07
2.44391187e-07
2.93628642e-07
3.28761116e-07
3.08117567e-07
3.07399656e-07
3.41421051e-07
3.56354846e-07
3.78808622e-07
3.92445878e-07
3.98604033e-07
4.26036934e-07
4.41264054e-07
4.82666306e-07
4.69832114e-07
4.73113194e-07
5.08166156e-07
5.22810278e-07
5.47145309e-07
5.09275255e-07
5.14753802e-07
5.44501892e-07
6.1048389e-07
6.01836088e-07
5.8277747e-07
6.13757218e-07
6.2732261e-07
6.63199521e-07
)
;

boundaryField
{
    closed
    {
        type            calculated;
        value           nonuniform List<scalar> 0();
    }
    open
    {
        type            calculated;
        value           nonuniform List<scalar> 0();
    }
    sides
    {
        type            empty;
        value           nonuniform List<scalar> 0();
    }
    procBoundary3to2
    {
        type            processor;
        value           uniform -1.264901e-06;
    }
    procBoundary3to4
    {
        type            processor;
        value           uniform 6.39794853e-07;
    }
}


// ************************************************************************* //
