/*--------------------------------*- C++ -*----------------------------------*\
| =========                 |                                                 |
| \\      /  F ield         | OpenFOAM: The Open Source CFD Toolbox           |
|  \\    /   O peration     | Version:  2306                                  |
|   \\  /    A nd           | Website:  www.openfoam.com                      |
|    \\/     M anipulation  |                                                 |
\*---------------------------------------------------------------------------*/
FoamFile
{
    version     2.0;
    format      ascii;
    arch        "LSB;label=32;scalar=64";
    class       volScalarField;
    location    "0.00072";
    object      prefDPV_H2O;
}
// * * * * * * * * * * * * * * * * * * * * * * * * * * * * * * * * * * * * * //

dimensions      [1 -1 -1 0 0 0 0];

internalField   nonuniform List<scalar> 
531
(
-3.66375986e-07
-3.84337316e-07
-3.83782634e-07
-3.6776803e-07
-3.64003826e-07
-3.68281839e-07
-3.84710787e-07
-3.80436065e-07
-3.65160032e-07
-3.6612589e-07
-3.84760159e-07
-3.84017373e-07
-3.77567663e-07
-3.62886459e-07
-3.62870788e-07
-3.86060399e-07
-3.84061633e-07
-3.77850188e-07
-3.66250375e-07
-3.64669337e-07
-3.65600742e-07
-3.8459884e-07
-3.83788578e-07
-3.72896593e-07
-3.64656196e-07
-3.65368633e-07
-3.84490873e-07
-3.84071358e-07
-3.73862534e-07
-3.64286888e-07
-3.65647544e-07
-3.85514565e-07
-3.83331613e-07
-3.84604986e-07
-3.6686601e-07
-3.63488697e-07
-3.6560572e-07
-3.84701292e-07
-3.8412878e-07
-3.68010741e-07
-3.63341185e-07
-3.65429781e-07
-3.85432098e-07
-3.83584648e-07
-3.84373426e-07
-3.65778637e-07
-3.636735e-07
-3.71188378e-07
-3.84845104e-07
-3.85207243e-07
-3.64621543e-07
-3.63133139e-07
-3.75504066e-07
-3.84831505e-07
-3.66562178e-07
-3.64478014e-07
-3.85648043e-07
-3.84522434e-07
-3.77672284e-07
-3.63753954e-07
-3.63718083e-07
-3.86272671e-07
-3.84184532e-07
-3.81285722e-07
-3.65679925e-07
-3.64436636e-07
-3.69777674e-07
-3.84540463e-07
-3.83840716e-07
-3.66998499e-07
-3.64024871e-07
-3.72471968e-07
-3.84297881e-07
-3.84429307e-07
-3.66507723e-07
-3.63501169e-07
-3.66279322e-07
-3.85888114e-07
-3.83908802e-07
-3.84454016e-07
-3.63653037e-07
-3.6345941e-07
-3.86491071e-07
-3.84749945e-07
-3.7636775e-07
-3.63275473e-07
-3.63249091e-07
-3.86206004e-07
-3.84067655e-07
-3.8447902e-07
-3.70552502e-07
-3.65826554e-07
-3.63426343e-07
-3.63486005e-07
-3.86300704e-07
-3.84574008e-07
-3.79065992e-07
-3.64627746e-07
-3.6449916e-07
-3.86028646e-07
-3.84108748e-07
-3.66506707e-07
-3.64902375e-07
-3.85699575e-07
-3.83914235e-07
-3.66298657e-07
-3.65256012e-07
-3.81434597e-07
-3.83789305e-07
-3.8389275e-07
-3.68831765e-07
-3.65827002e-07
-3.63447246e-07
-3.63544855e-07
-3.86120087e-07
-3.84125002e-07
-3.84591636e-07
-3.66368238e-07
-3.6387458e-07
-3.79596509e-07
-3.8472712e-07
-3.84179493e-07
-3.8444509e-07
-3.70877435e-07
-3.64918163e-07
-3.65313464e-07
-3.64167334e-07
-3.6474494e-07
-3.84907245e-07
-3.83998026e-07
-3.75307218e-07
-3.65043475e-07
-3.65487111e-07
-3.85526596e-07
-3.8413714e-07
-3.84597364e-07
-3.63569032e-07
-3.63576877e-07
-3.86422635e-07
-3.84011783e-07
-3.84641226e-07
-3.69400598e-07
-3.65803298e-07
-3.62544414e-07
-3.62530772e-07
-3.86160023e-07
-3.84030785e-07
-3.84847229e-07
-3.68823667e-07
-3.63828166e-07
-3.67057164e-07
-3.84991067e-07
-3.84018932e-07
-3.84229732e-07
-3.82221116e-07
-3.65755679e-07
-3.65008978e-07
-3.6276042e-07
-3.6273967e-07
-3.86347953e-07
-3.84569069e-07
-3.85527914e-07
-3.84284332e-07
-3.80341769e-07
-3.65790478e-07
-3.65451309e-07
-3.63037301e-07
-3.63064047e-07
-3.85956697e-07
-3.84502457e-07
-3.84919255e-07
-3.8422722e-07
-3.74476021e-07
-3.65469776e-07
-3.65299236e-07
-3.63694491e-07
-3.64791664e-07
-3.85070592e-07
-3.83907429e-07
-3.84284982e-07
-3.83908171e-07
-3.72602702e-07
-3.6535721e-07
-3.65666375e-07
-3.63630969e-07
-3.63687554e-07
-3.85472412e-07
-3.84293979e-07
-3.84640429e-07
-3.65749271e-07
-3.64407109e-07
-3.86017093e-07
-3.8450643e-07
-3.84152315e-07
-3.63525435e-07
-3.63270577e-07
-3.85658242e-07
-3.84509416e-07
-3.65127015e-07
-3.6441873e-07
-3.85547074e-07
-3.84451756e-07
-3.80116477e-07
-3.63657382e-07
-3.63730171e-07
-3.85411252e-07
-3.84402987e-07
-3.65183535e-07
-3.64545744e-07
-3.85403918e-07
-3.84326569e-07
-3.8005389e-07
-3.63942971e-07
-3.64033993e-07
-3.84849832e-07
-3.84501547e-07
-3.71612756e-07
-3.63901512e-07
-3.64274349e-07
-3.84950731e-07
-3.83853879e-07
-3.84446757e-07
-3.68401707e-07
-3.65312531e-07
-3.63215824e-07
-3.63406819e-07
-3.85212834e-07
-3.83889752e-07
-3.84826e-07
-3.68541751e-07
-3.64275633e-07
-3.66086555e-07
-3.84230425e-07
-3.83875835e-07
-3.66306395e-07
-3.64420838e-07
-3.84335115e-07
-3.84465634e-07
-3.72903691e-07
-3.63281245e-07
-3.63719413e-07
-3.85432212e-07
-3.85048071e-07
-3.85037537e-07
-3.8522041e-07
-3.65378553e-07
-3.64354799e-07
-3.62370912e-07
-3.62759724e-07
-3.85517689e-07
-3.84908189e-07
-3.84869584e-07
-3.84878554e-07
-3.73713823e-07
-3.62939413e-07
-3.6345727e-07
-3.84514756e-07
-3.84769196e-07
-3.70629029e-07
-3.63273111e-07
-3.63669447e-07
-3.84593586e-07
-3.84426872e-07
-3.65295648e-07
-3.64638331e-07
-3.84464969e-07
-3.84259185e-07
-3.65098324e-07
-3.64876153e-07
-3.84368688e-07
-3.84236639e-07
-3.6527106e-07
-3.65039412e-07
-3.8402079e-07
-3.84245045e-07
-3.71132836e-07
-3.64344669e-07
-3.64855708e-07
-3.84059075e-07
-3.84256707e-07
-3.71820632e-07
-3.6449798e-07
-3.64930433e-07
-3.84168379e-07
-3.84252363e-07
-3.65362957e-07
-3.64626808e-07
-3.83756578e-07
-3.84269512e-07
-3.6856685e-07
-3.64442405e-07
-3.649299e-07
-3.83782332e-07
-3.84280328e-07
-3.67240304e-07
-3.64250118e-07
-3.72334361e-07
-3.83998713e-07
-3.83344171e-07
-3.84144073e-07
-3.72203335e-07
-3.65297544e-07
-3.65302633e-07
-3.64038094e-07
-3.64344055e-07
-3.84433025e-07
-3.84646643e-07
-3.64708223e-07
-3.64841454e-07
-3.84755266e-07
-3.84194335e-07
-3.85055317e-07
-3.63996375e-07
-3.63526824e-07
-3.83841669e-07
-3.84740288e-07
-3.68497312e-07
-3.64118309e-07
-3.6484606e-07
-3.84124436e-07
-3.84309802e-07
-3.65454397e-07
-3.65010883e-07
-3.83567587e-07
-3.8439221e-07
-3.69302147e-07
-3.64039319e-07
-3.64807026e-07
-3.84062206e-07
-3.84277931e-07
-3.65258787e-07
-3.64998045e-07
-3.83543998e-07
-3.84389762e-07
-3.69100669e-07
-3.64043442e-07
-3.64904809e-07
-3.84069668e-07
-3.84261122e-07
-3.65190161e-07
-3.65080943e-07
-3.8354724e-07
-3.84384028e-07
-3.69441996e-07
-3.64060362e-07
-3.64986168e-07
-3.8409061e-07
-3.84231445e-07
-3.65112991e-07
-3.65177976e-07
-3.83568896e-07
-3.84331734e-07
-3.69586904e-07
-3.64267911e-07
-3.65260303e-07
-3.83813978e-07
-3.84187953e-07
-3.7112897e-07
-3.64294834e-07
-3.65275898e-07
-3.83718416e-07
-3.84343713e-07
-3.6807402e-07
-3.64163577e-07
-3.65100877e-07
-3.84184831e-07
-3.84459715e-07
-3.64642371e-07
-3.64726983e-07
-3.84051068e-07
-3.84392117e-07
-3.6477307e-07
-3.66356453e-07
-3.84252954e-07
-3.67046628e-07
-3.65227923e-07
-3.83632597e-07
-3.84212498e-07
-3.75330008e-07
-3.64062497e-07
-3.65005595e-07
-3.83767004e-07
-3.84339179e-07
-3.70781115e-07
-3.64050882e-07
-3.65177983e-07
-3.84176166e-07
-3.84379992e-07
-3.64582173e-07
-3.66100606e-07
-3.84317844e-07
-3.66771397e-07
-3.64948805e-07
-3.83532038e-07
-3.84636893e-07
-3.64982285e-07
-3.65355848e-07
-3.83529214e-07
-3.84549375e-07
-3.70432209e-07
-3.63361613e-07
-3.64957868e-07
-3.8486473e-07
-3.84338552e-07
-3.85484114e-07
-3.63420953e-07
-3.64307275e-07
-3.85033839e-07
-3.84204924e-07
-3.85433744e-07
-3.6558176e-07
-3.62467517e-07
-3.64954808e-07
-3.84130197e-07
-3.8451312e-07
-3.7076145e-07
-3.63994597e-07
-3.65490505e-07
-3.83862087e-07
-3.84312239e-07
-3.71474846e-07
-3.64121287e-07
-3.65370629e-07
-3.83741947e-07
-3.84303302e-07
-3.69723799e-07
-3.64139276e-07
-3.65438074e-07
-3.83744465e-07
-3.84204635e-07
-3.7032339e-07
-3.64231466e-07
-3.6545441e-07
-3.83661726e-07
-3.84269867e-07
-3.68886018e-07
-3.64112352e-07
-3.65362561e-07
-3.83997188e-07
-3.84446993e-07
-3.65029496e-07
-3.65296114e-07
-3.83460993e-07
-3.84352727e-07
-3.68059874e-07
-3.6420292e-07
-3.65401025e-07
-3.8397757e-07
-3.84412406e-07
-3.65058654e-07
-3.65310848e-07
-3.83446239e-07
-3.84344649e-07
-3.6796461e-07
-3.64235959e-07
-3.65417468e-07
-3.8398451e-07
-3.84380977e-07
-3.65096474e-07
-3.65323791e-07
-3.8346444e-07
-3.8425948e-07
-3.68296508e-07
-3.64356882e-07
-3.65524062e-07
-3.83613717e-07
-3.84201365e-07
-3.68835976e-07
-3.64002001e-07
-3.65215686e-07
-3.83989881e-07
-3.84340432e-07
-3.65099558e-07
-3.65703855e-07
-3.83486367e-07
-3.83959878e-07
-3.69744191e-07
-3.6566279e-07
-3.64802767e-07
-3.65736048e-07
-3.84292674e-07
-3.83917763e-07
-3.84618341e-07
-3.64253693e-07
-3.64252317e-07
-3.83626805e-07
-3.84648935e-07
-3.66546225e-07
-3.63803096e-07
-3.65285991e-07
-3.84155085e-07
-3.84301926e-07
-3.64868185e-07
-3.65002957e-07
-3.83527226e-07
-3.84399534e-07
-3.66788142e-07
-3.63941629e-07
-3.65231574e-07
-3.84144018e-07
-3.8425938e-07
-3.64693744e-07
-3.64911797e-07
-3.8382411e-07
-3.84318415e-07
-3.65039901e-07
-3.65430532e-07
-3.83474841e-07
-3.84022717e-07
-3.67033099e-07
-3.6544604e-07
-3.66447999e-07
-3.83579978e-07
-3.83818643e-07
-3.67179194e-07
-3.64469775e-07
-3.65558876e-07
-3.83639632e-07
-3.84016353e-07
-3.66452043e-07
-3.64494166e-07
-3.66153537e-07
-3.84022601e-07
-3.83914613e-07
-3.64859909e-07
-3.64934585e-07
-3.83555052e-07
-3.84024635e-07
-3.67491205e-07
-3.64245702e-07
-3.65520374e-07
)
;

boundaryField
{
    closed
    {
        type            calculated;
        value           nonuniform List<scalar> 0();
    }
    open
    {
        type            calculated;
        value           nonuniform List<scalar> 0();
    }
    sides
    {
        type            empty;
    }
    procBoundary3to2
    {
        type            processor;
        value           uniform -3.6423609e-07;
    }
    procBoundary3to4
    {
        type            processor;
        value           uniform -3.83635794e-07;
    }
}


// ************************************************************************* //
