/*--------------------------------*- C++ -*----------------------------------*\
| =========                 |                                                 |
| \\      /  F ield         | OpenFOAM: The Open Source CFD Toolbox           |
|  \\    /   O peration     | Version:  2306                                  |
|   \\  /    A nd           | Website:  www.openfoam.com                      |
|    \\/     M anipulation  |                                                 |
\*---------------------------------------------------------------------------*/
FoamFile
{
    version     2.0;
    format      ascii;
    arch        "LSB;label=32;scalar=64";
    class       volScalarField;
    location    "0.00072";
    object      prefDPV_T;
}
// * * * * * * * * * * * * * * * * * * * * * * * * * * * * * * * * * * * * * //

dimensions      [1 -1 -1 -1 0 0 0];

internalField   nonuniform List<scalar> 
531
(
5.90858945e-10
6.09094963e-10
6.0841763e-10
5.92205618e-10
5.89086535e-10
5.92721945e-10
6.09561787e-10
6.0530115e-10
5.90089597e-10
5.90806137e-10
6.0962416e-10
6.08713571e-10
6.02258164e-10
5.88186394e-10
5.88164221e-10
6.11195632e-10
6.08763441e-10
6.02555023e-10
5.9080024e-10
5.89704854e-10
5.90329006e-10
6.09421021e-10
6.08430371e-10
5.97404578e-10
5.89550071e-10
5.90194973e-10
6.09282206e-10
6.08781485e-10
5.98383832e-10
5.89407111e-10
5.90297426e-10
6.10539272e-10
6.07866637e-10
6.09430693e-10
5.91295613e-10
5.88787167e-10
5.90301699e-10
6.09545669e-10
6.08847406e-10
5.92475032e-10
5.8866308e-10
5.901584e-10
6.10440738e-10
6.08178191e-10
6.09154133e-10
5.90325229e-10
5.88960793e-10
5.95636697e-10
6.09731234e-10
6.10157524e-10
5.89545268e-10
5.88504381e-10
6.00085755e-10
6.09713039e-10
5.91080451e-10
5.8958197e-10
6.10697271e-10
6.09337277e-10
6.0236817e-10
5.88997873e-10
5.88931856e-10
6.11467141e-10
6.08919637e-10
6.06196464e-10
5.90341149e-10
5.89595219e-10
5.9421261e-10
6.09356288e-10
6.08488851e-10
5.91486329e-10
5.89089909e-10
5.9694581e-10
6.09052549e-10
6.09208952e-10
5.90962064e-10
5.88889134e-10
5.90841435e-10
6.11018733e-10
6.08580883e-10
6.09581024e-10
5.88820807e-10
5.88823292e-10
6.1172482e-10
6.0961707e-10
6.01003033e-10
5.8860256e-10
5.88555403e-10
6.11376681e-10
6.08779395e-10
6.09282711e-10
5.95052752e-10
5.90686387e-10
5.88709743e-10
5.88785482e-10
6.11494689e-10
6.09402656e-10
6.03839248e-10
5.89726755e-10
5.895158e-10
6.11168994e-10
6.08821926e-10
5.91202092e-10
5.89762772e-10
6.10760743e-10
6.08581327e-10
5.90950102e-10
5.90039689e-10
6.06377949e-10
6.08433104e-10
6.08561321e-10
5.93316312e-10
5.90618655e-10
5.88675206e-10
5.88779594e-10
6.11268947e-10
6.0884725e-10
6.09414906e-10
5.90947342e-10
5.89057023e-10
6.04412812e-10
6.09582372e-10
6.08902608e-10
6.09237042e-10
5.95334697e-10
5.89888901e-10
5.90083954e-10
5.89286767e-10
5.89685845e-10
6.09797625e-10
6.08691849e-10
5.99894573e-10
5.89993199e-10
5.90333131e-10
6.1056322e-10
6.08864773e-10
6.09750478e-10
5.8877497e-10
5.88847366e-10
6.1163938e-10
6.08710975e-10
6.09483476e-10
5.93899946e-10
5.90660015e-10
5.87956873e-10
5.87924637e-10
6.11314427e-10
6.08725935e-10
6.09729334e-10
5.93263858e-10
5.89066226e-10
5.91520477e-10
6.09904799e-10
6.08715571e-10
6.08982222e-10
6.07205263e-10
5.90578237e-10
5.90013505e-10
5.88214472e-10
5.88142828e-10
6.1155527e-10
6.0939192e-10
6.10570223e-10
6.09045071e-10
6.05187633e-10
5.90599843e-10
5.90418102e-10
5.88414011e-10
5.8842039e-10
6.11072851e-10
6.09309503e-10
6.09817236e-10
6.08972472e-10
5.99032023e-10
5.90308503e-10
5.90099724e-10
5.8888909e-10
5.89686485e-10
6.09993455e-10
6.08575735e-10
6.09041571e-10
6.08577847e-10
5.97113398e-10
5.9021733e-10
5.90470953e-10
5.88882557e-10
5.88900444e-10
6.10483181e-10
6.09059656e-10
6.09481378e-10
5.90637885e-10
5.89528775e-10
6.11152607e-10
6.09320332e-10
6.09276074e-10
5.88799188e-10
5.88620883e-10
6.10709065e-10
6.09319432e-10
5.9014199e-10
5.89510308e-10
6.10575632e-10
6.09252284e-10
6.04953782e-10
5.88905982e-10
5.88936283e-10
6.10407266e-10
6.09187088e-10
5.90179245e-10
5.89577536e-10
6.1040038e-10
6.09096434e-10
6.04887385e-10
5.89080427e-10
5.89201e-10
6.09717336e-10
6.09310596e-10
5.9610489e-10
5.8908948e-10
5.89306363e-10
6.0984599e-10
6.08516574e-10
6.09243521e-10
5.92911683e-10
5.90212631e-10
5.88481082e-10
5.88595716e-10
6.10159932e-10
6.08555043e-10
6.09705153e-10
5.9300007e-10
5.89399301e-10
5.90660221e-10
6.0896982e-10
6.08535495e-10
5.90957912e-10
5.89387538e-10
6.09089247e-10
6.09262931e-10
5.97417139e-10
5.88603142e-10
5.88938745e-10
6.10438241e-10
6.09983224e-10
6.09970696e-10
6.10191951e-10
5.90372104e-10
5.89603295e-10
5.87900698e-10
5.88225842e-10
6.10540446e-10
6.09810826e-10
6.09759744e-10
6.09773055e-10
5.98259521e-10
5.88290364e-10
5.88694182e-10
6.09311523e-10
6.09637083e-10
5.95104298e-10
5.88583139e-10
5.88772491e-10
6.09411795e-10
6.0921157e-10
5.90187362e-10
5.89572568e-10
6.0925146e-10
6.09007587e-10
5.89992446e-10
5.89752559e-10
6.09132183e-10
6.08980287e-10
5.90094915e-10
5.89901362e-10
6.0870606e-10
6.08992465e-10
5.95601864e-10
5.89354557e-10
5.8973229e-10
6.08753951e-10
6.09007049e-10
5.96293642e-10
5.8949135e-10
5.89756236e-10
6.08888608e-10
6.08997151e-10
5.90112989e-10
5.89540816e-10
6.08380972e-10
6.09018443e-10
5.93012865e-10
5.89392567e-10
5.89739518e-10
6.08414413e-10
6.09031162e-10
5.91680511e-10
5.89272461e-10
5.96798833e-10
6.08687671e-10
6.07883039e-10
6.08872486e-10
5.96677753e-10
5.90194613e-10
5.90088474e-10
5.89184031e-10
5.89334205e-10
6.09220867e-10
6.09485305e-10
5.89727322e-10
5.89778123e-10
6.09609269e-10
6.08931129e-10
6.09981757e-10
5.89050704e-10
5.88777791e-10
6.0848903e-10
6.09602407e-10
5.92959479e-10
5.89256293e-10
5.89701126e-10
6.08841071e-10
6.09069046e-10
5.90211921e-10
5.8991354e-10
6.08154296e-10
6.09172305e-10
5.9374541e-10
5.89123095e-10
5.89638902e-10
6.08761523e-10
6.09027942e-10
5.90025792e-10
5.89889427e-10
6.08125005e-10
6.09168529e-10
5.93541929e-10
5.89128104e-10
5.89714748e-10
6.08771073e-10
6.09007202e-10
5.89973442e-10
5.89960052e-10
6.08129108e-10
6.09161858e-10
5.93880603e-10
5.8914755e-10
5.89773494e-10
6.08797241e-10
6.08970306e-10
5.89921047e-10
5.90031443e-10
6.08156395e-10
6.09097545e-10
5.9403057e-10
5.89301903e-10
5.90010303e-10
6.08457852e-10
6.08918506e-10
5.9559087e-10
5.89286466e-10
5.90054744e-10
6.08340199e-10
6.09110429e-10
5.9253223e-10
5.89250128e-10
5.89883027e-10
6.08915065e-10
6.0924859e-10
5.89575308e-10
5.89635241e-10
6.08748375e-10
6.09165674e-10
5.89676343e-10
5.90919095e-10
6.08994007e-10
5.91534579e-10
5.90054025e-10
6.08233703e-10
6.08951005e-10
5.99903961e-10
5.89087763e-10
5.89838821e-10
6.08397343e-10
6.09105313e-10
5.95224473e-10
5.89135576e-10
5.89925924e-10
6.08902314e-10
6.09149601e-10
5.89520643e-10
5.90696589e-10
6.09072421e-10
5.91253691e-10
5.89836354e-10
6.08110916e-10
6.09469876e-10
5.89736255e-10
5.90230634e-10
6.08106907e-10
6.09367426e-10
5.94880259e-10
5.88657994e-10
5.89803476e-10
6.09748587e-10
6.09108588e-10
6.1050364e-10
5.88680496e-10
5.89401716e-10
6.09952519e-10
6.08952121e-10
6.10439781e-10
5.90465657e-10
5.87950516e-10
5.89888228e-10
6.08853489e-10
6.09320633e-10
5.95243294e-10
5.89102308e-10
5.90249722e-10
6.08518233e-10
6.09072574e-10
5.95938234e-10
5.8916775e-10
5.90106324e-10
6.0837033e-10
6.09059225e-10
5.94169972e-10
5.89176945e-10
5.90138075e-10
6.08373405e-10
6.08937152e-10
5.94771766e-10
5.89223248e-10
5.90158503e-10
6.08271317e-10
6.09017198e-10
5.93327284e-10
5.89157332e-10
5.90068661e-10
6.0868299e-10
6.09233473e-10
5.89815862e-10
5.90110456e-10
6.08024843e-10
6.09120522e-10
5.92497009e-10
5.89241063e-10
5.90081985e-10
6.08659196e-10
6.09190409e-10
5.89835971e-10
5.90116828e-10
6.08006802e-10
6.09110541e-10
5.92401065e-10
5.89272305e-10
5.90089791e-10
6.08668418e-10
6.09151311e-10
5.89879103e-10
5.90113731e-10
6.08030256e-10
6.09004874e-10
5.9273916e-10
5.89326924e-10
5.90190614e-10
6.08212434e-10
6.08931715e-10
5.93268642e-10
5.89053755e-10
5.89927099e-10
6.08674143e-10
6.09100172e-10
5.89880235e-10
5.90426678e-10
6.0805742e-10
6.08642877e-10
5.94193773e-10
5.90413916e-10
5.89689855e-10
5.9042416e-10
6.09045164e-10
6.08588803e-10
6.09443112e-10
5.89226475e-10
5.89314775e-10
6.0823096e-10
6.09483752e-10
5.91026255e-10
5.88980154e-10
5.90012359e-10
6.08879438e-10
6.09054824e-10
5.89718279e-10
5.89883013e-10
6.08108127e-10
6.09177008e-10
5.91249601e-10
5.89062453e-10
5.89945896e-10
6.08864907e-10
6.08999865e-10
5.89577992e-10
5.89783362e-10
6.08469914e-10
6.09075055e-10
5.89793178e-10
5.9022251e-10
6.08042331e-10
6.08716421e-10
5.91487184e-10
5.90243255e-10
5.90917919e-10
6.08175521e-10
6.08461442e-10
5.9165491e-10
5.89379388e-10
5.90238466e-10
6.08244387e-10
6.08704023e-10
5.90920838e-10
5.89465717e-10
5.90686774e-10
6.0871401e-10
6.08577873e-10
5.89665511e-10
5.89750653e-10
6.08140885e-10
6.08712298e-10
5.91936561e-10
5.89195151e-10
5.90181745e-10
)
;

boundaryField
{
    closed
    {
        type            calculated;
        value           nonuniform List<scalar> 0();
    }
    open
    {
        type            calculated;
        value           nonuniform List<scalar> 0();
    }
    sides
    {
        type            empty;
    }
    procBoundary3to2
    {
        type            processor;
        value           uniform 5.89237223e-10;
    }
    procBoundary3to4
    {
        type            processor;
        value           uniform 6.08238449e-10;
    }
}


// ************************************************************************* //
