/*--------------------------------*- C++ -*----------------------------------*\
| =========                 |                                                 |
| \\      /  F ield         | OpenFOAM: The Open Source CFD Toolbox           |
|  \\    /   O peration     | Version:  2306                                  |
|   \\  /    A nd           | Website:  www.openfoam.com                      |
|    \\/     M anipulation  |                                                 |
\*---------------------------------------------------------------------------*/
FoamFile
{
    version     2.0;
    format      ascii;
    arch        "LSB;label=32;scalar=64";
    class       volScalarField;
    location    "0.00072";
    object      rho;
}
// * * * * * * * * * * * * * * * * * * * * * * * * * * * * * * * * * * * * * //

dimensions      [1 -3 0 0 0 0 0];

internalField   nonuniform List<scalar> 
531
(
0.939457271
0.901676041
0.901327322
0.93881035
0.959978521
0.938404761
0.903497081
0.921430669
0.951455978
0.943003556
0.903825277
0.902942689
0.926864909
0.969203242
0.969208661
0.902883804
0.902369678
0.9264442
0.940975358
0.955643913
0.946686211
0.902951892
0.902326669
0.933882979
0.954073211
0.949153673
0.901887647
0.903343175
0.933046962
0.958957594
0.945627969
0.903706641
0.901232283
0.903309725
0.939793686
0.965886949
0.946383771
0.903024581
0.902798512
0.938230406
0.967061635
0.947783163
0.903944566
0.901808292
0.904062165
0.943844548
0.964711987
0.93644333
0.904466426
0.902639615
0.954708932
0.968951319
0.930810228
0.904266957
0.938934091
0.957726975
0.903264553
0.904324151
0.926861538
0.963710729
0.963524832
0.904732617
0.903486586
0.919999733
0.945652195
0.95868031
0.937726124
0.903957414
0.90166031
0.93851928
0.959901075
0.935115063
0.902780618
0.902265624
0.939622238
0.967159625
0.941124088
0.906810384
0.903120875
0.913391049
0.963367234
0.967093196
0.903987915
0.904783584
0.929053001
0.967655851
0.967529374
0.903702572
0.903893096
0.904217139
0.935821853
0.947071382
0.966247267
0.966129595
0.904130469
0.904823783
0.924523688
0.95698714
0.956732277
0.904665509
0.902879107
0.941300198
0.952587734
0.903601618
0.90233
0.94210693
0.949691502
0.919688251
0.902976478
0.903312485
0.937518649
0.946453963
0.965542703
0.965084005
0.903441993
0.903786551
0.90373719
0.941028346
0.962542152
0.923662504
0.904119968
0.902184434
0.903837537
0.936816342
0.953922954
0.949335354
0.960107579
0.954601397
0.903660773
0.903769379
0.931106865
0.952989197
0.949200494
0.905325456
0.904291615
0.913193921
0.964715889
0.965529994
0.9040463
0.904174389
0.90498456
0.9369887
0.947523972
0.97337632
0.973197689
0.903274512
0.903018511
0.904412349
0.938769271
0.963752168
0.939528577
0.904516341
0.903675095
0.905063607
0.91848554
0.947527964
0.954032771
0.972876265
0.972276779
0.904963831
0.904653776
0.906171179
0.904646493
0.922564247
0.94725935
0.951072716
0.970302667
0.969878796
0.904092503
0.904558395
0.904656222
0.904310709
0.932671442
0.949572724
0.950159403
0.964204661
0.954215124
0.903699308
0.903316106
0.904219265
0.903522005
0.934950693
0.950575708
0.948143211
0.965417842
0.964596658
0.904024154
0.905286867
0.905282547
0.948668416
0.95933993
0.90512754
0.905600088
0.914671393
0.966439439
0.968947322
0.904185128
0.90506439
0.953932705
0.959017459
0.904429666
0.905522371
0.923412604
0.965475635
0.964515266
0.904042329
0.904803963
0.953496526
0.95767078
0.904360106
0.905184376
0.92365666
0.962521977
0.962389608
0.903033353
0.905401523
0.936469731
0.9634775
0.959386019
0.903965295
0.904752194
0.90542894
0.938371421
0.951837432
0.968508556
0.966430219
0.903433399
0.904049923
0.905529348
0.939503228
0.960666847
0.943829173
0.904097795
0.903714433
0.943357223
0.957965594
0.902924613
0.905126727
0.935420646
0.969079547
0.965214361
0.905192282
0.906678102
0.906721934
0.906593542
0.952790092
0.96198805
0.977269354
0.974156543
0.90506221
0.906474253
0.905961037
0.906274482
0.934287158
0.971560116
0.967082888
0.903688649
0.905935753
0.937953916
0.969140622
0.964180158
0.904365964
0.904741168
0.952223814
0.956565944
0.903810527
0.904775958
0.953428292
0.95452872
0.903495265
0.904813057
0.951633591
0.95342559
0.903052278
0.905106303
0.937840805
0.959216049
0.954682296
0.90327858
0.905174966
0.93732169
0.958142099
0.953683013
0.903552293
0.904518736
0.950316647
0.956467273
0.902489966
0.904586662
0.940143726
0.957966904
0.95352006
0.902858397
0.904527557
0.941220018
0.959949292
0.937243347
0.904437428
0.903284662
0.905573306
0.937082279
0.952366779
0.951083686
0.962715922
0.959025383
0.905093123
0.905709132
0.957260323
0.955503097
0.904592646
0.90521494
0.905637254
0.961814688
0.967022146
0.90327254
0.906128684
0.939853008
0.962158697
0.95453935
0.904495374
0.904836306
0.949889108
0.954123095
0.903120144
0.905257307
0.93971726
0.961937427
0.954508469
0.903920529
0.904502684
0.95114689
0.954072428
0.903028511
0.905149631
0.939906095
0.961929461
0.953697193
0.903997786
0.904465812
0.951733921
0.953451881
0.903060689
0.90519882
0.939736906
0.961869782
0.952977332
0.904108335
0.904356967
0.95246803
0.952598394
0.903223726
0.905113213
0.939531018
0.960024681
0.950970468
0.903714343
0.904535259
0.938087487
0.959362246
0.9512003
0.90351327
0.904880658
0.940273978
0.961285648
0.952268634
0.904598286
0.904453169
0.956661876
0.955883195
0.904019293
0.904358206
0.955560711
0.942537415
0.904010515
0.940373539
0.952026462
0.903201724
0.904943572
0.933010855
0.9611348
0.953415182
0.903197938
0.904962768
0.93877599
0.96193838
0.951467225
0.904292363
0.904181231
0.957101549
0.944419657
0.90394683
0.940715896
0.954377381
0.903170467
0.90529573
0.952687073
0.951846652
0.903073939
0.905846782
0.938909851
0.968649314
0.953851494
0.905516598
0.905547741
0.905823138
0.967816802
0.960592121
0.905296877
0.906406421
0.905482395
0.950620072
0.976333152
0.954877189
0.905351518
0.905482027
0.937907671
0.962557438
0.949758474
0.904037461
0.904975333
0.937864155
0.961060055
0.950199773
0.903777587
0.904607253
0.939408601
0.96083736
0.949407014
0.903766884
0.904299197
0.938939523
0.959734561
0.949338685
0.903537646
0.904380286
0.940064458
0.961047211
0.949880147
0.904017539
0.9044695
0.952692186
0.951434761
0.903176969
0.904703672
0.940692043
0.960394108
0.949337905
0.903984814
0.904276322
0.952368442
0.951199975
0.90311254
0.904626508
0.940715037
0.960118826
0.949086201
0.904042649
0.904085251
0.952137004
0.950875667
0.903264169
0.904261252
0.940268707
0.95854378
0.948319808
0.903266831
0.903850995
0.940067388
0.961530196
0.950560315
0.903793085
0.903688343
0.951963745
0.947768586
0.903208726
0.904547946
0.938967765
0.948274464
0.954829044
0.947140691
0.904058387
0.904063165
0.904289864
0.958958204
0.960038718
0.903486502
0.904723035
0.940434703
0.964021105
0.95008102
0.904203912
0.90369477
0.953858366
0.953399729
0.903138317
0.904151691
0.940557779
0.962399536
0.950163065
0.903944841
0.903106372
0.955157418
0.953729733
0.903053984
0.903575227
0.951627701
0.949750712
0.902663759
0.903729265
0.940395405
0.949672831
0.940450914
0.903453788
0.902651531
0.939762776
0.956593917
0.947671187
0.902776167
0.902906933
0.940392415
0.957131513
0.942600584
0.903246271
0.90249322
0.953062762
0.952735625
0.902624378
0.902541964
0.940079136
0.958228723
0.947582583
)
;

boundaryField
{
    closed
    {
        type            calculated;
        value           nonuniform List<scalar> 0();
    }
    open
    {
        type            calculated;
        value           nonuniform List<scalar> 0();
    }
    sides
    {
        type            empty;
    }
    procBoundary3to2
    {
        type            processor;
        value           uniform 0.957619213;
    }
    procBoundary3to4
    {
        type            processor;
        value           uniform 0.902448807;
    }
}


// ************************************************************************* //
