/*--------------------------------*- C++ -*----------------------------------*\
| =========                 |                                                 |
| \\      /  F ield         | OpenFOAM: The Open Source CFD Toolbox           |
|  \\    /   O peration     | Version:  2306                                  |
|   \\  /    A nd           | Website:  www.openfoam.com                      |
|    \\/     M anipulation  |                                                 |
\*---------------------------------------------------------------------------*/
FoamFile
{
    version     2.0;
    format      ascii;
    arch        "LSB;label=32;scalar=64";
    class       volScalarField;
    location    "0.00072";
    object      T;
}
// * * * * * * * * * * * * * * * * * * * * * * * * * * * * * * * * * * * * * //

dimensions      [0 0 0 1 0 0 0];

internalField   nonuniform List<scalar> 
531
(
328.796789
340.173721
340.365682
328.778797
321.791699
328.85056
339.473812
333.355965
324.749567
327.641608
339.355433
339.76413
331.744079
318.629144
318.627602
339.56763
339.980925
331.86747
328.325914
323.332708
326.385134
339.717578
340.039274
329.836932
323.850362
325.56011
340.12969
339.642975
329.986666
322.21069
326.746496
339.355129
340.508596
339.604797
328.61758
319.832819
326.505491
339.704103
339.851873
329.046681
319.431988
326.030033
339.289826
340.281188
339.365974
327.352415
320.253589
329.155715
339.168319
339.80011
323.6678
318.790298
330.594945
339.24763
329.079305
322.666386
339.528232
339.265056
331.797978
320.607293
320.666431
338.923427
339.614343
333.874219
326.776005
322.355611
328.930895
339.406573
340.329432
329.157068
321.905806
329.467893
339.871516
340.047296
328.804294
319.447248
328.347832
338.221471
339.799083
335.963018
320.732925
319.475619
339.200289
339.103151
331.207129
319.277262
319.319115
339.346681
339.516468
339.353577
329.615058
326.389384
319.775706
319.822898
339.195447
339.135135
332.535998
322.99222
323.060162
339.04161
339.913723
328.390034
324.477185
339.478884
340.146924
328.099281
325.479648
334.033299
339.933533
339.801017
329.312506
326.634643
320.062329
320.227881
339.517395
339.614823
339.583254
328.480222
321.115746
332.810272
339.43676
340.21077
339.576077
329.224829
324.095364
325.644499
321.971515
323.854648
339.603593
339.666987
330.699011
324.433235
325.734184
338.934793
339.471475
336.145923
320.401383
320.13451
339.316963
339.540424
339.175296
329.503756
326.35225
317.433218
317.494832
339.647837
339.981226
339.381163
328.900678
320.782315
328.941944
339.338547
339.758527
339.228202
334.517735
326.376295
324.151009
317.658198
317.861363
339.048426
339.363262
338.7026
339.404084
333.284977
326.495817
325.210212
318.574435
318.722284
339.442772
339.436886
339.358164
339.565545
330.368455
325.724676
325.509237
320.701645
324.123504
339.719188
339.992988
339.623178
339.924872
329.854698
325.414134
326.25475
320.326547
320.60894
339.590681
339.262108
339.229146
326.122948
322.449139
339.145907
339.144766
335.849965
320.016947
319.160979
339.554521
339.363951
324.353221
322.596216
339.496409
339.221614
333.153711
320.392695
320.723789
339.677661
339.514938
324.544933
323.095197
339.581091
339.403145
333.11589
321.443287
321.502914
340.153967
339.32837
329.614659
321.14646
322.5426
339.824618
339.662468
339.352815
329.503403
325.174537
319.437016
320.150625
340.022308
339.947503
339.304811
329.042875
322.173601
327.907841
339.91301
340.097055
328.115278
323.095429
340.347526
339.528907
329.894516
319.312431
320.645027
339.412039
338.913036
338.9015
338.931568
324.956462
321.803894
316.518143
317.598159
339.476826
339.02964
339.225181
339.112078
330.258498
318.500319
320.04322
340.111924
339.261829
329.381785
319.350129
321.036313
339.865859
339.748655
325.170779
323.662267
340.09093
339.76135
324.755127
324.364646
340.22324
339.756063
325.36761
324.752628
340.429663
339.652594
329.356515
322.772671
324.32213
340.347798
339.631254
329.435221
323.148935
324.660333
340.239422
339.876374
325.818023
323.715127
340.677336
339.851919
328.931502
323.202736
324.717357
340.541804
339.874722
328.751072
322.531833
329.366801
339.940475
340.436404
339.508404
329.465774
325.154836
325.568138
321.599825
322.84867
339.653849
339.404426
323.477086
324.068216
339.802241
339.636596
339.386134
321.891489
320.120583
340.388707
339.24147
329.074168
321.795257
324.381378
339.909526
339.764047
325.980916
324.543615
340.476378
339.60105
328.970955
321.858971
324.385838
340.128624
339.891329
325.543967
324.559192
340.514107
339.642357
328.934931
321.863685
324.664811
340.101214
339.908528
325.345402
324.774935
340.503946
339.627021
328.938842
321.887557
324.912003
340.060684
339.954154
325.098703
325.068619
340.444368
339.66693
328.998464
322.521692
325.606409
340.238909
339.896633
329.286277
322.743078
325.537666
340.325172
339.754567
328.997185
322.098834
325.165768
339.877415
339.900492
323.675436
323.941138
340.106318
339.944543
324.053967
328.507871
340.088853
329.163227
325.270595
340.455743
339.752908
330.518004
322.140902
324.787675
340.444282
339.73386
329.082843
321.878572
325.44407
339.999341
340.017799
323.531709
327.865631
340.111684
329.083308
324.472355
340.484674
339.582716
325.021222
325.357606
340.52133
339.391225
329.105055
319.588215
324.644885
339.477694
339.524884
339.296552
319.871054
322.35797
339.539509
339.224764
339.426844
325.792047
316.940408
324.312932
339.618888
339.52815
329.455126
321.670715
326.049721
340.128596
339.734097
329.321067
322.175173
325.883482
340.234106
339.866679
329.033285
322.246658
326.144899
340.23331
339.985916
329.100379
322.614129
326.164772
340.320741
339.942795
328.916212
322.163053
325.968238
340.100099
339.882749
325.004286
325.453396
340.460951
339.800003
328.802436
322.373515
326.132695
340.096923
339.939497
325.096082
325.513649
340.466479
339.808836
328.787181
322.447581
326.195641
340.052184
339.98974
325.155031
325.597305
340.383783
339.926631
328.875404
322.952689
326.435286
340.350174
340.067288
328.831681
321.913179
325.647431
340.098054
340.094033
325.168255
326.61775
340.353789
339.80617
329.067226
326.434959
324.174941
326.802499
339.928813
339.964794
339.799681
322.732948
322.376175
340.191905
339.620395
329.039138
320.994776
325.741004
339.848756
340.01527
324.444809
324.611201
340.292869
339.82
328.897472
321.509743
325.670199
339.90763
340.198732
323.962724
324.455501
340.254355
340.004278
325.141799
325.810611
340.420578
339.964785
328.856035
325.824137
328.938009
340.099772
340.363967
329.066621
323.411997
326.463692
340.323963
340.230794
328.928346
323.225804
328.175538
340.092846
340.378368
324.58842
324.703846
340.360977
340.336075
328.822739
322.806563
326.444942
)
;

boundaryField
{
    closed
    {
        type            fixedValue;
        value           nonuniform List<scalar> 0();
    }
    open
    {
        type            zeroGradient;
    }
    sides
    {
        type            empty;
    }
    procBoundary3to2
    {
        type            processor;
        value           uniform 322.586923;
    }
    procBoundary3to4
    {
        type            processor;
        value           uniform 340.402278;
    }
}


// ************************************************************************* //
