/*--------------------------------*- C++ -*----------------------------------*\
| =========                 |                                                 |
| \\      /  F ield         | OpenFOAM: The Open Source CFD Toolbox           |
|  \\    /   O peration     | Version:  2306                                  |
|   \\  /    A nd           | Website:  www.openfoam.com                      |
|    \\/     M anipulation  |                                                 |
\*---------------------------------------------------------------------------*/
FoamFile
{
    version     2.0;
    format      ascii;
    arch        "LSB;label=32;scalar=64";
    class       volScalarField;
    location    "0.00176";
    object      rho;
}
// * * * * * * * * * * * * * * * * * * * * * * * * * * * * * * * * * * * * * //

dimensions      [1 -3 0 0 0 0 0];

internalField   nonuniform List<scalar> 
530
(
0.225023644
0.224316969
0.223602451
0.223560733
0.224141244
0.223613207
0.222784408
0.222820394
0.223352737
0.22297356
0.222124637
0.222143374
0.22264285
0.222385591
0.221552141
0.221587189
0.222026673
0.221820883
0.221064929
0.221025729
0.221455964
0.221293442
0.220532881
0.220509092
0.220883244
0.220820517
0.220028144
0.220023088
0.220345723
0.220356238
0.219522096
0.219551362
0.219852969
0.219873876
0.219048329
0.219087564
0.219391865
0.219404942
0.218574589
0.21862657
0.218941302
0.218967931
0.218167706
0.218179051
0.218511999
0.218532692
0.217804176
0.217757954
0.218104786
0.218114749
0.217458924
0.217366533
0.217707251
0.217733034
0.217082122
0.217023615
0.217326159
0.217363327
0.216713912
0.216693957
0.217015252
0.216998541
0.216406595
0.216385204
0.216715993
0.216705643
0.216119334
0.216108219
0.216426669
0.216421333
0.215844304
0.215837768
0.216143403
0.21613744
0.215569308
0.215569254
0.215866916
0.215856216
0.215301664
0.215301518
0.215594785
0.215577457
0.215042596
0.21504176
0.215327679
0.215303264
0.21479317
0.214788934
0.215064488
0.215033277
0.214538938
0.214539583
0.214808104
0.214766799
0.214277914
0.214276226
0.214535631
0.214501588
0.214011642
0.214002108
0.214258864
0.214212615
0.213747535
0.213724255
0.213982759
0.213930021
0.213481515
0.213446164
0.213705985
0.213652246
0.213207635
0.213167277
0.213427469
0.213375924
0.212933561
0.212891483
0.213150154
0.213101532
0.212665882
0.212624124
0.212873495
0.212827697
0.212400122
0.212358874
0.212597549
0.212555027
0.212135001
0.212095156
0.212321443
0.212283451
0.21187207
0.211834632
0.21205109
0.212012153
0.211609449
0.211575881
0.211786909
0.211749533
0.211347463
0.211316698
0.211522627
0.211486424
0.211084535
0.211057398
0.211256121
0.211220836
0.210819436
0.210794794
0.210987641
0.210952435
0.210555361
0.210531635
0.210717488
0.210681127
0.210293798
0.210268508
0.210445266
0.210406768
0.210029542
0.210001537
0.210169943
0.210128896
0.209761995
0.209731048
0.209892355
0.209846499
0.209469786
0.209449142
0.209596915
0.20955935
0.209161677
0.209144979
0.209285456
0.209248717
0.208841113
0.208826117
0.208971718
0.20892735
0.20850711
0.208501931
0.208659668
0.20861039
0.208186352
0.208180213
0.208341656
0.208294438
0.207869351
0.207864797
0.208022285
0.207977829
0.207552155
0.20754742
0.207702116
0.207661008
0.207237977
0.207230858
0.20738342
0.207344196
0.20693228
0.206918168
0.20706405
0.207038424
0.206658205
0.206630077
0.206785212
0.206751969
0.206393081
0.20636151
0.206515659
0.206481998
0.206134631
0.206094966
0.206245429
0.206209743
0.205873601
0.205828823
0.205975458
0.205936361
0.205617124
0.205568455
0.205706507
0.205663155
0.205360909
0.20530742
0.205439233
0.205391454
0.205105363
0.205046939
0.205174205
0.20512176
0.204851518
0.204789991
0.204911708
0.204853968
0.204601006
0.20453557
0.204651417
0.204588864
0.204344616
0.204284536
0.20439069
0.204327293
0.204088393
0.204026569
0.204127536
0.204063535
0.203827034
0.203770151
0.203866846
0.203802581
0.203568242
0.203513137
0.203609938
0.203545197
0.203312337
0.203259037
0.203357153
0.203291347
0.203065027
0.203011718
0.2031087
0.203040906
0.202823622
0.202766548
0.202864105
0.202793955
0.202587527
0.202523309
0.202621908
0.202549485
0.202351637
0.20228091
0.202381521
0.202307973
0.202114083
0.202040139
0.202142218
0.202068947
0.201873869
0.201798152
0.201903901
0.201831724
0.201630837
0.201557036
0.201669859
0.201600624
0.201390763
0.201323287
0.201441982
0.201375646
0.201162064
0.201100505
0.201229601
0.201151503
0.200953627
0.200884064
0.201031597
0.20093805
0.200759435
0.20068025
0.20083991
0.200736074
0.200573725
0.200487288
0.200652338
0.200544237
0.200394838
0.20030575
0.200469867
0.200360686
0.200223883
0.20013364
0.200292132
0.200184517
0.200054988
0.199967931
0.200117937
0.200014698
0.199887229
0.199807146
0.199946646
0.199849215
0.199724984
0.199649285
0.19978012
0.199686796
0.199566723
0.199494563
0.19961845
0.199526359
0.199412332
0.199344566
0.199461717
0.199367538
0.19926186
0.199195921
0.199309328
0.199211155
0.199114336
0.199050361
0.199159868
0.199058906
0.198967273
0.198908355
0.19901125
0.198912071
0.198819351
0.198770502
0.198864018
0.198770678
0.198672054
0.198637167
0.198719739
0.198634572
0.198531136
0.198508505
0.1985791
0.198503438
0.19840319
0.198384494
0.198443262
0.198376903
0.198279107
0.198264586
0.198312966
0.198254485
0.198159888
0.19814855
0.198188056
0.198135766
0.198045272
0.198035642
0.198068165
0.198020456
0.1979349
0.197926467
0.197953706
0.197909767
0.197829435
0.197821901
0.197844371
0.197803594
0.197728631
0.197721824
0.197740063
0.197702325
0.197632155
0.197626148
0.197640617
0.197605843
0.197539923
0.197534681
0.197546313
0.19751383
0.197451897
0.197446862
0.197456975
0.197425765
0.197368134
0.197363498
0.197373935
0.197341224
0.197286741
0.197284388
0.197292226
0.197264191
0.197211714
0.19720965
0.197216353
0.197191775
0.19714296
0.197138903
0.197144788
0.197121286
0.197076547
0.197072354
0.197077352
0.197054796
0.19701402
0.197009305
0.197013909
0.196991662
0.196954755
0.196949337
0.196953802
0.196931954
0.196898547
0.196892705
0.196896727
0.196875777
0.196845094
0.19683926
0.196842385
0.196822864
0.19679416
0.196788757
0.196790609
0.196772915
0.196745537
0.196740815
0.19674113
0.196725427
0.196698772
0.196694613
0.196693478
0.196679297
0.196651818
0.196647218
0.196645294
0.196631353
0.196597581
0.1965935
0.196597266
0.196582051
0.196545296
0.196534669
0.196537571
0.19652416
0.196511789
0.196497654
0.19648883
0.196473329
0.196462967
0.196446584
0.196435002
0.196418234
0.196405242
0.196388441
0.196374013
0.196357601
0.196341804
0.196326265
0.19631031
0.196295273
0.196279747
0.196265398
0.196250165
0.196237583
0.19622239
0.196210565
0.19619781
0.196187384
0.196177112
0.196168528
0.196160692
0.196154142
0.196148608
0.196144082
0.196140605
0.196137952
0.19613625
0.196135283
0.196135154
0.196135769
0.19613717
0.19613977
0.196143152
0.196147376
0.196152479
0.196158501
0.196165472
0.196173423
0.196182334
0.196192017
0.196201943
0.196211152
0.196218394
0.196222592
0.19622336
0.196221056
0.196216099
0.196208336
0.196197393
0.196183348
0.196166353
0.196146348
0.196124819
0.196106663
0.196098315
0.196104174
0.196125033
0.19615892
0.196197047
0.196224688
0.196230653
0.196213075
0.19618653
0.196173265
0.196181221
0.196192223
)
;

boundaryField
{
    closed
    {
        type            calculated;
        value           nonuniform List<scalar> 0();
    }
    open
    {
        type            calculated;
        value           uniform 0.196187338;
    }
    sides
    {
        type            empty;
    }
    procBoundary5to4
    {
        type            processor;
        value           uniform 0.224366251;
    }
}


// ************************************************************************* //
