/*--------------------------------*- C++ -*----------------------------------*\
| =========                 |                                                 |
| \\      /  F ield         | OpenFOAM: The Open Source CFD Toolbox           |
|  \\    /   O peration     | Version:  2306                                  |
|   \\  /    A nd           | Website:  www.openfoam.com                      |
|    \\/     M anipulation  |                                                 |
\*---------------------------------------------------------------------------*/
FoamFile
{
    version     2.0;
    format      ascii;
    arch        "LSB;label=32;scalar=64";
    class       volScalarField;
    location    "0.00134";
    object      prefDPV_H2;
}
// * * * * * * * * * * * * * * * * * * * * * * * * * * * * * * * * * * * * * //

dimensions      [1 -1 -1 0 0 0 0];

internalField   nonuniform List<scalar> 
530
(
-3.0906156e-05
-3.06172107e-05
-3.07161459e-05
-3.14458851e-05
-3.15506063e-05
-3.0911919e-05
-3.06269518e-05
-3.07009336e-05
-3.14440477e-05
-3.15498841e-05
-3.09175857e-05
-3.06343639e-05
-3.06877529e-05
-3.14435837e-05
-3.1549559e-05
-3.09262318e-05
-3.06583355e-05
-3.06892638e-05
-3.14404311e-05
-3.15540775e-05
-3.09297207e-05
-3.08058072e-05
-3.08163774e-05
-3.06999292e-05
-3.07808121e-05
-3.14210289e-05
-3.15368503e-05
-3.15123623e-05
-3.1561717e-05
-3.08936153e-05
-3.08024281e-05
-3.12288883e-05
-3.1537127e-05
-3.0911892e-05
-3.06794212e-05
-3.05504413e-05
-3.05510487e-05
-3.13437231e-05
-3.15229753e-05
-3.09167005e-05
-3.0547176e-05
-3.05514847e-05
-3.13727256e-05
-3.15477422e-05
-3.09436005e-05
-3.08186106e-05
-3.06733594e-05
-3.085928e-05
-3.14333438e-05
-3.15364286e-05
-3.15110683e-05
-3.15343163e-05
-3.09019785e-05
-3.04008616e-05
-3.04042012e-05
-3.13102845e-05
-3.15298886e-05
-3.09385533e-05
-3.07130038e-05
-3.05582689e-05
-3.05666914e-05
-3.13302252e-05
-3.15198479e-05
-3.09405736e-05
-3.06025926e-05
-3.06229556e-05
-3.1417099e-05
-3.15252678e-05
-3.09555535e-05
-3.06421845e-05
-3.06527767e-05
-3.1387486e-05
-3.1548062e-05
-3.093665e-05
-3.09101371e-05
-3.13683898e-05
-3.15295802e-05
-3.10655372e-05
-3.08083981e-05
-3.06734952e-05
-3.04300504e-05
-3.0500218e-05
-3.14076974e-05
-3.15237301e-05
-3.1455998e-05
-3.0950057e-05
-3.05382607e-05
-3.06051576e-05
-3.14793997e-05
-3.15085343e-05
-3.09625034e-05
-3.08797077e-05
-3.15024606e-05
-3.14751417e-05
-3.09237156e-05
-3.04558835e-05
-3.06685133e-05
-3.15215432e-05
-3.1448472e-05
-3.0938577e-05
-3.08845177e-05
-3.15118707e-05
-3.14105521e-05
-3.09577682e-05
-3.08855265e-05
-3.1528575e-05
-3.1440038e-05
-3.09305416e-05
-3.05329941e-05
-3.08744302e-05
-3.15337311e-05
-3.14301379e-05
-3.09166237e-05
-3.0515217e-05
-3.08718716e-05
-3.15367011e-05
-3.14192308e-05
-3.09174026e-05
-3.04997998e-05
-3.08688937e-05
-3.15283571e-05
-3.13244998e-05
-3.09453444e-05
-3.08922543e-05
-3.15428212e-05
-3.14126038e-05
-3.0928885e-05
-3.05789439e-05
-3.08781937e-05
-3.15375772e-05
-3.1416918e-05
-3.09182836e-05
-3.05581758e-05
-3.08748138e-05
-3.15407828e-05
-3.14192419e-05
-3.09210902e-05
-3.05508212e-05
-3.08777686e-05
-3.15420632e-05
-3.14170345e-05
-3.0910657e-05
-3.05193172e-05
-3.08734072e-05
-3.15307443e-05
-3.12785404e-05
-3.09149418e-05
-3.09029415e-05
-3.15524466e-05
-3.14112961e-05
-3.08136935e-05
-3.05312038e-05
-3.08792623e-05
-3.15294066e-05
-3.12641298e-05
-3.09075834e-05
-3.09044697e-05
-3.1556056e-05
-3.14215552e-05
-3.08165687e-05
-3.0562195e-05
-3.08889181e-05
-3.1544565e-05
-3.1430741e-05
-3.08544346e-05
-3.05116714e-05
-3.08799218e-05
-3.15303866e-05
-3.12624346e-05
-3.08886913e-05
-3.09117424e-05
-3.15572867e-05
-3.14301262e-05
-3.08327894e-05
-3.05731847e-05
-3.08934372e-05
-3.15472175e-05
-3.14533102e-05
-3.09077103e-05
-3.05679225e-05
-3.08885186e-05
-3.15526963e-05
-3.14635531e-05
-3.08995372e-05
-3.0570794e-05
-3.08867424e-05
-3.15469955e-05
-3.14863312e-05
-3.09048345e-05
-3.05789709e-05
-3.06019581e-05
-3.04633655e-05
-3.08953813e-05
-3.1521478e-05
-3.12514101e-05
-3.07893032e-05
-3.092214e-05
-3.15369653e-05
-3.12535707e-05
-3.08351444e-05
-3.09299505e-05
-3.15472789e-05
-3.14473772e-05
-3.07066606e-05
-3.04525753e-05
-3.08930266e-05
-3.15162769e-05
-3.1252105e-05
-3.07136217e-05
-3.091116e-05
-3.1533306e-05
-3.12162907e-05
-3.06754484e-05
-3.0908405e-05
-3.15302761e-05
-3.1199333e-05
-3.0648232e-05
-3.09054509e-05
-3.15322728e-05
-3.11931337e-05
-3.06566367e-05
-3.09061057e-05
-3.15395124e-05
-3.11992385e-05
-3.07182461e-05
-3.09221528e-05
-3.1547078e-05
-3.14807048e-05
-3.06049064e-05
-3.03873769e-05
-3.08970792e-05
-3.15277456e-05
-3.12562753e-05
-3.07743204e-05
-3.09240254e-05
-3.15551916e-05
-3.14967582e-05
-3.07362593e-05
-3.05702483e-05
-3.09043294e-05
-3.15246277e-05
-3.12778662e-05
-3.07598536e-05
-3.09216566e-05
-3.15501804e-05
-3.15282248e-05
-3.07155351e-05
-3.05744156e-05
-3.09115476e-05
-3.15179061e-05
-3.1526861e-05
-3.07486048e-05
-3.05200302e-05
-3.09082494e-05
-3.1512996e-05
-3.13894585e-05
-3.07739683e-05
-3.09289537e-05
-3.15422853e-05
-3.15583628e-05
-3.08666639e-05
-3.06150566e-05
-3.09012144e-05
-3.1508534e-05
-3.15478911e-05
-3.08957423e-05
-3.06898448e-05
-3.09010263e-05
-3.14923634e-05
-3.15496693e-05
-3.08926269e-05
-3.06488908e-05
-3.06804956e-05
-3.09125682e-05
-3.1488893e-05
-3.155367e-05
-3.08751815e-05
-3.05670197e-05
-3.09281485e-05
-3.14395393e-05
-3.1519995e-05
-3.08676033e-05
-3.08607044e-05
-3.13590739e-05
-3.15552552e-05
-3.08867805e-05
-3.06319749e-05
-3.08568091e-05
-3.13894106e-05
-3.15495967e-05
-3.08869903e-05
-3.06713883e-05
-3.08760319e-05
-3.13630328e-05
-3.154288e-05
-3.09075378e-05
-3.06581706e-05
-3.07299825e-05
-3.13274293e-05
-3.15427838e-05
-3.09209142e-05
-3.06727665e-05
-3.06839751e-05
-3.12926873e-05
-3.15365785e-05
-3.0941821e-05
-3.06963232e-05
-3.0685053e-05
-3.12283361e-05
-3.15301416e-05
-3.09679929e-05
-3.07291708e-05
-3.06943777e-05
-3.1174883e-05
-3.15225852e-05
-3.09903007e-05
-3.07497363e-05
-3.06906243e-05
-3.11237668e-05
-3.15097762e-05
-3.10144622e-05
-3.0786023e-05
-3.07018785e-05
-3.10706747e-05
-3.14929567e-05
-3.10118923e-05
-3.06700689e-05
-3.05545206e-05
-3.09993859e-05
-3.14798384e-05
-3.11293837e-05
-3.08307135e-05
-3.05554552e-05
-3.08684498e-05
-3.13899589e-05
-3.15356787e-05
-3.09154223e-05
-3.07766252e-05
-3.08994062e-05
-3.14416246e-05
-3.10644951e-05
-3.07333799e-05
-3.05697138e-05
-3.09355169e-05
-3.1456786e-05
-3.11606701e-05
-3.08817829e-05
-3.06523259e-05
-3.09284118e-05
-3.1473639e-05
-3.1021727e-05
-3.09281174e-05
-3.09293121e-05
-3.14625989e-05
-3.11349032e-05
-3.08906449e-05
-3.06946087e-05
-3.09537223e-05
-3.14786435e-05
-3.11096328e-05
-3.08845158e-05
-3.05704857e-05
-3.05006726e-05
-3.08904855e-05
-3.14683988e-05
-3.09755685e-05
-3.08482297e-05
-3.09186203e-05
-3.14636688e-05
-3.10523986e-05
-3.06716817e-05
-3.049308e-05
-3.09274057e-05
-3.14668907e-05
-3.0955171e-05
-3.08225221e-05
-3.09394377e-05
-3.14660946e-05
-3.09312757e-05
-3.08189179e-05
-3.09619312e-05
-3.14597813e-05
-3.0911391e-05
-3.08147072e-05
-3.09874168e-05
-3.14509027e-05
-3.0896286e-05
-3.08207933e-05
-3.10200514e-05
-3.14398178e-05
-3.08879979e-05
-3.08436228e-05
-3.10622473e-05
-3.14295944e-05
-3.08872613e-05
-3.08914521e-05
-3.11062133e-05
-3.14165271e-05
-3.08923604e-05
-3.04609422e-05
-3.05972294e-05
-3.1156111e-05
-3.13993668e-05
-3.08892813e-05
-3.08502598e-05
-3.11572186e-05
-3.14018108e-05
-3.08944602e-05
-3.08932587e-05
-3.12068504e-05
-3.14059757e-05
-3.09033989e-05
-3.09382009e-05
-3.12438753e-05
-3.14053239e-05
-3.08910053e-05
-3.04716251e-05
-3.06968775e-05
-3.12898981e-05
-3.14153433e-05
-3.09150507e-05
-3.08814348e-05
-3.12618653e-05
-3.14327151e-05
-3.0917147e-05
-3.0917985e-05
-3.13039956e-05
-3.14489681e-05
-3.09234547e-05
-3.09425948e-05
-3.13354764e-05
-3.14514012e-05
-3.08946174e-05
-3.05473287e-05
-3.07769502e-05
-3.12950207e-05
-3.15184918e-05
-3.14692281e-05
-3.10283143e-05
-3.0719094e-05
-3.06918967e-05
-3.06833751e-05
-3.05682515e-05
-3.0689929e-05
-3.13216302e-05
-3.14801183e-05
-3.09230372e-05
-3.0938849e-05
-3.12749838e-05
-3.14764928e-05
-3.09481694e-05
-3.0690147e-05
-3.06904836e-05
-3.13584884e-05
-3.15029384e-05
-3.09190584e-05
-3.09380302e-05
-3.11938838e-05
-3.14775344e-05
-3.09545203e-05
-3.06823426e-05
-3.06482334e-05
-3.1242383e-05
-3.14854128e-05
-3.09785203e-05
-3.06860542e-05
-3.06125047e-05
-3.11429461e-05
-3.14747747e-05
-3.09958869e-05
-3.06834695e-05
-3.05671011e-05
-3.10215033e-05
-3.14774566e-05
-3.09423266e-05
-3.09408936e-05
-3.09876992e-05
-3.14447613e-05
-3.10432851e-05
-3.07412939e-05
-3.05618972e-05
-3.09516536e-05
-3.14406026e-05
-3.1078081e-05
-3.07605654e-05
-3.05289321e-05
-3.08978546e-05
-3.14369897e-05
-3.0997425e-05
-3.09389764e-05
-3.09162759e-05
-3.14213755e-05
-3.11232746e-05
-3.08119825e-05
-3.05285719e-05
-3.08704074e-05
-3.1420883e-05
-3.10408278e-05
-3.09329814e-05
-3.08920812e-05
-3.14274649e-05
-3.10505301e-05
-3.09374588e-05
-3.09029614e-05
-3.14238287e-05
-3.1218896e-05
-3.09157413e-05
-3.06033155e-05
-3.0875021e-05
-3.14147418e-05
-3.1291781e-05
-3.09078378e-05
-3.06105476e-05
-3.0873812e-05
-3.14146036e-05
-3.13379113e-05
-3.09055744e-05
-3.06184558e-05
-3.08755488e-05
-3.14163659e-05
-3.13841847e-05
-3.09037083e-05
-3.06212533e-05
-3.0877571e-05
-3.14194972e-05
-3.14075433e-05
-3.09010133e-05
-3.06184097e-05
-3.08793687e-05
-3.1424381e-05
)
;

boundaryField
{
    closed
    {
        type            calculated;
        value           nonuniform List<scalar> 0();
    }
    open
    {
        type            calculated;
        value           nonuniform List<scalar> 0();
    }
    sides
    {
        type            empty;
    }
    procBoundary2to1
    {
        type            processor;
        value           uniform -3.15524711e-05;
    }
    procBoundary2to3
    {
        type            processor;
        value           uniform -3.14185143e-05;
    }
}


// ************************************************************************* //
