/*--------------------------------*- C++ -*----------------------------------*\
| =========                 |                                                 |
| \\      /  F ield         | OpenFOAM: The Open Source CFD Toolbox           |
|  \\    /   O peration     | Version:  2306                                  |
|   \\  /    A nd           | Website:  www.openfoam.com                      |
|    \\/     M anipulation  |                                                 |
\*---------------------------------------------------------------------------*/
FoamFile
{
    version     2.0;
    format      ascii;
    arch        "LSB;label=32;scalar=64";
    class       volScalarField;
    location    "0.00134";
    object      prefDh_H2;
}
// * * * * * * * * * * * * * * * * * * * * * * * * * * * * * * * * * * * * * //

dimensions      [1 1 -3 0 0 0 0];

internalField   nonuniform List<scalar> 
530
(
28.8037757
24.6802091
26.1750679
37.1247656
38.6458143
28.8815665
24.8293182
25.9459483
37.1001055
38.6348962
28.9585353
24.9406904
25.7464026
37.0963599
38.6289987
29.0755572
25.3044661
25.766948
37.0507011
38.692684
29.1273682
27.5146922
27.6711897
25.957499
27.1742033
36.7651122
38.445804
38.07392
38.822871
28.6362837
27.4585536
33.7322853
38.4504508
28.908599
25.6132221
23.6826146
23.6873338
35.5680907
38.2386932
28.961516
23.6414238
23.6715327
36.0340284
38.6023966
29.3480015
27.6880983
25.5520838
28.3473472
36.9486469
38.4325512
38.0540444
38.4086986
28.709896
21.409788
21.4264419
35.0337899
38.3422616
29.292034
26.119269
23.8091342
23.9145124
35.3521403
38.1866099
29.3030875
24.4843562
24.7599473
36.7218466
38.2630819
29.5177979
25.0832134
25.1949123
36.2701757
38.6059988
29.4062731
29.0526281
35.9642581
38.316424
31.1809279
27.577957
25.5428226
21.8664092
22.8832884
36.589996
38.2354777
37.2338752
29.4061705
23.5127943
24.4493015
37.6391757
38.0339042
29.9535354
28.6062293
37.98526
37.5307303
29.2459509
22.2577864
25.3913597
38.2495403
37.1540377
29.6014875
28.645697
38.1171138
36.593274
29.8915534
28.6100312
38.3579312
37.0162953
29.3997653
23.4183332
28.4742528
38.4206342
36.8768937
29.1517001
23.143638
28.4160758
38.4633136
36.7170372
29.1795651
22.9204024
28.3642361
38.3388686
35.2655899
29.6738997
28.672976
38.5575883
36.6165566
29.4124043
24.125236
28.4620952
38.4702578
36.6858901
29.1995722
23.8051327
28.399463
38.5181231
36.7235258
29.2590952
23.6933885
28.4440393
38.5366158
36.6920886
29.1106437
23.2236666
28.38386
38.3714563
34.5295942
29.203687
28.8327922
38.693818
36.6062785
27.6678084
23.4121185
28.466987
38.3499071
34.2990851
29.0885694
28.8514016
38.744431
36.7605802
27.7093383
23.8751971
28.6020872
38.5694124
36.9005311
28.2633418
23.1116054
28.4700287
38.3628006
34.2710777
28.8000351
28.9748312
38.7571573
36.8855884
27.9520319
24.047497
28.6666017
38.6036582
37.2275334
29.0104974
23.9577436
28.5840688
38.6872348
37.3756622
28.8424994
24.004711
28.5516361
38.6008288
37.6983234
28.7720856
24.1326339
24.4257306
22.360843
28.7822314
38.2301964
34.0950093
27.3149528
29.1999095
38.4543601
34.1320761
27.9949697
29.302815
38.6016882
37.1429957
26.0377312
22.230672
28.7054102
38.1491596
34.1030186
26.1616315
29.0420411
38.4065535
33.534377
25.5809886
28.9927616
38.3635414
33.2644897
25.1681812
28.9452216
38.3944253
33.1658066
25.2905603
28.9438601
38.5000403
33.2643716
26.2145356
29.1996245
38.6033139
37.6466118
24.4857177
21.2267763
28.7713317
38.3183044
34.1697176
27.0556544
29.2204471
38.7170395
37.8730354
26.4757491
24.0139353
28.8483638
38.2649165
34.5141248
26.8248406
29.206177
38.6462769
38.3417449
26.1558093
24.0584821
28.9779856
38.1588042
38.3200268
26.6507348
23.2350023
28.9667711
38.0950284
36.2989662
27.0135147
29.3608209
38.5307705
38.7785883
28.4028765
24.6577089
28.8155628
38.0215957
38.6211708
28.8158583
25.7976859
28.7996641
37.7772426
38.6474318
28.7349945
25.1575304
25.6150372
29.0359898
37.7389807
38.7048092
28.438866
23.9340082
29.382651
37.018689
38.2417152
28.3349339
28.3812575
35.8177929
38.7243884
28.5014066
24.9080394
28.2984546
36.2841699
38.643466
28.5063433
25.5136558
28.602561
35.8836576
38.540738
28.7826564
25.3061727
26.4036062
35.3131015
38.5418255
28.9687703
25.523488
25.7105352
34.757866
38.4491408
29.2786611
25.8797804
25.7233829
33.7321974
38.3531932
29.673048
26.3748308
25.8629994
32.883056
38.2412944
30.0126689
26.6853036
25.8089734
32.075222
38.0501696
30.3864341
27.2411926
25.9921731
31.2424442
37.8056639
30.3457776
25.4753253
23.752517
30.1281031
37.6102776
32.176236
27.8719428
23.7749386
28.2591302
36.2992254
38.4435216
28.8726756
27.1052303
28.6203584
37.0609503
31.152497
26.4319239
23.9874131
29.1647541
37.2703017
32.6683909
28.669072
25.2494428
29.0617157
37.5330265
30.4826357
29.3622663
29.0815846
37.3552637
32.2605116
28.8215833
25.8883072
29.4495136
37.5916888
31.8660323
28.7221991
23.9652288
22.9334386
28.4972626
37.4633261
29.7630951
28.210471
28.9165018
37.3771366
30.9690142
25.5113531
22.8221796
29.0442987
37.4362936
29.4625563
27.8187049
29.222997
37.4246012
29.1050289
27.7628634
29.5583102
37.3323544
28.8147303
27.6925397
29.9446568
37.2035691
28.6033516
27.7792577
30.4472404
37.0414391
28.5031576
28.1209408
31.1047958
36.8904685
28.522298
28.8439611
31.796316
36.6905754
28.5868824
22.3185644
24.35308
32.5840981
36.4547274
28.627764
28.2238586
32.5994887
36.4880273
28.7254596
28.8745811
33.3868006
36.5471735
28.8857675
29.5543889
33.9762738
36.529576
28.6509864
22.499275
25.8522901
34.7103821
36.6937816
29.1148408
28.7086558
34.2618414
36.944234
29.1433375
29.2625687
34.9342365
37.1798432
29.2435039
29.6199072
35.437386
37.2043695
28.6755351
23.6649625
27.0539539
34.7939035
38.1641822
37.4426498
30.5911183
26.2558215
25.8373807
25.6903262
23.9712101
25.7974959
35.2169026
37.6331828
29.1634762
29.5245811
34.4719393
37.5589248
29.3982238
25.8454815
25.8223524
35.8055567
37.9675858
29.0643686
29.5297905
33.178828
37.5800781
29.4908484
25.7172296
25.1848704
33.949673
37.6994325
29.8457863
25.7623217
24.6425861
32.3681425
37.5452873
30.1058633
25.7184035
23.9397153
30.4569225
37.594089
29.3035023
29.5972206
29.9370166
37.1047181
30.8325238
26.580872
23.8734963
29.3756397
37.0473697
31.3706032
26.8586766
23.361476
28.566004
37.0011896
30.1153304
29.5622353
28.8576507
36.7649262
32.077361
27.6274096
23.3601974
28.1858234
36.7672559
30.7819524
29.4604923
28.5203242
36.8600272
30.9336691
29.5174443
28.686409
36.8004049
33.5872774
29.1754703
24.5184513
28.28847
36.6690112
34.7453198
29.0198795
24.6350124
28.2928659
36.6681252
35.4810295
28.9677711
24.7614115
28.3433495
36.6949734
36.2129819
28.9244278
24.8096663
28.3948009
36.742177
36.5585006
28.8665927
24.7700175
28.4390505
36.8154209
)
;

boundaryField
{
    closed
    {
        type            calculated;
        value           nonuniform List<scalar> 0();
    }
    open
    {
        type            calculated;
        value           nonuniform List<scalar> 0();
    }
    sides
    {
        type            empty;
    }
    procBoundary2to1
    {
        type            processor;
        value           uniform 38.6740082;
    }
    procBoundary2to3
    {
        type            processor;
        value           uniform 36.7215453;
    }
}


// ************************************************************************* //
