/*--------------------------------*- C++ -*----------------------------------*\
| =========                 |                                                 |
| \\      /  F ield         | OpenFOAM: The Open Source CFD Toolbox           |
|  \\    /   O peration     | Version:  2306                                  |
|   \\  /    A nd           | Website:  www.openfoam.com                      |
|    \\/     M anipulation  |                                                 |
\*---------------------------------------------------------------------------*/
FoamFile
{
    version     2.0;
    format      ascii;
    arch        "LSB;label=32;scalar=64";
    class       volScalarField;
    location    "0.00026";
    object      prefDZ_H2;
}
// * * * * * * * * * * * * * * * * * * * * * * * * * * * * * * * * * * * * * //

dimensions      [1 -1 -1 0 0 0 0];

internalField   nonuniform List<scalar> 
531
(
6.18305044e-05
6.35611776e-05
6.35347078e-05
6.14985995e-05
6.18301821e-05
6.35585687e-05
6.3527955e-05
6.14876936e-05
6.1775255e-05
6.35360977e-05
6.34889422e-05
6.15668042e-05
6.16153567e-05
6.35930532e-05
6.35478941e-05
6.22554886e-05
6.21863501e-05
6.25291202e-05
6.2573288e-05
6.22911146e-05
6.22912754e-05
6.23576736e-05
6.2384614e-05
6.23235975e-05
6.2316009e-05
6.23334759e-05
6.2337858e-05
6.23286865e-05
6.23286453e-05
6.23318599e-05
6.23312593e-05
6.23291921e-05
6.23302063e-05
6.23315688e-05
6.23305652e-05
6.23295871e-05
6.2330512e-05
6.23311638e-05
6.23301998e-05
6.23298072e-05
6.23310259e-05
6.23312573e-05
6.23295554e-05
6.23293307e-05
6.23316163e-05
6.23320879e-05
6.23293401e-05
6.23283478e-05
6.23311838e-05
6.2333028e-05
6.23305102e-05
6.23277566e-05
6.23294138e-05
6.23331406e-05
6.23325391e-05
6.2328171e-05
6.23280063e-05
6.23318505e-05
6.23330852e-05
6.23301347e-05
6.23279671e-05
6.23298326e-05
6.2332734e-05
6.23317615e-05
6.23286828e-05
6.23290001e-05
6.2331625e-05
6.23315456e-05
6.2329933e-05
6.23300715e-05
6.23307957e-05
6.23300794e-05
6.23296754e-05
6.23315413e-05
6.23320743e-05
6.23290627e-05
6.23280132e-05
6.2331704e-05
6.23336262e-05
6.2329792e-05
6.23270986e-05
6.23303976e-05
6.23338258e-05
6.23311668e-05
6.23275635e-05
6.23293638e-05
6.23328678e-05
6.23316724e-05
6.23286661e-05
6.23294037e-05
6.23317746e-05
6.23312479e-05
6.23294709e-05
6.23299389e-05
6.23313796e-05
6.23308466e-05
6.23294372e-05
6.23300002e-05
6.23316531e-05
6.23312302e-05
6.23292315e-05
6.23293252e-05
6.23314314e-05
6.23316936e-05
6.23302265e-05
6.23295402e-05
6.23298346e-05
6.23305664e-05
6.23314693e-05
6.23316963e-05
6.23298159e-05
6.23278712e-05
6.23297593e-05
6.23343741e-05
6.23334572e-05
6.23258701e-05
6.23256518e-05
6.2334528e-05
6.23371506e-05
6.232834e-05
6.23231504e-05
6.23299072e-05
6.23385852e-05
6.23339827e-05
6.23233929e-05
6.23246466e-05
6.23364454e-05
6.23373568e-05
6.23276885e-05
6.23241507e-05
6.23298443e-05
6.23361304e-05
6.23341527e-05
6.23267041e-05
6.23257202e-05
6.23309513e-05
6.23354219e-05
6.23336055e-05
6.23266259e-05
6.23253734e-05
6.23315483e-05
6.23367569e-05
6.23330483e-05
6.23245802e-05
6.23250263e-05
6.23349061e-05
6.23377345e-05
6.23294777e-05
6.23231456e-05
6.23275268e-05
6.23377042e-05
6.23367669e-05
6.23255932e-05
6.23231914e-05
6.23314993e-05
6.23384056e-05
6.2333836e-05
6.23239689e-05
6.23243126e-05
6.23342678e-05
6.23379271e-05
6.23311442e-05
6.2323965e-05
6.23257281e-05
6.23352756e-05
6.23373198e-05
6.2329801e-05
6.23237436e-05
6.23266317e-05
6.23366813e-05
6.23370771e-05
6.23274358e-05
6.23232117e-05
6.23295366e-05
6.23383415e-05
6.23355343e-05
6.23235854e-05
6.23234462e-05
6.2335132e-05
6.23392288e-05
6.23293929e-05
6.23217843e-05
6.23275838e-05
6.23396033e-05
6.23373639e-05
6.23231339e-05
6.23222538e-05
6.23345889e-05
6.2339799e-05
6.23307677e-05
6.23224109e-05
6.23261176e-05
6.23372402e-05
6.23370488e-05
6.2327304e-05
6.23243253e-05
6.23296918e-05
6.23356277e-05
6.23341389e-05
6.23274718e-05
6.23263316e-05
6.23305091e-05
6.23339587e-05
6.23328704e-05
6.23286136e-05
6.23273738e-05
6.23297898e-05
6.23333014e-05
6.23331443e-05
6.23289238e-05
6.23270953e-05
6.23300274e-05
6.23339476e-05
6.23326961e-05
6.2327529e-05
6.23275745e-05
6.23323191e-05
6.23332917e-05
6.23297942e-05
6.23282095e-05
6.23303376e-05
6.23320588e-05
6.23309043e-05
6.23295414e-05
6.2330055e-05
6.23308486e-05
6.23306276e-05
6.233041e-05
6.23306392e-05
6.23303992e-05
6.23298274e-05
6.23303659e-05
6.23316046e-05
6.23311059e-05
6.23288603e-05
6.23289761e-05
6.23322373e-05
6.23328047e-05
6.23292488e-05
6.23274067e-05
6.23304975e-05
6.23341373e-05
6.23320609e-05
6.23268081e-05
6.23272695e-05
6.23337393e-05
6.23344954e-05
6.23287969e-05
6.23262646e-05
6.23302586e-05
6.23346956e-05
6.23326061e-05
6.23268325e-05
6.23270824e-05
6.23330529e-05
6.23342412e-05
6.23297064e-05
6.23269255e-05
6.23295393e-05
6.23335765e-05
6.23327745e-05
6.23280046e-05
6.23280057e-05
6.23317988e-05
6.23326711e-05
6.23300107e-05
6.23286781e-05
6.23304898e-05
6.23319858e-05
6.23305361e-05
6.23289584e-05
6.23303305e-05
6.23322464e-05
6.2330809e-05
6.23283069e-05
6.23296333e-05
6.23330595e-05
6.23319856e-05
6.23276084e-05
6.23280939e-05
6.23336681e-05
6.23335983e-05
6.23274654e-05
6.232664e-05
6.2333008e-05
6.23353677e-05
6.2328991e-05
6.23248964e-05
6.23302489e-05
6.23368688e-05
6.23329406e-05
6.23243814e-05
6.23258101e-05
6.2336228e-05
6.23360753e-05
6.23268693e-05
6.23253616e-05
6.23319874e-05
6.23349129e-05
6.23304615e-05
6.2327203e-05
6.23297441e-05
6.23328421e-05
6.23313702e-05
6.23286047e-05
6.23294379e-05
6.23323245e-05
6.23319108e-05
6.23284299e-05
6.23284544e-05
6.23323821e-05
6.23331734e-05
6.23292161e-05
6.23272704e-05
6.23305769e-05
6.23339356e-05
6.23318225e-05
6.2327306e-05
6.23278325e-05
6.23329447e-05
6.23333704e-05
6.23296508e-05
6.23279029e-05
6.23295396e-05
6.23325035e-05
6.23322994e-05
6.2329562e-05
6.23286364e-05
6.23299139e-05
6.23320628e-05
6.23318663e-05
6.23294587e-05
6.23289208e-05
6.23306684e-05
6.23318995e-05
6.23308597e-05
6.23292716e-05
6.23297e-05
6.23314055e-05
6.23313045e-05
6.23298059e-05
6.23297304e-05
6.23308405e-05
6.23310547e-05
6.23302503e-05
6.23299919e-05
6.23305814e-05
6.23308335e-05
6.23303789e-05
6.23301526e-05
6.23305119e-05
6.23307134e-05
6.23304347e-05
6.23302623e-05
6.2330455e-05
6.23305888e-05
6.23304696e-05
6.23303808e-05
6.23304529e-05
6.2330497e-05
6.23304263e-05
6.23304132e-05
6.23305281e-05
6.23305096e-05
6.23303001e-05
6.23302736e-05
6.23307604e-05
6.23308445e-05
6.23301188e-05
6.23299181e-05
6.23310152e-05
6.23314197e-05
6.23301434e-05
6.23304525e-05
6.23344877e-05
6.23329386e-05
6.23210251e-05
6.23291511e-05
6.23742076e-05
6.23592669e-05
6.22820328e-05
6.22878559e-05
6.2606818e-05
6.25499357e-05
6.22632834e-05
6.21686133e-05
6.34217981e-05
6.36133547e-05
6.23034014e-05
6.16906578e-05
6.22779989e-05
6.36445591e-05
6.36182391e-05
6.17252091e-05
6.14614893e-05
6.22740832e-05
6.36960223e-05
6.37345117e-05
6.12217643e-05
6.11613395e-05
6.3161395e-05
6.39825176e-05
6.36709478e-05
6.07979102e-05
6.06387634e-05
6.37638793e-05
6.3904522e-05
6.37805937e-05
6.37980641e-05
6.37802521e-05
6.37719394e-05
6.38471489e-05
6.387431e-05
6.40036945e-05
6.40788655e-05
6.42762139e-05
6.44509783e-05
6.4897773e-05
6.50708947e-05
6.44988542e-05
6.41270888e-05
6.36891211e-05
6.34291323e-05
6.31899699e-05
6.30705459e-05
6.29136823e-05
6.089552e-05
6.28502999e-05
6.46252489e-05
6.6695948e-05
6.87568235e-05
7.08647351e-05
7.01156626e-05
7.22305946e-05
7.14928291e-05
6.85636237e-05
7.18302092e-05
6.71366137e-05
8.05640552e-05
8.01732988e-05
8.39147636e-05
8.54459658e-05
8.79208036e-05
9.04013177e-05
9.31291497e-05
9.58366887e-05
9.84530098e-05
0.000101362283
0.000104083326
0.000106836517
0.000110515733
0.000114272149
0.000118357636
0.000122224043
0.000125695888
0.000128809858
0.000131576835
0.000133774058
0.000136119143
0.000136998437
0.000139202211
0.000139211058
0.000142322335
0.000141335926
0.00014368041
0.000144466318
0.000147428512
0.000146724236
0.000150450565
0.00014860889
0.000145643851
0.000150795351
0.000159221796
0.000153087424
0.000148288443
0.000154158473
0.000161822997
0.000155724985
0.000154739096
0.000157898861
0.000163343433
0.000157878626
0.000157692688
0.000161523494
0.000164916765
0.000160858862
0.000159553525
0.000163695972
0.000165913308
0.000163642818
0.000160800477
0.000165161509
0.0001669872
0.000165874993
0.000163081951
0.00016633571
0.000167825589
0.000167556818
0.000165384312
0.000167640831
0.00016888421
0.000168884864
0.000167148284
0.000168867658
0.000169895856
0.00016977429
0.00016844826
0.000169841207
0.000170738396
0.000170653626
0.000169481852
0.000170603927
0.000171457993
0.000171383743
0.000170392098
0.000171259413
0.000172136023
0.00017207062
0.000171217974
0.000171892133
0.000172804872
0.000172759081
0.000172004776
0.00017254538
0.000173485826
0.00017346819
0.000172777184
0.000173240047
0.000174179395
0.000174193259
0.000173552557
)
;

boundaryField
{
    closed
    {
        type            calculated;
        value           nonuniform List<scalar> 0();
    }
    open
    {
        type            calculated;
        value           nonuniform List<scalar> 0();
    }
    sides
    {
        type            empty;
    }
    procBoundary4to3
    {
        type            processor;
        value           uniform 6.15223177e-05;
    }
    procBoundary4to5
    {
        type            processor;
        value           uniform 0.000173965666;
    }
}


// ************************************************************************* //
