/*--------------------------------*- C++ -*----------------------------------*\
| =========                 |                                                 |
| \\      /  F ield         | OpenFOAM: The Open Source CFD Toolbox           |
|  \\    /   O peration     | Version:  2306                                  |
|   \\  /    A nd           | Website:  www.openfoam.com                      |
|    \\/     M anipulation  |                                                 |
\*---------------------------------------------------------------------------*/
FoamFile
{
    version     2.0;
    format      ascii;
    arch        "LSB;label=32;scalar=64";
    class       volScalarField;
    location    "0.00156";
    object      h;
}
// * * * * * * * * * * * * * * * * * * * * * * * * * * * * * * * * * * * * * //

dimensions      [0 2 -2 0 0 0 0];

internalField   nonuniform List<scalar> 
530
(
-3843.07837
-4833.64018
345.260524
10252.6531
9899.54686
-3806.20389
-4803.59305
363.932712
10279.7618
9925.13651
-3749.9094
-4763.77198
371.950338
10309.7866
9952.83583
-3648.8936
-4737.7458
309.772254
10347.8093
9943.22017
-3476.43604
-5475.36623
-887.365009
9475.29366
10319.6588
8376.79571
-6501.83456
-7027.49338
-5585.24095
-1346.57376
10032.5811
9890.9975
10316.2313
9522.0276
-2479.04946
-1396.30834
10497.994
10214.2058
-3902.04224
-4132.12088
-3816.65225
-790.586264
10217.9278
10005.3589
-4578.89377
-5359.28061
-845.673606
10036.3117
9927.1035
-4816.03125
-5346.1853
-5133.90835
-793.4048
9950.1336
10279.3003
10268.3003
10075.285
429.554576
-4967.70251
-1176.77691
10029.4143
9936.67536
-4194.98246
-4758.95581
-4212.47013
-1335.27495
10038.2121
10025.3129
-4276.09926
-5389.02263
-838.977261
10034.2597
10135.7186
-3133.47154
-4844.86303
-1418.69283
10107.5242
10128.4527
-2210.48726
-1368.6885
10387.0856
10494.2481
-1060.37961
-4487.63646
-3585.04641
-4595.83537
-1494.91704
9756.02717
10593.0262
9999.76697
-3378.59307
-5628.78832
-2198.71209
9865.45479
10149.8426
-2781.28012
-2826.29331
9903.067
10167.4653
-3607.60721
-5283.29186
-2566.26166
9841.93848
10072.7399
-2927.07501
-3534.34704
9640.03589
10064.8795
-2919.55376
-2909.92019
9774.11911
10253.6527
-3476.81459
-5078.64468
-1562.54618
9860.46445
10202.0975
-3044.3645
-5204.82996
-1705.80816
9796.91733
10185.2626
-3089.83254
-5368.49796
-2756.1456
9799.21475
10229.0905
-2392.59882
-2879.52999
9702.0035
10253.2933
-2811.24451
-4938.81473
-1730.0606
9894.25641
10262.0353
-2453.7632
-5016.48999
-1819.86646
9877.13678
10275.4107
-2460.28093
-5109.73624
-2075.41002
9815.06134
10252.3453
-2678.12664
-5337.47232
-3104.06534
9811.57643
10343.0206
-2397.59737
-2988.24952
9649.56763
10241.481
-2757.43937
-5148.01498
-3062.01625
9890.05726
10374.7292
-2240.95758
-2853.40405
9762.35394
10270.5311
-2433.37234
-4944.93043
-2216.44248
9915.9674
10249.7153
-2234.37986
-5138.91676
-3098.3065
9892.97552
10330.504
-2039.50317
-2749.99541
9661.32188
10213.3357
-2150.45714
-4899.20841
-2237.43401
9926.5155
10303.541
-1230.51649
-4577.04173
-1860.45572
9972.13176
10368.7829
-674.840196
-4323.90693
-1653.52347
9976.03226
10390.4456
-857.31799
-4340.13531
-3568.30715
-4723.75
-4148.23139
9676.85932
10193.1257
-2503.93845
-3901.71788
9057.4394
10213.7733
-2732.33102
-3526.45697
8980.36504
10128.5106
-2709.45327
-5995.93306
-4941.81401
9328.70729
10125.7791
-2417.92137
-4201.36459
8631.4214
10079.7626
-2780.96279
-4288.66142
8457.00066
10077.1573
-2748.86681
-4277.75685
8340.14766
10096.7301
-2541.22567
-4106.00803
8272.04016
10162.4224
-2260.84511
-3700.61389
8248.25658
10099.2569
-1801.56516
-5756.39813
-5179.00948
8991.77002
10243.5752
-1383.27701
-3408.05208
8244.14226
10163.7294
-1104.29765
-5248.09572
-4775.55728
9043.6463
10332.3693
-902.486277
-3089.74564
8279.10067
10229.1809
-622.285334
-4944.60669
-4141.49417
9111.93528
10259.6805
-179.956135
-4958.63338
-4558.25428
9084.89136
10368.1473
-834.012638
-3044.08897
8348.10569
10285.2735
-72.1304855
-4546.98614
-3719.60261
9253.68307
10351.4654
451.017181
-4503.48031
-3110.4607
9323.46691
10543.7075
2505.29803
-3179.03146
-4124.20377
-4110.82446
9111.41359
10190.0056
384.170143
-5679.01354
-1465.50703
9283.80048
-19.7209555
-3025.97116
8056.13808
10562.5941
10317.0667
-1083.06189
-5982.19415
-4759.06155
9132.94756
10268.1545
372.356898
-4509.12052
-3667.83065
9406.78849
10373.272
651.898045
-4458.7495
-3721.06307
9446.1913
10358.8717
583.49289
-4517.74796
-3782.65893
9483.06699
10349.6304
483.627322
-4564.97932
-3875.7128
9519.41966
10300.7686
141.27263
-4965.40296
-4670.78031
9430.62587
10330.5563
-1576.57206
-3466.729
8951.86051
10241.4689
-344.930232
-5064.4374
-4382.37128
9539.56743
10204.0604
-385.231449
-5421.969
-4901.43921
9507.91199
10014.566
-982.095734
-6594.47718
-4998.48734
8968.68342
10508.0336
10121.6658
-1788.67193
-3795.57249
9099.41739
10164.752
-1174.64588
-5426.64196
-4872.65511
9569.24262
10161.1213
-519.57266
-5401.59053
-4977.05465
9551.76277
10372.4138
-1513.567
-3032.4123
9310.49353
10413.1014
355.472395
-4321.6745
-3837.36258
9762.11618
10404.2293
-547.466368
-3992.57967
-4866.35548
-4870.19345
9103.84222
10230.7626
-2618.21776
-4167.17702
9111.0841
10040.3327
-2055.03399
-6330.97029
-6220.67784
9383.63337
10071.8208
-2765.61225
-4589.67014
8961.64373
10194.0288
-3203.30011
-4452.97945
8966.24128
10223.7336
-3166.57487
-4342.67084
9003.91769
10244.7893
-3116.14442
-4244.33572
9044.85737
10271.2619
-3026.14377
-4078.18312
9099.06476
10305.8491
-2908.79363
-3992.51179
9221.11438
10077.7773
-1835.70732
-6396.71974
-6181.48374
9311.82546
10057.1362
-2924.26054
-4604.80058
9034.15824
10203.6541
-3213.12387
-4273.77812
9078.95998
10274.2855
-2956.04206
-4028.00784
9217.93143
10092.3415
-1566.29271
-6308.29496
-5958.57945
9224.44252
10093.091
-2724.57748
-4351.72236
9061.31463
10254.4876
-2907.68317
-3952.23157
9090.06578
10312.8628
-2683.78065
-3814.28969
9133.1353
10042.1211
-1146.03622
-6839.12082
-6308.535
8685.29738
10043.783
9008.1008
10192.283
8837.10129
-3959.58175
-5963.58053
-6936.18506
-6731.49557
8667.98824
9988.92695
-2676.81926
-4152.15898
8857.06325
10131.2475
-342.919272
-5334.27967
-5042.02841
9122.0532
10315.4626
-1204.86945
-3056.60868
8996.12696
10384.7615
1273.07494
-4433.00165
-4257.03483
9081.4219
10272.5261
1416.86377
-4823.46076
-4671.50658
8953.30925
10163.4811
756.465128
-5344.21996
-5210.23203
8846.84067
10244.6848
-1469.38779
-3624.0474
8738.71937
10244.3034
340.724184
-5039.71627
-4991.51791
8836.12275
10100.6091
470.948702
-5546.99823
-5508.72473
8735.64403
10181.3852
-1642.00083
-3928.61119
8615.94006
10151.6914
-199.784827
-5520.28189
-5513.04351
8691.70521
10180.0856
-1762.37319
-3854.76671
8551.33786
10363.9523
-1731.85506
-3351.0613
8710.71457
10339.3858
797.627882
-4501.80091
-4499.92128
8867.87968
10243.7279
1254.10553
-4677.77952
-4679.20518
8904.06988
10224.2667
1144.52247
-4693.39196
-4691.01031
8983.37272
10232.8106
1146.56499
-4652.99162
-4653.93752
9075.23189
10242.9478
1126.62409
)
;

boundaryField
{
    closed
    {
        type            lookUpEnthalpy;
        h0              nonuniform List<scalar> 0();
        value           nonuniform List<scalar> 0();
    }
    open
    {
        type            zeroGradient;
    }
    sides
    {
        type            empty;
    }
    procBoundary2to1
    {
        type            processor;
        value           uniform 9877.76205;
    }
    procBoundary2to3
    {
        type            processor;
        value           uniform -4631.14998;
    }
}


// ************************************************************************* //
