/*--------------------------------*- C++ -*----------------------------------*\
| =========                 |                                                 |
| \\      /  F ield         | OpenFOAM: The Open Source CFD Toolbox           |
|  \\    /   O peration     | Version:  2306                                  |
|   \\  /    A nd           | Website:  www.openfoam.com                      |
|    \\/     M anipulation  |                                                 |
\*---------------------------------------------------------------------------*/
FoamFile
{
    version     2.0;
    format      ascii;
    arch        "LSB;label=32;scalar=64";
    class       volScalarField;
    location    "0.00156";
    object      Z;
}
// * * * * * * * * * * * * * * * * * * * * * * * * * * * * * * * * * * * * * //

dimensions      [0 0 0 0 0 0 0];

internalField   nonuniform List<scalar> 
530
(
0.0147628611
0.014807357
0.0145712131
0.0140762631
0.0140719275
0.0147612836
0.0148057546
0.0145701236
0.014075343
0.0140713087
0.0147590477
0.0148042239
0.014569809
0.0140752054
0.0140707073
0.0147564068
0.014802859
0.0145769675
0.0140732353
0.0140770471
0.0147469469
0.0148461383
0.0146315846
0.014110351
0.014073477
0.0141154553
0.0148767077
0.014909543
0.0148399006
0.0146639004
0.0140759044
0.0140843296
0.0140694251
0.0140807364
0.0147044925
0.0146646207
0.0140671861
0.0140716222
0.0147641159
0.0147788791
0.0147622734
0.0146296623
0.0140732204
0.0140715012
0.0147908412
0.0148334177
0.0146273464
0.014086532
0.0140685238
0.0148090795
0.0148234703
0.0148205587
0.014625082
0.014075413
0.0140679041
0.0140631107
0.0140698742
0.0145574494
0.0148138072
0.0146394064
0.0140829309
0.0140687239
0.0147778455
0.0148030459
0.0147818446
0.0146549879
0.0140809975
0.0140704302
0.0147766735
0.0148314015
0.0146266522
0.0140849287
0.014067149
0.0147313499
0.0148067447
0.0146546061
0.0140794106
0.0140606741
0.0146873914
0.0146553548
0.0140673118
0.0140642627
0.0146298804
0.0147942964
0.0147432161
0.0148008525
0.0146536323
0.0140922785
0.0140617905
0.0140710335
0.0147355421
0.014842051
0.0146877049
0.0140894031
0.0140601364
0.0147163577
0.0147197452
0.0140870923
0.014071546
0.0147465121
0.0148283037
0.0147060492
0.0140894273
0.0140634042
0.0147214506
0.0147474396
0.0140962127
0.0140670836
0.0147192509
0.0147248762
0.0140888457
0.0140707494
0.0147392638
0.0148194841
0.0146582917
0.0140895468
0.014066237
0.0147246935
0.014822411
0.0146673142
0.0140897592
0.0140673605
0.0147261764
0.0148291157
0.0147139488
0.0140883872
0.0140602773
0.0146996524
0.0147199391
0.0140921489
0.0140697751
0.0147118747
0.0148133116
0.014665709
0.0140863125
0.0140648618
0.0146991302
0.0148140608
0.0146711769
0.0140847251
0.0140652375
0.014699239
0.0148189346
0.0146833462
0.0140862516
0.0140659933
0.0147095339
0.0148284021
0.0147280553
0.014086032
0.0140589094
0.0147037887
0.0147238796
0.014088119
0.014070948
0.0147128304
0.0148238179
0.0147247297
0.0140842302
0.0140577971
0.0146986462
0.0147176678
0.0140812768
0.0140702547
0.0146994528
0.0148157975
0.0146889849
0.0140807123
0.0140673535
0.0146928282
0.0148213818
0.0147271228
0.0140808362
0.0140613722
0.0146909439
0.0147136751
0.0140810391
0.0140727165
0.0146877682
0.0148143612
0.014689839
0.0140795529
0.0140672362
0.0146466235
0.0147973199
0.0146734518
0.0140776186
0.0140664294
0.0146207866
0.0147869505
0.0146648249
0.014078616
0.0140661506
0.0146308964
0.0147868243
0.0147510662
0.0148082295
0.0147754431
0.0140884372
0.0140667579
0.0147149074
0.0147618132
0.0141021643
0.0140683766
0.0147283996
0.0147521208
0.0141047497
0.0140801254
0.0147174193
0.0148664628
0.014810927
0.0141037695
0.0140715182
0.0147147744
0.0147763616
0.0141219553
0.0140720792
0.0147319324
0.0147817232
0.014128515
0.0140735158
0.0147297797
0.0147812486
0.0141331429
0.0140727846
0.0147203173
0.014773196
0.0141367332
0.0140714786
0.0147071701
0.0147582693
0.0141352173
0.0140792339
0.014674186
0.0148538912
0.0148205111
0.01411664
0.014068551
0.0146649552
0.0147427888
0.0141387268
0.0140757383
0.014642219
0.0148309435
0.0148030862
0.0141161359
0.0140658536
0.0146420835
0.014728247
0.0141393254
0.014073432
0.0146196568
0.0148164239
0.01477825
0.0141110801
0.0140720013
0.0145968033
0.0148148366
0.0147936781
0.0141128306
0.0140645631
0.014636466
0.0147255763
0.0141375897
0.0140715476
0.0145934731
0.0147979175
0.0147590954
0.0141064998
0.0140678817
0.0145652431
0.0147924929
0.0147309563
0.0141044068
0.0140620069
0.0144672025
0.014730645
0.0147773571
0.014777388
0.0141106196
0.0140749378
0.014566457
0.0148424256
0.0146554
0.0141015338
0.0145895707
0.0147305
0.0141377541
0.0140651768
0.0140700965
0.0146356398
0.0148598781
0.014803424
0.014109654
0.0140730514
0.0145729785
0.014794752
0.0147591363
0.014099475
0.0140702813
0.0145568778
0.0147914649
0.0147597392
0.0140970162
0.0140696015
0.0145598185
0.0147934614
0.0147623448
0.0140953407
0.0140704193
0.0145654666
0.0147960877
0.0147671985
0.014094068
0.0140729101
0.0145814723
0.0148147039
0.0147973254
0.0140981122
0.0140667536
0.014667801
0.0147452736
0.0141087576
0.0140734058
0.0146067063
0.0148195913
0.0147886183
0.0140934328
0.0140753285
0.0146098957
0.0148328045
0.0148126848
0.0140910683
0.0140824792
0.0146350181
0.0148871445
0.0148143606
0.0141038664
0.0140710043
0.0140778081
0.0146759754
0.0147653442
0.0141007592
0.0140790653
0.0146464338
0.0148379757
0.0148107962
0.0140925461
0.014079415
0.0146162687
0.0148357409
0.0148121064
0.0140939914
0.0140700284
0.014667629
0.0147306833
0.0140975139
0.0140736807
0.0145757189
0.0147908065
0.0147659967
0.014088975
0.0140707795
0.0146226889
0.0147707646
0.0148154402
0.0148073644
0.0141090287
0.0140746137
0.014718566
0.0147804242
0.0140996038
0.0140827929
0.0146880054
0.014879793
0.0148652895
0.0141016408
0.0140768966
0.0147287957
0.014793745
0.0141093045
0.0140718904
0.0147493733
0.0147875378
0.0141097562
0.0140717902
0.0147483812
0.0147831935
0.0141076937
0.0140712086
0.0147459687
0.0147787871
0.0141052232
0.0140704517
0.0147417998
0.0147722903
0.014101945
0.014071523
0.0147344486
0.0147728452
0.0140920849
0.014082484
0.0146792468
0.0148829596
0.0148622311
0.0140986327
0.014076035
0.0147370762
0.014793108
0.0140999553
0.0140703456
0.014750851
0.0147795007
0.0140989025
0.0140716407
0.0147387002
0.0147742319
0.0140890302
0.0140827914
0.0146679404
0.0148810099
0.0148526155
0.0141001885
0.0140758662
0.0147323023
0.0147835766
0.0140987183
0.0140708524
0.0147420485
0.0147681582
0.0140992134
0.0140735195
0.0147319566
0.0147678156
0.0140939281
0.014087746
0.0146548868
0.0149096063
0.0148753169
0.0141240187
0.0140871556
0.0141344132
0.0140808126
0.014128598
0.0147715881
0.0148732004
0.0149074995
0.0148946043
0.0141142612
0.0140860418
0.0147336971
0.0147833287
0.014102949
0.0140858844
0.0146161076
0.0148435176
0.0148172364
0.0141068268
0.0140754753
0.0146668245
0.0147329073
0.0141025155
0.0140757729
0.0145378439
0.0147999513
0.0147850349
0.0141044398
0.0140787879
0.014529277
0.0148145468
0.014801586
0.014105809
0.0140806689
0.0145576132
0.0148376966
0.0148200183
0.0141123069
0.0140724706
0.0146734019
0.014753929
0.0141113629
0.0140754698
0.0145797286
0.014823539
0.0148142701
0.0141135312
0.0140809495
0.0145718099
0.014845172
0.0148331398
0.0141180643
0.0140744771
0.0146784072
0.0147677382
0.0141173562
0.0140784944
0.0146019842
0.014845465
0.0148320251
0.0141238278
0.014072487
0.0146860901
0.0147611086
0.0141240434
0.014068408
0.014683001
0.0147425143
0.0141196574
0.0140738381
0.0145563992
0.0147995756
0.0147922953
0.0141194853
0.0140763865
0.0145338507
0.0148051568
0.014799308
0.0141174665
0.0140762571
0.0145375232
0.0148050933
0.0147991524
0.0141153255
0.0140757643
0.014536886
0.01480284
0.0147973433
0.0141123674
0.0140752053
0.014537426
)
;

boundaryField
{
    closed
    {
        type            zeroGradient;
    }
    open
    {
        type            zeroGradient;
    }
    sides
    {
        type            empty;
    }
    procBoundary2to1
    {
        type            processor;
        value           uniform 0.0140727254;
    }
    procBoundary2to3
    {
        type            processor;
        value           uniform 0.0148011608;
    }
}


// ************************************************************************* //
