/*--------------------------------*- C++ -*----------------------------------*\
| =========                 |                                                 |
| \\      /  F ield         | OpenFOAM: The Open Source CFD Toolbox           |
|  \\    /   O peration     | Version:  2306                                  |
|   \\  /    A nd           | Website:  www.openfoam.com                      |
|    \\/     M anipulation  |                                                 |
\*---------------------------------------------------------------------------*/
FoamFile
{
    version     2.0;
    format      ascii;
    arch        "LSB;label=32;scalar=64";
    class       volScalarField;
    location    "0.00074";
    object      prefDh_H2O;
}
// * * * * * * * * * * * * * * * * * * * * * * * * * * * * * * * * * * * * * //

dimensions      [1 1 -3 0 0 0 0];

internalField   nonuniform List<scalar> 
530
(
90.4257817
89.8312505
89.8185051
89.8194967
89.8195736
89.8195747
89.8195748
89.8195748
89.8195748
89.8195748
89.8195748
89.8195748
89.8195748
89.8195748
89.8195748
89.8195748
89.8195748
89.8195748
89.8195748
89.8195748
89.8195748
89.8195748
89.8195748
89.8195748
89.8195748
89.8195748
89.8195748
89.8195748
89.8195748
89.8195748
89.8195748
89.8195748
89.8195748
89.8195748
89.8195748
89.8195748
89.8195748
89.8195748
89.8195748
89.8195748
89.8195748
89.8195748
89.8195748
89.8195748
89.8195748
89.8195748
89.8195748
89.8195748
89.8195748
89.8195748
89.8195748
89.8195748
89.8195748
89.8195748
89.8195748
89.8195748
89.8195748
89.8195748
89.8195748
89.8195748
89.8195748
89.8195748
89.8195748
89.8195748
89.8195748
89.8195748
89.8195748
89.8195748
89.8195748
89.8195748
89.8195748
89.8195748
89.8195748
89.8195747
89.8195748
89.8195745
89.8195731
89.819575
89.8195809
89.8195636
89.8195326
89.8195674
89.8196672
89.8196416
89.8192414
89.819328
89.8191275
89.8173184
89.8175299
89.8287491
89.8649785
89.8540342
89.5943888
89.4849591
89.9480784
90.768465
90.5090282
88.7332561
88.1272855
88.1652091
90.9726131
92.45431
92.3003672
92.5452678
88.0744748
87.996064
87.9892024
88.00127
89.7698381
92.4532868
92.2174085
92.7629156
88.2089489
87.9131071
87.9928964
89.6063284
92.4879704
92.200506
92.960079
88.2205923
87.9549568
87.9551719
88.9516623
92.4002994
92.8015649
88.1605198
88.8585557
92.3425103
92.8088471
87.9239185
87.6708867
88.894626
92.5043758
92.2221951
88.0599551
88.9508302
92.4102112
91.6045131
88.0130018
88.9725213
92.4207196
91.4405729
87.9848016
88.9808952
92.4296304
91.3519179
87.9825226
89.0069298
92.4268705
91.359514
88.0048409
89.0644402
92.4215982
91.3631393
88.0065041
88.9066042
92.3939722
92.9452545
87.8424614
87.6584639
88.9974108
92.5079961
91.7213313
88.0360117
88.9234213
92.3950796
93.0361535
87.8277549
87.6402259
89.0257242
92.5157727
91.4317389
88.0096668
89.2272292
92.4287118
90.930275
87.9865604
89.2861602
92.4263996
90.8295556
87.9800526
89.3364875
92.4237892
90.7977237
87.9935091
89.4005372
92.4185696
90.7940623
87.989252
89.1061296
92.3955683
92.7705324
87.7804179
87.652179
89.2119076
92.488567
91.1331384
88.0326073
89.5148456
92.398563
90.7671147
88.0397951
89.1348027
92.3860711
92.9380345
87.8236968
87.6837527
89.2984307
92.5136206
91.1943728
88.054081
89.0420713
92.4495455
92.8183249
87.8284702
87.6487829
89.1247762
92.6039432
91.1242344
88.0376176
89.3629007
92.5600253
90.814038
88.0480003
89.3088169
92.6196289
90.9794093
88.0774229
89.1850767
92.7108896
91.2703292
88.1107258
88.5721955
92.9140502
92.7151528
88.3001271
87.6850517
88.1811896
92.6288406
92.3733531
88.2180149
88.3869409
92.603116
92.4996902
88.3723662
88.3426938
92.2561499
92.6709514
88.6969382
88.2824295
90.9735166
92.8063755
90.3978672
87.8746271
87.8766783
91.0624853
92.5871964
89.2665435
88.4730089
91.3722323
92.8209829
89.2868981
88.3633893
90.4534225
92.7492125
91.2485597
88.0212568
87.9661308
90.6909969
92.981248
90.0702243
88.5889602
90.4486317
92.6564062
91.4822105
88.1998605
88.024914
87.9789991
87.9869111
90.2812716
92.6694964
91.3562791
88.0595164
87.9831639
90.7391271
92.8285169
89.9350064
88.5697811
91.2333966
92.7265083
89.9054998
88.5890243
90.667369
92.4909138
91.5769271
88.1698791
88.0074756
87.9971393
87.9526761
87.9544911
90.6861707
92.4381976
92.3776721
89.4432444
88.6135562
91.7638693
92.6606053
89.4056965
88.3157094
90.5350623
92.4927787
91.435757
87.9837031
87.8758641
90.1118088
92.5750876
91.2880175
87.9565731
87.9021356
90.9100928
92.7013452
89.6813034
88.2802267
90.414106
92.4777152
91.5050994
88.0199647
87.9393749
90.3121362
92.5126592
91.478731
88.0712238
88.0042395
90.4455034
92.4725548
91.5774298
88.1305667
88.0565146
90.6105226
92.4360885
91.7057189
88.2084698
87.9982567
88.0277725
90.4672387
92.464831
91.4663428
88.0372655
87.9583001
90.3188162
92.4951566
91.3826646
87.9786409
87.9189384
90.5868811
92.5615692
90.0536806
88.277012
90.8663458
92.5124237
89.7617892
88.2423227
90.2861717
92.4217576
91.5138125
87.9525056
87.8844779
90.224566
92.4964699
91.3126871
87.9226045
87.8822112
90.5525916
92.5433132
90.0999025
88.2078893
90.0800041
92.4397003
91.4242575
87.9209494
87.8966731
90.5764434
92.5303282
90.1897184
88.2344304
90.0791009
92.4265627
91.4985936
87.9455693
87.932877
90.3378898
92.4838786
91.3365194
87.9277018
87.9171444
90.3082283
92.4972552
91.2148778
87.8785966
87.8740335
90.5131105
92.5457969
89.9871172
88.1516081
90.5201668
92.5043206
89.7389452
88.151345
90.1688383
92.4477266
91.2438756
87.8308219
87.8389599
90.5816782
92.5533793
89.771545
88.1062109
90.5865253
92.5024788
89.6162446
88.1194048
90.1766196
92.4369523
91.2942578
87.8318541
87.8462546
90.6216598
92.5189985
89.8706812
88.1124739
90.0386306
92.4355844
91.2473156
87.8291496
87.8445077
90.6129822
92.5109663
89.8739529
88.1000262
90.0344291
92.4385469
91.1690873
87.797955
87.820064
90.6374136
92.5325735
89.6496773
88.0603885
90.672101
92.4973025
89.3648475
88.0643489
90.9737405
92.483353
89.3888938
88.0836793
90.2073335
92.4194555
91.45125
87.8007874
87.826589
90.8220283
92.5081915
89.7060904
88.1088511
90.0521332
92.3997699
91.8322886
87.836791
87.8575712
90.2561936
92.4621867
91.7051022
87.8202853
87.8503571
90.894529
92.4882627
89.8021238
88.1466913
90.017762
92.3783098
92.2170062
87.8152416
87.8480442
91.0596728
92.4946628
89.7334619
88.1660476
89.968672
92.3616656
92.893717
87.8069309
87.8140851
90.1074507
92.4905856
91.7965585
87.7026945
87.7245494
90.0221875
92.4336297
92.4889852
92.3937599
92.7663856
88.0724482
87.9523984
88.0941371
88.0001547
87.9810016
90.3025329
92.3700867
90.5398111
88.245927
89.8439289
92.2632863
92.6155797
87.9688657
87.9462929
90.1589168
92.352028
92.6132116
87.985494
87.8693592
88.0156415
90.2687508
92.3701183
90.3037419
88.1450297
89.6546991
92.2711874
92.6104807
)
;

boundaryField
{
    closed
    {
        type            calculated;
        value           uniform 120.165345;
    }
    open
    {
        type            calculated;
        value           nonuniform List<scalar> 0();
    }
    sides
    {
        type            empty;
    }
    procBoundary0to1
    {
        type            processor;
        value           uniform 87.8973031;
    }
}


// ************************************************************************* //
