/*--------------------------------*- C++ -*----------------------------------*\
| =========                 |                                                 |
| \\      /  F ield         | OpenFOAM: The Open Source CFD Toolbox           |
|  \\    /   O peration     | Version:  2306                                  |
|   \\  /    A nd           | Website:  www.openfoam.com                      |
|    \\/     M anipulation  |                                                 |
\*---------------------------------------------------------------------------*/
FoamFile
{
    version     2.0;
    format      ascii;
    arch        "LSB;label=32;scalar=64";
    class       volScalarField;
    location    "0.00074";
    object      PV;
}
// * * * * * * * * * * * * * * * * * * * * * * * * * * * * * * * * * * * * * //

dimensions      [0 0 0 0 0 0 0];

internalField   nonuniform List<scalar> 
530
(
-0.00715706151
-0.0071210901
-0.00710954117
-0.00710932259
-0.00710930139
-0.0071093009
-0.00710930096
-0.00710930095
-0.00710930107
-0.00710930087
-0.00710930076
-0.00710930071
-0.00710930044
-0.00710930022
-0.00710929974
-0.00710929931
-0.00710929925
-0.0071092993
-0.00710929945
-0.00710929974
-0.00710930026
-0.00710930044
-0.0071092999
-0.00710929919
-0.00710929918
-0.00710929856
-0.00710929768
-0.0071092977
-0.00710929871
-0.00710929859
-0.00710929819
-0.00710929728
-0.00710929697
-0.00710929739
-0.00710929864
-0.00710929973
-0.00710930051
-0.0071093003
-0.00710930023
-0.00710930009
-0.00710930026
-0.00710930013
-0.0071093001
-0.00710930021
-0.0071093003
-0.00710930037
-0.0071093003
-0.00710930019
-0.0071093003
-0.00710930024
-0.00710930026
-0.00710930037
-0.00710930027
-0.00710930046
-0.00710930024
-0.00710930037
-0.0071093002
-0.00710930009
-0.00710929983
-0.00710929958
-0.00710929905
-0.00710929848
-0.00710929823
-0.00710929789
-0.0071092978
-0.00710929778
-0.00710929782
-0.00710929782
-0.00710929786
-0.00710929792
-0.00710929795
-0.00710929796
-0.00710929801
-0.00710929807
-0.00710929812
-0.00710929825
-0.00710929855
-0.0071092989
-0.00710929968
-0.00710930204
-0.00710930702
-0.0071093113
-0.00710931848
-0.00710933593
-0.00710938274
-0.00710942663
-0.00710949907
-0.00710967812
-0.00710979317
-0.00710944425
-0.00710818324
-0.00710880254
-0.00712016638
-0.00712533003
-0.00710592679
-0.00707408847
-0.00708472634
-0.00716078772
-0.00719938338
-0.00719541857
-0.00706633534
-0.00699001826
-0.00698381983
-0.00701854554
-0.00720132689
-0.00722000439
-0.0072038225
-0.00721553261
-0.00711061798
-0.00699014898
-0.00698131375
-0.00701273938
-0.00719152123
-0.00722337554
-0.00721285633
-0.00711934541
-0.00699149766
-0.0069814823
-0.00700007832
-0.00719104783
-0.00722525372
-0.00721409506
-0.00715549807
-0.00698443133
-0.00701146612
-0.00719897122
-0.00716380611
-0.00698283812
-0.00699413571
-0.00721569696
-0.00725009035
-0.00715462223
-0.0069889614
-0.00702766477
-0.00720990224
-0.00715425806
-0.00698580163
-0.00704661054
-0.00721146973
-0.00715162608
-0.00698575589
-0.007051702
-0.00721418877
-0.00715078872
-0.00698625156
-0.00705458629
-0.0072148801
-0.00714961165
-0.00698657719
-0.00705438439
-0.0072135058
-0.00714724925
-0.00698679033
-0.00705448274
-0.00721298817
-0.007158837
-0.0069852319
-0.00700824649
-0.00722352878
-0.00725188716
-0.00715039156
-0.00699000161
-0.00704282305
-0.00721303538
-0.00715912811
-0.00698573706
-0.00700557184
-0.00722446474
-0.00725341969
-0.00714839363
-0.00699000029
-0.00705167142
-0.00721546679
-0.00713920369
-0.00698741145
-0.0070684961
-0.00721515439
-0.00713555974
-0.00698698769
-0.00707192576
-0.00721558324
-0.00713318659
-0.0069871587
-0.00707308449
-0.00721467196
-0.00713044569
-0.00698715836
-0.00707358518
-0.00721451169
-0.00714779088
-0.00698598916
-0.00701281575
-0.00722795121
-0.00725033965
-0.00713973859
-0.00698950119
-0.00706162506
-0.00721280353
-0.00712598818
-0.00698710905
-0.00707493887
-0.00720986818
-0.00714745269
-0.00698636349
-0.00699811765
-0.00722362559
-0.00724970192
-0.0071359309
-0.0069912062
-0.00706029355
-0.00721059919
-0.00715241371
-0.00698906073
-0.00699399178
-0.00722123015
-0.007251709
-0.00714303704
-0.00699403965
-0.00706251136
-0.0072108343
-0.0071310318
-0.00699272505
-0.00707361049
-0.0072076824
-0.00713266507
-0.00699467561
-0.00706821842
-0.0072044332
-0.00713820303
-0.00699806212
-0.00705921764
-0.00720117216
-0.00717407399
-0.00700573417
-0.00699237842
-0.00717196701
-0.00724514854
-0.00719531776
-0.00701853762
-0.00702526426
-0.00718839309
-0.0071789199
-0.00701940289
-0.00702204947
-0.00717906064
-0.00718175163
-0.00702906899
-0.00701744511
-0.00716148406
-0.00719113414
-0.00706941476
-0.00699618596
-0.00708519313
-0.00722080006
-0.0072284532
-0.00706501583
-0.00701911698
-0.00713435377
-0.00717716539
-0.00705551793
-0.00701313435
-0.00713423968
-0.00718589681
-0.007088035
-0.0069946983
-0.0070579198
-0.0072051374
-0.00722144161
-0.00707835115
-0.0070038446
-0.00710153351
-0.00717501705
-0.00708893402
-0.00699294916
-0.00705095512
-0.00718983294
-0.00720977452
-0.00721429451
-0.00721910056
-0.00709286016
-0.00699219725
-0.00705445823
-0.0072020294
-0.00721962218
-0.00707569734
-0.00699635103
-0.00710640412
-0.00717658403
-0.00706012423
-0.00699410857
-0.00710890433
-0.00717401226
-0.00708046537
-0.00698640966
-0.00704810798
-0.00719050775
-0.00721116236
-0.00720843244
-0.00721518603
-0.00721659542
-0.00707814153
-0.0069880163
-0.00698546356
-0.0071294726
-0.00717210482
-0.00704312099
-0.0069917314
-0.0071306996
-0.00719045722
-0.0070849861
-0.00698621149
-0.00705250099
-0.00720901259
-0.00722680588
-0.00709988052
-0.00698868939
-0.00705705372
-0.00721404024
-0.00722627464
-0.00706976844
-0.00699188976
-0.0071170847
-0.0071942426
-0.00708914149
-0.00698608004
-0.0070500364
-0.00720800654
-0.00722109
-0.00709267302
-0.00698765267
-0.00705099793
-0.0072058853
-0.00721581723
-0.00708802093
-0.00698708606
-0.00704798324
-0.0072021458
-0.0072115994
-0.0070823513
-0.00698617245
-0.0070439731
-0.00719534303
-0.00721613303
-0.0072109068
-0.00708716138
-0.00698636597
-0.00705105991
-0.00720787692
-0.00721977537
-0.00709231467
-0.00698709698
-0.00705399709
-0.00721319987
-0.0072238414
-0.0070816621
-0.00698812625
-0.00710127396
-0.00719302023
-0.00707210702
-0.00698721763
-0.00711424623
-0.00719498447
-0.00709445532
-0.00698543877
-0.00705003612
-0.00721442342
-0.00722567513
-0.00709638565
-0.00698750188
-0.00705646004
-0.0072183032
-0.00722604942
-0.00708311255
-0.0069880425
-0.00709917692
-0.00719776861
-0.00710246642
-0.00698609614
-0.00705297181
-0.0072188649
-0.00722511328
-0.0070826911
-0.00698820105
-0.00709595582
-0.00719534688
-0.00710295477
-0.00698615262
-0.00705047236
-0.00721753664
-0.00722193303
-0.00709261837
-0.00698792904
-0.00705543746
-0.00721923981
-0.00722270314
-0.00709349612
-0.00698803298
-0.00705948463
-0.00722294272
-0.00722627687
-0.00708461176
-0.00698866495
-0.00710316901
-0.00720318697
-0.0070840515
-0.00698758859
-0.00711425251
-0.00720256139
-0.00709881389
-0.00698702351
-0.00705886094
-0.00722653407
-0.00722919231
-0.00708235478
-0.00698924328
-0.00711225168
-0.00720726307
-0.0070815503
-0.0069878363
-0.00711949235
-0.00720515839
-0.00709854063
-0.00698715805
-0.00705716842
-0.00722658347
-0.00722826443
-0.0070810091
-0.00698840943
-0.00710842667
-0.00720571751
-0.00710391665
-0.0069869441
-0.00705853598
-0.00722643658
-0.00722803738
-0.00708126686
-0.00698825674
-0.0071081656
-0.00720635496
-0.00710397829
-0.00698693827
-0.00706103653
-0.00722844004
-0.00722977615
-0.00708030005
-0.00698908133
-0.00711730214
-0.00720998496
-0.00707829068
-0.00698817694
-0.00713032515
-0.00720880855
-0.00706793419
-0.00698808965
-0.00712979573
-0.00720681796
-0.00709759749
-0.00698716226
-0.00705155579
-0.00722811702
-0.00722932651
-0.0070738953
-0.00698876839
-0.00711566043
-0.00720440289
-0.00710396423
-0.00698644294
-0.00703915923
-0.00722532318
-0.00722821602
-0.00709670144
-0.00698867412
-0.00704312812
-0.00722750291
-0.00722794691
-0.00707138373
-0.00698847611
-0.00711194407
-0.00720071219
-0.00710624156
-0.00698628688
-0.00702785511
-0.00722751849
-0.00723048793
-0.00706597843
-0.00698946779
-0.00711565501
-0.00719981899
-0.00710925978
-0.00698624744
-0.007008928
-0.00722891242
-0.00723618472
-0.00710235179
-0.0069891845
-0.00703949092
-0.00723521245
-0.0072376338
-0.00710560595
-0.00698752599
-0.00699031189
-0.0069880454
-0.00699269556
-0.00721082133
-0.00722309098
-0.00720470183
-0.00721334862
-0.00721017761
-0.00709325182
-0.00698365429
-0.00708264857
-0.00718788579
-0.00711360775
-0.00698389301
-0.00698831928
-0.00721624484
-0.0072202442
-0.00710045789
-0.00698762047
-0.00698736444
-0.00721619093
-0.00722470994
-0.00720784865
-0.00709503049
-0.00698366951
-0.00709142136
-0.00719523012
-0.00712085446
-0.00698334636
-0.00698760106
)
;

boundaryField
{
    closed
    {
        type            zeroGradient;
    }
    open
    {
        type            zeroGradient;
    }
    sides
    {
        type            empty;
    }
    procBoundary0to1
    {
        type            processor;
        value           uniform -0.0072197635;
    }
}


// ************************************************************************* //
