/*--------------------------------*- C++ -*----------------------------------*\
| =========                 |                                                 |
| \\      /  F ield         | OpenFOAM: The Open Source CFD Toolbox           |
|  \\    /   O peration     | Version:  2306                                  |
|   \\  /    A nd           | Website:  www.openfoam.com                      |
|    \\/     M anipulation  |                                                 |
\*---------------------------------------------------------------------------*/
FoamFile
{
    version     2.0;
    format      ascii;
    arch        "LSB;label=32;scalar=64";
    class       volScalarField;
    location    "0.00134";
    object      prefDh_H;
}
// * * * * * * * * * * * * * * * * * * * * * * * * * * * * * * * * * * * * * //

dimensions      [1 1 -3 0 0 0 0];

internalField   nonuniform List<scalar> 
531
(
23841.9865
23377.8117
23108.6921
23360.488
23852.9999
23844.1078
23378.1117
23079.7923
23359.632
23858.9839
23842.4209
23383.1628
23028.6923
23354.1856
23864.1224
23645.5137
23414.9342
23368.6715
23890.7433
23627.9712
23426.902
23377.9788
23898.5564
23801.3568
23388.4293
22996.5115
23363.1848
23883.9276
23754.0374
23277.3947
22863.4922
23253.4659
23701.6809
23947.8174
23905.7683
23920.1799
23940.4942
23933.7576
23374.7511
23258.9116
23120.9519
22935.8483
23374.1592
23911.2261
23829.6844
23291.4881
22899.5749
23348.1183
23805.9995
23989.3108
23811.2648
23367.0029
22997.2653
23359.686
23917.1172
23644.8623
23397.4987
23384.7767
23950.0576
23910.5723
23397.2228
23222.052
23149.7875
22963.7325
23365.0274
23865.8693
23974.7882
23843.0328
23961.3855
23852.9084
23375.3634
22991.8246
23365.0999
23938.3906
23902.4787
23303.9283
22990.3519
23369.9275
23939.1408
23910.4876
23360.4672
23039.3351
23370.6611
23945.625
23913.8706
23395.1118
23065.0254
23368.3257
23951.8671
23923.2798
23394.5613
23096.8843
23370.6643
23951.7862
23934.0105
23401.1362
23186.0654
23138.725
23379.5481
23948.6788
23691.5783
23354.6648
23388.8772
23977.9134
23913.9884
23339.5226
23037.5949
23370.2558
23954.4562
23921.112
23350.9043
23034.3949
23373.7205
23957.4115
23915.0844
23325.0717
22987.2124
23351.6293
23902.9709
23990.2081
23857.3104
23384.9943
23084.847
23027.4759
23382.6662
23953.534
23668.6014
23224.7548
23389.4072
23975.9918
23921.7351
23285.6491
23019.8694
23375.8937
23956.5687
23927.8263
23386.0591
23067.463
23375.0491
23956.1861
23932.705
23337.2673
23087.8707
23392.5804
23929.7235
23861.371
23161.2873
23278.9379
23882.9542
23971.7272
23820.7576
23278.7573
22872.5261
23373.0778
23945.4514
23934.6804
23370.5967
23061.4298
23381.0497
23957.6475
23937.5781
23337.7816
23013.6099
23395.5528
23951.8754
23900.1772
23279.1133
23410.6758
23981.4518
23958.9615
23401.3674
23129.2371
23103.8382
23384.6183
23984.1037
23965.9983
23377.8863
23135.2157
23381.0363
23966.0179
23956.343
23385.9892
23041.3086
23390.8317
23952.9543
23956.1924
23244.0464
23417.7039
23977.341
23954.643
23277.2369
22933.5968
23396.8013
23943.8797
23966.6067
23276.2522
23408.3012
23980.1109
23960.5607
23381.1805
23041.968
23374.1374
23965.6341
23972.1496
23351.5752
23005.1662
23376.515
23967.6898
23975.3676
23360.2892
23004.477
23388.9362
23957.33
23996.8592
23251.6513
23400.8857
23989.8849
23968.6223
23376.5078
23056.1759
23374.1121
23968.7298
23973.1122
23386.1408
23012.9152
23382.0695
23971.0975
23966.1473
23345.5603
22947.2724
23372.6404
23947.087
23978.3953
23948.5464
23958.3145
23388.0733
23296.9365
23245.1174
23189.3381
23129.1247
22888.959
23296.7531
23911.027
23980.4541
23698.9663
23306.0495
23383.7165
23988.1767
23954.6737
23279.2342
22907.1468
23313.6782
23945.4675
23972.1258
23226.5429
23292.6827
23970.8402
23962.5047
23253.7245
23309.7118
23980.3437
23979.2908
23304.9098
23386.9491
23976.6327
23971.9331
23457.2735
23295.632
23219.8214
23249.1691
23062.5529
23375.9849
23975.0294
23976.4737
23970.293
23961.7654
23376.9852
23219.9916
23284.9915
23119.783
23369.9156
23983.043
23979.0181
23373.3386
23171.208
23369.8346
23986.6987
23978.0802
23316.7621
22974.288
23345.8063
23969.2439
24003.3709
23267.0344
23370.8084
23993.8403
23967.0403
23350.0935
23020.8247
23372.6612
23970.1433
23972.3436
23314.6088
22984.9303
23358.8731
23966.0979
23990.9567
23257.2542
23382.8705
23990.1426
23961.8409
23348.5339
23033.2673
23371.0687
23975.015
23971.5189
23315.4214
23022.0714
23373.0833
23978.3452
23971.3859
23355.6462
23084.9653
23367.1675
23973.54
23978.7072
23362.2863
23373.6451
23985.6293
23962.8548
23385.0444
23189.5273
23119.3255
23330.7998
23970.9282
23950.164
23168.441
23261.9927
23959.3199
23959.2307
23176.7147
23387.0632
23959.3484
23971.334
23926.704
23361.7118
23072.0072
23223.0929
23023.2228
23363.7346
23956.7801
23945.5624
23246.5812
22970.6227
23391.3258
23953.7601
23950.1986
23218.2744
23319.1825
23973.2775
23940.8467
23271.0148
23391.7025
23981.2138
23930.9562
23259.7331
23003.8537
23381.0574
23954.5354
23944.9326
23246.8619
23399.2317
23973.6081
23928.8248
23203.4656
22950.8077
23380.8941
23953.8259
23926.9437
23221.6318
23400.3271
23971.091
23914.5068
23158.3591
22938.045
23381.1948
23951.4047
23891.0238
23208.6985
23401.904
23966.5814
23889.9569
23086.6905
22897.2891
23381.0248
23944.0827
23839.0886
23153.4739
23391.3186
23960.8691
23811.7001
23187.9056
23411.4583
23967.8753
23800.2033
23230.0741
23404.1505
23966.1995
23844.2206
23030.642
22945.9527
23378.6459
23939.3299
23754.3943
23194.1783
23396.4804
23958.6389
23730.9198
23258.4954
23397.82
23964.0029
23811.1902
23028.0661
23027.0462
23386.613
23942.061
23710.9744
23304.751
23396.6113
23963.0927
23809.3841
23193.6987
23196.1983
23418.8078
23936.7857
23749.8869
23120.1878
23112.3186
23197.997
23391.3284
23945.9859
23691.9623
22930.7775
22946.7545
23390.7282
23922.0954
23577.5501
23171.6451
23385.8078
23934.7032
23556.3453
23217.244
23387.9824
23933.4836
23545.6311
23239.3045
23395.2211
23937.7539
23938.5546
23644.6215
23054.5447
23051.9329
23214.9793
23244.5494
23447.9086
23947.7671
23784.0836
23236.1667
23236.146
23455.513
23945.604
23545.3753
23303.7325
23404.0728
23946.9129
23469.9902
23324.7452
23411.2146
23953.4651
23630.5165
23086.3169
23138.2699
23500.3721
23921.866
23561.9071
23052.707
23153.0699
23612.3013
23896.7877
23405.5765
23078.8856
23092.4316
23200.4245
23456.0394
23939.7977
23951.7697
23906.4753
23423.76
22959.4814
23163.0194
23888.4212
23888.3083
23354.2035
23192.564
23563.2884
23907.3056
23385.064
22945.4251
23200.1444
23894.3015
23905.5556
23376.626
22978.31
23377.077
23965.2163
23922.3975
23379.6565
22966.585
23376.5173
23970.259
23942.731
23371.2323
23055.2518
23269.4839
23645.3357
23947.9846
23905.1228
23059.8621
23007.7919
23191.2616
23164.5346
)
;

boundaryField
{
    closed
    {
        type            calculated;
        value           nonuniform List<scalar> 0();
    }
    open
    {
        type            calculated;
        value           nonuniform List<scalar> 0();
    }
    sides
    {
        type            empty;
    }
    procBoundary3to2
    {
        type            processor;
        value           uniform 23847.2399;
    }
    procBoundary3to4
    {
        type            processor;
        value           uniform 23414.5147;
    }
}


// ************************************************************************* //
