/*--------------------------------*- C++ -*----------------------------------*\
| =========                 |                                                 |
| \\      /  F ield         | OpenFOAM: The Open Source CFD Toolbox           |
|  \\    /   O peration     | Version:  2306                                  |
|   \\  /    A nd           | Website:  www.openfoam.com                      |
|    \\/     M anipulation  |                                                 |
\*---------------------------------------------------------------------------*/
FoamFile
{
    version     2.0;
    format      ascii;
    arch        "LSB;label=32;scalar=64";
    class       volScalarField;
    location    "0.00134";
    object      prefDh_H2O;
}
// * * * * * * * * * * * * * * * * * * * * * * * * * * * * * * * * * * * * * //

dimensions      [1 1 -3 0 0 0 0];

internalField   nonuniform List<scalar> 
531
(
92.8968706
88.5862468
87.9719746
88.7795228
92.9077346
92.8962139
88.5279735
87.9374347
88.7201211
92.9001239
92.9238049
88.3857963
87.8664946
88.5739458
92.9078883
92.0015474
88.3268164
88.9570391
92.7671382
91.8876357
88.3544637
89.0472273
92.7208848
92.9942766
88.2722219
87.8361164
88.6341063
92.8394261
92.6980408
88.0992908
87.6444145
88.0519614
92.3532271
92.4756614
92.5895554
92.5143797
92.3905275
92.4245327
88.9824691
88.1305262
87.8878204
87.7316047
88.4071663
92.7376595
93.0201228
88.1247801
87.7283236
88.4495699
93.0143952
92.2271678
92.9530627
88.3878932
87.8459107
88.7307044
92.6357648
91.9955556
88.3068161
89.1161871
92.4572787
92.6542656
88.4364721
88.1052799
87.9270423
87.7767425
88.1887666
92.887762
92.3400562
92.7437997
92.3165499
92.7775638
88.2939594
87.821848
88.7089911
92.5751492
92.733453
88.1567366
87.8173781
88.8126467
92.5430934
92.6675183
88.2296608
87.8721706
88.8856705
92.5057425
92.6382283
88.2679203
87.8985525
88.9114024
92.4701945
92.596663
88.3648832
87.929953
88.9553291
92.4514526
92.5577554
88.6552653
88.013938
87.9551013
88.8735036
92.4940255
92.2870551
88.2307054
89.0418844
92.3526938
92.6255965
88.188414
87.8580691
88.8840823
92.4555869
92.6088148
88.215279
87.8530703
88.8692966
92.4456957
92.6130811
88.1696116
87.8218206
88.8701957
92.6048654
92.1708224
92.8165073
88.58643
87.9063273
87.8018966
88.537423
92.5124321
92.1347038
88.060351
88.7180313
92.3633429
92.6343635
88.1260123
87.833862
88.9153144
92.4048253
92.546906
88.2582397
87.8871444
88.9009568
92.4084117
92.560721
88.2092825
87.9177365
89.0286859
92.4695665
93.0387851
88.0283465
88.1280853
92.7591882
92.2428603
93.0176414
88.0970852
87.6937512
88.6237128
92.4394559
92.5235689
88.2487013
87.8795012
88.8559039
92.3815007
92.5122273
88.2016602
87.8153557
88.6006429
92.4291437
92.8755363
88.1220404
88.5734009
92.2769259
92.469725
88.2790801
87.9316608
87.8876905
88.5228038
92.3271378
92.4116812
88.2356578
87.9505315
89.1898564
92.3059598
92.3849679
88.3742243
87.835806
88.4873954
92.4174946
92.6535305
88.0688346
88.388783
92.3130661
92.4462377
88.0983967
87.7094837
88.3296132
92.4411154
92.5845458
88.1116397
88.4736093
92.2705024
92.3575665
88.2294858
87.8287806
88.5914867
92.3490835
92.3577105
88.1958436
87.7753173
88.4874416
92.34517
92.3449676
88.2123477
87.7774944
88.3549709
92.381772
92.4205694
88.0720789
88.3096123
92.2409934
92.3213426
88.28358
87.8377969
88.5718694
92.3236581
92.3257025
88.241934
87.7804406
88.4100438
92.3419609
92.3492298
88.1806044
87.7146256
88.3613818
92.4576521
92.241921
92.3546231
92.3058264
89.2167505
88.1650859
88.0607611
88.0391742
87.8910451
87.6604453
88.1054709
92.6278982
92.1891599
92.3497419
88.1231474
88.2931245
92.2704932
92.3725306
88.1008025
87.6636963
88.1561833
92.4429426
92.4419398
88.0501753
88.1506331
92.3158882
92.4637602
88.0683279
88.1687737
92.2769556
92.4209797
88.1330377
88.3569546
92.282503
92.205748
90.5148139
88.1148041
88.0555548
88.0513381
87.8453832
88.3375874
92.3595688
92.2644047
92.3001719
92.3489517
88.5273347
88.0524431
88.0959687
87.9112921
88.4318495
92.2683979
92.2373178
89.2731324
87.9534966
88.5287559
92.2653707
92.3119586
88.1397437
87.7177863
88.1702646
92.3501492
92.2963215
88.0815515
88.2174887
92.2096687
92.3183319
88.1783421
87.7807843
88.3747336
92.3129663
92.3239689
88.1495532
87.7349511
88.1927282
92.3416343
92.3143802
88.0725174
88.2344684
92.2043506
92.3371617
88.1786669
87.7933748
88.4192205
92.2871645
92.3266631
88.1444379
87.7699267
88.3851543
92.2734035
92.3218701
88.1975363
87.8538399
88.5756341
92.2677522
92.3328431
88.2084627
88.5679976
92.1693676
92.3079867
88.3935823
87.9950844
87.8972412
88.175121
92.3247185
92.5036496
87.9652553
88.0892166
92.3215461
92.5009954
87.9912234
88.2511545
92.3478244
92.1652408
92.5522901
88.2105186
87.8984299
88.0232567
87.8153584
88.2105507
92.3393646
92.4396906
88.0733055
87.736025
88.2777015
92.366322
92.4975495
88.0339359
88.1752629
92.2615765
92.5191633
88.0861624
88.2779843
92.2241022
92.4559893
88.0740872
87.7818708
88.3986986
92.3442966
92.5109197
88.0677534
88.2781568
92.2492103
92.496813
88.0031978
87.7121324
88.3617475
92.363056
92.6109303
88.0347684
88.2780415
92.268296
92.5650561
87.950262
87.6985668
88.4321294
92.3789164
92.7726626
88.0198879
88.3217367
92.2933453
92.6809475
87.8655381
87.652473
88.4816136
92.420259
93.0135422
87.9533317
88.2721311
92.3332751
93.0160365
87.9849762
88.34957
92.3093484
92.9528322
88.0350065
88.5653308
92.3017177
92.8687501
87.803989
87.7190091
88.863421
92.4328558
92.6667251
88.0056239
88.5985666
92.3381252
92.5291152
88.0721151
88.838022
92.304686
93.0212307
87.8055659
87.8186817
89.3434848
92.4099652
92.4019944
88.1407945
89.2040483
92.2691079
92.9969676
88.0196017
88.0286876
89.958108
92.3702294
92.6595433
87.9392275
87.9203369
88.0084903
89.3675697
92.4117383
92.2923541
87.6787893
87.7221295
89.4821121
92.530953
91.5305302
87.982954
89.0690996
92.4609062
91.3814461
88.0376265
89.1482245
92.4662856
91.3074086
88.0675147
89.5393786
92.3621805
92.3465274
91.9739119
87.8469911
87.8606799
88.0271894
88.0749515
90.3426246
92.3211073
92.8658843
88.0750453
88.0818729
90.4495169
92.4155328
91.3043497
88.1398042
89.7084072
92.4272449
90.7059536
88.1609562
89.7847691
92.3584492
91.8951276
87.8715704
87.9536568
90.8980318
92.476482
91.4202846
87.8592461
87.9745738
91.7918691
92.5747503
90.0306952
87.8937941
87.8713091
88.023194
90.4522275
92.391313
92.3657894
92.5793545
90.2604471
87.7623681
87.974816
92.7495995
92.7119141
88.2573511
88.0571226
91.4279837
92.5528745
89.7250854
87.7448776
88.0054163
92.7496888
92.5783594
88.9876592
87.7757504
88.3324348
92.425583
92.5412907
88.5154815
87.7603465
88.2298391
92.417015
92.4177007
89.3019436
87.8709789
88.0768698
92.0145786
92.3054736
92.7219766
87.8368223
87.7926402
87.9949062
87.961076
)
;

boundaryField
{
    closed
    {
        type            calculated;
        value           nonuniform List<scalar> 0();
    }
    open
    {
        type            calculated;
        value           nonuniform List<scalar> 0();
    }
    sides
    {
        type            empty;
    }
    procBoundary3to2
    {
        type            processor;
        value           uniform 92.9183409;
    }
    procBoundary3to4
    {
        type            processor;
        value           uniform 89.9963894;
    }
}


// ************************************************************************* //
