/*--------------------------------*- C++ -*----------------------------------*\
| =========                 |                                                 |
| \\      /  F ield         | OpenFOAM: The Open Source CFD Toolbox           |
|  \\    /   O peration     | Version:  2306                                  |
|   \\  /    A nd           | Website:  www.openfoam.com                      |
|    \\/     M anipulation  |                                                 |
\*---------------------------------------------------------------------------*/
FoamFile
{
    version     2.0;
    format      ascii;
    arch        "LSB;label=32;scalar=64";
    class       volScalarField;
    location    "0.00134";
    object      prefDh_T;
}
// * * * * * * * * * * * * * * * * * * * * * * * * * * * * * * * * * * * * * //

dimensions      [1 1 -3 -1 0 0 0];

internalField   nonuniform List<scalar> 
531
(
-0.000719525899
-0.000593777354
-0.000523627062
-0.000586674644
-0.000722709003
-0.000720109895
-0.000594236544
-0.000515518704
-0.000586751054
-0.00072429633
-0.000719931238
-0.000596825093
-0.00050093488
-0.00058579693
-0.000725810493
-0.000662881456
-0.00060853241
-0.000588364112
-0.000731747415
-0.000657683982
-0.000611902885
-0.000590982087
-0.000733437382
-0.000709443057
-0.00059930827
-0.000492064729
-0.000588495205
-0.000730610837
-0.000695260499
-0.000568460216
-0.000453902485
-0.000561256394
-0.000679638248
-0.000744587352
-0.000734051331
-0.000737273181
-0.00074162193
-0.000740103848
-0.000590283346
-0.000565001518
-0.000524449084
-0.000474300534
-0.000593628324
-0.000737153349
-0.000717398468
-0.000572629584
-0.000464888126
-0.000584494811
-0.000710870323
-0.000753528225
-0.000711566323
-0.000591308347
-0.00049247168
-0.000586703895
-0.000737715582
-0.000662689493
-0.000603747509
-0.000592875349
-0.00074501687
-0.000736084224
-0.0006013047
-0.000555279855
-0.000532578025
-0.000482398972
-0.000591850218
-0.000726085172
-0.000750679466
-0.000718193633
-0.000746671112
-0.000721305268
-0.000594728521
-0.000490554913
-0.000588686082
-0.000743015435
-0.000734665987
-0.000576620548
-0.000490080805
-0.000589692036
-0.000742882623
-0.000736201726
-0.000592401896
-0.000503761058
-0.000589489021
-0.000744296507
-0.000736834748
-0.00060182711
-0.000510865268
-0.000588530863
-0.00074566191
-0.000739020584
-0.000600833266
-0.000519623267
-0.000589055933
-0.00074543804
-0.000741604738
-0.000601305721
-0.000543892391
-0.000530655856
-0.000592599812
-0.00074502535
-0.000676623619
-0.000591073044
-0.000594741409
-0.000751691354
-0.000736732931
-0.000586076632
-0.000502990584
-0.000589360461
-0.000746229714
-0.000738544452
-0.000589665156
-0.000502065517
-0.000590635768
-0.000746950695
-0.000736905576
-0.000582044532
-0.000489377025
-0.000583082768
-0.000733433646
-0.000753167422
-0.000722945621
-0.000596224573
-0.000516024019
-0.000499100508
-0.000595730871
-0.000746581067
-0.000669772195
-0.000554642615
-0.000596922735
-0.000751267773
-0.000738991066
-0.000571283445
-0.000497948069
-0.000591092152
-0.000746275188
-0.000739759507
-0.000599378439
-0.000511199553
-0.000590892881
-0.00074620669
-0.000741271403
-0.000586247947
-0.000517064895
-0.000596089125
-0.000739460244
-0.000726419115
-0.000538189346
-0.000569748477
-0.000729489451
-0.000748769621
-0.000714887811
-0.000568710841
-0.000457197796
-0.000591933288
-0.000743536286
-0.000741426139
-0.000595432313
-0.000509499975
-0.000593221497
-0.000746325911
-0.000742115018
-0.000586115724
-0.000495936281
-0.000599736201
-0.000745223182
-0.000735526047
-0.000569599389
-0.000605054625
-0.00075186435
-0.000747642468
-0.00060367894
-0.000527686053
-0.00052025104
-0.000596485383
-0.000753150296
-0.000748989147
-0.000596675918
-0.000529668093
-0.000591132266
-0.000747854055
-0.000745998063
-0.000597857979
-0.00050339065
-0.000598818208
-0.000745399816
-0.000748829074
-0.000559546036
-0.000608565862
-0.000751103253
-0.000746181592
-0.000568393744
-0.000473252821
-0.000601809731
-0.000743114352
-0.000751009398
-0.000568586437
-0.000604851582
-0.000751418984
-0.000746883396
-0.000597100559
-0.000503383895
-0.00059249257
-0.000748212655
-0.00075013072
-0.000589150362
-0.000492867072
-0.000593940405
-0.000748746185
-0.000750894797
-0.000591759309
-0.000492745583
-0.00059897844
-0.000746239933
-0.000757729931
-0.000561466708
-0.000603321043
-0.000753839126
-0.000748750004
-0.000595181277
-0.000507153497
-0.00059260431
-0.000748805124
-0.000750054941
-0.000598813017
-0.000494934027
-0.000596305066
-0.000749666099
-0.000748357967
-0.000587215136
-0.000476847596
-0.000593390454
-0.000744189578
-0.000750628264
-0.00074348783
-0.00074569492
-0.00059337207
-0.000575219712
-0.00055955109
-0.000545403888
-0.000526529994
-0.000460790798
-0.000573225946
-0.000735930104
-0.000750631938
-0.000678791613
-0.000576004672
-0.000600032156
-0.000753679752
-0.000745396558
-0.000568945131
-0.000465520913
-0.000578910707
-0.000743578294
-0.000751030075
-0.00055476935
-0.000573745826
-0.000749312346
-0.000748570329
-0.00056184266
-0.00057838506
-0.000751554117
-0.000752811889
-0.00057607145
-0.000598289836
-0.000750574154
-0.000748423882
-0.000608593679
-0.000573277787
-0.000553306104
-0.000560217523
-0.000508931881
-0.000594674456
-0.000750957481
-0.000750333536
-0.000748989045
-0.000747127762
-0.000593856541
-0.000553255297
-0.000570144843
-0.000524809386
-0.000592031841
-0.000752218006
-0.000750752869
-0.000587966953
-0.000538535263
-0.000591410678
-0.000753209993
-0.000751298407
-0.000579079188
-0.00048374837
-0.000586905462
-0.00074923525
-0.000758219082
-0.000565429262
-0.000594384751
-0.000754608433
-0.000748274284
-0.000588186553
-0.00049692109
-0.000593316066
-0.000749085526
-0.000749820885
-0.000578907827
-0.000486826818
-0.000590733561
-0.000748262133
-0.000754933378
-0.000562816141
-0.00059778675
-0.000753513712
-0.000747021534
-0.000587836923
-0.000500335671
-0.000592501929
-0.000750171325
-0.000749618954
-0.000578925584
-0.000496963316
-0.00059339624
-0.000750955538
-0.0007495299
-0.000590157049
-0.00051469963
-0.000590213545
-0.000749547708
-0.000751699643
-0.000592086592
-0.00059246887
-0.000751867492
-0.000746989952
-0.000597418457
-0.000544188754
-0.000524313058
-0.000583576968
-0.000749432446
-0.000745544047
-0.000538207443
-0.000564475127
-0.000746146661
-0.000748052893
-0.000540965111
-0.000598971127
-0.000746438714
-0.000747814541
-0.000739503373
-0.000592025937
-0.000512615454
-0.000553117508
-0.000498358428
-0.00059249702
-0.000745628124
-0.00074356987
-0.000560291949
-0.000483246338
-0.000600260848
-0.000745073776
-0.000745488383
-0.000552287218
-0.000580843525
-0.00074940717
-0.000743103585
-0.000566522055
-0.000601389972
-0.000751224863
-0.000739658998
-0.000563455773
-0.000492692214
-0.000596029507
-0.000745052926
-0.000744158261
-0.000560186643
-0.000603150084
-0.000749365668
-0.000739501666
-0.000547794697
-0.000477689705
-0.000596198978
-0.00074505693
-0.000740196981
-0.000553120361
-0.000603400292
-0.000748867359
-0.000736230735
-0.00053532648
-0.000474148628
-0.000595872511
-0.000744550299
-0.000731884248
-0.000549556916
-0.000603594203
-0.000747875322
-0.000730611729
-0.0005154344
-0.000462763529
-0.000595512576
-0.000742946668
-0.000719947595
-0.000534223117
-0.000601094643
-0.000746707365
-0.000712711246
-0.000543498565
-0.000606677332
-0.000748411014
-0.000709227363
-0.000555151944
-0.000602880824
-0.000747859009
-0.000719851016
-0.000499943481
-0.000476608471
-0.000592354196
-0.000741752426
-0.000695479626
-0.00054562442
-0.000600064991
-0.000746135226
-0.000688412781
-0.000563098466
-0.000599055782
-0.000747275809
-0.00071226351
-0.000499337671
-0.000499398722
-0.000592069575
-0.000742270021
-0.000682443713
-0.000576292673
-0.000596374227
-0.000746635258
-0.000711505817
-0.000545914491
-0.000546784435
-0.00059914181
-0.000740364955
-0.000694059707
-0.000525655911
-0.000523211293
-0.000546633162
-0.000593533145
-0.000743387486
-0.000676731892
-0.000471867115
-0.000476880914
-0.000592594366
-0.000737986443
-0.00064272127
-0.000539493981
-0.000593522437
-0.000740759923
-0.0006365118
-0.000552149777
-0.000593771341
-0.000740476623
-0.000633310165
-0.000558367219
-0.000593768619
-0.00074054887
-0.000740603589
-0.000662621812
-0.000506976642
-0.000506659485
-0.000551290086
-0.000559855248
-0.000606586388
-0.00074290705
-0.000704339463
-0.000557839758
-0.000558039142
-0.000608468748
-0.000743321469
-0.000633258836
-0.0005760194
-0.000595714552
-0.000743813882
-0.000611561537
-0.000581674208
-0.000597674043
-0.00074490616
-0.000658433808
-0.000515500172
-0.000530504699
-0.000620833202
-0.000737337412
-0.000638178902
-0.000506818605
-0.000534714334
-0.000653073648
-0.000731384294
-0.000594056111
-0.000514221489
-0.000517003655
-0.000547653013
-0.000608633592
-0.000741435507
-0.000744510782
-0.000734139696
-0.000598740024
-0.000481002043
-0.000537158747
-0.000730913265
-0.000730481262
-0.000591846545
-0.000546693731
-0.00063872809
-0.000734088024
-0.000589050694
-0.000477033753
-0.000547060795
-0.00073255542
-0.000733872096
-0.000590891794
-0.000486091779
-0.000595077697
-0.000748919632
-0.000738181685
-0.000594839409
-0.00048276829
-0.00059551128
-0.00075023964
-0.000742540852
-0.000587060562
-0.000507742457
-0.000565856629
-0.00066281236
-0.000742798525
-0.000735282456
-0.000508045659
-0.000493937319
-0.000544603165
-0.000537137937
)
;

boundaryField
{
    closed
    {
        type            calculated;
        value           nonuniform List<scalar> 0();
    }
    open
    {
        type            calculated;
        value           nonuniform List<scalar> 0();
    }
    sides
    {
        type            empty;
    }
    procBoundary3to2
    {
        type            processor;
        value           uniform -0.000721216032;
    }
    procBoundary3to4
    {
        type            processor;
        value           uniform -0.000597394933;
    }
}


// ************************************************************************* //
