/*--------------------------------*- C++ -*----------------------------------*\
| =========                 |                                                 |
| \\      /  F ield         | OpenFOAM: The Open Source CFD Toolbox           |
|  \\    /   O peration     | Version:  2306                                  |
|   \\  /    A nd           | Website:  www.openfoam.com                      |
|    \\/     M anipulation  |                                                 |
\*---------------------------------------------------------------------------*/
FoamFile
{
    version     2.0;
    format      ascii;
    arch        "LSB;label=32;scalar=64";
    class       volScalarField;
    location    "0.00176";
    object      alpha;
}
// * * * * * * * * * * * * * * * * * * * * * * * * * * * * * * * * * * * * * //

dimensions      [1 -1 -1 0 0 0 0];

internalField   nonuniform List<scalar> 
530
(
3.88499514e-05
3.63019398e-05
3.58460253e-05
3.58349036e-05
3.58339424e-05
3.58338914e-05
3.58338872e-05
3.5833887e-05
3.5833887e-05
3.5833887e-05
3.5833887e-05
3.5833887e-05
3.5833887e-05
3.5833887e-05
3.5833887e-05
3.5833887e-05
3.5833887e-05
3.5833887e-05
3.5833887e-05
3.5833887e-05
3.5833887e-05
3.5833887e-05
3.5833887e-05
3.5833887e-05
3.5833887e-05
3.5833887e-05
3.5833887e-05
3.5833887e-05
3.5833887e-05
3.5833887e-05
3.5833887e-05
3.5833887e-05
3.5833887e-05
3.5833887e-05
3.5833887e-05
3.5833887e-05
3.5833887e-05
3.5833887e-05
3.5833887e-05
3.5833887e-05
3.5833887e-05
3.5833887e-05
3.5833887e-05
3.5833887e-05
3.5833887e-05
3.5833887e-05
3.5833887e-05
3.5833887e-05
3.5833887e-05
3.5833887e-05
3.5833887e-05
3.5833887e-05
3.5833887e-05
3.5833887e-05
3.5833887e-05
3.5833887e-05
3.5833887e-05
3.5833887e-05
3.5833887e-05
3.5833887e-05
3.5833887e-05
3.58338871e-05
3.58338874e-05
3.5833888e-05
3.5833889e-05
3.58338922e-05
3.58338957e-05
3.58339086e-05
3.58339254e-05
3.58339733e-05
3.58340044e-05
3.58341318e-05
3.58343097e-05
3.58344806e-05
3.58346519e-05
3.58351858e-05
3.58357596e-05
3.58363861e-05
3.58365582e-05
3.58373132e-05
3.5837596e-05
3.58394705e-05
3.5852066e-05
3.58606198e-05
3.58410423e-05
3.57463218e-05
3.5757564e-05
3.61923339e-05
3.66013885e-05
3.58822622e-05
3.55446819e-05
3.55719389e-05
3.55054418e-05
3.54633918e-05
3.58200046e-05
3.68541182e-05
3.68659049e-05
3.68209792e-05
3.68505593e-05
3.6795898e-05
3.53562934e-05
3.5137386e-05
3.53113934e-05
3.51763748e-05
3.52481964e-05
3.50064624e-05
3.54875714e-05
3.68354675e-05
3.68306336e-05
3.68351966e-05
3.68109901e-05
3.68189966e-05
3.68196073e-05
3.57029825e-05
3.51663046e-05
3.52922513e-05
3.51329481e-05
3.48598967e-05
3.52188353e-05
3.68250867e-05
3.68367411e-05
3.68228582e-05
3.68292271e-05
3.68039331e-05
3.68151437e-05
3.68205365e-05
3.54663072e-05
3.51389683e-05
3.52558001e-05
3.5206402e-05
3.50153452e-05
3.53086576e-05
3.68000936e-05
3.68145486e-05
3.68352366e-05
3.55157638e-05
3.4812707e-05
3.52358735e-05
3.68076467e-05
3.68380281e-05
3.68337177e-05
3.68436435e-05
3.56981561e-05
3.53402008e-05
3.54143919e-05
3.54377208e-05
3.68054341e-05
3.68391663e-05
3.56993953e-05
3.5380318e-05
3.54766255e-05
3.68116642e-05
3.68621517e-05
3.56993668e-05
3.56756726e-05
3.67951221e-05
3.68617415e-05
3.56987517e-05
3.53728629e-05
3.53806159e-05
3.6822449e-05
3.68506041e-05
3.57302929e-05
3.53111204e-05
3.54571828e-05
3.68105285e-05
3.68493127e-05
3.68562685e-05
3.57503852e-05
3.54150133e-05
3.54120645e-05
3.67764537e-05
3.68421961e-05
3.57698867e-05
3.54268971e-05
3.54162172e-05
3.67403743e-05
3.68379507e-05
3.57511805e-05
3.551179e-05
3.55060977e-05
3.54532013e-05
3.52648193e-05
3.52655529e-05
3.66411363e-05
3.68195769e-05
3.57263257e-05
3.54249044e-05
3.65976779e-05
3.68217066e-05
3.68250104e-05
3.56988533e-05
3.52735709e-05
3.65104821e-05
3.68178169e-05
3.68199818e-05
3.57529874e-05
3.52301865e-05
3.52016894e-05
3.52034312e-05
3.64611445e-05
3.6814519e-05
3.57719594e-05
3.54877205e-05
3.65220817e-05
3.68257861e-05
3.57662426e-05
3.54664244e-05
3.65121692e-05
3.6832648e-05
3.57556895e-05
3.5425286e-05
3.64906879e-05
3.68277605e-05
3.57508482e-05
3.53995195e-05
3.64971665e-05
3.68122314e-05
3.57554863e-05
3.51286309e-05
3.51245596e-05
3.6378643e-05
3.68158603e-05
3.57647786e-05
3.54115975e-05
3.64890327e-05
3.68078716e-05
3.57608314e-05
3.51006027e-05
3.50952207e-05
3.63304372e-05
3.68258331e-05
3.57593313e-05
3.53558955e-05
3.64073674e-05
3.68351788e-05
3.57523474e-05
3.53463724e-05
3.63929387e-05
3.68362267e-05
3.57485553e-05
3.53476151e-05
3.63890221e-05
3.68345109e-05
3.57497602e-05
3.53684672e-05
3.64030714e-05
3.68276472e-05
3.5751518e-05
3.53809493e-05
3.64703063e-05
3.68108813e-05
3.57595105e-05
3.51042128e-05
3.51228839e-05
3.63404029e-05
3.68292417e-05
3.57713748e-05
3.54428858e-05
3.64682755e-05
3.68331135e-05
3.57696838e-05
3.54500493e-05
3.65583538e-05
3.68151476e-05
3.57710945e-05
3.51368734e-05
3.51706239e-05
3.64595459e-05
3.68272711e-05
3.57754066e-05
3.54537842e-05
3.66030617e-05
3.68173952e-05
3.57760816e-05
3.51420975e-05
3.51823728e-05
3.65285817e-05
3.68367272e-05
3.57834339e-05
3.54817777e-05
3.65775024e-05
3.68434743e-05
3.57791374e-05
3.54705866e-05
3.66783136e-05
3.68179537e-05
3.57794167e-05
3.51378549e-05
3.51816302e-05
3.66768278e-05
3.68334395e-05
3.57953418e-05
3.55056716e-05
3.6714041e-05
3.68349116e-05
3.5782455e-05
3.53780665e-05
3.54335753e-05
3.51682622e-05
3.51937503e-05
3.67875998e-05
3.68288961e-05
3.58125785e-05
3.55838639e-05
3.6775355e-05
3.68217226e-05
3.5816619e-05
3.52482247e-05
3.52489974e-05
3.68297663e-05
3.68085688e-05
3.5831593e-05
3.52820387e-05
3.52821124e-05
3.68306079e-05
3.68081661e-05
3.58384747e-05
3.53088179e-05
3.53087771e-05
3.68230084e-05
3.68107263e-05
3.58514129e-05
3.53438809e-05
3.53431537e-05
3.6816913e-05
3.68094379e-05
3.58700683e-05
3.53658327e-05
3.53646034e-05
3.68074317e-05
3.68356022e-05
3.58264081e-05
3.55803109e-05
3.53123809e-05
3.53125743e-05
3.67856087e-05
3.68342695e-05
3.5800714e-05
3.56421065e-05
3.68104293e-05
3.6826887e-05
3.58263168e-05
3.52624013e-05
3.52630177e-05
3.67897328e-05
3.68065931e-05
3.58635154e-05
3.5252488e-05
3.52523581e-05
3.6782938e-05
3.68046312e-05
3.58634208e-05
3.524174e-05
3.5242917e-05
3.67725699e-05
3.68020349e-05
3.58664082e-05
3.5226214e-05
3.52278214e-05
3.67604085e-05
3.68258632e-05
3.58199591e-05
3.55027917e-05
3.52242217e-05
3.52270516e-05
3.67314764e-05
3.68261148e-05
3.57930188e-05
3.55201237e-05
3.67743082e-05
3.68158317e-05
3.58340473e-05
3.5229551e-05
3.52306609e-05
3.67170166e-05
3.68287671e-05
3.57867993e-05
3.54615776e-05
3.67625678e-05
3.68178028e-05
3.5832878e-05
3.52381288e-05
3.53058069e-05
3.67572827e-05
3.68426582e-05
3.5756639e-05
3.53551529e-05
3.63975534e-05
3.68057576e-05
3.57617327e-05
3.52059305e-05
3.57616511e-05
3.6759639e-05
3.65385685e-05
3.5412854e-05
3.53086684e-05
3.65907377e-05
3.68105395e-05
3.57769676e-05
3.52152856e-05
3.57730083e-05
3.67662409e-05
3.63673713e-05
3.544568e-05
3.53502509e-05
3.65141279e-05
3.67935084e-05
3.59547476e-05
3.51744376e-05
3.5114451e-05
3.64380539e-05
3.67920828e-05
3.59411151e-05
3.51326391e-05
3.50745323e-05
3.64309955e-05
3.68158433e-05
3.58282787e-05
3.51838262e-05
3.57048032e-05
3.6769976e-05
3.593183e-05
3.55085057e-05
3.60071419e-05
3.679224e-05
3.58389808e-05
3.55194602e-05
3.59302211e-05
3.67919589e-05
3.66213854e-05
3.56301245e-05
3.51830801e-05
3.57352645e-05
3.67601715e-05
3.5914878e-05
3.55831744e-05
3.60769877e-05
3.68085581e-05
3.58520946e-05
3.55996654e-05
3.59608747e-05
3.68041573e-05
3.64827312e-05
3.57171624e-05
3.53069283e-05
3.52915937e-05
3.62812351e-05
3.68062824e-05
3.61588827e-05
3.55667868e-05
3.54070321e-05
3.51511166e-05
3.51389267e-05
3.6132196e-05
3.6785845e-05
3.60851454e-05
3.53774689e-05
3.55350793e-05
3.66821003e-05
3.68562182e-05
3.58203153e-05
3.52339883e-05
3.56731008e-05
3.67120869e-05
3.61311986e-05
3.56914156e-05
3.58465728e-05
3.67831095e-05
3.60045027e-05
3.56931594e-05
3.58916723e-05
3.67916414e-05
3.59480449e-05
3.56381902e-05
3.59512439e-05
3.67905235e-05
3.63541196e-05
3.54925142e-05
3.51458967e-05
3.57560104e-05
3.67639811e-05
3.64742461e-05
3.54906603e-05
3.51276261e-05
3.57575708e-05
3.67701307e-05
3.64779423e-05
3.54903454e-05
3.51488271e-05
3.57689428e-05
3.67720593e-05
3.64856619e-05
3.54907601e-05
3.51946349e-05
3.58131317e-05
3.6775537e-05
3.59011748e-05
3.56468437e-05
3.60509155e-05
3.67979746e-05
3.621531e-05
3.54115106e-05
3.5266227e-05
3.58913678e-05
3.67688481e-05
3.58569663e-05
3.56766511e-05
3.61478028e-05
3.67950758e-05
3.6112031e-05
3.53208135e-05
3.52978192e-05
3.59412982e-05
3.67805645e-05
3.6331237e-05
3.5303273e-05
3.53073941e-05
3.59284616e-05
3.68085578e-05
3.68023048e-05
3.6205743e-05
3.55055308e-05
3.53785947e-05
3.52143936e-05
3.52857028e-05
3.59162255e-05
3.68046412e-05
3.68026218e-05
3.62589781e-05
)
;

boundaryField
{
    closed
    {
        type            calculated;
        value           uniform 5.15077517e-05;
    }
    open
    {
        type            calculated;
        value           nonuniform List<scalar> 0();
    }
    sides
    {
        type            empty;
    }
    procBoundary0to1
    {
        type            processor;
        value           uniform 3.53633612e-05;
    }
}


// ************************************************************************* //
