/*--------------------------------*- C++ -*----------------------------------*\
| =========                 |                                                 |
| \\      /  F ield         | OpenFOAM: The Open Source CFD Toolbox           |
|  \\    /   O peration     | Version:  2306                                  |
|   \\  /    A nd           | Website:  www.openfoam.com                      |
|    \\/     M anipulation  |                                                 |
\*---------------------------------------------------------------------------*/
FoamFile
{
    version     2.0;
    format      ascii;
    arch        "LSB;label=32;scalar=64";
    class       volScalarField;
    location    "0.0006";
    object      rho;
}
// * * * * * * * * * * * * * * * * * * * * * * * * * * * * * * * * * * * * * //

dimensions      [1 -3 0 0 0 0 0];

internalField   nonuniform List<scalar> 
530
(
0.225414624
0.225471073
0.225655032
0.225623125
0.224608814
0.224681953
0.225095209
0.224961419
0.224346102
0.224040777
0.224338719
0.224276382
0.223922495
0.223757008
0.223468581
0.223320731
0.223835146
0.223628258
0.222877361
0.222778374
0.223445997
0.223230167
0.222556023
0.22258197
0.222968463
0.222773678
0.222092798
0.222101428
0.222445386
0.222257049
0.221562701
0.221565515
0.221898798
0.221705466
0.221010052
0.221008215
0.221314353
0.221125235
0.220420954
0.220417145
0.220691839
0.220510132
0.219794353
0.219790789
0.220044388
0.219856964
0.219137234
0.219118847
0.219364195
0.219161723
0.218441178
0.218396751
0.218649236
0.218426168
0.21767345
0.217585128
0.217866094
0.217618381
0.216842428
0.21660999
0.217011826
0.216759622
0.21632806
0.216122234
0.215882774
0.215658852
0.215831868
0.215629888
0.214949111
0.214743889
0.215098507
0.214908156
0.214162676
0.214183543
0.214299259
0.214119216
0.213368445
0.213401482
0.21347696
0.213364212
0.212731188
0.212618316
0.212491419
0.212584721
0.212225039
0.2118008
0.211433037
0.211790997
0.211614618
0.210951395
0.210866964
0.210991587
0.210839614
0.210107837
0.210198663
0.210219004
0.210086959
0.209348823
0.209480176
0.209475861
0.209345223
0.20863749
0.208748478
0.208750146
0.208616146
0.207970315
0.208024381
0.208043113
0.207902604
0.207350268
0.207348955
0.20737509
0.207176446
0.206778053
0.20666727
0.206707551
0.206494522
0.206145261
0.205983208
0.20601907
0.205831869
0.205426896
0.205317393
0.205353455
0.205192394
0.204770787
0.204694946
0.204720665
0.204580132
0.204166954
0.204103491
0.204117781
0.20399722
0.203606637
0.203550271
0.203556888
0.20344898
0.203114082
0.203038246
0.2030415
0.202931262
0.202645482
0.202558153
0.202568265
0.20245034
0.202201376
0.202113048
0.202123768
0.202009151
0.2017784
0.201695225
0.201702114
0.201591238
0.201375035
0.201302715
0.201299871
0.20119466
0.200986954
0.20092676
0.200916811
0.200817357
0.200613659
0.200563897
0.200554295
0.200460889
0.200255116
0.200221493
0.20021309
0.200126426
0.199926189
0.1998981
0.199898751
0.199812408
0.199626031
0.199596041
0.199607522
0.199520185
0.199349495
0.199321298
0.199336641
0.19924783
0.199090362
0.199067198
0.199084685
0.198987985
0.198840368
0.198831644
0.198851042
0.198755459
0.198613642
0.198608388
0.198632323
0.198533902
0.1983902
0.198388585
0.198419347
0.19831565
0.198145061
0.198158799
0.198201068
0.198088025
0.197814077
0.197879082
0.197855701
0.197855655
0.197786279
0.19768324
0.197651641
0.197584146
0.197696
0.197612914
0.197584306
0.197559246
0.197609943
0.19753906
0.197493957
0.197476359
0.197517871
0.197447969
0.197400945
0.197384442
0.197424134
0.197356369
0.197309723
0.197294273
0.197331603
0.197267277
0.197221964
0.197207989
0.197242054
0.197182813
0.197138505
0.197126905
0.197156572
0.197103948
0.197059808
0.197051365
0.197075916
0.197030459
0.196985838
0.196979746
0.197000356
0.196957058
0.19691277
0.196913742
0.196931729
0.196894784
0.196845957
0.196847441
0.196857128
0.196840482
0.196778375
0.19679142
0.196789018
0.196788504
0.196720403
0.196741997
0.196729028
0.19674007
0.196669627
0.196698134
0.196677976
0.196696468
0.196626537
0.196658361
0.196633846
0.196657174
0.196588498
0.19662254
0.196594292
0.196621235
0.196551732
0.196589723
0.196551782
0.196588299
0.196516902
0.196559726
0.196504684
0.196558856
0.19653197
0.196532965
0.1965132
0.196534173
0.196524245
0.196510749
0.196506991
0.196512545
0.196508994
0.196489511
0.19649316
0.196494642
0.196494796
0.19647474
0.1964806
0.196480853
0.19648175
0.19646326
0.196469059
0.196469789
0.196470009
0.196454293
0.196458733
0.196460906
0.196459585
0.196447421
0.196450002
0.196454723
0.196450367
0.196443327
0.196443594
0.196450392
0.19644255
0.196440083
0.196437802
0.196445819
0.196436907
0.196436786
0.196433498
0.1964417
0.196432946
0.19643384
0.196430479
0.196438438
0.196430404
0.196431711
0.196428665
0.196436212
0.196428982
0.196430514
0.196427871
0.196435023
0.196428523
0.196430246
0.196427983
0.196434773
0.196428962
0.196430817
0.19642893
0.196435346
0.196430228
0.196432128
0.196430631
0.196436646
0.19643222
0.196434093
0.196432988
0.196438592
0.196434826
0.196436635
0.196435903
0.196441103
0.196437952
0.196439669
0.196439288
0.196444085
0.196441519
0.196443105
0.196443054
0.196447447
0.196445445
0.196446843
0.19644709
0.196451104
0.196449613
0.196450692
0.196451205
0.196454862
0.196453824
0.19645411
0.196455136
0.196458319
0.19645783
0.1964555
0.196458163
0.196460002
0.196461451
0.196463112
0.196463317
0.19646568
0.196466496
0.196469979
0.196470018
0.196472102
0.196473051
0.196476157
0.196476272
0.196478133
0.196479189
0.196482032
0.196482247
0.196483932
0.19648504
0.196487682
0.196487993
0.196489567
0.1964907
0.196493158
0.196493552
0.196495049
0.196496187
0.196498473
0.196498946
0.196500378
0.196501515
0.196503631
0.196504185
0.196505553
0.196506686
0.196508633
0.196509269
0.196510571
0.196511698
0.19651348
0.196514189
0.196515429
0.196516542
0.196518168
0.196518936
0.196520118
0.196521209
0.196522686
0.196523503
0.196524627
0.196525691
0.196527021
0.19652788
0.196528947
0.196529978
0.196531166
0.196532057
0.196533077
0.196534069
0.196535127
0.19653603
0.196537039
0.196538012
0.196538929
0.196539958
0.196540955
0.196541962
0.196542898
0.196543873
0.196544795
0.196545726
0.196546621
0.196547521
0.196548388
0.196549256
0.196550096
0.196550934
0.196551747
0.196552556
0.19655334
0.196554141
0.196554968
0.196555834
0.196556727
0.196557659
0.19655862
0.196559618
0.196560644
0.196561702
0.196562782
0.196563886
0.196565001
0.196566125
0.196567247
0.196568358
0.196569445
0.196570495
0.196571494
0.196572423
0.196573264
0.196573994
0.19657459
0.196575025
0.196575271
0.196575298
0.19657507
0.196574551
0.196573701
0.196572476
0.196570828
0.196568705
0.19656605
0.196562808
0.196558922
0.196554354
0.196549086
0.196543156
0.196536679
0.196529885
0.196523166
0.196517095
0.196512443
0.196510138
0.196511184
0.196516535
0.196526957
0.196542962
0.196564882
0.19659311
0.196628394
0.196671867
0.196724414
0.196785162
0.196849513
0.196908028
0.196947708
0.19695626
0.196928017
0.196868289
0.196792667
0.196719644
0.196659991
0.196607832
0.196542228
0.19644934
0.196353525
0.196296528
0.196288931
0.196307335
0.196328829
0.196354409
0.196385683
0.19641054
0.19641889
0.196412623
0.196372834
0.196367419
)
;

boundaryField
{
    closed
    {
        type            calculated;
        value           nonuniform List<scalar> 0();
    }
    open
    {
        type            calculated;
        value           uniform 0.196391067;
    }
    sides
    {
        type            empty;
    }
    procBoundary5to4
    {
        type            processor;
        value           uniform 0.22630631;
    }
}


// ************************************************************************* //
