/*--------------------------------*- C++ -*----------------------------------*\
| =========                 |                                                 |
| \\      /  F ield         | OpenFOAM: The Open Source CFD Toolbox           |
|  \\    /   O peration     | Version:  2306                                  |
|   \\  /    A nd           | Website:  www.openfoam.com                      |
|    \\/     M anipulation  |                                                 |
\*---------------------------------------------------------------------------*/
FoamFile
{
    version     2.0;
    format      ascii;
    arch        "LSB;label=32;scalar=64";
    class       volVectorField;
    location    "0.0006";
    object      U;
}
// * * * * * * * * * * * * * * * * * * * * * * * * * * * * * * * * * * * * * //

dimensions      [0 1 -1 0 0 0 0];

internalField   nonuniform List<vector> 
530
(
(2.12533427 0 0)
(2.24110424 0 0)
(2.21523852 0 0)
(2.08060012 0 0)
(2.10197554 0 0)
(2.24731039 0 0)
(2.23130577 0 0)
(2.07481447 0 0)
(2.04439681 0 0)
(2.16062585 0 0)
(2.20776555 0 0)
(2.13837458 0 0)
(2.09230034 0 0)
(2.08579771 0 0)
(2.11928223 0 0)
(2.19030377 0 0)
(2.15547829 0 0)
(2.01905409 0 0)
(2.04380099 0 0)
(2.19489494 0 0)
(2.1709877 0 0)
(2.02603359 0 0)
(2.04111607 0 0)
(2.15437362 0 0)
(2.1231608 0 0)
(2.00007036 0 0)
(2.01705667 0 0)
(2.12533671 0 0)
(2.09559646 0 0)
(1.97570326 0 0)
(1.99394903 0 0)
(2.1025507 0 0)
(2.07412739 0 0)
(1.95583981 0 0)
(1.97416897 0 0)
(2.08156255 0 0)
(2.05453721 0 0)
(1.93903217 0 0)
(1.95692515 0 0)
(2.06330041 0 0)
(2.03795371 0 0)
(1.9243222 0 0)
(1.94196118 0 0)
(2.04691485 0 0)
(2.02153248 0 0)
(1.90922935 0 0)
(1.9272509 0 0)
(2.03168789 0 0)
(2.00707291 0 0)
(1.89506768 0 0)
(1.91248027 0 0)
(2.01755787 0 0)
(1.99127363 0 0)
(1.87466129 0 0)
(1.8916764 0 0)
(2.00411544 0 0)
(1.97561452 0 0)
(1.84412344 0 0)
(1.85516358 0 0)
(1.99003188 0 0)
(2.00635273 0 0)
(1.90635092 0 0)
(1.87048327 0 0)
(1.89139016 0 0)
(1.91881154 0 0)
(1.95944282 0 0)
(1.93062369 0 0)
(1.82696579 0 0)
(1.83809552 0 0)
(1.95609884 0 0)
(1.93862738 0 0)
(1.815321 0 0)
(1.82384665 0 0)
(1.91654239 0 0)
(1.88663292 0 0)
(1.78652256 0 0)
(1.8065756 0 0)
(1.90327046 0 0)
(1.87789708 0 0)
(1.77788536 0 0)
(1.77013326 0 0)
(1.84420446 0 0)
(1.86655887 0 0)
(1.81118019 0 0)
(1.74394977 0 0)
(1.76017335 0 0)
(1.85634198 0 0)
(1.85531311 0 0)
(1.73829724 0 0)
(1.71591619 0 0)
(1.80334965 0 0)
(1.78261409 0 0)
(1.6851861 0 0)
(1.69833694 0 0)
(1.77987174 0 0)
(1.74645823 0 0)
(1.65496004 0 0)
(1.67919535 0 0)
(1.7588792 0 0)
(1.72271539 0 0)
(1.63355558 0 0)
(1.65848257 0 0)
(1.73584807 0 0)
(1.70389531 0 0)
(1.61917218 0 0)
(1.63906452 0 0)
(1.71128193 0 0)
(1.68611585 0 0)
(1.60636759 0 0)
(1.61704623 0 0)
(1.67621635 0 0)
(1.65653095 0 0)
(1.59360976 0 0)
(1.60030645 0 0)
(1.6448509 0 0)
(1.62753623 0 0)
(1.57119532 0 0)
(1.57289969 0 0)
(1.61561559 0 0)
(1.60203812 0 0)
(1.5457024 0 0)
(1.55107203 0 0)
(1.60160426 0 0)
(1.58950512 0 0)
(1.53252296 0 0)
(1.53924741 0 0)
(1.59091841 0 0)
(1.57946136 0 0)
(1.52442444 0 0)
(1.53125441 0 0)
(1.58188961 0 0)
(1.57397065 0 0)
(1.52476178 0 0)
(1.53193278 0 0)
(1.57996897 0 0)
(1.57794682 0 0)
(1.53778199 0 0)
(1.54319941 0 0)
(1.58435766 0 0)
(1.58428908 0 0)
(1.55038909 0 0)
(1.55490459 0 0)
(1.59070219 0 0)
(1.59101192 0 0)
(1.56274269 0 0)
(1.56882145 0 0)
(1.60226419 0 0)
(1.60359867 0 0)
(1.57912379 0 0)
(1.58593774 0 0)
(1.61749587 0 0)
(1.61921662 0 0)
(1.59795492 0 0)
(1.60559283 0 0)
(1.63457194 0 0)
(1.63533633 0 0)
(1.61645411 0 0)
(1.62493464 0 0)
(1.65184443 0 0)
(1.65121245 0 0)
(1.63335638 0 0)
(1.64268989 0 0)
(1.66899826 0 0)
(1.66695643 0 0)
(1.64863763 0 0)
(1.65906828 0 0)
(1.68523161 0 0)
(1.68153714 0 0)
(1.66143537 0 0)
(1.6708338 0 0)
(1.69588055 0 0)
(1.68996531 0 0)
(1.6677772 0 0)
(1.67542981 0 0)
(1.69874823 0 0)
(1.69168798 0 0)
(1.66885669 0 0)
(1.67543605 0 0)
(1.69640925 0 0)
(1.68787226 0 0)
(1.66564691 0 0)
(1.67224555 0 0)
(1.69153001 0 0)
(1.6818982 0 0)
(1.66127024 0 0)
(1.670076 0 0)
(1.68882726 0 0)
(1.67786283 0 0)
(1.65697468 0 0)
(1.66556691 0 0)
(1.68317137 0 0)
(1.67020723 0 0)
(1.64806361 0 0)
(1.65724314 0 0)
(1.67559203 0 0)
(1.65934514 0 0)
(1.63295509 0 0)
(1.64388933 0 0)
(1.66445175 0 0)
(1.63528729 0 0)
(1.59414589 0 0)
(1.60896038 0 0)
(1.64392591 0 0)
(1.64494078 0 0)
(1.61596199 0 0)
(1.57749246 0 0)
(1.55543767 0 0)
(1.56310523 0 0)
(1.57893477 0 0)
(1.57429635 0 0)
(1.5597344 0 0)
(1.56270741 0 0)
(1.56970867 0 0)
(1.55825399 0 0)
(1.54146181 0 0)
(1.54206832 0 0)
(1.54657081 0 0)
(1.53293005 0 0)
(1.5150831 0 0)
(1.51482187 0 0)
(1.51857907 0 0)
(1.50462441 0 0)
(1.48658988 0 0)
(1.48580651 0 0)
(1.48905438 0 0)
(1.47532124 0 0)
(1.45772109 0 0)
(1.45657522 0 0)
(1.45936185 0 0)
(1.44609151 0 0)
(1.42912974 0 0)
(1.42758117 0 0)
(1.42982277 0 0)
(1.41706402 0 0)
(1.40073968 0 0)
(1.39868477 0 0)
(1.4003218 0 0)
(1.38803652 0 0)
(1.37230139 0 0)
(1.36973775 0 0)
(1.37097279 0 0)
(1.35926588 0 0)
(1.3445735 0 0)
(1.34252184 0 0)
(1.34326759 0 0)
(1.33081287 0 0)
(1.31551474 0 0)
(1.31296136 0 0)
(1.31459134 0 0)
(1.30443667 0 0)
(1.28926627 0 0)
(1.28517967 0 0)
(1.28669819 0 0)
(1.27739161 0 0)
(1.26263868 0 0)
(1.25770281 0 0)
(1.25836507 0 0)
(1.24991152 0 0)
(1.23637091 0 0)
(1.2314853 0 0)
(1.23163702 0 0)
(1.2238272 0 0)
(1.21138121 0 0)
(1.20650607 0 0)
(1.20629886 0 0)
(1.19917558 0 0)
(1.18780069 0 0)
(1.18318984 0 0)
(1.18282753 0 0)
(1.17644037 0 0)
(1.16625345 0 0)
(1.16223954 0 0)
(1.16218618 0 0)
(1.15703576 0 0)
(1.1485982 0 0)
(1.1445223 0 0)
(1.14411139 0 0)
(1.14281419 0 0)
(1.13809779 0 0)
(1.12751284 0 0)
(1.11992907 0 0)
(1.11904608 0 0)
(1.11463901 0 0)
(1.10690084 0 0)
(1.1022877 0 0)
(1.10112093 0 0)
(1.09691594 0 0)
(1.0906217 0 0)
(1.08774764 0 0)
(1.08735623 0 0)
(1.08372047 0 0)
(1.07817382 0 0)
(1.07597791 0 0)
(1.07587619 0 0)
(1.07274903 0 0)
(1.06793286 0 0)
(1.06629377 0 0)
(1.06648445 0 0)
(1.06387482 0 0)
(1.05978237 0 0)
(1.05865429 0 0)
(1.05915758 0 0)
(1.05711624 0 0)
(1.05378144 0 0)
(1.05318409 0 0)
(1.0539738 0 0)
(1.05237421 0 0)
(1.04975879 0 0)
(1.04969912 0 0)
(1.05053383 0 0)
(1.04925858 0 0)
(1.04756218 0 0)
(1.04821671 0 0)
(1.0494133 0 0)
(1.04878769 0 0)
(1.04793556 0 0)
(1.04906599 0 0)
(1.05062392 0 0)
(1.0506081 0 0)
(1.05046195 0 0)
(1.05205066 0 0)
(1.05401071 0 0)
(1.05457202 0 0)
(1.05503767 0 0)
(1.05705489 0 0)
(1.05940513 0 0)
(1.06050351 0 0)
(1.06153128 0 0)
(1.06397316 0 0)
(1.06670728 0 0)
(1.06830899 0 0)
(1.06986474 0 0)
(1.07271598 0 0)
(1.07582356 0 0)
(1.07790083 0 0)
(1.07995153 0 0)
(1.08318766 0 0)
(1.08665235 0 0)
(1.0891781 0 0)
(1.09168841 0 0)
(1.09528181 0 0)
(1.09908274 0 0)
(1.10202765 0 0)
(1.10496135 0 0)
(1.10888378 0 0)
(1.11299611 0 0)
(1.11632765 0 0)
(1.11964853 0 0)
(1.12387161 0 0)
(1.12826772 0 0)
(1.13195043 0 0)
(1.13562173 0 0)
(1.1401155 0 0)
(1.14476692 0 0)
(1.14876465 0 0)
(1.15274699 0 0)
(1.1574764 0 0)
(1.16235252 0 0)
(1.16662673 0 0)
(1.1708727 0 0)
(1.17579627 0 0)
(1.18086259 0 0)
(1.18536217 0 0)
(1.18980622 0 0)
(1.19488394 0 0)
(1.20012011 0 0)
(1.20478563 0 0)
(1.20934893 0 0)
(1.21457085 0 0)
(1.21999757 0 0)
(1.22463454 0 0)
(1.22908382 0 0)
(1.23445352 0 0)
(1.24018469 0 0)
(1.24554072 0 0)
(1.25053621 0 0)
(1.25546679 0 0)
(1.26050716 0 0)
(1.26582555 0 0)
(1.27128349 0 0)
(1.27649759 0 0)
(1.28169745 0 0)
(1.28717483 0 0)
(1.29269509 0 0)
(1.29795736 0 0)
(1.30319724 0 0)
(1.30869152 0 0)
(1.31420086 0 0)
(1.31944854 0 0)
(1.32466679 0 0)
(1.33012108 0 0)
(1.33558375 0 0)
(1.340792 0 0)
(1.34596379 0 0)
(1.351346 0 0)
(1.35672803 0 0)
(1.3618704 0 0)
(1.36697291 0 0)
(1.37225855 0 0)
(1.37753624 0 0)
(1.38259275 0 0)
(1.387608 0 0)
(1.39277844 0 0)
(1.39793422 0 0)
(1.40288851 0 0)
(1.40779992 0 0)
(1.41283814 0 0)
(1.41785616 0 0)
(1.42269295 0 0)
(1.42748432 0 0)
(1.4323742 0 0)
(1.43723841 0 0)
(1.44194132 0 0)
(1.44659649 0 0)
(1.45132328 0 0)
(1.45601869 0 0)
(1.46057169 0 0)
(1.46507526 0 0)
(1.46962523 0 0)
(1.47413873 0 0)
(1.47852803 0 0)
(1.48286652 0 0)
(1.48722745 0 0)
(1.49154747 0 0)
(1.49576105 0 0)
(1.49992287 0 0)
(1.50408444 0 0)
(1.50820136 0 0)
(1.51222989 0 0)
(1.51620633 0 0)
(1.52016022 0 0)
(1.52406477 0 0)
(1.52790049 0 0)
(1.53168837 0 0)
(1.53543135 0 0)
(1.53911174 0 0)
(1.54274635 0 0)
(1.54634151 0 0)
(1.54987352 0 0)
(1.55334747 0 0)
(1.55677323 0 0)
(1.56014685 0 0)
(1.56346586 0 0)
(1.56673155 0 0)
(1.56994414 0 0)
(1.573103 0 0)
(1.57620818 0 0)
(1.5792604 0 0)
(1.58226094 0 0)
(1.58521113 0 0)
(1.58811118 0 0)
(1.5909613 0 0)
(1.59376167 0 0)
(1.59657597 0 0)
(1.59953384 0 0)
(1.60263825 0 0)
(1.60588946 0 0)
(1.60928277 0 0)
(1.61281103 0 0)
(1.61646646 0 0)
(1.6202404 0 0)
(1.62412216 0 0)
(1.62809805 0 0)
(1.63215081 0 0)
(1.63625902 0 0)
(1.64039669 0 0)
(1.64453277 0 0)
(1.64863065 0 0)
(1.65264769 0 0)
(1.65653479 0 0)
(1.66023589 0 0)
(1.66368752 0 0)
(1.66681834 0 0)
(1.66954877 0 0)
(1.67179063 0 0)
(1.67344678 0 0)
(1.67441081 0 0)
(1.67456651 0 0)
(1.67378728 0 0)
(1.6719351 0 0)
(1.66885926 0 0)
(1.6643948 0 0)
(1.6583612 0 0)
(1.65056213 0 0)
(1.64078814 0 0)
(1.62882482 0 0)
(1.614471 0 0)
(1.59757202 0 0)
(1.57807469 0 0)
(1.55610944 0 0)
(1.53210175 0 0)
(1.50690656 0 0)
(1.48194617 0 0)
(1.45931511 0 0)
(1.44179946 0 0)
(1.43275055 0 0)
(1.43578022 0 0)
(1.45431187 0 0)
(1.49112686 0 0)
(1.54815316 0 0)
(1.62675738 0 0)
(1.72858558 0 0)
(1.85649158 0 0)
(2.01447184 0 0)
(2.20522618 0 0)
(2.42487608 0 0)
(2.65634304 0 0)
(2.86603587 0 0)
(3.00878498 0 0)
(3.0429962 0 0)
(2.9507037 0 0)
(2.75170312 0 0)
(2.49978548 0 0)
(2.25757913 0 0)
(2.05988395 0 0)
(1.88467679 0 0)
(1.66376967 0 0)
(1.36290586 0 0)
(1.0600314 0 0)
(0.883845136 0 0)
(0.863709308 0 0)
(0.933833173 0 0)
(1.00677886 0 0)
(1.09013203 0 0)
(1.13657429 0 0)
(1.14454114 0 0)
(1.02088406 0 0)
(0.873155114 0 0)
(0.508828196 0 0)
(0.70371543 0 0)
)
;

boundaryField
{
    closed
    {
        type            noSlip;
    }
    open
    {
        type            inletOutlet;
        inletValue      uniform (0 0 0);
        value           uniform (0.70371543 0 0);
    }
    sides
    {
        type            empty;
    }
    procBoundary5to4
    {
        type            processor;
        value           uniform (2.11260523 0 0);
    }
}


// ************************************************************************* //
