/*--------------------------------*- C++ -*----------------------------------*\
| =========                 |                                                 |
| \\      /  F ield         | OpenFOAM: The Open Source CFD Toolbox           |
|  \\    /   O peration     | Version:  2306                                  |
|   \\  /    A nd           | Website:  www.openfoam.com                      |
|    \\/     M anipulation  |                                                 |
\*---------------------------------------------------------------------------*/
FoamFile
{
    version     2.0;
    format      ascii;
    arch        "LSB;label=32;scalar=64";
    class       volScalarField;
    location    "0.00134";
    object      prefDPV_H2O;
}
// * * * * * * * * * * * * * * * * * * * * * * * * * * * * * * * * * * * * * //

dimensions      [1 -1 -1 0 0 0 0];

internalField   nonuniform List<scalar> 
530
(
-3.82648656e-07
-3.73706378e-07
-3.73049897e-07
-3.73065098e-07
-3.73066641e-07
-3.73066669e-07
-3.73066669e-07
-3.73066669e-07
-3.73066669e-07
-3.73066669e-07
-3.73066669e-07
-3.73066669e-07
-3.73066669e-07
-3.73066669e-07
-3.73066669e-07
-3.73066669e-07
-3.73066669e-07
-3.73066669e-07
-3.73066669e-07
-3.73066669e-07
-3.73066669e-07
-3.73066669e-07
-3.73066669e-07
-3.73066669e-07
-3.73066669e-07
-3.73066669e-07
-3.73066669e-07
-3.73066669e-07
-3.73066669e-07
-3.73066669e-07
-3.73066669e-07
-3.73066669e-07
-3.73066669e-07
-3.73066669e-07
-3.73066669e-07
-3.73066669e-07
-3.73066669e-07
-3.73066669e-07
-3.73066669e-07
-3.73066669e-07
-3.73066669e-07
-3.73066669e-07
-3.73066669e-07
-3.73066669e-07
-3.73066669e-07
-3.73066669e-07
-3.73066669e-07
-3.73066669e-07
-3.73066669e-07
-3.73066669e-07
-3.73066669e-07
-3.73066669e-07
-3.73066669e-07
-3.73066669e-07
-3.73066669e-07
-3.73066669e-07
-3.73066669e-07
-3.73066669e-07
-3.73066669e-07
-3.73066669e-07
-3.73066669e-07
-3.73066669e-07
-3.73066669e-07
-3.73066669e-07
-3.73066669e-07
-3.73066669e-07
-3.73066669e-07
-3.73066667e-07
-3.7306667e-07
-3.73066646e-07
-3.73066642e-07
-3.73066794e-07
-3.73066506e-07
-3.73065399e-07
-3.73066151e-07
-3.73077711e-07
-3.73081129e-07
-3.73001635e-07
-3.72913866e-07
-3.73220444e-07
-3.73754139e-07
-3.7305275e-07
-3.71362384e-07
-3.72590765e-07
-3.74254293e-07
-3.74105888e-07
-3.65871925e-07
-3.65321129e-07
-3.84138344e-07
-3.83837709e-07
-3.83916535e-07
-3.69683273e-07
-3.63677243e-07
-3.63404902e-07
-3.82613058e-07
-3.8398486e-07
-3.84716e-07
-3.6767084e-07
-3.63676895e-07
-3.63557702e-07
-3.86151702e-07
-3.84292993e-07
-3.84393873e-07
-3.8408696e-07
-3.73053859e-07
-3.64967078e-07
-3.65163123e-07
-3.63863744e-07
-3.63772364e-07
-3.86376157e-07
-3.83854866e-07
-3.83901178e-07
-3.68518745e-07
-3.66104503e-07
-3.86409806e-07
-3.83542254e-07
-3.80046764e-07
-3.66634469e-07
-3.65565489e-07
-3.65147342e-07
-3.65132767e-07
-3.63847019e-07
-3.63728756e-07
-3.86760158e-07
-3.8406702e-07
-3.84878825e-07
-3.83750865e-07
-3.83813653e-07
-3.67138473e-07
-3.65063549e-07
-3.86225348e-07
-3.83941469e-07
-3.74482436e-07
-3.65632801e-07
-3.65359424e-07
-3.63942497e-07
-3.63787017e-07
-3.8659669e-07
-3.8416123e-07
-3.66720993e-07
-3.65041577e-07
-3.8662162e-07
-3.84019695e-07
-3.66553761e-07
-3.65165428e-07
-3.8706178e-07
-3.84147915e-07
-3.84883167e-07
-3.84147568e-07
-3.71857049e-07
-3.65297774e-07
-3.65317773e-07
-3.63783418e-07
-3.63587821e-07
-3.86829695e-07
-3.84301593e-07
-3.6612058e-07
-3.64782281e-07
-3.87114265e-07
-3.84067077e-07
-3.84356145e-07
-3.66163623e-07
-3.63976127e-07
-3.86975477e-07
-3.84297631e-07
-3.66313215e-07
-3.64705897e-07
-3.86790509e-07
-3.84107876e-07
-3.66794399e-07
-3.65353015e-07
-3.8663001e-07
-3.84120852e-07
-3.76489663e-07
-3.65079482e-07
-3.64922258e-07
-3.86602443e-07
-3.84001563e-07
-3.69099015e-07
-3.6546771e-07
-3.64271792e-07
-3.64118206e-07
-3.86758865e-07
-3.84163424e-07
-3.66534472e-07
-3.64850364e-07
-3.86676273e-07
-3.84059882e-07
-3.6695788e-07
-3.65190566e-07
-3.86393257e-07
-3.84189768e-07
-3.7094114e-07
-3.64614491e-07
-3.64422054e-07
-3.86419219e-07
-3.84030028e-07
-3.67508817e-07
-3.6536838e-07
-3.86317959e-07
-3.84008299e-07
-3.72800832e-07
-3.6503153e-07
-3.64875692e-07
-3.86150979e-07
-3.83817591e-07
-3.71152192e-07
-3.66102731e-07
-3.65010324e-07
-3.64941368e-07
-3.8605659e-07
-3.70394972e-07
-3.64554096e-07
-3.86405468e-07
-3.83960135e-07
-3.67136697e-07
-3.65335605e-07
-3.86324718e-07
-3.83723885e-07
-3.67304232e-07
-3.65860696e-07
-3.86229656e-07
-3.83531484e-07
-3.74303646e-07
-3.66744769e-07
-3.65227887e-07
-3.65043986e-07
-3.86180461e-07
-3.83672281e-07
-3.7622209e-07
-3.66404869e-07
-3.64730369e-07
-3.64504346e-07
-3.8626472e-07
-3.83930059e-07
-3.67192263e-07
-3.65408456e-07
-3.86329824e-07
-3.8387108e-07
-3.67455494e-07
-3.65416411e-07
-3.86205913e-07
-3.84135016e-07
-3.70754234e-07
-3.64324689e-07
-3.64148475e-07
-3.86579933e-07
-3.84070892e-07
-3.66776294e-07
-3.64803152e-07
-3.8659007e-07
-3.83989529e-07
-3.66902362e-07
-3.6501308e-07
-3.8639199e-07
-3.84162525e-07
-3.70171377e-07
-3.64467072e-07
-3.64274616e-07
-3.86313488e-07
-3.84058523e-07
-3.67420944e-07
-3.65200042e-07
-3.86307705e-07
-3.8410911e-07
-3.71559499e-07
-3.64703388e-07
-3.64524987e-07
-3.86383854e-07
-3.8395236e-07
-3.67564259e-07
-3.65489868e-07
-3.86242815e-07
-3.83813088e-07
-3.69563274e-07
-3.6579838e-07
-3.648029e-07
-3.64682163e-07
-3.86162308e-07
-3.84111864e-07
-3.70149521e-07
-3.65433654e-07
-3.65315712e-07
-3.86008832e-07
-3.84169829e-07
-3.732362e-07
-3.64404224e-07
-3.64279647e-07
-3.8712604e-07
-3.84458235e-07
-3.84874128e-07
-3.84538192e-07
-3.69174862e-07
-3.6335655e-07
-3.63230359e-07
-3.86629211e-07
-3.84559165e-07
-3.68889748e-07
-3.6409789e-07
-3.63933198e-07
-3.86277947e-07
-3.84255253e-07
-3.6725797e-07
-3.65056071e-07
-3.86244878e-07
-3.84274407e-07
-3.69419001e-07
-3.64429509e-07
-3.642418e-07
-3.86267821e-07
-3.84114969e-07
-3.67251879e-07
-3.65087e-07
-3.861918e-07
-3.84144739e-07
-3.69567839e-07
-3.64712953e-07
-3.64614445e-07
-3.86065026e-07
-3.84170988e-07
-3.72848709e-07
-3.64987855e-07
-3.64857945e-07
-3.86129915e-07
-3.84038756e-07
-3.68708023e-07
-3.6539781e-07
-3.63794361e-07
-3.63672895e-07
-3.87193175e-07
-3.84331346e-07
-3.85338437e-07
-3.84086197e-07
-3.84076811e-07
-3.66301967e-07
-3.65092278e-07
-3.8673647e-07
-3.68148841e-07
-3.63398974e-07
-3.86505084e-07
-3.84422541e-07
-3.66884613e-07
-3.64802434e-07
-3.86205305e-07
-3.84304687e-07
-3.69068169e-07
-3.64189628e-07
-3.64007442e-07
-3.86195301e-07
-3.84040077e-07
-3.66897992e-07
-3.65072822e-07
-3.86066832e-07
-3.83878568e-07
-3.70369832e-07
-3.65509912e-07
-3.65617151e-07
-3.8494096e-07
-3.83617779e-07
-3.75179216e-07
-3.65970657e-07
-3.65876782e-07
-3.8567256e-07
-3.83602576e-07
-3.72160562e-07
-3.66137296e-07
-3.65746731e-07
-3.65367973e-07
-3.63979079e-07
-3.63920035e-07
-3.86282481e-07
-3.83898124e-07
-3.84058754e-07
-3.67721297e-07
-3.65878047e-07
-3.86117316e-07
-3.8371268e-07
-3.83985945e-07
-3.74659024e-07
-3.65930657e-07
-3.65675484e-07
-3.65192538e-07
-3.63978359e-07
-3.63826829e-07
-3.86303617e-07
-3.84109116e-07
-3.66166466e-07
-3.65190378e-07
-3.86630757e-07
-3.83754275e-07
-3.84239923e-07
-3.67313194e-07
-3.64838853e-07
-3.86174011e-07
-3.83977252e-07
-3.66939797e-07
-3.65212253e-07
-3.86070077e-07
-3.83846742e-07
-3.6887061e-07
-3.65596365e-07
-3.64704635e-07
-3.64526523e-07
-3.86172905e-07
-3.83915344e-07
-3.66600908e-07
-3.65768158e-07
-3.86382989e-07
-3.74232244e-07
-3.64315372e-07
-3.86268505e-07
-3.84397629e-07
-3.72431947e-07
-3.63930562e-07
-3.63810041e-07
-3.86720438e-07
-3.84046372e-07
-3.8482975e-07
-3.83681608e-07
-3.83788861e-07
-3.6942092e-07
-3.65279752e-07
-3.65021526e-07
-3.64747524e-07
-3.63398675e-07
-3.63378753e-07
-3.86463089e-07
-3.83992975e-07
-3.84330061e-07
-3.69117208e-07
-3.65501381e-07
-3.85853602e-07
-3.83833724e-07
-3.70289815e-07
-3.66027413e-07
-3.6500169e-07
-3.64809759e-07
-3.86094094e-07
-3.83946566e-07
-3.66249292e-07
-3.65276063e-07
-3.86547432e-07
-3.83664434e-07
-3.84325276e-07
-3.72336228e-07
-3.64633581e-07
-3.6447698e-07
-3.85963976e-07
-3.84140755e-07
-3.69680799e-07
-3.64675206e-07
-3.64553111e-07
-3.85722357e-07
-3.84128738e-07
-3.69160932e-07
-3.64640654e-07
-3.64541867e-07
-3.85772103e-07
-3.84111454e-07
-3.69301952e-07
-3.64674705e-07
-3.64535548e-07
-3.85616718e-07
-3.8392895e-07
-3.6877411e-07
-3.6545274e-07
-3.64582133e-07
-3.64496666e-07
-3.85937188e-07
-3.83725668e-07
-3.83994273e-07
-3.69454965e-07
-3.65754375e-07
-3.85552072e-07
-3.83617018e-07
-3.70943865e-07
-3.66323816e-07
-3.65296967e-07
-3.65239377e-07
-3.85477601e-07
-3.69804566e-07
-3.64564288e-07
-3.85834645e-07
-3.83985705e-07
-3.6685794e-07
-3.65059623e-07
-3.85861723e-07
-3.83934316e-07
-3.66837172e-07
-3.65017581e-07
-3.85771583e-07
-3.84171753e-07
-3.68471254e-07
-3.64231562e-07
-3.64063822e-07
-3.85981185e-07
-3.84058004e-07
-3.66595115e-07
-3.64807216e-07
-3.8607388e-07
-3.84004939e-07
-3.66730102e-07
-3.64958726e-07
-3.85883847e-07
-3.84204615e-07
-3.68511922e-07
-3.64367038e-07
-3.64187103e-07
-3.85912887e-07
-3.84072976e-07
-3.66742248e-07
-3.64938086e-07
-3.86063206e-07
-3.84023665e-07
-3.66785443e-07
-3.6497212e-07
-3.85896265e-07
-3.84254512e-07
-3.68396655e-07
-3.64187239e-07
-3.64016974e-07
-3.86098257e-07
-3.84095921e-07
-3.66530802e-07
-3.64777499e-07
-3.86226731e-07
-3.83964339e-07
-3.6652963e-07
-3.65029262e-07
-3.86108041e-07
)
;

boundaryField
{
    closed
    {
        type            calculated;
        value           uniform -5.12897056e-07;
    }
    open
    {
        type            calculated;
        value           nonuniform List<scalar> 0();
    }
    sides
    {
        type            empty;
    }
    procBoundary0to1
    {
        type            processor;
        value           uniform -3.83934202e-07;
    }
}


// ************************************************************************* //
