/*--------------------------------*- C++ -*----------------------------------*\
| =========                 |                                                 |
| \\      /  F ield         | OpenFOAM: The Open Source CFD Toolbox           |
|  \\    /   O peration     | Version:  2306                                  |
|   \\  /    A nd           | Website:  www.openfoam.com                      |
|    \\/     M anipulation  |                                                 |
\*---------------------------------------------------------------------------*/
FoamFile
{
    version     2.0;
    format      ascii;
    arch        "LSB;label=32;scalar=64";
    class       volScalarField;
    location    "0.00134";
    object      prefDh_H;
}
// * * * * * * * * * * * * * * * * * * * * * * * * * * * * * * * * * * * * * //

dimensions      [1 1 -3 0 0 0 0];

internalField   nonuniform List<scalar> 
530
(
24633.2711
23577.9821
23397.6393
23393.4952
23393.1322
23393.1173
23393.1163
23393.1163
23393.1163
23393.1163
23393.1163
23393.1163
23393.1163
23393.1163
23393.1163
23393.1163
23393.1163
23393.1163
23393.1163
23393.1163
23393.1163
23393.1163
23393.1163
23393.1163
23393.1163
23393.1163
23393.1163
23393.1163
23393.1163
23393.1163
23393.1163
23393.1163
23393.1163
23393.1163
23393.1163
23393.1163
23393.1163
23393.1163
23393.1163
23393.1163
23393.1163
23393.1163
23393.1163
23393.1163
23393.1163
23393.1163
23393.1163
23393.1163
23393.1163
23393.1163
23393.1163
23393.1163
23393.1163
23393.1163
23393.1163
23393.1163
23393.1163
23393.1163
23393.1163
23393.1163
23393.1163
23393.1163
23393.1163
23393.1164
23393.1165
23393.1171
23393.1172
23393.1215
23393.1217
23393.1416
23393.1446
23393.2192
23393.2337
23393.4101
23393.5087
23394.0376
23394.3454
23393.595
23393.0959
23397.8684
23408.2528
23396.1793
23382.539
23390.1932
23426.1704
23416.645
23253.2732
23195.9826
23716.442
23959.5682
23950.1719
23369.889
22882.2971
22895.4009
23654.5768
23952.9167
23932.1088
23371.0588
22876.4862
22900.6468
23866.8653
23938.6054
23922.7333
23949.2303
23406.8564
23135.8429
23172.9709
22945.4994
22950.3799
23884.5794
23949.5563
23945.3266
23400.8193
23314.5423
23876.6324
23964.3054
23567.4334
23381.6968
23217.6698
23163.3121
23161.1227
22935.5006
22941.1192
23861.7742
23954.363
23910.2968
23965.2567
23954.6532
23387.7677
23153.5214
23903.539
23952.5236
23430.1887
23230.5447
23196.559
22939.0391
22949.8037
23858.4806
23951.7271
23370.9779
23145.0627
23852.2305
23949.5798
23339.5653
23158.9779
23841.2334
23936.415
23892.3334
23932.1187
23404.2119
23161.1452
23181.9866
22899.6797
22908.5461
23842.6674
23938.4769
23270.3003
23096.0031
23852.1656
23934.765
23925.922
23300.2392
22969.1325
23853.008
23943.263
23308.1523
23088.0505
23850.6254
23943.7655
23384.2276
23181.9327
23858.8784
23925.6747
23474.4612
23121.0168
23121.9001
23859.5025
23952.2044
23408.0119
23210.4969
22989.5944
22999.7098
23855.3323
23950.6981
23348.543
23116.4923
23859.8306
23951.7235
23417.8096
23161.8392
23873.4196
23931.5688
23396.4143
23043.2106
23048.4645
23860.9493
23955.3324
23427.4631
23196.3105
23876.9745
23943.3207
23410.0371
23123.0883
23120.9127
23884.6681
23959.6035
23398.4134
23315.1423
23123.3309
23126.7974
23891.6558
23389.1624
23065.0614
23877.3985
23963.9041
23422.9976
23204.3616
23877.7399
23973.2386
23421.6597
23284.9415
23880.9886
23969.6153
23433.4274
23384.4516
23146.4317
23152.2516
23876.1482
23964.1307
23469.0299
23374.7053
23063.0371
23070.8253
23873.5568
23963.7662
23427.851
23209.7174
23872.8443
23960.8635
23422.7276
23203.1067
23883.6756
23938.8226
23390.7723
23002.2903
23013.9035
23859.5287
23964.0199
23390.7833
23119.5936
23868.6192
23964.8288
23414.5339
23143.916
23879.6387
23941.8966
23390.3276
23025.7448
23027.1195
23871.696
23956.3871
23423.5469
23169.773
23881.1621
23940.0424
23396.7655
23063.6057
23069.1549
23865.4204
23961.0776
23426.1819
23221.386
23878.5395
23960.2467
23398.1202
23263.3215
23085.0808
23081.5638
23888.8672
23933.7038
23394.0755
23172.3099
23176.2588
23858.2816
23920.7758
23422.7213
23005.0073
23013.2653
23840.6765
23928.9935
23901.212
23923.9855
23387.8146
22838.9811
22854.895
23854.1708
23922.652
23403.5973
22951.2273
22957.484
23857.3331
23935.8503
23437.2133
23133.2989
23874.2858
23926.0162
23394.9266
23009.0607
23017.1825
23861.5658
23950.0039
23432.9453
23148.4746
23878.4365
23937.5167
23395.9478
23063.5028
23068.7548
23876.2372
23929.0638
23414.1093
23106.6871
23110.5039
23873.141
23945.3845
23409.1154
23191.3488
22909.9816
22919.3367
23847.1054
23937.7963
23893.2627
23946.2165
23945.534
23335.2541
23154.5587
23873.6448
23385.2323
22854.645
23873.1714
23928.1728
23410.7719
23093.6327
23883.2919
23930.2457
23388.1944
22978.7987
22990.2333
23874.3899
23963.4925
23419.1692
23159.4138
23897.834
23959.1142
23386.1701
23211.2613
23232.7949
23921.013
23953.8026
23444.2248
23282.543
23277.6783
23895.6749
23961.8632
23401.8155
23325.6796
23252.014
23202.1481
22961.5197
22967.5138
23890.0637
23943.8538
23941.0807
23407.508
23271.1021
23887.585
23945.0809
23931.4071
23436.1489
23285.9026
23229.6247
23171.3222
22947.729
22953.4429
23874.1449
23950.7241
23294.6838
23169.6312
23878.8393
23949.9939
23937.3721
23408.6819
23114.3458
23882.5658
23959.6225
23421.3102
23178.0569
23885.693
23962.0089
23400.9001
23235.9771
23065.4671
23067.6053
23878.5565
23957.2998
23360.4138
23258.1281
23867.5806
23427.6538
23007.2293
23881.1066
23924.0977
23406.8867
22941.8098
22952.9232
23856.9317
23954.7367
23909.7846
23967.994
23949.6022
23372.5642
23181.1655
23146.6252
23094.7954
22867.8726
22871.3146
23879.0808
23932.3793
23929.1811
23406.3948
23208.8794
23882.523
23947.8737
23406.1199
23296.0019
23106.3425
23106.2689
23878.6781
23954.4343
23307.7939
23187.2234
23873.8685
23959.2617
23916.9348
23397.2405
23055.9847
23060.1773
23889.4215
23943.8716
23388.9223
23067.305
23068.2164
23900.5424
23943.5482
23386.6301
23061.9881
23069.4286
23896.2208
23945.8814
23385.8291
23069.0857
23070.4824
23903.0907
23959.0227
23392.0028
23211.8236
23059.8738
23059.9441
23906.0473
23952.2913
23948.9902
23391.9409
23262.5473
23907.5183
23963.1374
23393.5661
23349.1177
23173.9762
23173.4306
23914.1325
23388.5546
23068.6531
23895.6076
23960.3715
23414.0489
23155.8346
23895.017
23961.6832
23413.9914
23142.2868
23905.034
23941.4206
23382.9827
22989.6422
23001.3571
23877.7761
23960.8015
23365.2029
23115.7668
23882.9866
23957.6471
23389.3697
23129.6359
23894.6785
23935.6279
23390.2162
23005.6457
23013.161
23877.578
23954.3513
23384.4701
23131.2961
23880.2628
23952.8841
23396.4612
23128.4048
23894.2929
23932.0967
23389.9032
22974.3814
22989.0479
23867.8672
23956.8703
23348.288
23111.1117
23873.4908
23961.107
23348.9635
23149.3416
23878.0558
)
;

boundaryField
{
    closed
    {
        type            calculated;
        value           uniform 31779.1372;
    }
    open
    {
        type            calculated;
        value           nonuniform List<scalar> 0();
    }
    sides
    {
        type            empty;
    }
    procBoundary0to1
    {
        type            processor;
        value           uniform 23957.302;
    }
}


// ************************************************************************* //
