/*--------------------------------*- C++ -*----------------------------------*\
| =========                 |                                                 |
| \\      /  F ield         | OpenFOAM: The Open Source CFD Toolbox           |
|  \\    /   O peration     | Version:  2306                                  |
|   \\  /    A nd           | Website:  www.openfoam.com                      |
|    \\/     M anipulation  |                                                 |
\*---------------------------------------------------------------------------*/
FoamFile
{
    version     2.0;
    format      ascii;
    arch        "LSB;label=32;scalar=64";
    class       volScalarField;
    location    "0.00134";
    object      sourcePV;
}
// * * * * * * * * * * * * * * * * * * * * * * * * * * * * * * * * * * * * * //

dimensions      [1 -3 -1 0 0 0 0];

internalField   nonuniform List<scalar> 
530
(
0.0528758697
0.0807038236
0.0816818701
0.0815439835
0.0815307651
0.0815304541
0.0815304432
0.0815304428
0.0815304428
0.0815304428
0.0815304428
0.0815304428
0.0815304428
0.0815304428
0.0815304428
0.0815304428
0.0815304428
0.0815304428
0.0815304428
0.0815304428
0.0815304428
0.0815304428
0.0815304428
0.0815304428
0.0815304428
0.0815304428
0.0815304428
0.0815304428
0.0815304428
0.0815304428
0.0815304428
0.0815304428
0.0815304428
0.0815304428
0.0815304428
0.0815304428
0.0815304428
0.0815304428
0.0815304428
0.0815304428
0.0815304428
0.0815304428
0.0815304428
0.0815304428
0.0815304428
0.0815304428
0.0815304428
0.0815304428
0.0815304428
0.0815304428
0.0815304428
0.0815304428
0.0815304428
0.0815304428
0.0815304428
0.0815304428
0.0815304428
0.0815304428
0.0815304428
0.0815304428
0.0815304428
0.0815304429
0.081530443
0.081530444
0.0815304448
0.0815304522
0.0815304549
0.0815305014
0.081530488
0.0815308134
0.0815308634
0.0815305009
0.081532512
0.0815412786
0.081537195
0.0814659227
0.0814461388
0.0819620473
0.0825368821
0.0805622967
0.0771652637
0.0816492169
0.0929755045
0.0846587835
0.0739945924
0.0749411295
0.143295614
0.14764585
0.0186664116
0.00608416344
0.00599387041
0.104624412
0.177524481
0.175967643
0.0257799054
0.00591475954
0.00506772964
0.119417696
0.178049102
0.175666932
0.00340422149
0.0055600294
0.00544763274
0.00579707483
0.0817522194
0.153571749
0.149800059
0.171629759
0.170926283
0.00311529395
0.00606495693
0.00601211644
0.114181095
0.136286334
0.00308202527
0.00642336251
0.0393597184
0.12753584
0.146198353
0.150980022
0.151185784
0.172616927
0.171816193
0.00267111508
0.00581958571
0.00488617494
0.00618418327
0.00611201672
0.123996076
0.151802133
0.00328226018
0.00596489683
0.0725443678
0.14488015
0.147796658
0.172411424
0.171021233
0.00287418955
0.00571064836
0.132820081
0.152773404
0.00285115977
0.00587485147
0.136019126
0.151630741
0.00232706841
0.00572886573
0.00489199322
0.00573034814
0.0899674045
0.152002714
0.149478067
0.175997523
0.174920835
0.00260934821
0.00555006161
0.142528299
0.157639893
0.00224855868
0.00582272903
0.00549035299
0.138784293
0.169392615
0.00241793586
0.005553578
0.138699405
0.15828011
0.00264720269
0.00577370457
0.131476362
0.149673187
0.00283316869
0.0057630943
0.0599726805
0.155871146
0.155101005
0.00286602224
0.00589552464
0.110121793
0.146574163
0.167896189
0.166435239
0.00268017065
0.00570823823
0.134628382
0.15544043
0.00277570446
0.00582811965
0.127838143
0.151394954
0.00310531473
0.005681646
0.0963007299
0.163066145
0.161868167
0.00308701071
0.00586232589
0.122728904
0.147882245
0.00319309315
0.00588890088
0.0835094424
0.155432971
0.155008183
0.00338793821
0.0061073313
0.0948397811
0.136182754
0.155314574
0.154583012
0.00349585395
0.100036529
0.160411699
0.00308653907
0.00594280387
0.12536111
0.146591606
0.00318415813
0.00621576726
0.124046404
0.138770633
0.00329618297
0.00643614729
0.0736778191
0.126815699
0.153473433
0.151862881
0.0033602469
0.00627441632
0.0615998582
0.129561622
0.161238616
0.159528298
0.00326091653
0.00597757214
0.125131481
0.146315893
0.00318280328
0.00604568127
0.122948346
0.147258181
0.00332242792
0.0057432537
0.0974940474
0.166691401
0.164924851
0.00289338692
0.0058145238
0.130368645
0.154824744
0.00287104459
0.00590878776
0.127853323
0.152775443
0.00310072611
0.0057107503
0.101688163
0.164550894
0.16382546
0.00320375055
0.00582925339
0.123240085
0.15042517
0.00320151079
0.00577298205
0.0919044248
0.161091925
0.159813775
0.00312502499
0.00595184043
0.122261905
0.145229857
0.00328257078
0.00611250746
0.106367676
0.141438702
0.15899792
0.158956961
0.00337054529
0.00577123343
0.10195665
0.151265486
0.150202905
0.00358526584
0.00570812946
0.0807064746
0.166586077
0.165396527
0.00224889706
0.00537043949
0.00489690775
0.00527896269
0.10888925
0.18130266
0.179768635
0.0028396146
0.00525499432
0.111522873
0.171438755
0.170525453
0.00326205294
0.00560456395
0.125002177
0.154306844
0.00328419798
0.00558523667
0.107325467
0.166221726
0.164849181
0.00326962656
0.00576452639
0.124880701
0.152567943
0.00334435857
0.00573228671
0.106264909
0.161133385
0.160203292
0.00349942702
0.00570410478
0.083240986
0.157185214
0.156210391
0.00342418643
0.00585339186
0.113064868
0.148700387
0.175040981
0.173965407
0.00215788737
0.00551562389
0.00435404825
0.00579839256
0.00580936175
0.134778357
0.15181917
0.00268712266
0.116377951
0.179905979
0.0029697238
0.0054123187
0.128273441
0.158001335
0.00332351216
0.00554873714
0.109686245
0.168839045
0.167171567
0.00334402658
0.00585026295
0.127097123
0.151084002
0.00347848291
0.006037083
0.100134331
0.146722679
0.144476484
0.00480759856
0.00633673593
0.0681504735
0.139925862
0.13994982
0.00395407995
0.00635421545
0.0877922097
0.134874994
0.142670869
0.147096047
0.170199359
0.16943359
0.00322402085
0.0060158326
0.0058310119
0.12037525
0.14089359
0.00342602252
0.00622862811
0.00591711224
0.0714118842
0.139158246
0.14526137
0.150182322
0.171603821
0.170722859
0.00321324797
0.00577121622
0.139570478
0.150391219
0.00281092154
0.00618051887
0.00562197797
0.123480275
0.155653674
0.0033620112
0.0059231137
0.127142264
0.14940575
0.00348468931
0.00607373138
0.111572243
0.143903031
0.160888064
0.160005116
0.0033670754
0.0059947274
0.133427142
0.141961867
0.00312378344
0.0741349041
0.166145718
0.00324905047
0.00544275783
0.0859993845
0.172118575
0.170740364
0.00272518742
0.00584345899
0.0049441182
0.00626392778
0.00614083886
0.106607426
0.149376452
0.152471583
0.157641801
0.178673851
0.178326728
0.00301489009
0.00590877712
0.00551958875
0.10993206
0.146988429
0.00374789727
0.00608943803
0.101291146
0.138413571
0.157275753
0.156516499
0.00346208658
0.00595886286
0.138322179
0.148554587
0.00291748235
0.00628328423
0.00552958738
0.0864954567
0.161721394
0.160695692
0.0036093299
0.00573560417
0.105217482
0.160583693
0.160036118
0.00389084003
0.00574958444
0.108953029
0.161070509
0.159848132
0.00383441948
0.00576920404
0.107892348
0.160379188
0.159696942
0.00401550259
0.00597895032
0.111982755
0.146303995
0.161113406
0.16079791
0.00362870242
0.00621320151
0.00590429643
0.106965613
0.141239541
0.00408979409
0.00633773161
0.0962075249
0.132866898
0.150396663
0.150162943
0.00417459585
0.104303062
0.160027449
0.00375983254
0.00591330922
0.127531573
0.151480534
0.00372776555
0.00597267782
0.127351209
0.153005715
0.00382859474
0.00570014906
0.113912599
0.167805704
0.16608687
0.00359891296
0.00582958226
0.132686402
0.155328604
0.00348251059
0.00589119251
0.130195626
0.154311227
0.00370144123
0.0056633676
0.113861432
0.166436948
0.16513328
0.00368117999
0.00581268788
0.131027022
0.154004106
0.00349785705
0.0058699041
0.129593577
0.154526533
0.003686816
0.00560644139
0.114704601
0.16928418
0.16733132
0.00346762249
0.00578587575
0.134637601
0.155771896
0.0033069266
0.00593799274
0.134532767
0.152161841
0.00344584924
)
;

boundaryField
{
    closed
    {
        type            calculated;
        value           uniform 0;
    }
    open
    {
        type            calculated;
        value           nonuniform List<scalar> 0();
    }
    sides
    {
        type            empty;
    }
    procBoundary0to1
    {
        type            processor;
        value           uniform 0;
    }
}


// ************************************************************************* //
