/*--------------------------------*- C++ -*----------------------------------*\
| =========                 |                                                 |
| \\      /  F ield         | OpenFOAM: The Open Source CFD Toolbox           |
|  \\    /   O peration     | Version:  2306                                  |
|   \\  /    A nd           | Website:  www.openfoam.com                      |
|    \\/     M anipulation  |                                                 |
\*---------------------------------------------------------------------------*/
FoamFile
{
    version     2.0;
    format      ascii;
    arch        "LSB;label=32;scalar=64";
    class       volScalarField;
    location    "0.00032";
    object      H;
}
// * * * * * * * * * * * * * * * * * * * * * * * * * * * * * * * * * * * * * //

dimensions      [0 0 0 0 0 0 0];

internalField   nonuniform List<scalar> 
531
(
4.43781975e-08
1.81473432e-08
1.10865655e-09
7.72583011e-09
4.28550345e-08
3.31241501e-08
1.05243488e-09
3.93649532e-09
4.31835559e-08
4.19096007e-08
1.31354602e-08
1.01589317e-09
1.5451647e-08
4.64147961e-08
3.89073435e-08
7.86204533e-10
7.44844249e-10
3.07972981e-08
4.4537835e-08
3.0432829e-08
1.01371143e-09
7.28872775e-10
4.01460172e-08
4.2381972e-08
1.68030171e-08
1.00947231e-09
1.61977515e-08
4.56766048e-08
3.26571974e-08
1.12541091e-09
7.28918508e-10
3.80579012e-08
4.33046394e-08
2.02465114e-08
1.14987171e-09
3.75715061e-09
4.4722462e-08
4.44257325e-08
2.11026917e-08
1.13485584e-09
3.48624318e-09
4.37366835e-08
4.18313444e-08
5.513614e-09
8.93548652e-10
2.66369666e-08
4.56755148e-08
3.00511959e-08
1.15851603e-09
7.66020404e-10
4.16248796e-08
4.13855585e-08
2.37185383e-09
8.24897403e-10
3.21841647e-08
4.58955151e-08
2.90473288e-08
1.18061523e-09
8.5332113e-10
3.54417913e-08
4.5466457e-08
2.86280815e-08
1.1944076e-09
8.43256722e-10
3.79028803e-08
4.51823293e-08
2.61972526e-08
1.18419954e-09
6.28064817e-10
4.31813604e-08
4.15475037e-08
7.62201074e-10
8.14749963e-10
3.69509939e-08
4.43463715e-08
1.5862279e-08
9.5796182e-10
2.29133966e-08
4.5133268e-08
2.93107062e-08
1.10252557e-09
2.8252088e-09
4.52798189e-08
3.74545505e-08
1.11720075e-09
8.0150765e-10
3.89901325e-08
4.59790168e-08
2.67683223e-08
1.18034747e-09
6.84671721e-10
4.1721096e-08
3.93189685e-08
9.89794509e-10
8.2036653e-10
4.00886735e-08
4.62878886e-08
2.70066306e-08
1.18265948e-09
6.99434821e-10
4.20204212e-08
3.96424939e-08
9.72717201e-10
7.64628112e-10
4.29482692e-08
4.29760092e-08
3.93147135e-09
9.87032368e-10
2.77625267e-08
4.42579139e-08
2.4910813e-08
5.73068784e-10
1.6789292e-08
3.23205826e-08
2.65041304e-08
2.35270698e-08
2.92453031e-08
2.21261228e-08
2.9836336e-09
1.76629527e-08
4.10774673e-08
3.34826734e-08
1.05711428e-09
8.79081601e-10
3.9750645e-08
4.14667766e-08
9.83883657e-09
9.25891837e-10
3.00996084e-08
4.26614973e-08
2.7152331e-08
1.14833923e-09
4.99486723e-10
4.58983689e-08
4.24771285e-08
9.15213568e-10
9.44823078e-10
3.08928681e-08
4.61662823e-08
3.14517467e-08
1.1993053e-09
9.87361656e-10
3.92121774e-08
4.34145146e-08
1.08308176e-08
1.01884997e-09
2.3306138e-08
4.6528904e-08
3.42041872e-08
1.14646378e-09
9.70136868e-10
3.9859762e-08
4.24926962e-08
5.720566e-10
9.30517906e-10
3.33544471e-08
4.61412545e-08
2.8300858e-08
1.14152109e-09
6.23292872e-10
4.51824323e-08
4.1037254e-08
9.95675991e-10
8.97823939e-10
3.79506159e-08
4.39912278e-08
1.31348941e-08
9.9876645e-10
2.33646408e-08
4.63149392e-08
3.3542318e-08
1.16561101e-09
9.6113274e-10
3.53558197e-08
4.49341216e-08
2.49811103e-08
1.11218226e-09
3.86490549e-09
4.62054492e-08
4.04266402e-08
1.05318604e-09
8.85387001e-10
3.74678987e-08
4.30313706e-08
8.02240374e-09
9.5674686e-10
2.79551067e-08
4.67326754e-08
3.27259925e-08
1.18119899e-09
1.00104598e-09
3.66388974e-08
4.14722134e-08
6.44733398e-09
1.09196113e-09
2.66518452e-08
3.81488198e-08
2.54590545e-08
1.86350487e-08
2.15126857e-08
2.25089708e-08
2.58588898e-08
3.49199615e-08
2.77690684e-08
1.25398165e-09
6.16131813e-10
4.30347305e-08
4.15971624e-08
2.52039128e-09
9.39310882e-10
2.93744301e-08
4.54860717e-08
2.93760267e-08
1.21413588e-09
8.56465497e-10
3.82258283e-08
4.47432639e-08
2.49147808e-08
1.16081722e-09
4.92788375e-10
4.37432778e-08
4.31610028e-08
1.37934879e-08
1.01755474e-09
1.76297999e-08
4.56551955e-08
3.53654818e-08
9.97110841e-10
8.31418606e-10
3.4427624e-08
4.47616246e-08
2.40828075e-08
1.12529048e-09
4.08806179e-09
4.48376473e-08
4.16832442e-08
7.13354561e-10
8.13353744e-10
3.40919395e-08
4.2539823e-08
8.46813106e-09
8.36923581e-10
3.15304563e-08
4.4201345e-08
1.81199787e-08
9.65651332e-10
1.99369884e-08
4.62307473e-08
3.69880415e-08
8.12251767e-10
9.04364528e-10
3.09377955e-08
4.25193548e-08
1.10139404e-08
8.17794177e-10
3.29427591e-08
4.24273675e-08
9.90633222e-09
8.61707658e-10
2.88587145e-08
4.64911065e-08
3.40024165e-08
9.67185143e-10
9.39218725e-10
3.11920516e-08
4.22573657e-08
1.15319757e-08
8.48492813e-10
3.14201071e-08
4.31838496e-08
1.18285708e-08
8.75475736e-10
2.86668073e-08
4.40637501e-08
2.07748453e-08
1.05086289e-09
1.58335047e-08
3.81888029e-08
2.74767713e-08
1.50095093e-08
2.86690923e-08
3.4889463e-08
1.0336217e-08
9.32819022e-10
2.80577961e-08
4.39697872e-08
2.57196918e-08
1.118931e-09
6.20653895e-10
4.23983741e-08
4.31118583e-08
1.99782811e-08
1.14626061e-09
5.08335856e-10
4.42595561e-08
4.46836722e-08
3.08423667e-08
8.65894812e-10
9.51081366e-10
2.9912339e-08
4.06259227e-08
1.16092657e-08
8.05250491e-10
3.0125703e-08
4.61927483e-08
3.38492799e-08
9.15574175e-10
8.89777879e-10
3.04851332e-08
4.12269255e-08
1.09203039e-08
7.87452283e-10
3.061513e-08
4.44042838e-08
2.28773489e-08
1.13440839e-09
3.25001671e-09
3.8062269e-08
3.84043551e-08
3.25222533e-08
2.04446045e-08
1.08212016e-09
7.36448214e-09
4.27844678e-08
4.00199235e-08
5.26899161e-09
8.13231889e-10
2.86715289e-08
4.24496518e-08
1.74338466e-08
9.24673194e-10
2.04954718e-08
4.40911456e-08
3.09669603e-08
9.17097558e-10
4.7900872e-09
3.28064676e-08
3.16943409e-08
2.71889073e-08
3.06443212e-08
1.91560961e-08
9.52550293e-10
1.6836057e-08
4.37155018e-08
3.65071814e-08
1.42146235e-09
7.86754744e-10
2.8538586e-08
4.26314404e-08
1.78781399e-08
9.06469393e-10
2.01792014e-08
4.42306754e-08
3.66654906e-08
4.66499027e-09
7.76381749e-10
2.8003072e-08
4.18134599e-08
1.58357898e-08
8.19844779e-10
2.44382587e-08
4.48732262e-08
3.52003903e-08
2.19375517e-09
8.10816529e-10
2.7568145e-08
4.05709773e-08
1.40931986e-08
7.68498916e-10
2.71487724e-08
4.47145165e-08
3.45728177e-08
5.18076672e-10
7.56202676e-10
2.93965336e-08
4.25235042e-08
1.65587021e-08
9.00514533e-10
2.04561197e-08
4.42425859e-08
3.65389616e-08
4.79211955e-09
7.65249626e-10
2.81249739e-08
4.18262626e-08
1.55276713e-08
8.30278445e-10
2.40797907e-08
4.4727777e-08
3.57359303e-08
3.50112789e-09
7.80613003e-10
2.77368265e-08
4.16044186e-08
1.55672245e-08
7.41589265e-10
2.74629907e-08
4.18283088e-08
1.32564492e-08
5.56526908e-10
3.33075965e-08
4.10957425e-08
6.84241737e-09
7.72065342e-10
3.76896516e-08
4.12364295e-08
9.59590319e-09
7.56635199e-10
2.74753645e-08
4.21873152e-08
1.59302279e-08
7.61999827e-10
2.73877622e-08
4.20121422e-08
1.64976943e-08
8.1250568e-10
2.48159369e-08
4.4179843e-08
2.57904404e-08
9.06033319e-10
1.21990281e-08
4.35668375e-08
3.37922096e-08
7.58230105e-10
3.65280511e-09
4.22910747e-08
4.10273145e-08
9.8634985e-09
8.23838647e-10
2.46307026e-08
4.24014737e-08
1.82859867e-08
7.98051244e-10
2.56617905e-08
4.27592232e-08
1.96119145e-08
9.68366622e-10
1.75469805e-08
4.42391436e-08
3.88847211e-08
8.73260078e-09
8.77870473e-10
2.33731452e-08
4.18817771e-08
1.94274889e-08
9.59275584e-10
1.93917733e-08
4.37460558e-08
3.77392895e-08
6.68215225e-09
8.83805421e-10
2.39298359e-08
4.42013561e-08
3.65218238e-08
3.68352139e-09
9.11689092e-10
2.44096835e-08
4.22586803e-08
1.9605729e-08
8.38209494e-10
2.51885339e-08
4.43054461e-08
2.3712572e-08
1.05090871e-09
1.04205887e-08
4.41189872e-08
4.13490339e-08
1.1274118e-08
8.95541976e-10
2.19103692e-08
4.33814151e-08
2.12386029e-08
8.78633855e-10
2.31621387e-08
4.3325148e-08
2.08325964e-08
9.08132128e-10
2.25276097e-08
4.28535152e-08
2.34906372e-08
1.12552197e-09
1.24568967e-08
3.68349839e-08
3.04398242e-08
2.08650347e-08
2.37120364e-08
1.97280278e-08
1.64623072e-08
3.16001273e-08
3.60148201e-08
1.53559768e-08
1.06192983e-09
1.88871635e-08
4.38060903e-08
2.73649158e-08
1.14233205e-09
5.66350918e-09
4.36773026e-08
4.29003316e-08
1.59845823e-08
1.0197632e-09
1.44842617e-08
4.33387715e-08
1.83348805e-08
6.57410656e-10
3.73562166e-08
4.34511925e-08
1.75561935e-08
1.06908938e-09
1.35953101e-08
4.22851235e-08
2.52473053e-08
1.05563932e-09
1.66604319e-08
4.40012454e-08
3.98755071e-08
8.15251472e-09
1.03161192e-09
1.91428592e-08
4.45378479e-08
4.11663108e-08
1.26658497e-08
1.08595999e-09
1.430247e-08
4.27853106e-08
2.64472596e-08
1.06068472e-09
1.62947613e-08
4.38625007e-08
2.59725735e-08
1.03338903e-09
)
;

boundaryField
{
    closed
    {
        type            calculated;
        value           nonuniform List<scalar> 0();
    }
    open
    {
        type            calculated;
        value           nonuniform List<scalar> 0();
    }
    sides
    {
        type            empty;
    }
    procBoundary1to0
    {
        type            processor;
        value           uniform 4.53519285e-08;
    }
    procBoundary1to2
    {
        type            processor;
        value           uniform 1.8017813e-08;
    }
}


// ************************************************************************* //
