/*--------------------------------*- C++ -*----------------------------------*\
| =========                 |                                                 |
| \\      /  F ield         | OpenFOAM: The Open Source CFD Toolbox           |
|  \\    /   O peration     | Version:  2306                                  |
|   \\  /    A nd           | Website:  www.openfoam.com                      |
|    \\/     M anipulation  |                                                 |
\*---------------------------------------------------------------------------*/
FoamFile
{
    version     2.0;
    format      ascii;
    arch        "LSB;label=32;scalar=64";
    class       volScalarField;
    location    "0.00072";
    object      h;
}
// * * * * * * * * * * * * * * * * * * * * * * * * * * * * * * * * * * * * * //

dimensions      [0 2 -2 0 0 0 0];

internalField   nonuniform List<scalar> 
530
(
-197555.887
-217019.559
-213804.682
-188226.548
-189540.69
-206755.982
-208873.786
-187564.095
-181947.231
-188748.133
-201645.994
-191519.857
-175292.294
-176162.963
-194505.302
-193019.198
-169469.537
-171011.161
-188504.634
-188193.366
-164118.459
-166673.742
-183142.653
-182600.069
-159495.273
-162607.213
-178208.04
-177320.273
-155389.497
-158674.059
-173144.212
-172224.645
-151386.416
-154664.788
-168080.683
-167209.875
-147406.793
-150545.39
-163085.246
-162281.649
-143391.731
-146333.804
-158159.025
-157429.737
-139341.908
-142057.778
-153266.503
-152604.869
-135207.094
-137734.901
-148344.943
-147831.998
-131042.006
-133370.118
-143479.51
-143045.693
-126841.383
-128959.011
-138697.241
-138284.923
-122588.478
-124538.814
-133968.171
-133566.785
-118234.349
-120103.645
-129291.619
-128897.669
-113792.619
-115622.063
-124694.748
-124239.457
-109228.59
-111052.049
-119988.429
-119529.258
-104524.311
-106330.838
-115188.085
-114640.791
-99801.071
-101567.489
-110325.688
-109701.585
-95187.4351
-96891.4497
-105477.54
-104811.38
-90657.0915
-92370.6871
-100627.507
-99940.851
-86241.9999
-87924.3094
-95927.9713
-95099.2714
-81939.1158
-83566.2813
-91284.2554
-90445.7744
-77713.9851
-79244.447
-86600.5932
-85897.3651
-73628.7289
-74883.9832
-81802.2589
-81366.5352
-69732.5162
-70445.8796
-77144.2228
-76676.9684
-65755.5473
-66559.4917
-72726.2728
-70632.0651
-61699.188
-64411.8426
-68563.9404
-64184.2608
-57730.4219
-63020.8983
-64509.6263
-58368.2273
-53881.1094
-60405.3898
-60614.3992
-53758.7056
-50116.8182
-56856.8187
-56814.8706
-49721.8064
-46494.2047
-53162.7122
-53140.6497
-46067.072
-43032.9319
-49543.2484
-49561.8028
-42618.4837
-39673.6635
-46038.0366
-46011.9435
-39308.4593
-36439.445
-42576.7401
-42571.3358
-36130.963
-33341.4763
-39221.7548
-39267.4595
-33098.1333
-30381.0907
-36003.8244
-36102.0975
-30198.7764
-27558.968
-32932.2559
-33083.2283
-27429.9111
-24868.4497
-30013.9093
-30214.8516
-24790.1193
-22327.441
-27264.9441
-27546.5601
-22290.3017
-19945.3349
-24698.5673
-25064.6484
-19923.6549
-17713.2858
-22303.9016
-22731.0256
-17715.3413
-15613.2264
-20070.1797
-20527.535
-15644.62
-13649.8302
-17972.0569
-18429.6931
-13709.4857
-11825.5739
-16003.6181
-16445.1289
-11903.724
-10140.4744
-14165.3741
-14578.1398
-10233.4861
-8585.71212
-12490.5005
-12836.7346
-8679.78276
-7155.95617
-10936.4766
-11237.201
-7245.32834
-5856.26209
-9502.52116
-9769.99671
-5935.51039
-4671.14251
-8183.73816
-8416.70293
-4744.57998
-3594.57745
-6974.02559
-7170.53912
-3662.37491
-2619.34237
-5867.56987
-6029.05409
-2681.25327
-1738.07618
-4860.08427
-4989.01959
-1795.88933
-943.382087
-3947.05793
-4038.72322
-1000.96801
-233.627663
-3122.75979
-3213.56608
-293.101358
368.807429
-2381.90697
-2476.01086
331.500671
893.605886
-1718.17002
-1808.94248
880.853761
1337.38141
-1125.99578
-1208.3355
1362.08039
1702.66965
-602.36993
-667.920598
1780.96955
1993.76723
-142.487952
-178.931136
2147.1685
2211.24043
251.384997
260.285317
2484.4646
2367.04446
544.778967
616.88286
2796.4869
2478.51732
830.943219
950.148661
3015.79278
2657.93382
1081.19904
1219.79108
3155.31913
2802.24258
1329.90627
1454.33234
3254.36516
2918.57061
1541.52787
1655.86089
3330.00654
3007.37948
1720.15178
1825.26363
3384.87254
3080.42976
1868.8667
1966.02498
3416.12098
3130.75218
1991.37461
2081.42872
3442.8702
3165.64509
2091.06446
2173.17808
3448.05308
3196.13922
2170.64174
2241.09762
3442.45381
3206.50594
2241.97556
2292.87794
3428.53862
3215.3737
2288.62001
2330.74049
3407.60035
3215.4651
2323.25948
2357.1821
3378.0178
3206.24496
2347.65319
2375.52295
3345.74885
3187.11378
2362.82459
2387.54847
3310.26728
3161.39552
2371.36113
2393.13695
3269.06151
3132.529
2377.02244
2393.25438
3219.36267
3101.95092
2379.9077
2390.06869
3166.42635
3064.90333
2380.18646
2385.49756
3115.00233
3022.35767
2377.35227
2380.67873
3063.25661
2975.73066
2372.37032
2375.44229
3013.44819
2926.39447
2366.70349
2369.37347
2963.08906
2879.64383
2362.23617
2360.04353
2907.19937
2840.76671
2364.90561
2353.26966
2835.11752
2808.88302
2375.59269
2342.05272
2768.11415
2771.46232
2378.24579
2332.20161
2705.83344
2732.29384
2378.11981
2324.38873
2652.37407
2693.2617
2374.94943
2318.10862
2605.74481
2655.85458
2370.20284
2312.78115
2565.0691
2620.695
2364.54508
2307.98459
2529.73064
2588.01378
2358.34296
2303.58369
2498.99318
2557.95067
2351.9142
2299.49798
2472.1862
2530.48731
2345.4814
2295.72953
2448.73761
2505.45893
2339.18684
2292.33859
2428.16141
2482.60073
2333.10444
2289.43436
2410.06068
2461.64963
2327.24339
2287.1886
2394.19079
2442.46749
2321.51759
2286.25741
2380.46277
2424.39071
2315.59565
2289.2063
2369.2866
2402.65262
2308.67885
2307.69329
2361.23315
2365.25983
2301.3426
2340.0379
2354.97232
2301.77623
2295.00872
2352.38618
2349.74223
2289.45207
2289.76284
2353.3893
2345.34061
2283.62714
2286.2069
2348.43745
2339.48199
2281.20869
2283.94306
2341.78236
2333.14457
2279.78966
2282.45803
2334.93612
2326.83091
2278.92565
2281.4755
2328.36139
2320.8362
2278.55826
2280.90745
2322.08873
2315.19145
2278.99799
2280.95322
2315.61502
2309.56878
2281.85752
2282.17138
2307.40068
2303.28931
2289.2131
2286.83917
2292.14661
2294.27909
2295.10204
2291.12649
2291.93187
2290.56384
2293.5957
2291.01367
2291.6208
2289.3726
2290.16694
2287.94863
2288.32531
2286.27867
2286.38552
2284.57143
2284.42522
2282.89418
2282.53528
2281.30386
2280.80579
2279.24247
2278.41537
2277.20105
2276.4771
2275.73571
2275.22021
2274.79337
2274.48599
2274.26553
2274.11369
2274.01705
2273.9569
2273.92342
2273.90564
2273.89756
2273.89441
2273.89365
2273.8937
2273.89398
2273.89424
2273.89443
2273.89453
2273.89458
2273.8946
2273.89461
2273.89461
2273.89461
2273.89461
2273.89461
2273.89461
2273.89461
2273.89461
2273.89461
2273.89461
2273.89461
2273.89461
2273.89461
2273.89461
2273.89461
2273.89461
2273.89461
2273.89461
2273.89461
2273.89461
2273.89461
2273.89461
2273.89461
2273.89461
2273.89461
2273.89461
2273.89461
2273.89461
2273.89461
2273.89461
2273.89461
2273.89461
2273.89461
2273.89461
2273.89461
)
;

boundaryField
{
    closed
    {
        type            lookUpEnthalpy;
        h0              nonuniform List<scalar> 0();
        value           nonuniform List<scalar> 0();
    }
    open
    {
        type            zeroGradient;
    }
    sides
    {
        type            empty;
    }
    procBoundary5to4
    {
        type            processor;
        value           uniform -189022.65;
    }
}


// ************************************************************************* //
