/*--------------------------------*- C++ -*----------------------------------*\
| =========                 |                                                 |
| \\      /  F ield         | OpenFOAM: The Open Source CFD Toolbox           |
|  \\    /   O peration     | Version:  2306                                  |
|   \\  /    A nd           | Website:  www.openfoam.com                      |
|    \\/     M anipulation  |                                                 |
\*---------------------------------------------------------------------------*/
FoamFile
{
    version     2.0;
    format      ascii;
    arch        "LSB;label=32;scalar=64";
    class       volScalarField;
    location    "0.00072";
    object      prefDZ_H;
}
// * * * * * * * * * * * * * * * * * * * * * * * * * * * * * * * * * * * * * //

dimensions      [1 -1 -1 0 0 0 0];

internalField   nonuniform List<scalar> 
530
(
0.000341592995
0.000343393199
0.000343804103
0.000341996759
0.000342073672
0.00034433794
0.000344158547
0.000343034839
0.000342786534
0.00034398407
0.000344856578
0.000344803117
0.000343494237
0.000343731694
0.00034557444
0.000345766082
0.000344143333
0.000344279929
0.000346108828
0.000346054474
0.000344720991
0.000344864309
0.000346556444
0.0003465619
0.000345249379
0.000345406014
0.000346946968
0.000347048449
0.000345708722
0.000345938418
0.000347386344
0.000347512805
0.000346184987
0.000346422494
0.000347845224
0.000347974343
0.000346675048
0.000346907738
0.000348310873
0.000348433709
0.000347175281
0.00034739978
0.000348782627
0.00034889786
0.000347684762
0.000347899115
0.000349268674
0.000349374523
0.000348197001
0.000348406157
0.000349777165
0.000349858125
0.000348719837
0.000348919538
0.000350294717
0.000350361054
0.000349269756
0.000349446349
0.000350817568
0.000350879206
0.000349823478
0.000349991862
0.00035134852
0.000351409267
0.000350382621
0.000350547786
0.000351886607
0.000351948118
0.000350947242
0.000351117957
0.000352425158
0.000352496801
0.00035151319
0.000351704484
0.000352993015
0.000353064527
0.000352112188
0.000352302365
0.000353592436
0.000353676732
0.000352752433
0.000352962409
0.000354221945
0.000354317752
0.000353409279
0.00035363598
0.000354870816
0.000354971781
0.000354078376
0.000354324432
0.000355535462
0.000355641332
0.000354772818
0.000355025788
0.000356191072
0.000356322177
0.000355462677
0.000355738256
0.000356852144
0.000356985701
0.000356149691
0.000356407401
0.000357538019
0.000357644354
0.000356863208
0.000357084019
0.000358263603
0.000358320662
0.000357606717
0.000357752686
0.000358964506
0.00035905169
0.000358335711
0.000358505819
0.00035962913
0.000359917491
0.000359051577
0.000359508474
0.000360265933
0.00036015556
0.000359716197
0.000360659745
0.000360899437
0.000360496934
0.000360372179
0.000361615646
0.000361516816
0.000361032823
0.000361011285
0.000362251286
0.000362127495
0.000361627862
0.000361642444
0.00036284541
0.000362728426
0.000362249745
0.000362264108
0.000363443441
0.000363324175
0.00036287059
0.000362873707
0.000364033436
0.000363924349
0.000363482825
0.000363492253
0.00036462551
0.000364515405
0.000364095601
0.000364095178
0.000365209502
0.00036509115
0.000364692182
0.000364679008
0.000365775521
0.000365648763
0.000365269042
0.000365242652
0.000366323683
0.000366188614
0.000365824468
0.000365785777
0.00036685145
0.000366708861
0.000366357227
0.000366308489
0.000367354536
0.000367200749
0.000366869972
0.00036681107
0.000367829534
0.000367664955
0.000367359885
0.000367279649
0.000368278589
0.000368107901
0.000367820971
0.000367725698
0.000368703673
0.000368533141
0.000368257412
0.000368153137
0.000369106271
0.000368944472
0.000368673758
0.000368562687
0.000369487319
0.000369336635
0.000369069257
0.000368954395
0.000369848672
0.000369711755
0.000369444064
0.000369326895
0.000370183287
0.000370067598
0.00036979714
0.000369680098
0.000370499258
0.000370399469
0.00037012918
0.000370019486
0.000370796619
0.000370708932
0.000370442178
0.000370339298
0.000371075852
0.000370999754
0.000370736634
0.000370640085
0.000371337469
0.000371273082
0.000371012635
0.000370921794
0.000371582038
0.000371528865
0.000371270249
0.000371184362
0.000371809911
0.000371767146
0.000371509819
0.000371428317
0.000372021507
0.000371989449
0.000371732013
0.000371656061
0.000372217513
0.000372188305
0.000371937734
0.000371870453
0.000372398684
0.000372370519
0.00037212797
0.000372071258
0.000372565675
0.000372539499
0.000372303923
0.000372260126
0.000372719174
0.000372695793
0.000372466316
0.000372438109
0.000372859667
0.000372840176
0.000372615118
0.000372606804
0.000372987405
0.000372973915
0.000372748813
0.00037276881
0.000373102193
0.000373095938
0.00037286177
0.000372921505
0.000373196268
0.000373200285
0.000372954765
0.000373065291
0.000373288295
0.000373301089
0.000373054957
0.000373168707
0.000373370733
0.000373390015
0.000373158807
0.000373266379
0.000373453048
0.000373470705
0.000373255528
0.000373355002
0.00037352741
0.000373543565
0.000373341772
0.000373435924
0.000373594103
0.000373608584
0.000373418563
0.000373506288
0.000373653409
0.000373666452
0.000373488773
0.000373569823
0.000373706179
0.000373717495
0.000373548208
0.000373626028
0.000373752828
0.000373762438
0.000373603082
0.000373672845
0.00037379364
0.000373801146
0.000373651434
0.000373716594
0.00037383134
0.00037383511
0.000373693945
0.000373752181
0.000373862514
0.000373864757
0.00037373125
0.000373783132
0.000373889779
0.000373890799
0.000373765008
0.000373810697
0.000373913555
0.000373913735
0.000373794119
0.000373836061
0.000373934178
0.000373934045
0.000373819602
0.000373858891
0.000373952141
0.000373951777
0.000373842912
0.000373878821
0.000373968271
0.000373967266
0.000373865611
0.000373895939
0.000373982625
0.000373980962
0.000373886653
0.00037391243
0.000373995381
0.000373993284
0.00037390506
0.000373928356
0.000374006507
0.000374004606
0.000373921903
0.000373943727
0.000374016257
0.00037401487
0.000373936798
0.000373958545
0.000374024989
0.000374024082
0.000373950875
0.000373971418
0.000374033156
0.000374031834
0.000373965955
0.000373981167
0.000374041922
0.000374039789
0.000373985896
0.00037398853
0.000374051616
0.000374045686
0.000374003513
0.000373996632
0.000374059393
0.000374050737
0.000374018915
0.000374005014
0.000374066006
0.000374055242
0.000374031386
0.000374013186
0.00037407126
0.000374059424
0.000374041641
0.000374020943
0.000374075495
0.000374063219
0.000374050114
0.000374028084
0.000374078905
0.000374066591
0.000374057065
0.000374034578
0.000374081634
0.000374069558
0.000374062769
0.000374040409
0.000374083815
0.000374072146
0.000374067459
0.00037404561
0.000374085552
0.0003740744
0.000374071321
0.000374050255
0.000374086929
0.000374076378
0.000374074506
0.000374054446
0.000374088004
0.000374078153
0.000374077126
0.000374058302
0.000374088813
0.000374079823
0.000374079235
0.000374061949
0.000374089349
0.000374081607
0.000374080836
0.00037406577
0.000374089551
0.000374084165
0.000374081775
0.000374071381
0.000374089286
0.000374089731
0.000374081919
0.000374081781
0.000374088755
0.00037408743
0.000374081822
0.000374090641
0.000374088337
0.000374081383
0.000374081609
0.000374088354
0.000374088021
0.000374079365
0.000374081421
0.000374087664
0.000374088008
0.000374079509
0.000374081892
0.000374087775
0.0003740882
0.000374080342
0.000374082664
0.000374088059
0.000374088496
0.000374081371
0.000374083565
0.000374088404
0.000374088835
0.000374082456
0.0003740845
0.00037408881
0.000374089212
0.000374083615
0.000374085473
0.000374089371
0.000374089692
0.000374085042
0.000374086613
0.000374090414
0.000374090413
0.00037408718
0.000374088116
0.000374092126
0.000374091726
0.000374090895
0.000374090286
0.000374090015
0.000374091011
0.000374090709
0.000374090973
0.000374090014
0.000374090589
0.000374090253
0.00037409072
0.000374090331
0.000374090778
0.000374090504
0.000374090901
0.000374090708
0.000374091047
0.000374090932
0.000374091209
0.000374091163
0.000374091383
0.000374091388
0.000374091291
0.000374091185
0.000374090995
0.000374090894
0.000374090774
0.000374090697
0.000374090625
0.000374090575
0.000374090535
0.000374090507
0.000374090487
0.000374090475
0.000374090466
0.000374090461
0.000374090458
0.000374090457
0.000374090456
0.000374090455
0.000374090455
0.000374090455
0.000374090455
0.000374090455
0.000374090455
0.000374090455
0.000374090455
0.000374090455
0.000374090455
0.000374090455
0.000374090455
0.000374090455
0.000374090455
0.000374090455
0.000374090455
0.000374090455
0.000374090455
0.000374090455
0.000374090455
0.000374090455
0.000374090455
0.000374090455
0.000374090455
0.000374090455
0.000374090455
0.000374090455
0.000374090455
0.000374090455
0.000374090455
0.000374090455
0.000374090455
0.000374090455
0.000374090455
0.000374090455
0.000374090455
0.000374090455
0.000374090455
0.000374090455
0.000374090455
0.000374090455
0.000374090455
)
;

boundaryField
{
    closed
    {
        type            calculated;
        value           nonuniform List<scalar> 0();
    }
    open
    {
        type            calculated;
        value           uniform 0.000374090455;
    }
    sides
    {
        type            empty;
    }
    procBoundary5to4
    {
        type            processor;
        value           uniform 0.000340960963;
    }
}


// ************************************************************************* //
