/*--------------------------------*- C++ -*----------------------------------*\
| =========                 |                                                 |
| \\      /  F ield         | OpenFOAM: The Open Source CFD Toolbox           |
|  \\    /   O peration     | Version:  2306                                  |
|   \\  /    A nd           | Website:  www.openfoam.com                      |
|    \\/     M anipulation  |                                                 |
\*---------------------------------------------------------------------------*/
FoamFile
{
    version     2.0;
    format      ascii;
    arch        "LSB;label=32;scalar=64";
    class       volScalarField;
    location    "0.00072";
    object      PV;
}
// * * * * * * * * * * * * * * * * * * * * * * * * * * * * * * * * * * * * * //

dimensions      [0 0 0 0 0 0 0];

internalField   nonuniform List<scalar> 
530
(
0.00675371283
0.00684892095
0.00683374279
0.00674257796
0.00674425482
0.00682770905
0.00683855708
0.00675667446
0.00673699011
0.0067782948
0.0068303014
0.00679830044
0.00673088051
0.00673644177
0.0068206128
0.00681728038
0.00672578626
0.0067321467
0.00681380035
0.00681485424
0.00672087744
0.00673015278
0.00680800899
0.00680820784
0.00671777658
0.00672820358
0.00680403706
0.00680220303
0.0067163874
0.00672676792
0.00679970947
0.00679707813
0.0067155417
0.00672566341
0.00679562699
0.0067927844
0.00671506658
0.00672470715
0.00679210137
0.00678928377
0.00671487861
0.00672386478
0.0067891504
0.00678645541
0.00671503076
0.00672329131
0.00678671485
0.00678424538
0.00671532381
0.00672308885
0.00678466232
0.00678279395
0.00671600794
0.00672328126
0.00678333768
0.00678187031
0.00671712946
0.00672386913
0.00678278801
0.00678161594
0.00671870247
0.00672502038
0.0067831188
0.00678214894
0.00672068321
0.0067268352
0.00678441431
0.00678356838
0.00672310866
0.00672933283
0.00678674204
0.00678592875
0.00672579705
0.00673246627
0.0067893568
0.00678901881
0.00672868811
0.0067358994
0.00679232109
0.00679222044
0.0067323037
0.00673994691
0.00679586573
0.00679596078
0.0067370368
0.00674503306
0.00680025008
0.00680058583
0.00674277128
0.00675134762
0.00680556762
0.00680599184
0.00674986453
0.0067586221
0.00681219631
0.00681224416
0.00675828352
0.00676687166
0.00681990676
0.00681982775
0.00676774974
0.00677582521
0.00682809742
0.00682834232
0.00677819234
0.00678508314
0.0068362201
0.00683707133
0.00678982668
0.00679399892
0.0068454392
0.00684527617
0.00680124293
0.00680564333
0.00685556082
0.0068468664
0.00681235122
0.00682765858
0.00686641795
0.00684352038
0.00682362882
0.00685442105
0.00687757877
0.00684298852
0.00683517642
0.00687419951
0.00688912326
0.00685041484
0.00684672976
0.0068874217
0.00690067147
0.0068604637
0.00685855251
0.00689918276
0.00691226152
0.00687196385
0.00687063688
0.00691066688
0.00692376091
0.00688394083
0.00688260132
0.00692202674
0.00693478732
0.00689594856
0.00689451106
0.00693284182
0.00694566736
0.00690786181
0.00690643255
0.00694348325
0.00695641528
0.00691973485
0.00691822483
0.00695399935
0.00696705732
0.00693145475
0.00692984782
0.00696441979
0.00697756658
0.00694296275
0.00694127147
0.00697474082
0.00698791319
0.0069542267
0.00695251655
0.00698500717
0.00699806709
0.00696527149
0.00696360909
0.00699523828
0.00700814399
0.00697604223
0.00697450822
0.00700537435
0.00701803339
0.00698665208
0.00698510557
0.00701536015
0.00702762133
0.00699697539
0.00699540217
0.0070250456
0.00703675169
0.00700698979
0.00700539619
0.00703439394
0.0070454638
0.00701666255
0.0070150828
0.00704339028
0.00705377733
0.00702600461
0.00702442484
0.00705209357
0.00706173207
0.00703496448
0.00703343894
0.00706042572
0.0070693992
0.00704353574
0.00704216526
0.00706836963
0.00707675545
0.00705175242
0.00705053819
0.00707591388
0.0070837414
0.00705961534
0.00705852956
0.00708306731
0.00709035343
0.00706711211
0.00706612567
0.00708984121
0.00709660491
0.00707423201
0.00707331603
0.0070962414
0.00710250974
0.00708097109
0.00708010669
0.00710227104
0.00710805322
0.00708733198
0.00708655132
0.00710793459
0.00711325055
0.00709332411
0.00709272881
0.00711322984
0.00711805367
0.00709896629
0.00709858841
0.00711817131
0.00712247243
0.00710427775
0.00710415391
0.00712279011
0.00712650439
0.00710927232
0.00710944099
0.00712712494
0.00713014406
0.00711395137
0.007114478
0.00713119803
0.00713338363
0.00711828844
0.00711932383
0.00713499702
0.00713635133
0.00712214268
0.00712398605
0.00713882451
0.0071393113
0.00712554325
0.0071284114
0.00714213156
0.00714193707
0.00712899263
0.00713186698
0.00714511345
0.00714453897
0.00713243469
0.00713513685
0.00714752121
0.00714692922
0.00713565076
0.00713815172
0.00714970019
0.00714911346
0.00713857258
0.00714093952
0.00715167115
0.00715111523
0.00714122744
0.00714343701
0.00715346813
0.00715293747
0.00714368187
0.00714573423
0.00715509496
0.00715460057
0.00714583221
0.00714781424
0.00715656536
0.00715611239
0.00714783795
0.00714962687
0.00715789957
0.00715751337
0.00714964853
0.00715132164
0.00715903257
0.00715877768
0.00715127741
0.00715278199
0.0071601206
0.00715991807
0.0071527406
0.00715409137
0.00716109312
0.00716093681
0.00715407729
0.00715527901
0.00716195973
0.00716183925
0.00715526338
0.00715637243
0.00716273254
0.00716263083
0.00715632472
0.00715736682
0.00716341418
0.00716333137
0.00715729735
0.00715825577
0.00716399579
0.00716395018
0.00715821844
0.00715904467
0.00716449324
0.00716448863
0.00715906545
0.00715978477
0.00716491691
0.00716494806
0.00715981779
0.00716048082
0.00716528442
0.00716533178
0.00716050158
0.00716113477
0.00716560061
0.00716565288
0.00716111132
0.00716174787
0.00716586548
0.00716592337
0.00716167487
0.00716229052
0.00716607569
0.00716616853
0.00716223624
0.00716273454
0.00716619705
0.0071663521
0.0071628807
0.00716309408
0.00716623243
0.00716653395
0.00716346016
0.00716345809
0.0071662953
0.00716668184
0.00716398052
0.00716380837
0.00716635757
0.00716679338
0.00716441817
0.00716413664
0.00716642409
0.00716687623
0.00716478978
0.007164438
0.00716648758
0.00716693815
0.00716510548
0.00716471041
0.00716654618
0.00716698489
0.00716537223
0.00716495488
0.00716659943
0.00716701991
0.0071655975
0.00716517257
0.00716664693
0.00716704581
0.00716578796
0.00716536543
0.00716668872
0.00716706422
0.0071659492
0.00716553619
0.00716672516
0.00716707604
0.00716608597
0.00716568805
0.00716675685
0.00716708148
0.00716620208
0.00716582409
0.00716678475
0.00716708002
0.00716630004
0.0071659466
0.00716681041
0.00716706731
0.00716638109
0.00716606202
0.007166837
0.00716702492
0.00716644277
0.00716620568
0.00716687063
0.00716687258
0.00716648176
0.00716645944
0.00716690716
0.00716662352
0.00716650879
0.00716688453
0.00716693636
0.00716651633
0.00716652896
0.00716696049
0.00716695813
0.00716649221
0.00716654439
0.00716698778
0.00716696784
0.00716651205
0.00716657113
0.00716698996
0.00716696876
0.00716654489
0.00716660213
0.00716698541
0.00716696474
0.00716657999
0.00716663386
0.00716697759
0.00716695787
0.00716661416
0.00716666428
0.00716696693
0.00716694878
0.00716664743
0.00716669332
0.00716695108
0.00716693595
0.00716668365
0.00716672352
0.00716691872
0.00716691527
0.00716673363
0.00716675965
0.00716685626
0.00716687169
0.00716683073
0.00716681464
0.00716680719
0.00716683292
0.00716682538
0.00716683276
0.00716680956
0.00716682498
0.00716681834
0.00716683122
0.00716682325
0.00716683579
0.00716683071
0.00716684205
0.00716683887
0.00716684873
0.00716684737
0.00716685554
0.00716685579
0.0071668623
0.00716686371
0.00716687269
0.00716687673
0.00716688379
0.00716688763
0.00716689191
0.00716689476
0.00716689723
0.00716689898
0.00716690027
0.00716690116
0.00716690174
0.0071669021
0.00716690231
0.00716690242
0.00716690248
0.0071669025
0.00716690251
0.00716690251
0.00716690251
0.00716690251
0.00716690251
0.0071669025
0.0071669025
0.0071669025
0.0071669025
0.0071669025
0.0071669025
0.0071669025
0.0071669025
0.0071669025
0.0071669025
0.0071669025
0.0071669025
0.0071669025
0.0071669025
0.0071669025
0.0071669025
0.0071669025
0.0071669025
0.0071669025
0.0071669025
0.0071669025
0.0071669025
0.0071669025
0.0071669025
0.0071669025
0.0071669025
0.0071669025
0.0071669025
0.0071669025
0.0071669025
0.0071669025
0.0071669025
0.0071669025
0.0071669025
0.0071669025
0.0071669025
0.0071669025
0.0071669025
)
;

boundaryField
{
    closed
    {
        type            zeroGradient;
    }
    open
    {
        type            zeroGradient;
    }
    sides
    {
        type            empty;
    }
    procBoundary5to4
    {
        type            processor;
        value           uniform 0.00672629899;
    }
}


// ************************************************************************* //
