/*--------------------------------*- C++ -*----------------------------------*\
| =========                 |                                                 |
| \\      /  F ield         | OpenFOAM: The Open Source CFD Toolbox           |
|  \\    /   O peration     | Version:  2306                                  |
|   \\  /    A nd           | Website:  www.openfoam.com                      |
|    \\/     M anipulation  |                                                 |
\*---------------------------------------------------------------------------*/
FoamFile
{
    version     2.0;
    format      ascii;
    arch        "LSB;label=32;scalar=64";
    class       volScalarField;
    location    "0.00072";
    object      sourcePV;
}
// * * * * * * * * * * * * * * * * * * * * * * * * * * * * * * * * * * * * * //

dimensions      [1 -3 -1 0 0 0 0];

internalField   nonuniform List<scalar> 
530
(
0.298837502
2.35972435e-08
0.00191536801
0.394410077
0.345086286
0.00586740666
2.47308116e-08
0.22791748
0.344866078
0.121310524
2.57867134e-08
0.0406161757
0.326540264
0.268233914
2.69468335e-08
2.717653e-08
0.301195493
0.256999721
2.79518446e-08
2.80316148e-08
0.28482609
0.224640463
2.88712252e-08
2.89796297e-08
0.264419824
0.199085107
2.97363787e-08
2.98806473e-08
0.243444552
0.176141449
3.07303746e-08
3.09022861e-08
0.220766155
0.158443816
3.17604991e-08
3.19197287e-08
0.201973961
0.143578143
3.27804471e-08
3.29253725e-08
0.18537898
0.133408892
3.37883885e-08
3.39175336e-08
0.169951437
0.124511309
3.47875341e-08
3.49031723e-08
0.156727619
0.116751125
3.58966198e-08
3.60097975e-08
0.14481084
0.110180925
3.70725534e-08
3.71683741e-08
0.135457968
0.104391573
3.82235333e-08
3.83145088e-08
0.127560519
0.0987723546
3.93548919e-08
3.94422598e-08
0.121401271
0.0938597587
4.04653462e-08
4.05490919e-08
0.11685152
0.0896242834
4.16654962e-08
4.17898864e-08
0.114321596
0.0869695969
4.30303825e-08
4.31545245e-08
0.112040581
0.085398557
4.44039836e-08
4.45502806e-08
0.10850338
0.0821155135
4.57709012e-08
4.59351926e-08
0.104041745
0.0784340174
4.71053702e-08
4.72785748e-08
0.0991859581
0.0738707401
4.86255896e-08
4.88501682e-08
0.0928725248
0.0689111528
5.01966734e-08
5.04603275e-08
0.0874418446
0.0635978471
5.17170658e-08
5.19776814e-08
0.0824535162
0.0602105607
5.3209742e-08
5.3428504e-08
0.0759902575
0.0573671364
5.4688224e-08
5.4853561e-08
0.0676515169
0.0556901382
5.6542259e-08
5.6714262e-08
0.0612985519
0.0466912326
5.82817895e-08
0.00166797757
0.056644757
0.0250674759
5.98784562e-08
0.0106025232
0.0537735664
0.00705689806
6.13876244e-08
0.0226905766
0.05094202
0.000960936656
6.27953078e-08
0.0285540627
0.0487228417
6.4429604e-08
6.45743238e-08
0.0299734317
0.0465974213
6.6166574e-08
6.63062479e-08
0.0289942563
0.0446961814
6.78094658e-08
6.79395125e-08
0.0273339665
0.0428865684
6.93449513e-08
6.95046742e-08
0.0254743636
0.0405258352
7.08052399e-08
7.096554e-08
0.0231362697
0.0382079887
7.22268433e-08
7.23166814e-08
0.020780527
0.0359726405
7.40897949e-08
7.4166355e-08
0.0185555934
0.0338409413
7.58014316e-08
7.58655038e-08
0.0165165319
0.0318439883
7.73644312e-08
7.74178755e-08
0.0147095522
0.0299001864
7.87780044e-08
7.88023931e-08
0.0137389321
0.0279509789
8.00438805e-08
8.00361844e-08
0.0132025546
0.0262957924
8.11740729e-08
8.1145371e-08
0.0128330079
0.0247367139
8.21797661e-08
8.21428907e-08
0.0125307085
0.0231144967
8.3923006e-08
8.3464536e-08
0.0122097207
0.0213792399
8.59760788e-08
8.55516009e-08
0.0118872315
0.0195264042
8.78200168e-08
8.74512991e-08
0.0115544032
0.0176413781
8.94341846e-08
8.91493404e-08
0.0112516247
0.0158845077
9.0871363e-08
9.06425663e-08
0.0109599137
0.0152373222
9.21411924e-08
9.19522775e-08
0.0106452186
0.014598429
9.32569834e-08
9.31049866e-08
0.0103112661
0.0139609162
9.42327601e-08
9.41151322e-08
0.00997315406
0.01333622
9.50814828e-08
9.49932325e-08
0.0096417659
0.0127370594
9.58141052e-08
9.57502033e-08
0.00932052943
0.0121709551
9.64411801e-08
9.64033829e-08
0.0090090389
0.0116163192
9.69735388e-08
9.69338611e-08
0.00870117014
0.0109763241
9.74206732e-08
9.73776388e-08
0.00837105087
0.0103211053
9.7792958e-08
9.77515993e-08
0.0080337908
0.0096354532
9.80992168e-08
9.80629116e-08
0.00770849517
0.008909801
9.83452646e-08
9.83203663e-08
0.00740651842
0.00813247723
9.85870268e-08
9.85678205e-08
0.00716354456
0.00727731055
9.88645156e-08
9.8890453e-08
0.00707592225
0.00641577498
9.90530476e-08
9.91417319e-08
0.00714511305
0.00555386584
9.92371273e-08
9.93702453e-08
0.00693102683
0.00521309551
9.93944521e-08
9.95396634e-08
0.00650304964
0.00484787485
9.9550579e-08
9.96803212e-08
0.00605224462
0.00450682401
9.96744967e-08
9.97939777e-08
0.00564632865
0.00417594557
9.97709517e-08
9.98816947e-08
0.00528085137
0.00390629916
9.9843368e-08
9.99465505e-08
0.00492178195
0.00364884762
9.98947943e-08
9.99921654e-08
0.00464356343
0.00342009173
9.9928818e-08
1.00019181e-07
0.00435817589
0.00325987056
9.9948409e-08
1.00027574e-07
0.00410304918
0.00307725183
9.99636984e-08
1.00024473e-07
0.00387510857
0.00295765085
9.99597331e-08
1.0001192e-07
0.00367073647
0.00285313891
9.99480031e-08
9.99917288e-08
0.00347073032
0.0027503856
9.9929958e-08
9.99672989e-08
0.00329735567
0.00263649338
9.99062414e-08
9.99399962e-08
0.00314024901
0.00252190686
9.98792764e-08
9.99095379e-08
0.00298115132
0.00241728101
9.98523733e-08
9.98765039e-08
0.00279979412
0.00232547269
9.98255347e-08
9.98428544e-08
0.00261676973
0.002216294
9.97986021e-08
9.98102824e-08
0.00245118442
0.00209203733
9.97709553e-08
9.97795286e-08
0.00228949034
0.0019557889
9.97433519e-08
9.97504792e-08
0.00214078379
0.00181046328
9.97170046e-08
9.97225599e-08
0.00198985623
0.00168048224
9.96934921e-08
9.96933501e-08
0.00181012586
0.00158697425
9.96783732e-08
9.96671704e-08
0.0015422537
0.00152002086
9.96721351e-08
9.96393767e-08
0.00130287839
0.00143118923
9.96591198e-08
9.96152405e-08
0.00109144866
0.00132943859
9.9644827e-08
9.95950337e-08
0.00092021794
0.00122413486
9.96293177e-08
9.95775939e-08
0.000778501021
0.00112001578
9.96138469e-08
9.95622727e-08
0.000660401349
0.0010210885
9.95989062e-08
9.95485733e-08
0.000562530116
0.000928698412
9.95846809e-08
9.95362771e-08
0.000481192055
0.000843774005
9.95713186e-08
9.95252166e-08
0.000413285083
0.000766369887
9.95588966e-08
9.95152993e-08
0.000356321283
0.000695808937
9.95474323e-08
9.95064831e-08
0.000308362135
0.000630861205
9.95368977e-08
9.94987582e-08
0.000267990139
0.000569988312
9.95272317e-08
9.94921509e-08
0.000234619411
0.000511462589
9.95183319e-08
9.94870818e-08
0.000208487906
0.000449428476
9.95098766e-08
9.94856181e-08
0.000192257788
0.00035830135
9.95010706e-08
9.94987869e-08
0.00018820265
0.000190434029
9.94922658e-08
9.91881e-05
0.000187659885
9.94888299e-08
9.94845756e-08
0.000193324642
0.000188738703
9.9477012e-08
9.94781431e-08
0.000222995946
0.000189275712
9.9470592e-08
9.94733541e-08
0.000218089192
0.00017921973
9.94670789e-08
9.94698757e-08
0.000202182213
0.00016436236
9.94645503e-08
9.94672333e-08
0.000183182178
0.000147488213
9.94626429e-08
9.94651774e-08
0.000163377879
0.000130136536
9.94612786e-08
9.94636032e-08
0.000142490564
0.000112282771
9.94606791e-08
9.94626426e-08
0.000117440506
9.18681586e-05
9.94623258e-08
9.94627541e-08
8.1202232e-05
6.57917774e-05
1.25474656e-06
9.94662768e-08
1.99216613e-05
2.92183376e-05
3.30305876e-05
1.67143985e-05
2.1004289e-05
1.62899523e-05
3.10717511e-05
2.13100297e-05
2.61668966e-05
1.80806203e-05
2.37771139e-05
1.59899615e-05
1.98325197e-05
1.2854713e-05
1.54111621e-05
9.38583645e-06
1.0704039e-05
5.7296514e-06
5.96885732e-06
1.99477346e-06
1.45963913e-06
9.94569115e-08
9.9456019e-08
9.94547775e-08
9.94540126e-08
9.94532634e-08
9.945273e-08
9.94523058e-08
9.94519962e-08
9.94517829e-08
9.94516362e-08
9.94515472e-08
9.94514933e-08
9.94514657e-08
9.94514523e-08
9.94514476e-08
9.94514467e-08
9.94514474e-08
9.94514483e-08
9.94514491e-08
9.94514497e-08
9.945145e-08
9.94514502e-08
9.94514502e-08
9.94514503e-08
9.94514503e-08
9.94514503e-08
9.94514503e-08
9.94514503e-08
9.94514503e-08
9.94514503e-08
9.94514503e-08
9.94514503e-08
9.94514503e-08
9.94514503e-08
9.94514503e-08
9.94514503e-08
9.94514503e-08
9.94514503e-08
9.94514503e-08
9.94514503e-08
9.94514503e-08
9.94514503e-08
9.94514503e-08
9.94514503e-08
9.94514503e-08
9.94514503e-08
9.94514503e-08
9.94514503e-08
9.94514503e-08
9.94514503e-08
9.94514503e-08
9.94514503e-08
9.94514503e-08
9.94514503e-08
9.94514503e-08
9.94514503e-08
9.94514503e-08
9.94514503e-08
9.94514503e-08
)
;

boundaryField
{
    closed
    {
        type            calculated;
        value           nonuniform List<scalar> 0();
    }
    open
    {
        type            calculated;
        value           uniform 0;
    }
    sides
    {
        type            empty;
    }
    procBoundary5to4
    {
        type            processor;
        value           uniform 0;
    }
}


// ************************************************************************* //
