/*--------------------------------*- C++ -*----------------------------------*\
| =========                 |                                                 |
| \\      /  F ield         | OpenFOAM: The Open Source CFD Toolbox           |
|  \\    /   O peration     | Version:  2306                                  |
|   \\  /    A nd           | Website:  www.openfoam.com                      |
|    \\/     M anipulation  |                                                 |
\*---------------------------------------------------------------------------*/
FoamFile
{
    version     2.0;
    format      ascii;
    arch        "LSB;label=32;scalar=64";
    class       volScalarField;
    location    "0.0011";
    object      H2;
}
// * * * * * * * * * * * * * * * * * * * * * * * * * * * * * * * * * * * * * //

dimensions      [0 0 0 0 0 0 0];

internalField   nonuniform List<scalar> 
531
(
0.011007348
0.0110222838
0.0106649157
0.0106587898
0.0107419455
0.0110124829
0.0110177831
0.0106723976
0.0106533502
0.0107174039
0.0110129097
0.0110223141
0.0106757218
0.0107017439
0.0110087045
0.0110204741
0.0106627653
0.0106587774
0.0106663938
0.0106543095
0.0107020461
0.0110100227
0.0110045601
0.0110103258
0.0110133783
0.0108621229
0.0106564214
0.0106894283
0.0110182624
0.0110237022
0.010640946
0.010634981
0.0106920419
0.0110236221
0.0110305343
0.0106634549
0.0106871076
0.0110175384
0.0110338131
0.0106523588
0.0106919471
0.0110152968
0.0110087746
0.0110191426
0.0109063637
0.0106473607
0.0106820415
0.0110192234
0.0110193697
0.0106450813
0.0106367189
0.0106893813
0.0110174711
0.0110179171
0.0106694499
0.0106807426
0.0110060571
0.0110150552
0.0106770203
0.0106978215
0.0110060402
0.0110127824
0.0106675472
0.0106705313
0.010669299
0.010714157
0.0110090333
0.0110112036
0.0106638215
0.0106481188
0.0106908155
0.0110170649
0.0110139656
0.0106674931
0.0106758871
0.0110123806
0.0110299921
0.0106581041
0.0106887451
0.0110158422
0.0110212756
0.0110157326
0.0110079487
0.0106558797
0.0106807291
0.0110134893
0.0110131589
0.0106589908
0.0106521398
0.0106673924
0.0106557032
0.0106973616
0.0110383552
0.0109963532
0.0110428248
0.0106786681
0.0106872158
0.0110061208
0.0110117245
0.0106771323
0.0106529346
0.0106869029
0.011016084
0.0110041418
0.0106744361
0.0106760261
0.0110106173
0.0110133938
0.0106708243
0.0106476701
0.0106822189
0.0110216083
0.011011158
0.0106708133
0.0106692961
0.0110199632
0.0110260952
0.0106596491
0.0106771174
0.0110211013
0.0110161049
0.0110178692
0.0109565677
0.0106506912
0.0106673115
0.011020973
0.0110152603
0.0106610567
0.0106383019
0.010682781
0.0110237866
0.0110110528
0.0106739874
0.0106442847
0.0106779862
0.0110220345
0.0110080353
0.0106773742
0.0106697881
0.0110217439
0.0110091078
0.0106785786
0.0106747735
0.011019342
0.0110050687
0.010682889
0.0106841069
0.0110140061
0.0110077944
0.0106829488
0.0106608679
0.0106978994
0.0110206215
0.0110001471
0.0106816875
0.0106635379
0.0106663853
0.0106783293
0.0110187976
0.010997521
0.0106784324
0.0106967138
0.0110125395
0.0107422851
0.010675746
0.0110220192
0.0110028567
0.0106835068
0.0106781289
0.0110234209
0.011007645
0.0106844738
0.0106580578
0.0106877104
0.0110199794
0.011003477
0.010689028
0.0106531813
0.0106769381
0.0110226602
0.0109992189
0.0106870469
0.0106773537
0.0110275037
0.0110070972
0.0106911159
0.0106568437
0.0106758485
0.0110241101
0.0109976065
0.0106883167
0.0106752196
0.0110293786
0.0110060532
0.010693555
0.0106584055
0.0106848589
0.0110203664
0.0110025078
0.0107005007
0.0106570913
0.0106757474
0.01102345
0.0109961808
0.0106946593
0.0106810956
0.011031123
0.0110007097
0.0106943345
0.0106736005
0.0106707501
0.0106763605
0.0110207763
0.0109994618
0.0106925811
0.0106805507
0.0110317845
0.0110054005
0.0107021731
0.0106627977
0.0106831923
0.0110227612
0.0110031333
0.0107001073
0.0106575186
0.010679898
0.01102298
0.0110059499
0.0106982222
0.0106562372
0.0106703487
0.0110266138
0.0110008111
0.0106926208
0.0106761039
0.0110354203
0.0110081676
0.0106967125
0.0106576564
0.0106759452
0.0110258186
0.011008315
0.0106895761
0.0106501609
0.0106625415
0.0110306436
0.011005246
0.0106866664
0.010664798
0.0110439442
0.0110058485
0.0106863564
0.0106664613
0.0110439025
0.0110060852
0.0106855579
0.0106671556
0.0110433765
0.0110055312
0.0106854519
0.0106681932
0.0110420286
0.0110047262
0.0106869591
0.0106735018
0.0110377772
0.0110104382
0.0106878474
0.0106533274
0.0106703634
0.0110269066
0.0110091006
0.0106880842
0.0106509216
0.0106634018
0.0110285736
0.0110043079
0.0106874603
0.0106690368
0.0110385788
0.0110037065
0.010687996
0.0106755414
0.0110338592
0.011011067
0.0106875568
0.0106506046
0.0106718805
0.0110323438
0.0109964076
0.0110082506
0.0106975601
0.0106482531
0.010676819
0.0110285218
0.0109972218
0.0110033776
0.0106879067
0.0106632666
0.0106624909
0.0106642884
0.0110194145
0.0110041877
0.0106835604
0.0106726671
0.0110259769
0.0110079539
0.0106890162
0.0106582354
0.0106741308
0.0110171904
0.0110056732
0.0106942799
0.0106576615
0.010670522
0.011017881
0.0109996407
0.010688764
0.0106775211
0.0110187931
0.01100432
0.010698372
0.0106636424
0.0106794263
0.0110119111
0.011002062
0.0107054856
0.0106624929
0.0106805295
0.0110098039
0.0110019566
0.0107081443
0.0106635318
0.0106811754
0.0110086156
0.0110013311
0.0107107158
0.0106639611
0.010681476
0.011007542
0.0110012944
0.0107109635
0.0106638387
0.0106810501
0.0110068237
0.0110015575
0.0107105188
0.0106634055
0.0106802681
0.011006422
0.0110020377
0.0107081077
0.0106624953
0.0106789834
0.0110062403
0.0110029328
0.0107046055
0.0106614904
0.010677203
0.0110064748
0.0110037163
0.0107017341
0.0106606245
0.0106765202
0.0110061823
0.0110051483
0.0106997318
0.0106593892
0.0106709121
0.0110095894
0.0110001291
0.0106844982
0.0106767887
0.0110049284
0.0110068687
0.0106914198
0.010657413
0.0106759761
0.0110165854
0.0109947604
0.0110095323
0.0106986111
0.0106639359
0.0106731021
0.0106503224
0.0106672181
0.0110195966
0.0110003176
0.0110124938
0.0106861927
0.0106676012
0.0110087509
0.0110043977
0.0106756926
0.0106731534
0.0110081566
0.0110100421
0.0106794776
0.0106509879
0.0106610867
0.0110137048
0.0110043421
0.0106780786
0.0106699308
0.0110083281
0.0110097341
0.0106813858
0.0106523363
0.0106622234
0.0110136484
0.0110030061
0.0106794111
0.010669566
0.0110114929
0.0110018956
0.0106769575
0.0106757899
0.0110075874
0.0110085698
0.0106837352
0.0106576073
0.0106701171
0.0110115184
0.0110027269
0.0106863133
0.0106691608
0.0106589231
0.0106727794
0.0110171504
0.0109977882
0.0110107115
0.0106945247
0.010675218
0.0110037225
0.0110078446
0.0106900651
0.0106561463
0.0106769209
0.0110161001
0.0109955162
0.0110061157
0.0106980302
0.0106722369
0.0106670858
0.0106715649
0.0110089936
0.0110083837
0.0106945237
0.0106581062
0.010670119
0.0110076186
0.0110070251
0.010699768
0.0106579917
0.0106675568
0.0110100562
0.0110015473
0.0106836682
0.0106760034
0.0110072765
0.0110068195
0.0106887426
0.0106563541
0.010664105
0.0110111491
0.0110020076
0.0106826147
0.0106742825
0.0110076607
0.0110066177
0.0106890593
0.0106576917
0.0106632682
0.0110111586
0.0109996156
0.0106864838
0.0106741871
0.0110098361
0.0109961504
0.0106876905
0.0106835005
0.0110067063
0.0109974376
0.0107156461
0.0106793636
0.0106805903
0.0106778013
0.010668265
0.010668538
0.0110058964
0.0110003934
0.0106951303
0.0106831363
0.0110053771
0.0110033828
0.0107140606
0.0106614364
0.01067592
0.0110157682
0.0109937403
0.0110047953
0.0107057346
0.0106582332
0.010667043
0.0110084458
0.0110057068
0.010698488
0.0106553017
0.0106625792
0.0110112786
0.0110004481
0.0106864495
0.0106778174
0.0110107271
0.0110020118
0.010706032
0.0106706107
0.0106747295
0.0106637032
0.0106605859
0.0110139954
0.0109990222
0.0106875529
0.0106831469
0.0110237411
0.0109926372
0.0110052699
0.0107463391
0.0106612151
0.0106735394
0.0110114997
)
;

boundaryField
{
    closed
    {
        type            calculated;
        value           nonuniform List<scalar> 0();
    }
    open
    {
        type            calculated;
        value           nonuniform List<scalar> 0();
    }
    sides
    {
        type            empty;
    }
    procBoundary1to0
    {
        type            processor;
        value           uniform 0.0107030191;
    }
    procBoundary1to2
    {
        type            processor;
        value           uniform 0.0110010675;
    }
}


// ************************************************************************* //
