/*--------------------------------*- C++ -*----------------------------------*\
| =========                 |                                                 |
| \\      /  F ield         | OpenFOAM: The Open Source CFD Toolbox           |
|  \\    /   O peration     | Version:  2306                                  |
|   \\  /    A nd           | Website:  www.openfoam.com                      |
|    \\/     M anipulation  |                                                 |
\*---------------------------------------------------------------------------*/
FoamFile
{
    version     2.0;
    format      ascii;
    arch        "LSB;label=32;scalar=64";
    class       volScalarField;
    location    "0.0011";
    object      prefDPV_H2O;
}
// * * * * * * * * * * * * * * * * * * * * * * * * * * * * * * * * * * * * * //

dimensions      [1 -1 -1 0 0 0 0];

internalField   nonuniform List<scalar> 
531
(
-3.83916465e-07
-3.84558698e-07
-3.64861402e-07
-3.64368785e-07
-3.69512261e-07
-3.84138109e-07
-3.84363946e-07
-3.65248691e-07
-3.64082802e-07
-3.68028504e-07
-3.8415587e-07
-3.84557665e-07
-3.6547352e-07
-3.6696682e-07
-3.83975368e-07
-3.84481199e-07
-3.64712576e-07
-3.6433007e-07
-3.64990488e-07
-3.64129894e-07
-3.67219907e-07
-3.84031293e-07
-3.83795785e-07
-3.84042986e-07
-3.84175206e-07
-3.76166802e-07
-3.64310523e-07
-3.66350833e-07
-3.84385806e-07
-3.84619212e-07
-3.63371623e-07
-3.62909225e-07
-3.66400936e-07
-3.84617006e-07
-3.84912466e-07
-3.64624894e-07
-3.65992523e-07
-3.8435512e-07
-3.84796168e-07
-3.64066881e-07
-3.66392632e-07
-3.84257847e-07
-3.83977927e-07
-3.84423169e-07
-3.78444518e-07
-3.63756512e-07
-3.65906128e-07
-3.84427235e-07
-3.84432522e-07
-3.63615602e-07
-3.63083725e-07
-3.66294272e-07
-3.84352105e-07
-3.84368964e-07
-3.65085735e-07
-3.65761261e-07
-3.83861167e-07
-3.84246599e-07
-3.65590097e-07
-3.66792194e-07
-3.83860538e-07
-3.8415026e-07
-3.65010166e-07
-3.65138986e-07
-3.6509373e-07
-3.67830685e-07
-3.83988937e-07
-3.84081784e-07
-3.64806065e-07
-3.63761014e-07
-3.66459932e-07
-3.84334754e-07
-3.84198771e-07
-3.64939611e-07
-3.65422082e-07
-3.84133101e-07
-3.84889626e-07
-3.64436502e-07
-3.6615654e-07
-3.84281018e-07
-3.8451629e-07
-3.84276695e-07
-3.83525302e-07
-3.64305358e-07
-3.65707434e-07
-3.84180317e-07
-3.84166269e-07
-3.64511061e-07
-3.63992298e-07
-3.65042222e-07
-3.64095399e-07
-3.66905586e-07
-3.85250644e-07
-3.8344454e-07
-3.85443223e-07
-3.65762659e-07
-3.66021323e-07
-3.83862995e-07
-3.84105239e-07
-3.65676283e-07
-3.64049875e-07
-3.66296688e-07
-3.84292094e-07
-3.83775448e-07
-3.65415181e-07
-3.65534065e-07
-3.84056679e-07
-3.84176678e-07
-3.65247917e-07
-3.6369577e-07
-3.65922346e-07
-3.84530132e-07
-3.84078357e-07
-3.65123529e-07
-3.65029779e-07
-3.8445917e-07
-3.84721756e-07
-3.64503418e-07
-3.65467692e-07
-3.84507487e-07
-3.84293951e-07
-3.84368938e-07
-3.80976921e-07
-3.63982666e-07
-3.64955121e-07
-3.84501955e-07
-3.8425619e-07
-3.64650423e-07
-3.63184954e-07
-3.65924742e-07
-3.84623562e-07
-3.84075468e-07
-3.6537711e-07
-3.63546208e-07
-3.65636939e-07
-3.84548146e-07
-3.83944187e-07
-3.6557045e-07
-3.65172975e-07
-3.84535473e-07
-3.83990708e-07
-3.65682715e-07
-3.65471579e-07
-3.84431844e-07
-3.83817201e-07
-3.65989819e-07
-3.66018123e-07
-3.84202025e-07
-3.83936006e-07
-3.66104577e-07
-3.64512505e-07
-3.6701307e-07
-3.84487725e-07
-3.83604813e-07
-3.65835261e-07
-3.64851986e-07
-3.64876412e-07
-3.65754906e-07
-3.84408681e-07
-3.83490504e-07
-3.65748899e-07
-3.66898233e-07
-3.84138342e-07
-3.69549524e-07
-3.65609426e-07
-3.84547228e-07
-3.83720632e-07
-3.66037437e-07
-3.65713718e-07
-3.84607334e-07
-3.83929165e-07
-3.66197572e-07
-3.6438682e-07
-3.66366529e-07
-3.84459605e-07
-3.83748642e-07
-3.66437416e-07
-3.64150687e-07
-3.65683591e-07
-3.84574749e-07
-3.83564625e-07
-3.66240294e-07
-3.65703615e-07
-3.84783341e-07
-3.8390533e-07
-3.66601753e-07
-3.64320651e-07
-3.65663438e-07
-3.84637398e-07
-3.83494897e-07
-3.66302765e-07
-3.6560789e-07
-3.84864115e-07
-3.83859941e-07
-3.66745234e-07
-3.64447412e-07
-3.66189606e-07
-3.84476034e-07
-3.8370705e-07
-3.67158115e-07
-3.64388213e-07
-3.65648973e-07
-3.84608899e-07
-3.83434057e-07
-3.66665643e-07
-3.65972296e-07
-3.84939425e-07
-3.83630349e-07
-3.66699371e-07
-3.65426339e-07
-3.65206795e-07
-3.65583419e-07
-3.84493819e-07
-3.83576394e-07
-3.66587977e-07
-3.65882551e-07
-3.84967681e-07
-3.83832692e-07
-3.67240888e-07
-3.64677137e-07
-3.66061468e-07
-3.84579304e-07
-3.83734287e-07
-3.67089841e-07
-3.64408274e-07
-3.65798999e-07
-3.84588398e-07
-3.83856012e-07
-3.6699885e-07
-3.64297852e-07
-3.65265113e-07
-3.84745138e-07
-3.83634209e-07
-3.66520093e-07
-3.65609882e-07
-3.8512431e-07
-3.83951582e-07
-3.66863106e-07
-3.64351599e-07
-3.65546968e-07
-3.84710804e-07
-3.83957829e-07
-3.66454073e-07
-3.63919812e-07
-3.64763439e-07
-3.84918656e-07
-3.83824909e-07
-3.66113256e-07
-3.64953863e-07
-3.85491508e-07
-3.83850668e-07
-3.66062235e-07
-3.65028356e-07
-3.85489718e-07
-3.83861193e-07
-3.66025735e-07
-3.65066139e-07
-3.85467066e-07
-3.83837329e-07
-3.66031734e-07
-3.6513429e-07
-3.85408996e-07
-3.83803012e-07
-3.66145205e-07
-3.65406469e-07
-3.85225777e-07
-3.84049464e-07
-3.66336415e-07
-3.64087744e-07
-3.65209147e-07
-3.84757623e-07
-3.83991676e-07
-3.66353818e-07
-3.63971771e-07
-3.64810247e-07
-3.84829509e-07
-3.83784893e-07
-3.66180116e-07
-3.65201342e-07
-3.85260386e-07
-3.83759194e-07
-3.66215401e-07
-3.65519274e-07
-3.85056908e-07
-3.84076709e-07
-3.66353222e-07
-3.63904246e-07
-3.65353778e-07
-3.84991658e-07
-3.83446089e-07
-3.83955416e-07
-3.66995719e-07
-3.63797188e-07
-3.65656144e-07
-3.84826786e-07
-3.83481442e-07
-3.8374532e-07
-3.66371376e-07
-3.64786454e-07
-3.64752449e-07
-3.648398e-07
-3.84434803e-07
-3.83780183e-07
-3.66040347e-07
-3.65380233e-07
-3.84717115e-07
-3.83942335e-07
-3.66440993e-07
-3.64425729e-07
-3.65478834e-07
-3.84339131e-07
-3.83844053e-07
-3.66753637e-07
-3.64417682e-07
-3.65294346e-07
-3.84368885e-07
-3.83584211e-07
-3.66343064e-07
-3.65709094e-07
-3.84407851e-07
-3.83785963e-07
-3.67004575e-07
-3.64781017e-07
-3.65830457e-07
-3.84111827e-07
-3.83688485e-07
-3.67426223e-07
-3.6475674e-07
-3.65888914e-07
-3.84020728e-07
-3.83684087e-07
-3.67602596e-07
-3.64819548e-07
-3.65942047e-07
-3.83969602e-07
-3.83657122e-07
-3.67755136e-07
-3.64852941e-07
-3.65961926e-07
-3.83923356e-07
-3.83655522e-07
-3.67770719e-07
-3.64849472e-07
-3.65935515e-07
-3.8389239e-07
-3.83666843e-07
-3.67745158e-07
-3.64824017e-07
-3.65887024e-07
-3.83875078e-07
-3.83687479e-07
-3.67599729e-07
-3.64768991e-07
-3.65803297e-07
-3.83867217e-07
-3.83726011e-07
-3.67390662e-07
-3.64700837e-07
-3.65693111e-07
-3.83877406e-07
-3.83759681e-07
-3.67207626e-07
-3.64646906e-07
-3.656345e-07
-3.83864747e-07
-3.83821508e-07
-3.67109471e-07
-3.64543029e-07
-3.65345806e-07
-3.84011777e-07
-3.83605155e-07
-3.66144549e-07
-3.65640101e-07
-3.8381007e-07
-3.83895647e-07
-3.66633032e-07
-3.64379984e-07
-3.6565654e-07
-3.84313088e-07
-3.83375353e-07
-3.84010629e-07
-3.67044485e-07
-3.64744192e-07
-3.6546741e-07
-3.63960526e-07
-3.65074594e-07
-3.84441868e-07
-3.83614625e-07
-3.84136556e-07
-3.66245162e-07
-3.6506489e-07
-3.83974889e-07
-3.83789354e-07
-3.65634568e-07
-3.65373104e-07
-3.83949054e-07
-3.84032288e-07
-3.65887535e-07
-3.63995181e-07
-3.64737353e-07
-3.84189288e-07
-3.83786337e-07
-3.65721887e-07
-3.65206927e-07
-3.83956979e-07
-3.84018802e-07
-3.65996819e-07
-3.64078764e-07
-3.64813117e-07
-3.84187084e-07
-3.83728409e-07
-3.65770872e-07
-3.65247981e-07
-3.84093651e-07
-3.83681257e-07
-3.65690591e-07
-3.65555015e-07
-3.83924834e-07
-3.83968971e-07
-3.66162058e-07
-3.64383353e-07
-3.65292337e-07
-3.84095675e-07
-3.83716667e-07
-3.6617199e-07
-3.65182353e-07
-3.64509171e-07
-3.65393659e-07
-3.8433662e-07
-3.83505997e-07
-3.84060058e-07
-3.66791806e-07
-3.65482865e-07
-3.83758125e-07
-3.83937814e-07
-3.6656666e-07
-3.64303455e-07
-3.65701098e-07
-3.84292043e-07
-3.83408177e-07
-3.83862973e-07
-3.66982874e-07
-3.65290334e-07
-3.65096818e-07
-3.65268114e-07
-3.83985891e-07
-3.83960843e-07
-3.66804533e-07
-3.64463049e-07
-3.65260418e-07
-3.83926917e-07
-3.8390196e-07
-3.67111944e-07
-3.64460976e-07
-3.6513372e-07
-3.84032038e-07
-3.83666127e-07
-3.66114674e-07
-3.65592974e-07
-3.83911405e-07
-3.8389319e-07
-3.66483603e-07
-3.64356429e-07
-3.64941266e-07
-3.84079063e-07
-3.83685698e-07
-3.66051541e-07
-3.65496292e-07
-3.83927864e-07
-3.83884491e-07
-3.66518473e-07
-3.64434044e-07
-3.64921345e-07
-3.8407971e-07
-3.83581974e-07
-3.66249652e-07
-3.65580563e-07
-3.84022256e-07
-3.83433659e-07
-3.6636064e-07
-3.66105188e-07
-3.83887612e-07
-3.83490097e-07
-3.68037547e-07
-3.6579907e-07
-3.65877347e-07
-3.65703115e-07
-3.65125176e-07
-3.65147202e-07
-3.83852879e-07
-3.83617125e-07
-3.66847086e-07
-3.66019779e-07
-3.83829483e-07
-3.83745842e-07
-3.68011384e-07
-3.64670253e-07
-3.65672326e-07
-3.84277406e-07
-3.8333112e-07
-3.83805808e-07
-3.67488165e-07
-3.64510491e-07
-3.65104776e-07
-3.83962028e-07
-3.83844624e-07
-3.67069863e-07
-3.64344489e-07
-3.64861597e-07
-3.84084047e-07
-3.83618398e-07
-3.66309301e-07
-3.6573688e-07
-3.84059906e-07
-3.83686593e-07
-3.67523818e-07
-3.65225343e-07
-3.65600244e-07
-3.6479563e-07
-3.64728061e-07
-3.84201945e-07
-3.83557139e-07
-3.66286905e-07
-3.66097569e-07
-3.84620629e-07
-3.83284053e-07
-3.83826243e-07
-3.69848728e-07
-3.64682346e-07
-3.65474055e-07
-3.84093958e-07
)
;

boundaryField
{
    closed
    {
        type            calculated;
        value           nonuniform List<scalar> 0();
    }
    open
    {
        type            calculated;
        value           nonuniform List<scalar> 0();
    }
    sides
    {
        type            empty;
    }
    procBoundary1to0
    {
        type            processor;
        value           uniform -3.66981954e-07;
    }
    procBoundary1to2
    {
        type            processor;
        value           uniform -3.83646052e-07;
    }
}


// ************************************************************************* //
