/*--------------------------------*- C++ -*----------------------------------*\
| =========                 |                                                 |
| \\      /  F ield         | OpenFOAM: The Open Source CFD Toolbox           |
|  \\    /   O peration     | Version:  2306                                  |
|   \\  /    A nd           | Website:  www.openfoam.com                      |
|    \\/     M anipulation  |                                                 |
\*---------------------------------------------------------------------------*/
FoamFile
{
    version     2.0;
    format      ascii;
    arch        "LSB;label=32;scalar=64";
    class       volScalarField;
    location    "0.0003";
    object      mu;
}
// * * * * * * * * * * * * * * * * * * * * * * * * * * * * * * * * * * * * * //

dimensions      [1 -1 -1 0 0 0 0];

internalField   nonuniform List<scalar> 
531
(
1.99538706e-05
2.0203518e-05
1.95956002e-05
1.97115361e-05
2.02908639e-05
2.02331881e-05
1.94841878e-05
1.96562229e-05
2.02920374e-05
2.02513836e-05
1.95582733e-05
1.97289915e-05
2.01418508e-05
1.99321417e-05
1.97741523e-05
1.97680717e-05
1.98684119e-05
1.98644416e-05
1.97768437e-05
1.97776363e-05
1.98095117e-05
1.98122862e-05
1.97958454e-05
1.97940454e-05
1.97991722e-05
1.98004887e-05
1.97985203e-05
1.97979489e-05
1.97984924e-05
1.97987526e-05
1.97985737e-05
1.97984759e-05
1.97985203e-05
1.97985557e-05
1.97985429e-05
1.97985307e-05
1.97985336e-05
1.97985373e-05
1.97985367e-05
1.97985355e-05
1.97985356e-05
1.97985359e-05
1.97985359e-05
1.97985358e-05
1.97985358e-05
1.97985358e-05
1.97985358e-05
1.97985358e-05
1.97985358e-05
1.97985358e-05
1.97985358e-05
1.97985358e-05
1.97985358e-05
1.97985358e-05
1.97985358e-05
1.97985358e-05
1.97985358e-05
1.97985358e-05
1.97985358e-05
1.97985358e-05
1.97985358e-05
1.97985358e-05
1.97985358e-05
1.97985358e-05
1.97985358e-05
1.97985358e-05
1.97985358e-05
1.97985358e-05
1.97985358e-05
1.97985358e-05
1.97985358e-05
1.97985358e-05
1.97985358e-05
1.97985358e-05
1.97985358e-05
1.97985358e-05
1.97985358e-05
1.97985358e-05
1.97985358e-05
1.97985358e-05
1.97985358e-05
1.97985358e-05
1.97985358e-05
1.97985358e-05
1.97985358e-05
1.97985358e-05
1.97985358e-05
1.97985358e-05
1.97985358e-05
1.97985358e-05
1.97985358e-05
1.97985358e-05
1.97985358e-05
1.97985358e-05
1.97985358e-05
1.97985358e-05
1.97985358e-05
1.97985358e-05
1.97985358e-05
1.97985358e-05
1.97985358e-05
1.97985358e-05
1.97985358e-05
1.97985358e-05
1.97985358e-05
1.97985358e-05
1.97985358e-05
1.97985358e-05
1.97985358e-05
1.97985358e-05
1.97985358e-05
1.97985358e-05
1.97985358e-05
1.97985358e-05
1.97985358e-05
1.97985359e-05
1.97985359e-05
1.97985357e-05
1.97985357e-05
1.97985359e-05
1.97985361e-05
1.97985358e-05
1.97985353e-05
1.97985356e-05
1.97985367e-05
1.97985366e-05
1.97985348e-05
1.97985345e-05
1.97985366e-05
1.97985377e-05
1.97985357e-05
1.97985337e-05
1.97985351e-05
1.97985379e-05
1.97985373e-05
1.9798534e-05
1.97985341e-05
1.97985369e-05
1.97985373e-05
1.97985354e-05
1.97985347e-05
1.97985358e-05
1.97985365e-05
1.9798536e-05
1.97985354e-05
1.97985356e-05
1.9798536e-05
1.97985359e-05
1.97985357e-05
1.97985358e-05
1.97985359e-05
1.97985358e-05
1.97985358e-05
1.97985358e-05
1.97985358e-05
1.97985358e-05
1.97985358e-05
1.97985358e-05
1.97985358e-05
1.97985358e-05
1.97985358e-05
1.97985358e-05
1.97985358e-05
1.97985358e-05
1.97985358e-05
1.97985358e-05
1.97985358e-05
1.97985358e-05
1.97985358e-05
1.97985358e-05
1.97985358e-05
1.97985358e-05
1.97985358e-05
1.97985358e-05
1.97985358e-05
1.97985358e-05
1.97985358e-05
1.97985358e-05
1.97985358e-05
1.97985358e-05
1.97985358e-05
1.97985358e-05
1.97985358e-05
1.97985358e-05
1.97985358e-05
1.97985358e-05
1.97985358e-05
1.97985358e-05
1.97985358e-05
1.97985358e-05
1.97985358e-05
1.97985358e-05
1.97985358e-05
1.97985358e-05
1.97985358e-05
1.97985358e-05
1.97985359e-05
1.97985359e-05
1.97985357e-05
1.97985357e-05
1.97985359e-05
1.9798536e-05
1.97985358e-05
1.97985355e-05
1.97985355e-05
1.97985362e-05
1.97985364e-05
1.97985359e-05
1.97985351e-05
1.9798535e-05
1.97985356e-05
1.97985375e-05
1.97985377e-05
1.97985342e-05
1.97985314e-05
1.97985352e-05
1.97985437e-05
1.9798542e-05
1.97985247e-05
1.97985229e-05
1.97985456e-05
1.97985567e-05
1.97985332e-05
1.97985079e-05
1.97985255e-05
1.97985674e-05
1.97985612e-05
1.97985058e-05
1.97985037e-05
1.97985541e-05
1.97985692e-05
1.97985311e-05
1.97985055e-05
1.97985294e-05
1.97985602e-05
1.97985491e-05
1.97985178e-05
1.97985205e-05
1.97985476e-05
1.97985487e-05
1.97985306e-05
1.97985258e-05
1.97985365e-05
1.97985434e-05
1.97985381e-05
1.97985306e-05
1.97985319e-05
1.97985384e-05
1.9798539e-05
1.97985372e-05
1.97985351e-05
1.97985322e-05
1.97985316e-05
1.97985389e-05
1.97985467e-05
1.97985392e-05
1.97985168e-05
1.97985189e-05
1.97985602e-05
1.97985698e-05
1.97985187e-05
1.97984821e-05
1.97985291e-05
1.97986054e-05
1.97985833e-05
1.97984599e-05
1.97984611e-05
1.97985879e-05
1.97986203e-05
1.97985203e-05
1.97984593e-05
1.97985229e-05
1.97985938e-05
1.97985592e-05
1.97984919e-05
1.97985094e-05
1.97985808e-05
1.97985766e-05
1.97984842e-05
1.97984654e-05
1.97985686e-05
1.97986468e-05
1.97985648e-05
1.97983953e-05
1.97984169e-05
1.97986699e-05
1.97987155e-05
1.97984828e-05
1.97983218e-05
1.97984708e-05
1.97987482e-05
1.97987116e-05
1.97983732e-05
1.97983254e-05
1.97985722e-05
1.97987405e-05
1.97986515e-05
1.97983635e-05
1.97983604e-05
1.97985777e-05
1.97987132e-05
1.97986468e-05
1.97983976e-05
1.9798361e-05
1.97985444e-05
1.97987119e-05
1.97986629e-05
1.97984152e-05
1.97983709e-05
1.97985181e-05
1.97986705e-05
1.97986546e-05
1.97984989e-05
1.97984127e-05
1.97984484e-05
1.97986148e-05
1.97986662e-05
1.97985472e-05
1.97984091e-05
1.97984554e-05
1.97986394e-05
1.97986348e-05
1.97984674e-05
1.97984427e-05
1.97985758e-05
1.9798626e-05
1.97985164e-05
1.97984425e-05
1.97985305e-05
1.97986308e-05
1.97985718e-05
1.97984503e-05
1.97984701e-05
1.97986015e-05
1.97986007e-05
1.97985102e-05
1.97984879e-05
1.97985288e-05
1.97985595e-05
1.97985533e-05
1.97985338e-05
1.97985247e-05
1.97985223e-05
1.97985284e-05
1.97985514e-05
1.97985514e-05
1.97985239e-05
1.97985051e-05
1.97985128e-05
1.97985665e-05
1.97985754e-05
1.97985147e-05
1.97984372e-05
1.97984465e-05
1.97986562e-05
1.97986946e-05
1.97984036e-05
1.97981873e-05
1.97984819e-05
1.97989758e-05
1.97987109e-05
1.97979059e-05
1.97979954e-05
1.9799419e-05
1.97992276e-05
1.97971077e-05
1.97977649e-05
1.9803252e-05
1.98011291e-05
1.97874453e-05
1.97920712e-05
1.98353872e-05
1.98288614e-05
1.97600182e-05
1.97610214e-05
2.00147291e-05
2.01128286e-05
1.97551781e-05
1.95911039e-05
1.9795247e-05
2.03145126e-05
2.02948669e-05
1.93543998e-05
1.93308193e-05
1.97254651e-05
2.03614562e-05
2.03892923e-05
2.00006791e-05
1.91156037e-05
1.93573758e-05
2.04418429e-05
2.04149516e-05
2.04101765e-05
2.02910977e-05
1.9200797e-05
1.93875489e-05
2.03605896e-05
2.03532485e-05
2.03195703e-05
2.03143694e-05
2.03134868e-05
2.03221627e-05
2.0349374e-05
2.03794144e-05
2.04415276e-05
2.05505393e-05
2.0754468e-05
2.05493893e-05
2.0385857e-05
2.0230994e-05
2.0101799e-05
2.00120445e-05
1.9936733e-05
1.98523476e-05
1.97902113e-05
1.96847946e-05
1.95768507e-05
1.95435732e-05
1.9415364e-05
1.9278581e-05
1.86803644e-05
2.01414386e-05
2.08933006e-05
2.15382182e-05
2.21770662e-05
2.23864084e-05
2.36999575e-05
2.27861799e-05
2.40658875e-05
2.46692973e-05
2.60786246e-05
2.79197073e-05
3.11272294e-05
3.30508982e-05
3.48946072e-05
3.68872436e-05
3.84522243e-05
3.97013102e-05
4.09169995e-05
4.19932366e-05
4.30061811e-05
4.38879799e-05
4.47789e-05
4.55657617e-05
4.64044728e-05
4.71187642e-05
4.78492565e-05
4.85437987e-05
4.93071925e-05
4.98888264e-05
5.04694066e-05
5.09028929e-05
5.13128462e-05
5.16640755e-05
5.20342475e-05
5.23384132e-05
5.2671818e-05
5.29886271e-05
5.33056511e-05
5.36021481e-05
5.38831203e-05
5.41548716e-05
5.44202621e-05
5.46832338e-05
5.49185763e-05
5.51370704e-05
5.53517912e-05
5.55655284e-05
5.57661419e-05
5.59336686e-05
5.60986814e-05
5.62445426e-05
5.63969316e-05
5.65365174e-05
5.66846571e-05
5.6829123e-05
5.69753937e-05
5.71229478e-05
5.72397672e-05
5.73794749e-05
5.74837336e-05
5.76131702e-05
5.76935225e-05
5.77989306e-05
5.78681926e-05
5.79610296e-05
5.80265241e-05
5.8111518e-05
5.81727078e-05
5.82537575e-05
5.83181281e-05
5.84051138e-05
5.84658464e-05
5.85450241e-05
5.86048216e-05
5.86832702e-05
5.87411778e-05
5.88108979e-05
5.88634433e-05
5.89259825e-05
5.89722852e-05
5.901946e-05
5.90557063e-05
5.90991283e-05
5.91324635e-05
5.91725933e-05
5.92032134e-05
5.92394534e-05
5.92655652e-05
5.92974717e-05
5.9320444e-05
5.93496154e-05
5.93692646e-05
5.93958283e-05
5.94140976e-05
5.9436473e-05
5.94510328e-05
5.9469284e-05
5.9482635e-05
5.94988908e-05
5.95118008e-05
5.95268853e-05
5.95384782e-05
5.95517814e-05
5.95620784e-05
5.95727509e-05
5.9579711e-05
5.95874532e-05
5.95931891e-05
5.95995281e-05
5.96041018e-05
)
;

boundaryField
{
    closed
    {
        type            calculated;
        value           nonuniform List<scalar> 0();
    }
    open
    {
        type            calculated;
        value           nonuniform List<scalar> 0();
    }
    sides
    {
        type            empty;
    }
    procBoundary4to3
    {
        type            processor;
        value           uniform 1.93792874e-05;
    }
    procBoundary4to5
    {
        type            processor;
        value           uniform 5.96091797e-05;
    }
}


// ************************************************************************* //
