/*--------------------------------*- C++ -*----------------------------------*\
| =========                 |                                                 |
| \\      /  F ield         | OpenFOAM: The Open Source CFD Toolbox           |
|  \\    /   O peration     | Version:  2306                                  |
|   \\  /    A nd           | Website:  www.openfoam.com                      |
|    \\/     M anipulation  |                                                 |
\*---------------------------------------------------------------------------*/
FoamFile
{
    version     2.0;
    format      ascii;
    arch        "LSB;label=32;scalar=64";
    class       volScalarField;
    location    "0.00168";
    object      prefDZ_T;
}
// * * * * * * * * * * * * * * * * * * * * * * * * * * * * * * * * * * * * * //

dimensions      [1 -1 -1 -1 0 0 0];

internalField   nonuniform List<scalar> 
531
(
-1.18790255e-09
-1.18759298e-09
-1.23122578e-09
-1.22701809e-09
-1.2002573e-09
-1.18781037e-09
-1.187464e-09
-1.23104631e-09
-1.22701862e-09
-1.19839707e-09
-1.18747135e-09
-1.18722699e-09
-1.23078622e-09
-1.22724776e-09
-1.19665485e-09
-1.18700919e-09
-1.18651689e-09
-1.23086553e-09
-1.22669e-09
-1.19106194e-09
-1.18866112e-09
-1.23052678e-09
-1.22631151e-09
-1.19132038e-09
-1.18929342e-09
-1.23008885e-09
-1.22664866e-09
-1.19827194e-09
-1.18817674e-09
-1.18801072e-09
-1.2304684e-09
-1.22711397e-09
-1.20571246e-09
-1.18834866e-09
-1.18800003e-09
-1.18462027e-09
-1.18424672e-09
-1.23381334e-09
-1.22807891e-09
-1.2301828e-09
-1.22751901e-09
-1.22851783e-09
-1.22669246e-09
-1.22671512e-09
-1.19049325e-09
-1.18559032e-09
-1.1851507e-09
-1.23167468e-09
-1.22838755e-09
-1.19183231e-09
-1.18412749e-09
-1.18513619e-09
-1.23094899e-09
-1.22682399e-09
-1.2279321e-09
-1.19142176e-09
-1.18787608e-09
-1.23008953e-09
-1.22677169e-09
-1.19058232e-09
-1.18928055e-09
-1.22963508e-09
-1.22643063e-09
-1.19796198e-09
-1.18954863e-09
-1.18855882e-09
-1.18799203e-09
-1.18438278e-09
-1.18432266e-09
-1.23226092e-09
-1.22763436e-09
-1.22861408e-09
-1.22660394e-09
-1.22679446e-09
-1.19175864e-09
-1.18911459e-09
-1.22914645e-09
-1.22697029e-09
-1.19604472e-09
-1.1876762e-09
-1.18732392e-09
-1.22969524e-09
-1.22716252e-09
-1.19542056e-09
-1.18709655e-09
-1.18691698e-09
-1.22954988e-09
-1.22746837e-09
-1.19445036e-09
-1.1857684e-09
-1.18633292e-09
-1.22970332e-09
-1.2263794e-09
-1.22739297e-09
-1.1929484e-09
-1.18852504e-09
-1.22862836e-09
-1.22667946e-09
-1.19439082e-09
-1.18899314e-09
-1.18735338e-09
-1.18735991e-09
-1.22990249e-09
-1.22702666e-09
-1.18986632e-09
-1.18853286e-09
-1.22877195e-09
-1.22706487e-09
-1.19570432e-09
-1.18774201e-09
-1.18758182e-09
-1.22858561e-09
-1.22722225e-09
-1.19709624e-09
-1.18728765e-09
-1.18716169e-09
-1.22861971e-09
-1.22753105e-09
-1.19273185e-09
-1.18527166e-09
-1.18546891e-09
-1.22918737e-09
-1.22772151e-09
-1.2270241e-09
-1.22707652e-09
-1.19592642e-09
-1.18627562e-09
-1.18623059e-09
-1.22822214e-09
-1.22715358e-09
-1.18985597e-09
-1.18803565e-09
-1.22811727e-09
-1.22719718e-09
-1.19353347e-09
-1.18703185e-09
-1.18690889e-09
-1.22792853e-09
-1.22732903e-09
-1.1963431e-09
-1.18706884e-09
-1.18709464e-09
-1.22760156e-09
-1.22751709e-09
-1.19658639e-09
-1.18652065e-09
-1.18688196e-09
-1.2288121e-09
-1.22610896e-09
-1.22719907e-09
-1.19532933e-09
-1.18717004e-09
-1.1870062e-09
-1.22774148e-09
-1.22676949e-09
-1.19027834e-09
-1.18870829e-09
-1.22748127e-09
-1.22684183e-09
-1.19620785e-09
-1.18740824e-09
-1.18746632e-09
-1.2273864e-09
-1.22722464e-09
-1.19878904e-09
-1.18730136e-09
-1.18719342e-09
-1.22746491e-09
-1.22655806e-09
-1.19072125e-09
-1.18958006e-09
-1.22721825e-09
-1.22610575e-09
-1.19730537e-09
-1.19000619e-09
-1.18791511e-09
-1.18785429e-09
-1.22806569e-09
-1.22764558e-09
-1.19234277e-09
-1.18539054e-09
-1.18606317e-09
-1.22893416e-09
-1.22716486e-09
-1.22768502e-09
-1.1897037e-09
-1.18943312e-09
-1.22935129e-09
-1.19071845e-09
-1.18528769e-09
-1.22946794e-09
-1.22948176e-09
-1.22904041e-09
-1.22908655e-09
-1.185561e-09
-1.18607859e-09
-1.2296572e-09
-1.19035978e-09
-1.18676895e-09
-1.22896971e-09
-1.22662319e-09
-1.22820378e-09
-1.19777486e-09
-1.18659607e-09
-1.18695247e-09
-1.22727686e-09
-1.22768625e-09
-1.19558858e-09
-1.18635691e-09
-1.18686338e-09
-1.22958031e-09
-1.22750712e-09
-1.22286477e-09
-1.18700296e-09
-1.18772187e-09
-1.22874225e-09
-1.19106126e-09
-1.18737178e-09
-1.22839443e-09
-1.22640329e-09
-1.22785338e-09
-1.19817046e-09
-1.18678411e-09
-1.18703948e-09
-1.22724311e-09
-1.2276045e-09
-1.19425843e-09
-1.18612275e-09
-1.18624346e-09
-1.22751994e-09
-1.22836423e-09
-1.19119257e-09
-1.18337166e-09
-1.18410897e-09
-1.23032181e-09
-1.22839241e-09
-1.22944203e-09
-1.2280348e-09
-1.2278584e-09
-1.2276145e-09
-1.20634993e-09
-1.18828011e-09
-1.18817612e-09
-1.184806e-09
-1.18469524e-09
-1.22909985e-09
-1.22767766e-09
-1.18726604e-09
-1.1875332e-09
-1.22955277e-09
-1.22631513e-09
-1.22923067e-09
-1.20156037e-09
-1.18539997e-09
-1.1872598e-09
-1.22904668e-09
-1.19158412e-09
-1.18613151e-09
-1.22775417e-09
-1.22746094e-09
-1.18839796e-09
-1.18874755e-09
-1.22906734e-09
-1.22613789e-09
-1.2287924e-09
-1.2012629e-09
-1.1863231e-09
-1.18686712e-09
-1.22873164e-09
-1.22638209e-09
-1.22790424e-09
-1.19854789e-09
-1.18864931e-09
-1.18861996e-09
-1.18486511e-09
-1.18488469e-09
-1.23006009e-09
-1.22816728e-09
-1.2291966e-09
-1.22780801e-09
-1.21279683e-09
-1.18730811e-09
-1.18758766e-09
-1.22738172e-09
-1.22681758e-09
-1.19848421e-09
-1.18967532e-09
-1.18746086e-09
-1.18731031e-09
-1.2279789e-09
-1.22705489e-09
-1.18973445e-09
-1.18836347e-09
-1.22711517e-09
-1.22736641e-09
-1.19552295e-09
-1.18687118e-09
-1.18686564e-09
-1.2277278e-09
-1.22724715e-09
-1.19045296e-09
-1.18838692e-09
-1.22712865e-09
-1.22771286e-09
-1.19485444e-09
-1.18590966e-09
-1.18592794e-09
-1.22876535e-09
-1.22738492e-09
-1.18815988e-09
-1.18760997e-09
-1.22949691e-09
-1.226845e-09
-1.22842002e-09
-1.18920174e-09
-1.18753894e-09
-1.22959677e-09
-1.22622099e-09
-1.22898661e-09
-1.19215714e-09
-1.18463081e-09
-1.1845748e-09
-1.22917291e-09
-1.22761076e-09
-1.18957002e-09
-1.18750191e-09
-1.22881131e-09
-1.22688741e-09
-1.19029e-09
-1.18891372e-09
-1.22806225e-09
-1.22658957e-09
-1.19460462e-09
-1.1895906e-09
-1.18717363e-09
-1.1868197e-09
-1.22936171e-09
-1.2273661e-09
-1.18925693e-09
-1.18771032e-09
-1.22952261e-09
-1.22713229e-09
-1.18846247e-09
-1.18765984e-09
-1.23034989e-09
-1.22711354e-09
-1.22855018e-09
-1.22687459e-09
-1.20101615e-09
-1.18956967e-09
-1.18704786e-09
-1.18697898e-09
-1.22875336e-09
-1.2284622e-09
-1.19165e-09
-1.18466299e-09
-1.18469688e-09
-1.22964115e-09
-1.22794699e-09
-1.18892763e-09
-1.18684239e-09
-1.22977151e-09
-1.22735221e-09
-1.18779485e-09
-1.18764205e-09
-1.23003214e-09
-1.22686699e-09
-1.22844277e-09
-1.18990288e-09
-1.18746149e-09
-1.22847719e-09
-1.22751855e-09
-1.18953611e-09
-1.18782251e-09
-1.22780026e-09
-1.22793748e-09
-1.19430968e-09
-1.18620457e-09
-1.18630886e-09
-1.22855116e-09
-1.22749072e-09
-1.19048155e-09
-1.18828656e-09
-1.22755614e-09
-1.227682e-09
-1.19600831e-09
-1.18652722e-09
-1.18669302e-09
-1.22837877e-09
-1.22743913e-09
-1.19032459e-09
-1.18812747e-09
-1.22737178e-09
-1.22782922e-09
-1.1950962e-09
-1.18605639e-09
-1.18611011e-09
-1.22874741e-09
-1.22725265e-09
-1.18983987e-09
-1.18784011e-09
-1.22826292e-09
-1.22681961e-09
-1.18963263e-09
-1.18831034e-09
-1.22800556e-09
-1.2269572e-09
-1.18991395e-09
-1.18845322e-09
-1.22730699e-09
-1.22780204e-09
-1.19533422e-09
-1.18613876e-09
-1.18629641e-09
-1.22863326e-09
-1.22738984e-09
-1.18945949e-09
-1.18774661e-09
-1.22852437e-09
-1.22728396e-09
-1.1884939e-09
-1.18834732e-09
-1.22904305e-09
-1.22633638e-09
-1.22843461e-09
-1.18982207e-09
-1.18832429e-09
-1.22732349e-09
-1.22788509e-09
-1.19522331e-09
-1.18649361e-09
-1.18666898e-09
-1.22811611e-09
-1.22706365e-09
-1.19090239e-09
-1.18947796e-09
-1.22752037e-09
-1.22612659e-09
-1.20080697e-09
-1.19055947e-09
-1.18820267e-09
-1.18824723e-09
-1.22784497e-09
-1.22667002e-09
-1.19725497e-09
-1.18990191e-09
-1.18755896e-09
-1.18788436e-09
-1.22915659e-09
-1.19582782e-09
-1.18634722e-09
-1.22795836e-09
-1.22771734e-09
-1.19025636e-09
-1.18815813e-09
-1.2277815e-09
-1.22813311e-09
-1.19582102e-09
-1.18553203e-09
-1.18552514e-09
-1.23192956e-09
-1.22747246e-09
-1.23205469e-09
-1.22668319e-09
-1.23094738e-09
-1.19069827e-09
-1.18611252e-09
-1.18592957e-09
-1.22872977e-09
-1.22804473e-09
-1.19913918e-09
-1.18663761e-09
-1.18750489e-09
-1.22959753e-09
-1.1940415e-09
-1.18640049e-09
-1.22965373e-09
-1.22801567e-09
-1.18858903e-09
-1.18696368e-09
-1.23128396e-09
-1.22794234e-09
-1.22914513e-09
-1.22810302e-09
-1.19103828e-09
-1.18690075e-09
-1.22901436e-09
-1.22844333e-09
-1.19355933e-09
-1.1852691e-09
-1.1852979e-09
-1.22970862e-09
-1.22695962e-09
-1.22783194e-09
-1.19190197e-09
-1.18829029e-09
-1.18484373e-09
-1.18512092e-09
-1.23110514e-09
-1.2270266e-09
-1.22908394e-09
-1.19299612e-09
-1.18798517e-09
-1.22861379e-09
-1.22696222e-09
-1.1908293e-09
-1.18983732e-09
-1.22839328e-09
-1.22608514e-09
-1.20360958e-09
-1.19071489e-09
-1.1879803e-09
-1.18792784e-09
-1.22857483e-09
-1.22730701e-09
-1.19761292e-09
-1.18721891e-09
-1.18723661e-09
-1.22850777e-09
-1.22741189e-09
-1.19905103e-09
-1.18713555e-09
-1.18717411e-09
-1.22854095e-09
-1.22763957e-09
-1.19804333e-09
-1.18662785e-09
-1.18657586e-09
-1.22933147e-09
-1.22641659e-09
-1.22738692e-09
)
;

boundaryField
{
    closed
    {
        type            calculated;
        value           nonuniform List<scalar> 0();
    }
    open
    {
        type            calculated;
        value           nonuniform List<scalar> 0();
    }
    sides
    {
        type            empty;
    }
    procBoundary3to2
    {
        type            processor;
        value           uniform -1.20071556e-09;
    }
    procBoundary3to4
    {
        type            processor;
        value           uniform -1.1980136e-09;
    }
}


// ************************************************************************* //
