/*--------------------------------*- C++ -*----------------------------------*\
| =========                 |                                                 |
| \\      /  F ield         | OpenFOAM: The Open Source CFD Toolbox           |
|  \\    /   O peration     | Version:  2306                                  |
|   \\  /    A nd           | Website:  www.openfoam.com                      |
|    \\/     M anipulation  |                                                 |
\*---------------------------------------------------------------------------*/
FoamFile
{
    version     2.0;
    format      ascii;
    arch        "LSB;label=32;scalar=64";
    class       volScalarField;
    location    "0.00168";
    object      prefDPV_H2O;
}
// * * * * * * * * * * * * * * * * * * * * * * * * * * * * * * * * * * * * * //

dimensions      [1 -1 -1 0 0 0 0];

internalField   nonuniform List<scalar> 
531
(
-3.64813922e-07
-3.64715612e-07
-3.8571683e-07
-3.84017349e-07
-3.71237074e-07
-3.64763142e-07
-3.64653997e-07
-3.85644483e-07
-3.84018219e-07
-3.70338828e-07
-3.64583747e-07
-3.64507014e-07
-3.85540697e-07
-3.84110734e-07
-3.69506251e-07
-3.64290213e-07
-3.64140618e-07
-3.85571574e-07
-3.83886826e-07
-3.66719335e-07
-3.65370334e-07
-3.85436327e-07
-3.83732212e-07
-3.66851621e-07
-3.65701022e-07
-3.85258167e-07
-3.83867243e-07
-3.70273515e-07
-3.64965438e-07
-3.64913338e-07
-3.85409712e-07
-3.84053593e-07
-3.73834693e-07
-3.65052293e-07
-3.64905523e-07
-3.62818831e-07
-3.62716649e-07
-3.8676454e-07
-3.84446796e-07
-3.85296047e-07
-3.84220546e-07
-3.84623928e-07
-3.83885724e-07
-3.83894687e-07
-3.66463029e-07
-3.63405309e-07
-3.63278062e-07
-3.85896452e-07
-3.8457257e-07
-3.67101051e-07
-3.62585961e-07
-3.63222433e-07
-3.85609091e-07
-3.83938201e-07
-3.84387938e-07
-3.66921855e-07
-3.64827548e-07
-3.85259163e-07
-3.83916886e-07
-3.66476743e-07
-3.65658968e-07
-3.85074632e-07
-3.83778219e-07
-3.70127201e-07
-3.65804102e-07
-3.65248285e-07
-3.64884372e-07
-3.62768825e-07
-3.62752272e-07
-3.86138794e-07
-3.84266466e-07
-3.84663116e-07
-3.83849456e-07
-3.83926509e-07
-3.67088166e-07
-3.65536151e-07
-3.84876773e-07
-3.83996479e-07
-3.69204368e-07
-3.64674914e-07
-3.64564699e-07
-3.85096965e-07
-3.84076121e-07
-3.68888489e-07
-3.64363276e-07
-3.6430766e-07
-3.85038906e-07
-3.84199709e-07
-3.6841775e-07
-3.63578868e-07
-3.63959867e-07
-3.85105013e-07
-3.83758689e-07
-3.84169841e-07
-3.67683295e-07
-3.65213876e-07
-3.84667907e-07
-3.838793e-07
-3.68394062e-07
-3.65481221e-07
-3.64544756e-07
-3.64547396e-07
-3.85184266e-07
-3.84020293e-07
-3.660549e-07
-3.65197636e-07
-3.84725961e-07
-3.8403486e-07
-3.69030335e-07
-3.64723898e-07
-3.64674428e-07
-3.84648964e-07
-3.84099112e-07
-3.69705693e-07
-3.64468942e-07
-3.64429003e-07
-3.84663371e-07
-3.84224678e-07
-3.67564601e-07
-3.63284353e-07
-3.63426299e-07
-3.84896794e-07
-3.84302139e-07
-3.84020577e-07
-3.84041386e-07
-3.69144953e-07
-3.63888057e-07
-3.63909558e-07
-3.84505154e-07
-3.84072806e-07
-3.66075583e-07
-3.64927613e-07
-3.84462754e-07
-3.84089433e-07
-3.67973558e-07
-3.6432992e-07
-3.64292715e-07
-3.84385157e-07
-3.8414304e-07
-3.69341984e-07
-3.64365655e-07
-3.64375745e-07
-3.84253974e-07
-3.84218237e-07
-3.69473705e-07
-3.6399364e-07
-3.64313373e-07
-3.84743471e-07
-3.83649582e-07
-3.84089869e-07
-3.68857998e-07
-3.64387226e-07
-3.64384928e-07
-3.8431058e-07
-3.83917593e-07
-3.6631772e-07
-3.65334706e-07
-3.84206032e-07
-3.83945639e-07
-3.69282855e-07
-3.6458342e-07
-3.64607467e-07
-3.84167872e-07
-3.84100063e-07
-3.70545026e-07
-3.64488852e-07
-3.64496766e-07
-3.84198952e-07
-3.83831855e-07
-3.66572132e-07
-3.65853149e-07
-3.8409948e-07
-3.83646997e-07
-3.69812749e-07
-3.66082847e-07
-3.64875877e-07
-3.64821452e-07
-3.84442568e-07
-3.84270914e-07
-3.67374671e-07
-3.63340799e-07
-3.63774534e-07
-3.84794395e-07
-3.84074714e-07
-3.84286856e-07
-3.65883522e-07
-3.65710972e-07
-3.84962474e-07
-3.66506673e-07
-3.63166732e-07
-3.85010483e-07
-3.85009611e-07
-3.84835338e-07
-3.84852417e-07
-3.63435616e-07
-3.63661316e-07
-3.85087335e-07
-3.66224941e-07
-3.64113883e-07
-3.84808494e-07
-3.83853877e-07
-3.84496454e-07
-3.70018671e-07
-3.64047543e-07
-3.64255306e-07
-3.84123047e-07
-3.84285572e-07
-3.68967463e-07
-3.6383433e-07
-3.64219649e-07
-3.85052286e-07
-3.84212143e-07
-3.81782538e-07
-3.64310495e-07
-3.6462724e-07
-3.8471784e-07
-3.66670855e-07
-3.64503495e-07
-3.84576828e-07
-3.83765574e-07
-3.84354803e-07
-3.70213792e-07
-3.6415166e-07
-3.64318534e-07
-3.84109753e-07
-3.84253656e-07
-3.68309553e-07
-3.63765971e-07
-3.63846944e-07
-3.84221979e-07
-3.84561017e-07
-3.66787709e-07
-3.6209184e-07
-3.62620545e-07
-3.85356358e-07
-3.84572134e-07
-3.8499721e-07
-3.84426398e-07
-3.84353579e-07
-3.84254767e-07
-3.7413254e-07
-3.64973991e-07
-3.64976302e-07
-3.62960539e-07
-3.62970467e-07
-3.84861541e-07
-3.8428404e-07
-3.64397305e-07
-3.64625816e-07
-3.85046544e-07
-3.83730685e-07
-3.84910023e-07
-3.71856395e-07
-3.63260484e-07
-3.6447315e-07
-3.84839811e-07
-3.66981104e-07
-3.63738403e-07
-3.84318454e-07
-3.84194236e-07
-3.6509965e-07
-3.65306797e-07
-3.84850079e-07
-3.83658567e-07
-3.84731971e-07
-3.71715267e-07
-3.63800942e-07
-3.64255246e-07
-3.84711202e-07
-3.83758277e-07
-3.84371188e-07
-3.70404442e-07
-3.65137044e-07
-3.6525109e-07
-3.62953669e-07
-3.63051916e-07
-3.85251659e-07
-3.8448005e-07
-3.84897348e-07
-3.84333878e-07
-3.7715351e-07
-3.64466875e-07
-3.64602763e-07
-3.84167554e-07
-3.83934101e-07
-3.70372239e-07
-3.65878487e-07
-3.64560548e-07
-3.64515973e-07
-3.84409762e-07
-3.84031919e-07
-3.65944383e-07
-3.65088285e-07
-3.84060999e-07
-3.8415628e-07
-3.6894502e-07
-3.64190539e-07
-3.64260792e-07
-3.8430673e-07
-3.84109378e-07
-3.66361055e-07
-3.65073357e-07
-3.84066009e-07
-3.84295617e-07
-3.68615068e-07
-3.63590348e-07
-3.63720175e-07
-3.84726411e-07
-3.84166033e-07
-3.64962356e-07
-3.64680691e-07
-3.8502688e-07
-3.83945554e-07
-3.84585122e-07
-3.65600719e-07
-3.6463357e-07
-3.85066601e-07
-3.83694125e-07
-3.84811984e-07
-3.67290531e-07
-3.62804897e-07
-3.6295793e-07
-3.84890126e-07
-3.84258511e-07
-3.65732431e-07
-3.64625891e-07
-3.84744365e-07
-3.83963951e-07
-3.66163432e-07
-3.65428545e-07
-3.8444089e-07
-3.83842122e-07
-3.68438709e-07
-3.65795126e-07
-3.64296995e-07
-3.64191835e-07
-3.84966428e-07
-3.84157201e-07
-3.65514168e-07
-3.64721101e-07
-3.85031758e-07
-3.84062539e-07
-3.65035281e-07
-3.64695945e-07
-3.85369233e-07
-3.84054509e-07
-3.84634494e-07
-3.83957539e-07
-3.71572089e-07
-3.6577842e-07
-3.64270034e-07
-3.64244972e-07
-3.84723245e-07
-3.84598674e-07
-3.67014253e-07
-3.62803124e-07
-3.62971054e-07
-3.85079086e-07
-3.84393089e-07
-3.6531525e-07
-3.64209145e-07
-3.85133966e-07
-3.84151514e-07
-3.64681044e-07
-3.64673035e-07
-3.85242578e-07
-3.83953334e-07
-3.84592012e-07
-3.65985788e-07
-3.64514774e-07
-3.84612068e-07
-3.84217772e-07
-3.65794709e-07
-3.64719635e-07
-3.84338473e-07
-3.84385781e-07
-3.68337687e-07
-3.63734668e-07
-3.63914227e-07
-3.84639518e-07
-3.84207606e-07
-3.66311639e-07
-3.65001925e-07
-3.84238966e-07
-3.84282425e-07
-3.69168383e-07
-3.63940931e-07
-3.64137893e-07
-3.84570621e-07
-3.84186817e-07
-3.66241539e-07
-3.64911343e-07
-3.84165364e-07
-3.84342098e-07
-3.68733671e-07
-3.63650588e-07
-3.63842753e-07
-3.84719352e-07
-3.84113274e-07
-3.65891418e-07
-3.6483988e-07
-3.84524701e-07
-3.83937322e-07
-3.65792049e-07
-3.65106416e-07
-3.8442116e-07
-3.83992026e-07
-3.65997991e-07
-3.65130935e-07
-3.84139632e-07
-3.8433113e-07
-3.68851294e-07
-3.63701113e-07
-3.63959827e-07
-3.84673843e-07
-3.84168725e-07
-3.65659444e-07
-3.64800738e-07
-3.84631499e-07
-3.8412488e-07
-3.65132045e-07
-3.65164682e-07
-3.84843368e-07
-3.83740612e-07
-3.84587785e-07
-3.65997259e-07
-3.65041581e-07
-3.84147824e-07
-3.84364993e-07
-3.68807957e-07
-3.63925713e-07
-3.64198163e-07
-3.84465006e-07
-3.84036397e-07
-3.66532361e-07
-3.65811981e-07
-3.8422458e-07
-3.83655378e-07
-3.71487556e-07
-3.6642901e-07
-3.64958206e-07
-3.65086028e-07
-3.84356128e-07
-3.83875197e-07
-3.69767329e-07
-3.66006038e-07
-3.64581196e-07
-3.64846797e-07
-3.84887012e-07
-3.69082054e-07
-3.63881522e-07
-3.84403587e-07
-3.84298186e-07
-3.66207686e-07
-3.64908396e-07
-3.84331338e-07
-3.84463641e-07
-3.69078939e-07
-3.63246728e-07
-3.63469107e-07
-3.86002848e-07
-3.84200053e-07
-3.86045249e-07
-3.83880428e-07
-3.8560076e-07
-3.6651405e-07
-3.63532346e-07
-3.63664576e-07
-3.84708489e-07
-3.8442964e-07
-3.7067063e-07
-3.63997709e-07
-3.64559764e-07
-3.85062651e-07
-3.68171575e-07
-3.63876366e-07
-3.85086761e-07
-3.84417902e-07
-3.65115094e-07
-3.6424306e-07
-3.85749184e-07
-3.84389521e-07
-3.84875229e-07
-3.8445526e-07
-3.66617731e-07
-3.64207259e-07
-3.84828729e-07
-3.84591394e-07
-3.679531e-07
-3.63192468e-07
-3.63316312e-07
-3.85108605e-07
-3.83991487e-07
-3.84342131e-07
-3.67125311e-07
-3.64987096e-07
-3.63007409e-07
-3.63188824e-07
-3.8567824e-07
-3.84018426e-07
-3.84852276e-07
-3.67670231e-07
-3.64871458e-07
-3.84666298e-07
-3.83993141e-07
-3.66516291e-07
-3.65984702e-07
-3.84576992e-07
-3.83637756e-07
-3.72836612e-07
-3.6651268e-07
-3.64842215e-07
-3.64878446e-07
-3.84650463e-07
-3.84132909e-07
-3.69952741e-07
-3.64393562e-07
-3.64469785e-07
-3.84622394e-07
-3.84175487e-07
-3.70647943e-07
-3.64349617e-07
-3.64414125e-07
-3.84635578e-07
-3.84267198e-07
-3.70162054e-07
-3.6402528e-07
-3.6408013e-07
-3.84953534e-07
-3.83772252e-07
-3.84162852e-07
)
;

boundaryField
{
    closed
    {
        type            calculated;
        value           nonuniform List<scalar> 0();
    }
    open
    {
        type            calculated;
        value           nonuniform List<scalar> 0();
    }
    sides
    {
        type            empty;
    }
    procBoundary3to2
    {
        type            processor;
        value           uniform -3.71454444e-07;
    }
    procBoundary3to4
    {
        type            processor;
        value           uniform -3.70144768e-07;
    }
}


// ************************************************************************* //
