/*--------------------------------*- C++ -*----------------------------------*\
| =========                 |                                                 |
| \\      /  F ield         | OpenFOAM: The Open Source CFD Toolbox           |
|  \\    /   O peration     | Version:  2306                                  |
|   \\  /    A nd           | Website:  www.openfoam.com                      |
|    \\/     M anipulation  |                                                 |
\*---------------------------------------------------------------------------*/
FoamFile
{
    version     2.0;
    format      ascii;
    arch        "LSB;label=32;scalar=64";
    class       volScalarField;
    location    "0.00186";
    object      prefDPV_T;
}
// * * * * * * * * * * * * * * * * * * * * * * * * * * * * * * * * * * * * * //

dimensions      [1 -1 -1 -1 0 0 0];

internalField   nonuniform List<scalar> 
530
(
-3.96124883e-11
-3.97073665e-11
-3.98048979e-11
-3.9896027e-11
-3.99894857e-11
-4.00770334e-11
-4.01666542e-11
-4.02507829e-11
-4.03367834e-11
-4.041765e-11
-4.05002332e-11
-4.05779893e-11
-4.06573448e-11
-4.07321362e-11
-4.08084417e-11
-4.08804001e-11
-4.09538064e-11
-4.10238832e-11
-4.10959212e-11
-4.11639978e-11
-4.12334325e-11
-4.1299069e-11
-4.13660235e-11
-4.14293255e-11
-4.14939156e-11
-4.15549844e-11
-4.16173192e-11
-4.16762527e-11
-4.17364351e-11
-4.17933275e-11
-4.18514549e-11
-4.19063969e-11
-4.19625618e-11
-4.20156404e-11
-4.20699311e-11
-4.21212301e-11
-4.21737309e-11
-4.22233305e-11
-4.22741226e-11
-4.23220996e-11
-4.23712611e-11
-4.24179086e-11
-4.2466453e-11
-4.25124236e-11
-4.25595256e-11
-4.26041629e-11
-4.26498698e-11
-4.26932167e-11
-4.27375735e-11
-4.27796719e-11
-4.2822722e-11
-4.2863613e-11
-4.29053975e-11
-4.29451215e-11
-4.29856796e-11
-4.30242766e-11
-4.30636455e-11
-4.3101155e-11
-4.31393698e-11
-4.31758309e-11
-4.32129249e-11
-4.32483763e-11
-4.32843811e-11
-4.33188605e-11
-4.33546553e-11
-4.33895833e-11
-4.34244514e-11
-4.3458412e-11
-4.34922458e-11
-4.35252787e-11
-4.35581114e-11
-4.35902541e-11
-4.36221187e-11
-4.36534064e-11
-4.36843361e-11
-4.37148021e-11
-4.37448298e-11
-4.37745055e-11
-4.38036643e-11
-4.38325795e-11
-4.38609024e-11
-4.38890856e-11
-4.39166053e-11
-4.39443854e-11
-4.3971568e-11
-4.39988327e-11
-4.40252802e-11
-4.40519168e-11
-4.40776483e-11
-4.41036698e-11
-4.41287031e-11
-4.41541224e-11
-4.41784747e-11
-4.42033045e-11
-4.4226992e-11
-4.42512449e-11
-4.42742832e-11
-4.42979714e-11
-4.43203753e-11
-4.43435108e-11
-4.43652947e-11
-4.43878891e-11
-4.44090669e-11
-4.44311315e-11
-4.44517165e-11
-4.44732624e-11
-4.44932675e-11
-4.45143052e-11
-4.4533743e-11
-4.45542829e-11
-4.45731653e-11
-4.45932173e-11
-4.46115562e-11
-4.463113e-11
-4.46489367e-11
-4.46680418e-11
-4.46853272e-11
-4.47039726e-11
-4.47207474e-11
-4.47389421e-11
-4.47552166e-11
-4.47729692e-11
-4.47887533e-11
-4.48060723e-11
-4.48213756e-11
-4.48382692e-11
-4.48531009e-11
-4.48695773e-11
-4.48839463e-11
-4.49000135e-11
-4.49139283e-11
-4.49295942e-11
-4.4943063e-11
-4.49583353e-11
-4.4971366e-11
-4.49862525e-11
-4.49988525e-11
-4.50133608e-11
-4.50255373e-11
-4.5039675e-11
-4.5051435e-11
-4.50652093e-11
-4.50765596e-11
-4.50899776e-11
-4.5100925e-11
-4.51139935e-11
-4.51245446e-11
-4.51372701e-11
-4.51474315e-11
-4.51598202e-11
-4.51695987e-11
-4.51816562e-11
-4.51910589e-11
-4.52027901e-11
-4.52118244e-11
-4.52232334e-11
-4.5231908e-11
-4.52429973e-11
-4.52513221e-11
-4.5262093e-11
-4.52700793e-11
-4.52805328e-11
-4.52881905e-11
-4.52983315e-11
-4.53056641e-11
-4.53153301e-11
-4.53226785e-11
-4.53317168e-11
-4.53390722e-11
-4.53475018e-11
-4.53548573e-11
-4.53626977e-11
-4.53700434e-11
-4.53773177e-11
-4.53846395e-11
-4.53913736e-11
-4.53986573e-11
-4.5404876e-11
-4.54119875e-11
-4.5417814e-11
-4.54247903e-11
-4.54303192e-11
-4.5437046e-11
-4.54422865e-11
-4.54485934e-11
-4.54534898e-11
-4.54595729e-11
-4.54642693e-11
-4.54701286e-11
-4.54746269e-11
-4.54802644e-11
-4.54845653e-11
-4.54899834e-11
-4.54940874e-11
-4.54992885e-11
-4.55031961e-11
-4.55081823e-11
-4.55118943e-11
-4.55166672e-11
-4.55201848e-11
-4.55247455e-11
-4.55280702e-11
-4.55324198e-11
-4.55355535e-11
-4.55396925e-11
-4.55426371e-11
-4.55465662e-11
-4.55493239e-11
-4.55530436e-11
-4.55556165e-11
-4.55591274e-11
-4.55615176e-11
-4.55648204e-11
-4.556703e-11
-4.55701254e-11
-4.55721565e-11
-4.55750453e-11
-4.55768998e-11
-4.55795829e-11
-4.55812628e-11
-4.55837413e-11
-4.55852484e-11
-4.55875233e-11
-4.55888596e-11
-4.5590932e-11
-4.55920994e-11
-4.55939703e-11
-4.55949708e-11
-4.55966414e-11
-4.55974768e-11
-4.55989483e-11
-4.55996204e-11
-4.56008944e-11
-4.56014047e-11
-4.56024828e-11
-4.56028325e-11
-4.56037171e-11
-4.5603907e-11
-4.56046006e-11
-4.5604631e-11
-4.5605137e-11
-4.56050078e-11
-4.560533e-11
-4.56050409e-11
-4.56051832e-11
-4.56047341e-11
-4.56047001e-11
-4.56040925e-11
-4.56038828e-11
-4.5603177e-11
-4.56027371e-11
-4.5601876e-11
-4.56012606e-11
-4.56002504e-11
-4.55994576e-11
-4.55983044e-11
-4.55973332e-11
-4.5596041e-11
-4.55948924e-11
-4.55934635e-11
-4.55921399e-11
-4.55905749e-11
-4.55890801e-11
-4.55873789e-11
-4.55857168e-11
-4.55838791e-11
-4.55820539e-11
-4.55800797e-11
-4.55780951e-11
-4.55759847e-11
-4.55738441e-11
-4.55715981e-11
-4.55693049e-11
-4.55669242e-11
-4.55644814e-11
-4.5561967e-11
-4.55593776e-11
-4.55567308e-11
-4.55539976e-11
-4.55512197e-11
-4.55483455e-11
-4.5545438e-11
-4.55424254e-11
-4.55393898e-11
-4.55362416e-11
-4.55330794e-11
-4.55297983e-11
-4.55265112e-11
-4.55230998e-11
-4.55196894e-11
-4.55161504e-11
-4.55126184e-11
-4.55089545e-11
-4.55053025e-11
-4.55015166e-11
-4.54977461e-11
-4.54938411e-11
-4.54899537e-11
-4.54859326e-11
-4.54817291e-11
-4.5477334e-11
-4.5472953e-11
-4.54684434e-11
-4.5463951e-11
-4.54593301e-11
-4.54547282e-11
-4.54499989e-11
-4.54452897e-11
-4.54404548e-11
-4.54356404e-11
-4.54307026e-11
-4.54257856e-11
-4.54207475e-11
-4.54157301e-11
-4.54105943e-11
-4.54054793e-11
-4.54002483e-11
-4.5395038e-11
-4.53897146e-11
-4.53844116e-11
-4.53789981e-11
-4.5373605e-11
-4.53681042e-11
-4.53626234e-11
-4.53570379e-11
-4.53514719e-11
-4.53458044e-11
-4.53401557e-11
-4.53344089e-11
-4.532868e-11
-4.53228564e-11
-4.53170498e-11
-4.53111523e-11
-4.53052703e-11
-4.52993016e-11
-4.52933467e-11
-4.52873096e-11
-4.5281284e-11
-4.52751812e-11
-4.52690875e-11
-4.52629216e-11
-4.52567629e-11
-4.52505359e-11
-4.52443161e-11
-4.52380925e-11
-4.52318745e-11
-4.52255878e-11
-4.52193015e-11
-4.52129487e-11
-4.52065975e-11
-4.52001812e-11
-4.5193768e-11
-4.51872914e-11
-4.5180819e-11
-4.51742851e-11
-4.51677564e-11
-4.51611684e-11
-4.51545861e-11
-4.51479471e-11
-4.51413139e-11
-4.51346268e-11
-4.51279458e-11
-4.51212135e-11
-4.51144874e-11
-4.51077128e-11
-4.51009444e-11
-4.50941302e-11
-4.50873224e-11
-4.50804715e-11
-4.5073627e-11
-4.50667421e-11
-4.50598637e-11
-4.50529474e-11
-4.50460379e-11
-4.5039093e-11
-4.5032155e-11
-4.50251841e-11
-4.50182202e-11
-4.50112259e-11
-4.50042388e-11
-4.49972238e-11
-4.4990216e-11
-4.49831828e-11
-4.49761568e-11
-4.4969108e-11
-4.49620662e-11
-4.49550042e-11
-4.49479493e-11
-4.49408765e-11
-4.49338109e-11
-4.49267296e-11
-4.49196559e-11
-4.49125681e-11
-4.49054892e-11
-4.48983967e-11
-4.48913153e-11
-4.48842198e-11
-4.48771387e-11
-4.48698804e-11
-4.48624919e-11
-4.48550954e-11
-4.48477162e-11
-4.48403331e-11
-4.4832966e-11
-4.48255979e-11
-4.48182453e-11
-4.48108938e-11
-4.4803558e-11
-4.47962248e-11
-4.4788908e-11
-4.47815949e-11
-4.4774299e-11
-4.47670079e-11
-4.47597348e-11
-4.47524676e-11
-4.47452192e-11
-4.47379777e-11
-4.47307557e-11
-4.47235418e-11
-4.4716348e-11
-4.47091634e-11
-4.47019995e-11
-4.4694846e-11
-4.46877138e-11
-4.4680593e-11
-4.46734941e-11
-4.46664078e-11
-4.46593438e-11
-4.46522936e-11
-4.46452661e-11
-4.46382535e-11
-4.46312642e-11
-4.46242907e-11
-4.4617341e-11
-4.46104082e-11
-4.46034996e-11
-4.4596609e-11
-4.45897429e-11
-4.4582896e-11
-4.45760737e-11
-4.45692718e-11
-4.45624948e-11
-4.45557394e-11
-4.4549009e-11
-4.45423012e-11
-4.45356187e-11
-4.45289598e-11
-4.45223266e-11
-4.45157178e-11
-4.45091352e-11
-4.45025774e-11
-4.44960469e-11
-4.44895342e-11
-4.44828123e-11
-4.44756405e-11
-4.44679995e-11
-4.44598509e-11
-4.4451181e-11
-4.44419736e-11
-4.44322362e-11
-4.44218678e-11
-4.44108526e-11
-4.43991484e-11
-4.43867294e-11
-4.43735616e-11
-4.43596168e-11
-4.43448654e-11
-4.43292841e-11
-4.43128478e-11
-4.42955432e-11
-4.42773538e-11
-4.42582799e-11
-4.42383207e-11
-4.42174946e-11
-4.41958251e-11
-4.41733542e-11
-4.41501401e-11
-4.41262531e-11
-4.4101797e-11
-4.40757291e-11
-4.40492119e-11
-4.4022545e-11
-4.39959288e-11
-4.39695822e-11
-4.39437462e-11
-4.39186776e-11
-4.38946425e-11
-4.38719063e-11
-4.38507256e-11
-4.38313301e-11
-4.38139155e-11
-4.37986203e-11
-4.37855247e-11
-4.37746261e-11
-4.37658543e-11
-4.37590504e-11
-4.37540042e-11
-4.37504436e-11
-4.37480854e-11
-4.37466341e-11
-4.37458475e-11
-4.37454568e-11
-4.37454058e-11
-4.37452809e-11
-4.37451067e-11
-4.37450189e-11
-4.37449874e-11
-4.3744971e-11
-4.37449646e-11
-4.37449624e-11
-4.37449616e-11
-4.37449614e-11
-4.37449614e-11
-4.37449614e-11
-4.37449614e-11
-4.37449614e-11
-4.37449614e-11
-4.37449614e-11
-4.37449614e-11
-4.37449614e-11
-4.37449614e-11
-4.37449614e-11
-4.37449614e-11
-4.37449614e-11
-4.37449614e-11
-4.37449614e-11
-4.37449614e-11
-4.37449614e-11
-4.37449614e-11
-4.37449614e-11
)
;

boundaryField
{
    closed
    {
        type            calculated;
        value           nonuniform List<scalar> 0();
    }
    open
    {
        type            calculated;
        value           uniform -4.37449614e-11;
    }
    sides
    {
        type            empty;
    }
    procBoundary5to4
    {
        type            processor;
        value           uniform -3.951087e-11;
    }
}


// ************************************************************************* //
