/*--------------------------------*- C++ -*----------------------------------*\
| =========                 |                                                 |
| \\      /  F ield         | OpenFOAM: The Open Source CFD Toolbox           |
|  \\    /   O peration     | Version:  2306                                  |
|   \\  /    A nd           | Website:  www.openfoam.com                      |
|    \\/     M anipulation  |                                                 |
\*---------------------------------------------------------------------------*/
FoamFile
{
    version     2.0;
    format      ascii;
    arch        "LSB;label=32;scalar=64";
    class       volScalarField;
    location    "0.00186";
    object      prefDh_H2;
}
// * * * * * * * * * * * * * * * * * * * * * * * * * * * * * * * * * * * * * //

dimensions      [1 1 -3 0 0 0 0];

internalField   nonuniform List<scalar> 
530
(
3980.04664
3986.22037
3992.14062
3998.12431
4003.82801
4009.63112
4015.13291
4020.76461
4026.07816
4031.54752
4036.68553
4042.00159
4046.97599
4052.14776
4056.97505
4062.02444
4066.71694
4071.50364
4075.84045
4080.41223
4084.62527
4089.07836
4093.17371
4097.51377
4101.49742
4105.72973
4109.60754
4113.73709
4117.51478
4121.5464
4125.22947
4129.16788
4132.76162
4136.61151
4140.121
4143.88707
4147.31715
4151.00418
4154.35945
4157.97234
4161.25716
4164.77063
4167.86122
4171.20269
4174.22637
4177.49755
4180.45584
4183.65913
4186.55366
4189.69121
4192.52372
4195.5975
4198.36976
4201.38162
4204.09539
4207.04714
4209.70411
4212.59753
4215.19935
4218.03619
4220.58443
4223.36645
4225.86265
4228.59159
4231.09485
4233.86707
4236.32761
4239.04564
4241.45551
4244.12134
4246.4822
4249.09779
4251.41127
4253.97855
4256.24629
4258.76715
4260.99079
4263.46717
4265.64829
4268.08214
4270.22229
4272.61565
4274.71625
4277.02867
4279.02939
4281.27968
4283.23925
4285.44615
4287.36459
4289.52887
4291.40633
4293.5286
4295.36528
4297.44607
4299.24222
4301.28197
4303.03782
4305.03695
4306.75274
4308.71161
4310.38757
4312.30652
4313.94286
4315.82222
4317.41915
4319.25918
4320.8169
4322.61788
4324.13656
4325.89873
4327.37856
4329.10213
4330.54327
4332.22845
4333.63105
4335.27801
4336.64223
4338.25114
4339.57712
4341.14813
4342.436
4343.96925
4345.21914
4346.71475
4347.92678
4349.38486
4350.55914
4351.9798
4353.11645
4354.49978
4355.5989
4356.94499
4358.00667
4359.31561
4360.33996
4361.61182
4362.59892
4363.83381
4364.78371
4365.98174
4366.89449
4368.05578
4368.9314
4370.05613
4370.89461
4371.98295
4372.78428
4373.83642
4374.6006
4375.61669
4376.34377
4377.32391
4378.01402
4378.95821
4379.61157
4380.5197
4381.13662
4382.00853
4382.58936
4383.42485
4383.97007
4384.76885
4385.27908
4386.04117
4386.51645
4387.21977
4387.70395
4388.32914
4388.81919
4389.36976
4389.86259
4390.34238
4390.83432
4391.2478
4391.73453
4392.08687
4392.5636
4392.86035
4393.31016
4393.56013
4393.99692
4394.2039
4394.61514
4394.78239
4395.16874
4395.29799
4395.65446
4395.74458
4396.07041
4396.1218
4396.41658
4396.4295
4396.69286
4396.66763
4396.89915
4396.83609
4397.03536
4396.93485
4397.10143
4396.96383
4397.09733
4396.923
4397.02305
4396.81233
4396.87859
4396.63183
4396.664
4396.38151
4396.37932
4396.06141
4396.02463
4395.67158
4395.60001
4395.21211
4395.10559
4394.68309
4394.54148
4394.08465
4393.90783
4393.41693
4393.20482
4392.68009
4392.43262
4391.87435
4391.59144
4390.99989
4390.6815
4390.05696
4389.70306
4389.04581
4388.65639
4387.96669
4387.54181
4386.81985
4386.35967
4385.60556
4385.11034
4384.32406
4383.79428
4382.97565
4382.41197
4381.56064
4380.96392
4380.07947
4379.45071
4378.53277
4377.87278
4376.92204
4376.22913
4375.27519
4374.5216
4373.53829
4372.74784
4371.73867
4370.90968
4369.87651
4369.00827
4367.95219
4367.04468
4365.96606
4365.01987
4363.91854
4362.93459
4361.81018
4360.78952
4359.64162
4358.58531
4357.41355
4356.32258
4355.1267
4354.00199
4352.78183
4351.62424
4350.3797
4349.19003
4347.92109
4346.70011
4345.40681
4344.15524
4342.83766
4341.55622
4340.21447
4338.90384
4337.53808
4336.19895
4334.80936
4333.44238
4332.02919
4330.63501
4329.19845
4327.77773
4326.31807
4324.87142
4323.38897
4321.91703
4320.41209
4318.91547
4317.38838
4315.8677
4314.32131
4312.78037
4311.21348
4309.64972
4308.06194
4306.47598
4304.86773
4303.26017
4301.6319
4300.00333
4298.35549
4296.70653
4295.03959
4293.37083
4291.68528
4289.9973
4288.29364
4286.58704
4284.86579
4283.14116
4281.40283
4279.66077
4277.90588
4276.147
4274.37608
4272.60096
4270.81457
4269.02382
4267.22249
4265.41671
4263.601
4261.78079
4259.95126
4258.11723
4256.27443
4254.42719
4252.5717
4250.71185
4248.84424
4246.97238
4245.09323
4243.20997
4241.31987
4239.4258
4237.52536
4235.62953
4233.72804
4231.82254
4229.91114
4227.99592
4226.07525
4224.15093
4222.22161
4220.28881
4218.35145
4216.41082
4214.46602
4212.51818
4210.56656
4208.61213
4206.65431
4204.69392
4202.73049
4200.76476
4198.79635
4196.82589
4194.85309
4192.87851
4190.90193
4188.92384
4186.94408
4184.96309
4182.98075
4180.99745
4179.01312
4177.02811
4175.04238
4173.05625
4171.0697
4169.08304
4167.09625
4165.10963
4163.12317
4161.13717
4159.15161
4157.16679
4155.1827
4153.19962
4151.21755
4149.23677
4147.25727
4145.27932
4143.30294
4141.32836
4139.35565
4137.38496
4135.41644
4133.45015
4131.48635
4129.52592
4127.5693
4125.6156
4123.66506
4121.71774
4119.77377
4117.8333
4115.89639
4113.96322
4112.03384
4110.10842
4108.18703
4106.26982
4104.35687
4102.44831
4100.54423
4098.64476
4096.74998
4094.86002
4092.97497
4091.09493
4089.22001
4087.3503
4085.48592
4083.62695
4081.7735
4079.92564
4078.0835
4076.24715
4074.41669
4072.5922
4070.77379
4068.96153
4067.15552
4065.35584
4063.56257
4061.7758
4059.99562
4058.2221
4056.45531
4054.69535
4052.94228
4051.1962
4049.45715
4047.72525
4046.00051
4044.28306
4042.57292
4040.87022
4039.17495
4037.48724
4035.80712
4034.13467
4032.46994
4030.81124
4029.09984
4027.27592
4025.33306
4023.2643
4021.06297
4018.72705
4016.25205
4013.62271
4010.83192
4007.8721
4004.73606
4001.4168
3997.90763
3994.20252
3990.29605
3986.18381
3981.86261
3977.33068
3972.58817
3967.63728
3962.48295
3957.13303
3951.59886
3945.89586
3940.04351
3934.06675
3927.98273
3921.83855
3915.67611
3909.54176
3903.48649
3897.56572
3891.83768
3886.36217
3881.19797
3876.40075
3872.01962
3868.09445
3864.65262
3861.70643
3859.25188
3857.26734
3855.7162
3854.54759
3853.70332
3853.11979
3852.73669
3852.49898
3852.35991
3852.28747
3852.24039
3852.20976
3852.1948
3852.18966
3852.1871
3852.18614
3852.18584
3852.18574
3852.18572
3852.18571
3852.18571
3852.18571
3852.18571
3852.18571
3852.18571
3852.18571
3852.18571
3852.18571
3852.18571
3852.18571
3852.18571
3852.18571
3852.18571
3852.18571
3852.18571
3852.18571
3852.18571
)
;

boundaryField
{
    closed
    {
        type            calculated;
        value           nonuniform List<scalar> 0();
    }
    open
    {
        type            calculated;
        value           uniform 3852.18571;
    }
    sides
    {
        type            empty;
    }
    procBoundary5to4
    {
        type            processor;
        value           uniform 3973.75041;
    }
}


// ************************************************************************* //
