/*--------------------------------*- C++ -*----------------------------------*\
| =========                 |                                                 |
| \\      /  F ield         | OpenFOAM: The Open Source CFD Toolbox           |
|  \\    /   O peration     | Version:  2306                                  |
|   \\  /    A nd           | Website:  www.openfoam.com                      |
|    \\/     M anipulation  |                                                 |
\*---------------------------------------------------------------------------*/
FoamFile
{
    version     2.0;
    format      ascii;
    arch        "LSB;label=32;scalar=64";
    class       volScalarField;
    location    "0.00186";
    object      prefDh_H2O;
}
// * * * * * * * * * * * * * * * * * * * * * * * * * * * * * * * * * * * * * //

dimensions      [1 1 -3 0 0 0 0];

internalField   nonuniform List<scalar> 
530
(
-203.07974
-203.213844
-203.346934
-203.475378
-203.602543
-203.725596
-203.847199
-203.965118
-204.081495
-204.194529
-204.305993
-204.414384
-204.521223
-204.625206
-204.727352
-204.826242
-204.923579
-205.015388
-205.104058
-205.190494
-205.275887
-205.359124
-205.441399
-205.521582
-205.60089
-205.67816
-205.754644
-205.829133
-205.902929
-205.974768
-206.046003
-206.115318
-206.184115
-206.251026
-206.317502
-206.382126
-206.446392
-206.508843
-206.571006
-206.631393
-206.691556
-206.74948
-206.805634
-206.860155
-206.914565
-206.967401
-207.020124
-207.071337
-207.122431
-207.172082
-207.221602
-207.269749
-207.317748
-207.364448
-207.410978
-207.456287
-207.501396
-207.545368
-207.589103
-207.631793
-207.674197
-207.715658
-207.756773
-207.797058
-207.83791
-207.878665
-207.918407
-207.957981
-207.996495
-208.034942
-208.072269
-208.109641
-208.145826
-208.182171
-208.217257
-208.252621
-208.286652
-208.321079
-208.354098
-208.38763
-208.419681
-208.452359
-208.483484
-208.514968
-208.544706
-208.575302
-208.60422
-208.634106
-208.662227
-208.691422
-208.718768
-208.747292
-208.773885
-208.801755
-208.827617
-208.854851
-208.880003
-208.906618
-208.931078
-208.957092
-208.98088
-209.006309
-209.029442
-209.054302
-209.076799
-209.101105
-209.122983
-209.14675
-209.168025
-209.191268
-209.211957
-209.23469
-209.254808
-209.277045
-209.296608
-209.318361
-209.337383
-209.358666
-209.377161
-209.397986
-209.41597
-209.436348
-209.453833
-209.473777
-209.490776
-209.510297
-209.526823
-209.545933
-209.561998
-209.580707
-209.596322
-209.614643
-209.629819
-209.647761
-209.66251
-209.680083
-209.694414
-209.71163
-209.725554
-209.742422
-209.755948
-209.772479
-209.785616
-209.80182
-209.814577
-209.830462
-209.842848
-209.858425
-209.870448
-209.885724
-209.897394
-209.912378
-209.923704
-209.938402
-209.949394
-209.963812
-209.97448
-209.988622
-209.99898
-210.012847
-210.02291
-210.036504
-210.046285
-210.059611
-210.069115
-210.081926
-210.091667
-210.103735
-210.113694
-210.125052
-210.135212
-210.145894
-210.156231
-210.16628
-210.176763
-210.186228
-210.196822
-210.205752
-210.216202
-210.224807
-210.235196
-210.243657
-210.253766
-210.262125
-210.272579
-210.281405
-210.291601
-210.300373
-210.310321
-210.319031
-210.328743
-210.337386
-210.346872
-210.355441
-210.36471
-210.3732
-210.382259
-210.390667
-210.399523
-210.407845
-210.416503
-210.424737
-210.433203
-210.441347
-210.449624
-210.457677
-210.465768
-210.47373
-210.481639
-210.489508
-210.497238
-210.505014
-210.512568
-210.520251
-210.527632
-210.53522
-210.54243
-210.549924
-210.556966
-210.564364
-210.571242
-210.578544
-210.585259
-210.592465
-210.59902
-210.606129
-210.612525
-210.619538
-210.625778
-210.632695
-210.63878
-210.6456
-210.651532
-210.658256
-210.664036
-210.670664
-210.676294
-210.682826
-210.688307
-210.694743
-210.700077
-210.706417
-210.711606
-210.717847
-210.722895
-210.729037
-210.733946
-210.739983
-210.744767
-210.750642
-210.755352
-210.761108
-210.765708
-210.771336
-210.77583
-210.781332
-210.78572
-210.791094
-210.795381
-210.800625
-210.804813
-210.809926
-210.814016
-210.818997
-210.822993
-210.827841
-210.831743
-210.836458
-210.840267
-210.844851
-210.848566
-210.85302
-210.856641
-210.860966
-210.864494
-210.868691
-210.872125
-210.876195
-210.879535
-210.88348
-210.886726
-210.890547
-210.893699
-210.897396
-210.900454
-210.904029
-210.906993
-210.910447
-210.913317
-210.916651
-210.919426
-210.922642
-210.925323
-210.92842
-210.931008
-210.933987
-210.936482
-210.939345
-210.941747
-210.943833
-210.945288
-210.947043
-210.948395
-210.950031
-210.951282
-210.9528
-210.953951
-210.955351
-210.956402
-210.957688
-210.95864
-210.959811
-210.960665
-210.961723
-210.96248
-210.963427
-210.964086
-210.964924
-210.965487
-210.966216
-210.966684
-210.967307
-210.96768
-210.968197
-210.968477
-210.96889
-210.969077
-210.969388
-210.969483
-210.969693
-210.969697
-210.969807
-210.969722
-210.969733
-210.96956
-210.969473
-210.969213
-210.969031
-210.968685
-210.968408
-210.967977
-210.967607
-210.967092
-210.966633
-210.965882
-210.965162
-210.964302
-210.963477
-210.962517
-210.961591
-210.960534
-210.959508
-210.958356
-210.957233
-210.955987
-210.954769
-210.953432
-210.952121
-210.950696
-210.949292
-210.947781
-210.946289
-210.944693
-210.943114
-210.941435
-210.939771
-210.938013
-210.936266
-210.93443
-210.932603
-210.93069
-210.928785
-210.926797
-210.924816
-210.922757
-210.920702
-210.918572
-210.916445
-210.914247
-210.912051
-210.909787
-210.907523
-210.905195
-210.902866
-210.900476
-210.898083
-210.895633
-210.893179
-210.890671
-210.888157
-210.885593
-210.883023
-210.880404
-210.877779
-210.875107
-210.872431
-210.869706
-210.866981
-210.863598
-210.859659
-210.855681
-210.851706
-210.847698
-210.84369
-210.839653
-210.835615
-210.83155
-210.827485
-210.823394
-210.819302
-210.815187
-210.811072
-210.806935
-210.802798
-210.79864
-210.794483
-210.790307
-210.786132
-210.781939
-210.777748
-210.77354
-210.769335
-210.765114
-210.760896
-210.756664
-210.752435
-210.748194
-210.743957
-210.739708
-210.735464
-210.73121
-210.72696
-210.722702
-210.718449
-210.714189
-210.709934
-210.705673
-210.701418
-210.697159
-210.692906
-210.68865
-210.6844
-210.680149
-210.675904
-210.671659
-210.667421
-210.663184
-210.658954
-210.654727
-210.650507
-210.64629
-210.642083
-210.637874
-210.633521
-210.628862
-210.623888
-210.618563
-210.612887
-210.606723
-210.600038
-210.592884
-210.585257
-210.577115
-210.568439
-210.559197
-210.549364
-210.538912
-210.527821
-210.516062
-210.503623
-210.490483
-210.476641
-210.462086
-210.446833
-210.430892
-210.414298
-210.397095
-210.379336
-210.361113
-210.339004
-210.316215
-210.293309
-210.270484
-210.247952
-210.225949
-210.204723
-210.184532
-210.165626
-210.148244
-210.13259
-210.118828
-210.107054
-210.097304
-210.089522
-210.083591
-210.079302
-210.076418
-210.074645
-210.073712
-210.073344
-210.073355
-210.073509
-210.073856
-210.073892
-210.073745
-210.073674
-210.07365
-210.073638
-210.073634
-210.073632
-210.073632
-210.073632
-210.073632
-210.073632
-210.073632
-210.073632
-210.073632
-210.073632
-210.073632
-210.073632
-210.073632
-210.073632
-210.073632
-210.073632
-210.073632
-210.073632
-210.073632
-210.073632
-210.073632
-210.073632
)
;

boundaryField
{
    closed
    {
        type            calculated;
        value           nonuniform List<scalar> 0();
    }
    open
    {
        type            calculated;
        value           uniform -210.073632;
    }
    sides
    {
        type            empty;
    }
    procBoundary5to4
    {
        type            processor;
        value           uniform -202.939155;
    }
}


// ************************************************************************* //
