/*--------------------------------*- C++ -*----------------------------------*\
| =========                 |                                                 |
| \\      /  F ield         | OpenFOAM: The Open Source CFD Toolbox           |
|  \\    /   O peration     | Version:  2306                                  |
|   \\  /    A nd           | Website:  www.openfoam.com                      |
|    \\/     M anipulation  |                                                 |
\*---------------------------------------------------------------------------*/
FoamFile
{
    version     2.0;
    format      ascii;
    arch        "LSB;label=32;scalar=64";
    class       volScalarField;
    location    "0.00186";
    object      T;
}
// * * * * * * * * * * * * * * * * * * * * * * * * * * * * * * * * * * * * * //

dimensions      [0 0 0 1 0 0 0];

internalField   nonuniform List<scalar> 
530
(
1681.48769
1682.79601
1684.05293
1685.32094
1686.53159
1687.76132
1688.92887
1690.12231
1691.24971
1692.40881
1693.49879
1694.6255
1695.68063
1696.77688
1697.79964
1698.86745
1699.85981
1700.87088
1701.78571
1702.75063
1703.63939
1704.57947
1705.44345
1706.35989
1707.20036
1708.09427
1708.91248
1709.78489
1710.58206
1711.43399
1712.21128
1713.04372
1713.80225
1714.61619
1715.35703
1716.15345
1716.87763
1717.65752
1718.36601
1719.1304
1719.82413
1720.56728
1721.21844
1721.9241
1722.56123
1723.25214
1723.87557
1724.55223
1725.16228
1725.82515
1726.4222
1727.07167
1727.65609
1728.29255
1728.8647
1729.48852
1730.04876
1730.66031
1731.20899
1731.80863
1732.34607
1732.93416
1733.46069
1734.03759
1734.56433
1735.14809
1735.66563
1736.23795
1736.74484
1737.30612
1737.8027
1738.35336
1738.83998
1739.38041
1739.8574
1740.38799
1740.8557
1741.37686
1741.83561
1742.34775
1742.79786
1743.3014
1743.74317
1744.2281
1744.64677
1745.11794
1745.52795
1745.98992
1746.39128
1746.8442
1747.23693
1747.68093
1748.06508
1748.50027
1748.87588
1749.30236
1749.66947
1750.08731
1750.44597
1750.85526
1751.20551
1751.60632
1751.94821
1752.34058
1752.67415
1753.05816
1753.38344
1753.75914
1754.07616
1754.4436
1754.7524
1755.11161
1755.41223
1755.76326
1756.05572
1756.39861
1756.68293
1757.01771
1757.29393
1757.62062
1757.88876
1758.2074
1758.46748
1758.77809
1759.03013
1759.33273
1759.57676
1759.87136
1760.1074
1760.39403
1760.62209
1760.90076
1761.12087
1761.3916
1761.60376
1761.86657
1762.07081
1762.32571
1762.52203
1762.76904
1762.95745
1763.19661
1763.37711
1763.60844
1763.78103
1764.00456
1764.16924
1764.38501
1764.54177
1764.74982
1764.89867
1765.09901
1765.23998
1765.43261
1765.56574
1765.75064
1765.87598
1766.05312
1766.17075
1766.34008
1766.4501
1766.61157
1766.71409
1766.8677
1766.96274
1767.10397
1767.20049
1767.3254
1767.42276
1767.53207
1767.62964
1767.72414
1767.82115
1767.90177
1767.99735
1768.06513
1768.15829
1768.21438
1768.30177
1768.34785
1768.43236
1768.46903
1768.54822
1768.57611
1768.64815
1768.66605
1768.73186
1768.74118
1768.80056
1768.80139
1768.85424
1768.84668
1768.8929
1768.87701
1768.91651
1768.89237
1768.92504
1768.89275
1768.9185
1768.87814
1768.89686
1768.84852
1768.86014
1768.8039
1768.80834
1768.74427
1768.74146
1768.66964
1768.65951
1768.58002
1768.56251
1768.47541
1768.45049
1768.35584
1768.32346
1768.22133
1768.18146
1768.0719
1768.02451
1767.90758
1767.85265
1767.72842
1767.66592
1767.53444
1767.46437
1767.32571
1767.24804
1767.10225
1767.01699
1766.86414
1766.77127
1766.61143
1766.51096
1766.34416
1766.23613
1766.06239
1765.94686
1765.76618
1765.64325
1765.45559
1765.32539
1765.13068
1764.99341
1764.79155
1764.64742
1764.43834
1764.28752
1764.07138
1763.91348
1763.69681
1763.5257
1763.30274
1763.12367
1762.89518
1762.70779
1762.47418
1762.2783
1762.03982
1761.83543
1761.59215
1761.3794
1761.13129
1760.91036
1760.65734
1760.42846
1760.17044
1759.93383
1759.67073
1759.42662
1759.15838
1758.90696
1758.63353
1758.37499
1758.09636
1757.83087
1757.54704
1757.27476
1756.98572
1756.70683
1756.41259
1756.12723
1755.82782
1755.53614
1755.23159
1754.93374
1754.62409
1754.3202
1754.00549
1753.69573
1753.37601
1753.06049
1752.73582
1752.41469
1752.08513
1751.75852
1751.42413
1751.09218
1750.75304
1750.41588
1750.07053
1749.72631
1749.37587
1749.02668
1748.67173
1748.31771
1747.95834
1747.59962
1747.23591
1746.87262
1746.50469
1746.13695
1745.76488
1745.39283
1745.01674
1744.6405
1744.26049
1743.8802
1743.49638
1743.11215
1742.72463
1742.33661
1741.9455
1741.55381
1741.15923
1740.764
1740.36606
1739.96742
1739.56624
1739.16432
1738.76002
1738.35495
1737.94765
1737.53957
1737.12939
1736.71842
1736.30548
1735.89176
1735.47619
1735.05984
1734.64176
1734.22292
1733.80246
1733.38126
1732.95854
1732.53565
1732.1113
1731.68618
1731.25968
1730.83244
1730.40391
1729.97468
1729.54426
1729.11318
1728.681
1728.2482
1727.8144
1727.38002
1726.94473
1726.50891
1726.07226
1725.63513
1725.19726
1724.75895
1724.31999
1723.88064
1723.44072
1723.00047
1722.55972
1722.1187
1721.67725
1721.23559
1720.79357
1720.3514
1719.90895
1719.46639
1719.02364
1718.58083
1718.13789
1717.69496
1717.25197
1716.80905
1716.36613
1715.92333
1715.48061
1715.03807
1714.59566
1714.1535
1713.71154
1713.26988
1712.82847
1712.38743
1711.94671
1711.5064
1711.06648
1710.62703
1710.18803
1709.74954
1709.31157
1708.87279
1708.43336
1707.9946
1707.55651
1707.11915
1706.68252
1706.24667
1705.81159
1705.37735
1704.94394
1704.51141
1704.07976
1703.64905
1703.21926
1702.79046
1702.36264
1701.93584
1701.51008
1701.08539
1700.66178
1700.23928
1699.81792
1699.39771
1698.97868
1698.56085
1698.14423
1697.72887
1697.31476
1696.90195
1696.49044
1696.08025
1695.67141
1695.26394
1694.85785
1694.45317
1694.04991
1693.6481
1693.24774
1692.84887
1692.4515
1692.05564
1691.66131
1691.26854
1690.87732
1690.4877
1690.09967
1689.71327
1689.32848
1688.94536
1688.56388
1688.1841
1687.80599
1687.4296
1687.05492
1686.68159
1686.29637
1685.8858
1685.44844
1684.98271
1684.48709
1683.96027
1683.40083
1682.80647
1682.17556
1681.50639
1680.7973
1680.04672
1679.2531
1678.41507
1677.53138
1676.60102
1675.62323
1674.5976
1673.52411
1672.40325
1671.23609
1670.02437
1668.77062
1667.47829
1666.15175
1664.7966
1663.40802
1662.00419
1660.59564
1659.19293
1657.80768
1656.45255
1655.14086
1653.8863
1652.70236
1651.60182
1650.59601
1649.69416
1648.90264
1648.22441
1647.6587
1647.2007
1646.84216
1646.57154
1646.37561
1646.23983
1646.15041
1646.09468
1646.06192
1646.04463
1646.03358
1646.02654
1646.0231
1646.02192
1646.02133
1646.02111
1646.02103
1646.02101
1646.02101
1646.02101
1646.021
1646.021
1646.021
1646.021
1646.021
1646.021
1646.021
1646.021
1646.021
1646.021
1646.021
1646.021
1646.021
1646.021
1646.021
1646.021
1646.021
)
;

boundaryField
{
    closed
    {
        type            fixedValue;
        value           nonuniform List<scalar> 0();
    }
    open
    {
        type            zeroGradient;
    }
    sides
    {
        type            empty;
    }
    procBoundary5to4
    {
        type            processor;
        value           uniform 1680.14766;
    }
}


// ************************************************************************* //
