/*--------------------------------*- C++ -*----------------------------------*\
| =========                 |                                                 |
| \\      /  F ield         | OpenFOAM: The Open Source CFD Toolbox           |
|  \\    /   O peration     | Version:  2306                                  |
|   \\  /    A nd           | Website:  www.openfoam.com                      |
|    \\/     M anipulation  |                                                 |
\*---------------------------------------------------------------------------*/
FoamFile
{
    version     2.0;
    format      ascii;
    arch        "LSB;label=32;scalar=64";
    class       volScalarField;
    location    "0.00098";
    object      h;
}
// * * * * * * * * * * * * * * * * * * * * * * * * * * * * * * * * * * * * * //

dimensions      [0 2 -2 0 0 0 0];

internalField   nonuniform List<scalar> 
530
(
-207797.815
-218853.296
-229045.185
-208912.891
-201535.403
-202729.798
-222556.531
-219914.416
-196754.239
-199419.654
-217177.79
-216885.226
-191913.423
-196313.511
-211526.551
-211314.53
-187397.99
-192541.16
-206207.028
-205804.812
-183299.488
-188284.444
-200773.059
-200377.636
-179177.175
-183856.833
-195311.846
-194933.76
-175036.023
-179364.708
-188352.901
-188590.716
-171201.215
-174623.422
-176886.266
-178604.042
-172195.887
-173568.842
-166001.614
-168941.877
-175382.186
-175257.003
-161230.37
-163714.685
-174134.22
-173646.546
-157536.21
-159439.127
-169811.826
-169518.749
-153484.836
-155088.244
-165286.211
-165067.85
-149334.329
-150861.279
-160812.409
-160570.776
-145117.772
-146679.127
-156491.807
-156134.988
-140918.134
-142558.637
-152074.859
-151743.122
-136764.195
-138411.096
-147676.751
-147332.356
-132679.476
-134312.628
-143300.973
-142980.643
-128641.993
-130253.076
-138960.523
-138665.597
-124649.553
-126210.771
-134669.79
-134397.728
-120701.199
-122192.001
-130407.377
-130175.298
-116786.147
-118195.083
-126147.183
-125971.664
-112845.75
-114211.435
-121888.563
-121745.066
-108898.041
-110276.786
-117584.87
-117487.551
-104913.829
-106227.147
-113431.094
-113200.511
-100916.549
-102242.321
-109248.497
-108946.099
-96946.4289
-98255.7651
-105067.685
-104745.482
-93026.3031
-94280.1701
-100829.809
-100585.77
-89159.1391
-90294.4549
-96644.893
-96433.3552
-85299.9708
-86365.6055
-92484.9397
-92303.7688
-81455.0142
-82480.8666
-88379.1009
-88214.6649
-77609.97
-78620.268
-84341.3355
-84161.3259
-73812.5031
-74802.8895
-80338.8429
-80156.2831
-70064.0456
-71076.6912
-76318.2279
-76197.4147
-66382.2794
-67360.3368
-72494.7941
-72324.6496
-62850.575
-63733.054
-68917.1283
-68690.3538
-59388.6853
-60247.3659
-65437.8017
-65180.5625
-56009.0216
-56839.4642
-62031.0442
-61757.1091
-52750.4277
-53536.2267
-58705.0776
-58434.23
-49605.3679
-50336.2323
-55465.1346
-55218.4503
-46567.5056
-47241.7007
-52321.699
-52100.9781
-43630.5379
-44274.1832
-49236.9624
-49030.8439
-40752.7095
-41430.0089
-46190.5491
-46000.2737
-37924.9838
-38709.5472
-43216.7486
-43056.4552
-35213.6738
-36001.3152
-40433.1316
-40216.9765
-32560.7583
-33417.4041
-37679.7254
-37507.6786
-30118.5526
-30835.5104
-35073.5198
-34948.5939
-27770.8028
-28347.4748
-32610.5318
-32471.6812
-25434.5058
-26007.9475
-30250.6324
-30088.5372
-23197.9749
-23770.27
-28001.6549
-27808.0764
-21062.3236
-21653.2235
-25886.5136
-25631.1667
-19056.404
-19695.1357
-23875.0406
-23547.8113
-17194.6958
-17879.6604
-21948.9791
-21556.0826
-15472.285
-16206.4655
-20067.629
-19679.0377
-13891.7052
-14477.687
-18197.9669
-17910.5512
-12403.7385
-12897.1094
-16415.5014
-16235.0359
-10975.7305
-11422.2506
-14783.0819
-14666.0248
-9604.35766
-10066.6413
-13268.4755
-13193.1494
-8309.59418
-8762.45775
-11886.1429
-11801.5082
-7105.40606
-7544.48307
-10587.6525
-10493.484
-5991.26424
-6385.85519
-9395.40071
-9260.26704
-4961.37856
-5350.97227
-8253.87083
-8130.87346
-4008.15276
-4458.53005
-7166.50557
-7068.07377
-3102.38165
-3614.60931
-6178.09443
-6079.46047
-2274.03864
-2819.60498
-5264.6056
-5178.44322
-1546.93695
-2060.48895
-4448.95431
-4357.50032
-941.308074
-1374.39964
-3680.83456
-3603.0192
-370.870003
-772.882495
-2976.76329
-2900.52507
146.938951
-242.669437
-2336.58674
-2245.11343
627.796283
222.827549
-1779.64175
-1643.95233
1079.54903
634.13948
-1251.50551
-1105.99505
1429.69398
1016.75449
-763.304554
-622.525371
1738.12627
1341.26462
-313.473253
-178.429902
1978.51684
1619.20165
105.299237
227.889049
2138.08375
1841.62891
525.342371
608.913738
2159.91994
2006.89842
1029.04421
969.61587
2137.01221
2192.57152
2315.31546
1284.56684
1583.05572
2362.80806
2872.64565
1564.32297
1356.1228
2514.53592
3032.51363
1769.0929
1514.06383
2653.86077
3115.11261
1930.74732
1687.98328
2768.8607
3173.33735
2066.32161
1848.36801
2861.50399
3215.61621
2181.75238
1985.94889
2934.16186
3244.08648
2278.55352
2102.83608
2990.4126
3258.94655
2358.33993
2201.47709
3030.08955
3263.88157
2424.54685
2282.64053
3056.10755
3259.70896
2478.07099
2348.83645
3070.68356
3247.52166
2520.04732
2402.14903
3075.58322
3228.50349
2551.87377
2444.24427
3072.2857
3203.74807
2574.88308
2476.64097
3062.09333
3174.23031
2590.28358
2500.73296
3046.18367
3140.81851
2599.16073
2517.78601
3025.63986
3104.28342
2602.47622
2528.94948
3001.46762
3065.30225
2601.06897
2535.27202
2974.60598
3024.45426
2595.65523
2537.71623
2945.92824
2982.21729
2586.82572
2537.1754
2916.28427
2938.92226
2574.9528
2534.56935
2886.35348
2894.89476
2559.97765
2531.06279
2857.39065
2849.64084
2541.67405
2527.22836
2830.76717
2802.86491
2520.41619
2517.32368
2804.15204
2760.78956
2498.47394
2505.26679
2769.67458
2730.96218
2482.54111
2490.70874
2732.74648
2699.72366
2470.531
2477.30573
2699.01111
2668.5497
2457.68844
2464.54031
2667.39628
2638.40753
2444.28962
2451.32324
2637.96816
2610.0393
2431.0354
2438.25095
2609.82238
2582.93181
2418.60342
2425.73635
2582.7611
2557.37223
2406.82235
2413.57675
2556.98721
2533.34399
2395.66396
2401.89892
2532.63846
2510.71537
2385.08841
2390.78408
2509.76217
2489.48031
2375.11601
2380.17504
2488.3248
2469.75593
2366.64851
2370.6591
2468.04424
2451.69732
2361.11171
2363.89766
2448.48411
2433.3672
2396.35053
2390.20776
2417.78493
2406.85896
2398.70626
2389.78414
2391.10303
2382.35765
2380.80575
2372.37522
2370.35899
2362.09532
2359.69903
2351.32533
2348.59807
2340.49503
2337.38099
2329.84031
2326.34084
2319.62929
2315.81395
2310.12219
2306.14249
2301.56234
2297.63883
2294.16855
2290.84483
2288.11305
2285.26736
2283.09516
2280.67533
2278.49201
2276.85261
2275.70483
2274.94039
2274.46097
2274.17853
2274.02478
2273.9481
2273.91339
2273.8998
2273.89527
2273.89426
2273.89423
2273.89438
2273.89451
2273.89457
2273.8946
2273.89461
2273.89461
2273.89461
2273.89461
2273.89461
2273.89461
2273.89461
2273.89461
2273.89461
2273.89461
2273.89461
2273.89461
2273.89461
2273.89461
2273.89461
2273.89461
2273.89461
2273.89461
2273.89461
2273.89461
2273.89461
2273.89461
2273.89461
2273.89461
2273.89461
2273.89461
2273.89461
2273.89461
2273.89461
)
;

boundaryField
{
    closed
    {
        type            lookUpEnthalpy;
        h0              nonuniform List<scalar> 0();
        value           nonuniform List<scalar> 0();
    }
    open
    {
        type            zeroGradient;
    }
    sides
    {
        type            empty;
    }
    procBoundary5to4
    {
        type            processor;
        value           uniform -205445.628;
    }
}


// ************************************************************************* //
