/*--------------------------------*- C++ -*----------------------------------*\
| =========                 |                                                 |
| \\      /  F ield         | OpenFOAM: The Open Source CFD Toolbox           |
|  \\    /   O peration     | Version:  2306                                  |
|   \\  /    A nd           | Website:  www.openfoam.com                      |
|    \\/     M anipulation  |                                                 |
\*---------------------------------------------------------------------------*/
FoamFile
{
    version     2.0;
    format      ascii;
    arch        "LSB;label=32;scalar=64";
    class       volScalarField;
    location    "0.00098";
    object      prefDh_H2;
}
// * * * * * * * * * * * * * * * * * * * * * * * * * * * * * * * * * * * * * //

dimensions      [1 1 -3 0 0 0 0];

internalField   nonuniform List<scalar> 
530
(
2939.85187
2981.02391
2984.69275
2981.86408
2959.42977
2971.07234
3005.17028
3016.22974
2976.29323
2981.97306
3020.30676
3021.15923
2992.41931
2999.20938
3037.02179
3036.0951
3008.54731
3014.25786
3051.21043
3051.23026
3024.43833
3029.19682
3065.80917
3065.78019
3039.21295
3043.77918
3080.77292
3080.35339
3052.97163
3057.94666
3088.62461
3095.10985
3068.85881
3072.08856
3092.16308
3096.9285
3095.68204
3098.42447
3092.08576
3095.89524
3113.94843
3117.73293
3094.73518
3100.06701
3131.96141
3133.2856
3106.39538
3109.75826
3140.94873
3141.7206
3117.84191
3120.41066
3151.43274
3152.02854
3129.15692
3131.63559
3161.99896
3162.74542
3140.06547
3142.93269
3172.20532
3173.56767
3150.88493
3154.23715
3183.25805
3184.57255
3162.14458
3165.43303
3194.64907
3196.00022
3174.19097
3177.38759
3206.34842
3207.55801
3186.29232
3189.62757
3218.25309
3219.30851
3198.45751
3201.91867
3230.29218
3231.1923
3210.78266
3214.31693
3242.61911
3243.29564
3223.36828
3226.83738
3255.29837
3255.70722
3236.16866
3239.61749
3268.32073
3268.56491
3249.75703
3253.15041
3281.98177
3281.89562
3263.59927
3266.74436
3294.96522
3295.69226
3277.54124
3280.99945
3308.57117
3309.67109
3291.78985
3295.32425
3322.59199
3323.86639
3306.44631
3309.79944
3337.3175
3338.24323
3321.49565
3324.45319
3352.12714
3352.90967
3336.53774
3339.50016
3367.19791
3367.85163
3351.80747
3354.70704
3382.30796
3382.91889
3367.23311
3370.1355
3397.46631
3398.18527
3382.82543
3385.73913
3412.89407
3413.64333
3398.59991
3401.75468
3428.87725
3429.24747
3414.53856
3417.5531
3444.15754
3444.79955
3430.10886
3433.06044
3458.42638
3459.51308
3444.93513
3447.87454
3472.58672
3473.90213
3459.6709
3462.61799
3486.77455
3488.21141
3474.37604
3477.31613
3501.0058
3502.38776
3488.96393
3491.87443
3515.16287
3516.32801
3503.37994
3506.24062
3529.16418
3530.09405
3517.55951
3520.4612
3543.13892
3543.97024
3531.77818
3534.78452
3557.22131
3557.94929
3545.88432
3549.68291
3571.24614
3571.80535
3559.83387
3563.62895
3584.39465
3585.37755
3573.31212
3577.47015
3597.80027
3598.55403
3586.91828
3590.42221
3610.60989
3611.1407
3600.23161
3603.05063
3622.84015
3623.51404
3612.65672
3615.56939
3634.75708
3635.6269
3624.76376
3627.71213
3646.25363
3647.40787
3636.49182
3639.53832
3657.20598
3658.84698
3647.82093
3651.17845
3667.81822
3669.995
3658.87458
3662.59321
3678.23371
3680.81089
3669.75656
3673.95199
3688.7233
3691.17331
3680.53589
3684.18348
3699.44445
3701.15133
3691.05728
3694.27432
3709.85507
3710.76105
3701.00646
3704.01984
3719.47481
3719.88697
3710.43026
3713.61236
3728.48009
3728.59057
3719.35319
3722.42991
3736.77184
3736.94533
3727.88143
3730.85304
3744.6992
3744.94356
3736.04343
3738.61666
3752.09538
3752.61799
3743.82566
3746.38204
3759.33962
3759.77643
3751.21011
3754.3204
3766.41319
3766.61087
3757.99866
3761.68595
3772.96006
3773.1031
3764.4947
3768.54667
3779.11033
3779.14815
3770.79004
3774.68748
3784.7074
3784.81713
3777.15941
3780.50222
3790.07709
3790.13683
3782.98464
3786.12137
3795.13471
3795.21527
3788.48523
3791.51424
3799.86173
3800.05219
3793.51305
3796.672
3804.1344
3804.58231
3798.00869
3801.55259
3808.2617
3808.80868
3802.66721
3805.94719
3812.14937
3812.71175
3806.98276
3810.17351
3815.85276
3816.4099
3811.24841
3814.13478
3819.42073
3819.91469
3815.59066
3818.01023
3823.11158
3823.28804
3820.5173
3821.90414
3827.59163
3826.59455
3825.77351
3825.20034
3826.62495
3829.56446
3831.93336
3828.06026
3825.55349
3832.28753
3831.25712
3830.55321
3827.32649
3834.50968
3832.92627
3832.66671
3829.61666
3836.39383
3834.81845
3834.56414
3831.86482
3838.07333
3836.65061
3836.29633
3833.93714
3839.59611
3838.3294
3837.88344
3835.81921
3840.97286
3839.85726
3839.31514
3837.54352
3842.21893
3841.23941
3840.6364
3839.09076
3843.35142
3842.48134
3841.84159
3840.48611
3844.37575
3843.5965
3842.93512
3841.74471
3845.29724
3844.59776
3843.9237
3842.87919
3846.12361
3845.49534
3844.81538
3843.90084
3846.86278
3846.29872
3845.61808
3844.82037
3847.52225
3847.0168
3846.33921
3845.64782
3848.10904
3847.65786
3846.98555
3846.39253
3848.6296
3848.22965
3847.56317
3847.06324
3849.08983
3848.73931
3848.07738
3847.66813
3849.49502
3849.1935
3848.53284
3848.21493
3849.84993
3849.59838
3848.93304
3848.7114
3850.15854
3849.95975
3849.2821
3849.16353
3850.42154
3850.28495
3849.57513
3849.58432
3850.63987
3850.57452
3849.80091
3849.98458
3850.81999
3850.79068
3849.98252
3850.30336
3850.9684
3850.98497
3850.21996
3850.50211
3851.1214
3851.15127
3850.46889
3850.70165
3851.28163
3851.30253
3850.67747
3850.89023
3851.4184
3851.43864
3850.8556
3851.05948
3851.53245
3851.55407
3851.00673
3851.20525
3851.62898
3851.65402
3851.14219
3851.33457
3851.71442
3851.74133
3851.26546
3851.44734
3851.78919
3851.81585
3851.37642
3851.54539
3851.85408
3851.87954
3851.47544
3851.63152
3851.9101
3851.934
3851.56343
3851.70712
3851.9588
3851.98077
3851.64332
3851.77339
3852.00794
3852.0262
3851.72524
3851.8373
3852.07452
3852.0879
3851.83338
3851.93151
3852.23373
3852.26883
3852.02194
3852.08626
3852.1113
3852.15658
3852.11285
3852.15179
3852.12911
3852.16148
3852.14236
3852.16963
3852.15422
3852.17828
3852.16484
3852.18564
3852.17451
3852.19178
3852.18315
3852.19677
3852.19082
3852.2009
3852.1977
3852.20465
3852.20407
3852.20857
3852.20988
3852.2133
3852.21553
3852.21871
3852.21647
3852.20734
3852.20035
3852.19517
3852.19157
3852.18916
3852.18763
3852.18672
3852.18621
3852.18594
3852.18581
3852.18575
3852.18572
3852.18572
3852.18571
3852.18571
3852.18571
3852.18571
3852.18571
3852.18571
3852.18571
3852.18571
3852.18571
3852.18571
3852.18571
3852.18571
3852.18571
3852.18571
3852.18571
3852.18571
3852.18571
3852.18571
3852.18571
3852.18571
3852.18571
3852.18571
3852.18571
3852.18571
3852.18571
3852.18571
3852.18571
3852.18571
3852.18571
3852.18571
3852.18571
3852.18571
3852.18571
)
;

boundaryField
{
    closed
    {
        type            calculated;
        value           nonuniform List<scalar> 0();
    }
    open
    {
        type            calculated;
        value           uniform 3852.18571;
    }
    sides
    {
        type            empty;
    }
    procBoundary5to4
    {
        type            processor;
        value           uniform 2936.33;
    }
}


// ************************************************************************* //
