/*--------------------------------*- C++ -*----------------------------------*\
| =========                 |                                                 |
| \\      /  F ield         | OpenFOAM: The Open Source CFD Toolbox           |
|  \\    /   O peration     | Version:  2306                                  |
|   \\  /    A nd           | Website:  www.openfoam.com                      |
|    \\/     M anipulation  |                                                 |
\*---------------------------------------------------------------------------*/
FoamFile
{
    version     2.0;
    format      ascii;
    arch        "LSB;label=32;scalar=64";
    class       volScalarField;
    location    "0.00098";
    object      prefDZ_H2O;
}
// * * * * * * * * * * * * * * * * * * * * * * * * * * * * * * * * * * * * * //

dimensions      [1 -1 -1 0 0 0 0];

internalField   nonuniform List<scalar> 
530
(
2.02211164e-06
2.06241763e-06
2.07821731e-06
2.0508081e-06
2.02695285e-06
2.03688071e-06
2.08326899e-06
2.08520186e-06
2.03239045e-06
2.04003501e-06
2.08700341e-06
2.08721372e-06
2.03741431e-06
2.04853008e-06
2.09112668e-06
2.09090164e-06
2.04292212e-06
2.05487489e-06
2.09455881e-06
2.09456368e-06
2.04915373e-06
2.06038659e-06
2.09808989e-06
2.09808403e-06
2.05484737e-06
2.06552993e-06
2.10171135e-06
2.1016127e-06
2.06011818e-06
2.07041414e-06
2.10040985e-06
2.10418273e-06
2.06748306e-06
2.07545979e-06
2.09068769e-06
2.09602856e-06
2.08751047e-06
2.09149128e-06
2.077909e-06
2.08500541e-06
2.10440174e-06
2.10642941e-06
2.0749648e-06
2.08218788e-06
2.1140024e-06
2.11431751e-06
2.07902508e-06
2.08407856e-06
2.11615018e-06
2.11633416e-06
2.08269916e-06
2.08675457e-06
2.11865581e-06
2.11879789e-06
2.08609428e-06
2.08995343e-06
2.12118397e-06
2.1213617e-06
2.08906193e-06
2.09318957e-06
2.12360034e-06
2.12391804e-06
2.09190063e-06
2.09642004e-06
2.12618939e-06
2.12649577e-06
2.09491926e-06
2.0994584e-06
2.12885909e-06
2.12917394e-06
2.0982933e-06
2.10279233e-06
2.13160173e-06
2.13188365e-06
2.10166255e-06
2.10617211e-06
2.13439281e-06
2.13463895e-06
2.10502544e-06
2.10949213e-06
2.13721526e-06
2.13742548e-06
2.10843336e-06
2.11279499e-06
2.14006742e-06
2.14022278e-06
2.1119302e-06
2.11608641e-06
2.14297832e-06
2.14307266e-06
2.11541013e-06
2.11943906e-06
2.14596665e-06
2.1460236e-06
2.11907694e-06
2.12315066e-06
2.14909872e-06
2.14908101e-06
2.12269373e-06
2.1265368e-06
2.15207583e-06
2.15224249e-06
2.12622905e-06
2.13029102e-06
2.1551917e-06
2.15544281e-06
2.12986225e-06
2.13395525e-06
2.15834803e-06
2.15863336e-06
2.13370179e-06
2.13760354e-06
2.16165067e-06
2.16185788e-06
2.13773324e-06
2.14122213e-06
2.16496844e-06
2.16514351e-06
2.14160765e-06
2.14502149e-06
2.16834005e-06
2.16848624e-06
2.14547396e-06
2.14879971e-06
2.17171592e-06
2.1718523e-06
2.1493054e-06
2.15261847e-06
2.17508328e-06
2.17524071e-06
2.1531807e-06
2.15643302e-06
2.17846132e-06
2.1786251e-06
2.15711909e-06
2.16048117e-06
2.18195458e-06
2.1820359e-06
2.16113545e-06
2.16431418e-06
2.18528935e-06
2.18542954e-06
2.16502238e-06
2.16797546e-06
2.18839951e-06
2.18863532e-06
2.16843926e-06
2.17133169e-06
2.19148072e-06
2.19176535e-06
2.17181138e-06
2.17465844e-06
2.19455209e-06
2.19485803e-06
2.17524459e-06
2.17801018e-06
2.19758857e-06
2.19788243e-06
2.17868844e-06
2.18133469e-06
2.20060379e-06
2.20085143e-06
2.18210996e-06
2.18462158e-06
2.2035804e-06
2.20377813e-06
2.18547069e-06
2.18792977e-06
2.20654588e-06
2.20672256e-06
2.18882458e-06
2.19139426e-06
2.20952834e-06
2.20968302e-06
2.19206418e-06
2.19519653e-06
2.21249258e-06
2.21261153e-06
2.19531822e-06
2.19845347e-06
2.21525993e-06
2.21546423e-06
2.1983567e-06
2.20176801e-06
2.21804175e-06
2.21819826e-06
2.20169505e-06
2.2045571e-06
2.2206953e-06
2.22080542e-06
2.20494529e-06
2.2072633e-06
2.22322455e-06
2.22336385e-06
2.20769091e-06
2.21007978e-06
2.22568467e-06
2.22586392e-06
2.21035093e-06
2.21276977e-06
2.22805403e-06
2.22829117e-06
2.21291136e-06
2.21542576e-06
2.23030752e-06
2.23064379e-06
2.21537167e-06
2.21815791e-06
2.23248729e-06
2.23293245e-06
2.21784972e-06
2.22091799e-06
2.23461942e-06
2.23513665e-06
2.22043154e-06
2.2237727e-06
2.2367348e-06
2.23722294e-06
2.22318329e-06
2.2259542e-06
2.23886594e-06
2.23920417e-06
2.22595335e-06
2.22823943e-06
2.24092854e-06
2.24110872e-06
2.22847112e-06
2.23047449e-06
2.24283119e-06
2.24291422e-06
2.23069165e-06
2.23277316e-06
2.24460944e-06
2.24463317e-06
2.23274785e-06
2.23476057e-06
2.24624431e-06
2.24628041e-06
2.23472273e-06
2.23666569e-06
2.24780469e-06
2.24785463e-06
2.23663684e-06
2.23833269e-06
2.24925818e-06
2.2493626e-06
2.23848044e-06
2.24015559e-06
2.25067935e-06
2.2507669e-06
2.2402382e-06
2.2422373e-06
2.25206458e-06
2.25210568e-06
2.2417845e-06
2.24411295e-06
2.2533447e-06
2.2533754e-06
2.24328854e-06
2.24582304e-06
2.25454556e-06
2.25455583e-06
2.24482504e-06
2.24724652e-06
2.25563686e-06
2.25566097e-06
2.24655194e-06
2.24861667e-06
2.25668242e-06
2.25669655e-06
2.24808243e-06
2.25001154e-06
2.25766571e-06
2.25768373e-06
2.24953539e-06
2.25140313e-06
2.25858338e-06
2.25862273e-06
2.25082286e-06
2.25277149e-06
2.25941146e-06
2.25950106e-06
2.25191146e-06
2.25409351e-06
2.26021047e-06
2.26031909e-06
2.25321429e-06
2.25523743e-06
2.26096228e-06
2.26107357e-06
2.25442486e-06
2.25639135e-06
2.26167637e-06
2.26178465e-06
2.25571604e-06
2.25749476e-06
2.26235714e-06
2.26245316e-06
2.25716426e-06
2.25864809e-06
2.26306056e-06
2.26309596e-06
2.25909478e-06
2.25990441e-06
2.26391367e-06
2.26372533e-06
2.26136005e-06
2.260879e-06
2.26140157e-06
2.26429009e-06
2.2647417e-06
2.26168738e-06
2.25975545e-06
2.26480742e-06
2.26460882e-06
2.26236574e-06
2.25997912e-06
2.26522875e-06
2.26492548e-06
2.26287861e-06
2.26061822e-06
2.26558554e-06
2.26528421e-06
2.26332716e-06
2.26130877e-06
2.26590325e-06
2.26563123e-06
2.26373982e-06
2.26195914e-06
2.26619102e-06
2.26594885e-06
2.26412513e-06
2.26255442e-06
2.26645093e-06
2.2662376e-06
2.26447336e-06
2.26310883e-06
2.2666859e-06
2.26649856e-06
2.26480665e-06
2.26360712e-06
2.26689923e-06
2.26673279e-06
2.26511815e-06
2.26405976e-06
2.26709198e-06
2.26694288e-06
2.26540646e-06
2.26447208e-06
2.26726518e-06
2.26713131e-06
2.26567182e-06
2.26484806e-06
2.26742032e-06
2.26730005e-06
2.26591554e-06
2.26519108e-06
2.26755892e-06
2.26745091e-06
2.26613907e-06
2.2655044e-06
2.26768242e-06
2.26758561e-06
2.26634377e-06
2.26579107e-06
2.26779217e-06
2.26770572e-06
2.26653082e-06
2.26605394e-06
2.26788939e-06
2.26781273e-06
2.26670111e-06
2.26629571e-06
2.26797522e-06
2.267908e-06
2.2668553e-06
2.26651898e-06
2.26805067e-06
2.26799281e-06
2.26699374e-06
2.26672632e-06
2.26811664e-06
2.26806834e-06
2.26711633e-06
2.26692048e-06
2.26817389e-06
2.26813569e-06
2.26722307e-06
2.26710378e-06
2.26822254e-06
2.26819626e-06
2.26730922e-06
2.26728245e-06
2.26826276e-06
2.26825017e-06
2.26736683e-06
2.26746065e-06
2.26829578e-06
2.26829022e-06
2.26740855e-06
2.26759788e-06
2.26832286e-06
2.26832613e-06
2.26749723e-06
2.26766829e-06
2.26835096e-06
2.26835675e-06
2.26760364e-06
2.26774677e-06
2.26838052e-06
2.2683846e-06
2.26769338e-06
2.26782554e-06
2.26840568e-06
2.26840964e-06
2.26777117e-06
2.26789868e-06
2.26842658e-06
2.26843081e-06
2.26783819e-06
2.26796289e-06
2.26844423e-06
2.26844909e-06
2.26790061e-06
2.26802178e-06
2.26845982e-06
2.26846504e-06
2.2679599e-06
2.26807465e-06
2.26847345e-06
2.2684786e-06
2.26801532e-06
2.26812205e-06
2.26848524e-06
2.26849016e-06
2.26806652e-06
2.2681652e-06
2.2684954e-06
2.26850002e-06
2.2681136e-06
2.26820451e-06
2.26850422e-06
2.26850845e-06
2.26815799e-06
2.26824033e-06
2.26851315e-06
2.26851667e-06
2.26820584e-06
2.26827683e-06
2.26852542e-06
2.26852799e-06
2.26827244e-06
2.26833461e-06
2.26852521e-06
2.2685478e-06
2.26839092e-06
2.26843199e-06
2.26844697e-06
2.26847612e-06
2.26844804e-06
2.26847329e-06
2.26845881e-06
2.2684801e-06
2.26846819e-06
2.26848654e-06
2.26847726e-06
2.26849398e-06
2.26848626e-06
2.26850127e-06
2.26849539e-06
2.26850842e-06
2.26850452e-06
2.26851538e-06
2.26851356e-06
2.26852215e-06
2.26852235e-06
2.26852881e-06
2.26853076e-06
2.2685354e-06
2.26853826e-06
2.26854196e-06
2.26854516e-06
2.26854845e-06
2.2685497e-06
2.26854794e-06
2.26854659e-06
2.26854559e-06
2.2685449e-06
2.26854443e-06
2.26854414e-06
2.26854397e-06
2.26854387e-06
2.26854382e-06
2.26854379e-06
2.26854378e-06
2.26854378e-06
2.26854378e-06
2.26854378e-06
2.26854378e-06
2.26854378e-06
2.26854378e-06
2.26854378e-06
2.26854378e-06
2.26854378e-06
2.26854378e-06
2.26854378e-06
2.26854378e-06
2.26854378e-06
2.26854378e-06
2.26854378e-06
2.26854378e-06
2.26854378e-06
2.26854378e-06
2.26854378e-06
2.26854378e-06
2.26854378e-06
2.26854378e-06
2.26854378e-06
2.26854378e-06
2.26854378e-06
2.26854378e-06
2.26854378e-06
2.26854378e-06
2.26854378e-06
2.26854378e-06
2.26854378e-06
2.26854378e-06
2.26854378e-06
2.26854378e-06
2.26854378e-06
)
;

boundaryField
{
    closed
    {
        type            calculated;
        value           nonuniform List<scalar> 0();
    }
    open
    {
        type            calculated;
        value           uniform 2.26854378e-06;
    }
    sides
    {
        type            empty;
    }
    procBoundary5to4
    {
        type            processor;
        value           uniform 2.01549376e-06;
    }
}


// ************************************************************************* //
