/*--------------------------------*- C++ -*----------------------------------*\
| =========                 |                                                 |
| \\      /  F ield         | OpenFOAM: The Open Source CFD Toolbox           |
|  \\    /   O peration     | Version:  2306                                  |
|   \\  /    A nd           | Website:  www.openfoam.com                      |
|    \\/     M anipulation  |                                                 |
\*---------------------------------------------------------------------------*/
FoamFile
{
    version     2.0;
    format      ascii;
    arch        "LSB;label=32;scalar=64";
    class       volScalarField;
    location    "0.00098";
    object      PV;
}
// * * * * * * * * * * * * * * * * * * * * * * * * * * * * * * * * * * * * * //

dimensions      [0 0 0 0 0 0 0];

internalField   nonuniform List<scalar> 
530
(
0.00683288709
0.00689714888
0.00693747897
0.00687453552
0.00683503914
0.00684807237
0.00693540636
0.00692695474
0.00683789662
0.00684935155
0.00693449177
0.00693680677
0.00683766433
0.00685508016
0.00692972601
0.00693328024
0.00683695909
0.00685673485
0.00692580923
0.00692812184
0.0068369398
0.00685556938
0.00692070035
0.00692245206
0.00683580231
0.00685344215
0.00691410746
0.00691635063
0.00683354022
0.00685072888
0.00689972071
0.0069050531
0.00683434205
0.00684673506
0.00687268883
0.00688075277
0.00686192188
0.00686753265
0.00683833924
0.00685032466
0.00688319731
0.00688566364
0.0068267463
0.00683681907
0.00689500534
0.00689449474
0.00682746816
0.00683414675
0.00689369035
0.00689299441
0.00682652014
0.00683172001
0.00689124701
0.00689052868
0.0068251469
0.00682997941
0.00688866048
0.00688799635
0.0068232901
0.00682838275
0.00688651163
0.00688559781
0.00682146358
0.00682696387
0.00688394519
0.00688330173
0.00681980828
0.00682546284
0.00688146716
0.00688093915
0.00681840636
0.00682415859
0.00687914494
0.00687872351
0.00681734377
0.00682315565
0.00687715221
0.00687683458
0.00681663049
0.00682243845
0.00687561982
0.00687538232
0.00681635831
0.00682208202
0.00687453007
0.00687440051
0.00681659443
0.00682209717
0.00687385611
0.00687384618
0.00681716857
0.00682257753
0.00687338967
0.00687358296
0.00681813523
0.0068238032
0.00687301421
0.00687364659
0.00681939902
0.00682470434
0.0068740041
0.00687415137
0.00682098295
0.00682656428
0.00687511877
0.0068752286
0.00682315846
0.00682876036
0.00687682821
0.00687682153
0.00682603496
0.00683137637
0.0068788192
0.00687892787
0.00682962979
0.00683439509
0.00688149826
0.00688160954
0.00683353693
0.00683816674
0.00688456664
0.00688475327
0.00683792141
0.00684247755
0.00688824954
0.00688846002
0.00684261756
0.00684721031
0.00689233172
0.00689257805
0.00684772055
0.00685235661
0.00689676742
0.00689707686
0.00685322707
0.00685822878
0.00690113941
0.00690189149
0.00685916091
0.0068640562
0.00690665742
0.00690714368
0.00686583558
0.00687011624
0.00691351199
0.00691347952
0.00687282534
0.00687692447
0.00692058331
0.00692034034
0.00688006192
0.00688399107
0.0069277938
0.00692744679
0.0068876416
0.00689138155
0.00693511062
0.00693478448
0.00689545192
0.0068990045
0.00694252115
0.00694229798
0.00690342012
0.00690678655
0.00695002521
0.00694991847
0.00691147073
0.0069147885
0.00695738788
0.00695735075
0.00691943627
0.00692304293
0.00696443996
0.00696443429
0.00692710192
0.00693155054
0.00697126367
0.00697142462
0.00693496488
0.00693939258
0.00697883809
0.00697852363
0.00694262639
0.00694747655
0.00698593751
0.00698566675
0.00695086949
0.00695494091
0.00699314456
0.00699299427
0.00695915702
0.00696237978
0.00700049647
0.00700033407
0.00696679632
0.00697004929
0.00700781076
0.00700753957
0.00697442287
0.00697765556
0.0070151314
0.00701466924
0.00698199539
0.00698527872
0.00702250891
0.00702170494
0.00698963894
0.00699312496
0.00702980154
0.00702865723
0.00699736166
0.00700113142
0.00703686476
0.00703545602
0.00700513855
0.00700928027
0.00704346867
0.00704220831
0.0070129688
0.00701641072
0.00704956105
0.00704879395
0.00702065264
0.00702364021
0.00705544904
0.00705520105
0.00702797679
0.00703076997
0.00706141816
0.0070614821
0.00703495868
0.00703794834
0.00706721793
0.0070675882
0.00704170266
0.0070446093
0.00707317303
0.00707346153
0.00704826549
0.00705107334
0.00707891544
0.00707912874
0.00705464787
0.0070571015
0.00708467084
0.00708455258
0.00706082335
0.00706326974
0.0070899376
0.00708971496
0.00706676352
0.00706973161
0.00709474854
0.00709461594
0.0070722745
0.00707580032
0.00709957633
0.00709929085
0.00707765441
0.00708150733
0.00710417762
0.00710386437
0.00708299632
0.00708668842
0.00710856993
0.00710822254
0.00708852025
0.00709168164
0.00711262287
0.00711238718
0.00709362752
0.00709659287
0.00711648896
0.00711626107
0.00709849273
0.00710137276
0.00712018678
0.00711985691
0.00710300439
0.00710599469
0.00712387596
0.00712327383
0.00710710849
0.00711042679
0.00712719039
0.00712649238
0.00711142636
0.00711448724
0.00713026903
0.00712957873
0.00711548929
0.00711844528
0.00713308006
0.00713241306
0.00711954225
0.0071222166
0.00713562577
0.00713501885
0.00712369287
0.00712593187
0.00713765478
0.00713736862
0.00712834602
0.00712966518
0.00713854034
0.00713947042
0.00713294259
0.00713285603
0.00713373536
0.00714146124
0.00714083018
0.00713568541
0.00713351891
0.0071432296
0.00714608809
0.00713820998
0.00713580921
0.00714516958
0.00714834163
0.00714047642
0.00713835941
0.00714710094
0.00715012368
0.00714259401
0.00714079102
0.00714892321
0.00715168313
0.00714457782
0.00714304737
0.00715061127
0.00715311717
0.00714643395
0.00714513118
0.00715217587
0.00715443431
0.00714815149
0.00714706861
0.0071536167
0.00715564823
0.00714976168
0.00714884539
0.00715493412
0.00715676918
0.00715125828
0.00715048022
0.00715613923
0.00715780007
0.00715264383
0.00715198414
0.00715724219
0.00715874407
0.0071539231
0.00715336637
0.00715825019
0.00715960618
0.00715510198
0.0071546355
0.00715916973
0.0071603914
0.00715618653
0.00715579986
0.00716000704
0.0071611045
0.00715718263
0.00715686744
0.00716076819
0.00716175009
0.0071580958
0.00715784582
0.00716145915
0.00716233251
0.00715893121
0.00715874218
0.00716208586
0.00716285575
0.00715969359
0.00715956335
0.00716265429
0.00716332333
0.00716038732
0.00716031576
0.00716317054
0.00716373816
0.0071610159
0.00716100608
0.00716364199
0.00716410145
0.0071615846
0.00716163859
0.00716407871
0.00716441125
0.00716209073
0.00716222499
0.00716448209
0.00716467834
0.00716252707
0.00716277728
0.00716485827
0.00716494681
0.00716291675
0.00716325426
0.00716519771
0.00716519365
0.00716332635
0.00716361287
0.00716546154
0.0071654283
0.00716372088
0.00716395684
0.00716566295
0.00716563035
0.00716406353
0.00716427671
0.00716584245
0.00716580489
0.00716436651
0.00716456736
0.00716600367
0.00716596238
0.00716463344
0.007164826
0.00716614577
0.00716610105
0.00716487453
0.00716505938
0.00716626655
0.00716622086
0.00716509391
0.00716526796
0.00716636978
0.00716632563
0.0071652924
0.00716545403
0.00716645797
0.00716641656
0.0071654711
0.00716562057
0.00716653323
0.0071664949
0.00716563144
0.00716576935
0.00716659695
0.00716656241
0.00716577554
0.00716590128
0.00716664397
0.00716661588
0.00716590828
0.00716601817
0.00716666372
0.00716664334
0.00716603833
0.00716613849
0.00716640284
0.00716644128
0.00716624171
0.00716631145
0.00716636056
0.00716641498
0.00716639793
0.00716644945
0.00716645131
0.00716649895
0.00716650313
0.00716654777
0.007166554
0.00716659716
0.00716660463
0.00716664457
0.00716665348
0.00716668898
0.00716669928
0.00716672938
0.00716674085
0.00716676505
0.00716677726
0.00716679563
0.00716680798
0.00716682105
0.00716683182
0.00716684167
0.00716685106
0.00716685888
0.00716686912
0.00716687965
0.00716688759
0.00716689332
0.00716689717
0.00716689963
0.0071669011
0.00716690192
0.00716690233
0.00716690253
0.0071669026
0.00716690263
0.00716690264
0.00716690264
0.00716690264
0.00716690264
0.00716690264
0.00716690264
0.00716690264
0.00716690264
0.00716690264
0.00716690264
0.00716690264
0.00716690264
0.00716690264
0.00716690264
0.00716690264
0.00716690264
0.00716690264
0.00716690264
0.00716690264
0.00716690264
0.00716690264
0.00716690264
0.00716690264
0.00716690264
0.00716690264
0.00716690264
0.00716690264
0.00716690264
0.00716690264
0.00716690264
0.00716690264
0.00716690264
0.00716690264
0.00716690264
0.00716690264
)
;

boundaryField
{
    closed
    {
        type            zeroGradient;
    }
    open
    {
        type            zeroGradient;
    }
    sides
    {
        type            empty;
    }
    procBoundary5to4
    {
        type            processor;
        value           uniform 0.00682480052;
    }
}


// ************************************************************************* //
