/*--------------------------------*- C++ -*----------------------------------*\
| =========                 |                                                 |
| \\      /  F ield         | OpenFOAM: The Open Source CFD Toolbox           |
|  \\    /   O peration     | Version:  2306                                  |
|   \\  /    A nd           | Website:  www.openfoam.com                      |
|    \\/     M anipulation  |                                                 |
\*---------------------------------------------------------------------------*/
FoamFile
{
    version     2.0;
    format      ascii;
    arch        "LSB;label=32;scalar=64";
    class       volScalarField;
    location    "0.00098";
    object      sourcePV;
}
// * * * * * * * * * * * * * * * * * * * * * * * * * * * * * * * * * * * * * //

dimensions      [1 -3 -1 0 0 0 0];

internalField   nonuniform List<scalar> 
530
(
0.36796807
0.063615249
2.16119179e-08
0.151560827
0.355809331
0.265755492
2.23806801e-08
0.00178966438
0.330127224
0.256317503
2.3035815e-08
2.30711623e-08
0.307713001
0.205143852
2.37156047e-08
2.37610754e-08
0.281470741
0.178438524
2.44846221e-08
2.45553903e-08
0.251610906
0.158575633
2.52776601e-08
2.53495788e-08
0.225220077
0.141451315
2.60748842e-08
2.61509217e-08
0.202128496
0.128560611
0.00683055034
0.00214339185
0.170000502
0.115271505
0.0485788801
0.0283996418
0.0714023672
0.0522499418
0.128379648
0.0859583272
0.0109262423
0.00861683862
0.154111308
0.111566644
2.96405694e-08
2.97281412e-08
0.141512569
0.112950459
3.04650634e-08
3.05185274e-08
0.13322638
0.110563343
3.13187392e-08
3.13584849e-08
0.127070458
0.105638021
3.21663004e-08
3.22088696e-08
0.123167099
0.100656325
3.30719912e-08
3.31448981e-08
0.120023295
0.0958037803
3.40712275e-08
3.41380727e-08
0.116289911
0.0921129017
3.50652817e-08
3.51347047e-08
0.111245159
0.0873988777
3.60521494e-08
3.61174352e-08
0.106379836
0.0834981938
3.7028769e-08
3.70899387e-08
0.101711714
0.0801661321
3.79912735e-08
3.80492531e-08
0.0970485417
0.0770791563
3.90781332e-08
3.91416604e-08
0.0922547016
0.0742199055
4.02398089e-08
4.02900162e-08
0.087912189
0.0713674546
4.13941986e-08
4.14374297e-08
0.0840194892
0.0674656078
4.25483621e-08
4.25839725e-08
0.0807004531
0.0651087929
4.36654341e-08
4.3727241e-08
0.0779120024
0.0616599263
4.47741334e-08
4.48509222e-08
0.0749892278
0.0587564422
4.61038757e-08
4.62044892e-08
0.0715155283
0.0561117241
4.74710322e-08
4.75475574e-08
0.0675517798
0.0538149705
4.88063663e-08
4.88727024e-08
0.0641924461
0.0509932025
5.01149464e-08
5.01717896e-08
0.0610237955
0.048248838
5.1389273e-08
5.14399013e-08
0.058189816
0.0455493776
5.2713206e-08
5.27833534e-08
0.0553292606
0.0435704055
5.42796929e-08
5.43494844e-08
0.0523674573
0.0411329865
5.5822577e-08
5.58720579e-08
0.0492191322
0.0393129192
5.7270032e-08
5.73353252e-08
0.0462096226
0.0378642045
5.86100967e-08
5.8687959e-08
0.044840253
0.036827295
5.98883382e-08
5.99718835e-08
0.0436435076
0.0358347602
6.12007021e-08
6.13240587e-08
0.0422066715
0.0347138885
6.27845689e-08
6.29052341e-08
0.0406457503
0.0335795837
6.42960441e-08
6.4407069e-08
0.0390370931
0.0324311949
6.57308311e-08
6.58328015e-08
0.0374676783
0.0311000021
6.71071118e-08
6.72025395e-08
0.035890366
0.0292811378
6.84311477e-08
6.85198339e-08
0.0345407433
0.0265977977
6.96872365e-08
6.97636198e-08
0.0330262825
0.0250974957
7.09285278e-08
7.1057589e-08
0.0319054447
0.0233278354
7.25259116e-08
7.26279704e-08
0.0298670177
0.0227078877
7.40029185e-08
7.40765614e-08
0.0279237925
0.0221370608
7.53656115e-08
7.54423451e-08
0.027014913
0.0211190735
7.66356954e-08
7.67193968e-08
0.0261275614
0.0201780377
7.78141129e-08
7.79055987e-08
0.0253109025
0.0191360714
7.88919271e-08
7.90024968e-08
0.024455081
0.0176609566
7.98842307e-08
8.00167995e-08
0.0233196682
0.0158417652
8.08072762e-08
8.09871191e-08
0.021736263
0.0142500497
8.17442574e-08
8.20538353e-08
0.0195393228
0.0140774935
8.36115916e-08
8.39086494e-08
0.0171182553
0.0137011625
8.54322567e-08
8.56161899e-08
0.0153037358
0.013284941
8.70480886e-08
8.71689672e-08
0.0148079314
0.0127223181
8.85016829e-08
8.85831809e-08
0.0143943042
0.012376318
8.97886705e-08
8.98783659e-08
0.0139763518
0.0120284224
9.09590469e-08
9.10563137e-08
0.0135345153
0.0118283397
9.19990311e-08
9.21297211e-08
0.0130804067
0.0113994126
9.29592932e-08
9.30786316e-08
0.0126321838
0.0106435763
9.38383014e-08
9.39410992e-08
0.0123149982
0.0100176496
9.46069258e-08
9.47127918e-08
0.0119720412
0.00948400458
9.52903041e-08
9.53881332e-08
0.0115230881
0.00915528303
9.58760328e-08
9.59753616e-08
0.0108211191
0.00880931544
9.64050308e-08
9.64918117e-08
0.0102463656
0.00837207609
9.68660716e-08
9.69494777e-08
0.00966735608
0.00787427548
9.72632351e-08
9.735606e-08
0.00918717346
0.00732043204
9.75860608e-08
9.77101717e-08
0.00884454589
0.00676066085
9.78766276e-08
9.80032864e-08
0.00825174328
0.00632171406
9.81306945e-08
9.82493848e-08
0.00769896412
0.00582686506
9.83664046e-08
9.85095736e-08
0.00702509006
0.00533405404
9.86876862e-08
9.88185977e-08
0.00615845419
0.00475212916
9.90037083e-08
9.91036785e-08
0.00478594283
0.00403563756
9.93807841e-08
9.93670773e-08
0.00304541793
0.00355187001
0.00320897944
9.95924671e-08
9.98359876e-08
0.00318338784
0.00517165834
9.97878004e-08
9.9577072e-08
0.00289827026
0.00531392827
9.99162877e-08
9.96788966e-08
0.00274081537
0.00502661603
1.00009602e-07
9.9787792e-08
0.00261518387
0.00466023456
1.00081672e-07
9.98828375e-08
0.00249591524
0.00430415694
1.00137232e-07
9.99576691e-08
0.00237662859
0.00397466146
1.00177545e-07
1.00014875e-07
0.00226791186
0.00366068954
1.00203723e-07
1.00057323e-07
0.00215129162
0.00337782565
1.00219208e-07
1.0008563e-07
0.00203462839
0.00311829917
1.00224813e-07
1.00102234e-07
0.00192096887
0.0028787111
1.00221683e-07
1.00109054e-07
0.00181169127
0.0026568626
1.00211162e-07
1.00107627e-07
0.00170708166
0.00245101741
1.00194504e-07
1.00099351e-07
0.00160719391
0.00225949664
1.00172825e-07
1.00085495e-07
0.00151208074
0.00208070875
1.00147113e-07
1.00067205e-07
0.00142189057
0.00191316242
1.00118227e-07
1.00045509e-07
0.00133693027
0.00175542349
1.00086906e-07
1.00021341e-07
0.0012576912
0.00160605269
1.00053759e-07
9.99955537e-08
0.00118485461
0.00146354929
1.00019268e-07
9.99689415e-08
0.00111945828
0.00132615238
9.9983672e-08
9.99423592e-08
0.00106252132
0.00119226877
9.99468443e-08
9.9916892e-08
0.00101920093
0.00105679958
9.99084188e-08
9.98932686e-08
0.000997344507
0.000916841034
9.98684823e-08
9.98662169e-08
0.000985705247
0.000811447514
9.98296541e-08
9.98376842e-08
0.000925098215
0.000765779789
9.97985726e-08
9.98075935e-08
0.00084366195
0.000709527528
9.97722778e-08
9.97800079e-08
0.000774577894
0.0006501778
9.97463669e-08
9.97542431e-08
0.000713930075
0.000593584262
9.97211621e-08
9.97291937e-08
0.000661039111
0.000543148957
9.96972682e-08
9.97053254e-08
0.000610424789
0.000495757324
9.9675182e-08
9.96830101e-08
0.000561020577
0.00045235371
9.96546472e-08
9.9661985e-08
0.000513765699
0.000412642769
9.96355757e-08
9.96422954e-08
0.000469223744
0.000375690956
9.96178497e-08
9.96239472e-08
0.000427493091
0.000341298041
9.96013977e-08
9.96067669e-08
0.000387392645
0.000309289099
9.95869315e-08
9.95911339e-08
0.000343225959
0.000275859953
9.95752749e-08
9.957815e-08
0.00028061804
0.000221585884
4.12571963e-05
1.96442384e-05
0.000168427593
0.000129271386
0.000115217782
8.72869201e-05
0.000113901371
8.95935684e-05
0.000103210292
8.25597784e-05
9.36094425e-05
7.56256389e-05
8.40824382e-05
6.74685554e-05
7.43165278e-05
5.91803214e-05
6.41461877e-05
5.07831587e-05
5.37128624e-05
4.23836366e-05
4.3188942e-05
3.40356755e-05
3.28257644e-05
2.57749134e-05
2.2883116e-05
1.76962099e-05
1.40863502e-05
9.89593397e-06
6.0789047e-06
2.40473782e-06
9.94585642e-08
9.94562243e-08
9.94544756e-08
9.945327e-08
9.94524765e-08
9.94519883e-08
9.94517077e-08
9.94515597e-08
9.94514899e-08
9.94514605e-08
9.94514508e-08
9.94514485e-08
9.94514488e-08
9.94514494e-08
9.94514499e-08
9.94514501e-08
9.94514502e-08
9.94514503e-08
9.94514503e-08
9.94514503e-08
9.94514503e-08
9.94514503e-08
9.94514503e-08
9.94514503e-08
9.94514503e-08
9.94514503e-08
9.94514503e-08
9.94514503e-08
9.94514503e-08
9.94514503e-08
9.94514503e-08
9.94514503e-08
9.94514503e-08
9.94514503e-08
9.94514503e-08
9.94514503e-08
9.94514503e-08
9.94514503e-08
9.94514503e-08
9.94514503e-08
9.94514503e-08
9.94514503e-08
9.94514503e-08
9.94514503e-08
9.94514503e-08
9.94514503e-08
9.94514503e-08
)
;

boundaryField
{
    closed
    {
        type            calculated;
        value           nonuniform List<scalar> 0();
    }
    open
    {
        type            calculated;
        value           uniform 0;
    }
    sides
    {
        type            empty;
    }
    procBoundary5to4
    {
        type            processor;
        value           uniform 0;
    }
}


// ************************************************************************* //
