/*--------------------------------*- C++ -*----------------------------------*\
| =========                 |                                                 |
| \\      /  F ield         | OpenFOAM: The Open Source CFD Toolbox           |
|  \\    /   O peration     | Version:  2306                                  |
|   \\  /    A nd           | Website:  www.openfoam.com                      |
|    \\/     M anipulation  |                                                 |
\*---------------------------------------------------------------------------*/
FoamFile
{
    version     2.0;
    format      ascii;
    arch        "LSB;label=32;scalar=64";
    class       volScalarField;
    location    "0.0007";
    object      mu;
}
// * * * * * * * * * * * * * * * * * * * * * * * * * * * * * * * * * * * * * //

dimensions      [1 -1 -1 0 0 0 0];

internalField   nonuniform List<scalar> 
531
(
2.02031504e-05
2.02674128e-05
1.98476707e-05
1.94641202e-05
1.94654148e-05
2.01858629e-05
2.02928485e-05
1.976741e-05
1.9564792e-05
2.01558028e-05
2.02935599e-05
2.00624179e-05
1.97644217e-05
1.93369937e-05
1.93471277e-05
2.02219552e-05
2.02725857e-05
1.98462836e-05
1.94645641e-05
1.94645576e-05
2.01465576e-05
2.02649638e-05
2.00341079e-05
1.95353961e-05
1.9470972e-05
2.00433694e-05
2.02568688e-05
2.02373072e-05
1.94691134e-05
1.93668445e-05
2.00923927e-05
2.02703008e-05
2.0268354e-05
1.98091828e-05
1.93634697e-05
1.93699071e-05
2.01787753e-05
2.02657918e-05
1.98572334e-05
1.93483437e-05
1.93491909e-05
2.01514329e-05
2.02759495e-05
2.02576739e-05
1.98342728e-05
1.94219202e-05
1.94287181e-05
2.02156697e-05
2.02671394e-05
1.98278165e-05
1.93744287e-05
1.93828468e-05
2.02177575e-05
2.02852863e-05
1.97490198e-05
1.94710636e-05
2.02390016e-05
2.02773316e-05
1.98329487e-05
1.94887367e-05
1.94882298e-05
2.02355592e-05
2.0271933e-05
1.98547714e-05
1.95095423e-05
1.95136831e-05
2.02221743e-05
2.02679762e-05
1.99059653e-05
1.95131163e-05
1.95122629e-05
2.0224647e-05
2.02665022e-05
1.98649793e-05
1.93545093e-05
1.93619748e-05
2.02060898e-05
2.02843141e-05
2.02574323e-05
1.97945197e-05
1.93906261e-05
1.9394604e-05
2.02346655e-05
2.02651756e-05
1.98405994e-05
1.93947623e-05
1.94021438e-05
2.02395991e-05
2.02843792e-05
2.02764407e-05
1.97693681e-05
1.95632107e-05
1.94442735e-05
1.94434178e-05
2.02621378e-05
2.02773875e-05
1.98230836e-05
1.9591091e-05
1.96577451e-05
2.02743927e-05
2.03142269e-05
1.97490345e-05
1.94899664e-05
2.02528012e-05
2.03147826e-05
1.96968763e-05
1.96152173e-05
2.02369486e-05
2.02932853e-05
1.99746657e-05
1.97650884e-05
1.97488608e-05
1.94998855e-05
1.9502686e-05
2.02713795e-05
2.02816151e-05
2.02811372e-05
1.964724e-05
1.94368436e-05
2.02451073e-05
2.02579156e-05
2.02421883e-05
2.00466437e-05
1.96741301e-05
1.95916406e-05
1.93727829e-05
1.93722372e-05
2.00009791e-05
2.02698271e-05
2.02755266e-05
1.9709981e-05
1.9443098e-05
1.99376878e-05
2.02773313e-05
2.02817199e-05
1.97824836e-05
1.93175801e-05
1.94101842e-05
2.02641951e-05
2.02835109e-05
2.0273765e-05
1.97765833e-05
1.96037593e-05
1.92444112e-05
1.92453234e-05
2.02564898e-05
2.02648497e-05
2.02639826e-05
1.9654345e-05
1.93630338e-05
2.01116848e-05
2.02667787e-05
2.0272619e-05
2.02724391e-05
1.97809646e-05
1.95348397e-05
1.96135618e-05
1.94244784e-05
1.94301016e-05
2.0247064e-05
2.02823022e-05
2.02764501e-05
2.02881926e-05
1.97905185e-05
1.95728906e-05
1.96165183e-05
1.94352157e-05
1.94759273e-05
2.02629536e-05
2.02883663e-05
2.0272645e-05
2.02916392e-05
1.97796966e-05
1.9561191e-05
1.92630172e-05
1.92586495e-05
2.00403734e-05
2.02790284e-05
2.02566774e-05
2.02862649e-05
2.00215071e-05
1.97687686e-05
1.96694976e-05
1.97084571e-05
1.94807904e-05
1.94843743e-05
2.02606212e-05
2.02745287e-05
2.02713276e-05
1.96631055e-05
1.94425422e-05
2.02683755e-05
2.02680472e-05
1.9876872e-05
1.93923437e-05
1.9391521e-05
2.02583305e-05
2.02820379e-05
1.96853751e-05
1.94917919e-05
2.02629236e-05
2.02686619e-05
1.98678531e-05
1.94160336e-05
1.94193586e-05
2.02556108e-05
2.02845805e-05
1.96937495e-05
1.95008551e-05
2.02642011e-05
2.02777924e-05
1.98705602e-05
1.94449335e-05
1.94463842e-05
2.0269566e-05
2.02707306e-05
1.98120616e-05
1.9462497e-05
1.94917776e-05
2.02716253e-05
2.02790433e-05
2.02785375e-05
1.97771639e-05
1.95689949e-05
1.93249329e-05
1.93353579e-05
2.02579099e-05
2.02685505e-05
2.02648561e-05
1.97048322e-05
1.94015648e-05
1.98934874e-05
2.02646064e-05
2.02900278e-05
1.9617228e-05
1.93466321e-05
2.0266096e-05
2.02598882e-05
1.98364343e-05
1.94089175e-05
1.94151336e-05
2.0252241e-05
2.0274161e-05
2.02537274e-05
1.98614832e-05
1.96362062e-05
1.96078769e-05
1.93000111e-05
1.93086231e-05
2.02382533e-05
2.02620068e-05
2.02444525e-05
2.02601211e-05
1.98392406e-05
1.92508398e-05
1.9252962e-05
2.02618243e-05
2.02606221e-05
1.98237813e-05
1.93552894e-05
1.9366697e-05
2.02472942e-05
2.02870205e-05
1.97051293e-05
1.95040986e-05
2.02523732e-05
2.02940103e-05
1.96824507e-05
1.95169392e-05
2.02598994e-05
2.02943349e-05
1.9697305e-05
1.95307839e-05
2.0272291e-05
2.02820113e-05
1.98146513e-05
1.95038305e-05
1.95040883e-05
2.02806146e-05
2.02772714e-05
1.98023824e-05
1.95243285e-05
1.96488897e-05
2.02737235e-05
2.03071798e-05
1.96321511e-05
1.94114242e-05
2.02886902e-05
2.0283629e-05
1.97783443e-05
1.95058934e-05
1.96677076e-05
2.02794754e-05
2.02968025e-05
1.97467815e-05
1.93773088e-05
1.99176807e-05
2.02730102e-05
2.03007288e-05
2.02769077e-05
1.97901479e-05
1.95555655e-05
1.96135843e-05
1.94407889e-05
1.94564964e-05
2.02591764e-05
2.02803582e-05
1.97451174e-05
1.95004779e-05
2.0260161e-05
2.02726694e-05
1.99980044e-05
1.94395191e-05
1.94300739e-05
2.02716408e-05
2.02608737e-05
1.98145619e-05
1.9473183e-05
1.94796357e-05
2.02677691e-05
2.02824577e-05
1.97445943e-05
1.95029803e-05
2.02857164e-05
2.02737655e-05
1.98070524e-05
1.94403908e-05
1.94447523e-05
2.0274212e-05
2.02839323e-05
1.97349952e-05
1.9504285e-05
2.02864339e-05
2.02724849e-05
1.98077052e-05
1.94388176e-05
1.94445363e-05
2.02749307e-05
2.02828583e-05
1.9729809e-05
1.95093263e-05
2.02867701e-05
2.02709618e-05
1.98153502e-05
1.94390147e-05
1.94440862e-05
2.0274926e-05
2.02835514e-05
1.9719642e-05
1.95151383e-05
2.0287316e-05
2.02749852e-05
1.9822069e-05
1.9459451e-05
1.94623198e-05
2.02833645e-05
2.02694011e-05
1.98419732e-05
1.94656812e-05
1.94665532e-05
2.02917252e-05
2.02749321e-05
1.98000842e-05
1.94590361e-05
1.94954206e-05
2.02767026e-05
2.03023025e-05
1.9532203e-05
1.96567862e-05
2.02824062e-05
1.99492239e-05
1.95090472e-05
1.9771732e-05
2.02829081e-05
1.97570682e-05
1.95375727e-05
2.03045503e-05
2.02762494e-05
1.98660765e-05
1.94551165e-05
1.94565983e-05
2.02884016e-05
2.02710409e-05
1.98513747e-05
1.94912777e-05
1.94703622e-05
2.0261165e-05
2.02782775e-05
1.94692482e-05
1.97770763e-05
2.02848846e-05
1.97659181e-05
1.94855057e-05
2.03029056e-05
2.02910855e-05
1.96685946e-05
1.95388311e-05
2.02870282e-05
2.0269228e-05
1.98593696e-05
1.94168953e-05
1.94219578e-05
2.02563544e-05
2.02514852e-05
2.01180489e-05
1.94400995e-05
1.94403755e-05
2.01909456e-05
2.02694954e-05
2.00714646e-05
1.97805243e-05
1.93052533e-05
1.93279351e-05
2.02685261e-05
2.02632208e-05
1.98772611e-05
1.94300111e-05
1.94303262e-05
2.02814219e-05
2.02654394e-05
1.98737568e-05
1.94363427e-05
1.94359246e-05
2.0285231e-05
2.0268345e-05
1.98501115e-05
1.9432503e-05
1.94324619e-05
2.02868947e-05
2.0270541e-05
1.98525747e-05
1.94474799e-05
1.94510448e-05
2.0288042e-05
2.02692163e-05
1.98271691e-05
1.94367718e-05
1.94399429e-05
2.02853225e-05
2.0286435e-05
1.96870245e-05
1.95177562e-05
2.02945626e-05
2.02766383e-05
1.98095026e-05
1.94349937e-05
1.94381294e-05
2.02871838e-05
2.02861532e-05
1.96861652e-05
1.95198643e-05
2.02959924e-05
2.02759461e-05
1.9807518e-05
1.94356544e-05
1.94388271e-05
2.02873543e-05
2.02868972e-05
1.96807936e-05
1.95265001e-05
2.02941627e-05
2.02792958e-05
1.98162124e-05
1.94383602e-05
1.9443967e-05
2.02956837e-05
2.02696417e-05
1.98230129e-05
1.94095161e-05
1.94151637e-05
2.02880498e-05
2.02971098e-05
1.96409519e-05
1.9559373e-05
2.02963722e-05
2.02980511e-05
1.98433864e-05
1.97681125e-05
1.95050569e-05
1.95197662e-05
2.0237218e-05
2.02698717e-05
2.02015357e-05
1.95015762e-05
1.94062545e-05
2.02951946e-05
2.0259794e-05
1.97968516e-05
1.93718515e-05
1.93819423e-05
2.02912353e-05
2.02839866e-05
1.96402259e-05
1.94893299e-05
2.03004766e-05
2.02720374e-05
1.97919738e-05
1.93834718e-05
1.93989247e-05
2.02853112e-05
2.02912688e-05
1.96243263e-05
1.94869413e-05
2.02919231e-05
2.02956131e-05
1.96252102e-05
1.95352792e-05
2.03069739e-05
2.02909402e-05
1.97734861e-05
1.95961485e-05
1.97169528e-05
2.02971606e-05
2.0288062e-05
1.97867422e-05
1.93959863e-05
1.94011608e-05
2.03121687e-05
2.0281406e-05
1.97638073e-05
1.94891137e-05
1.96977709e-05
2.02848642e-05
2.03039709e-05
1.95767616e-05
1.94282161e-05
2.03163988e-05
2.02895133e-05
1.97994284e-05
1.94250508e-05
1.94426352e-05
)
;

boundaryField
{
    closed
    {
        type            calculated;
        value           nonuniform List<scalar> 0();
    }
    open
    {
        type            calculated;
        value           nonuniform List<scalar> 0();
    }
    sides
    {
        type            empty;
    }
    procBoundary3to2
    {
        type            processor;
        value           uniform 1.94711466e-05;
    }
    procBoundary3to4
    {
        type            processor;
        value           uniform 2.03150035e-05;
    }
}


// ************************************************************************* //
