/*--------------------------------*- C++ -*----------------------------------*\
| =========                 |                                                 |
| \\      /  F ield         | OpenFOAM: The Open Source CFD Toolbox           |
|  \\    /   O peration     | Version:  2306                                  |
|   \\  /    A nd           | Website:  www.openfoam.com                      |
|    \\/     M anipulation  |                                                 |
\*---------------------------------------------------------------------------*/
FoamFile
{
    version     2.0;
    format      ascii;
    arch        "LSB;label=32;scalar=64";
    class       volScalarField;
    location    "0.0007";
    object      prefDZ_H2O;
}
// * * * * * * * * * * * * * * * * * * * * * * * * * * * * * * * * * * * * * //

dimensions      [1 -1 -1 0 0 0 0];

internalField   nonuniform List<scalar> 
531
(
-7.79323795e-07
-7.75066019e-07
-7.55601854e-07
-7.34933539e-07
-7.34473967e-07
-7.78509701e-07
-7.74514834e-07
-7.39651144e-07
-7.35972667e-07
-7.76724395e-07
-7.73702957e-07
-7.71803666e-07
-7.43142605e-07
-7.33141308e-07
-7.32699678e-07
-7.80352026e-07
-7.75119263e-07
-7.55256981e-07
-7.34869531e-07
-7.34644904e-07
-7.76340616e-07
-7.74945728e-07
-7.70102707e-07
-7.35862931e-07
-7.34991791e-07
-7.70393142e-07
-7.75285854e-07
-7.77895314e-07
-7.34728401e-07
-7.33378849e-07
-7.7310861e-07
-7.74506643e-07
-7.75116753e-07
-7.50820072e-07
-7.33432821e-07
-7.33129043e-07
-7.78133445e-07
-7.75478604e-07
-7.56258065e-07
-7.33048114e-07
-7.32805425e-07
-7.76460191e-07
-7.74506304e-07
-7.75307521e-07
-7.54184111e-07
-7.3433725e-07
-7.34049437e-07
-7.80107911e-07
-7.75263377e-07
-7.52855491e-07
-7.33542791e-07
-7.33255355e-07
-7.80110553e-07
-7.75018044e-07
-7.3930221e-07
-7.34645967e-07
-7.80192359e-07
-7.748284e-07
-7.53967633e-07
-7.35212814e-07
-7.34962773e-07
-7.79796459e-07
-7.74733466e-07
-7.56207176e-07
-7.35614105e-07
-7.35404244e-07
-7.80289865e-07
-7.74721612e-07
-7.6085855e-07
-7.35666704e-07
-7.35457178e-07
-7.80466698e-07
-7.75121964e-07
-7.5714708e-07
-7.33152483e-07
-7.32944047e-07
-7.7933182e-07
-7.74225349e-07
-7.75380894e-07
-7.49003722e-07
-7.3382399e-07
-7.33501831e-07
-7.79688763e-07
-7.75226132e-07
-7.54521589e-07
-7.33879805e-07
-7.33633452e-07
-7.80371394e-07
-7.74084073e-07
-7.74810131e-07
-7.42767641e-07
-7.36293977e-07
-7.34330135e-07
-7.34377348e-07
-7.7879913e-07
-7.74538003e-07
-7.53234924e-07
-7.36605017e-07
-7.37502189e-07
-7.76178617e-07
-7.73938725e-07
-7.38999263e-07
-7.34660552e-07
-7.7925331e-07
-7.74443805e-07
-7.38366862e-07
-7.36727508e-07
-7.79430899e-07
-7.73397297e-07
-7.66113161e-07
-7.39480049e-07
-7.391855e-07
-7.35216413e-07
-7.35200864e-07
-7.79107253e-07
-7.7431689e-07
-7.75136296e-07
-7.37516261e-07
-7.3420961e-07
-7.80857377e-07
-7.7549622e-07
-7.76410199e-07
-7.7081743e-07
-7.38118466e-07
-7.36907037e-07
-7.33402895e-07
-7.33319886e-07
-7.67776816e-07
-7.749572e-07
-7.76139527e-07
-7.38216582e-07
-7.34359167e-07
-7.63693836e-07
-7.74409445e-07
-7.74902372e-07
-7.47161178e-07
-7.32567269e-07
-7.33698276e-07
-7.7778251e-07
-7.73826968e-07
-7.74021595e-07
-7.43206872e-07
-7.36996165e-07
-7.31307028e-07
-7.31406803e-07
-7.80362295e-07
-7.75091192e-07
-7.75768651e-07
-7.37705223e-07
-7.33238434e-07
-7.74224025e-07
-7.75789085e-07
-7.75867365e-07
-7.75334495e-07
-7.46172801e-07
-7.3593963e-07
-7.36911122e-07
-7.34275071e-07
-7.34085953e-07
-7.78370506e-07
-7.74669076e-07
-7.75049573e-07
-7.74384192e-07
-7.49305475e-07
-7.36292246e-07
-7.36803039e-07
-7.34291635e-07
-7.34730533e-07
-7.77332163e-07
-7.74492669e-07
-7.74936242e-07
-7.74414203e-07
-7.44630909e-07
-7.36121667e-07
-7.31458523e-07
-7.31339077e-07
-7.70118361e-07
-7.7529342e-07
-7.76871236e-07
-7.74242297e-07
-7.69280976e-07
-7.40525937e-07
-7.38288804e-07
-7.38461294e-07
-7.3523591e-07
-7.34985675e-07
-7.78326216e-07
-7.74325884e-07
-7.74806715e-07
-7.37739163e-07
-7.34353904e-07
-7.78687832e-07
-7.7516499e-07
-7.586218e-07
-7.33674546e-07
-7.33432609e-07
-7.78675042e-07
-7.74849618e-07
-7.3822614e-07
-7.35075282e-07
-7.78532404e-07
-7.74910882e-07
-7.57711558e-07
-7.34040658e-07
-7.33860126e-07
-7.78717987e-07
-7.74743138e-07
-7.38348894e-07
-7.35141981e-07
-7.78530086e-07
-7.74689773e-07
-7.57966752e-07
-7.34306612e-07
-7.34346808e-07
-7.78230761e-07
-7.74950417e-07
-7.51682514e-07
-7.3479221e-07
-7.35076623e-07
-7.77528986e-07
-7.73757179e-07
-7.74649121e-07
-7.42123108e-07
-7.36552219e-07
-7.32585128e-07
-7.32879504e-07
-7.79413145e-07
-7.74720045e-07
-7.75541067e-07
-7.38224367e-07
-7.33832245e-07
-7.60583827e-07
-7.75308277e-07
-7.75513686e-07
-7.3694985e-07
-7.32911823e-07
-7.78917917e-07
-7.75440612e-07
-7.54405225e-07
-7.34054461e-07
-7.33880971e-07
-7.78712516e-07
-7.74330928e-07
-7.75188732e-07
-7.57097242e-07
-7.37620329e-07
-7.36965275e-07
-7.32541252e-07
-7.32334071e-07
-7.80042811e-07
-7.75700675e-07
-7.76536394e-07
-7.75740752e-07
-7.54020537e-07
-7.31535645e-07
-7.31463481e-07
-7.78718142e-07
-7.7566445e-07
-7.52878475e-07
-7.33264425e-07
-7.33011587e-07
-7.78664883e-07
-7.7477975e-07
-7.38708314e-07
-7.35079807e-07
-7.78713549e-07
-7.7437343e-07
-7.38301447e-07
-7.3522865e-07
-7.78573272e-07
-7.7432952e-07
-7.38411076e-07
-7.35525187e-07
-7.78042924e-07
-7.74447314e-07
-7.5182169e-07
-7.35280211e-07
-7.35217202e-07
-7.77282917e-07
-7.74520847e-07
-7.50687219e-07
-7.35657003e-07
-7.37337946e-07
-7.76255745e-07
-7.74021365e-07
-7.37150503e-07
-7.33515546e-07
-7.78261213e-07
-7.74802961e-07
-7.46483235e-07
-7.35389269e-07
-7.37687157e-07
-7.75951073e-07
-7.74178232e-07
-7.38793711e-07
-7.33176683e-07
-7.62342022e-07
-7.75796107e-07
-7.74388357e-07
-7.74820813e-07
-7.48881507e-07
-7.36265885e-07
-7.36887456e-07
-7.34561827e-07
-7.34519003e-07
-7.76633805e-07
-7.74514614e-07
-7.3926413e-07
-7.35159985e-07
-7.79073248e-07
-7.74792613e-07
-7.67699787e-07
-7.34314855e-07
-7.34309809e-07
-7.78508991e-07
-7.75077794e-07
-7.51540386e-07
-7.35055461e-07
-7.34851731e-07
-7.77485867e-07
-7.74621966e-07
-7.39128488e-07
-7.35218899e-07
-7.77512497e-07
-7.74825422e-07
-7.51022259e-07
-7.34432347e-07
-7.34240637e-07
-7.77372177e-07
-7.74664093e-07
-7.38962642e-07
-7.35248036e-07
-7.77386957e-07
-7.74844581e-07
-7.51056831e-07
-7.34418417e-07
-7.34249984e-07
-7.77296231e-07
-7.74668312e-07
-7.38886128e-07
-7.35346603e-07
-7.77297592e-07
-7.74849147e-07
-7.52124219e-07
-7.34432731e-07
-7.3424512e-07
-7.77240436e-07
-7.74636479e-07
-7.38743818e-07
-7.35407353e-07
-7.77251474e-07
-7.74700472e-07
-7.5279341e-07
-7.3464852e-07
-7.34653159e-07
-7.76861246e-07
-7.74801339e-07
-7.55040284e-07
-7.34714021e-07
-7.34696884e-07
-7.76630142e-07
-7.74792271e-07
-7.49662169e-07
-7.34625759e-07
-7.35178422e-07
-7.762291e-07
-7.75489977e-07
-7.35587472e-07
-7.37664752e-07
-7.75773881e-07
-7.64380084e-07
-7.35232838e-07
-7.47882406e-07
-7.7524566e-07
-7.43340865e-07
-7.35758391e-07
-7.76719666e-07
-7.74631737e-07
-7.5773501e-07
-7.34520329e-07
-7.3453725e-07
-7.76953602e-07
-7.74748354e-07
-7.56005602e-07
-7.35200557e-07
-7.34959689e-07
-7.77480033e-07
-7.76826158e-07
-7.34675304e-07
-7.40761445e-07
-7.7578198e-07
-7.44048974e-07
-7.34818015e-07
-7.76950193e-07
-7.74421215e-07
-7.37768496e-07
-7.35752911e-07
-7.77244154e-07
-7.74759421e-07
-7.56809021e-07
-7.34141002e-07
-7.34184774e-07
-7.78591986e-07
-7.75109964e-07
-7.7508481e-07
-7.34610599e-07
-7.34529792e-07
-7.78719582e-07
-7.7406911e-07
-7.72377813e-07
-7.41955578e-07
-7.32693897e-07
-7.32584193e-07
-7.76876865e-07
-7.751677e-07
-7.5845649e-07
-7.34224173e-07
-7.34242394e-07
-7.77029505e-07
-7.74989695e-07
-7.5823876e-07
-7.34278275e-07
-7.34284951e-07
-7.76849197e-07
-7.74960016e-07
-7.5599764e-07
-7.34194085e-07
-7.34193003e-07
-7.76644284e-07
-7.74887968e-07
-7.56274219e-07
-7.34386819e-07
-7.34479693e-07
-7.76549194e-07
-7.74916142e-07
-7.53743644e-07
-7.34280149e-07
-7.34141386e-07
-7.765013e-07
-7.74539337e-07
-7.38064551e-07
-7.35418271e-07
-7.76344143e-07
-7.74690074e-07
-7.51675414e-07
-7.34199771e-07
-7.34091181e-07
-7.76283929e-07
-7.74537544e-07
-7.38027638e-07
-7.35463786e-07
-7.76182759e-07
-7.74685237e-07
-7.51456524e-07
-7.34207544e-07
-7.34094266e-07
-7.76151041e-07
-7.74497674e-07
-7.37947743e-07
-7.35543193e-07
-7.76093786e-07
-7.74585735e-07
-7.52279874e-07
-7.34149003e-07
-7.34333979e-07
-7.75909623e-07
-7.74951426e-07
-7.53535294e-07
-7.33824144e-07
-7.33649353e-07
-7.76111532e-07
-7.74286106e-07
-7.37320011e-07
-7.35831367e-07
-7.76194955e-07
-7.73392472e-07
-7.55416656e-07
-7.39388765e-07
-7.35550756e-07
-7.35438407e-07
-7.77597867e-07
-7.74375526e-07
-7.79670737e-07
-7.350838e-07
-7.34209039e-07
-7.76235943e-07
-7.75213364e-07
-7.49822367e-07
-7.3326777e-07
-7.332107e-07
-7.75881723e-07
-7.74750206e-07
-7.37249591e-07
-7.35026849e-07
-7.75616237e-07
-7.74891197e-07
-7.49207431e-07
-7.33447732e-07
-7.3342005e-07
-7.75899368e-07
-7.74567226e-07
-7.37127858e-07
-7.34764545e-07
-7.76112973e-07
-7.74218002e-07
-7.37016099e-07
-7.35532453e-07
-7.75239094e-07
-7.74055915e-07
-7.45772779e-07
-7.36598653e-07
-7.38483334e-07
-7.74172428e-07
-7.73955711e-07
-7.48156964e-07
-7.33310392e-07
-7.33464246e-07
-7.74991089e-07
-7.7476214e-07
-7.44751825e-07
-7.35101688e-07
-7.38010098e-07
-7.75167306e-07
-7.73760152e-07
-7.3620376e-07
-7.33784697e-07
-7.75334453e-07
-7.74673e-07
-7.50660916e-07
-7.33787595e-07
-7.34217411e-07
)
;

boundaryField
{
    closed
    {
        type            calculated;
        value           nonuniform List<scalar> 0();
    }
    open
    {
        type            calculated;
        value           nonuniform List<scalar> 0();
    }
    sides
    {
        type            empty;
    }
    procBoundary3to2
    {
        type            processor;
        value           uniform -7.34761217e-07;
    }
    procBoundary3to4
    {
        type            processor;
        value           uniform -7.74767242e-07;
    }
}


// ************************************************************************* //
