/*--------------------------------*- C++ -*----------------------------------*\
| =========                 |                                                 |
| \\      /  F ield         | OpenFOAM: The Open Source CFD Toolbox           |
|  \\    /   O peration     | Version:  2306                                  |
|   \\  /    A nd           | Website:  www.openfoam.com                      |
|    \\/     M anipulation  |                                                 |
\*---------------------------------------------------------------------------*/
FoamFile
{
    version     2.0;
    format      ascii;
    arch        "LSB;label=32;scalar=64";
    class       volVectorField;
    location    "0.0007";
    object      U;
}
// * * * * * * * * * * * * * * * * * * * * * * * * * * * * * * * * * * * * * //

dimensions      [0 1 -1 0 0 0 0];

internalField   nonuniform List<vector> 
531
(
(0.71944249 0 0)
(0.717533431 0 0)
(0.703389149 0 0)
(0.691171218 0 0)
(0.69659982 0 0)
(0.708338449 0 0)
(0.70342256 0 0)
(0.693583603 0 0)
(0.695545912 0 0)
(0.696209884 0 0)
(0.689872661 0 0)
(0.693086427 0 0)
(0.689518535 0 0)
(0.671076285 0 0)
(0.657512242 0 0)
(0.67319632 0 0)
(0.687856191 0 0)
(0.673764002 0 0)
(0.661422174 0 0)
(0.666276164 0 0)
(0.667939165 0 0)
(0.658608746 0 0)
(0.660001631 0 0)
(0.664673614 0 0)
(0.666152823 0 0)
(0.653693528 0 0)
(0.640885822 0 0)
(0.647057088 0 0)
(0.653480574 0 0)
(0.655005387 0 0)
(0.650016519 0 0)
(0.642366934 0 0)
(0.635936264 0 0)
(0.621977712 0 0)
(0.609439817 0 0)
(0.616160904 0 0)
(0.628701198 0 0)
(0.625999177 0 0)
(0.611759504 0 0)
(0.599155593 0 0)
(0.606598321 0 0)
(0.614616222 0 0)
(0.611571208 0 0)
(0.604743773 0 0)
(0.591638426 0 0)
(0.579065947 0 0)
(0.582899969 0 0)
(0.600811528 0 0)
(0.605035421 0 0)
(0.590078058 0 0)
(0.5735526 0 0)
(0.578280198 0 0)
(0.596741462 0 0)
(0.598640595 0 0)
(0.584189651 0 0)
(0.580573393 0 0)
(0.595514537 0 0)
(0.601612407 0 0)
(0.588791512 0 0)
(0.574111045 0 0)
(0.564188083 0 0)
(0.576638344 0 0)
(0.590264213 0 0)
(0.578408578 0 0)
(0.564758557 0 0)
(0.566912293 0 0)
(0.5815944 0 0)
(0.585151826 0 0)
(0.575036808 0 0)
(0.562651189 0 0)
(0.562368432 0 0)
(0.576910815 0 0)
(0.582258076 0 0)
(0.568708609 0 0)
(0.55415689 0 0)
(0.560606188 0 0)
(0.576223071 0 0)
(0.580412515 0 0)
(0.57279733 0 0)
(0.556854306 0 0)
(0.542906166 0 0)
(0.535016387 0 0)
(0.549050866 0 0)
(0.562856145 0 0)
(0.549982106 0 0)
(0.534621574 0 0)
(0.540173815 0 0)
(0.558821353 0 0)
(0.566305805 0 0)
(0.560556235 0 0)
(0.547575367 0 0)
(0.539703258 0 0)
(0.534322378 0 0)
(0.526897247 0 0)
(0.536923482 0 0)
(0.547584043 0 0)
(0.539051869 0 0)
(0.531858069 0 0)
(0.525153159 0 0)
(0.524858002 0 0)
(0.523888274 0 0)
(0.516589088 0 0)
(0.520288103 0 0)
(0.534590006 0 0)
(0.537529544 0 0)
(0.527266726 0 0)
(0.525533118 0 0)
(0.534283911 0 0)
(0.53783989 0 0)
(0.53830692 0 0)
(0.538110366 0 0)
(0.529586001 0 0)
(0.516551698 0 0)
(0.518693971 0 0)
(0.53059648 0 0)
(0.532277235 0 0)
(0.528671326 0 0)
(0.515437231 0 0)
(0.511576576 0 0)
(0.524820133 0 0)
(0.530957115 0 0)
(0.528697055 0 0)
(0.536821211 0 0)
(0.544537579 0 0)
(0.536634319 0 0)
(0.529599793 0 0)
(0.535777719 0 0)
(0.534777097 0 0)
(0.527068431 0 0)
(0.526544272 0 0)
(0.529591469 0 0)
(0.537802367 0 0)
(0.537250116 0 0)
(0.534418337 0 0)
(0.530259547 0 0)
(0.518590148 0 0)
(0.51118287 0 0)
(0.510866245 0 0)
(0.521442131 0 0)
(0.529141322 0 0)
(0.525953825 0 0)
(0.515246264 0 0)
(0.508175028 0 0)
(0.502243745 0 0)
(0.496861757 0 0)
(0.511899012 0 0)
(0.527078371 0 0)
(0.524782267 0 0)
(0.512274141 0 0)
(0.507622145 0 0)
(0.511672071 0 0)
(0.511905681 0 0)
(0.514272908 0 0)
(0.510505694 0 0)
(0.500202308 0 0)
(0.495138714 0 0)
(0.493591901 0 0)
(0.487918762 0 0)
(0.492554437 0 0)
(0.503909216 0 0)
(0.50379861 0 0)
(0.502502472 0 0)
(0.496120172 0 0)
(0.487120707 0 0)
(0.484885044 0 0)
(0.485050176 0 0)
(0.481112779 0 0)
(0.475154074 0 0)
(0.47887372 0 0)
(0.48417207 0 0)
(0.484628165 0 0)
(0.479644995 0 0)
(0.468194164 0 0)
(0.460763852 0 0)
(0.460562479 0 0)
(0.470283069 0 0)
(0.471123365 0 0)
(0.462467026 0 0)
(0.462970097 0 0)
(0.462747368 0 0)
(0.467995414 0 0)
(0.471857944 0 0)
(0.464325059 0 0)
(0.454980644 0 0)
(0.446318765 0 0)
(0.449862005 0 0)
(0.461077408 0 0)
(0.462153971 0 0)
(0.458389752 0 0)
(0.447633283 0 0)
(0.447186712 0 0)
(0.460658018 0 0)
(0.464015669 0 0)
(0.455509723 0 0)
(0.445407974 0 0)
(0.438361454 0 0)
(0.448644359 0 0)
(0.456044869 0 0)
(0.444858926 0 0)
(0.442788082 0 0)
(0.453223125 0 0)
(0.455378662 0 0)
(0.446121305 0 0)
(0.435999525 0 0)
(0.439604751 0 0)
(0.452779005 0 0)
(0.45155557 0 0)
(0.439869693 0 0)
(0.437359122 0 0)
(0.447066572 0 0)
(0.448906057 0 0)
(0.43952458 0 0)
(0.429473971 0 0)
(0.432548636 0 0)
(0.444348937 0 0)
(0.444268136 0 0)
(0.433596466 0 0)
(0.422227477 0 0)
(0.417377696 0 0)
(0.423157438 0 0)
(0.42828627 0 0)
(0.42338192 0 0)
(0.412469882 0 0)
(0.402344885 0 0)
(0.394237713 0 0)
(0.398205529 0 0)
(0.409903295 0 0)
(0.413108266 0 0)
(0.403079275 0 0)
(0.398212635 0 0)
(0.403709476 0 0)
(0.400022854 0 0)
(0.396339396 0 0)
(0.393506344 0 0)
(0.389005698 0 0)
(0.392072778 0 0)
(0.403171252 0 0)
(0.40757988 0 0)
(0.396879813 0 0)
(0.383505108 0 0)
(0.377815835 0 0)
(0.385923392 0 0)
(0.39507807 0 0)
(0.390110869 0 0)
(0.383463426 0 0)
(0.378565206 0 0)
(0.372695763 0 0)
(0.363614194 0 0)
(0.354608855 0 0)
(0.360997396 0 0)
(0.373598154 0 0)
(0.373100486 0 0)
(0.367029117 0 0)
(0.356281318 0 0)
(0.345866394 0 0)
(0.341756066 0 0)
(0.352210419 0 0)
(0.362523145 0 0)
(0.351313859 0 0)
(0.337815133 0 0)
(0.340712802 0 0)
(0.351486748 0 0)
(0.351465168 0 0)
(0.339814761 0 0)
(0.333511937 0 0)
(0.34002128 0 0)
(0.342574415 0 0)
(0.331385468 0 0)
(0.325571627 0 0)
(0.33244599 0 0)
(0.335425529 0 0)
(0.324613476 0 0)
(0.318942147 0 0)
(0.325872212 0 0)
(0.330725217 0 0)
(0.322841244 0 0)
(0.312154898 0 0)
(0.30701556 0 0)
(0.313288206 0 0)
(0.321132176 0 0)
(0.315355922 0 0)
(0.308540138 0 0)
(0.303403296 0 0)
(0.30272521 0 0)
(0.301707866 0 0)
(0.294661837 0 0)
(0.295287266 0 0)
(0.305170175 0 0)
(0.312194885 0 0)
(0.306423009 0 0)
(0.298758861 0 0)
(0.293140478 0 0)
(0.292895402 0 0)
(0.294314582 0 0)
(0.291066228 0 0)
(0.291391121 0 0)
(0.291192351 0 0)
(0.293767086 0 0)
(0.297715219 0 0)
(0.297568157 0 0)
(0.294195733 0 0)
(0.289692216 0 0)
(0.287347197 0 0)
(0.285722195 0 0)
(0.284259641 0 0)
(0.285637439 0 0)
(0.286582227 0 0)
(0.276805554 0 0)
(0.271871252 0 0)
(0.277451518 0 0)
(0.283757474 0 0)
(0.281531174 0 0)
(0.276130843 0 0)
(0.273166758 0 0)
(0.27905663 0 0)
(0.284666276 0 0)
(0.27718639 0 0)
(0.266634038 0 0)
(0.269001037 0 0)
(0.276480602 0 0)
(0.276426482 0 0)
(0.266372366 0 0)
(0.26072673 0 0)
(0.266253399 0 0)
(0.271241691 0 0)
(0.264466177 0 0)
(0.2549105 0 0)
(0.252238497 0 0)
(0.25828488 0 0)
(0.263264717 0 0)
(0.253550182 0 0)
(0.247535426 0 0)
(0.252643395 0 0)
(0.257705802 0 0)
(0.251359866 0 0)
(0.242175007 0 0)
(0.239826583 0 0)
(0.24575708 0 0)
(0.250544565 0 0)
(0.241056263 0 0)
(0.23496277 0 0)
(0.239751686 0 0)
(0.244799256 0 0)
(0.23883395 0 0)
(0.230119749 0 0)
(0.228042571 0 0)
(0.233841465 0 0)
(0.23847214 0 0)
(0.229354791 0 0)
(0.223375128 0 0)
(0.228054033 0 0)
(0.233026794 0 0)
(0.227489857 0 0)
(0.219273661 0 0)
(0.217256522 0 0)
(0.222487382 0 0)
(0.228697493 0 0)
(0.223980237 0 0)
(0.216525047 0 0)
(0.214041068 0 0)
(0.218524724 0 0)
(0.224287479 0 0)
(0.220051563 0 0)
(0.213060231 0 0)
(0.208730853 0 0)
(0.209519043 0 0)
(0.213650239 0 0)
(0.216451474 0 0)
(0.20508793 0 0)
(0.194671364 0 0)
(0.205761799 0 0)
(0.214113721 0 0)
(0.212012715 0 0)
(0.209761491 0 0)
(0.208931734 0 0)
(0.208170394 0 0)
(0.211110298 0 0)
(0.215192306 0 0)
(0.210871192 0 0)
(0.20408964 0 0)
(0.205628953 0 0)
(0.210834694 0 0)
(0.212669138 0 0)
(0.207975395 0 0)
(0.199037235 0 0)
(0.194294267 0 0)
(0.198047076 0 0)
(0.208555498 0 0)
(0.217897252 0 0)
(0.219304649 0 0)
(0.218908528 0 0)
(0.219240241 0 0)
(0.219435681 0 0)
(0.223133042 0 0)
(0.225752985 0 0)
(0.217352862 0 0)
(0.211541296 0 0)
(0.216119037 0 0)
(0.221303386 0 0)
(0.21615268 0 0)
(0.207009944 0 0)
(0.203098613 0 0)
(0.205201815 0 0)
(0.210947793 0 0)
(0.220747916 0 0)
(0.224462664 0 0)
(0.216288516 0 0)
(0.220308373 0 0)
(0.229392276 0 0)
(0.231121755 0 0)
(0.228748811 0 0)
(0.221992447 0 0)
(0.220678936 0 0)
(0.226673178 0 0)
(0.231663437 0 0)
(0.228065741 0 0)
(0.221975724 0 0)
(0.219394412 0 0)
(0.224955323 0 0)
(0.232011103 0 0)
(0.228229814 0 0)
(0.222409614 0 0)
(0.220022463 0 0)
(0.225733109 0 0)
(0.232777322 0 0)
(0.228557181 0 0)
(0.222608328 0 0)
(0.221095498 0 0)
(0.226878755 0 0)
(0.232900663 0 0)
(0.228535649 0 0)
(0.222647939 0 0)
(0.226218401 0 0)
(0.233673249 0 0)
(0.235421678 0 0)
(0.231004878 0 0)
(0.2253713 0 0)
(0.225092615 0 0)
(0.231580592 0 0)
(0.234871471 0 0)
(0.228361664 0 0)
(0.225947796 0 0)
(0.231568319 0 0)
(0.234706693 0 0)
(0.229803455 0 0)
(0.224097777 0 0)
(0.224273619 0 0)
(0.230705597 0 0)
(0.233134644 0 0)
(0.226620156 0 0)
(0.224190782 0 0)
(0.229248206 0 0)
(0.231403482 0 0)
(0.225954992 0 0)
(0.220075549 0 0)
(0.219899617 0 0)
(0.22564878 0 0)
(0.227177107 0 0)
(0.220342846 0 0)
(0.217665337 0 0)
(0.22193213 0 0)
(0.223178301 0 0)
(0.217208692 0 0)
(0.21086721 0 0)
(0.209069234 0 0)
(0.213652663 0 0)
(0.216581544 0 0)
(0.210274841 0 0)
(0.203664046 0 0)
(0.207529694 0 0)
(0.213024241 0 0)
(0.208536204 0 0)
(0.200915656 0 0)
(0.198193249 0 0)
(0.201756399 0 0)
(0.201606359 0 0)
(0.195786407 0 0)
(0.189544356 0 0)
(0.183961325 0 0)
(0.180360035 0 0)
(0.177995393 0 0)
(0.177512524 0 0)
(0.195305632 0 0)
(0.209646736 0 0)
(0.20045043 0 0)
(0.194483493 0 0)
(0.192335955 0 0)
(0.184430713 0 0)
(0.177024601 0 0)
(0.176340398 0 0)
(0.179521411 0 0)
(0.178127945 0 0)
(0.170424929 0 0)
(0.165754359 0 0)
(0.166921526 0 0)
(0.166503436 0 0)
(0.159534862 0 0)
(0.152455536 0 0)
(0.151838982 0 0)
(0.154592095 0 0)
(0.153240463 0 0)
(0.14520933 0 0)
(0.140076742 0 0)
(0.141423912 0 0)
(0.140242451 0 0)
(0.132585749 0 0)
(0.127431026 0 0)
(0.127875807 0 0)
(0.127426677 0 0)
(0.122838391 0 0)
(0.117595061 0 0)
(0.113335332 0 0)
(0.11049593 0 0)
(0.108603855 0 0)
(0.103787937 0 0)
(0.100345387 0 0)
(0.102408116 0 0)
(0.105313611 0 0)
(0.105943066 0 0)
(0.101589973 0 0)
(0.0960117273 0 0)
(0.0912295507 0 0)
(0.0888293566 0 0)
(0.0863886823 0 0)
(0.0807366636 0 0)
(0.0779409341 0 0)
(0.079073229 0 0)
(0.0801169255 0 0)
(0.0753684888 0 0)
(0.0692348084 0 0)
(0.0689901265 0 0)
)
;

boundaryField
{
    closed
    {
        type            noSlip;
    }
    open
    {
        type            inletOutlet;
        inletValue      nonuniform List<vector> 0();
        value           nonuniform List<vector> 0();
    }
    sides
    {
        type            empty;
    }
    procBoundary3to2
    {
        type            processor;
        value           uniform (0.706096138 0 0);
    }
    procBoundary3to4
    {
        type            processor;
        value           uniform (0.0701484591 0 0);
    }
}


// ************************************************************************* //
