/*--------------------------------*- C++ -*----------------------------------*\
| =========                 |                                                 |
| \\      /  F ield         | OpenFOAM: The Open Source CFD Toolbox           |
|  \\    /   O peration     | Version:  2306                                  |
|   \\  /    A nd           | Website:  www.openfoam.com                      |
|    \\/     M anipulation  |                                                 |
\*---------------------------------------------------------------------------*/
FoamFile
{
    version     2.0;
    format      ascii;
    arch        "LSB;label=32;scalar=64";
    class       volScalarField;
    location    "0.00138";
    object      alpha;
}
// * * * * * * * * * * * * * * * * * * * * * * * * * * * * * * * * * * * * * //

dimensions      [1 -1 -1 0 0 0 0];

internalField   nonuniform List<scalar> 
530
(
3.78803252e-05
3.61325204e-05
3.5840413e-05
3.58344371e-05
3.58339105e-05
3.58338887e-05
3.58338871e-05
3.5833887e-05
3.5833887e-05
3.5833887e-05
3.5833887e-05
3.5833887e-05
3.5833887e-05
3.5833887e-05
3.5833887e-05
3.5833887e-05
3.5833887e-05
3.5833887e-05
3.5833887e-05
3.5833887e-05
3.5833887e-05
3.5833887e-05
3.5833887e-05
3.5833887e-05
3.5833887e-05
3.5833887e-05
3.5833887e-05
3.5833887e-05
3.5833887e-05
3.5833887e-05
3.5833887e-05
3.5833887e-05
3.5833887e-05
3.5833887e-05
3.5833887e-05
3.5833887e-05
3.5833887e-05
3.5833887e-05
3.5833887e-05
3.5833887e-05
3.5833887e-05
3.5833887e-05
3.5833887e-05
3.5833887e-05
3.5833887e-05
3.5833887e-05
3.5833887e-05
3.5833887e-05
3.5833887e-05
3.5833887e-05
3.5833887e-05
3.5833887e-05
3.5833887e-05
3.5833887e-05
3.5833887e-05
3.5833887e-05
3.5833887e-05
3.5833887e-05
3.5833887e-05
3.5833887e-05
3.5833887e-05
3.5833887e-05
3.5833887e-05
3.58338871e-05
3.58338872e-05
3.58338877e-05
3.58338886e-05
3.58338906e-05
3.58338936e-05
3.58339026e-05
3.58339152e-05
3.58339479e-05
3.58339998e-05
3.58340562e-05
3.58341945e-05
3.58344812e-05
3.58347808e-05
3.58349906e-05
3.58357001e-05
3.58366296e-05
3.58377703e-05
3.58383148e-05
3.58371204e-05
3.5835538e-05
3.58371736e-05
3.58673379e-05
3.58744939e-05
3.58649976e-05
3.57081064e-05
3.57178807e-05
3.57039955e-05
3.61895635e-05
3.68176077e-05
3.6821083e-05
3.60195518e-05
3.56194877e-05
3.54379684e-05
3.54123044e-05
3.53845697e-05
3.56932261e-05
3.66864521e-05
3.68066085e-05
3.67496699e-05
3.68195986e-05
3.65881835e-05
3.56813822e-05
3.54036391e-05
3.54149129e-05
3.54045828e-05
3.53864982e-05
3.56946622e-05
3.67165002e-05
3.68131244e-05
3.67828896e-05
3.67753688e-05
3.68254959e-05
3.66375808e-05
3.56493975e-05
3.53836713e-05
3.54083899e-05
3.53896446e-05
3.5362211e-05
3.56795375e-05
3.66689177e-05
3.68493757e-05
3.66903459e-05
3.57216741e-05
3.53761143e-05
3.54103343e-05
3.570432e-05
3.6790043e-05
3.68491238e-05
3.66986313e-05
3.57459182e-05
3.53557498e-05
3.53902906e-05
3.5734381e-05
3.68304523e-05
3.6756558e-05
3.57352877e-05
3.56113601e-05
3.58417357e-05
3.68067841e-05
3.62627441e-05
3.57045709e-05
3.57388003e-05
3.67983225e-05
3.67769599e-05
3.57492925e-05
3.57529363e-05
3.60490454e-05
3.68401464e-05
3.65814964e-05
3.53917903e-05
3.52751848e-05
3.56814285e-05
3.65405745e-05
3.68608596e-05
3.67213197e-05
3.57229341e-05
3.55892347e-05
3.57721133e-05
3.68590268e-05
3.67936181e-05
3.57324878e-05
3.56341392e-05
3.5858058e-05
3.68453456e-05
3.66983671e-05
3.54434333e-05
3.53111886e-05
3.54224921e-05
3.54147876e-05
3.54604669e-05
3.58629645e-05
3.68517317e-05
3.67734237e-05
3.57462005e-05
3.57662167e-05
3.65870558e-05
3.68145469e-05
3.58424627e-05
3.55522439e-05
3.57201319e-05
3.68264871e-05
3.68357242e-05
3.57983846e-05
3.5376512e-05
3.53422975e-05
3.55396516e-05
3.67559275e-05
3.68297177e-05
3.59892103e-05
3.57478077e-05
3.57526019e-05
3.6751171e-05
3.68543595e-05
3.57302192e-05
3.56788389e-05
3.60854397e-05
3.67505408e-05
3.58678277e-05
3.54009403e-05
3.54172368e-05
3.64140599e-05
3.67586631e-05
3.57492913e-05
3.56976038e-05
3.59807012e-05
3.6692167e-05
3.58157988e-05
3.56489151e-05
3.57793269e-05
3.65911364e-05
3.61257909e-05
3.55586373e-05
3.53310386e-05
3.58926091e-05
3.67501737e-05
3.59697761e-05
3.57136084e-05
3.57425352e-05
3.6518587e-05
3.62160256e-05
3.56301844e-05
3.53246924e-05
3.58026534e-05
3.66881152e-05
3.6000413e-05
3.57598509e-05
3.5788467e-05
3.65099043e-05
3.59626792e-05
3.57667189e-05
3.57790771e-05
3.66384957e-05
3.60347833e-05
3.57741215e-05
3.57667791e-05
3.66571633e-05
3.60876272e-05
3.57052154e-05
3.57249112e-05
3.65808814e-05
3.63590811e-05
3.56705727e-05
3.53044002e-05
3.57724264e-05
3.67495305e-05
3.60687097e-05
3.57587122e-05
3.57739879e-05
3.66219189e-05
3.60017618e-05
3.57366343e-05
3.57785971e-05
3.67151028e-05
3.6031903e-05
3.56623451e-05
3.57395733e-05
3.67223929e-05
3.63820946e-05
3.56090291e-05
3.53305295e-05
3.57907367e-05
3.6779957e-05
3.6351733e-05
3.55558906e-05
3.53460193e-05
3.58469642e-05
3.67767311e-05
3.60528963e-05
3.57711514e-05
3.5857718e-05
3.67725935e-05
3.59434776e-05
3.56954128e-05
3.58282503e-05
3.67750073e-05
3.61245158e-05
3.53520694e-05
3.53289975e-05
3.5935925e-05
3.67810713e-05
3.59211243e-05
3.5748613e-05
3.59108602e-05
3.67927561e-05
3.60161651e-05
3.54291852e-05
3.5400835e-05
3.53458499e-05
3.54210822e-05
3.60765996e-05
3.6783682e-05
3.58515232e-05
3.57494336e-05
3.60096081e-05
3.67884086e-05
3.59414772e-05
3.56530301e-05
3.57451578e-05
3.68105984e-05
3.67270032e-05
3.57332201e-05
3.55352258e-05
3.60340673e-05
3.67982927e-05
3.61948064e-05
3.53565592e-05
3.53036018e-05
3.55205815e-05
3.62486755e-05
3.67905277e-05
3.58046014e-05
3.57420805e-05
3.60652376e-05
3.68113245e-05
3.61165545e-05
3.54622899e-05
3.55453275e-05
3.6060964e-05
3.68377677e-05
3.67399019e-05
3.57270235e-05
3.52761124e-05
3.54813626e-05
3.61445649e-05
3.68052371e-05
3.60672677e-05
3.54675293e-05
3.55979885e-05
3.62762425e-05
3.68026849e-05
3.60221243e-05
3.54670577e-05
3.56167241e-05
3.63678995e-05
3.68010418e-05
3.59178352e-05
3.53845514e-05
3.55530921e-05
3.6339816e-05
3.68039982e-05
3.58748764e-05
3.53293151e-05
3.55219581e-05
3.63606592e-05
3.68060008e-05
3.58466372e-05
3.53003724e-05
3.55049299e-05
3.63549303e-05
3.68117956e-05
3.58831034e-05
3.53073052e-05
3.52869332e-05
3.54983185e-05
3.6405524e-05
3.68212556e-05
3.57629444e-05
3.57396101e-05
3.64052746e-05
3.68099838e-05
3.58227331e-05
3.52964076e-05
3.55500611e-05
3.66763743e-05
3.68304146e-05
3.57771851e-05
3.57566923e-05
3.64905845e-05
3.68091672e-05
3.58119883e-05
3.52529932e-05
3.54936713e-05
3.67421279e-05
3.68339059e-05
3.57620106e-05
3.55994913e-05
3.6408046e-05
3.68083017e-05
3.57797926e-05
3.51355615e-05
3.53853946e-05
3.674053e-05
3.68413522e-05
3.57673065e-05
3.55877564e-05
3.64726344e-05
3.68076732e-05
3.57889977e-05
3.51637534e-05
3.53981625e-05
3.67734599e-05
3.68479263e-05
3.5770326e-05
3.55848728e-05
3.65518732e-05
3.68120211e-05
3.57821472e-05
3.51228115e-05
3.53460265e-05
3.67700287e-05
3.68208239e-05
3.57865189e-05
3.51220611e-05
3.5336144e-05
3.67857356e-05
3.68224573e-05
3.57881112e-05
3.51664543e-05
3.53591455e-05
3.67943852e-05
3.68581102e-05
3.57746685e-05
3.55927262e-05
3.67711303e-05
3.68495214e-05
3.57790446e-05
3.55308793e-05
3.66141826e-05
3.68153339e-05
3.57970111e-05
3.51598571e-05
3.5298891e-05
3.67991279e-05
3.68628926e-05
3.57650551e-05
3.55539043e-05
3.67765923e-05
3.68542434e-05
3.57869214e-05
3.55398183e-05
3.67469146e-05
3.68179209e-05
3.58202361e-05
3.5206411e-05
3.53097739e-05
3.68130181e-05
3.68357644e-05
3.5842223e-05
3.543722e-05
3.54731504e-05
3.52460345e-05
3.53100733e-05
3.68086513e-05
3.68205719e-05
3.5892885e-05
3.53969804e-05
3.54443371e-05
3.68191468e-05
3.68266615e-05
3.58351181e-05
3.52888426e-05
3.53381321e-05
3.68072467e-05
3.6864377e-05
3.57481416e-05
3.55554625e-05
3.67867102e-05
3.68636085e-05
3.57608813e-05
3.55116803e-05
3.67785565e-05
3.68536684e-05
3.57292811e-05
3.54605648e-05
3.67988972e-05
3.68263927e-05
3.57696546e-05
3.50894471e-05
3.51593473e-05
3.68190982e-05
3.68290366e-05
3.57725968e-05
3.51243224e-05
3.52148941e-05
3.68226491e-05
3.6830073e-05
3.57756375e-05
3.51639499e-05
3.52743723e-05
3.68270345e-05
3.68287815e-05
3.57670465e-05
3.51993683e-05
3.5369836e-05
3.6816218e-05
3.68625291e-05
3.57270902e-05
3.55021507e-05
3.6829413e-05
3.68277838e-05
3.57514355e-05
3.51657566e-05
3.53848866e-05
3.68191143e-05
3.68657663e-05
3.56929576e-05
3.54689895e-05
3.68374549e-05
3.68297677e-05
3.57504322e-05
3.51519732e-05
3.53422946e-05
3.68443522e-05
3.68237261e-05
3.57690675e-05
3.5214775e-05
3.54469451e-05
3.6824789e-05
3.68431587e-05
3.68109179e-05
3.57040594e-05
3.53032399e-05
3.54332116e-05
3.50989335e-05
3.52738458e-05
3.68126445e-05
3.6832962e-05
3.67948933e-05
3.57081765e-05
3.51519867e-05
3.54676125e-05
3.68234649e-05
3.68535091e-05
3.5779898e-05
3.54535048e-05
3.53875933e-05
)
;

boundaryField
{
    closed
    {
        type            calculated;
        value           uniform 5.14408303e-05;
    }
    open
    {
        type            calculated;
        value           nonuniform List<scalar> 0();
    }
    sides
    {
        type            empty;
    }
    procBoundary0to1
    {
        type            processor;
        value           uniform 3.56398876e-05;
    }
}


// ************************************************************************* //
