/*--------------------------------*- C++ -*----------------------------------*\
| =========                 |                                                 |
| \\      /  F ield         | OpenFOAM: The Open Source CFD Toolbox           |
|  \\    /   O peration     | Version:  2306                                  |
|   \\  /    A nd           | Website:  www.openfoam.com                      |
|    \\/     M anipulation  |                                                 |
\*---------------------------------------------------------------------------*/
FoamFile
{
    version     2.0;
    format      ascii;
    arch        "LSB;label=32;scalar=64";
    class       volScalarField;
    location    "0.00138";
    object      prefDZ_H;
}
// * * * * * * * * * * * * * * * * * * * * * * * * * * * * * * * * * * * * * //

dimensions      [1 -1 -1 0 0 0 0];

internalField   nonuniform List<scalar> 
530
(
0.000113515251
0.000108705688
0.000107860877
0.000107841859
0.000107840168
0.0001078401
0.000107840096
0.000107840095
0.000107840095
0.000107840095
0.000107840095
0.000107840095
0.000107840095
0.000107840095
0.000107840095
0.000107840095
0.000107840095
0.000107840095
0.000107840095
0.000107840095
0.000107840095
0.000107840095
0.000107840095
0.000107840095
0.000107840095
0.000107840095
0.000107840095
0.000107840095
0.000107840095
0.000107840095
0.000107840095
0.000107840095
0.000107840095
0.000107840095
0.000107840095
0.000107840095
0.000107840095
0.000107840095
0.000107840095
0.000107840095
0.000107840095
0.000107840095
0.000107840095
0.000107840095
0.000107840095
0.000107840095
0.000107840095
0.000107840095
0.000107840095
0.000107840095
0.000107840095
0.000107840095
0.000107840095
0.000107840095
0.000107840095
0.000107840095
0.000107840095
0.000107840095
0.000107840095
0.000107840095
0.000107840095
0.000107840095
0.000107840095
0.000107840096
0.000107840096
0.000107840097
0.0001078401
0.000107840106
0.000107840116
0.000107840143
0.000107840182
0.000107840278
0.000107840429
0.000107840635
0.000107841057
0.000107841819
0.000107842653
0.000107843698
0.000107845732
0.000107848212
0.00010785123
0.000107853539
0.000107852994
0.000107853132
0.000107856776
0.000107908511
0.000107921071
0.000107912259
0.00010773325
0.00010784473
0.000107797874
0.000108544513
0.000110221736
0.000110233199
0.000108190215
0.00010758092
0.000107042206
0.000106969319
0.000106872986
0.000107693848
0.00010965069
0.000110175441
0.000109953876
0.000110246865
0.000109428472
0.000107758611
0.000106930279
0.000106975363
0.000106942285
0.000106879562
0.000107746517
0.000109742848
0.000110219853
0.000110092985
0.000110062942
0.000110275518
0.000109542195
0.000107663816
0.000106871855
0.000106956356
0.000106898767
0.000106808187
0.000107725318
0.000109607971
0.00011037854
0.000109656951
0.000107775575
0.00010685085
0.000106950881
0.000107714101
0.000110094753
0.000110390607
0.000109693182
0.000107753866
0.000106788434
0.000106893297
0.000107743359
0.000110224718
0.000109900117
0.000107803434
0.000107530845
0.000107861336
0.000110111903
0.000108703317
0.000107804876
0.00010784525
0.000110056849
0.000109968762
0.000107829321
0.00010793634
0.000108253538
0.000110301085
0.00010941844
0.000106891468
0.000106537825
0.000107746952
0.000109314665
0.000110432653
0.000109779634
0.000107756188
0.000107467878
0.000107769186
0.000110372305
0.000110063875
0.000107802491
0.000107602776
0.000107898579
0.000110308421
0.000109689462
0.000107041568
0.000106651515
0.000106990331
0.00010696861
0.000107103352
0.000107917718
0.000110356662
0.00010992922
0.000107934428
0.000107988462
0.000109428019
0.000110194802
0.000107874969
0.000107359045
0.000107802501
0.000110217536
0.000110270808
0.000107823872
0.000106852054
0.000106748127
0.000107330614
0.000109893495
0.000110279085
0.000108138844
0.000107941224
0.000107892764
0.000109891911
0.000110327435
0.000107743827
0.000107728985
0.000108323178
0.000109865065
0.000107903381
0.000106908655
0.000106954903
0.000109037954
0.000109872778
0.000107730435
0.000107783836
0.000108110016
0.000109670948
0.000107805396
0.000107641811
0.000107753759
0.000109437635
0.00010840954
0.000107387138
0.000106702943
0.000107938305
0.000109847075
0.000108087638
0.000107838905
0.000107717884
0.000109272508
0.000108601282
0.000107603825
0.000106682831
0.000107783519
0.000109662636
0.000108149373
0.000107956183
0.000107779529
0.00010925316
0.000108076202
0.000107989105
0.000107766212
0.000109547247
0.000108219573
0.000108012728
0.000107754091
0.00010958979
0.000108328196
0.000107810428
0.000107726435
0.000109415129
0.000108913728
0.000107726287
0.000106622069
0.00010774645
0.000109838446
0.000108288554
0.000107968059
0.0001077594
0.00010950906
0.00010815269
0.000107900146
0.000107763317
0.000109723676
0.000108213098
0.000107679165
0.000107729482
0.000109740453
0.000108964679
0.000107537725
0.000106702386
0.000107780277
0.00011000349
0.000108897278
0.000107381412
0.000106748461
0.000107867739
0.000109984536
0.000108257036
0.000107984224
0.000107887889
0.000109957354
0.000108038635
0.000107777421
0.000107834593
0.000109967821
0.000108406838
0.000106773489
0.000106705483
0.000108027584
0.000110006482
0.000107995262
0.000107943223
0.000107979202
0.000110062088
0.000108183392
0.000106998687
0.000106923512
0.000106763886
0.000106980917
0.000108307503
0.000110030054
0.000107873008
0.000107939202
0.000108171425
0.000110070067
0.000108039842
0.0001076538
0.0001077943
0.000110148879
0.00010976939
0.000107899515
0.000107307881
0.000108222001
0.000110118839
0.000108555774
0.000106783845
0.000106636778
0.000107280193
0.000108671679
0.000110068437
0.000107805554
0.000107912626
0.000108284349
0.000110181686
0.00010838984
0.000107100552
0.000107351747
0.000108278901
0.000110333994
0.00010985465
0.000107855238
0.000106550892
0.000107169446
0.000108449961
0.000110160311
0.00010828819
0.000107113385
0.000107504947
0.000108730814
0.00011016126
0.000108197181
0.000107111702
0.000107561046
0.000108932144
0.000110147953
0.000107997626
0.000106870559
0.00010737646
0.000108870676
0.000110148793
0.000107920702
0.000106707592
0.000107286302
0.00010891689
0.00011015362
0.000107874353
0.000106621829
0.000107237986
0.000108903938
0.000110182824
0.000107939084
0.000106644194
0.000106590702
0.000107210361
0.000109017059
0.000110208181
0.000107812481
0.000107915971
0.000109017543
0.00011018777
0.000107848446
0.000106600747
0.000107368393
0.00010963011
0.000110264002
0.00010787735
0.000107964322
0.000109209152
0.000110191204
0.000107843341
0.000106471998
0.000107200399
0.00010982627
0.000110271873
0.000107885311
0.000107501617
0.000109024753
0.000110173132
0.000107801673
0.000106126303
0.000106883477
0.000109815903
0.000110302195
0.000107914646
0.000107467536
0.000109170152
0.000110183796
0.000107821006
0.000106210591
0.00010691989
0.000109972634
0.000110340024
0.000107934653
0.000107460511
0.00010935027
0.000110206083
0.000107825364
0.000106090429
0.000106764372
0.000109939087
0.000110239499
0.000107843042
0.000106090503
0.000106734628
0.000110007382
0.000110249866
0.000107840083
0.000106224673
0.000106805186
0.000110082497
0.000110390981
0.000107971424
0.000107489552
0.000109931809
0.000110363974
0.000107999422
0.000107304077
0.00010949415
0.000110232589
0.000107842882
0.000106207944
0.000106630195
0.000110107011
0.000110414417
0.000107954306
0.000107379188
0.000109959208
0.000110392048
0.000108030623
0.000107333822
0.000109802125
0.000110257983
0.000107875748
0.000106347541
0.000106660026
0.000110148749
0.000110335244
0.000107889866
0.000107032158
0.000107142189
0.000106465121
0.000106656431
0.000110145046
0.000110286952
0.000107970577
0.000106913749
0.000107051737
0.000110205811
0.000110310157
0.000107875725
0.000106596358
0.000106748126
0.000110158722
0.000110447663
0.000107889205
0.000107391607
0.000110019858
0.000110446127
0.000107971681
0.000107260552
0.000109990688
0.000110407929
0.000107886812
0.000107106011
0.000110058313
0.000110296617
0.000107832143
0.000106011709
0.000106219227
0.000110199918
0.000110302239
0.000107806261
0.000106116384
0.000106384105
0.000110222853
0.000110312548
0.000107807573
0.000106233471
0.00010655867
0.000110247603
0.000110312584
0.000107791369
0.00010633492
0.000106845031
0.000110213329
0.000110448867
0.00010788028
0.000107231557
0.000110222207
0.000110313795
0.00010780035
0.000106234076
0.000106888201
0.000110226128
0.000110454521
0.000107788839
0.000107134086
0.000110264346
0.000110321188
0.000107802526
0.000106198637
0.000106759811
0.000110329302
0.000110302588
0.000107778835
0.000106376934
0.000107075309
0.000110227301
0.000110420803
0.000110254345
0.00010773893
0.000106629908
0.000107033231
0.000106024762
0.000106563246
0.000110160476
0.000110374289
0.000110171198
0.000107744437
0.000106188549
0.000107137519
0.000110274169
0.00011043387
0.000107822838
0.000107095131
0.000106894932
)
;

boundaryField
{
    closed
    {
        type            calculated;
        value           uniform 0.00014404385;
    }
    open
    {
        type            calculated;
        value           nonuniform List<scalar> 0();
    }
    sides
    {
        type            empty;
    }
    procBoundary0to1
    {
        type            processor;
        value           uniform 0.000107637892;
    }
}


// ************************************************************************* //
