/*--------------------------------*- C++ -*----------------------------------*\
| =========                 |                                                 |
| \\      /  F ield         | OpenFOAM: The Open Source CFD Toolbox           |
|  \\    /   O peration     | Version:  2306                                  |
|   \\  /    A nd           | Website:  www.openfoam.com                      |
|    \\/     M anipulation  |                                                 |
\*---------------------------------------------------------------------------*/
FoamFile
{
    version     2.0;
    format      ascii;
    arch        "LSB;label=32;scalar=64";
    class       volScalarField;
    location    "0.00138";
    object      prefDh_H2O;
}
// * * * * * * * * * * * * * * * * * * * * * * * * * * * * * * * * * * * * * //

dimensions      [1 1 -3 0 0 0 0];

internalField   nonuniform List<scalar> 
530
(
91.9224433
89.9419018
89.8140496
89.8190595
89.8195639
89.8195744
89.8195748
89.8195748
89.8195748
89.8195748
89.8195748
89.8195748
89.8195748
89.8195748
89.8195748
89.8195748
89.8195748
89.8195748
89.8195748
89.8195748
89.8195748
89.8195748
89.8195748
89.8195748
89.8195748
89.8195748
89.8195748
89.8195748
89.8195748
89.8195748
89.8195748
89.8195748
89.8195748
89.8195748
89.8195748
89.8195748
89.8195748
89.8195748
89.8195748
89.8195748
89.8195748
89.8195748
89.8195748
89.8195748
89.8195748
89.8195748
89.8195748
89.8195748
89.8195748
89.8195748
89.8195748
89.8195748
89.8195748
89.8195748
89.8195748
89.8195748
89.8195748
89.8195748
89.8195748
89.8195748
89.8195748
89.8195748
89.8195748
89.8195748
89.8195747
89.8195746
89.8195744
89.8195739
89.8195734
89.8195701
89.8195628
89.8195708
89.8195876
89.8194251
89.8193856
89.8197858
89.8200378
89.8182623
89.8186148
89.8198619
89.8214946
89.8185988
89.8058241
89.7852778
89.7905151
89.952562
89.9898352
89.9070562
88.694288
88.3563727
88.3772049
91.3464244
92.545553
92.5447743
90.6882092
88.1773189
88.0340238
88.0062295
88.0180019
88.6723396
92.9849411
92.5780664
92.6918776
92.4894136
92.6749216
88.2401752
88.0310953
88.0122706
88.0099281
88.0174497
88.4729825
93.0039418
92.5078431
92.5959989
92.613367
92.4604813
92.8233292
88.2143989
88.013626
88.0063422
87.9963515
87.996976
88.3729744
92.9410415
92.3822777
93.0067184
88.6879215
88.0043643
88.0345413
88.7263678
92.6599094
92.3436533
92.9798304
89.078739
87.993376
88.0144507
88.9787652
92.6609315
92.9199624
88.7417955
88.2304799
89.8288056
92.7705477
91.6057405
88.3097275
88.6130508
92.8539603
92.9115392
88.8086484
88.4135191
90.792784
92.5254521
92.6353199
88.0306644
87.9597122
88.3073741
92.5469701
92.3309379
92.9402022
88.7835462
88.206872
89.3416474
92.4943171
92.7872457
88.7109811
88.238325
89.8773201
92.5537405
92.9786781
88.0782122
87.9704273
88.035982
88.0272674
88.0648499
89.8583257
92.4707035
92.9960983
88.3290264
88.3570414
92.6637119
92.596773
89.7803966
88.1757436
88.5578825
92.6441013
92.573556
89.4418416
88.0046143
87.9839263
88.1449661
92.9337441
92.4906016
90.5191172
88.325739
88.5883932
92.8923865
92.5838973
88.9250963
88.2883654
90.9624318
92.9669255
89.9805979
88.0617537
88.0794046
92.1131079
93.0225438
89.2181231
88.3050694
90.5357596
92.9757384
89.7379513
88.2610698
89.4964471
92.6751637
91.107421
88.159445
88.0039105
90.1468041
93.0174264
90.4921483
88.300438
89.1860564
92.450102
91.4416599
88.2058811
88.0021892
89.6645574
92.9598356
90.619092
88.4175205
89.5030706
92.4216589
90.4501342
88.3673016
89.4411651
92.8152428
90.7576489
88.3618574
89.3379456
92.8728532
90.9686355
88.3019139
88.9311123
92.6403408
91.9378467
88.2321011
87.9880301
89.4405464
93.0371232
90.8965078
88.3468637
89.4059359
92.7655778
90.6219845
88.3347917
89.447263
93.044791
90.7487522
88.2774057
89.1009258
93.0666736
92.0148428
88.1967298
88.0011862
89.5283992
92.8362506
91.9138142
88.1516545
88.0127925
89.8677625
92.8619224
90.8286822
88.442076
89.9183382
92.9034778
90.365914
88.3031424
89.7716721
92.8954328
91.1027051
88.0002568
87.9813795
90.3165951
92.8380616
90.2664565
88.3272604
90.2041733
92.7842624
90.6741445
88.068601
88.0252071
87.9740876
88.0473223
90.914887
92.7925552
89.9030964
88.3584896
90.6413267
92.718186
90.3348123
88.2648179
88.9019245
92.6964273
93.0260813
88.3105689
88.164022
90.7368679
92.6674689
91.3649324
88.0109036
87.9456632
88.1156132
91.5583893
92.7436043
89.5963553
88.3767038
90.8686568
92.6049555
91.0739222
88.0856648
88.1394416
90.8360009
92.4037054
92.8950616
88.4262608
87.9350576
88.0716577
91.1731669
92.6102006
90.8783147
88.0961845
88.1880456
91.6572225
92.5826601
90.6907734
88.09649
88.2016973
91.9710102
92.6066939
90.2140274
88.0236894
88.1416859
91.8745391
92.6327818
89.9962599
87.97879
88.1119878
91.9442109
92.637678
89.8356234
87.956243
88.0934403
91.925883
92.6061003
90.0223424
87.957202
87.9245965
88.1069577
92.0914107
92.6215435
89.0476431
88.3213038
92.0870691
92.5737257
89.6439345
87.976037
88.1371506
92.9449492
92.5426067
88.9563459
88.3451034
92.3617525
92.5555217
89.5306631
87.9427588
88.0943433
93.0018922
92.5527611
88.7355066
88.2072338
92.0926857
92.6013774
89.3022045
87.8469375
87.9994109
93.0175455
92.5337864
88.6803414
88.1962942
92.2994127
92.5632964
89.3365857
87.8666194
88.012859
92.8659688
92.4838322
88.6354345
88.1904689
92.5462037
92.5384829
89.2331048
87.8323858
87.9743176
92.9334981
92.5233631
89.2141815
87.8260184
87.9676772
92.8805789
92.508054
89.2462718
87.8534746
87.979965
92.7387473
92.4293886
88.5380672
88.1833827
92.9660613
92.427384
88.477231
88.1392687
92.7317698
92.4910039
89.3455235
87.8413632
87.9241178
92.7110666
92.4052981
88.4895346
88.1415919
92.9366894
92.3888029
88.4465481
88.1387725
93.1208139
92.4398537
89.4984918
87.8731845
87.9384823
92.7202586
92.3805986
89.7147061
88.0519115
88.0719656
87.9034723
87.9495618
92.6890829
92.3786148
90.0123594
88.0182135
88.0611117
92.6082452
92.3678758
89.6848893
87.9260922
87.9509653
92.6344192
92.3199013
88.5478502
88.1248824
92.8525375
92.3170837
88.3666642
88.0928771
92.861135
92.3356114
88.309722
88.0593589
92.8551339
92.4058731
89.0496618
87.7561701
87.8091963
92.6254653
92.414563
89.1934761
87.7797522
87.8516629
92.5909806
92.3936654
89.2258948
87.8112697
87.9021889
92.5591241
92.3810778
89.1861712
87.8473857
87.9689236
92.5573392
92.2984403
88.3242226
88.0870261
92.6584071
92.3678095
88.9548583
87.8244086
87.9842139
92.5469484
92.3127549
88.258675
88.058767
92.6097155
92.364812
88.9334079
87.8003645
87.9557965
92.4814433
92.3622128
89.2634424
87.8682966
88.0259358
92.5983389
92.1955747
92.3831059
88.6206729
87.9594933
88.018232
87.8012946
87.8869424
92.6814145
92.2365271
92.4775195
88.6490051
87.8255125
88.0401811
92.4448943
92.256303
89.2155852
88.0302742
87.989409
)
;

boundaryField
{
    closed
    {
        type            calculated;
        value           uniform 120.274616;
    }
    open
    {
        type            calculated;
        value           nonuniform List<scalar> 0();
    }
    sides
    {
        type            empty;
    }
    procBoundary0to1
    {
        type            processor;
        value           uniform 88.201632;
    }
}


// ************************************************************************* //
