/*--------------------------------*- C++ -*----------------------------------*\
| =========                 |                                                 |
| \\      /  F ield         | OpenFOAM: The Open Source CFD Toolbox           |
|  \\    /   O peration     | Version:  2306                                  |
|   \\  /    A nd           | Website:  www.openfoam.com                      |
|    \\/     M anipulation  |                                                 |
\*---------------------------------------------------------------------------*/
FoamFile
{
    version     2.0;
    format      ascii;
    arch        "LSB;label=32;scalar=64";
    class       volScalarField;
    location    "0.00022";
    object      h;
}
// * * * * * * * * * * * * * * * * * * * * * * * * * * * * * * * * * * * * * //

dimensions      [0 2 -2 0 0 0 0];

internalField   nonuniform List<scalar> 
531
(
2340.98882
1853.31143
2110.61564
2477.30051
2413.92571
2183.31588
2190.22484
2305.51836
2313.2453
2267.51967
2257.16611
2273.70229
2280.48594
2274.93053
2271.48215
2273.2162
2274.72779
2274.21935
2273.62427
2273.7623
2273.97809
2273.94339
2273.87019
2273.87822
2273.90122
2273.89986
2273.89289
2273.89314
2273.89493
2273.89505
2273.89451
2273.8945
2273.89463
2273.89464
2273.89461
2273.8946
2273.89461
2273.89461
2273.89461
2273.89461
2273.89461
2273.89461
2273.89461
2273.89461
2273.89461
2273.89461
2273.89461
2273.89461
2273.89461
2273.89461
2273.89461
2273.89461
2273.89461
2273.89461
2273.89461
2273.89461
2273.89461
2273.89461
2273.89461
2273.89461
2273.89461
2273.89461
2273.89461
2273.89461
2273.89461
2273.89461
2273.89461
2273.89461
2273.89461
2273.89461
2273.89461
2273.89461
2273.89461
2273.89461
2273.89461
2273.89461
2273.89461
2273.89461
2273.89461
2273.89461
2273.89461
2273.89461
2273.89461
2273.89461
2273.89461
2273.89461
2273.89461
2273.89461
2273.89461
2273.89461
2273.89461
2273.89461
2273.89461
2273.89461
2273.89461
2273.89461
2273.89461
2273.89461
2273.89461
2273.89461
2273.89461
2273.89461
2273.89461
2273.89461
2273.89461
2273.89461
2273.89461
2273.89461
2273.89461
2273.89461
2273.89461
2273.89461
2273.89461
2273.89461
2273.89461
2273.89461
2273.89461
2273.89461
2273.89461
2273.89461
2273.89461
2273.89461
2273.89461
2273.89461
2273.89461
2273.89461
2273.8946
2273.89461
2273.89463
2273.89462
2273.89458
2273.89458
2273.89465
2273.89466
2273.89459
2273.89455
2273.8946
2273.89466
2273.89464
2273.89457
2273.89458
2273.89463
2273.89463
2273.8946
2273.8946
2273.89461
2273.89461
2273.89461
2273.89461
2273.89461
2273.89461
2273.89461
2273.89461
2273.89461
2273.89461
2273.89461
2273.89461
2273.89461
2273.89461
2273.89461
2273.89461
2273.89461
2273.89461
2273.89461
2273.89461
2273.89461
2273.89461
2273.89461
2273.89461
2273.89461
2273.89461
2273.89461
2273.89461
2273.89461
2273.89461
2273.89461
2273.89461
2273.89461
2273.89461
2273.89461
2273.89461
2273.89461
2273.89461
2273.89461
2273.89461
2273.89461
2273.89461
2273.89461
2273.89461
2273.89461
2273.89461
2273.89461
2273.89461
2273.89461
2273.89461
2273.89461
2273.89461
2273.89461
2273.89461
2273.89461
2273.89461
2273.89461
2273.89461
2273.89461
2273.89461
2273.89461
2273.89461
2273.8946
2273.89461
2273.89462
2273.89462
2273.89459
2273.89459
2273.89461
2273.89463
2273.89463
2273.89461
2273.89457
2273.89455
2273.89465
2273.89476
2273.89466
2273.89434
2273.89436
2273.89495
2273.89511
2273.89441
2273.89393
2273.89445
2273.8954
2273.89518
2273.89389
2273.8939
2273.89498
2273.89531
2273.89451
2273.89408
2273.8945
2273.89498
2273.89477
2273.89437
2273.89443
2273.89477
2273.89477
2273.89452
2273.89449
2273.89463
2273.89471
2273.89463
2273.89454
2273.89456
2273.89465
2273.89465
2273.89462
2273.89458
2273.89456
2273.89458
2273.89472
2273.89475
2273.8945
2273.89429
2273.89453
2273.89522
2273.89514
2273.89383
2273.89357
2273.89497
2273.89627
2273.89534
2273.89258
2273.89278
2273.89606
2273.89673
2273.89457
2273.893
2273.8938
2273.89506
2273.89509
2273.89481
2273.89509
2273.89505
2273.89375
2273.89329
2273.89394
2273.89647
2273.89691
2273.89427
2273.89121
2273.89214
2273.89822
2273.8986
2273.89301
2273.89
2273.8937
2273.89875
2273.89775
2273.89157
2273.8911
2273.89533
2273.89777
2273.89656
2273.89187
2273.89168
2273.89511
2273.8978
2273.89697
2273.89178
2273.89086
2273.89497
2273.89856
2273.89744
2273.89178
2273.89099
2273.89363
2273.89724
2273.89753
2273.8958
2273.89154
2273.89139
2273.89537
2273.89797
2273.89617
2273.89201
2273.89256
2273.89606
2273.89612
2273.89348
2273.89354
2273.89607
2273.89618
2273.89282
2273.89246
2273.89577
2273.89697
2273.89455
2273.89264
2273.89375
2273.89561
2273.89561
2273.8947
2273.89418
2273.89388
2273.89399
2273.89515
2273.89531
2273.89428
2273.89351
2273.89404
2273.89461
2273.89393
2273.89291
2273.89249
2273.89265
2273.89248
2273.88976
2273.88656
2273.88236
2273.8819
2273.88181
2273.87579
2273.85261
2273.83571
2273.83126
2273.83179
2273.79428
2273.70211
2273.64925
2273.65482
2273.5905
2273.34358
2273.15169
2273.08946
2272.92489
2272.39449
2271.73748
2271.55419
2270.97045
2269.71178
2268.22447
2267.63136
2267.22359
2263.83274
2253.20266
2252.60395
2294.38622
2299.2951
2121.0257
2006.78681
2527.43884
2977.40745
1637.61
-1192.74303
710.289559
8093.97603
6170.65827
-4392.45491
-5185.02786
2062.93783
9655.27589
8288.60744
-4685.56884
-8370.52193
-1612.19783
7735.58002
7046.07439
6586.89161
838.115414
-3907.50813
5904.98106
6660.13712
6014.28989
6566.56278
6218.36867
6412.70765
6348.37044
6717.72845
7389.7355
8321.0398
8460.49728
8431.97434
8320.87801
8056.66807
7378.32063
7364.93669
7129.86148
3484.27776
-2026.89101
-2296.86592
-1904.83245
-3052.29085
-4041.59995
-949.383801
71.5751217
1543.07532
5755.95677
9362.71253
11618.5006
13851.1141
13532.0099
10771.6943
10442.3852
11402.156
11970.3512
10707.6351
8973.21834
7583.68478
4853.51718
2540.90298
-1282.3266
-4971.72374
-9252.22409
-13481.5589
-18033.6939
-23578.0211
-29314.3803
-34837.803
-40081.9932
-45921.4173
-51184.2128
-55639.515
-59471.4813
-62432.7352
-65300.9579
-67931.6456
-71113.5456
-74774.8254
-78145.3566
-79909.4336
-81027.0171
-81030.2923
-80734.2146
-79577.1938
-77921.227
-75253.9351
-73132.4042
-71060.834
-68354.48
-65824.0746
-62776.5569
-60966.4414
-58413.9297
-56874.9812
-54304.8836
-52701.2675
-49977.9675
-47158.6857
-43837.1394
-41595.1802
-38535.4329
-36394.76
-33475.3724
-31476.985
-29148.766
-27523.5173
-25621.0836
-24098.5318
-22433.91
-21049.3021
-19557.2634
-17822.2653
-16077.4772
-14547.1372
-12957.9114
-11517.6665
-10007.6152
-8652.5831
-7218.67232
-6012.42364
-4663.86941
-3580.99007
-2298.91711
-1421.04641
-522.849803
296.062367
1179.83109
1965.26132
2817.24039
3588.32077
4326.80516
4965.72713
5622.23375
6233.75784
6861.81
7446.29351
8058.9311
8617.84561
9199.09603
9695.07683
10244.0828
10714.4363
11252.0557
)
;

boundaryField
{
    closed
    {
        type            lookUpEnthalpy;
        h0              nonuniform List<scalar> 0();
        value           nonuniform List<scalar> 0();
    }
    open
    {
        type            zeroGradient;
    }
    sides
    {
        type            empty;
    }
    procBoundary4to3
    {
        type            processor;
        value           uniform 3008.46326;
    }
    procBoundary4to5
    {
        type            processor;
        value           uniform 11698.1812;
    }
}


// ************************************************************************* //
