/*--------------------------------*- C++ -*----------------------------------*\
| =========                 |                                                 |
| \\      /  F ield         | OpenFOAM: The Open Source CFD Toolbox           |
|  \\    /   O peration     | Version:  2306                                  |
|   \\  /    A nd           | Website:  www.openfoam.com                      |
|    \\/     M anipulation  |                                                 |
\*---------------------------------------------------------------------------*/
FoamFile
{
    version     2.0;
    format      ascii;
    arch        "LSB;label=32;scalar=64";
    class       volVectorField;
    location    "0.00022";
    object      U;
}
// * * * * * * * * * * * * * * * * * * * * * * * * * * * * * * * * * * * * * //

dimensions      [0 1 -1 0 0 0 0];

internalField   nonuniform List<vector> 
531
(
(-1.06758614 0 0)
(-1.10698231 0 0)
(-1.14458962 0 0)
(-1.18006202 0 0)
(-1.21307106 0 0)
(-1.24352567 0 0)
(-1.27177992 0 0)
(-1.29748254 0 0)
(-1.32016964 0 0)
(-1.34005864 0 0)
(-1.35718806 0 0)
(-1.37142417 0 0)
(-1.3827397 0 0)
(-1.39119632 0 0)
(-1.39686514 0 0)
(-1.39982454 0 0)
(-1.40017642 0 0)
(-1.39804855 0 0)
(-1.39359026 0 0)
(-1.3869666 0 0)
(-1.37835513 0 0)
(-1.36794467 0 0)
(-1.35593303 0 0)
(-1.34252325 0 0)
(-1.32792047 0 0)
(-1.31232941 0 0)
(-1.29595182 0 0)
(-1.2789839 0 0)
(-1.26161407 0 0)
(-1.24402099 0 0)
(-1.22637195 0 0)
(-1.20882137 0 0)
(-1.1915097 0 0)
(-1.17456261 0 0)
(-1.15809034 0 0)
(-1.14218752 0 0)
(-1.1269331 0 0)
(-1.11239061 0 0)
(-1.09860855 0 0)
(-1.08562105 0 0)
(-1.07344853 0 0)
(-1.06209858 0 0)
(-1.05156684 0 0)
(-1.04183802 0 0)
(-1.03288686 0 0)
(-1.02467916 0 0)
(-1.01717278 0 0)
(-1.01031859 0 0)
(-1.00406144 0 0)
(-0.99834102 0 0)
(-0.993092709 0 0)
(-0.988248464 0 0)
(-0.983737967 0 0)
(-0.97948863 0 0)
(-0.975419813 0 0)
(-0.971443491 0 0)
(-0.967513358 0 0)
(-0.963595864 0 0)
(-0.959595851 0 0)
(-0.955429117 0 0)
(-0.951023965 0 0)
(-0.946293681 0 0)
(-0.941210262 0 0)
(-0.935754468 0 0)
(-0.929853789 0 0)
(-0.923458233 0 0)
(-0.916516826 0 0)
(-0.90903396 0 0)
(-0.901015917 0 0)
(-0.892374811 0 0)
(-0.883141522 0 0)
(-0.87336644 0 0)
(-0.862990514 0 0)
(-0.852063373 0 0)
(-0.840611565 0 0)
(-0.828606188 0 0)
(-0.816174381 0 0)
(-0.80335316 0 0)
(-0.790140652 0 0)
(-0.776618451 0 0)
(-0.76282777 0 0)
(-0.748911394 0 0)
(-0.734943491 0 0)
(-0.720929084 0 0)
(-0.707031396 0 0)
(-0.693350522 0 0)
(-0.679961247 0 0)
(-0.667011882 0 0)
(-0.654616928 0 0)
(-0.64290382 0 0)
(-0.632002219 0 0)
(-0.622024728 0 0)
(-0.613159847 0 0)
(-0.605579965 0 0)
(-0.599376927 0 0)
(-0.594711871 0 0)
(-0.591735752 0 0)
(-0.59056669 0 0)
(-0.591346376 0 0)
(-0.594174234 0 0)
(-0.599183807 0 0)
(-0.606454408 0 0)
(-0.616003376 0 0)
(-0.627874097 0 0)
(-0.642059908 0 0)
(-0.658553736 0 0)
(-0.677281065 0 0)
(-0.698106765 0 0)
(-0.720886281 0 0)
(-0.745411442 0 0)
(-0.771476314 0 0)
(-0.798801842 0 0)
(-0.827036285 0 0)
(-0.85582786 0 0)
(-0.884792365 0 0)
(-0.913544695 0 0)
(-0.941644263 0 0)
(-0.968608708 0 0)
(-0.993980884 0 0)
(-1.01730614 0 0)
(-1.03816957 0 0)
(-1.05614142 0 0)
(-1.07079333 0 0)
(-1.08176284 0 0)
(-1.08872562 0 0)
(-1.09143724 0 0)
(-1.08967282 0 0)
(-1.08324803 0 0)
(-1.07206368 0 0)
(-1.0560735 0 0)
(-1.03530908 0 0)
(-1.00984684 0 0)
(-0.979821825 0 0)
(-0.945425147 0 0)
(-0.906886257 0 0)
(-0.864481932 0 0)
(-0.818527489 0 0)
(-0.769394926 0 0)
(-0.717456484 0 0)
(-0.663074694 0 0)
(-0.606645266 0 0)
(-0.548577235 0 0)
(-0.489295659 0 0)
(-0.429198466 0 0)
(-0.368664762 0 0)
(-0.308081778 0 0)
(-0.247818868 0 0)
(-0.188230961 0 0)
(-0.129657386 0 0)
(-0.0724367081 0 0)
(-0.0168644816 0 0)
(0.0368341505 0 0)
(0.0883415029 0 0)
(0.137411088 0 0)
(0.18364521 0 0)
(0.227038448 0 0)
(0.266919954 0 0)
(0.303053967 0 0)
(0.335650858 0 0)
(0.364261209 0 0)
(0.388812866 0 0)
(0.409068371 0 0)
(0.424912729 0 0)
(0.436216855 0 0)
(0.442915955 0 0)
(0.444938961 0 0)
(0.442306079 0 0)
(0.435014276 0 0)
(0.423226809 0 0)
(0.406886995 0 0)
(0.386225624 0 0)
(0.361468702 0 0)
(0.332762019 0 0)
(0.300537929 0 0)
(0.265021769 0 0)
(0.22657609 0 0)
(0.185556777 0 0)
(0.142393154 0 0)
(0.0974900287 0 0)
(0.0513041855 0 0)
(0.00427126084 0 0)
(-0.0431064887 0 0)
(-0.0904389455 0 0)
(-0.137169694 0 0)
(-0.182935527 0 0)
(-0.227322185 0 0)
(-0.269714687 0 0)
(-0.309783657 0 0)
(-0.347116147 0 0)
(-0.381365983 0 0)
(-0.412189705 0 0)
(-0.43930575 0 0)
(-0.462460157 0 0)
(-0.481478701 0 0)
(-0.496190645 0 0)
(-0.506603396 0 0)
(-0.512684127 0 0)
(-0.514531765 0 0)
(-0.512354825 0 0)
(-0.506290288 0 0)
(-0.496726025 0 0)
(-0.484025012 0 0)
(-0.468675219 0 0)
(-0.451259147 0 0)
(-0.432384469 0 0)
(-0.412729424 0 0)
(-0.393024661 0 0)
(-0.374011364 0 0)
(-0.356479371 0 0)
(-0.341126279 0 0)
(-0.328881092 0 0)
(-0.320483912 0 0)
(-0.316437183 0 0)
(-0.317426977 0 0)
(-0.323963131 0 0)
(-0.336458331 0 0)
(-0.355176019 0 0)
(-0.380256233 0 0)
(-0.411671844 0 0)
(-0.449243233 0 0)
(-0.492610671 0 0)
(-0.541255141 0 0)
(-0.594443088 0 0)
(-0.65144333 0 0)
(-0.711276986 0 0)
(-0.772788264 0 0)
(-0.834862404 0 0)
(-0.896268994 0 0)
(-0.955775255 0 0)
(-1.01216436 0 0)
(-1.06429927 0 0)
(-1.11109503 0 0)
(-1.15160191 0 0)
(-1.18500981 0 0)
(-1.21069035 0 0)
(-1.22818854 0 0)
(-1.23727017 0 0)
(-1.23786078 0 0)
(-1.23020124 0 0)
(-1.21467252 0 0)
(-1.19174541 0 0)
(-1.162186 0 0)
(-1.12688342 0 0)
(-1.08685368 0 0)
(-1.04320538 0 0)
(-0.997123678 0 0)
(-0.949827918 0 0)
(-0.902550358 0 0)
(-0.856491059 0 0)
(-0.812783563 0 0)
(-0.772450477 0 0)
(-0.736500998 0 0)
(-0.705710252 0 0)
(-0.680627331 0 0)
(-0.661710934 0 0)
(-0.64918166 0 0)
(-0.643066082 0 0)
(-0.643161357 0 0)
(-0.649079292 0 0)
(-0.660249072 0 0)
(-0.675925966 0 0)
(-0.695231265 0 0)
(-0.717193983 0 0)
(-0.740784607 0 0)
(-0.76495649 0 0)
(-0.788688063 0 0)
(-0.811120743 0 0)
(-0.831458909 0 0)
(-0.84903408 0 0)
(-0.863445763 0 0)
(-0.874486554 0 0)
(-0.882188152 0 0)
(-0.886803762 0 0)
(-0.888808122 0 0)
(-0.888865463 0 0)
(-0.887798705 0 0)
(-0.88654077 0 0)
(-0.886086775 0 0)
(-0.887432947 0 0)
(-0.891521921 0 0)
(-0.899180022 0 0)
(-0.911073941 0 0)
(-0.927653698 0 0)
(-0.94917599 0 0)
(-0.975606962 0 0)
(-1.00662132 0 0)
(-1.04167936 0 0)
(-1.08001945 0 0)
(-1.12070486 0 0)
(-1.1626422 0 0)
(-1.20466932 0 0)
(-1.24560798 0 0)
(-1.28432106 0 0)
(-1.31976387 0 0)
(-1.35103188 0 0)
(-1.37739379 0 0)
(-1.39831352 0 0)
(-1.41345454 0 0)
(-1.4226766 0 0)
(-1.42602058 0 0)
(-1.42369426 0 0)
(-1.41602097 0 0)
(-1.40342535 0 0)
(-1.38639272 0 0)
(-1.36542641 0 0)
(-1.34104574 0 0)
(-1.3137481 0 0)
(-1.28399746 0 0)
(-1.25221367 0 0)
(-1.21877245 0 0)
(-1.18400482 0 0)
(-1.14820278 0 0)
(-1.11162631 0 0)
(-1.07451446 0 0)
(-1.03708494 0 0)
(-0.999503886 0 0)
(-0.961931614 0 0)
(-0.924732561 0 0)
(-0.888118012 0 0)
(-0.852052602 0 0)
(-0.816631365 0 0)
(-0.782104217 0 0)
(-0.748663561 0 0)
(-0.716226589 0 0)
(-0.684669924 0 0)
(-0.654184386 0 0)
(-0.624877681 0 0)
(-0.596445832 0 0)
(-0.568840015 0 0)
(-0.542216899 0 0)
(-0.51636025 0 0)
(-0.491205748 0 0)
(-0.466895123 0 0)
(-0.443261171 0 0)
(-0.420537248 0 0)
(-0.398841288 0 0)
(-0.377981901 0 0)
(-0.358531145 0 0)
(-0.34071252 0 0)
(-0.324524131 0 0)
(-0.310470748 0 0)
(-0.298857792 0 0)
(-0.290233161 0 0)
(-0.285032124 0 0)
(-0.283501667 0 0)
(-0.286272279 0 0)
(-0.293681341 0 0)
(-0.306045357 0 0)
(-0.323536418 0 0)
(-0.345983194 0 0)
(-0.373257806 0 0)
(-0.404710147 0 0)
(-0.439451293 0 0)
(-0.476251538 0 0)
(-0.513461249 0 0)
(-0.549367832 0 0)
(-0.582017773 0 0)
(-0.609739781 0 0)
(-0.630936218 0 0)
(-0.644376294 0 0)
(-0.64967514 0 0)
(-0.647236883 0 0)
(-0.638713347 0 0)
(-0.626594263 0 0)
(-0.61432818 0 0)
(-0.606368601 0 0)
(-0.607593949 0 0)
(-0.622943184 0 0)
(-0.656918541 0 0)
(-0.713092729 0 0)
(-0.793270191 0 0)
(-0.897163642 0 0)
(-1.02218613 0 0)
(-1.16321941 0 0)
(-1.31287754 0 0)
(-1.46200509 0 0)
(-1.60067794 0 0)
(-1.71899729 0 0)
(-1.80833206 0 0)
(-1.86232257 0 0)
(-1.8774219 0 0)
(-1.85356548 0 0)
(-1.79393719 0 0)
(-1.70470029 0 0)
(-1.59432501 0 0)
(-1.47280932 0 0)
(-1.35090517 0 0)
(-1.23795187 0 0)
(-1.13919131 0 0)
(-1.05884044 0 0)
(-1.00229867 0 0)
(-0.964658952 0 0)
(-0.95519431 0 0)
(-0.938037865 0 0)
(-0.915665527 0 0)
(-0.924390401 0 0)
(-0.941434961 0 0)
(-0.944755954 0 0)
(-0.982281288 0 0)
(-1.00516565 0 0)
(-1.03316737 0 0)
(-1.09566088 0 0)
(-1.13009274 0 0)
(-1.19956026 0 0)
(-1.25215519 0 0)
(-1.25043221 0 0)
(-1.19002946 0 0)
(-1.07274966 0 0)
(-0.985494564 0 0)
(-0.883616439 0 0)
(-0.745879788 0 0)
(-0.60794028 0 0)
(-0.481120013 0 0)
(-0.367574079 0 0)
(-0.267115112 0 0)
(-0.160892709 0 0)
(-0.0218612534 0 0)
(0.117149965 0 0)
(0.268576131 0 0)
(0.431324588 0 0)
(0.579918068 0 0)
(0.620279626 0 0)
(0.505609461 0 0)
(0.150493687 0 0)
(-0.434695275 0 0)
(-0.9773421 0 0)
(-1.59016171 0 0)
(-2.32529303 0 0)
(-3.29233207 0 0)
(-1.40972504 0 0)
(-0.210175488 0 0)
(0.332637677 0 0)
(2.65098527 0 0)
(2.853401 0 0)
(3.36925144 0 0)
(0.120221478 0 0)
(-3.12768761 0 0)
(-3.75213276 0 0)
(-4.52987427 0 0)
(-3.40852924 0 0)
(-3.10149472 0 0)
(-2.256361 0 0)
(-1.55154425 0 0)
(-0.951702341 0 0)
(-0.387987997 0 0)
(0.0441954179 0 0)
(0.379380367 0 0)
(0.644876262 0 0)
(0.844586621 0 0)
(0.99397547 0 0)
(1.10414923 0 0)
(1.18762863 0 0)
(1.25316976 0 0)
(1.30830548 0 0)
(1.35690134 0 0)
(1.40045714 0 0)
(1.44188475 0 0)
(1.48534462 0 0)
(1.53115087 0 0)
(1.57652085 0 0)
(1.61978426 0 0)
(1.65973544 0 0)
(1.69758285 0 0)
(1.73568964 0 0)
(1.77300825 0 0)
(1.80882751 0 0)
(1.84552931 0 0)
(1.88467362 0 0)
(1.92525672 0 0)
(1.96567877 0 0)
(2.00671453 0 0)
(2.04832334 0 0)
(2.09053988 0 0)
(2.13230671 0 0)
(2.17301123 0 0)
(2.21285437 0 0)
(2.25258005 0 0)
(2.29199888 0 0)
(2.32887422 0 0)
(2.36446446 0 0)
(2.40268337 0 0)
(2.44062975 0 0)
(2.47576401 0 0)
(2.50988259 0 0)
(2.54349506 0 0)
(2.57712438 0 0)
(2.60951838 0 0)
(2.63968739 0 0)
(2.66756129 0 0)
(2.69325678 0 0)
(2.71658691 0 0)
(2.73712026 0 0)
(2.7545253 0 0)
(2.76876438 0 0)
(2.78002314 0 0)
(2.78840478 0 0)
(2.79399105 0 0)
(2.79690739 0 0)
(2.79769144 0 0)
(2.79679615 0 0)
(2.79421627 0 0)
(2.78991412 0 0)
(2.78425923 0 0)
(2.77755517 0 0)
(2.7701292 0 0)
(2.76217294 0 0)
(2.7538221 0 0)
(2.74511525 0 0)
(2.73612967 0 0)
(2.72686945 0 0)
(2.71731405 0 0)
(2.70672988 0 0)
(2.69512202 0 0)
(2.68267986 0 0)
(2.66891927 0 0)
(2.65350359 0 0)
(2.63618581 0 0)
(2.61656929 0 0)
(2.59431654 0 0)
(2.56916768 0 0)
(2.54101762 0 0)
(2.50974287 0 0)
(2.47529217 0 0)
(2.4376713 0 0)
(2.39698297 0 0)
(2.35336294 0 0)
(2.3069451 0 0)
(2.25803449 0 0)
(2.20712388 0 0)
(2.15466375 0 0)
(2.10113466 0 0)
)
;

boundaryField
{
    closed
    {
        type            noSlip;
    }
    open
    {
        type            inletOutlet;
        inletValue      nonuniform List<vector> 0();
        value           nonuniform List<vector> 0();
    }
    sides
    {
        type            empty;
    }
    procBoundary4to3
    {
        type            processor;
        value           uniform (-1.02794751 0 0);
    }
    procBoundary4to5
    {
        type            processor;
        value           uniform (2.04703493 0 0);
    }
}


// ************************************************************************* //
