/*--------------------------------*- C++ -*----------------------------------*\
| =========                 |                                                 |
| \\      /  F ield         | OpenFOAM: The Open Source CFD Toolbox           |
|  \\    /   O peration     | Version:  2306                                  |
|   \\  /    A nd           | Website:  www.openfoam.com                      |
|    \\/     M anipulation  |                                                 |
\*---------------------------------------------------------------------------*/
FoamFile
{
    version     2.0;
    format      ascii;
    arch        "LSB;label=32;scalar=64";
    class       volScalarField;
    location    "0.00134";
    object      H;
}
// * * * * * * * * * * * * * * * * * * * * * * * * * * * * * * * * * * * * * //

dimensions      [0 0 0 0 0 0 0];

internalField   nonuniform List<scalar> 
531
(
1.11549836e-09
3.39561018e-08
4.7479205e-08
4.26988851e-08
5.0996709e-08
5.06428292e-08
9.39066104e-10
1.15920431e-09
1.13244759e-09
1.1778704e-09
3.80529688e-08
4.7370122e-08
8.9628539e-10
1.16296446e-09
4.53731734e-08
4.9681949e-08
7.89149264e-10
1.14053091e-09
4.94579375e-08
4.98264395e-08
6.95144882e-10
1.19144538e-09
1.00743072e-09
4.04855012e-08
5.13689439e-08
8.44667299e-10
1.12853157e-09
4.63622542e-08
4.66117287e-08
7.60259303e-10
1.26023311e-09
1.07752001e-09
3.31469163e-08
5.17381255e-08
5.13269011e-08
1.01031586e-09
1.11697256e-09
1.7399446e-08
4.96030814e-08
4.91479755e-08
9.95677442e-10
1.27195269e-09
1.22156603e-09
3.08594778e-08
4.63758271e-08
4.6119619e-08
1.01807737e-09
1.19636117e-09
3.54899394e-08
4.51799294e-08
5.13164916e-08
5.11790151e-08
7.81232002e-10
1.16464547e-09
1.05974194e-09
1.22550317e-09
4.13806139e-08
4.15990386e-08
8.82677123e-10
3.31285287e-08
5.23053807e-08
9.82836152e-10
1.14484796e-09
4.11598437e-08
4.75610734e-08
9.39022476e-10
1.20119649e-09
4.13199904e-08
4.53449596e-08
9.58022136e-10
1.22665394e-09
4.00073849e-08
4.42649289e-08
9.98611062e-10
1.23194372e-09
3.75734845e-08
4.39728145e-08
1.07105483e-09
1.2068244e-09
3.04055899e-08
4.60258137e-08
4.56456366e-08
1.03374475e-09
1.22014103e-09
3.57767898e-08
4.53584508e-08
5.11944913e-08
5.11507657e-08
8.09966524e-10
1.20616186e-09
1.04412096e-09
1.30216815e-09
1.20888084e-09
3.1400895e-08
4.28790086e-08
4.6983545e-08
4.68486771e-08
8.88113162e-10
1.20073724e-09
4.42280064e-08
4.73841101e-08
8.88558434e-10
1.20636659e-09
4.34369103e-08
4.64438862e-08
9.10842196e-10
1.22029273e-09
4.20990287e-08
4.52047602e-08
9.46457106e-10
1.22990748e-09
4.02894462e-08
4.42284443e-08
9.96454869e-10
1.22645893e-09
3.76066706e-08
4.40694243e-08
1.07293093e-09
1.19259625e-09
3.11258184e-08
4.66858924e-08
4.63582541e-08
1.02555751e-09
1.14745373e-09
3.44303943e-08
5.28990782e-08
4.96163836e-08
9.45453013e-10
1.24923485e-09
1.13347289e-09
3.6593677e-08
4.73370361e-08
1.02746324e-09
1.15735068e-09
3.77807414e-08
4.76225715e-08
1.03619445e-09
1.0904671e-09
3.5781796e-08
5.48190022e-08
5.2280787e-08
8.97254501e-10
1.18021105e-09
1.09131929e-09
4.14694901e-08
4.99101109e-08
8.83714196e-10
1.1512391e-09
4.77955497e-08
4.78409524e-08
7.73245637e-10
1.25264672e-09
1.03885833e-09
3.68372934e-08
4.97587867e-08
1.00893458e-09
1.1553274e-09
3.86985174e-08
4.48780307e-08
1.03947417e-09
1.19689295e-09
3.49404072e-08
4.30013965e-08
4.76574312e-08
4.76291288e-08
8.91493354e-10
1.17279665e-09
4.560103e-08
4.57197293e-08
8.29931458e-10
1.26083289e-09
1.08706899e-09
3.62861319e-08
4.91120628e-08
1.05017954e-09
1.09146821e-09
3.56148542e-08
5.3106157e-08
5.13847894e-08
9.65300352e-10
1.21137103e-09
1.17963672e-09
4.04828542e-08
4.67792715e-08
1.06849491e-09
1.15753654e-09
3.32311621e-08
4.714569e-08
4.21847148e-08
5.13160677e-08
4.92439159e-08
9.66841314e-10
1.28097728e-09
1.13867487e-09
1.37116162e-09
1.2931425e-09
3.00399254e-08
4.39899006e-08
4.08985766e-08
4.89796684e-08
4.70969498e-08
1.06771633e-09
1.24771556e-09
1.25082108e-09
1.25748108e-09
3.30350941e-08
4.42097977e-08
1.15604507e-09
1.19378161e-09
3.35599367e-08
4.92665914e-08
4.90087459e-08
1.03076934e-09
1.09567799e-09
3.62018766e-08
5.68439042e-08
5.22999066e-08
8.84784518e-10
1.20570695e-09
1.03862665e-09
3.84969382e-08
4.98318321e-08
9.83264835e-10
1.16642452e-09
4.54366093e-08
4.54655804e-08
9.02075371e-10
1.30138025e-09
1.12538648e-09
3.17651463e-08
5.06485773e-08
5.02375592e-08
1.08471147e-09
1.18970234e-09
3.75210083e-08
4.40754188e-08
1.10876722e-09
1.24598573e-09
3.3373128e-08
4.17013793e-08
4.59006199e-08
4.57035965e-08
1.01808226e-09
1.23985071e-09
3.81255734e-08
4.44497651e-08
4.89216123e-08
4.58370374e-08
1.07080438e-09
1.29273725e-09
1.19521244e-09
1.35369671e-09
1.29585843e-09
3.60274725e-08
4.41188483e-08
1.19681103e-09
1.19311534e-09
3.44639988e-08
5.03616552e-08
5.00997313e-08
1.08887731e-09
1.11899059e-09
3.50946668e-08
5.4258592e-08
4.99642904e-08
9.86685926e-10
1.25870223e-09
1.14867716e-09
3.45438733e-08
4.40982992e-08
1.16948058e-09
1.20659246e-09
3.43642532e-08
4.30320358e-08
5.11000722e-08
5.0985473e-08
8.86180078e-10
1.14970517e-09
1.03101922e-09
1.2121469e-09
1.17580238e-09
4.04696607e-08
4.81603437e-08
5.52215058e-08
5.49587236e-08
9.01313436e-10
1.19634835e-09
1.01754167e-09
3.46759224e-08
4.74234274e-08
1.17049004e-09
1.16133599e-09
3.52147885e-08
4.39332741e-08
5.13541997e-08
5.13000713e-08
9.02030444e-10
1.14119407e-09
1.0472064e-09
1.19967574e-09
4.36897227e-08
4.34198251e-08
9.96355289e-10
1.33727393e-09
1.06055969e-09
2.87456502e-08
5.42839595e-08
4.94878421e-08
1.0085648e-09
1.28852252e-09
1.13239119e-09
3.27512156e-08
4.76919373e-08
4.43029111e-08
5.49631945e-08
5.45881053e-08
9.84696734e-10
1.11007142e-09
1.14546109e-09
1.1531638e-09
3.55928057e-08
4.50699468e-08
1.19878312e-09
1.17333527e-09
3.83066044e-08
4.66083529e-08
5.67099179e-08
5.65511742e-08
8.75069512e-10
1.05227394e-09
9.401498e-10
1.11082659e-09
1.05693251e-09
4.72882042e-08
5.41660401e-08
1.14724655e-09
1.04399128e-09
3.86040054e-08
5.59364191e-08
5.0524015e-08
1.02805009e-09
1.24332587e-09
1.1251147e-09
3.69749121e-08
4.54812909e-08
1.30641103e-09
1.21193889e-09
3.78214871e-08
4.55819717e-08
5.33533775e-08
5.30057107e-08
1.0812004e-09
1.2460353e-09
1.11698238e-09
1.37791272e-09
1.20926842e-09
2.93486093e-08
4.75152365e-08
4.50102178e-08
5.5405128e-08
5.41354712e-08
1.22478818e-09
1.35759891e-09
1.3308218e-09
1.47040751e-09
4.51436865e-08
4.61319938e-08
1.46697692e-09
1.71975341e-09
1.53241354e-09
4.06428528e-08
5.07164739e-08
2.10470671e-09
2.13383618e-09
4.74530125e-08
4.92253145e-08
3.2960262e-09
3.75836413e-09
3.87348076e-09
4.83114954e-08
5.52338568e-08
6.24949489e-09
6.15943908e-09
7.29698707e-09
7.55335073e-09
4.63916876e-08
9.58190452e-09
9.59732201e-09
1.0729903e-08
1.10114883e-08
1.17770882e-08
1.22662748e-08
1.28580259e-08
1.33360445e-08
1.38272026e-08
1.41026251e-08
1.43995341e-08
1.4139425e-08
1.38772267e-08
1.17248532e-08
8.73147456e-09
9.09725012e-09
9.38315959e-09
9.87289828e-09
1.02871244e-08
1.08994972e-08
1.14596999e-08
1.22059674e-08
1.29300289e-08
1.42617555e-08
1.53199941e-08
1.52252916e-08
1.16033873e-08
1.0810365e-08
1.04964065e-08
1.07829248e-08
1.12598664e-08
1.25181695e-08
1.34219089e-08
1.47627407e-08
1.44181794e-08
1.4988247e-08
1.43155187e-08
1.47996085e-08
1.40073176e-08
1.41218991e-08
1.15074576e-09
1.47634533e-09
1.38109116e-09
1.56182321e-09
1.56171074e-09
1.65315154e-09
1.71293072e-09
1.80309442e-09
1.95225715e-09
2.19198581e-09
1.9393227e-09
1.47979772e-09
1.00606254e-09
6.606369e-10
3.86521488e-10
2.6178457e-10
6.5361187e-11
6.99637041e-11
1.50627291e-10
9.89478391e-11
2.99977382e-10
7.72401971e-11
6.03838884e-09
2.42354624e-08
4.43013852e-08
9.19945127e-08
1.21008686e-07
1.90597115e-07
2.63386458e-07
4.8891156e-07
7.22101219e-07
1.18277211e-06
1.87341685e-06
2.99412546e-06
4.41518516e-06
6.21667458e-06
8.63752925e-06
1.15245555e-05
1.50457762e-05
1.85465367e-05
2.28432722e-05
2.69282877e-05
3.2652115e-05
3.80393377e-05
4.35285689e-05
4.81490804e-05
5.30536458e-05
5.65914505e-05
6.08913018e-05
6.36542215e-05
6.74724075e-05
6.91581744e-05
7.22529056e-05
7.29276921e-05
7.52975058e-05
7.50332206e-05
7.66356117e-05
7.57180054e-05
7.6910418e-05
7.45461498e-05
7.46681313e-05
7.45359639e-05
7.68287954e-05
6.80938065e-05
6.51074898e-05
7.49018192e-05
8.54539536e-05
5.3617156e-05
3.70442935e-05
8.30083742e-05
0.000101035985
2.21856594e-05
4.63940608e-06
7.55489466e-05
8.50718863e-05
5.64886859e-07
7.33559907e-11
5.10296527e-05
6.6253197e-05
8.33613286e-11
9.96758655e-11
3.44824466e-05
5.42533933e-05
1.15874798e-10
1.30655277e-10
2.42991259e-05
4.29421312e-05
1.4947514e-10
1.59901105e-10
1.8502376e-05
3.49052544e-05
1.83941498e-10
1.91784668e-10
1.53064844e-05
2.8639037e-05
6.96278901e-08
2.18102883e-10
1.36901118e-05
2.38155948e-05
9.63649644e-08
2.41008144e-10
1.30456735e-05
1.99827023e-05
1.86669162e-08
2.6634461e-10
)
;

boundaryField
{
    closed
    {
        type            calculated;
        value           nonuniform List<scalar> 0();
    }
    open
    {
        type            calculated;
        value           nonuniform List<scalar> 0();
    }
    sides
    {
        type            empty;
    }
    procBoundary4to3
    {
        type            processor;
        value           uniform 1.00893401e-09;
    }
    procBoundary4to5
    {
        type            processor;
        value           uniform 1.24494095e-05;
    }
}


// ************************************************************************* //
