/*--------------------------------*- C++ -*----------------------------------*\
| =========                 |                                                 |
| \\      /  F ield         | OpenFOAM: The Open Source CFD Toolbox           |
|  \\    /   O peration     | Version:  2306                                  |
|   \\  /    A nd           | Website:  www.openfoam.com                      |
|    \\/     M anipulation  |                                                 |
\*---------------------------------------------------------------------------*/
FoamFile
{
    version     2.0;
    format      ascii;
    arch        "LSB;label=32;scalar=64";
    class       volScalarField;
    location    "0.00134";
    object      h;
}
// * * * * * * * * * * * * * * * * * * * * * * * * * * * * * * * * * * * * * //

dimensions      [0 2 -2 0 0 0 0];

internalField   nonuniform List<scalar> 
531
(
9986.86588
-1691.89622
-5492.79161
-4281.18607
-6490.68928
-6497.37802
9406.57684
10002.5485
10063.1062
10024.7439
-2909.90546
-5572.34712
9223.54134
10017.1995
-4957.28116
-6217.9655
8859.20895
9969.98547
-6095.5377
-6256.44483
8540.03037
10188.474
9556.20508
-3614.31454
-6637.94186
9058.66246
10008.1433
-5226.23579
-5317.82727
8734.04912
10500.8529
9762.36084
-1327.78415
-6722.90736
-6647.94205
9631.08953
9952.98204
4112.04351
-6172.83591
-6048.13103
9440.61001
10475.9805
10227.7457
-453.213723
-5236.90232
-5228.43088
9661.63891
10134.5077
-2225.98392
-4925.02822
-6655.58247
-6649.9853
8772.69436
9983.16037
9702.63481
10150.7855
-3888.14736
-3983.9003
9037.96426
-1371.0698
-6945.97694
9402.97765
9912.09375
-3845.66183
-5638.49228
9241.12179
10103.1015
-3881.3724
-5019.32124
9309.01994
10194.8187
-3515.48286
-4712.9775
9436.0342
10221.5972
-2845.93877
-4614.60329
9671.72806
10178.8103
-331.631396
-5155.64794
-5142.93865
9631.37853
10128.9475
-2339.63971
-5000.66861
-6652.2599
-6651.01893
8815.77108
10142.6335
9604.93629
10484.1809
10153.1074
-683.91695
-4303.69146
-5446.98388
-5449.38232
9117.9317
10078.3137
-4664.55726
-5612.9415
9135.59771
10085.7686
-4439.03219
-5347.3813
9210.58834
10145.3073
-4066.42618
-4989.61671
9321.07129
10204.54
-3568.86234
-4698.26632
9471.88375
10226.9391
-2833.85188
-4627.40719
9714.9759
10160.4684
-588.230411
-5324.50298
-5326.16126
9627.92417
9894.86137
-1871.38583
-7094.58223
-6221.45977
9253.88975
10322.5292
9891.25791
-2561.25467
-5536.0077
9580.7528
10041.7597
-2879.78879
-5593.32648
9620.04222
9836.54974
-2336.40913
-7589.62674
-6962.01389
9167.64036
10109.4548
9792.47159
-3908.22574
-6260.99847
9114.64873
10011.1886
-5664.98505
-5708.1006
8706.23461
10354.3261
9567.46784
-2632.60465
-6201.28921
9519.89937
10060.5067
-3126.99199
-4820.19435
9652.5436
10241.342
-2065.91494
-4266.50432
-5608.23028
-5601.08395
9184.06592
10133.4785
-5025.22023
-5084.91322
8946.2304
10444.9506
9792.57671
-2456.39617
-6003.28886
9675.76937
9855.10669
-2294.92719
-7108.51933
-6726.98048
9407.93345
10150.1276
10129.1609
-3678.46932
-5375.36774
9612.78988
10049.1919
-1438.32395
-5443.66372
-4192.57955
-6627.91777
-6174.65138
9370.63069
10268.77
9942.9395
10557.1081
10464.0655
-265.414137
-4618.15744
-3862.75992
-6028.02171
-5577.75393
9604.42903
10170.0486
10257.8799
10197.7632
-1337.50746
-4717.3184
9919.81774
10071.3467
-1552.18782
-6071.68691
-6077.45498
9615.90889
9712.30099
-2435.94622
-8195.09791
-6964.75618
9067.12808
10198.0592
9582.33377
-3090.56555
-6230.1126
9396.51637
10071.5262
-5027.71493
-5032.51904
9071.09599
10549.5405
9852.86568
-820.589666
-6457.73112
-6410.0513
9801.06161
10049.4521
-2791.02135
-4642.94212
9849.61189
10308.0226
-1439.6128
-3975.85787
-5148.86466
-5149.71168
9476.05795
10143.923
-3006.59188
-4790.20195
-6045.91371
-5183.79563
9519.12667
10372.7098
9979.88394
10557.6109
10363.6106
-2479.26137
-4697.19384
9924.31466
10012.1209
-1938.5253
-6411.59959
-6417.05297
9727.83487
9735.7556
-2149.7191
-7490.23906
-6326.99349
9361.43005
10375.4377
9957.77532
-1913.85128
-4604.74561
10022.816
10279.0158
-1842.44538
-4276.18814
-6611.92175
-6554.16689
9014.00433
10027.1045
9564.15335
10236.4573
10127.7652
-3629.17909
-5729.44622
-7779.35418
-7668.39442
9075.75745
10228.5792
9536.61856
-1959.13904
-5504.02009
10046.9165
10167.6532
-2143.9679
-4511.76536
-6664.54883
-6641.19547
9094.76187
9964.99082
9672.8542
10106.7172
-4494.968
-4475.15502
9344.38207
10638.195
9678.27462
296.178441
-7463.27576
-6231.47014
9495.76639
10406.6875
10005.814
-1217.46886
-5576.73348
-4733.91978
-7652.75368
-7624.56575
9366.41481
9811.87371
10001.5886
9966.33034
-2233.39734
-4878.66709
10116.9872
10162.251
-2997.9728
-5271.33396
-8179.52119
-8109.00135
8925.78985
9701.6225
9241.12903
9878.74627
9750.34896
-5557.34099
-7433.90731
9816.04782
9649.09089
-3116.48026
-7915.10852
-6484.18621
9501.25869
10310.6803
9872.18239
-2685.16077
-5020.98694
10249.5591
10153.9675
-2971.68323
-5087.17621
-7370.97596
-7254.13905
9243.69177
9964.49632
9471.03084
10322.272
9891.86371
-168.17686
-5773.60171
-5209.36763
-8089.70001
-7844.74291
9230.38808
9582.66493
9499.29707
9744.30677
-5446.4154
-5855.83649
9222.71275
10012.8003
9217.66407
-4574.70969
-7396.02269
9272.86884
9257.59423
-6771.69364
-7414.80158
8109.27128
8400.3985
7916.8271
-7707.6203
-9641.04763
6353.09113
6278.64753
6138.4406
5352.12652
-8329.00669
3696.00919
5499.14619
3676.63326
4814.57513
3769.26249
4349.95835
3762.67321
4030.8371
3678.01989
3824.76601
3623.33856
3854.65467
3872.27246
4766.34081
5769.98637
5920.75939
5776.4029
5751.16474
5528.79653
5362.64655
4995.51073
4695.87267
4124.98572
3706.10648
3116.98494
3327.49164
4720.40825
5115.6818
4900.70993
4856.93815
4228.80286
3767.44393
2714.28521
1726.76707
157.012082
-1080.93926
-3279.15573
-4338.16692
-8351.90176
-8001.84893
528.628019
3495.96427
-179.537658
-306.027826
-3053.49298
-4795.39809
-7683.13636
-10648.4998
-14395.5194
-18935.0937
-21788.5248
-24887.3698
-27392.2188
-31164.3856
-34462.8369
-38694.2853
-38420.5488
-45995.9212
-51163.078
-56700.3964
-58817.6142
-63069.1766
-74405.9617
-80353.9842
-86380.8349
-91444.4518
-97350.672
-102351.695
-107826.491
-112690.847
-117438.068
-121651.275
-125558.957
-129226.71
-132430.642
-135502.67
-138353.464
-141258.644
-144092.381
-146892.356
-149809.265
-152600.198
-155623.842
-158513.171
-161722.328
-164819.24
-168024.913
-171225.856
-174313.902
-177637.84
-180538.526
-183840.866
-186472.877
-189767.246
-192121.063
-195470.525
-197677.996
-200916.201
-202673.461
-207045.036
-209541.905
-211359.856
-211520.419
-222327.522
-228902.458
-218080.788
-208095.623
-244379.454
-258870.638
-210664.326
-190744.351
-271416.277
-286329.759
-214794.417
-200891.103
-290168.304
-290500.108
-232916.746
-210980.182
-287131.442
-280255.865
-237914.638
-212281.726
-275253.551
-270470.871
-237827.451
-213568.733
-264610.138
-261385.614
-235110.84
-213373.942
-255828.142
-253820.442
-231094.787
-213008.94
-248530.439
-247507.473
-226399.733
-212314.865
-242344.793
-241930.062
-221498.239
-211286.179
-237336.304
-236783.24
)
;

boundaryField
{
    closed
    {
        type            lookUpEnthalpy;
        h0              nonuniform List<scalar> 0();
        value           nonuniform List<scalar> 0();
    }
    open
    {
        type            zeroGradient;
    }
    sides
    {
        type            empty;
    }
    procBoundary4to3
    {
        type            processor;
        value           uniform 9524.90605;
    }
    procBoundary4to5
    {
        type            processor;
        value           uniform -217177.987;
    }
}


// ************************************************************************* //
