/*--------------------------------*- C++ -*----------------------------------*\
| =========                 |                                                 |
| \\      /  F ield         | OpenFOAM: The Open Source CFD Toolbox           |
|  \\    /   O peration     | Version:  2306                                  |
|   \\  /    A nd           | Website:  www.openfoam.com                      |
|    \\/     M anipulation  |                                                 |
\*---------------------------------------------------------------------------*/
FoamFile
{
    version     2.0;
    format      ascii;
    arch        "LSB;label=32;scalar=64";
    class       volScalarField;
    location    "0.00134";
    object      prefDh_T;
}
// * * * * * * * * * * * * * * * * * * * * * * * * * * * * * * * * * * * * * //

dimensions      [1 1 -3 -1 0 0 0];

internalField   nonuniform List<scalar> 
531
(
-0.000734516318
-0.000602500242
-0.000493104376
-0.000535486245
-0.000457375118
-0.000459165566
-0.000731494961
-0.000739590587
-0.000734137889
-0.000741202354
-0.000581800893
-0.000491432171
-0.000732373084
-0.000739582849
-0.000512386488
-0.000468857713
-0.000731361127
-0.000738304689
-0.000472282192
-0.000467472136
-0.000730641813
-0.000737559787
-0.000735234768
-0.000558094187
-0.000452947702
-0.00073146742
-0.000735489011
-0.000502967326
-0.000499936137
-0.000732129147
-0.000736119889
-0.000737222912
-0.00060620372
-0.000449466705
-0.00045303742
-0.000732999921
-0.000735856148
-0.000609922678
-0.000470105221
-0.000474550937
-0.000737708218
-0.000738419085
-0.000740084154
-0.000599753071
-0.000502646482
-0.000503339318
-0.000732954544
-0.000739947094
-0.000603692939
-0.000513596478
-0.000452975609
-0.00045380728
-0.000733495299
-0.000740906829
-0.000736967916
-0.000743040873
-0.000548769434
-0.00054535637
-0.000737207043
-0.000599863531
-0.000442849917
-0.000737357537
-0.000740757434
-0.000550057314
-0.000489250828
-0.000737339882
-0.000741567141
-0.000548930498
-0.000510526363
-0.00073742146
-0.000741776822
-0.000561076869
-0.000520937192
-0.00073823995
-0.000741575052
-0.000582905378
-0.000524272957
-0.000739451821
-0.00073982069
-0.000594962807
-0.000505589538
-0.000506438417
-0.000736053027
-0.000743077858
-0.000599370887
-0.000511090782
-0.000453688349
-0.000453934874
-0.000735704591
-0.000740909132
-0.000738286984
-0.000741932588
-0.000740909788
-0.000598487583
-0.000534814423
-0.000495639803
-0.000495849416
-0.000735079838
-0.000742307969
-0.000522555739
-0.00049032707
-0.000734508231
-0.000742763138
-0.000530254567
-0.000499410872
-0.000734758495
-0.000742574451
-0.00054289188
-0.00051156324
-0.000735506475
-0.00074186856
-0.000559535874
-0.000521434537
-0.000736731396
-0.000740721608
-0.000583625471
-0.00052383184
-0.00073823661
-0.000738625604
-0.00059720745
-0.000499590303
-0.000500149504
-0.000735109698
-0.000741645358
-0.000605186687
-0.000437076391
-0.000469049094
-0.000737721332
-0.000740493498
-0.000740017122
-0.000592330305
-0.000492455649
-0.000736979601
-0.00073806323
-0.000582162441
-0.000490224514
-0.000736757774
-0.00073637481
-0.000599564654
-0.000417718137
-0.000442778293
-0.000734505803
-0.000738731134
-0.000737971316
-0.000548126154
-0.000467016327
-0.000734621113
-0.000738298739
-0.000487955189
-0.000486757256
-0.000734873221
-0.000739900229
-0.000738886829
-0.000589959691
-0.000468858333
-0.000736684406
-0.000737183159
-0.000574161259
-0.000517140294
-0.000736067186
-0.00073651225
-0.000608512814
-0.000536187491
-0.000489755232
-0.00049001428
-0.000733158397
-0.000736995066
-0.000510050216
-0.000508120496
-0.00073360599
-0.000738012187
-0.00073742499
-0.000596067545
-0.000475639485
-0.000736653556
-0.000735874537
-0.000600800412
-0.00043544129
-0.000451441419
-0.000734915017
-0.000741315732
-0.000738010282
-0.000555409408
-0.000498014945
-0.000741097601
-0.000737840731
-0.000596845694
-0.000495323142
-0.000538161653
-0.000453409214
-0.0004714005
-0.000736418044
-0.000746077804
-0.000738965775
-0.000748034916
-0.00074145034
-0.000589453091
-0.000524152037
-0.000548723285
-0.000475616452
-0.000491826616
-0.000741278331
-0.000745141982
-0.000742750479
-0.000745455561
-0.000599310393
-0.000520791311
-0.00074189912
-0.000741671295
-0.000599336724
-0.000473581678
-0.00047439673
-0.000736199884
-0.000741192436
-0.000596676508
-0.000396479987
-0.00044262397
-0.000736449607
-0.000739054097
-0.000738353782
-0.000575106983
-0.000467968466
-0.000737635241
-0.000738232274
-0.000510182331
-0.000510005302
-0.000738532381
-0.00073976922
-0.000740268062
-0.000599430764
-0.000459842698
-0.000462660708
-0.000736836065
-0.000741872133
-0.000585309405
-0.000523309533
-0.000738277469
-0.000740553014
-0.000603897929
-0.000545843448
-0.000505982321
-0.000506181527
-0.000739350141
-0.000745009528
-0.000577579486
-0.00051833207
-0.000475407086
-0.000505013217
-0.000744472046
-0.000744267516
-0.000744777319
-0.000745934183
-0.000744929777
-0.000593521287
-0.000521467226
-0.000746730213
-0.000743492605
-0.000597327444
-0.000462078786
-0.000463072897
-0.000739824635
-0.000743310998
-0.00060527308
-0.00042309495
-0.000465471031
-0.000739274191
-0.000739981318
-0.000739737739
-0.000605992513
-0.000524574406
-0.000740217273
-0.000736512838
-0.000605375576
-0.000535854006
-0.000454861367
-0.000456434193
-0.000738497379
-0.000737575511
-0.000738001773
-0.00073861596
-0.000737568188
-0.000557443089
-0.000485256354
-0.000413119296
-0.00041604399
-0.000738272463
-0.000736864
-0.000737217061
-0.000607663729
-0.000493012695
-0.00073955552
-0.000734372481
-0.000606450997
-0.000527697423
-0.00045262278
-0.00045329498
-0.000737699846
-0.000738554488
-0.000736369996
-0.000741261559
-0.000528345482
-0.00052898244
-0.000741070624
-0.00074144284
-0.000737899004
-0.000594375358
-0.000423104493
-0.000469305112
-0.000737466114
-0.000742688161
-0.000736066239
-0.000599788834
-0.000490407765
-0.000520230779
-0.000416095867
-0.000419395096
-0.000738851427
-0.000739699322
-0.000737882376
-0.000740020408
-0.000603857326
-0.000515136639
-0.000740818389
-0.000736108066
-0.000578665678
-0.000501186361
-0.000397850721
-0.000399543325
-0.000740162419
-0.000736040145
-0.000737484426
-0.000737564596
-0.000734973161
-0.000492017762
-0.000424289699
-0.000744174794
-0.000736768018
-0.000574308181
-0.000406011915
-0.000459964834
-0.000739757028
-0.000740135385
-0.000739595747
-0.000588016766
-0.000510337324
-0.000749694094
-0.000741262672
-0.000577942812
-0.00050821582
-0.00043065647
-0.000434335307
-0.000754505161
-0.000751310936
-0.0007515323
-0.00075578382
-0.000749231407
-0.000579612178
-0.000485643313
-0.000503972285
-0.000409001592
-0.000419304136
-0.000770658467
-0.000774553463
-0.000774104869
-0.000781569798
-0.000495182108
-0.000481652277
-0.00079479364
-0.000798513525
-0.000800949822
-0.000512926745
-0.000435184394
-0.000813233558
-0.000812982965
-0.000448207641
-0.000429072249
-0.000794195316
-0.000799020873
-0.000791002251
-0.000408170933
-0.0003667591
-0.000764974746
-0.000763580095
-0.000762169028
-0.000747869656
-0.000346278135
-0.000718546568
-0.000754932068
-0.000720424593
-0.00074604933
-0.000726029832
-0.000742794043
-0.000732296762
-0.000744950796
-0.000740759747
-0.000753773942
-0.000755629748
-0.000775575073
-0.000787762303
-0.000837059768
-0.000889567412
-0.000838221349
-0.00080937842
-0.000766578895
-0.000740144321
-0.000706709509
-0.000685392855
-0.000661108016
-0.000647077324
-0.000620498056
-0.000599227984
-0.000582781994
-0.00059413392
-0.000567215428
-0.000553288053
-0.000530006522
-0.000522416721
-0.000501896515
-0.00050339514
-0.000464297505
-0.000455572563
-0.000387362023
-0.000397592777
-0.000310741181
-0.000343140912
-0.000234807146
-0.000799697673
-0.000619959798
-0.000651885512
-0.000496341339
-0.000488740172
-0.000365205225
-0.000324319052
-0.00022337523
-0.00015667191
-5.91329984e-05
-2.63269891e-05
-1.95337221e-05
-1.21459385e-05
-5.39381149e-06
2.75927294e-06
1.03459943e-05
8.11693522e-07
-2.55380528e-06
-0.000144073106
-0.000264009793
-0.000342881678
-0.000271252742
-0.000471050425
-0.000547391039
-0.000542658187
-0.000572181104
-0.000513043062
-0.000513831059
-0.000408154833
-0.000376842878
-0.000219444468
-0.000152766736
4.87614047e-05
0.000131317365
0.000361682591
0.000451940424
0.000688637838
0.000766509681
0.000991781739
0.00106075465
0.00127083586
0.00133283208
0.0015220005
0.0015710141
0.00174509712
0.0017974332
0.00196469866
0.00202811011
0.00219242031
0.00226562834
0.00242831894
0.00251846949
0.00268376944
0.00279073831
0.00295835291
0.00308053504
0.00325083362
0.00338365217
0.00354388673
0.00371298047
0.00389121348
0.00396783696
0.00404543913
0.00445812321
0.00474853803
0.00430003415
0.00398564118
0.00554965848
0.00648525026
0.00418304002
0.00350134566
0.00727804134
0.00821153296
0.00468126323
0.00439408154
0.00847171647
0.00852892662
0.00595010241
0.0053127668
0.00853581011
0.00853827624
0.00678912768
0.00590252961
0.00854055534
0.00854063188
0.00728736597
0.00643995402
0.00854051617
0.00853998821
0.00756735515
0.00681567613
0.00853879094
0.00853731984
0.00771962288
0.00710521692
0.00852915309
0.00853366711
0.00779471056
0.00732641345
0.00852306232
0.00852946712
0.00782268634
0.00750097099
0.00852658551
0.00852483189
)
;

boundaryField
{
    closed
    {
        type            calculated;
        value           nonuniform List<scalar> 0();
    }
    open
    {
        type            calculated;
        value           nonuniform List<scalar> 0();
    }
    sides
    {
        type            empty;
    }
    procBoundary4to3
    {
        type            processor;
        value           uniform -0.000736511881;
    }
    procBoundary4to5
    {
        type            processor;
        value           uniform 0.00784934495;
    }
}


// ************************************************************************* //
