/*--------------------------------*- C++ -*----------------------------------*\
| =========                 |                                                 |
| \\      /  F ield         | OpenFOAM: The Open Source CFD Toolbox           |
|  \\    /   O peration     | Version:  2306                                  |
|   \\  /    A nd           | Website:  www.openfoam.com                      |
|    \\/     M anipulation  |                                                 |
\*---------------------------------------------------------------------------*/
FoamFile
{
    version     2.0;
    format      ascii;
    arch        "LSB;label=32;scalar=64";
    class       volScalarField;
    location    "0.00126";
    object      H2;
}
// * * * * * * * * * * * * * * * * * * * * * * * * * * * * * * * * * * * * * //

dimensions      [0 0 0 0 0 0 0];

internalField   nonuniform List<scalar> 
530
(
6.65427609e-05
8.10302613e-05
4.48782808e-08
4.48315182e-08
6.67829062e-05
7.06353724e-05
4.74875697e-08
4.7325705e-08
6.72389725e-05
6.05660011e-05
4.94141241e-08
4.93733697e-08
6.82065821e-05
5.35305401e-05
5.14797331e-08
5.14928916e-08
6.6312254e-05
5.06423711e-05
5.37745199e-08
5.37647298e-08
6.20755316e-05
4.87384307e-05
5.64064608e-08
5.61704048e-08
5.90235448e-05
4.59839238e-05
5.89753449e-08
5.8583362e-08
5.6796618e-05
4.3398552e-05
6.13688485e-08
6.09549475e-08
5.50184766e-05
4.21272658e-05
6.35881555e-08
6.33289946e-08
5.26098519e-05
4.09432222e-05
3.33257762e-07
6.55851275e-08
5.05296385e-05
3.96397896e-05
6.51556056e-07
6.82089906e-08
4.81556705e-05
3.92902403e-05
1.02955559e-07
7.08595764e-08
4.65511304e-05
3.84286379e-05
7.29643874e-08
7.31415529e-08
4.54733464e-05
3.82076038e-05
7.50031047e-08
7.52388749e-08
4.45111774e-05
3.82970051e-05
7.70312186e-08
7.72470034e-08
4.35938782e-05
3.81692677e-05
7.90722216e-08
7.9220559e-08
4.27624002e-05
3.78776554e-05
8.11063526e-08
8.12112136e-08
4.19665246e-05
3.74307313e-05
8.36521765e-08
8.37830108e-08
4.12583567e-05
3.68143192e-05
8.63237815e-08
8.63474325e-08
4.08906283e-05
3.61329905e-05
8.90187205e-08
8.90271107e-08
4.04453034e-05
3.49559995e-05
9.18853928e-08
9.17872648e-08
3.97246665e-05
3.40084769e-05
9.46653058e-08
9.45535422e-08
3.90380866e-05
3.33524519e-05
9.74319977e-08
9.73156908e-08
3.79933332e-05
3.28345699e-05
1.00299613e-07
1.00170919e-07
3.72544756e-05
3.21591176e-05
1.03744437e-07
1.03690763e-07
3.67539194e-05
3.155958e-05
1.07034272e-07
1.07217006e-07
3.65400188e-05
3.09890652e-05
1.10507594e-07
1.10745262e-07
3.56241924e-05
3.05971094e-05
1.14009547e-07
1.14311973e-07
3.51541796e-05
2.99976814e-05
1.17621905e-07
1.18007046e-07
3.45397047e-05
2.94163732e-05
1.21330984e-07
1.21762315e-07
3.38771788e-05
2.88135828e-05
1.25387227e-07
1.25906618e-07
3.32619818e-05
2.82101201e-05
1.30062787e-07
1.30612082e-07
3.26806218e-05
2.76034258e-05
1.3478164e-07
1.35400104e-07
3.2206147e-05
2.69750436e-05
1.39742261e-07
1.40315097e-07
3.16807196e-05
2.64046155e-05
1.44866386e-07
1.454334e-07
3.10245805e-05
2.56902382e-05
1.50122225e-07
1.50659061e-07
3.03434804e-05
2.50253542e-05
1.55419645e-07
1.55983982e-07
2.96264744e-05
2.43411032e-05
1.61702272e-07
1.62387546e-07
2.8826908e-05
2.36323803e-05
1.68323685e-07
1.68980633e-07
2.80164464e-05
2.30620763e-05
1.75072027e-07
1.75586132e-07
2.70098283e-05
2.26399814e-05
1.81583742e-07
1.82100032e-07
2.60797466e-05
2.21755467e-05
1.87759071e-07
1.88238992e-07
2.55844619e-05
2.20509328e-05
1.93857694e-07
1.94327662e-07
2.50991242e-05
2.18197404e-05
1.99930202e-07
2.00488431e-07
2.47516036e-05
2.14004199e-05
2.06975144e-07
2.07716653e-07
2.4632373e-05
2.08268744e-05
2.13867163e-07
2.1497283e-07
2.46949665e-05
2.02552145e-05
2.20677014e-07
2.22115195e-07
2.4652161e-05
1.98198855e-05
2.27552077e-07
2.2909938e-07
2.44535423e-05
1.94822183e-05
2.34623449e-07
2.36063744e-07
2.40481992e-05
1.92862244e-05
2.41863437e-07
2.43225951e-07
2.34813329e-05
1.88396896e-05
2.49175445e-07
2.50454769e-07
2.29306863e-05
1.83570029e-05
2.56404089e-07
2.57722364e-07
2.24839319e-05
1.77959309e-05
2.64359195e-07
2.65881549e-07
2.20428052e-05
1.72550632e-05
2.7249283e-07
2.7417374e-07
2.1625162e-05
1.673272e-05
2.80460926e-07
2.82359585e-07
2.12074921e-05
1.62848381e-05
2.88312031e-07
2.90386564e-07
2.08154048e-05
1.59527737e-05
2.96072936e-07
2.98242075e-07
2.04274604e-05
1.56938901e-05
3.03750486e-07
3.05908012e-07
2.00125019e-05
1.54592954e-05
3.11523388e-07
3.14065616e-07
1.95403767e-05
1.52088579e-05
3.19777732e-07
3.22285769e-07
1.90120094e-05
1.47874229e-05
3.28050569e-07
3.3010856e-07
1.83649637e-05
1.45577626e-05
3.36689906e-07
3.38862649e-07
1.71355564e-05
1.38248633e-05
3.45726785e-07
3.47211276e-07
1.60004094e-05
1.34510091e-05
3.55289558e-07
3.56087067e-07
1.50709229e-05
1.28950425e-05
3.6437252e-07
3.64842022e-07
1.47463936e-05
1.21434792e-05
3.72953618e-07
3.73275105e-07
1.45523647e-05
1.18488622e-05
3.80887594e-07
3.81225522e-07
1.42329019e-05
1.18017672e-05
3.8863282e-07
3.88887715e-07
1.37688405e-05
1.18636665e-05
3.95867322e-07
3.96540137e-07
1.34930868e-05
1.15288245e-05
4.03234395e-07
4.04237068e-07
1.31318595e-05
1.10809296e-05
4.10460051e-07
4.11398682e-07
1.27235521e-05
1.06045829e-05
4.17523997e-07
4.18332389e-07
1.22947049e-05
1.01787056e-05
4.24423568e-07
4.25009534e-07
1.18638804e-05
9.78175719e-06
4.31171615e-07
4.31465808e-07
1.14355187e-05
9.39401523e-06
4.37487672e-07
4.37677093e-07
1.09317342e-05
9.02398219e-06
4.4341953e-07
4.43619865e-07
1.04108219e-05
8.49924817e-06
4.4928258e-07
4.49358744e-07
9.932735e-06
8.16767275e-06
4.54483851e-07
4.54865509e-07
9.57504451e-06
7.6573813e-06
4.59576017e-07
4.60133957e-07
9.25546746e-06
7.20558375e-06
4.64480046e-07
4.65156354e-07
8.80867424e-06
6.8391665e-06
4.6921626e-07
4.6991004e-07
8.33946546e-06
6.47208841e-06
4.73740258e-07
4.74429977e-07
7.90743908e-06
6.10047954e-06
4.78018436e-07
4.7870462e-07
7.50497604e-06
5.76870745e-06
4.82088609e-07
4.82718269e-07
7.05542378e-06
5.49867516e-06
4.86209945e-07
4.86781134e-07
6.56865351e-06
5.26585142e-06
4.90234783e-07
4.9063922e-07
6.09828429e-06
5.01302301e-06
4.93984176e-07
4.94293004e-07
5.70573749e-06
4.72326885e-06
4.97458307e-07
4.97716452e-07
5.37223231e-06
4.46197862e-06
5.00658387e-07
5.00904646e-07
5.06809025e-06
4.20947727e-06
5.0365818e-07
5.03898933e-07
4.76583301e-06
3.9657921e-06
5.06461743e-07
5.06685979e-07
4.47483293e-06
3.73633449e-06
5.09069349e-07
5.09273562e-07
4.19966268e-06
3.51905645e-06
5.11484834e-07
5.11673102e-07
3.94330271e-06
3.3115311e-06
5.1371389e-07
5.13895556e-07
3.70703303e-06
3.11252972e-06
5.15764579e-07
5.15950243e-07
3.49007067e-06
2.92262572e-06
5.17647797e-07
5.17844362e-07
3.28959371e-06
2.74387631e-06
5.19376818e-07
5.19584185e-07
3.10156547e-06
2.57859483e-06
5.20965175e-07
5.21176645e-07
2.92216658e-06
2.42797937e-06
5.22424903e-07
5.22629879e-07
2.74918293e-06
2.29137997e-06
5.23765374e-07
5.23953715e-07
2.58253352e-06
2.16680482e-06
5.24993253e-07
5.25158472e-07
2.42339881e-06
2.05206303e-06
5.26114299e-07
5.26253824e-07
2.27297206e-06
1.94531632e-06
5.2713439e-07
5.27248948e-07
2.13188942e-06
1.84515385e-06
5.28059714e-07
5.28152401e-07
2.00015805e-06
1.75051168e-06
5.28897139e-07
5.28971559e-07
1.87720016e-06
1.66060381e-06
5.29652546e-07
5.29719436e-07
1.7640384e-06
1.57163308e-06
5.30339036e-07
5.30393503e-07
1.65947363e-06
1.49031966e-06
5.30946656e-07
5.31002636e-07
1.56482671e-06
1.40998657e-06
5.31488002e-07
5.31552082e-07
1.48092133e-06
1.33184533e-06
5.31969603e-07
5.32046648e-07
1.40456868e-06
1.25807821e-06
5.3240696e-07
5.32492012e-07
1.32769461e-06
1.18034441e-06
5.32860238e-07
5.3291785e-07
1.21719388e-06
1.10883908e-06
5.33431998e-07
5.33441788e-07
1.04350484e-06
1.018452e-06
6.79156306e-07
6.74311052e-07
7.81536393e-07
7.96257114e-07
7.2969371e-07
7.44243642e-07
7.15803145e-07
7.37258745e-07
6.97601417e-07
7.21538831e-07
6.80890097e-07
7.05889203e-07
6.65049737e-07
6.89648419e-07
6.50039986e-07
6.72972393e-07
6.35743628e-07
6.55939195e-07
6.22094191e-07
6.3871424e-07
6.0908552e-07
6.2156748e-07
5.96702967e-07
6.0485091e-07
5.84895195e-07
5.88970102e-07
5.73632966e-07
5.74336481e-07
5.62980228e-07
5.61285792e-07
5.5309553e-07
5.50020307e-07
5.44125352e-07
5.40616892e-07
5.36143272e-07
5.35555028e-07
5.35543332e-07
5.35532769e-07
5.35526225e-07
5.35521829e-07
5.35519244e-07
5.35517775e-07
5.35517011e-07
5.35516639e-07
5.35516472e-07
5.35516403e-07
5.35516377e-07
5.35516368e-07
5.35516364e-07
5.35516363e-07
5.35516363e-07
5.35516363e-07
5.35516363e-07
5.35516363e-07
5.35516363e-07
5.35516363e-07
5.35516363e-07
5.35516363e-07
5.35516363e-07
5.35516363e-07
5.35516363e-07
5.35516363e-07
5.35516363e-07
5.35516363e-07
5.35516363e-07
5.35516363e-07
5.35516363e-07
5.35516363e-07
5.35516363e-07
5.35516363e-07
5.35516363e-07
5.35516363e-07
5.35516363e-07
5.35516363e-07
5.35516363e-07
5.35516363e-07
)
;

boundaryField
{
    closed
    {
        type            calculated;
        value           nonuniform List<scalar> 0();
    }
    open
    {
        type            calculated;
        value           uniform 5.35516363e-07;
    }
    sides
    {
        type            empty;
    }
    procBoundary5to4
    {
        type            processor;
        value           uniform 4.20718857e-08;
    }
}


// ************************************************************************* //
