/*--------------------------------*- C++ -*----------------------------------*\
| =========                 |                                                 |
| \\      /  F ield         | OpenFOAM: The Open Source CFD Toolbox           |
|  \\    /   O peration     | Version:  2306                                  |
|   \\  /    A nd           | Website:  www.openfoam.com                      |
|    \\/     M anipulation  |                                                 |
\*---------------------------------------------------------------------------*/
FoamFile
{
    version     2.0;
    format      ascii;
    arch        "LSB;label=32;scalar=64";
    class       volScalarField;
    location    "0.00126";
    object      mu;
}
// * * * * * * * * * * * * * * * * * * * * * * * * * * * * * * * * * * * * * //

dimensions      [1 -1 -1 0 0 0 0];

internalField   nonuniform List<scalar> 
530
(
5.35879482e-05
5.36503163e-05
5.38164095e-05
5.38148067e-05
5.36990399e-05
5.37454855e-05
5.39156277e-05
5.39100961e-05
5.37974358e-05
5.38362918e-05
5.39889226e-05
5.39881681e-05
5.38819112e-05
5.3920489e-05
5.40674285e-05
5.40687082e-05
5.39659632e-05
5.39930839e-05
5.41439495e-05
5.41434514e-05
5.40532424e-05
5.40635996e-05
5.42235591e-05
5.42163565e-05
5.41326573e-05
5.41388356e-05
5.43012908e-05
5.42896111e-05
5.42072089e-05
5.42147358e-05
5.43739319e-05
5.43618552e-05
5.42792837e-05
5.42855927e-05
5.44417972e-05
5.44344583e-05
5.43513626e-05
5.43563006e-05
5.45089494e-05
5.45039941e-05
5.44214711e-05
5.44266871e-05
5.45697312e-05
5.45719377e-05
5.44916678e-05
5.44937517e-05
5.46348147e-05
5.4636993e-05
5.45538393e-05
5.45612661e-05
5.46891549e-05
5.46935475e-05
5.46096695e-05
5.46196683e-05
5.4740438e-05
5.47462392e-05
5.46649852e-05
5.46734325e-05
5.47921323e-05
5.47974266e-05
5.47202162e-05
5.47277266e-05
5.48447568e-05
5.48484244e-05
5.47751306e-05
5.4782332e-05
5.48977785e-05
5.49003567e-05
5.48298718e-05
5.48373288e-05
5.49500344e-05
5.49527091e-05
5.48842904e-05
5.48928693e-05
5.50049765e-05
5.50055006e-05
5.49379257e-05
5.49486559e-05
5.50609008e-05
5.50611727e-05
5.49958597e-05
5.50080188e-05
5.51206755e-05
5.51189073e-05
5.50550632e-05
5.5068558e-05
5.51791056e-05
5.51771568e-05
5.51143441e-05
5.51284607e-05
5.5237608e-05
5.52356274e-05
5.51754859e-05
5.51880069e-05
5.52962697e-05
5.52941158e-05
5.52361845e-05
5.5248275e-05
5.53546051e-05
5.53537657e-05
5.52967819e-05
5.5308898e-05
5.54106705e-05
5.54137879e-05
5.5356777e-05
5.53701701e-05
5.54700226e-05
5.54740371e-05
5.54202454e-05
5.5432124e-05
5.55300188e-05
5.55350828e-05
5.54830629e-05
5.54955151e-05
5.5591904e-05
5.55982599e-05
5.55474436e-05
5.55597591e-05
5.56553467e-05
5.56623916e-05
5.56125518e-05
5.5624863e-05
5.57195207e-05
5.57266765e-05
5.56784183e-05
5.56908839e-05
5.57843412e-05
5.57918454e-05
5.57450379e-05
5.57578934e-05
5.58496498e-05
5.58580174e-05
5.58121785e-05
5.58258023e-05
5.59180426e-05
5.59257056e-05
5.58814095e-05
5.5894659e-05
5.59883181e-05
5.59958198e-05
5.59526287e-05
5.5965923e-05
5.60599424e-05
5.60669643e-05
5.60245431e-05
5.6037532e-05
5.61316386e-05
5.61389416e-05
5.60971959e-05
5.6109786e-05
5.62040265e-05
5.62116124e-05
5.61706851e-05
5.61827117e-05
5.62776015e-05
5.62847905e-05
5.62445422e-05
5.62556118e-05
5.63519875e-05
5.6357554e-05
5.6319327e-05
5.63281779e-05
5.64232052e-05
5.6428746e-05
5.63907238e-05
5.64000044e-05
5.64902785e-05
5.64953783e-05
5.64577493e-05
5.64663754e-05
5.65559907e-05
5.65609416e-05
5.65245435e-05
5.65328327e-05
5.66208671e-05
5.66259711e-05
5.65905593e-05
5.65994777e-05
5.66840579e-05
5.66906606e-05
5.66552274e-05
5.66661548e-05
5.67453364e-05
5.67550689e-05
5.67184925e-05
5.67321209e-05
5.68054185e-05
5.68179286e-05
5.67810405e-05
5.67967561e-05
5.68655632e-05
5.68788719e-05
5.68431318e-05
5.68600413e-05
5.69268567e-05
5.69390986e-05
5.69061811e-05
5.69217734e-05
5.69889964e-05
5.70004324e-05
5.69698106e-05
5.6985029e-05
5.70511041e-05
5.70617119e-05
5.70320171e-05
5.70473831e-05
5.71118741e-05
5.7122676e-05
5.70925297e-05
5.71087945e-05
5.7171298e-05
5.71822025e-05
5.7151759e-05
5.71687347e-05
5.72290803e-05
5.72409842e-05
5.72097971e-05
5.72273168e-05
5.72851678e-05
5.72984615e-05
5.72665751e-05
5.72843516e-05
5.73399279e-05
5.73542911e-05
5.73221251e-05
5.73396764e-05
5.73935654e-05
5.74084199e-05
5.73763781e-05
5.73933589e-05
5.74461428e-05
5.74607603e-05
5.74293988e-05
5.74456807e-05
5.74969729e-05
5.75114527e-05
5.74809291e-05
5.74965358e-05
5.75464493e-05
5.75605641e-05
5.75307178e-05
5.75460953e-05
5.75952488e-05
5.76067083e-05
5.75794695e-05
5.75932822e-05
5.76453508e-05
5.7657299e-05
5.76290426e-05
5.76419392e-05
5.76958573e-05
5.77032299e-05
5.76765106e-05
5.76882882e-05
5.77437452e-05
5.77477721e-05
5.77216778e-05
5.77341891e-05
5.77886897e-05
5.77911834e-05
5.77633313e-05
5.77801131e-05
5.78306949e-05
5.78325111e-05
5.78038503e-05
5.78212103e-05
5.7869189e-05
5.7871056e-05
5.78437338e-05
5.78591615e-05
5.79063937e-05
5.79078024e-05
5.78831468e-05
5.789483e-05
5.79408148e-05
5.79441167e-05
5.79195907e-05
5.79317221e-05
5.79754506e-05
5.79802491e-05
5.79549401e-05
5.79677831e-05
5.80090597e-05
5.80135466e-05
5.79889647e-05
5.80026047e-05
5.80415837e-05
5.8045482e-05
5.8021648e-05
5.8035732e-05
5.80730467e-05
5.80759432e-05
5.80529963e-05
5.80672111e-05
5.81035365e-05
5.81051227e-05
5.80832993e-05
5.80972273e-05
5.81318359e-05
5.81329468e-05
5.81124777e-05
5.81256485e-05
5.81581974e-05
5.81593382e-05
5.81403933e-05
5.81538053e-05
5.81840332e-05
5.81846141e-05
5.81667384e-05
5.81791178e-05
5.82067868e-05
5.82086833e-05
5.81909937e-05
5.82044931e-05
5.82288778e-05
5.82315388e-05
5.82136729e-05
5.82282017e-05
5.82500004e-05
5.82531456e-05
5.82360758e-05
5.82500316e-05
5.82702624e-05
5.82734487e-05
5.82574572e-05
5.82706897e-05
5.82894782e-05
5.82926218e-05
5.82774687e-05
5.82902721e-05
5.8307525e-05
5.83106345e-05
5.82961852e-05
5.83084954e-05
5.83245852e-05
5.83274304e-05
5.83142195e-05
5.83252537e-05
5.83407672e-05
5.83430151e-05
5.83315083e-05
5.83407522e-05
5.83560075e-05
5.8357607e-05
5.83477352e-05
5.8355456e-05
5.83701366e-05
5.83713656e-05
5.83625094e-05
5.83695228e-05
5.83831682e-05
5.83841996e-05
5.8376013e-05
5.83825072e-05
5.83951204e-05
5.83961001e-05
5.83884795e-05
5.83946081e-05
5.84062797e-05
5.84072321e-05
5.84001557e-05
5.84058672e-05
5.8416669e-05
5.84175533e-05
5.84110131e-05
5.84162868e-05
5.84262967e-05
5.84271002e-05
5.84210615e-05
5.84259227e-05
5.84351835e-05
5.84359221e-05
5.84303203e-05
5.8434833e-05
5.84433564e-05
5.84440655e-05
5.84388195e-05
5.84430665e-05
5.84508504e-05
5.84515701e-05
5.84466023e-05
5.84506575e-05
5.84577104e-05
5.84584668e-05
5.84537261e-05
5.84576277e-05
5.84639895e-05
5.84647823e-05
5.84602561e-05
5.84639972e-05
5.84697413e-05
5.84705455e-05
5.84662531e-05
5.84697923e-05
5.84750128e-05
5.84757895e-05
5.84717662e-05
5.84750513e-05
5.8479841e-05
5.84805528e-05
5.84768268e-05
5.84798213e-05
5.84842522e-05
5.84848759e-05
5.84814566e-05
5.84841478e-05
5.84882693e-05
5.84887957e-05
5.8485677e-05
5.84880721e-05
5.84919154e-05
5.84923476e-05
5.84895111e-05
5.8491632e-05
5.84952145e-05
5.8495564e-05
5.84929846e-05
5.84948607e-05
5.84981927e-05
5.84984729e-05
5.84961263e-05
5.84977878e-05
5.85008723e-05
5.85011228e-05
5.84989534e-05
5.8500464e-05
5.85033023e-05
5.85035047e-05
5.85014954e-05
5.85028595e-05
5.85054463e-05
5.8505652e-05
5.85037637e-05
5.8505044e-05
5.85073509e-05
5.85075841e-05
5.85057725e-05
5.85070267e-05
5.85090402e-05
5.85093188e-05
5.85075601e-05
5.85088097e-05
5.85105707e-05
5.85108765e-05
5.85091964e-05
5.85104644e-05
5.85121621e-05
5.85123645e-05
5.85109179e-05
5.85119211e-05
5.85141887e-05
5.85142108e-05
5.85129315e-05
5.85133598e-05
5.85158131e-05
5.85161161e-05
5.85155688e-05
5.85157507e-05
5.85163867e-05
5.85165956e-05
5.85169673e-05
5.85171412e-05
5.85175863e-05
5.85177462e-05
5.85181926e-05
5.85183393e-05
5.85187778e-05
5.85189113e-05
5.85193277e-05
5.85194462e-05
5.85198278e-05
5.8519929e-05
5.85202642e-05
5.8520346e-05
5.85206252e-05
5.85206865e-05
5.85209041e-05
5.85209452e-05
5.85211009e-05
5.85211237e-05
5.85212235e-05
5.85212314e-05
5.8521287e-05
5.85212846e-05
5.85213108e-05
5.8521304e-05
5.85213158e-05
5.85213106e-05
5.85213203e-05
5.85212659e-05
5.85212215e-05
5.85211816e-05
5.8521157e-05
5.85211405e-05
5.85211309e-05
5.85211254e-05
5.85211226e-05
5.85211212e-05
5.85211206e-05
5.85211204e-05
5.85211203e-05
5.85211203e-05
5.85211203e-05
5.85211203e-05
5.85211203e-05
5.85211203e-05
5.85211203e-05
5.85211203e-05
5.85211203e-05
5.85211203e-05
5.85211203e-05
5.85211203e-05
5.85211203e-05
5.85211203e-05
5.85211203e-05
5.85211203e-05
5.85211203e-05
5.85211203e-05
5.85211203e-05
5.85211203e-05
5.85211203e-05
5.85211203e-05
5.85211203e-05
5.85211203e-05
5.85211203e-05
5.85211203e-05
5.85211203e-05
5.85211203e-05
5.85211203e-05
5.85211203e-05
)
;

boundaryField
{
    closed
    {
        type            calculated;
        value           nonuniform List<scalar> 0();
    }
    open
    {
        type            calculated;
        value           uniform 5.85211203e-05;
    }
    sides
    {
        type            empty;
    }
    procBoundary5to4
    {
        type            processor;
        value           uniform 5.37084017e-05;
    }
}


// ************************************************************************* //
