/*--------------------------------*- C++ -*----------------------------------*\
| =========                 |                                                 |
| \\      /  F ield         | OpenFOAM: The Open Source CFD Toolbox           |
|  \\    /   O peration     | Version:  2306                                  |
|   \\  /    A nd           | Website:  www.openfoam.com                      |
|    \\/     M anipulation  |                                                 |
\*---------------------------------------------------------------------------*/
FoamFile
{
    version     2.0;
    format      ascii;
    arch        "LSB;label=32;scalar=64";
    class       volScalarField;
    location    "0.00126";
    object      prefDh_H2;
}
// * * * * * * * * * * * * * * * * * * * * * * * * * * * * * * * * * * * * * //

dimensions      [1 1 -3 0 0 0 0];

internalField   nonuniform List<scalar> 
530
(
2966.34156
2974.44433
3015.61253
3015.40036
2984.29863
2991.26299
3031.94998
3031.0864
3000.18524
3007.42438
3044.05094
3043.96134
3013.7523
3022.20428
3057.01062
3057.24418
3027.72332
3034.4956
3069.75659
3069.69729
3042.68034
3046.31848
3083.10491
3081.92683
3056.25851
3059.15145
3096.1414
3094.21856
3068.93745
3072.16161
3108.33513
3106.34461
3081.15612
3084.15738
3119.73751
3118.52963
3093.48522
3096.12608
3130.91393
3130.20497
3105.45058
3108.06911
3141.14578
3141.74898
3117.50857
3119.31706
3152.4617
3152.85397
3128.2067
3130.72369
3161.77326
3162.5216
3137.82408
3140.6113
3170.55146
3171.53395
3147.33874
3149.74855
3179.3906
3180.28638
3156.83683
3159.00493
3188.37858
3188.99995
3166.29941
3168.33742
3197.42585
3197.86463
3175.72591
3177.75895
3206.48588
3206.94769
3185.08198
3187.30201
3216.00272
3216.09766
3194.24568
3196.91627
3225.68026
3225.7334
3204.27352
3207.29081
3236.00707
3235.71338
3214.57005
3217.898
3246.09984
3245.77525
3224.87466
3228.34455
3256.19946
3255.86833
3235.56285
3238.7044
3266.34517
3265.98277
3246.14757
3249.21839
3276.56594
3276.4289
3256.66868
3259.77967
3286.38937
3286.935
3267.02887
3270.44752
3296.7749
3297.47465
3278.21915
3281.22371
3307.26728
3308.14849
3289.25892
3292.40525
3318.08214
3319.18634
3300.59999
3303.73341
3329.16285
3330.38637
3312.07982
3315.21748
3340.42276
3341.68009
3323.68535
3326.8641
3351.89957
3353.21781
3335.41857
3338.68693
3363.45893
3364.92867
3347.22446
3350.67487
3375.55774
3376.90365
3359.48623
3362.83624
3387.98537
3389.30347
3372.19161
3375.58299
3400.64922
3401.88361
3385.03121
3388.45937
3413.32555
3414.61019
3398.0156
3401.46169
3426.26237
3427.61141
3411.17273
3414.59705
3439.43866
3440.71833
3424.40644
3427.69574
3452.7602
3453.75218
3437.85502
3440.69899
3465.51817
3466.50683
3450.85259
3453.60489
3477.5392
3478.44966
3463.03035
3465.57301
3489.31801
3490.20256
3475.16824
3477.58898
3500.94869
3501.86969
3487.1322
3489.69576
3512.41702
3513.609
3498.79258
3501.85791
3523.54173
3525.29758
3510.1512
3513.89829
3534.45035
3536.70703
3521.41519
3525.666
3545.36928
3547.77126
3532.64778
3537.1677
3556.49649
3558.70664
3544.17627
3548.36042
3567.77819
3569.84347
3555.91762
3560.01257
3579.05549
3580.97218
3567.41723
3571.51752
3590.09289
3592.0458
3578.60435
3582.88884
3600.97276
3602.96303
3589.56291
3594.01723
3611.58845
3613.76133
3600.30437
3604.8995
3621.89521
3624.3225
3610.82229
3615.48459
3631.96038
3634.58404
3621.1149
3625.72986
3641.82135
3644.53597
3631.1753
3635.65886
3651.4896
3654.16209
3641.02391
3645.33636
3660.85082
3663.5163
3650.65372
3654.75436
3669.99078
3672.59064
3660.0324
3664.06165
3679.00793
3681.12004
3669.25974
3672.8917
3688.26786
3690.47139
3678.81274
3682.19537
3697.61887
3698.9925
3687.95556
3690.99334
3706.56024
3707.31382
3696.6191
3699.78356
3714.95566
3715.42614
3704.48091
3708.65963
3722.80563
3723.1511
3712.1235
3716.45314
3730.0034
3730.35803
3719.69964
3723.56117
3736.96222
3737.23003
3727.24823
3730.20028
3743.40219
3744.02262
3734.16816
3737.23026
3749.88207
3750.78231
3740.92016
3744.15235
3756.17056
3757.01325
3747.44545
3750.8558
3762.25683
3762.99052
3753.73011
3757.22352
3768.14555
3768.69264
3759.76759
3763.27261
3773.85314
3774.15547
3765.60995
3769.04565
3779.15182
3779.3652
3771.27351
3774.51413
3784.0884
3784.30716
3776.70881
3779.99743
3788.92695
3789.04067
3781.83369
3784.87029
3793.18889
3793.54874
3786.51871
3789.82908
3797.32655
3797.8299
3790.90506
3794.45259
3801.28305
3801.87699
3795.30117
3798.70345
3805.07861
3805.68
3799.51459
3802.74207
3808.67814
3809.27145
3803.45581
3806.58015
3812.05863
3812.64553
3807.14175
3810.14654
3815.2543
3815.79148
3810.71824
3813.41243
3818.30014
3818.72984
3814.16924
3816.42608
3821.176
3821.48269
3817.41371
3819.29776
3823.84157
3824.07804
3820.35337
3822.06383
3826.29944
3826.49839
3823.02996
3824.61435
3828.55311
3828.74204
3825.49924
3826.99468
3830.65674
3830.84025
3827.81869
3829.21255
3832.61465
3832.78504
3829.97913
3831.26622
3834.42845
3834.58332
3831.98057
3833.16705
3836.10211
3836.24444
3833.82546
3834.92696
3837.64072
3837.77726
3835.51892
3836.55566
3839.05092
3839.18929
3837.06938
3838.05941
3840.34121
3840.48638
3838.48885
3839.44146
3841.52171
3841.67361
3839.79126
3840.70469
3842.60253
3842.75647
3840.98964
3841.85361
3843.59265
3843.74119
3842.09413
3842.89573
3844.49904
3844.63515
3843.11076
3843.84075
3845.32671
3845.44597
3844.04311
3844.69816
3846.08001
3846.1807
3844.89476
3845.47651
3846.76331
3846.84599
3845.66985
3846.1835
3847.38116
3847.44805
3846.37324
3846.82587
3847.93852
3847.99213
3847.0106
3847.40952
3848.43961
3848.48747
3847.58481
3847.94554
3848.89375
3848.93232
3848.10188
3848.42567
3849.29398
3849.33302
3848.56346
3848.8657
3849.64918
3849.69327
3848.97191
3849.26691
3849.96387
3850.01643
3849.33579
3849.62886
3850.24873
3850.30628
3849.67157
3849.9684
3850.54535
3850.58309
3850.03741
3850.26867
3850.92468
3850.92783
3850.48485
3850.57443
3851.17215
3851.23029
3851.08318
3851.1105
3851.25575
3851.2881
3851.36826
3851.39114
3851.4895
3851.50863
3851.60753
3851.62365
3851.72104
3851.73476
3851.82739
3851.83891
3851.92398
3851.9333
3852.00826
3852.01536
3852.07813
3852.08308
3852.13242
3852.13542
3852.17128
3852.17263
3852.19634
3852.19642
3852.21045
3852.20978
3852.21727
3852.21657
3852.22069
3852.22068
3852.22402
3852.21369
3852.20514
3852.19745
3852.19273
3852.18957
3852.18773
3852.18669
3852.18616
3852.1859
3852.18578
3852.18574
3852.18572
3852.18571
3852.18571
3852.18571
3852.18571
3852.18571
3852.18571
3852.18571
3852.18571
3852.18571
3852.18571
3852.18571
3852.18571
3852.18571
3852.18571
3852.18571
3852.18571
3852.18571
3852.18571
3852.18571
3852.18571
3852.18571
3852.18571
3852.18571
3852.18571
3852.18571
3852.18571
3852.18571
3852.18571
3852.18571
)
;

boundaryField
{
    closed
    {
        type            calculated;
        value           nonuniform List<scalar> 0();
    }
    open
    {
        type            calculated;
        value           uniform 3852.18571;
    }
    sides
    {
        type            empty;
    }
    procBoundary5to4
    {
        type            processor;
        value           uniform 2997.9065;
    }
}


// ************************************************************************* //
