/*--------------------------------*- C++ -*----------------------------------*\
| =========                 |                                                 |
| \\      /  F ield         | OpenFOAM: The Open Source CFD Toolbox           |
|  \\    /   O peration     | Version:  2306                                  |
|   \\  /    A nd           | Website:  www.openfoam.com                      |
|    \\/     M anipulation  |                                                 |
\*---------------------------------------------------------------------------*/
FoamFile
{
    version     2.0;
    format      ascii;
    arch        "LSB;label=32;scalar=64";
    class       volScalarField;
    location    "0.00126";
    object      prefDZ_T;
}
// * * * * * * * * * * * * * * * * * * * * * * * * * * * * * * * * * * * * * //

dimensions      [1 -1 -1 -1 0 0 0];

internalField   nonuniform List<scalar> 
530
(
-9.32556138e-11
-9.47903964e-11
-8.76684818e-11
-8.76296176e-11
-9.33123578e-11
-9.37376575e-11
-8.76851827e-11
-8.76460241e-11
-9.33840687e-11
-9.27278744e-11
-8.7674037e-11
-8.76437219e-11
-9.34931291e-11
-9.20368091e-11
-8.76637839e-11
-8.76424475e-11
-9.33009236e-11
-9.1742413e-11
-8.76474722e-11
-8.76324786e-11
-9.28632644e-11
-9.15376196e-11
-8.76329277e-11
-8.76146753e-11
-9.25463627e-11
-9.12556916e-11
-8.76164814e-11
-8.75936006e-11
-9.23061694e-11
-9.09915477e-11
-8.75923899e-11
-8.75687182e-11
-9.21046628e-11
-9.08451752e-11
-8.75598203e-11
-8.75428574e-11
-9.18363865e-11
-9.07040692e-11
-8.75404922e-11
-8.75113852e-11
-9.15970818e-11
-9.05491975e-11
-8.75183145e-11
-8.74769617e-11
-9.13346268e-11
-9.04821708e-11
-8.74477156e-11
-8.74392118e-11
-9.11425131e-11
-9.03672091e-11
-8.73964944e-11
-8.7394623e-11
-9.09942269e-11
-9.03041636e-11
-8.73443961e-11
-8.73458414e-11
-9.08567738e-11
-9.0265009e-11
-8.72940119e-11
-8.72959612e-11
-9.07237377e-11
-9.02060799e-11
-8.72458177e-11
-8.72464871e-11
-9.0597963e-11
-9.01321223e-11
-8.71994998e-11
-8.71988808e-11
-9.0476807e-11
-9.00444212e-11
-8.71538067e-11
-8.71527099e-11
-9.03652018e-11
-8.99426422e-11
-8.71115297e-11
-8.71084698e-11
-9.02862126e-11
-8.98412538e-11
-8.70713934e-11
-8.7067098e-11
-9.0204323e-11
-8.96992038e-11
-8.70370292e-11
-8.70296519e-11
-9.00980557e-11
-8.95798707e-11
-8.70020527e-11
-8.69940566e-11
-8.99965155e-11
-8.9487437e-11
-8.696854e-11
-8.6960855e-11
-8.98643367e-11
-8.94088796e-11
-8.69365115e-11
-8.69292451e-11
-8.97685731e-11
-8.9318207e-11
-8.69053576e-11
-8.68999104e-11
-8.96957178e-11
-8.92360891e-11
-8.68734321e-11
-8.6871965e-11
-8.96498636e-11
-8.91586181e-11
-8.68464775e-11
-8.68463869e-11
-8.9545146e-11
-8.90991232e-11
-8.68217009e-11
-8.68226218e-11
-8.94813671e-11
-8.90231394e-11
-8.68005124e-11
-8.68031492e-11
-8.94069922e-11
-8.89510937e-11
-8.67827939e-11
-8.67863032e-11
-8.93306109e-11
-8.88794994e-11
-8.67676597e-11
-8.67714664e-11
-8.92607854e-11
-8.88102718e-11
-8.67545908e-11
-8.67590416e-11
-8.91964094e-11
-8.87431945e-11
-8.67439838e-11
-8.67494269e-11
-8.91437724e-11
-8.86766282e-11
-8.67374745e-11
-8.67429227e-11
-8.90896318e-11
-8.86173025e-11
-8.6734783e-11
-8.67402578e-11
-8.90268611e-11
-8.8548569e-11
-8.67354416e-11
-8.67406611e-11
-8.89641592e-11
-8.84948841e-11
-8.6738616e-11
-8.67440125e-11
-8.89006186e-11
-8.84421193e-11
-8.67442382e-11
-8.6749989e-11
-8.88320289e-11
-8.83897714e-11
-8.67533261e-11
-8.67585656e-11
-8.87645227e-11
-8.83510215e-11
-8.67653199e-11
-8.67691027e-11
-8.8681963e-11
-8.83267681e-11
-8.67775644e-11
-8.67809532e-11
-8.86169043e-11
-8.83018911e-11
-8.67886083e-11
-8.67917304e-11
-8.85868518e-11
-8.83019979e-11
-8.68011166e-11
-8.68040354e-11
-8.85602477e-11
-8.82960567e-11
-8.68153209e-11
-8.68183938e-11
-8.85468283e-11
-8.82773982e-11
-8.68300372e-11
-8.68347583e-11
-8.85536673e-11
-8.82485346e-11
-8.68453577e-11
-8.68533807e-11
-8.85768465e-11
-8.82216363e-11
-8.68620313e-11
-8.68731777e-11
-8.85931995e-11
-8.82073455e-11
-8.68816177e-11
-8.68936118e-11
-8.85985187e-11
-8.82024973e-11
-8.69043975e-11
-8.69157984e-11
-8.85898086e-11
-8.8209841e-11
-8.6930019e-11
-8.69410961e-11
-8.85704113e-11
-8.81998444e-11
-8.69581063e-11
-8.69685618e-11
-8.85526177e-11
-8.8187772e-11
-8.69872666e-11
-8.69980235e-11
-8.85432683e-11
-8.81699731e-11
-8.70171703e-11
-8.70282371e-11
-8.85352103e-11
-8.81535838e-11
-8.70473785e-11
-8.70600061e-11
-8.85297609e-11
-8.81393293e-11
-8.70780478e-11
-8.70925291e-11
-8.85249857e-11
-8.81316283e-11
-8.71093202e-11
-8.71252524e-11
-8.85228133e-11
-8.81337831e-11
-8.71413493e-11
-8.71580709e-11
-8.85213737e-11
-8.81422532e-11
-8.71741043e-11
-8.71908051e-11
-8.85181887e-11
-8.81533528e-11
-8.72066434e-11
-8.7222536e-11
-8.85106584e-11
-8.81633733e-11
-8.72386856e-11
-8.72541788e-11
-8.84984582e-11
-8.81592583e-11
-8.72722123e-11
-8.7284714e-11
-8.84762117e-11
-8.81692832e-11
-8.73088995e-11
-8.7321973e-11
-8.8406091e-11
-8.81498541e-11
-8.73482823e-11
-8.7355467e-11
-8.83431665e-11
-8.81628724e-11
-8.73862762e-11
-8.7388701e-11
-8.82964031e-11
-8.81650357e-11
-8.74224119e-11
-8.74220343e-11
-8.83018194e-11
-8.8155807e-11
-8.74564115e-11
-8.74546995e-11
-8.83235301e-11
-8.81717334e-11
-8.74872621e-11
-8.74858307e-11
-8.83378437e-11
-8.82011514e-11
-8.75175995e-11
-8.75164228e-11
-8.83435789e-11
-8.82360035e-11
-8.75461672e-11
-8.75475212e-11
-8.83588748e-11
-8.82476265e-11
-8.75765287e-11
-8.75794633e-11
-8.8368371e-11
-8.82521193e-11
-8.76070645e-11
-8.76094743e-11
-8.83742571e-11
-8.82544299e-11
-8.76375364e-11
-8.76389225e-11
-8.83780633e-11
-8.8258988e-11
-8.76677826e-11
-8.76678109e-11
-8.83809328e-11
-8.82644089e-11
-8.76977771e-11
-8.76962825e-11
-8.83834605e-11
-8.82695318e-11
-8.77261051e-11
-8.77241386e-11
-8.83809164e-11
-8.82747802e-11
-8.77530351e-11
-8.77512659e-11
-8.83766275e-11
-8.82703939e-11
-8.77801343e-11
-8.77778949e-11
-8.83739771e-11
-8.82760002e-11
-8.78044176e-11
-8.78037676e-11
-8.83774154e-11
-8.82705905e-11
-8.78287893e-11
-8.78288659e-11
-8.83819087e-11
-8.82676677e-11
-8.78526134e-11
-8.78533817e-11
-8.83781717e-11
-8.82685104e-11
-8.78759245e-11
-8.78769714e-11
-8.8372337e-11
-8.82683869e-11
-8.78986062e-11
-8.7899746e-11
-8.83678373e-11
-8.82672355e-11
-8.79204451e-11
-8.79216257e-11
-8.83642053e-11
-8.82675799e-11
-8.79415479e-11
-8.79425942e-11
-8.83571471e-11
-8.82706573e-11
-8.79619667e-11
-8.79625324e-11
-8.83472117e-11
-8.82750476e-11
-8.79816196e-11
-8.79816487e-11
-8.83374698e-11
-8.82775401e-11
-8.80003137e-11
-8.80000133e-11
-8.83313871e-11
-8.82772148e-11
-8.80180188e-11
-8.80175675e-11
-8.83279005e-11
-8.82777315e-11
-8.80346715e-11
-8.80342756e-11
-8.8325314e-11
-8.82779848e-11
-8.80505895e-11
-8.80502772e-11
-8.8322098e-11
-8.82780172e-11
-8.8065768e-11
-8.80654879e-11
-8.8318799e-11
-8.82781474e-11
-8.80801756e-11
-8.80799137e-11
-8.83156946e-11
-8.82782734e-11
-8.80938054e-11
-8.80935769e-11
-8.83129755e-11
-8.82782717e-11
-8.81066636e-11
-8.81064986e-11
-8.83107377e-11
-8.82780889e-11
-8.81187695e-11
-8.81186975e-11
-8.83089589e-11
-8.82777792e-11
-8.81301524e-11
-8.81301914e-11
-8.83074962e-11
-8.82774847e-11
-8.81408483e-11
-8.81409962e-11
-8.83061363e-11
-8.82773608e-11
-8.81508976e-11
-8.81511285e-11
-8.83046811e-11
-8.82774986e-11
-8.81603377e-11
-8.81606113e-11
-8.83030267e-11
-8.8277883e-11
-8.81691979e-11
-8.81694714e-11
-8.83011938e-11
-8.82784209e-11
-8.81775002e-11
-8.81777401e-11
-8.82992754e-11
-8.82790118e-11
-8.81852603e-11
-8.81854526e-11
-8.82973626e-11
-8.82795758e-11
-8.8192494e-11
-8.8192641e-11
-8.82955152e-11
-8.82800555e-11
-8.81992221e-11
-8.81993354e-11
-8.8293758e-11
-8.82804132e-11
-8.82054693e-11
-8.82055654e-11
-8.82920818e-11
-8.82806275e-11
-8.8211259e-11
-8.82113782e-11
-8.82905592e-11
-8.82805067e-11
-8.82166324e-11
-8.82167715e-11
-8.82891593e-11
-8.82804427e-11
-8.82215642e-11
-8.82217724e-11
-8.8287977e-11
-8.82800972e-11
-8.82260986e-11
-8.82264021e-11
-8.82870786e-11
-8.82795483e-11
-8.82302697e-11
-8.82306837e-11
-8.82862931e-11
-8.82789347e-11
-8.8234154e-11
-8.82346628e-11
-8.82851361e-11
-8.82777773e-11
-8.82380121e-11
-8.82384966e-11
-8.82816655e-11
-8.82765112e-11
-8.82422699e-11
-8.82427273e-11
-8.82739062e-11
-8.82733922e-11
-8.8254774e-11
-8.82553089e-11
-8.82620532e-11
-8.82637707e-11
-8.82608491e-11
-8.82626551e-11
-8.82618726e-11
-8.82641319e-11
-8.82627672e-11
-8.82652136e-11
-8.82638295e-11
-8.82663652e-11
-8.82649974e-11
-8.82675178e-11
-8.82662321e-11
-8.82686396e-11
-8.8267481e-11
-8.82696871e-11
-8.82686874e-11
-8.82706166e-11
-8.82697945e-11
-8.82713885e-11
-8.82707463e-11
-8.8271972e-11
-8.82714927e-11
-8.827235e-11
-8.82720003e-11
-8.82725235e-11
-8.82722631e-11
-8.82725135e-11
-8.82723059e-11
-8.82723588e-11
-8.82721778e-11
-8.82721124e-11
-8.82719408e-11
-8.82719455e-11
-8.82719523e-11
-8.82719563e-11
-8.82719532e-11
-8.82719495e-11
-8.82719453e-11
-8.82719421e-11
-8.82719399e-11
-8.82719385e-11
-8.82719378e-11
-8.82719374e-11
-8.82719372e-11
-8.82719371e-11
-8.82719371e-11
-8.82719371e-11
-8.82719371e-11
-8.82719371e-11
-8.82719371e-11
-8.82719371e-11
-8.82719371e-11
-8.82719371e-11
-8.82719371e-11
-8.82719371e-11
-8.82719371e-11
-8.82719371e-11
-8.82719371e-11
-8.82719371e-11
-8.82719371e-11
-8.82719371e-11
-8.82719371e-11
-8.82719371e-11
-8.82719371e-11
-8.82719371e-11
-8.82719371e-11
-8.82719371e-11
-8.82719371e-11
-8.82719371e-11
-8.82719371e-11
-8.82719371e-11
-8.82719371e-11
-8.82719371e-11
)
;

boundaryField
{
    closed
    {
        type            calculated;
        value           nonuniform List<scalar> 0();
    }
    open
    {
        type            calculated;
        value           uniform -8.82719371e-11;
    }
    sides
    {
        type            empty;
    }
    procBoundary5to4
    {
        type            processor;
        value           uniform -8.7601617e-11;
    }
}


// ************************************************************************* //
