/*--------------------------------*- C++ -*----------------------------------*\
| =========                 |                                                 |
| \\      /  F ield         | OpenFOAM: The Open Source CFD Toolbox           |
|  \\    /   O peration     | Version:  2306                                  |
|   \\  /    A nd           | Website:  www.openfoam.com                      |
|    \\/     M anipulation  |                                                 |
\*---------------------------------------------------------------------------*/
FoamFile
{
    version     2.0;
    format      ascii;
    arch        "LSB;label=32;scalar=64";
    class       volScalarField;
    location    "0.00182";
    object      prefDZ_H;
}
// * * * * * * * * * * * * * * * * * * * * * * * * * * * * * * * * * * * * * //

dimensions      [1 -1 -1 0 0 0 0];

internalField   nonuniform List<scalar> 
530
(
0.000116624491
0.000109270369
0.000107882512
0.000107843756
0.000107840293
0.000107840111
0.000107840096
0.000107840095
0.000107840095
0.000107840095
0.000107840095
0.000107840095
0.000107840095
0.000107840095
0.000107840095
0.000107840095
0.000107840095
0.000107840095
0.000107840095
0.000107840095
0.000107840095
0.000107840095
0.000107840095
0.000107840095
0.000107840095
0.000107840095
0.000107840095
0.000107840095
0.000107840095
0.000107840095
0.000107840095
0.000107840095
0.000107840095
0.000107840095
0.000107840095
0.000107840095
0.000107840095
0.000107840095
0.000107840095
0.000107840095
0.000107840095
0.000107840095
0.000107840095
0.000107840095
0.000107840095
0.000107840095
0.000107840095
0.000107840095
0.000107840095
0.000107840095
0.000107840095
0.000107840095
0.000107840095
0.000107840095
0.000107840095
0.000107840095
0.000107840095
0.000107840095
0.000107840095
0.000107840095
0.000107840096
0.000107840096
0.000107840097
0.0001078401
0.000107840104
0.000107840116
0.000107840131
0.000107840184
0.000107840246
0.000107840419
0.00010784056
0.000107840996
0.00010784154
0.000107842169
0.000107843038
0.000107844551
0.000107845881
0.000107848292
0.000107850103
0.000107852352
0.000107854222
0.000107859758
0.000107884091
0.000107916756
0.000107897848
0.000107772817
0.000107777892
0.000107977647
0.000110154544
0.000109800409
0.000107471788
0.000106918983
0.000107150388
0.00010690886
0.000107421486
0.000109686365
0.000110262946
0.000110078991
0.000110263189
0.000110265613
0.000108379197
0.000107179544
0.000106661237
0.000106687157
0.000106616446
0.000106706648
0.000106379054
0.000107264132
0.000109758442
0.000110267404
0.00011004872
0.000110178299
0.000110278437
0.000110284153
0.000107689086
0.000106273963
0.000106487843
0.000106579143
0.000106227728
0.000106636615
0.00010973553
0.000110282888
0.000109999902
0.000110291037
0.000110103439
0.000110349267
0.000109298877
0.000107517616
0.000106578037
0.00010673843
0.000106813267
0.000106411274
0.000106570634
0.000109866309
0.000110354009
0.000108656973
0.000107277518
0.000106132522
0.00010773205
0.000110010404
0.000110173096
0.000110185468
0.000109873083
0.00010763619
0.000106166011
0.000106221286
0.000108191769
0.000110150325
0.000108767569
0.000106743173
0.00010643461
0.00010901511
0.000110318459
0.000107868397
0.000107784898
0.000108642376
0.000110243383
0.000108485006
0.000106737161
0.000106524749
0.00010886338
0.000110209453
0.000108428556
0.000106612228
0.000106489191
0.000108787169
0.000110049208
0.00011013529
0.000109291341
0.000107131591
0.000106554466
0.000108502053
0.000110205652
0.000108613177
0.000106896195
0.000106706161
0.000108584571
0.000110277444
0.000108639231
0.000107276015
0.00010672405
0.000106883218
0.000106391307
0.000106431717
0.000108797625
0.000110365495
0.000107758104
0.000107280746
0.000108094597
0.000110388073
0.000110429331
0.000107771141
0.000107401775
0.000108448566
0.000110369892
0.000110286169
0.000107957777
0.000106714442
0.000106384738
0.00010639199
0.000108440801
0.000110292439
0.000107886498
0.000106999488
0.000109781426
0.000110318303
0.000108077338
0.000107141759
0.000109932771
0.000110334853
0.000107955897
0.000107113108
0.000110027294
0.000110337222
0.000107924032
0.000107014979
0.000109853647
0.000110271696
0.000107847286
0.000106164732
0.000106247796
0.0001086472
0.000110298289
0.000107930576
0.000106879037
0.000110088647
0.000110249394
0.000107836486
0.000106177395
0.000106297752
0.00010846668
0.000110256116
0.000107944136
0.000106907606
0.000110247225
0.000110121573
0.00010736699
0.000107090621
0.000110202352
0.000109957097
0.000107348103
0.000107265257
0.000110203338
0.00010977885
0.000107360769
0.000107506161
0.000110236973
0.000109613017
0.000107371863
0.000107688055
0.000110346572
0.00010994447
0.000107871067
0.000106354338
0.000106851226
0.000108645844
0.000109681055
0.000107917287
0.000107686791
0.000110338773
0.000109249108
0.000107477892
0.000107686431
0.00011037836
0.000109754803
0.000107800253
0.000106240963
0.000107355841
0.000109527995
0.000109343779
0.000107790233
0.000107700484
0.000110451734
0.000109702363
0.00010760303
0.000106066518
0.000107639623
0.000109912913
0.000109213732
0.000107650295
0.000107711474
0.000110331227
0.000108979931
0.000107516456
0.000107750585
0.000110421092
0.000109651387
0.000107336359
0.000105987327
0.000107635006
0.00011027224
0.000108885714
0.0001076543
0.000107763201
0.000110431498
0.000109753009
0.000107729424
0.000106835965
0.000106841335
0.000106234831
0.000107641154
0.000110143895
0.000108885259
0.000107730426
0.000107800714
0.000110403051
0.000109709132
0.00010744394
0.000106365859
0.000107745326
0.000110367475
0.000109762797
0.000107763258
0.000106365587
0.00010774594
0.000110367684
0.000109799587
0.000107830318
0.000106395585
0.000107732824
0.000110382459
0.000109933239
0.000107801202
0.000106772102
0.000107804317
0.000109014181
0.000110184564
0.000108329527
0.000106621809
0.000107781877
0.000110226487
0.000110030223
0.000107825979
0.00010608462
0.00010622087
0.000107740731
0.000110263819
0.000108749363
0.000107903365
0.000107864621
0.000110402956
0.000109827069
0.000107290294
0.000106387034
0.000107788126
0.000110371225
0.000109918006
0.000107785606
0.000106333651
0.000107753594
0.000110359576
0.000109948357
0.000107656691
0.000106204933
0.000107740973
0.000110384494
0.000110002658
0.000107809586
0.000106339801
0.000107740656
0.000110343992
0.000110046656
0.000107815273
0.000106226412
0.000106430575
0.000107735079
0.000110322237
0.000108890518
0.000107531016
0.000107858569
0.000110396381
0.000109936553
0.000106881077
0.000106214388
0.000107772283
0.000110283508
0.000108974203
0.000107651509
0.000107864737
0.000110410761
0.000109955089
0.000106805327
0.00010625199
0.000107776711
0.00011026671
0.000108869811
0.000107394567
0.000107835158
0.00011042458
0.000109993837
0.000106776785
0.000106251872
0.00010778408
0.000110275516
0.000108960979
0.000107397953
0.000107832865
0.00011042966
0.000110043042
0.000106757939
0.000106446632
0.000107825858
0.000110325156
0.000110081521
0.000107176467
0.000106663094
0.000107828991
0.000110322444
0.000110085666
0.000106885887
0.000106238089
0.000107795892
0.00011030495
0.000110086442
0.000106417831
0.00010583805
0.000107774127
0.000110238643
0.000109220542
0.000106771993
0.000107869622
0.000110380542
0.000109204866
0.000106917165
0.000107928231
0.000110394955
0.00010954117
0.000107243629
0.000107936292
0.000110396429
0.000110166926
0.000106712668
0.000106126874
0.000107851313
0.000110315474
0.0001102363
0.000107431407
0.000108039721
0.000110467803
0.000110270565
0.000107575893
0.000107920881
0.000110422871
0.000110360411
0.000107483702
0.0001069659
0.000107191144
0.000107808456
0.000110362337
0.000110397215
0.00010764633
0.000106651887
0.000107055351
0.000106489918
0.000107830486
0.000110246581
0.000110454369
0.000107583976
0.000107760798
0.000110119127
0.000110399321
0.000107655126
0.000106176649
0.000107469882
0.000109975161
0.000110425325
0.00010770647
0.000107699676
0.000109562575
0.000110372646
0.000107674525
0.000107712322
0.000109392309
0.000110387428
0.000107673193
0.000107900747
0.00010928045
0.000110331144
0.000107678606
0.000106378296
0.000106763905
0.000109480439
0.000110344406
0.000107765712
0.000106441746
0.000106487726
0.000109264894
0.000110313006
0.000107847869
0.000106555733
0.000106482667
0.000108899246
0.000110258444
0.000107945049
0.000106666068
0.000106406496
0.000108470398
0.000110251486
0.000107927174
0.000107826615
0.000108219694
0.000110096926
0.000108062741
0.000106859958
0.000106391751
0.000108150697
0.000110155202
0.000108078325
0.000107822681
0.000108053896
0.000110038652
0.000108261854
0.000107079122
0.00010653461
0.000108020996
0.000110057484
0.000108462064
0.000107295244
0.000106588572
0.000107891802
0.000109935933
0.000110307971
0.000108673271
0.000107757829
0.000107007586
0.000106622202
0.000106420916
0.000107730606
0.000109823162
0.000110339741
)
;

boundaryField
{
    closed
    {
        type            calculated;
        value           uniform 0.000144220391;
    }
    open
    {
        type            calculated;
        value           nonuniform List<scalar> 0();
    }
    sides
    {
        type            empty;
    }
    procBoundary0to1
    {
        type            processor;
        value           uniform 0.000108927316;
    }
}


// ************************************************************************* //
