/*--------------------------------*- C++ -*----------------------------------*\
| =========                 |                                                 |
| \\      /  F ield         | OpenFOAM: The Open Source CFD Toolbox           |
|  \\    /   O peration     | Version:  2306                                  |
|   \\  /    A nd           | Website:  www.openfoam.com                      |
|    \\/     M anipulation  |                                                 |
\*---------------------------------------------------------------------------*/
FoamFile
{
    version     2.0;
    format      ascii;
    arch        "LSB;label=32;scalar=64";
    class       surfaceScalarField;
    location    "0.0002";
    object      phi;
}
// * * * * * * * * * * * * * * * * * * * * * * * * * * * * * * * * * * * * * //

dimensions      [1 0 -1 0 0 0 0];

oriented        oriented;

internalField   nonuniform List<scalar> 
530
(
-2.98284212e-06
-2.98353306e-06
-2.98422802e-06
-2.98496363e-06
-2.98577345e-06
-2.9866419e-06
-2.98754661e-06
-2.9884709e-06
-2.98944754e-06
-2.99048718e-06
-2.9915683e-06
-2.99268121e-06
-2.99383551e-06
-2.99503775e-06
-2.99628375e-06
-2.99756948e-06
-2.99889222e-06
-3.00025512e-06
-3.00165783e-06
-3.00310066e-06
-3.00458182e-06
-3.00609802e-06
-3.00764893e-06
-3.00923675e-06
-3.01086426e-06
-3.01252375e-06
-3.01421048e-06
-3.01593226e-06
-3.01769337e-06
-3.01948316e-06
-3.02129464e-06
-3.02313735e-06
-3.02501734e-06
-3.02692393e-06
-3.0288491e-06
-3.03079983e-06
-3.0327818e-06
-3.03478934e-06
-3.0368172e-06
-3.03886311e-06
-3.04093096e-06
-3.04302065e-06
-3.04513306e-06
-3.04726412e-06
-3.04940621e-06
-3.05156121e-06
-3.05373836e-06
-3.05593529e-06
-3.05814218e-06
-3.06034735e-06
-3.06256835e-06
-3.06481296e-06
-3.06706328e-06
-3.06930952e-06
-3.07156374e-06
-3.07383268e-06
-3.07610653e-06
-3.07837781e-06
-3.0806498e-06
-3.08292528e-06
-3.0852052e-06
-3.08748359e-06
-3.08975705e-06
-3.09202439e-06
-3.0942893e-06
-3.09655453e-06
-3.09881313e-06
-3.10105818e-06
-3.10329264e-06
-3.10552088e-06
-3.10774623e-06
-3.10995698e-06
-3.11214607e-06
-3.11432156e-06
-3.11648946e-06
-3.11864371e-06
-3.12077782e-06
-3.12288632e-06
-3.12497863e-06
-3.12705769e-06
-3.12911391e-06
-3.13114239e-06
-3.13314879e-06
-3.13513654e-06
-3.13709793e-06
-3.13902603e-06
-3.14092845e-06
-3.14281272e-06
-3.14466768e-06
-3.14648107e-06
-3.14826142e-06
-3.15002208e-06
-3.15175613e-06
-3.15345158e-06
-3.15509596e-06
-3.15671056e-06
-3.15830686e-06
-3.1598659e-06
-3.16137292e-06
-3.16283773e-06
-3.16427496e-06
-3.16567949e-06
-3.16704031e-06
-3.16834524e-06
-3.16961312e-06
-3.17085181e-06
-3.1720459e-06
-3.17318646e-06
-3.17428285e-06
-3.17534199e-06
-3.17635782e-06
-3.17732368e-06
-3.17824147e-06
-3.17911389e-06
-3.17994287e-06
-3.18072393e-06
-3.18145636e-06
-3.18214016e-06
-3.18277495e-06
-3.18336136e-06
-3.18390067e-06
-3.18439131e-06
-3.18483166e-06
-3.18521975e-06
-3.18555871e-06
-3.18585059e-06
-3.18609263e-06
-3.18628233e-06
-3.18642095e-06
-3.18651058e-06
-3.18655088e-06
-3.18654021e-06
-3.18647847e-06
-3.18636728e-06
-3.18620678e-06
-3.18599505e-06
-3.18573234e-06
-3.1854206e-06
-3.18506307e-06
-3.18465579e-06
-3.18419471e-06
-3.18368341e-06
-3.18312693e-06
-3.18253028e-06
-3.18188295e-06
-3.18117679e-06
-3.1804243e-06
-3.17963803e-06
-3.1788094e-06
-3.17792324e-06
-3.17698493e-06
-3.17600671e-06
-3.17500347e-06
-3.17395139e-06
-3.17283821e-06
-3.17168496e-06
-3.17050622e-06
-3.16928863e-06
-3.16801909e-06
-3.16670605e-06
-3.16536303e-06
-3.16398785e-06
-3.16257325e-06
-3.16111308e-06
-3.1596211e-06
-3.15810233e-06
-3.15654875e-06
-3.15495754e-06
-3.15333543e-06
-3.15168707e-06
-3.1500097e-06
-3.14830055e-06
-3.1465627e-06
-3.1448002e-06
-3.14301664e-06
-3.14120762e-06
-3.13937064e-06
-3.13751128e-06
-3.13563598e-06
-3.13374356e-06
-3.13183039e-06
-3.12989119e-06
-3.12793872e-06
-3.12598258e-06
-3.12401123e-06
-3.12201454e-06
-3.12000603e-06
-3.11800101e-06
-3.11599041e-06
-3.11395962e-06
-3.11191699e-06
-3.10988032e-06
-3.10784756e-06
-3.10580799e-06
-3.10375284e-06
-3.1017037e-06
-3.09966824e-06
-3.09763263e-06
-3.09559365e-06
-3.09356167e-06
-3.0915404e-06
-3.08952707e-06
-3.08752321e-06
-3.08553124e-06
-3.08355096e-06
-3.0815808e-06
-3.07962774e-06
-3.07769718e-06
-3.07578243e-06
-3.07387976e-06
-3.07199906e-06
-3.07014722e-06
-3.0683181e-06
-3.06650755e-06
-3.06472242e-06
-3.06296904e-06
-3.06124532e-06
-3.05954809e-06
-3.05788026e-06
-3.05624562e-06
-3.05464791e-06
-3.05308512e-06
-3.05155679e-06
-3.05006191e-06
-3.04860595e-06
-3.04719621e-06
-3.04582948e-06
-3.04449702e-06
-3.04320256e-06
-3.04195649e-06
-3.04077138e-06
-3.03962799e-06
-3.03851456e-06
-3.0374516e-06
-3.03645548e-06
-3.03551355e-06
-3.0346096e-06
-3.03375127e-06
-3.03295205e-06
-3.03222578e-06
-3.03155008e-06
-3.03091418e-06
-3.03033758e-06
-3.02983351e-06
-3.02938997e-06
-3.02899547e-06
-3.02865914e-06
-3.02839355e-06
-3.02819404e-06
-3.02805009e-06
-3.02796589e-06
-3.02795298e-06
-3.02801018e-06
-3.02812731e-06
-3.02830545e-06
-3.02855272e-06
-3.02887773e-06
-3.02926755e-06
-3.0297164e-06
-3.03023567e-06
-3.03083259e-06
-3.03149932e-06
-3.0322286e-06
-3.03302635e-06
-3.03390157e-06
-3.03485165e-06
-3.03586895e-06
-3.03694698e-06
-3.03810121e-06
-3.03933976e-06
-3.0406467e-06
-3.04201248e-06
-3.04345123e-06
-3.04497359e-06
-3.04656887e-06
-3.04822653e-06
-3.04995309e-06
-3.05175765e-06
-3.05363683e-06
-3.05558356e-06
-3.05759865e-06
-3.0596862e-06
-3.06184576e-06
-3.06407406e-06
-3.06637176e-06
-3.06874151e-06
-3.0711798e-06
-3.07368221e-06
-3.07625337e-06
-3.07889791e-06
-3.08160954e-06
-3.08438201e-06
-3.08721892e-06
-3.09012398e-06
-3.09309842e-06
-3.09613565e-06
-3.09923284e-06
-3.10238926e-06
-3.10560813e-06
-3.10889425e-06
-3.11224283e-06
-3.11564627e-06
-3.1190973e-06
-3.1226106e-06
-3.12619462e-06
-3.1298313e-06
-3.13350796e-06
-3.13723747e-06
-3.141032e-06
-3.14488239e-06
-3.14877683e-06
-3.15270699e-06
-3.15669089e-06
-3.16073518e-06
-3.16482234e-06
-3.16894319e-06
-3.17310706e-06
-3.17732e-06
-3.18157554e-06
-3.18586787e-06
-3.19019404e-06
-3.19455833e-06
-3.19895892e-06
-3.2033941e-06
-3.2078648e-06
-3.21236516e-06
-3.21688877e-06
-3.22144203e-06
-3.22603053e-06
-3.23064385e-06
-3.23527231e-06
-3.23992245e-06
-3.24460105e-06
-3.24930052e-06
-3.25401206e-06
-3.25873795e-06
-3.26348198e-06
-3.26824067e-06
-3.27300927e-06
-3.27778688e-06
-3.28257326e-06
-3.2873662e-06
-3.29216408e-06
-3.29696728e-06
-3.30177249e-06
-3.3065749e-06
-3.3113753e-06
-3.31617617e-06
-3.32097392e-06
-3.32576367e-06
-3.33054095e-06
-3.33531017e-06
-3.34007272e-06
-3.34482277e-06
-3.34955598e-06
-3.35426908e-06
-3.35896638e-06
-3.36364972e-06
-3.3683112e-06
-3.37294479e-06
-3.37755415e-06
-3.38214292e-06
-3.38670524e-06
-3.3912336e-06
-3.39572988e-06
-3.40019937e-06
-3.40463786e-06
-3.40903563e-06
-3.41339297e-06
-3.41771481e-06
-3.42200717e-06
-3.42625466e-06
-3.43044825e-06
-3.43459908e-06
-3.43871471e-06
-3.44278546e-06
-3.44680283e-06
-3.45075983e-06
-3.45466948e-06
-3.45853831e-06
-3.46235341e-06
-3.46610319e-06
-3.46979281e-06
-3.47342844e-06
-3.477018e-06
-3.48054288e-06
-3.48399308e-06
-3.48738258e-06
-3.49072035e-06
-3.49399362e-06
-3.49719041e-06
-3.50031787e-06
-3.5033859e-06
-3.50638822e-06
-3.50931317e-06
-3.51216273e-06
-3.51494589e-06
-3.51766026e-06
-3.52029853e-06
-3.52285375e-06
-3.52533691e-06
-3.52775039e-06
-3.530084e-06
-3.53233435e-06
-3.53450818e-06
-3.53660721e-06
-3.53862428e-06
-3.54055638e-06
-3.54240954e-06
-3.54418597e-06
-3.54587782e-06
-3.54748122e-06
-3.54900394e-06
-3.55044982e-06
-3.55180977e-06
-3.55307824e-06
-3.55426363e-06
-3.55537177e-06
-3.55639447e-06
-3.55732479e-06
-3.55816923e-06
-3.55893459e-06
-3.5596159e-06
-3.56020654e-06
-3.56070965e-06
-3.56113103e-06
-3.56146899e-06
-3.56171868e-06
-3.56188123e-06
-3.56196148e-06
-3.56195895e-06
-3.5618686e-06
-3.5616914e-06
-3.56143214e-06
-3.56109672e-06
-3.5606748e-06
-3.56016058e-06
-3.55956675e-06
-3.55890226e-06
-3.55815555e-06
-3.55731658e-06
-3.55639633e-06
-3.55540784e-06
-3.554345e-06
-3.55319824e-06
-3.55196037e-06
-3.55065324e-06
-3.54928632e-06
-3.54784054e-06
-3.54630636e-06
-3.54469952e-06
-3.54303346e-06
-3.54130041e-06
-3.53949292e-06
-3.53760264e-06
-3.53564931e-06
-3.53364376e-06
-3.53157281e-06
-3.52942628e-06
-3.52721351e-06
-3.52494419e-06
-3.52262723e-06
-3.52024636e-06
-3.51779579e-06
-3.5152916e-06
-3.51274293e-06
-3.51014128e-06
-3.50748026e-06
-3.50476703e-06
-3.5020106e-06
-3.49920995e-06
-3.4963618e-06
-3.49346358e-06
-3.49052581e-06
-3.48755274e-06
-3.48453856e-06
-3.48148223e-06
-3.47839249e-06
-3.4752743e-06
-3.47212171e-06
-3.46893265e-06
-3.46571768e-06
-3.46248301e-06
-3.45922124e-06
-3.4559298e-06
-3.45261896e-06
-3.44929422e-06
-3.44595123e-06
-3.44258996e-06
-3.43921596e-06
-3.43583084e-06
-3.43243397e-06
-3.42903046e-06
-3.42562756e-06
-3.42221875e-06
-3.41879701e-06
-3.41537766e-06
-3.41197592e-06
-3.40857795e-06
-3.40516864e-06
-3.4017649e-06
-3.39838853e-06
-3.39503043e-06
-3.39167221e-06
-3.38832231e-06
-3.38500087e-06
-3.38170782e-06
-3.37842935e-06
-3.37516722e-06
-3.37194206e-06
-3.36875506e-06
-3.36557798e-06
-3.36241377e-06
-3.35930214e-06
-3.35629551e-06
-3.35329373e-06
-3.35021601e-06
-3.34721077e-06
-3.34441019e-06
-3.34164722e-06
-3.33874179e-06
-3.33584965e-06
-3.33320192e-06
-3.33069635e-06
-3.32814554e-06
-3.32539004e-06
-3.32281186e-06
-3.32056236e-06
-3.31829998e-06
-3.31587617e-06
)
;

boundaryField
{
    closed
    {
        type            calculated;
        value           nonuniform List<scalar> 0();
    }
    open
    {
        type            calculated;
        value           nonuniform List<scalar> 0();
    }
    sides
    {
        type            empty;
        value           nonuniform List<scalar> 0();
    }
    procBoundary1to0
    {
        type            processor;
        value           uniform 2.98219178e-06;
    }
    procBoundary1to2
    {
        type            processor;
        value           uniform -3.31354496e-06;
    }
}


// ************************************************************************* //
