/*--------------------------------*- C++ -*----------------------------------*\
| =========                 |                                                 |
| \\      /  F ield         | OpenFOAM: The Open Source CFD Toolbox           |
|  \\    /   O peration     | Version:  2306                                  |
|   \\  /    A nd           | Website:  www.openfoam.com                      |
|    \\/     M anipulation  |                                                 |
\*---------------------------------------------------------------------------*/
FoamFile
{
    version     2.0;
    format      ascii;
    arch        "LSB;label=32;scalar=64";
    class       volScalarField;
    location    "0.0002";
    object      rho;
}
// * * * * * * * * * * * * * * * * * * * * * * * * * * * * * * * * * * * * * //

dimensions      [1 -3 0 0 0 0 0];

internalField   nonuniform List<scalar> 
531
(
0.935973025
0.935976102
0.935972399
0.93596877
0.935970844
0.935975509
0.935975612
0.935972536
0.935972619
0.935975188
0.935976533
0.935976012
0.935975618
0.93597654
0.935977904
0.935978464
0.935978676
0.935979186
0.935979872
0.935980709
0.935981634
0.935982274
0.935982546
0.935983314
0.935984726
0.935985524
0.935985518
0.93598625
0.935988029
0.935989061
0.935988889
0.935989437
0.935991336
0.935992727
0.935992788
0.935993079
0.935994585
0.935996263
0.935997056
0.935997336
0.93599827
0.935999386
0.936000825
0.93600223
0.936002835
0.936002823
0.93600407
0.936006777
0.936007798
0.936007006
0.936007841
0.936010597
0.936012152
0.936011891
0.936012335
0.936014341
0.936016114
0.936016694
0.936017104
0.936018317
0.936020036
0.936021246
0.936022086
0.936022638
0.936023715
0.936025449
0.936026906
0.936027466
0.936027733
0.93602898
0.936031236
0.936032401
0.936032462
0.936032924
0.936034504
0.936036533
0.936037437
0.936037361
0.936038272
0.936040083
0.936041305
0.936041685
0.936042424
0.936043973
0.936045127
0.936045245
0.936045828
0.936047798
0.936049383
0.936049154
0.936048725
0.936050315
0.936053157
0.936053788
0.936052233
0.936052623
0.936055273
0.9360572
0.93605676
0.93605566
0.936056774
0.936059644
0.936060262
0.936058971
0.93605923
0.936061278
0.936062496
0.936062045
0.936061786
0.936062884
0.936064185
0.936064423
0.936064127
0.936064573
0.936065404
0.936065883
0.936066164
0.936066382
0.936066543
0.936066778
0.936067204
0.93606769
0.936067863
0.936067676
0.936067735
0.936068148
0.93606853
0.936068496
0.936068221
0.93606829
0.936068585
0.93606857
0.936068371
0.936068336
0.936068416
0.936068263
0.936067835
0.936067695
0.936067986
0.936067945
0.936067258
0.936066441
0.936066344
0.936067204
0.936067025
0.936065393
0.936064239
0.936064912
0.936066086
0.936065134
0.93606231
0.936061905
0.936063872
0.936063847
0.936061263
0.936059613
0.936060482
0.936061391
0.936059934
0.936057605
0.936057267
0.93605823
0.93605749
0.9360555
0.936054644
0.936054751
0.936054221
0.936052877
0.936051804
0.936051389
0.936050908
0.93604981
0.936048499
0.936047715
0.936047448
0.936046636
0.936045215
0.936043911
0.93604328
0.936043166
0.936042171
0.936040079
0.936038901
0.936039199
0.936038866
0.936036619
0.936034506
0.936034645
0.936035274
0.936033434
0.936030414
0.936029867
0.936031077
0.936029962
0.936026872
0.936025782
0.936026283
0.936025542
0.936023638
0.936022354
0.936021739
0.936020878
0.93601983
0.936018971
0.936017983
0.936016478
0.936015497
0.936015332
0.936014528
0.936012722
0.936011469
0.93601131
0.936010853
0.93600937
0.936007971
0.936007485
0.936007144
0.936006101
0.936004729
0.936003939
0.936003582
0.936002967
0.936002093
0.936000828
0.935999868
0.935999732
0.93599985
0.935998772
0.935996552
0.935996023
0.935997527
0.935997259
0.935994628
0.935993068
0.935994145
0.93599542
0.935994149
0.935991292
0.935991013
0.935993056
0.935993108
0.935990898
0.935989635
0.935990669
0.935991662
0.935990543
0.935989044
0.935989508
0.935990656
0.935990083
0.935988732
0.935989022
0.935990363
0.935990236
0.935988834
0.935988937
0.935990398
0.935990731
0.935989815
0.935989635
0.935990743
0.935991632
0.935991309
0.935990823
0.935991649
0.935993217
0.935993511
0.935992449
0.935992964
0.935995125
0.935996098
0.935995275
0.935995163
0.935996996
0.935998817
0.935998857
0.935998458
0.935999652
0.936001609
0.936002375
0.936002591
0.936003622
0.93600497
0.936005935
0.936006858
0.936008247
0.936009541
0.936010202
0.936011153
0.936013027
0.936014768
0.936015556
0.936016223
0.936017779
0.936019999
0.936021499
0.936022652
0.936023592
0.936024947
0.936027058
0.936029514
0.936030922
0.936030945
0.936032547
0.936035998
0.93603833
0.936038596
0.936039175
0.936041934
0.93604548
0.936047039
0.936046869
0.936048722
0.936052278
0.936054748
0.936055652
0.936056818
0.936059358
0.936062275
0.936064205
0.936065596
0.936067673
0.936069881
0.936072069
0.936074625
0.936076866
0.936078265
0.936080093
0.936083173
0.93608603
0.936087445
0.936088814
0.936091664
0.936094834
0.93609671
0.936098181
0.936100656
0.936103485
0.936105694
0.936107736
0.93611006
0.936112377
0.936114602
0.936117075
0.936119593
0.936121639
0.936123562
0.936126097
0.93612897
0.9361312
0.936132827
0.936135037
0.936137789
0.936140435
0.936142573
0.936144212
0.936146416
0.936149263
0.936151804
0.936153547
0.93615529
0.936157897
0.936160682
0.936162522
0.936163996
0.936166443
0.936169451
0.936171373
0.936172316
0.936174449
0.936177882
0.936180131
0.936180886
0.936182232
0.936185087
0.936188226
0.936189922
0.936190262
0.936191923
0.93619497
0.936197731
0.936198997
0.936199212
0.936201041
0.93620446
0.936206511
0.93620677
0.936207621
0.936210296
0.936212976
0.93621377
0.936213997
0.936215954
0.936218771
0.936219925
0.936219929
0.936221364
0.936223975
0.936225239
0.936225376
0.936226523
0.936228545
0.93622975
0.936230172
0.936231157
0.936232736
0.93623374
0.936234102
0.936234985
0.936236488
0.936237337
0.936237376
0.936238001
0.936239488
0.936240381
0.936240203
0.936240369
0.936241629
0.936242706
0.936242551
0.936242215
0.936243016
0.936244169
0.936244192
0.936243621
0.936243963
0.936244812
0.936244841
0.936244351
0.936244467
0.936245021
0.936244898
0.936244078
0.936243973
0.93624478
0.936244678
0.936243303
0.93624261
0.936243408
0.936243837
0.936242455
0.936240762
0.936240947
0.936242095
0.936241296
0.9362386
0.936237943
0.936239177
0.936239008
0.936236798
0.936234863
0.936234817
0.936235737
0.936234705
0.936231885
0.936230503
0.936230894
0.936230986
0.936229221
0.936226509
0.936225558
0.936226183
0.936225205
0.936222633
0.936220816
0.936220486
0.936220074
0.936218256
0.936215937
0.936214783
0.936214394
0.936212957
0.936210708
0.936209231
0.936208426
0.936207012
0.93620491
0.936203332
0.93620247
0.936200993
0.936198636
0.936196931
0.9361962
0.936194812
0.936192395
0.936190479
0.936189442
0.936188069
0.936186095
0.936184316
0.936182737
0.93618088
0.936179109
0.936178159
0.936176738
0.936173815
0.936171463
0.936171307
0.936170922
0.936167768
0.936164085
0.936163493
0.936164422
0.936162219
0.936157802
0.936156346
0.936157026
0.936155321
0.936151909
0.936150603
0.936151266
0.936148947
0.936142912
0.936141856
0.936149482
0.936148604
0.936133318
0.936127114
0.936142476
0.936153179
0.936135617
0.936112138
0.936122055
0.936152822
0.936147849
0.936108046
0.936105517
0.936137493
0.936144633
0.936119111
0.936105124
)
;

boundaryField
{
    closed
    {
        type            calculated;
        value           nonuniform List<scalar> 0();
    }
    open
    {
        type            calculated;
        value           nonuniform List<scalar> 0();
    }
    sides
    {
        type            empty;
    }
    procBoundary1to0
    {
        type            processor;
        value           uniform 0.935966134;
    }
    procBoundary1to2
    {
        type            processor;
        value           uniform 0.936119453;
    }
}


// ************************************************************************* //
