/*--------------------------------*- C++ -*----------------------------------*\
| =========                 |                                                 |
| \\      /  F ield         | OpenFOAM: The Open Source CFD Toolbox           |
|  \\    /   O peration     | Version:  2306                                  |
|   \\  /    A nd           | Website:  www.openfoam.com                      |
|    \\/     M anipulation  |                                                 |
\*---------------------------------------------------------------------------*/
FoamFile
{
    version     2.0;
    format      ascii;
    arch        "LSB;label=32;scalar=64";
    class       volScalarField;
    location    "0.0002";
    object      sourcePV;
}
// * * * * * * * * * * * * * * * * * * * * * * * * * * * * * * * * * * * * * //

dimensions      [1 -3 -1 0 0 0 0];

internalField   nonuniform List<scalar> 
531
(
0.0815387055
0.0815522921
0.0815326229
0.081513214
0.0815215575
0.0815424648
0.0815409616
0.0815238163
0.0815220004
0.0815322342
0.0815363783
0.0815312998
0.0815267439
0.0815285182
0.0815323508
0.0815321566
0.0815301678
0.0815295391
0.0815296789
0.0815304611
0.0815315845
0.0815312259
0.0815289831
0.0815290793
0.0815322394
0.0815323139
0.0815283812
0.081527977
0.0815326127
0.0815335233
0.0815284759
0.0815268803
0.0815318148
0.0815342029
0.0815300241
0.081526907
0.0815296715
0.0815332141
0.0815323812
0.0815289854
0.0815287325
0.0815293207
0.0815314419
0.0815333536
0.0815313117
0.0815262173
0.0815272389
0.0815353582
0.0815352086
0.0815261657
0.0815250512
0.0815332953
0.0815356533
0.0815291126
0.0815260031
0.0815305071
0.0815338647
0.0815313826
0.081528064
0.0815286613
0.0815317356
0.0815323187
0.0815310947
0.0815284767
0.0815284262
0.0815316031
0.0815334345
0.0815309004
0.0815269588
0.0815278225
0.0815336418
0.0815341586
0.0815293076
0.0815264497
0.081529086
0.081533958
0.0815333661
0.0815280315
0.0815275608
0.0815315358
0.0815326839
0.0815297694
0.0815286605
0.0815315632
0.0815325997
0.0815286331
0.0815269974
0.0815322119
0.0815356071
0.0815302104
0.0815239041
0.0815275443
0.0815373726
0.0815364783
0.0815249805
0.0815230668
0.0815322862
0.0815380547
0.0815323445
0.0815234986
0.0815255619
0.0815363014
0.0815361313
0.0815267278
0.0815249955
0.0815321054
0.0815352575
0.0815303599
0.0815264992
0.08152938
0.0815333561
0.0815322449
0.081528635
0.0815287555
0.0815308721
0.0815313806
0.0815310341
0.0815304931
0.0815297874
0.0815295544
0.081530377
0.0815316058
0.0815314237
0.0815295942
0.0815290894
0.0815304323
0.0815317456
0.0815311423
0.0815294796
0.0815296172
0.0815309753
0.0815309409
0.0815301302
0.0815302344
0.0815310218
0.0815307896
0.0815293343
0.0815293979
0.0815316925
0.0815324788
0.0815302218
0.0815274518
0.0815283095
0.0815339599
0.081534649
0.0815283484
0.0815244954
0.0815296815
0.0815374244
0.0815348887
0.08152331
0.0815236612
0.081535706
0.0815381218
0.0815281299
0.081522808
0.0815298924
0.0815372717
0.0815331816
0.0815249213
0.0815264852
0.0815344976
0.0815342781
0.0815280309
0.0815274175
0.0815315831
0.0815327212
0.081529959
0.0815285964
0.0815305204
0.0815321944
0.0815309236
0.0815286782
0.081529067
0.0815320481
0.0815324211
0.081529878
0.0815279603
0.0815293797
0.0815333746
0.0815331092
0.0815275272
0.0815264504
0.0815326195
0.081535745
0.0815295477
0.0815240322
0.0815295459
0.081537479
0.0815333619
0.081523497
0.0815257316
0.081536562
0.0815360329
0.0815258617
0.0815254614
0.0815328369
0.081534139
0.0815297459
0.0815283675
0.0815302505
0.081530907
0.0815306333
0.0815312578
0.0815312204
0.0815286296
0.0815285625
0.0815324483
0.0815331662
0.0815289495
0.0815273821
0.081531117
0.0815333364
0.0815304911
0.081527991
0.0815298951
0.0815324429
0.0815314838
0.0815288507
0.0815289858
0.0815311615
0.081531992
0.0815314733
0.0815289568
0.0815278405
0.0815306622
0.0815346267
0.0815326482
0.0815249877
0.0815254892
0.0815358187
0.0815373769
0.081527278
0.0815222965
0.0815300875
0.0815387236
0.0815347992
0.0815229957
0.0815236677
0.0815355593
0.0815375868
0.0815284281
0.0815237603
0.081530185
0.0815362649
0.0815318827
0.0815254997
0.0815285687
0.0815348273
0.0815325331
0.0815262805
0.0815278986
0.0815344961
0.0815337675
0.0815266527
0.0815267289
0.0815332883
0.0815341746
0.0815287894
0.0815268458
0.0815310269
0.0815339799
0.0815308383
0.0815267338
0.0815288783
0.0815344781
0.0815336847
0.0815260968
0.0815260488
0.0815338726
0.0815357198
0.0815286173
0.0815248264
0.0815303682
0.0815356785
0.0815321168
0.0815262386
0.0815279798
0.0815332755
0.0815325838
0.0815290367
0.0815293028
0.0815309534
0.0815305654
0.0815298067
0.0815311602
0.0815318849
0.0815293528
0.0815280768
0.0815311495
0.0815334109
0.0815308595
0.0815275609
0.0815284539
0.0815324317
0.081532741
0.0815312055
0.0815284792
0.0815276366
0.0815303381
0.0815345858
0.0815335718
0.0815256489
0.0815253055
0.081533862
0.0815368187
0.0815295496
0.0815236802
0.0815283397
0.0815367234
0.0815352758
0.0815252622
0.0815250203
0.0815329856
0.0815355361
0.0815303287
0.0815262955
0.0815288776
0.0815332041
0.0815326121
0.0815292906
0.0815292397
0.0815297424
0.0815300639
0.0815321062
0.0815325298
0.0815287716
0.0815270435
0.081531363
0.0815345319
0.0815305977
0.0815263867
0.0815293572
0.0815338462
0.0815319676
0.0815280703
0.0815290399
0.0815317107
0.0815313201
0.0815300911
0.0815302193
0.0815302923
0.0815299031
0.0815307172
0.0815317433
0.0815304611
0.0815285812
0.0815296944
0.0815324698
0.0815321149
0.0815288336
0.0815284183
0.0815306798
0.0815324499
0.0815317691
0.0815286893
0.0815284072
0.0815313101
0.0815327718
0.0815303786
0.0815280448
0.0815299935
0.0815328722
0.0815312023
0.0815278166
0.0815292529
0.0815335139
0.0815325463
0.0815268852
0.0815271225
0.08153381
0.0815348051
0.081528599
0.0815253827
0.0815296506
0.0815354134
0.081534238
0.0815265503
0.0815254414
0.0815312268
0.0815357407
0.081533079
0.0815254188
0.0815257773
0.0815340423
0.0815357643
0.0815288769
0.0815250246
0.0815302414
0.0815356289
0.0815319631
0.0815256799
0.0815280103
0.0815347088
0.081533444
0.0815267307
0.0815271767
0.0815335445
0.0815335
0.081528131
0.0815278687
0.0815320661
0.0815324571
0.0815291993
0.0815288854
0.0815316564
0.0815318086
0.0815290134
0.0815289561
0.0815321181
0.0815322841
0.0815286867
0.0815281487
0.0815320175
0.0815331844
0.0815293174
0.0815273323
0.0815308941
0.0815337577
0.0815308075
0.0815271783
0.0815293033
0.0815333479
0.081532079
0.0815281084
0.0815288054
0.0815321799
0.0815317505
0.0815289831
0.0815293841
0.0815321257
0.0815317616
0.0815281874
0.0815283121
0.081533089
0.0815336203
0.0815281307
0.0815261717
0.0815316875
0.0815355938
0.0815308456
0.0815247672
0.0815280542
0.0815362325
0.0815350871
0.0815248535
0.0815247657
0.0815340965
0.0815367512
0.0815296078
0.0815239851
0.0815277599
0.0815364265
0.0815357168
0.0815264407
0.0815243485
0.0815310792
0.0815365078
0.0815330142
0.081525042
0.0815258266
0.0815344516
0.0815353821
0.0815286673
0.0815257763
0.0815302799
0.0815345111
0.081531997
0.0815271553
0.0815281275
0.0815329465
0.081532757
0.0815287058
0.0815285271
0.0815317311
0.0815320551
0.0815291089
0.0815288087
0.08153209
0.0815324424
0.0815285683
0.0815279521
0.0815321601
0.0815332191
0.081529306
0.0815278937
0.0815308241
0.0815321541
0.0815305912
0.0815300118
0.0815304408
0.0815295348
0.0815290737
0.081532635
0.0815339125
0.081527854
0.0815245855
0.0815320504
0.0815383834
0.0815311756
0.0815213662
0.0815266404
0.081539316
0.0815366623
0.0815231517
0.0815240668
0.0815353729
0.0815349796
0.0815261887
0.0815276266
0.0815386214
0.0815349796
0.0815131057
0.0815154826
0.0815602032
0.0815632827
0.0814958617
0.081472749
0.0815548543
0.0816141995
0.0815351584
0.0814273
0.0814822839
0.0816392367
0.0816212649
0.0814330249
0.0814267847
0.0815889135
0.081629697
0.081510543
0.081447792
)
;

boundaryField
{
    closed
    {
        type            calculated;
        value           nonuniform List<scalar> 0();
    }
    open
    {
        type            calculated;
        value           nonuniform List<scalar> 0();
    }
    sides
    {
        type            empty;
    }
    procBoundary1to0
    {
        type            processor;
        value           uniform 0;
    }
    procBoundary1to2
    {
        type            processor;
        value           uniform 0;
    }
}


// ************************************************************************* //
