/*--------------------------------*- C++ -*----------------------------------*\
| =========                 |                                                 |
| \\      /  F ield         | OpenFOAM: The Open Source CFD Toolbox           |
|  \\    /   O peration     | Version:  2306                                  |
|   \\  /    A nd           | Website:  www.openfoam.com                      |
|    \\/     M anipulation  |                                                 |
\*---------------------------------------------------------------------------*/
FoamFile
{
    version     2.0;
    format      ascii;
    arch        "LSB;label=32;scalar=64";
    class       volScalarField;
    location    "0.00016";
    object      H2O;
}
// * * * * * * * * * * * * * * * * * * * * * * * * * * * * * * * * * * * * * //

dimensions      [0 0 0 0 0 0 0];

internalField   nonuniform List<scalar> 
531
(
0.0045083635
0.00450860279
0.00450698943
0.00450642227
0.00450701293
0.00450743988
0.00450724892
0.00450701858
0.00450707387
0.0045071766
0.00450716205
0.00450712208
0.00450712535
0.00450713952
0.00450713875
0.00450713437
0.00450713435
0.00450713574
0.00450713574
0.00450713535
0.00450713534
0.00450713544
0.00450713545
0.00450713542
0.00450713542
0.00450713543
0.00450713543
0.00450713542
0.00450713542
0.00450713542
0.00450713542
0.00450713542
0.00450713542
0.00450713542
0.00450713542
0.00450713542
0.00450713542
0.00450713542
0.00450713542
0.00450713542
0.00450713542
0.00450713542
0.00450713542
0.00450713542
0.00450713542
0.00450713542
0.00450713542
0.00450713542
0.00450713542
0.00450713542
0.00450713542
0.00450713542
0.00450713542
0.00450713542
0.00450713542
0.00450713542
0.00450713542
0.00450713542
0.00450713542
0.00450713542
0.00450713542
0.00450713542
0.00450713542
0.00450713542
0.00450713542
0.00450713542
0.00450713542
0.00450713542
0.00450713542
0.00450713542
0.00450713542
0.00450713542
0.00450713542
0.00450713542
0.00450713542
0.00450713542
0.00450713542
0.00450713542
0.00450713542
0.00450713542
0.00450713542
0.00450713542
0.00450713542
0.00450713542
0.00450713542
0.00450713542
0.00450713542
0.00450713542
0.00450713542
0.00450713542
0.00450713542
0.00450713542
0.00450713542
0.00450713542
0.00450713542
0.00450713542
0.00450713542
0.00450713542
0.00450713542
0.00450713542
0.00450713542
0.00450713542
0.00450713542
0.00450713542
0.00450713542
0.00450713542
0.00450713542
0.00450713542
0.00450713542
0.00450713542
0.00450713542
0.00450713542
0.00450713542
0.00450713542
0.00450713542
0.00450713542
0.00450713542
0.00450713542
0.00450713542
0.00450713542
0.00450713542
0.00450713542
0.00450713542
0.00450713542
0.00450713542
0.00450713542
0.00450713542
0.00450713542
0.00450713542
0.00450713542
0.00450713542
0.00450713542
0.00450713542
0.00450713542
0.00450713542
0.00450713542
0.00450713542
0.00450713542
0.00450713542
0.00450713543
0.00450713542
0.00450713542
0.00450713542
0.00450713542
0.00450713542
0.00450713542
0.00450713542
0.00450713542
0.00450713542
0.00450713542
0.00450713542
0.00450713542
0.00450713542
0.00450713542
0.00450713542
0.00450713542
0.00450713542
0.00450713542
0.00450713542
0.00450713542
0.00450713542
0.00450713542
0.00450713542
0.00450713542
0.00450713542
0.00450713542
0.00450713542
0.00450713542
0.00450713542
0.00450713542
0.00450713542
0.00450713542
0.00450713542
0.00450713542
0.00450713542
0.00450713542
0.00450713542
0.00450713542
0.00450713542
0.00450713542
0.00450713542
0.00450713542
0.00450713542
0.00450713542
0.00450713542
0.00450713542
0.00450713542
0.00450713542
0.00450713542
0.00450713542
0.00450713542
0.00450713542
0.00450713542
0.00450713542
0.00450713542
0.00450713542
0.00450713542
0.00450713542
0.00450713542
0.00450713542
0.00450713542
0.00450713542
0.00450713542
0.00450713542
0.00450713542
0.00450713542
0.00450713542
0.00450713542
0.00450713542
0.00450713542
0.00450713542
0.00450713542
0.00450713542
0.00450713542
0.00450713542
0.00450713542
0.00450713542
0.00450713542
0.00450713542
0.00450713542
0.00450713542
0.00450713542
0.00450713542
0.00450713542
0.00450713542
0.00450713542
0.00450713543
0.00450713542
0.00450713542
0.00450713542
0.00450713543
0.00450713543
0.00450713542
0.00450713542
0.00450713542
0.00450713543
0.00450713543
0.00450713542
0.00450713542
0.00450713543
0.00450713543
0.00450713542
0.00450713542
0.00450713542
0.00450713543
0.00450713542
0.00450713542
0.00450713542
0.00450713542
0.00450713542
0.00450713542
0.00450713542
0.00450713542
0.00450713542
0.00450713542
0.00450713542
0.00450713542
0.00450713542
0.00450713542
0.00450713542
0.00450713542
0.00450713542
0.00450713542
0.00450713543
0.00450713543
0.00450713542
0.00450713542
0.00450713542
0.00450713543
0.00450713543
0.00450713542
0.00450713542
0.00450713543
0.00450713543
0.00450713543
0.00450713542
0.00450713542
0.00450713543
0.00450713543
0.00450713543
0.00450713543
0.00450713542
0.00450713542
0.00450713542
0.00450713543
0.00450713543
0.00450713543
0.00450713542
0.00450713541
0.00450713541
0.00450713543
0.00450713544
0.00450713543
0.00450713541
0.00450713541
0.00450713543
0.00450713544
0.00450713542
0.00450713541
0.00450713542
0.00450713543
0.00450713543
0.00450713542
0.00450713542
0.00450713542
0.00450713543
0.00450713543
0.00450713542
0.00450713541
0.00450713542
0.00450713544
0.00450713544
0.00450713542
0.00450713541
0.00450713542
0.00450713544
0.00450713544
0.00450713543
0.00450713542
0.00450713541
0.00450713541
0.00450713544
0.00450713544
0.00450713542
0.00450713541
0.00450713542
0.00450713543
0.00450713543
0.00450713542
0.00450713542
0.00450713543
0.00450713542
0.00450713541
0.00450713542
0.00450713544
0.00450713543
0.00450713541
0.00450713542
0.00450713543
0.00450713543
0.00450713543
0.00450713543
0.00450713542
0.00450713542
0.00450713542
0.00450713543
0.00450713543
0.00450713542
0.00450713542
0.00450713543
0.00450713543
0.00450713542
0.00450713542
0.00450713543
0.00450713543
0.00450713542
0.00450713542
0.00450713543
0.00450713543
0.00450713542
0.0045071354
0.00450713539
0.00450713539
0.0045071354
0.0045071354
0.00450713534
0.00450713523
0.00450713517
0.00450713518
0.00450713504
0.00450713469
0.00450713434
0.00450713404
0.0045071334
0.00450713224
0.00450713087
0.00450712915
0.00450712639
0.00450712231
0.00450711693
0.00450710955
0.00450709898
0.0045070844
0.00450706477
0.00450703803
0.00450700114
0.00450695105
0.00450688364
0.00450679752
0.00450668259
0.00450651307
0.00450629845
0.00450610308
0.00450568728
0.00450491053
0.00450560046
0.00450633635
0.00449615733
0.00448447984
0.00451983445
0.004591571
0.0044969544
0.00420643001
0.00433446949
0.00559813801
0.00619495512
0.00388081555
0.000903606971
0.00285851701
0.00761422742
0.00779673423
0.00359137124
0.000720530084
0.00117113174
0.000929954108
0.00612844167
0.00309633703
0.00196252728
0.00193621126
0.00243311108
0.00258408808
0.0028771607
0.00307936514
0.00327819935
0.0033880237
0.00330632263
0.00345846056
0.00370352797
0.00432942371
0.00433635064
0.0100135074
0.00991219477
0.0113773473
0.0115728025
0.0127978904
0.0111915649
0.0133353269
0.0133861947
0.0143164158
0.00890556779
0.0100527001
0.00659022245
0.0123745327
0.0126674753
0.0109559779
0.0106273184
0.0120629618
0.0148412604
0.0174491342
0.0210075961
0.0284266688
0.0325883003
0.0372810436
0.0415462275
0.0465731414
0.0511520718
0.0557657692
0.0596302511
0.0637110405
0.0675048152
0.0714814906
0.0751967567
0.0793069942
0.0832598374
0.0872493079
0.0909114394
0.0945360845
0.0981475706
0.101756762
0.104915465
0.107944253
0.110478134
0.112977209
0.114891228
0.116772262
0.118045412
0.119415675
0.120620927
0.1218976
0.122873781
0.12398593
0.124760785
0.125624052
0.126255816
0.126930919
0.127435359
0.12797745
0.128400339
0.128836004
0.129167634
0.129532789
0.129800437
0.130098486
0.130315401
0.130600314
0.130862787
0.131101704
0.131309555
0.131488515
0.131655779
0.131791967
0.131920697
0.132018107
0.132111892
0.132183255
0.13225458
0.132312404
0.132365617
0.132402966
0.13243377
0.132457661
0.132483837
0.132500028
0.13251453
0.132520841
0.132523494
0.132518875
0.132511829
0.132500218
0.132484521
0.132467004
0.132442668
0.132417458
0.132386515
0.132356305
0.132320642
0.132285914
0.132246492
0.132206223
0.132161475
0.132116968
)
;

boundaryField
{
    closed
    {
        type            calculated;
        value           nonuniform List<scalar> 0();
    }
    open
    {
        type            calculated;
        value           nonuniform List<scalar> 0();
    }
    sides
    {
        type            empty;
    }
    procBoundary4to3
    {
        type            processor;
        value           uniform 0.00450465672;
    }
    procBoundary4to5
    {
        type            processor;
        value           uniform 0.132069932;
    }
}


// ************************************************************************* //
