/*--------------------------------*- C++ -*----------------------------------*\
| =========                 |                                                 |
| \\      /  F ield         | OpenFOAM: The Open Source CFD Toolbox           |
|  \\    /   O peration     | Version:  2306                                  |
|   \\  /    A nd           | Website:  www.openfoam.com                      |
|    \\/     M anipulation  |                                                 |
\*---------------------------------------------------------------------------*/
FoamFile
{
    version     2.0;
    format      ascii;
    arch        "LSB;label=32;scalar=64";
    class       volScalarField;
    location    "0.00016";
    object      prefDPV_H2O;
}
// * * * * * * * * * * * * * * * * * * * * * * * * * * * * * * * * * * * * * //

dimensions      [1 -1 -1 0 0 0 0];

internalField   nonuniform List<scalar> 
531
(
-3.73062405e-07
-3.73061573e-07
-3.73067177e-07
-3.73069148e-07
-3.73067096e-07
-3.73065612e-07
-3.73066275e-07
-3.73067075e-07
-3.73066883e-07
-3.73066526e-07
-3.73066577e-07
-3.73066716e-07
-3.73066704e-07
-3.73066655e-07
-3.73066658e-07
-3.73066673e-07
-3.73066673e-07
-3.73066668e-07
-3.73066668e-07
-3.7306667e-07
-3.7306667e-07
-3.73066669e-07
-3.73066669e-07
-3.73066669e-07
-3.73066669e-07
-3.73066669e-07
-3.73066669e-07
-3.73066669e-07
-3.73066669e-07
-3.73066669e-07
-3.73066669e-07
-3.73066669e-07
-3.73066669e-07
-3.73066669e-07
-3.73066669e-07
-3.73066669e-07
-3.73066669e-07
-3.73066669e-07
-3.73066669e-07
-3.73066669e-07
-3.73066669e-07
-3.73066669e-07
-3.73066669e-07
-3.73066669e-07
-3.73066669e-07
-3.73066669e-07
-3.73066669e-07
-3.73066669e-07
-3.73066669e-07
-3.73066669e-07
-3.73066669e-07
-3.73066669e-07
-3.73066669e-07
-3.73066669e-07
-3.73066669e-07
-3.73066669e-07
-3.73066669e-07
-3.73066669e-07
-3.73066669e-07
-3.73066669e-07
-3.73066669e-07
-3.73066669e-07
-3.73066669e-07
-3.73066669e-07
-3.73066669e-07
-3.73066669e-07
-3.73066669e-07
-3.73066669e-07
-3.73066669e-07
-3.73066669e-07
-3.73066669e-07
-3.73066669e-07
-3.73066669e-07
-3.73066669e-07
-3.73066669e-07
-3.73066669e-07
-3.73066669e-07
-3.73066669e-07
-3.73066669e-07
-3.73066669e-07
-3.73066669e-07
-3.73066669e-07
-3.73066669e-07
-3.73066669e-07
-3.73066669e-07
-3.73066669e-07
-3.73066669e-07
-3.73066669e-07
-3.73066669e-07
-3.73066669e-07
-3.73066669e-07
-3.73066669e-07
-3.73066669e-07
-3.73066669e-07
-3.73066669e-07
-3.73066669e-07
-3.73066669e-07
-3.73066669e-07
-3.73066669e-07
-3.73066669e-07
-3.73066669e-07
-3.73066669e-07
-3.73066669e-07
-3.73066669e-07
-3.73066669e-07
-3.73066669e-07
-3.73066669e-07
-3.73066669e-07
-3.73066669e-07
-3.73066669e-07
-3.73066669e-07
-3.73066669e-07
-3.73066669e-07
-3.73066669e-07
-3.73066669e-07
-3.73066669e-07
-3.73066669e-07
-3.73066669e-07
-3.73066669e-07
-3.73066669e-07
-3.73066669e-07
-3.73066669e-07
-3.73066669e-07
-3.73066669e-07
-3.73066669e-07
-3.73066669e-07
-3.73066669e-07
-3.73066669e-07
-3.73066669e-07
-3.73066669e-07
-3.73066669e-07
-3.73066669e-07
-3.73066669e-07
-3.73066669e-07
-3.73066669e-07
-3.73066669e-07
-3.73066669e-07
-3.73066669e-07
-3.73066669e-07
-3.73066669e-07
-3.73066669e-07
-3.73066669e-07
-3.73066669e-07
-3.73066669e-07
-3.73066669e-07
-3.73066669e-07
-3.73066669e-07
-3.73066669e-07
-3.73066669e-07
-3.73066669e-07
-3.73066669e-07
-3.73066669e-07
-3.73066669e-07
-3.73066669e-07
-3.73066669e-07
-3.73066669e-07
-3.73066669e-07
-3.73066669e-07
-3.73066669e-07
-3.73066669e-07
-3.73066669e-07
-3.73066669e-07
-3.73066669e-07
-3.73066669e-07
-3.73066669e-07
-3.73066669e-07
-3.73066669e-07
-3.73066669e-07
-3.73066669e-07
-3.73066669e-07
-3.73066669e-07
-3.73066669e-07
-3.73066669e-07
-3.73066669e-07
-3.73066669e-07
-3.73066669e-07
-3.73066669e-07
-3.73066669e-07
-3.73066669e-07
-3.73066669e-07
-3.73066669e-07
-3.73066669e-07
-3.73066669e-07
-3.73066669e-07
-3.73066669e-07
-3.73066669e-07
-3.73066669e-07
-3.73066669e-07
-3.73066669e-07
-3.73066669e-07
-3.73066669e-07
-3.73066669e-07
-3.73066669e-07
-3.73066669e-07
-3.73066669e-07
-3.73066669e-07
-3.73066669e-07
-3.73066669e-07
-3.73066669e-07
-3.73066669e-07
-3.73066669e-07
-3.73066669e-07
-3.73066669e-07
-3.73066669e-07
-3.73066669e-07
-3.73066669e-07
-3.73066669e-07
-3.73066669e-07
-3.73066669e-07
-3.73066669e-07
-3.73066669e-07
-3.73066669e-07
-3.73066669e-07
-3.73066669e-07
-3.73066669e-07
-3.73066669e-07
-3.73066669e-07
-3.73066669e-07
-3.73066669e-07
-3.73066669e-07
-3.73066669e-07
-3.73066669e-07
-3.73066669e-07
-3.73066669e-07
-3.73066669e-07
-3.73066669e-07
-3.73066669e-07
-3.73066669e-07
-3.73066669e-07
-3.73066669e-07
-3.73066669e-07
-3.73066669e-07
-3.73066669e-07
-3.73066669e-07
-3.73066669e-07
-3.73066669e-07
-3.73066669e-07
-3.73066669e-07
-3.73066669e-07
-3.73066669e-07
-3.73066669e-07
-3.73066669e-07
-3.73066669e-07
-3.73066669e-07
-3.73066669e-07
-3.73066669e-07
-3.73066669e-07
-3.73066669e-07
-3.73066669e-07
-3.73066669e-07
-3.73066669e-07
-3.73066669e-07
-3.73066669e-07
-3.73066669e-07
-3.73066669e-07
-3.73066669e-07
-3.73066669e-07
-3.73066669e-07
-3.73066669e-07
-3.73066669e-07
-3.73066669e-07
-3.73066669e-07
-3.73066669e-07
-3.73066669e-07
-3.73066669e-07
-3.73066669e-07
-3.73066669e-07
-3.73066669e-07
-3.73066669e-07
-3.73066669e-07
-3.73066669e-07
-3.73066669e-07
-3.73066669e-07
-3.73066669e-07
-3.73066669e-07
-3.73066669e-07
-3.73066669e-07
-3.73066669e-07
-3.73066669e-07
-3.73066669e-07
-3.73066669e-07
-3.73066669e-07
-3.73066669e-07
-3.73066669e-07
-3.73066669e-07
-3.73066669e-07
-3.73066669e-07
-3.73066669e-07
-3.73066669e-07
-3.73066669e-07
-3.73066669e-07
-3.73066669e-07
-3.73066669e-07
-3.73066669e-07
-3.73066669e-07
-3.73066669e-07
-3.73066669e-07
-3.73066669e-07
-3.73066669e-07
-3.73066669e-07
-3.73066669e-07
-3.73066669e-07
-3.73066669e-07
-3.73066669e-07
-3.73066669e-07
-3.73066669e-07
-3.73066669e-07
-3.73066669e-07
-3.73066669e-07
-3.73066669e-07
-3.73066669e-07
-3.73066669e-07
-3.73066669e-07
-3.73066669e-07
-3.73066669e-07
-3.73066669e-07
-3.73066669e-07
-3.73066669e-07
-3.73066669e-07
-3.73066669e-07
-3.73066669e-07
-3.73066669e-07
-3.73066669e-07
-3.73066669e-07
-3.73066669e-07
-3.73066669e-07
-3.73066669e-07
-3.73066669e-07
-3.73066669e-07
-3.73066669e-07
-3.73066669e-07
-3.73066669e-07
-3.73066669e-07
-3.73066669e-07
-3.73066669e-07
-3.73066669e-07
-3.73066669e-07
-3.73066669e-07
-3.73066669e-07
-3.73066669e-07
-3.73066669e-07
-3.73066669e-07
-3.73066669e-07
-3.73066669e-07
-3.73066669e-07
-3.73066669e-07
-3.73066669e-07
-3.73066669e-07
-3.73066669e-07
-3.73066669e-07
-3.73066669e-07
-3.73066669e-07
-3.73066669e-07
-3.73066669e-07
-3.73066669e-07
-3.73066669e-07
-3.73066669e-07
-3.73066669e-07
-3.73066669e-07
-3.73066669e-07
-3.73066669e-07
-3.73066669e-07
-3.73066669e-07
-3.73066669e-07
-3.73066669e-07
-3.73066669e-07
-3.7306667e-07
-3.7306667e-07
-3.73066669e-07
-3.73066669e-07
-3.7306667e-07
-3.7306667e-07
-3.7306667e-07
-3.7306667e-07
-3.73066671e-07
-3.73066671e-07
-3.73066671e-07
-3.73066672e-07
-3.73066673e-07
-3.73066675e-07
-3.73066676e-07
-3.7306668e-07
-3.73066684e-07
-3.73066689e-07
-3.73066696e-07
-3.73066707e-07
-3.73066723e-07
-3.73066744e-07
-3.7306676e-07
-3.73066779e-07
-3.73066869e-07
-3.73066955e-07
-3.73066762e-07
-3.73067103e-07
-3.73068316e-07
-3.73064155e-07
-3.73059709e-07
-3.73092194e-07
-3.73130276e-07
-3.73003233e-07
-3.72749657e-07
-3.73074741e-07
-3.74087764e-07
-3.73631703e-07
-3.69276823e-07
-3.67258985e-07
-3.7519841e-07
-3.84203474e-07
-3.78891679e-07
-3.6291582e-07
-3.62509661e-07
-3.76063734e-07
-3.85105331e-07
-3.82233778e-07
-3.85712716e-07
-3.66177853e-07
-3.77705914e-07
-3.76884694e-07
-3.77336146e-07
-3.7370412e-07
-3.72652318e-07
-3.70349424e-07
-3.68651185e-07
-3.66658524e-07
-3.64810104e-07
-3.63489903e-07
-3.61120919e-07
-3.59333261e-07
-3.5486777e-07
-3.54836227e-07
-3.3147988e-07
-3.27651724e-07
-3.11064709e-07
-3.0893155e-07
-2.9080404e-07
-2.91853776e-07
-2.75785317e-07
-2.69620483e-07
-2.50161755e-07
-2.77243093e-07
-2.54438573e-07
-2.72872569e-07
-2.22793064e-07
-2.17973646e-07
-2.15804597e-07
-2.04578288e-07
-1.85658899e-07
-1.56715459e-07
-1.28737792e-07
-9.42808892e-08
-2.18896233e-08
2.17646862e-08
7.25202307e-08
1.18828691e-07
1.72636373e-07
2.19272055e-07
2.65284631e-07
3.02889929e-07
3.40922048e-07
3.7336989e-07
4.0625291e-07
4.35356397e-07
4.67308198e-07
4.96626835e-07
5.26269002e-07
5.52501072e-07
5.78629732e-07
6.03573215e-07
6.28925881e-07
6.50644589e-07
6.72397859e-07
6.9026668e-07
7.09213141e-07
7.23597419e-07
7.39107437e-07
7.47491764e-07
7.60921353e-07
7.72017851e-07
7.85153628e-07
7.95306872e-07
8.0754634e-07
8.16758499e-07
8.28065231e-07
8.36800815e-07
8.46677043e-07
8.54437e-07
8.63285583e-07
8.70786404e-07
8.7877748e-07
8.85284655e-07
8.92639189e-07
8.98519839e-07
9.05088496e-07
9.10350082e-07
9.17111498e-07
9.23471877e-07
9.2965138e-07
9.35388344e-07
9.40721991e-07
9.46138221e-07
9.51035757e-07
9.55940621e-07
9.60231403e-07
9.64735043e-07
9.68623212e-07
9.7279842e-07
9.76549352e-07
9.80523157e-07
9.83874513e-07
9.87425941e-07
9.90552343e-07
9.94068621e-07
9.97078055e-07
1.00033699e-06
1.00318748e-06
1.0061558e-06
1.00883642e-06
1.01153518e-06
1.01405032e-06
1.01664921e-06
1.01897192e-06
1.02141717e-06
1.02352338e-06
1.02583061e-06
1.02781134e-06
1.03000161e-06
1.03187866e-06
1.03395563e-06
1.03569619e-06
1.03758983e-06
1.03923903e-06
)
;

boundaryField
{
    closed
    {
        type            calculated;
        value           nonuniform List<scalar> 0();
    }
    open
    {
        type            calculated;
        value           nonuniform List<scalar> 0();
    }
    sides
    {
        type            empty;
    }
    procBoundary4to3
    {
        type            processor;
        value           uniform -3.73075283e-07;
    }
    procBoundary4to5
    {
        type            processor;
        value           uniform 1.04103251e-06;
    }
}


// ************************************************************************* //
