/*--------------------------------*- C++ -*----------------------------------*\
| =========                 |                                                 |
| \\      /  F ield         | OpenFOAM: The Open Source CFD Toolbox           |
|  \\    /   O peration     | Version:  2306                                  |
|   \\  /    A nd           | Website:  www.openfoam.com                      |
|    \\/     M anipulation  |                                                 |
\*---------------------------------------------------------------------------*/
FoamFile
{
    version     2.0;
    format      ascii;
    arch        "LSB;label=32;scalar=64";
    class       volScalarField;
    location    "0.00016";
    object      prefDZ_H2;
}
// * * * * * * * * * * * * * * * * * * * * * * * * * * * * * * * * * * * * * //

dimensions      [1 -1 -1 0 0 0 0];

internalField   nonuniform List<scalar> 
531
(
6.23303107e-05
6.23302813e-05
6.2330478e-05
6.23305472e-05
6.2330475e-05
6.23304228e-05
6.2330446e-05
6.23304741e-05
6.23304673e-05
6.23304547e-05
6.23304565e-05
6.23304614e-05
6.2330461e-05
6.23304592e-05
6.23304593e-05
6.23304599e-05
6.23304599e-05
6.23304597e-05
6.23304597e-05
6.23304598e-05
6.23304598e-05
6.23304597e-05
6.23304597e-05
6.23304597e-05
6.23304597e-05
6.23304597e-05
6.23304597e-05
6.23304597e-05
6.23304597e-05
6.23304597e-05
6.23304597e-05
6.23304597e-05
6.23304597e-05
6.23304597e-05
6.23304597e-05
6.23304597e-05
6.23304597e-05
6.23304597e-05
6.23304597e-05
6.23304597e-05
6.23304597e-05
6.23304597e-05
6.23304597e-05
6.23304597e-05
6.23304597e-05
6.23304597e-05
6.23304597e-05
6.23304597e-05
6.23304597e-05
6.23304597e-05
6.23304597e-05
6.23304597e-05
6.23304597e-05
6.23304597e-05
6.23304597e-05
6.23304597e-05
6.23304597e-05
6.23304597e-05
6.23304597e-05
6.23304597e-05
6.23304597e-05
6.23304597e-05
6.23304597e-05
6.23304597e-05
6.23304597e-05
6.23304597e-05
6.23304597e-05
6.23304597e-05
6.23304597e-05
6.23304597e-05
6.23304597e-05
6.23304597e-05
6.23304597e-05
6.23304597e-05
6.23304597e-05
6.23304597e-05
6.23304597e-05
6.23304597e-05
6.23304597e-05
6.23304597e-05
6.23304597e-05
6.23304597e-05
6.23304597e-05
6.23304597e-05
6.23304597e-05
6.23304597e-05
6.23304597e-05
6.23304597e-05
6.23304597e-05
6.23304597e-05
6.23304597e-05
6.23304597e-05
6.23304597e-05
6.23304597e-05
6.23304597e-05
6.23304597e-05
6.23304597e-05
6.23304597e-05
6.23304597e-05
6.23304597e-05
6.23304597e-05
6.23304597e-05
6.23304597e-05
6.23304597e-05
6.23304597e-05
6.23304597e-05
6.23304597e-05
6.23304597e-05
6.23304597e-05
6.23304597e-05
6.23304597e-05
6.23304597e-05
6.23304597e-05
6.23304597e-05
6.23304597e-05
6.23304597e-05
6.23304597e-05
6.23304597e-05
6.23304597e-05
6.23304597e-05
6.23304597e-05
6.23304597e-05
6.23304597e-05
6.23304597e-05
6.23304597e-05
6.23304597e-05
6.23304597e-05
6.23304597e-05
6.23304597e-05
6.23304597e-05
6.23304597e-05
6.23304597e-05
6.23304597e-05
6.23304597e-05
6.23304597e-05
6.23304597e-05
6.23304597e-05
6.23304597e-05
6.23304597e-05
6.23304597e-05
6.23304597e-05
6.23304597e-05
6.23304597e-05
6.23304597e-05
6.23304597e-05
6.23304597e-05
6.23304597e-05
6.23304597e-05
6.23304597e-05
6.23304597e-05
6.23304597e-05
6.23304597e-05
6.23304597e-05
6.23304597e-05
6.23304597e-05
6.23304597e-05
6.23304597e-05
6.23304597e-05
6.23304597e-05
6.23304597e-05
6.23304597e-05
6.23304597e-05
6.23304597e-05
6.23304597e-05
6.23304597e-05
6.23304597e-05
6.23304597e-05
6.23304597e-05
6.23304597e-05
6.23304597e-05
6.23304597e-05
6.23304597e-05
6.23304597e-05
6.23304597e-05
6.23304597e-05
6.23304597e-05
6.23304597e-05
6.23304597e-05
6.23304597e-05
6.23304597e-05
6.23304597e-05
6.23304597e-05
6.23304597e-05
6.23304597e-05
6.23304597e-05
6.23304597e-05
6.23304597e-05
6.23304597e-05
6.23304597e-05
6.23304597e-05
6.23304597e-05
6.23304597e-05
6.23304597e-05
6.23304597e-05
6.23304597e-05
6.23304597e-05
6.23304597e-05
6.23304597e-05
6.23304597e-05
6.23304597e-05
6.23304597e-05
6.23304597e-05
6.23304597e-05
6.23304597e-05
6.23304597e-05
6.23304597e-05
6.23304597e-05
6.23304597e-05
6.23304597e-05
6.23304597e-05
6.23304597e-05
6.23304597e-05
6.23304597e-05
6.23304597e-05
6.23304597e-05
6.23304597e-05
6.23304597e-05
6.23304597e-05
6.23304597e-05
6.23304597e-05
6.23304597e-05
6.23304597e-05
6.23304597e-05
6.23304597e-05
6.23304597e-05
6.23304597e-05
6.23304597e-05
6.23304597e-05
6.23304597e-05
6.23304597e-05
6.23304597e-05
6.23304597e-05
6.23304597e-05
6.23304597e-05
6.23304597e-05
6.23304597e-05
6.23304597e-05
6.23304597e-05
6.23304597e-05
6.23304597e-05
6.23304597e-05
6.23304597e-05
6.23304597e-05
6.23304597e-05
6.23304597e-05
6.23304597e-05
6.23304597e-05
6.23304597e-05
6.23304597e-05
6.23304597e-05
6.23304597e-05
6.23304597e-05
6.23304597e-05
6.23304597e-05
6.23304597e-05
6.23304597e-05
6.23304597e-05
6.23304597e-05
6.23304597e-05
6.23304597e-05
6.23304597e-05
6.23304597e-05
6.23304597e-05
6.23304597e-05
6.23304597e-05
6.23304597e-05
6.23304597e-05
6.23304597e-05
6.23304597e-05
6.23304597e-05
6.23304597e-05
6.23304597e-05
6.23304597e-05
6.23304597e-05
6.23304597e-05
6.23304597e-05
6.23304597e-05
6.23304597e-05
6.23304597e-05
6.23304597e-05
6.23304597e-05
6.23304597e-05
6.23304597e-05
6.23304597e-05
6.23304597e-05
6.23304597e-05
6.23304597e-05
6.23304597e-05
6.23304597e-05
6.23304597e-05
6.23304597e-05
6.23304597e-05
6.23304597e-05
6.23304598e-05
6.23304598e-05
6.23304597e-05
6.23304597e-05
6.23304597e-05
6.23304598e-05
6.23304597e-05
6.23304597e-05
6.23304597e-05
6.23304597e-05
6.23304597e-05
6.23304597e-05
6.23304597e-05
6.23304597e-05
6.23304597e-05
6.23304597e-05
6.23304597e-05
6.23304597e-05
6.23304597e-05
6.23304597e-05
6.23304598e-05
6.23304597e-05
6.23304597e-05
6.23304597e-05
6.23304597e-05
6.23304597e-05
6.23304598e-05
6.23304597e-05
6.23304597e-05
6.23304597e-05
6.23304597e-05
6.23304598e-05
6.23304597e-05
6.23304597e-05
6.23304597e-05
6.23304597e-05
6.23304597e-05
6.23304597e-05
6.23304597e-05
6.23304598e-05
6.23304597e-05
6.23304597e-05
6.23304597e-05
6.23304597e-05
6.23304597e-05
6.23304597e-05
6.23304597e-05
6.23304597e-05
6.23304597e-05
6.23304597e-05
6.23304597e-05
6.23304597e-05
6.23304597e-05
6.23304597e-05
6.23304597e-05
6.23304597e-05
6.23304597e-05
6.23304597e-05
6.23304597e-05
6.23304597e-05
6.23304597e-05
6.23304597e-05
6.23304597e-05
6.23304597e-05
6.23304597e-05
6.23304597e-05
6.23304597e-05
6.23304597e-05
6.23304597e-05
6.23304597e-05
6.23304597e-05
6.23304597e-05
6.23304596e-05
6.23304596e-05
6.23304595e-05
6.23304593e-05
6.23304591e-05
6.23304588e-05
6.23304584e-05
6.23304578e-05
6.23304569e-05
6.23304556e-05
6.23304537e-05
6.23304511e-05
6.23304473e-05
6.23304421e-05
6.23304347e-05
6.23304245e-05
6.23304103e-05
6.23303907e-05
6.23303638e-05
6.23303271e-05
6.23302772e-05
6.23302101e-05
6.23301194e-05
6.23299986e-05
6.23298364e-05
6.23296257e-05
6.23293459e-05
6.23289657e-05
6.23285054e-05
6.23279119e-05
6.23270098e-05
6.23260445e-05
6.23259635e-05
6.23262554e-05
6.23199449e-05
6.23091351e-05
6.23190803e-05
6.23578906e-05
6.23361904e-05
6.22063601e-05
6.21720191e-05
6.23945628e-05
6.38369492e-05
6.2626073e-05
6.13061122e-05
6.11400496e-05
6.23882101e-05
6.39259687e-05
6.39265579e-05
6.33681723e-05
6.15099354e-05
6.24781474e-05
6.40040989e-05
6.39170721e-05
6.40317148e-05
6.40461692e-05
6.4142544e-05
6.42293374e-05
6.43861187e-05
6.46374761e-05
6.50441489e-05
6.47520408e-05
6.43826931e-05
6.36519904e-05
6.3745841e-05
6.06129728e-05
6.29758003e-05
6.48778389e-05
6.55492418e-05
6.85261443e-05
6.94379781e-05
7.11178476e-05
7.24203509e-05
7.46279975e-05
7.09871068e-05
7.21899257e-05
6.97465003e-05
7.64238301e-05
7.72895566e-05
7.62332269e-05
7.66104357e-05
7.88286142e-05
8.27669022e-05
8.65084498e-05
9.11108428e-05
0.00010041905
0.000105261665
0.000110369159
0.000114780588
0.000119565438
0.000123575184
0.000127316146
0.000130392979
0.000133478397
0.000136160646
0.000138820372
0.000141166088
0.000143664482
0.000145965179
0.000148224061
0.000150226559
0.000152164919
0.00015403617
0.000155906317
0.00015754744
0.000159152958
0.000160518464
0.000161937727
0.000163080979
0.00016429536
0.000165091553
0.000166113827
0.000167003074
0.000167992706
0.000168774775
0.000169697482
0.000170402295
0.000171239895
0.000171898851
0.000172621517
0.000173203873
0.000173857578
0.000174417603
0.000174994571
0.000175469272
0.0001760021
0.000176428122
0.000176895204
0.000177277714
0.00017776261
0.000178258504
0.000178699778
0.000179141379
0.000179511563
0.000179921923
0.000180257909
0.000180620463
0.000180904446
0.000181226994
0.000181478841
0.000181772243
0.000182017199
0.000182293082
0.000182505436
0.000182742464
0.000182936374
0.000183170514
0.000183358629
0.000183570698
0.000183748518
0.000183933929
0.000184097927
0.000184258814
0.000184410612
0.000184565028
0.000184702489
0.00018484313
0.000184962137
0.000185090613
0.000185201619
0.000185320956
0.000185425806
0.000185536693
0.000185630555
0.000185724272
0.000185811665
)
;

boundaryField
{
    closed
    {
        type            calculated;
        value           nonuniform List<scalar> 0();
    }
    open
    {
        type            calculated;
        value           nonuniform List<scalar> 0();
    }
    sides
    {
        type            empty;
    }
    procBoundary4to3
    {
        type            processor;
        value           uniform 6.23307635e-05;
    }
    procBoundary4to5
    {
        type            processor;
        value           uniform 0.000185898677;
    }
}


// ************************************************************************* //
