/*--------------------------------*- C++ -*----------------------------------*\
| =========                 |                                                 |
| \\      /  F ield         | OpenFOAM: The Open Source CFD Toolbox           |
|  \\    /   O peration     | Version:  2306                                  |
|   \\  /    A nd           | Website:  www.openfoam.com                      |
|    \\/     M anipulation  |                                                 |
\*---------------------------------------------------------------------------*/
FoamFile
{
    version     2.0;
    format      ascii;
    arch        "LSB;label=32;scalar=64";
    class       volScalarField;
    location    "0.00068";
    object      H;
}
// * * * * * * * * * * * * * * * * * * * * * * * * * * * * * * * * * * * * * //

dimensions      [0 0 0 0 0 0 0];

internalField   nonuniform List<scalar> 
531
(
1.81857416e-08
4.81991561e-10
2.49515806e-08
3.90939542e-08
1.76054664e-08
7.57802802e-10
2.21230773e-08
3.74852447e-08
2.10680014e-08
8.79981975e-10
9.03559511e-09
3.80407308e-08
4.16982496e-08
1.63967254e-08
8.90153759e-10
1.37092952e-08
4.14343688e-08
4.31638873e-08
9.73353452e-09
4.9113279e-10
2.96145832e-08
3.86640635e-08
1.21030434e-08
8.38063231e-10
2.43423866e-08
3.690379e-08
1.9079333e-08
9.42229891e-10
7.91070922e-09
3.37734784e-08
4.3498434e-08
4.44104171e-08
2.02134577e-08
8.50595326e-10
1.01779794e-09
1.14595502e-09
2.20845464e-09
3.10560939e-08
3.89315816e-08
4.06999302e-08
4.69484304e-08
4.89429405e-08
2.53546523e-08
6.43936595e-10
1.19575293e-09
1.11200349e-09
1.72985849e-08
4.22915968e-08
4.46169081e-08
1.4119233e-08
8.23438265e-10
1.71969068e-08
4.20435668e-08
4.28400059e-08
1.00321854e-08
8.86379442e-10
1.81471666e-08
4.33907608e-08
4.46305327e-08
1.5204614e-08
8.92086538e-10
1.0631624e-09
1.12625775e-09
1.02861695e-08
3.26138292e-08
3.97427263e-08
4.57451032e-08
4.59549282e-08
1.3216761e-08
1.07451115e-09
6.49759925e-10
3.10009392e-08
4.3919458e-08
3.66364763e-08
1.82200411e-09
1.000476e-09
2.15534237e-08
4.24986266e-08
4.04411298e-08
4.22475384e-09
9.45716201e-10
2.06961776e-08
4.16952384e-08
3.95695854e-08
3.83763275e-09
9.54735791e-10
1.7808329e-08
3.98003391e-08
4.64494555e-08
2.97102736e-08
4.8226136e-10
1.69038438e-08
3.88446071e-08
2.49484686e-08
6.82141124e-10
1.27810356e-08
3.87839247e-08
3.48779724e-08
1.94175514e-09
8.92073889e-10
2.71851564e-08
4.39280889e-08
2.60570916e-08
6.50548478e-10
1.43022396e-08
3.90278601e-08
3.4404933e-08
1.34783085e-09
1.01753738e-09
2.15282792e-08
4.38988309e-08
4.41144385e-08
9.39369467e-09
1.1946816e-09
7.91508904e-10
2.77556369e-08
4.13680012e-08
4.53439892e-08
3.47370911e-08
1.44895664e-09
7.45744208e-10
3.27122733e-08
4.54486123e-08
1.87560675e-08
8.0559779e-10
2.67656683e-08
4.16537114e-08
1.41295362e-08
8.62126173e-10
2.89939248e-08
4.12188159e-08
1.13715958e-08
1.01309553e-09
2.64868404e-08
4.27807746e-08
2.42522504e-08
8.32616171e-10
5.55241868e-10
3.95774472e-08
4.57872304e-08
1.09056867e-08
1.00065005e-09
2.98549134e-08
4.41768534e-08
2.12894559e-08
9.17646487e-10
4.68121417e-09
4.14920748e-08
4.5465914e-08
6.61318991e-09
1.08635861e-09
3.02659773e-08
4.39728285e-08
2.37677198e-08
9.61261165e-10
2.68520834e-09
3.92444747e-08
4.16650027e-08
1.68259434e-09
1.21122447e-09
2.72335013e-08
4.37206632e-08
3.5136094e-08
8.68143237e-10
1.28868894e-09
2.75167858e-08
4.52693285e-08
3.9581314e-08
8.40428334e-10
1.26777931e-09
2.26732676e-08
4.62370964e-08
4.60779281e-08
1.10319094e-09
1.23938869e-09
9.42713538e-09
3.73272816e-08
4.24384824e-08
2.29397798e-08
1.13782064e-09
9.98889554e-10
3.42995812e-08
5.11331961e-08
3.78658614e-08
5.77849644e-10
1.40792401e-09
1.16375641e-09
2.72481856e-08
4.13634515e-08
3.92590084e-08
4.38675106e-08
3.22016978e-08
1.00178966e-09
1.13409023e-09
3.36549273e-08
4.75725839e-08
2.78777167e-08
9.41367028e-10
1.09034918e-08
4.22175427e-08
3.13233598e-08
9.61381542e-10
8.90717832e-09
4.20811819e-08
3.1377308e-08
9.80775129e-10
9.05346726e-09
4.02189824e-08
3.46093386e-08
1.03272103e-09
1.27471877e-09
3.19300675e-08
4.61978417e-08
3.5972513e-08
9.84810524e-10
1.29653516e-09
3.08018391e-08
4.48462228e-08
3.45577173e-08
1.02119834e-09
1.28874796e-09
3.19922587e-08
4.53771874e-08
3.43081518e-08
1.0368582e-09
1.25387003e-09
3.3137649e-08
4.71833233e-08
2.99989072e-08
1.00868051e-09
9.03129817e-09
4.04198503e-08
3.34989792e-08
1.11450922e-09
1.17767701e-09
3.48490255e-08
4.99031951e-08
3.04050879e-08
9.6625585e-10
1.1693336e-08
4.30854767e-08
2.89867688e-08
1.07764435e-09
1.2139694e-08
4.13834416e-08
3.26292225e-08
1.13491225e-09
1.16235605e-09
3.58724337e-08
4.80493067e-08
2.40893158e-08
1.06824911e-09
1.55472242e-08
4.13071829e-08
3.1233089e-08
1.16028115e-09
1.16707577e-09
3.5260924e-08
4.70096088e-08
2.96006286e-08
1.10799039e-09
9.46022025e-10
3.68877984e-08
5.2044008e-08
3.94936623e-08
6.51191884e-10
1.3240272e-09
7.78793124e-10
1.32589809e-09
9.97288412e-10
3.12440918e-08
4.26663009e-08
4.06485e-08
4.40557798e-08
4.90564913e-08
2.36475561e-08
9.46522273e-10
2.33119516e-08
4.42905511e-08
2.1749925e-08
1.04437841e-09
1.77006714e-08
4.02822833e-08
2.95289071e-08
1.05761084e-09
1.1358749e-09
3.41762891e-08
4.58311921e-08
2.1490808e-08
1.00274588e-09
1.78691905e-08
4.12939936e-08
2.96899347e-08
9.85654298e-10
8.54816752e-10
3.92404191e-08
4.70427006e-08
1.70393449e-08
1.04306997e-09
2.06281073e-08
4.15009336e-08
2.79217269e-08
9.93621315e-10
9.30763188e-10
4.09546012e-08
4.57351478e-08
1.64615189e-08
1.1271962e-09
4.5980525e-09
3.78851405e-08
4.4710233e-08
2.1309082e-08
1.06897354e-09
4.0656299e-09
3.97325758e-08
4.53158717e-08
1.86492816e-08
1.07856515e-09
6.84286854e-09
4.07508003e-08
4.48540111e-08
1.54564692e-08
1.07853399e-09
1.00893189e-08
4.28452807e-08
4.40734438e-08
7.58905949e-09
1.11116477e-09
1.63086618e-08
4.46081169e-08
4.37023895e-08
4.89566591e-10
1.14159746e-09
2.09952321e-08
4.4636793e-08
4.31699003e-08
8.45159383e-10
1.14456889e-09
2.36625599e-08
4.45673589e-08
3.99389943e-08
9.34347047e-10
1.12587913e-09
2.69742744e-08
4.63469194e-08
3.51948832e-08
8.46920771e-10
1.06939118e-09
4.13067363e-08
4.03968412e-08
8.86166265e-10
1.18502667e-09
1.98579217e-08
4.37442068e-08
4.50661082e-08
1.54725876e-08
1.13592823e-09
4.71713813e-09
3.53012645e-08
4.36467375e-08
2.80385351e-08
6.85972999e-10
1.34829505e-09
2.1252683e-09
3.30457085e-08
4.99295288e-08
4.77117655e-08
9.01312497e-10
9.18516513e-10
2.91490207e-08
4.62400836e-08
3.49836826e-08
5.89203106e-10
1.01636443e-09
3.16984792e-08
4.54579298e-08
2.51171689e-08
6.66813905e-10
1.35373095e-09
1.26142858e-09
2.72202926e-08
3.90953548e-08
3.44727808e-08
3.44887232e-08
4.06221021e-08
3.5283223e-08
8.09460035e-10
1.74553319e-09
2.07435233e-08
3.04317966e-08
5.04559815e-09
3.4529406e-09
2.43231263e-09
4.60111809e-08
4.9194542e-08
7.13939976e-09
7.00239283e-09
7.16552747e-09
8.51149534e-09
9.25791764e-09
1.03600919e-08
1.12022324e-08
1.21677194e-08
1.28248195e-08
1.3656372e-08
1.39385939e-08
1.41494352e-08
1.3556074e-08
1.0902848e-08
8.85853102e-09
9.32802898e-09
9.85450231e-09
1.05263087e-08
1.13409991e-08
1.24120064e-08
1.33246156e-08
1.50579311e-08
1.46463606e-08
1.14005029e-08
1.09005998e-08
1.11903855e-08
1.27172613e-08
1.42804631e-08
1.56645365e-08
1.5444861e-08
1.49945914e-08
1.00831455e-08
1.54622732e-09
1.57773523e-09
1.63612408e-09
1.63825924e-09
1.6327057e-09
1.62603445e-09
1.46920874e-09
2.74274097e-09
4.47550673e-09
2.49043224e-08
2.45276933e-08
2.06529771e-08
9.08086814e-09
2.36246739e-08
8.76846199e-08
2.44319954e-07
1.80637122e-06
3.83888261e-06
6.3096509e-06
1.41898443e-05
2.96173317e-05
3.92525663e-05
4.90882637e-05
5.92999291e-05
7.22803922e-05
8.75573114e-05
0.000102295542
0.000117549249
0.000133170785
0.000147858899
0.000161465913
0.000174735589
0.000186151665
0.000195932852
0.000204212835
0.000209693634
0.000214398097
0.000218406727
0.000221941636
0.000224953259
0.000227128799
0.000228469551
0.0002284466
0.000227727579
0.000225970368
0.000223436604
0.00022085101
0.000217000905
0.000213544872
0.000208601153
0.000204564462
0.000198884167
0.000194319648
0.000187350619
0.000183130483
0.000178185545
0.000174305827
0.000169517791
0.000165587004
0.000161032494
0.000157142907
0.000152863451
0.000148819882
0.000144518228
0.00014046573
0.00013642594
0.000132371997
0.000128417838
0.00012471769
0.00012121525
0.000117857822
0.000114624837
0.000111647788
0.000108776486
0.00010595881
0.000103189229
0.000100436804
9.76647755e-05
9.49888852e-05
9.22271244e-05
8.94657563e-05
8.68377081e-05
8.45714965e-05
8.21936722e-05
8.00782987e-05
7.78273291e-05
7.58456164e-05
7.37465599e-05
7.19497577e-05
6.99969248e-05
6.83342405e-05
6.64963047e-05
6.49499611e-05
6.32123985e-05
6.18070355e-05
6.03409114e-05
5.91208498e-05
5.7698694e-05
5.65347115e-05
5.51528394e-05
5.4042857e-05
5.26974237e-05
5.16398153e-05
5.04391888e-05
)
;

boundaryField
{
    closed
    {
        type            calculated;
        value           nonuniform List<scalar> 0();
    }
    open
    {
        type            calculated;
        value           nonuniform List<scalar> 0();
    }
    sides
    {
        type            empty;
    }
    procBoundary4to3
    {
        type            processor;
        value           uniform 4.07269741e-08;
    }
    procBoundary4to5
    {
        type            processor;
        value           uniform 4.95266588e-05;
    }
}


// ************************************************************************* //
