/*--------------------------------*- C++ -*----------------------------------*\
| =========                 |                                                 |
| \\      /  F ield         | OpenFOAM: The Open Source CFD Toolbox           |
|  \\    /   O peration     | Version:  2306                                  |
|   \\  /    A nd           | Website:  www.openfoam.com                      |
|    \\/     M anipulation  |                                                 |
\*---------------------------------------------------------------------------*/
FoamFile
{
    version     2.0;
    format      ascii;
    arch        "LSB;label=32;scalar=64";
    class       volScalarField;
    location    "0.00068";
    object      prefDh_H2;
}
// * * * * * * * * * * * * * * * * * * * * * * * * * * * * * * * * * * * * * //

dimensions      [1 1 -3 0 0 0 0];

internalField   nonuniform List<scalar> 
531
(
29.6335569
36.7358072
28.5725689
27.6544613
29.7855006
37.7137807
28.9318776
28.4231512
29.1249503
37.750759
32.5222219
27.9175431
26.0519004
30.1168171
37.74376
30.9253521
26.1596208
25.2623463
32.3358236
36.8634075
28.5860799
27.867174
31.4503235
37.9552643
28.7324304
28.6898201
29.5204081
37.9649086
32.9220637
29.1691876
24.9281471
24.4456723
29.206891
37.5903846
37.7061976
38.0671258
35.276494
28.7613194
27.6598712
26.3446435
22.8814261
21.8691361
28.3103052
37.0238511
38.7188411
38.0908844
29.9759228
25.5809866
24.389819
30.7757799
37.5019686
29.9965305
25.8971571
25.4168029
32.195841
37.6693254
29.7886979
25.0434301
24.3196002
30.4464228
37.6658373
37.8955547
38.1121446
32.0293873
29.2875811
26.8841285
23.6911141
23.5678572
31.070875
38.0895763
36.4925343
28.5479309
24.9553963
28.5437819
35.6885893
37.955511
29.2109526
25.6885689
26.7050956
34.5564091
37.7892344
29.3662367
26.1631403
27.245383
34.6737773
37.7247864
30.0079165
27.008851
23.3913333
28.3401831
36.4737728
30.0148201
27.654451
28.4807766
36.9029776
31.2118163
27.6678225
29.2471644
35.4876967
37.6643162
28.5974584
24.8322851
28.1903785
36.8529328
30.7486483
27.4702517
29.145535
35.7579526
38.0243042
29.1628255
24.8823798
24.6580662
32.4084046
38.2221546
36.849499
28.7564397
26.1218083
23.9447735
29.0947632
35.6574603
37.1115615
28.8428822
23.9964823
29.4502391
37.4087171
28.6854668
26.0964119
30.7697165
37.7120373
28.6605261
26.292224
31.7135039
37.9868773
28.6874264
25.3864872
28.5448966
36.9472685
36.0603921
27.0865772
23.7310646
31.9105075
38.0792321
28.5639685
24.5942159
28.9634326
37.2348603
34.1740876
26.0754071
23.8527515
33.6799052
38.3442464
28.6372321
24.6646648
28.7248014
37.432082
35.1769251
27.2121731
25.9903654
35.8626273
38.5519065
28.7093966
24.7323329
29.0040936
37.5003287
38.8376762
28.6740579
23.8509432
26.9695757
37.5439417
38.5229109
29.1696026
23.4465152
23.4204345
36.3811991
38.3988431
32.3079531
28.0268099
25.5341654
29.0098906
38.0899635
38.189195
28.5228826
20.6764923
27.8051549
36.7200427
38.7592684
38.29628
28.6917343
26.3724802
27.1489351
24.8686187
29.2406847
37.6704478
38.5146271
28.6961413
22.7139859
28.6347623
37.4372498
31.8491841
25.6663809
28.7987438
37.6872757
32.6093441
25.654245
28.819094
37.8068185
32.5364135
26.6064375
29.1897669
37.9455064
38.8695323
28.599435
23.334582
28.7745118
37.8786923
38.8923415
28.6451443
24.0730688
28.9826703
37.9755308
38.8966129
28.7109278
23.7988362
29.0638098
38.0328196
38.8008773
28.6484388
22.8189878
28.6818102
37.8635132
32.5443918
26.5426438
29.2762198
38.2795476
38.7294496
28.542279
21.2896979
28.537068
37.7995361
31.5861348
25.1244448
28.5366926
38.1692053
31.4266667
26.0124906
28.9970353
38.3791913
38.8189454
28.5906976
22.3626368
28.709847
38.0217369
30.3836073
26.1052979
28.8398046
38.424393
38.8391821
28.8758504
22.9706666
28.942371
38.2058286
38.1455389
28.1739977
20.0983351
26.9154649
36.9995066
38.8377996
36.9302118
38.7322097
37.8223584
28.8260028
25.6362589
26.5221649
24.5779556
21.772223
28.7736449
37.9113018
28.8145632
24.5524612
28.9503961
37.913893
29.8623101
26.751199
28.7943627
37.9322062
38.5704044
28.8045047
23.6949652
29.0194573
37.8023492
29.8145328
26.1829662
28.7760903
37.8240601
37.964662
27.0388726
23.0142451
29.9170718
37.9737862
29.2792043
26.0683987
28.6448298
37.8586126
36.1717145
26.2330809
23.7621656
30.1090652
38.054361
34.2652525
27.786201
24.3980706
29.1154066
37.9418116
34.558679
26.8719858
24.0277639
29.5823616
37.9578705
33.3437754
26.3932993
24.2719456
30.3780285
37.8937934
32.0964519
25.3916433
24.6753262
33.2270797
37.9687865
30.2859319
24.4851815
24.8344139
37.0552277
38.12988
29.4773278
24.417586
25.1293887
38.1689557
38.2216701
29.0944205
24.4400652
26.8512158
38.3185062
38.2498598
28.767775
23.4469848
29.3340265
37.774516
36.2079053
26.378257
26.8483594
38.0284077
38.220269
29.6031529
24.7558639
23.9795605
30.3689981
38.369149
34.2649129
28.8046524
25.055396
28.4368857
36.6118743
38.8833667
35.2197086
28.5663329
21.3760905
22.61629
36.4236941
38.1619849
28.3984116
23.4732602
28.9034818
36.907889
38.7044945
27.9177933
23.7411023
27.8503701
37.7113502
40.0223484
39.8733402
27.3553223
26.214181
26.8153964
26.7938882
25.1272366
25.8380642
39.7984755
42.6446006
28.2858401
24.7405887
35.8255552
41.1958567
38.4395963
19.2374119
18.0108702
34.9419438
38.7966722
38.1124153
38.4671965
38.2952713
38.3030946
38.3102988
38.4588022
38.6653427
39.1133709
39.6757273
40.6836831
42.4255911
46.3591221
47.1135781
43.7625984
41.0660818
38.4395983
36.3121323
34.2800465
33.3841539
30.9167024
30.3579289
29.5581813
27.7452684
26.7818457
25.536989
25.4816061
22.7153082
20.4541157
16.6918391
23.1449626
43.7976075
39.2331769
31.9051524
28.1462839
19.8715484
17.0293455
8.32496372
39.518719
53.7984189
92.7473325
96.3691899
125.149183
73.3507601
147.574108
213.875505
260.559307
425.265603
512.910055
614.314737
777.699676
997.222924
1098.6702
1205.19956
1298.60038
1412.26035
1526.7656
1637.57924
1741.81842
1849.08478
1946.78398
2042.99963
2133.86443
2221.54342
2300.31842
2377.34679
2435.05599
2493.37286
2547.15586
2601.25231
2651.59987
2699.35508
2748.4448
2792.1378
2840.81534
2878.71722
2924.3223
2967.37117
3014.41149
3054.76038
3096.9113
3135.53001
3175.83781
3213.98308
3260.93238
3290.1598
3317.75226
3342.77417
3368.87958
3392.65339
3417.59331
3440.31777
3463.58778
3486.57017
3510.33675
3532.92525
3555.73775
3579.17936
3602.48552
3623.61685
3644.56825
3663.49323
3682.42706
3698.88985
3715.53863
3730.82389
3746.6323
3762.48031
3779.31853
3794.76699
3811.51554
3828.20427
3845.46077
3859.59499
3875.1838
3888.32845
3903.01642
3915.30613
3929.44707
3941.10251
3954.34039
3965.03831
3977.41061
3987.27899
3998.90564
4007.85369
4017.91847
4025.76196
4035.44373
4042.86184
4052.19119
4059.21106
4068.21532
4074.86664
4083.26016
)
;

boundaryField
{
    closed
    {
        type            calculated;
        value           nonuniform List<scalar> 0();
    }
    open
    {
        type            calculated;
        value           nonuniform List<scalar> 0();
    }
    sides
    {
        type            empty;
    }
    procBoundary4to3
    {
        type            processor;
        value           uniform 26.7618508;
    }
    procBoundary4to5
    {
        type            processor;
        value           uniform 4089.26052;
    }
}


// ************************************************************************* //
