/*--------------------------------*- C++ -*----------------------------------*\
| =========                 |                                                 |
| \\      /  F ield         | OpenFOAM: The Open Source CFD Toolbox           |
|  \\    /   O peration     | Version:  2306                                  |
|   \\  /    A nd           | Website:  www.openfoam.com                      |
|    \\/     M anipulation  |                                                 |
\*---------------------------------------------------------------------------*/
FoamFile
{
    version     2.0;
    format      ascii;
    arch        "LSB;label=32;scalar=64";
    class       volScalarField;
    location    "0.00068";
    object      Z;
}
// * * * * * * * * * * * * * * * * * * * * * * * * * * * * * * * * * * * * * //

dimensions      [0 0 0 0 0 0 0];

internalField   nonuniform List<scalar> 
531
(
0.0143961265
0.0141459036
0.0145060408
0.0147498263
0.0143875
0.0141169302
0.0144596161
0.0147284479
0.0144430427
0.0141084109
0.0142648261
0.0147316855
0.0147781681
0.0143697024
0.0141077972
0.0143316339
0.0147741499
0.0147966776
0.0142733658
0.0141437772
0.0145895249
0.0147441772
0.0143064594
0.0141090781
0.0144974361
0.014720696
0.0144119538
0.0141019741
0.0142495844
0.0146697176
0.014797158
0.0148089085
0.0144280221
0.0141120956
0.0140994047
0.0140867358
0.0141733475
0.0146171747
0.0147463111
0.0147609764
0.0148357949
0.014865084
0.0145093104
0.0141321085
0.0140771447
0.014088925
0.0143858352
0.0147822282
0.0148130539
0.0143356862
0.0141148746
0.0143841923
0.0147831916
0.0147920704
0.0142778986
0.0141088379
0.0143990119
0.0147971935
0.014811522
0.0143516949
0.014108488
0.0140942993
0.0140877073
0.0142829709
0.0146511743
0.0147499684
0.0148251314
0.0148275677
0.0143235176
0.0140915827
0.0141380879
0.0146133524
0.0148091151
0.0147130329
0.0141688051
0.0140980719
0.0144538193
0.0147898095
0.0147621273
0.0141998942
0.0141035396
0.0144404274
0.0147805448
0.014752813
0.014194804
0.0141035889
0.0143971889
0.0147535225
0.0148370646
0.0145878248
0.0141491296
0.0143782708
0.0147443028
0.0145045466
0.0141310299
0.014318084
0.014743219
0.0146897899
0.0141700547
0.0141085049
0.0145466556
0.0148060453
0.0145202814
0.0141336902
0.0143402738
0.014744994
0.0146803329
0.0141623808
0.0140962014
0.0144524883
0.0148065724
0.0148065121
0.0142695115
0.0140817592
0.0141243654
0.01455908
0.0147717967
0.0148210025
0.0146854283
0.0141635598
0.0141244107
0.014647108
0.0148256207
0.0144037685
0.0141170892
0.0145404503
0.0147780575
0.0143356158
0.0141100225
0.0145796179
0.0147718271
0.0142961507
0.0140968832
0.0145354945
0.0147898628
0.0144927837
0.0141204464
0.014152016
0.0147500463
0.0148275879
0.0142889442
0.0140968212
0.0145934511
0.0148065231
0.0144442926
0.0141113837
0.0142059729
0.0147737456
0.0148218248
0.0142310484
0.0140882969
0.0146016714
0.0148029267
0.0144867656
0.0141062233
0.014179744
0.0147450823
0.0147760485
0.0141672494
0.0140775371
0.0145491365
0.0147980942
0.0146911753
0.0141118806
0.0140694411
0.0145536651
0.0148162736
0.0147480161
0.0141132795
0.0140737094
0.0144739248
0.0148322507
0.0148267243
0.0141604814
0.0140768912
0.0142712351
0.0147188948
0.0147847589
0.0144761805
0.0140870972
0.0140958537
0.0146705513
0.0148995715
0.014726255
0.0141399959
0.0140613054
0.0140832844
0.0145491429
0.014777017
0.0147442788
0.014805358
0.014643426
0.0141008924
0.0140833543
0.0146615842
0.0148500094
0.0145595131
0.0141075474
0.0142907184
0.0147823128
0.0146223401
0.0141035214
0.0142626354
0.0147787785
0.0146235516
0.0141009457
0.0142648303
0.0147552696
0.0146844258
0.014095933
0.0140701781
0.0146302881
0.0148276327
0.0147034266
0.0140999322
0.0140684062
0.014611171
0.0148107982
0.0146809034
0.0140964345
0.0140689337
0.0146328453
0.014817803
0.0146776196
0.0140947744
0.0140722716
0.0146519747
0.0148409627
0.0145975902
0.0140984333
0.0142645305
0.0147585107
0.0146663413
0.0140869365
0.0140783299
0.0146803386
0.0148761874
0.0146027545
0.0141020222
0.0143012289
0.0147913915
0.0145777692
0.0140905875
0.0143079298
0.0147699222
0.0146476717
0.0140845562
0.0140786101
0.014698917
0.0148530171
0.0144924404
0.0140926887
0.0143581935
0.0147700443
0.0146213107
0.014082338
0.0140780993
0.0146917115
0.014840616
0.0145941549
0.0140881003
0.0140998935
0.0147124493
0.0149098298
0.0147451844
0.0141319216
0.0140668668
0.0141242868
0.0140676286
0.0140996432
0.0146213192
0.0147928736
0.0147632608
0.0148029162
0.0148651393
0.0144853466
0.0141022284
0.0144798198
0.014808489
0.0144528759
0.0140954349
0.0143914915
0.0147594174
0.0145908758
0.0140943238
0.0140827151
0.014672024
0.0148277885
0.0144491892
0.0140994687
0.0143938598
0.0147713281
0.0145934527
0.0141004317
0.0141078661
0.0147419732
0.0148432039
0.0143785309
0.014094928
0.0144374914
0.0147738079
0.0145604371
0.0140995276
0.0141575855
0.0147645339
0.0148269895
0.0143709791
0.0140881992
0.014204841
0.0147263442
0.0148159073
0.0144474755
0.014093429
0.0141977948
0.0147495297
0.0148226283
0.0144045852
0.0140925935
0.0142349896
0.0147630585
0.0148164152
0.0143556318
0.0140932322
0.014280218
0.0147916086
0.0148058616
0.0142441454
0.0140901757
0.0143728315
0.0148154714
0.0148001162
0.0141415769
0.0140864439
0.0144481004
0.0148143787
0.0147936238
0.0141064102
0.0140853564
0.0144907987
0.0148130583
0.0147536541
0.0140989648
0.0140864155
0.0145453679
0.0148356784
0.0146963811
0.0141103815
0.0141595971
0.0147757603
0.0147639558
0.0141051143
0.0140824729
0.0144289081
0.014799265
0.0148142255
0.0143556939
0.0140845785
0.0142063998
0.0146915084
0.0148042659
0.0145595494
0.0141342447
0.0140647031
0.0141720851
0.0146493058
0.0148820152
0.0148510881
0.014157817
0.0141015871
0.0145787106
0.0148332029
0.0146872663
0.0141370109
0.0140897217
0.0146171342
0.0148184315
0.0144976099
0.0141228574
0.0140553402
0.0140629261
0.0145288139
0.0147258695
0.0146513647
0.0146513623
0.014738495
0.0146527851
0.0140932722
0.0140149817
0.014419446
0.0145487409
0.0142094281
0.0140280844
0.0141220005
0.0147482322
0.0147827116
0.014178084
0.0140391591
0.0140566579
0.0140234068
0.0140156467
0.0139957532
0.0139799831
0.0139566607
0.0139365941
0.0139033187
0.0138764903
0.0138320209
0.0137744716
0.0136703786
0.0135809383
0.0135305586
0.0134863442
0.0134380789
0.0133926993
0.013339887
0.0133062958
0.0132215796
0.0131469808
0.0129641912
0.0128461299
0.012773793
0.0126644062
0.0126051956
0.012552775
0.0125475296
0.0124932143
0.0122313171
0.0117315266
0.0116919292
0.0116647592
0.0116619048
0.01162135
0.011649949
0.0115630346
0.0110569939
0.010915663
0.0111403953
0.0111537123
0.0110852085
0.0109971706
0.0112668434
0.011584911
0.0117387402
0.0121048931
0.0122780011
0.0123650678
0.0127200703
0.013053843
0.0132331409
0.0133658599
0.0135231593
0.0136856842
0.0138858834
0.0140531216
0.014234636
0.0144035286
0.014573375
0.0147232402
0.014875474
0.0150067827
0.0151293065
0.0152368573
0.015315307
0.0153860666
0.0154488784
0.0155059725
0.0155530676
0.0155940003
0.0156371549
0.0156752524
0.0157211527
0.0157532493
0.0157935899
0.0158295145
0.0158648614
0.0158976018
0.0159247237
0.0159547192
0.0159796194
0.0160081749
0.0160389409
0.0160612917
0.0160747815
0.0160910737
0.0161027355
0.0161173884
0.016128293
0.0161412093
0.0161513708
0.0161643158
0.0161756458
0.0161886681
0.0161996926
0.0162126723
0.016224086
0.0162351957
0.0162449316
0.016254331
0.0162627839
0.0162705491
0.0162776504
0.0162846976
0.0162913185
0.0162991135
0.0163068259
0.0163145532
0.0163223187
0.0163310798
0.0163390236
0.0163458148
0.0163526002
0.0163587586
0.0163649567
0.0163705501
0.0163765041
0.0163818238
0.0163871738
0.0163918254
0.0163965336
0.0164005907
0.0164047278
0.0164081224
0.0164111767
0.0164138101
0.0164165632
0.0164188706
0.0164213292
0.016423323
0.0164254931
0.0164271849
0.0164288064
)
;

boundaryField
{
    closed
    {
        type            zeroGradient;
    }
    open
    {
        type            zeroGradient;
    }
    sides
    {
        type            empty;
    }
    procBoundary4to3
    {
        type            processor;
        value           uniform 0.0147699681;
    }
    procBoundary4to5
    {
        type            processor;
        value           uniform 0.0164299553;
    }
}


// ************************************************************************* //
