/*--------------------------------*- C++ -*----------------------------------*\
| =========                 |                                                 |
| \\      /  F ield         | OpenFOAM: The Open Source CFD Toolbox           |
|  \\    /   O peration     | Version:  2306                                  |
|   \\  /    A nd           | Website:  www.openfoam.com                      |
|    \\/     M anipulation  |                                                 |
\*---------------------------------------------------------------------------*/
FoamFile
{
    version     2.0;
    format      ascii;
    arch        "LSB;label=32;scalar=64";
    class       volScalarField;
    location    "0.00064";
    object      h;
}
// * * * * * * * * * * * * * * * * * * * * * * * * * * * * * * * * * * * * * //

dimensions      [0 2 -2 0 0 0 0];

internalField   nonuniform List<scalar> 
531
(
-5117.7971
1387.77215
9129.31319
4600.96491
-4057.71733
-1855.99174
8962.35126
10155.562
4603.15715
-3082.72375
-5784.9371
-4289.14527
8412.3974
9003.61723
-1473.7236
-4241.53369
2191.72522
9711.50422
9508.57804
-1068.90517
-4724.88559
-126.800335
9250.93766
9792.09802
803.905152
-4837.04525
-2224.09787
8419.01237
10215.7581
6251.09644
-2750.43843
-5548.20917
-1580.61835
8788.26203
9251.78586
-976.928923
-5303.00447
-2411.08072
7932.1739
10268.5497
8185.21906
-1798.15139
-5259.63608
-723.072258
8826.04859
9148.81019
-1572.32744
-5978.88501
-2015.87196
8224.9781
6064.79499
-3825.03631
-3560.48852
7922.99677
9547.88857
2115.45459
-4384.1922
-628.686395
8626.79017
7221.66283
-2854.19473
-3999.60416
4336.98267
9746.64573
7843.06085
-2355.61569
-4881.10783
951.68564
9083.40388
8468.76227
-1682.57252
-4890.75058
-1465.28686
8309.31919
10031.8962
5617.32347
-3609.34528
-5566.99182
1847.3085
9079.8589
6688.36013
-3235.37132
-5016.66041
2566.11956
9422.02848
7179.88447
-131.412663
-1085.74526
-2741.17817
-3321.01561
1652.40638
9243.39069
8757.22348
-1649.84073
-3858.07185
3838.30668
9232.8774
2523.23423
-3863.25899
2300.70805
8898.61641
2247.383
-3897.10293
2904.16677
8978.01919
1955.35565
-2453.11265
3793.95672
5555.69197
-1381.72403
-2832.11398
6705.80987
9209.46747
474.167865
-3592.11729
3200.05943
9748.17755
9496.54285
1505.0125
-2312.1742
-2403.54285
-3608.40135
-3840.70991
4566.16228
9873.16093
7839.15034
-2245.51814
-3640.50738
4886.19215
9865.49355
7182.61045
-2254.21893
-4865.07473
-1247.62206
8646.52828
9873.67617
3749.34732
-1558.62709
-1562.47021
-1834.1396
-3115.57035
-1119.67991
8797.89813
9659.65134
855.656118
-3618.58282
2401.91232
9568.66851
9837.92751
2770.56376
-1742.72265
-1098.85674
-772.221828
-2822.35785
-2836.10097
7184.06099
10245.519
10184.5936
2050.92479
-1806.87555
-906.666292
-541.471356
-2684.84286
-2817.33172
7431.69972
10272.2995
10054.4791
1439.69417
-1887.8667
-688.845044
-243.082399
-2500.61869
-2609.81692
7423.43692
10316.4309
8720.26953
-917.700373
-3047.54421
1668.49383
3720.02539
-1425.95395
-2738.43057
5983.73678
10032.3061
6999.74201
-2881.99851
-4940.16635
1705.52181
9278.83629
7882.6144
-3521.96163
-5008.67421
5104.57515
8825.92264
-959.297551
-4327.08824
4659.74845
9716.42911
6068.49534
-4050.22835
-4785.74919
6423.37672
8953.24827
-1593.43339
-4284.19842
4994.13985
9726.67396
5804.37059
-4365.87675
-4852.76288
6900.98129
8904.94082
-1755.84809
-4250.38052
4139.78119
9959.93307
8848.02343
157.244301
-2392.62314
-2651.858
-3864.26543
-1696.2676
8617.02837
10279.5848
5856.33436
-3328.08908
-4341.83545
4112.37319
9743.61227
7542.68779
-3222.64254
-4932.63989
4295.14002
9243.80878
2092.96229
-3978.87399
-303.939803
9027.19332
10363.9006
5356.1194
-1725.19385
-3025.58763
-4570.78879
-5147.19754
2242.06866
9120.91877
10012.8992
10038.6355
4898.91181
-2390.37066
-4950.75985
-5428.56211
2832.32229
9197.51374
4389.52729
-4692.08935
-3343.83009
8396.64943
8286.49614
-3232.31865
-3215.02558
8284.99533
8153.332
-2997.44441
-2902.75075
8293.80842
8552.65647
-2932.52243
-3698.13023
7236.78118
9427.74977
614.165697
-4045.93045
946.878249
9202.61488
8773.25659
-2516.96824
-5004.13738
2534.82062
8958.20388
3274.03156
-4247.85234
-1188.7912
8700.0372
9077.49022
-1660.7979
-4792.78916
2725.19259
8915.25305
2794.12293
-4100.37674
-200.224995
8304.5524
10245.7353
9754.65254
976.880551
-2871.69533
-3156.79937
-4496.9485
-4712.08456
5078.27734
9808.25427
7527.11767
-2384.90183
-4026.75837
3579.21109
9433.95779
6142.89566
-3614.65031
-4458.13594
5918.10871
8995.16336
282.827621
-3859.46069
3254.92578
9341.55143
6075.40999
-3781.32264
-4823.2994
5338.01734
8875.01487
268.292833
-3774.23244
3296.03237
9330.22344
5881.3974
-3902.7785
-4702.88846
5769.72763
8779.84039
-55.028414
-3865.80004
3680.21406
9389.23176
5750.183
-3917.52997
-4483.31179
5927.16118
8747.25521
-252.300125
-3684.16053
3752.59876
9405.33211
5737.51751
-3891.07507
-4461.94974
6233.75186
8597.48086
-556.351452
-3670.91965
4287.95187
9496.37827
5512.95466
-3621.61693
-4607.91368
4334.84304
9335.0879
4979.91158
-4391.54772
-4950.04866
6064.75605
8059.20348
-1705.70582
-3554.59133
6502.62583
8129.90041
-1706.71601
-3020.53012
6993.43061
7993.80909
-1950.25633
-2769.90458
7302.20773
8507.75405
-1176.63385
-3529.15913
4229.69091
9383.21365
5802.42984
-3966.51924
-4726.67055
5380.79165
7352.42011
-1871.49977
-2964.95605
6584.40453
7141.89655
-2583.7594
-2052.01693
7912.04678
5997.00986
-2799.51543
-735.541438
8501.39962
8598.44908
-1770.40985
-3829.74012
2428.19321
9280.84675
8115.95013
-1852.4365
-4402.98985
1279.22864
9103.22169
8869.95562
164.895475
-4401.08982
-4918.01445
3168.87416
9258.62632
6778.22784
-2851.85505
-4321.2883
3184.36569
9251.20135
6530.54064
-3046.1838
-4477.51697
3236.53479
9256.66889
6127.48762
-3262.64884
-4500.98037
3783.65442
9351.14947
5951.08331
-3398.89808
-4502.62555
4754.30477
9421.91851
4893.46045
-4123.3607
-4336.24571
6742.18731
8516.55512
-1311.55772
-3599.09826
5373.74755
9553.48316
4585.12925
-4223.48795
-4531.45923
7160.28853
8594.90694
-1377.80642
-3676.38674
5374.90701
9569.06025
4514.54458
-4257.73094
-4522.14161
7321.78718
8590.52261
-1396.12603
-3620.76994
5398.17166
9607.45344
4699.15558
-4058.71334
-4584.0119
5728.90133
9495.01998
3830.82391
-4649.15767
-4698.95312
7629.56734
8646.41604
-1800.74075
-3747.90107
5754.38064
9620.23008
4409.97849
-3723.53408
-4398.7952
3289.61014
9705.78256
10024.3974
2619.29307
-4809.60609
-4871.27931
6932.41755
9459.9715
2638.48462
-5201.6732
-4911.67947
7561.28464
8545.90828
-2109.07345
-3707.49733
6516.69447
9552.98955
2869.48267
-5040.60762
-4476.71975
7782.91194
8345.1897
-2606.08733
-3420.09747
7603.43871
8403.18114
-2235.88551
-3156.12115
7651.05872
8951.34865
-1281.48434
-3096.41888
5871.00361
9782.15696
5934.91145
-2211.75565
-5368.91587
-3424.2412
8020.40754
8239.8383
-2574.12042
-3715.36732
6279.9097
9558.20842
4010.47385
-4274.77985
-4533.63394
6576.46423
9455.54547
3131.0194
-4571.41567
-3937.06484
7782.80996
8566.93811
-1514.24958
-3364.54338
5095.09046
)
;

boundaryField
{
    closed
    {
        type            lookUpEnthalpy;
        h0              nonuniform List<scalar> 0();
        value           nonuniform List<scalar> 0();
    }
    open
    {
        type            zeroGradient;
    }
    sides
    {
        type            empty;
    }
    procBoundary3to2
    {
        type            processor;
        value           uniform -1680.18542;
    }
    procBoundary3to4
    {
        type            processor;
        value           uniform 9779.35351;
    }
}


// ************************************************************************* //
