/*--------------------------------*- C++ -*----------------------------------*\
| =========                 |                                                 |
| \\      /  F ield         | OpenFOAM: The Open Source CFD Toolbox           |
|  \\    /   O peration     | Version:  2306                                  |
|   \\  /    A nd           | Website:  www.openfoam.com                      |
|    \\/     M anipulation  |                                                 |
\*---------------------------------------------------------------------------*/
FoamFile
{
    version     2.0;
    format      ascii;
    arch        "LSB;label=32;scalar=64";
    class       volScalarField;
    location    "0.00044";
    object      H2O;
}
// * * * * * * * * * * * * * * * * * * * * * * * * * * * * * * * * * * * * * //

dimensions      [0 0 0 0 0 0 0];

internalField   nonuniform List<scalar> 
530
(
0.140885578
0.140864732
0.140851882
0.140822329
0.140806677
0.140769917
0.140752008
0.140708733
0.14068839
0.140639121
0.140616276
0.140561472
0.140536112
0.140476191
0.140448336
0.140383685
0.140353387
0.140284365
0.140251419
0.14017775
0.140142201
0.140064579
0.140026832
0.139945521
0.139905672
0.139820905
0.139779064
0.139691061
0.139647346
0.139556315
0.139510846
0.139416996
0.139369889
0.139273427
0.139224792
0.139125928
0.13907587
0.138974819
0.138923439
0.138820313
0.138767431
0.138662388
0.138608197
0.138501569
0.138446115
0.138338117
0.138281427
0.138172285
0.138114379
0.13800442
0.137946135
0.137836807
0.137777318
0.137667545
0.137606922
0.137496874
0.137435216
0.137325027
0.13726247
0.137152233
0.137088951
0.136978727
0.136914911
0.136804747
0.136740569
0.136630549
0.136566105
0.136456398
0.136391692
0.136282253
0.136217349
0.136116313
0.13604837
0.135946937
0.135872083
0.135778201
0.135707483
0.135608321
0.135536202
0.135439213
0.135365998
0.135270827
0.135196734
0.135103336
0.135028542
0.134936898
0.134861578
0.134771672
0.134696012
0.134607814
0.134532002
0.134445468
0.134369687
0.134284767
0.134209183
0.134126036
0.134051088
0.133969677
0.133895343
0.133815588
0.133741978
0.133663857
0.133591066
0.133514563
0.133442678
0.133367785
0.133296882
0.133223594
0.133153743
0.133082062
0.133013325
0.132943253
0.132876007
0.132807953
0.132741967
0.13267546
0.132610689
0.132545719
0.132482194
0.132418749
0.1323565
0.132294566
0.132233617
0.132173181
0.132113556
0.132054604
0.131996321
0.13193884
0.131881914
0.131825891
0.131770334
0.131715758
0.131661577
0.131608434
0.131555637
0.131503913
0.131452503
0.131402186
0.131352162
0.131303238
0.131254601
0.131207056
0.131159802
0.131113621
0.131067745
0.131022914
0.130978408
0.130934912
0.130891768
0.130849591
0.1308078
0.130766926
0.130726475
0.130686889
0.130647764
0.130609451
0.130571638
0.130534581
0.130498062
0.130462247
0.13042705
0.130392634
0.130358812
0.130325575
0.130292972
0.130260757
0.130229018
0.130197763
0.130167257
0.13013717
0.13010787
0.130078935
0.130050817
0.130023016
0.129996058
0.12996937
0.129943552
0.129917956
0.129893257
0.129868732
0.129845132
0.129821881
0.129800252
0.129778849
0.129758242
0.129737829
0.129718215
0.129698759
0.129680108
0.129661577
0.129643857
0.129626219
0.129609399
0.129592626
0.129576672
0.129560735
0.129545616
0.129530485
0.12951617
0.129501818
0.129488274
0.129474673
0.129461872
0.129448994
0.129436904
0.129424722
0.129413316
0.129401803
0.129391051
0.129380182
0.129370056
0.129359805
0.129350277
0.12934062
0.129331664
0.129322577
0.129314166
0.129305625
0.129297733
0.129289716
0.129282319
0.129274803
0.129267877
0.12926084
0.129254361
0.129247783
0.129241728
0.129235588
0.129229936
0.129224214
0.129218943
0.12921362
0.129208709
0.129203766
0.129199196
0.129194615
0.129190367
0.129186129
0.129182186
0.129178273
0.129174617
0.129171013
0.129167627
0.129164316
0.129161185
0.129158149
0.129155258
0.129152483
0.129149817
0.129147288
0.129144833
0.129142536
0.129140279
0.129138199
0.129136128
0.129134252
0.129132355
0.12913067
0.129128936
0.129127428
0.129125847
0.129124505
0.129123068
0.129121878
0.129120576
0.129119526
0.129118352
0.12911743
0.129116378
0.129115571
0.129114635
0.129113931
0.129113105
0.129112493
0.129111773
0.129111242
0.129110623
0.129110164
0.12910964
0.129109243
0.12910881
0.129108468
0.129108118
0.129107826
0.129107553
0.129107307
0.129107103
0.129106899
0.129106757
0.129106594
0.129106504
0.129106381
0.129106337
0.129106249
0.129106244
0.129106192
0.129106218
0.129106233
0.129106275
0.129106314
0.129106357
0.129106431
0.129106481
0.129106587
0.129106653
0.129106779
0.129106864
0.129107004
0.129107107
0.129107257
0.129107378
0.129107536
0.129107672
0.129107835
0.129107984
0.129108152
0.129108311
0.129108484
0.12910865
0.129108825
0.129108997
0.129109174
0.129109349
0.129109529
0.129109706
0.129109886
0.129110064
0.129110243
0.129110421
0.129110599
0.129110776
0.129110953
0.129111127
0.129111301
0.129111473
0.129111645
0.129111814
0.129111982
0.129112147
0.129112311
0.129112472
0.129112632
0.129112789
0.129112944
0.129113097
0.129113247
0.129113395
0.129113541
0.129113684
0.129113824
0.129113962
0.129114097
0.12911423
0.12911436
0.129114488
0.129114613
0.129114735
0.129114855
0.129114972
0.129115087
0.129115199
0.129115308
0.129115415
0.12911552
0.129115622
0.129115721
0.129115819
0.129115913
0.129116006
0.129116096
0.129116184
0.129116269
0.129116353
0.129116434
0.129116513
0.12911659
0.129116664
0.129116737
0.129116808
0.129116877
0.129116944
0.129117009
0.129117072
0.129117133
0.129117193
0.12911725
0.129117307
0.129117361
0.129117414
0.129117465
0.129117515
0.129117563
0.12911761
0.129117656
0.1291177
0.129117742
0.129117784
0.129117824
0.129117863
0.1291179
0.129117937
0.129117972
0.129118007
0.12911804
0.129118072
0.129118103
0.129118133
0.129118163
0.129118191
0.129118218
0.129118245
0.129118271
0.129118295
0.12911832
0.129118343
0.129118366
0.129118388
0.129118408
0.129118413
0.129118387
0.129118362
0.129118339
0.129118317
0.129118297
0.129118277
0.129118259
0.129118242
0.129118226
0.129118211
0.129118197
0.129118184
0.129118172
0.12911816
0.129118149
0.129118139
0.129118129
0.12911812
0.129118112
0.129118104
0.129118097
0.12911809
0.129118084
0.129118078
0.129118072
0.129118067
0.129118062
0.129118057
0.129118053
0.129118049
0.129118046
0.129118042
0.129118039
0.129118036
0.129118033
0.12911803
0.129118027
0.129118024
0.129118022
0.129118019
0.129118016
0.129118014
0.129118012
0.129118009
0.129118008
0.129118006
0.129118004
0.129118002
0.129118002
0.129118
0.129117999
0.129117999
0.129117998
0.129117997
0.129117997
0.129117997
0.129117997
0.129117996
0.129117996
0.129117996
0.129117996
0.129117996
0.129117996
0.129117996
0.129117996
0.129117996
0.129117996
0.129117996
0.129117996
0.129117996
0.129117996
0.129117996
0.129117996
0.129117996
0.129117996
0.129117996
0.129117996
0.129117996
0.129117996
0.129117996
0.129117996
0.129117996
0.129117996
0.129117996
0.129117996
0.129117996
0.129117996
0.129117996
0.129117996
0.129117996
0.129117996
0.129117996
0.129117996
0.129117996
0.129117996
0.129117996
0.129117996
0.129117996
0.129117996
0.129117996
0.129117996
0.129117996
0.129117996
0.129117996
0.129117996
0.129117996
0.129117996
0.129117996
0.129117996
0.129117996
0.129117996
)
;

boundaryField
{
    closed
    {
        type            calculated;
        value           nonuniform List<scalar> 0();
    }
    open
    {
        type            calculated;
        value           uniform 0.129117996;
    }
    sides
    {
        type            empty;
    }
    procBoundary5to4
    {
        type            processor;
        value           uniform 0.140896619;
    }
}


// ************************************************************************* //
