/*--------------------------------*- C++ -*----------------------------------*\
| =========                 |                                                 |
| \\      /  F ield         | OpenFOAM: The Open Source CFD Toolbox           |
|  \\    /   O peration     | Version:  2306                                  |
|   \\  /    A nd           | Website:  www.openfoam.com                      |
|    \\/     M anipulation  |                                                 |
\*---------------------------------------------------------------------------*/
FoamFile
{
    version     2.0;
    format      ascii;
    arch        "LSB;label=32;scalar=64";
    class       volScalarField;
    location    "0.00044";
    object      prefDZ_H;
}
// * * * * * * * * * * * * * * * * * * * * * * * * * * * * * * * * * * * * * //

dimensions      [1 -1 -1 0 0 0 0];

internalField   nonuniform List<scalar> 
530
(
0.000380648052
0.000380721862
0.000380872836
0.00038093679
0.000381062254
0.000381121546
0.000381234835
0.000381288984
0.000381391429
0.000381440126
0.000381532861
0.000381575933
0.000381659932
0.000381697338
0.000381773436
0.000381805278
0.000381874176
0.000381900704
0.000381958541
0.00038197123
0.000382017847
0.000382024533
0.000382065606
0.000382066648
0.000382102448
0.000382098119
0.000382128963
0.000382119518
0.000382145725
0.000382131424
0.000382153308
0.00038213442
0.000382152285
0.000382129096
0.000382143241
0.000382116048
0.000382126773
0.000382095868
0.000382103518
0.000382066537
0.000382065372
0.000382021328
0.000382016703
0.000381969356
0.00038196147
0.000381911056
0.000381900029
0.000381846818
0.000381832741
0.000381777049
0.000381760239
0.00038170274
0.000381683033
0.000381623672
0.000381601172
0.000381540216
0.000381515058
0.000381452739
0.000381425108
0.000381361602
0.000381331745
0.000381267177
0.000381235389
0.000381169843
0.000381136439
0.000381070008
0.000381035249
0.000380968129
0.000380931211
0.000380858188
0.0003808171
0.000380750858
0.000380705937
0.000380638226
0.000380585553
0.000380523716
0.000380474257
0.000380406432
0.000380353928
0.000380286734
0.000380231406
0.00038016473
0.000380107004
0.000380040784
0.000379980934
0.000379915138
0.000379853459
0.000379788053
0.000379724853
0.000379659785
0.00037959536
0.000379530574
0.000379465187
0.000379400645
0.000379334521
0.000379269637
0.000379202594
0.000379138358
0.0003790715
0.000379008079
0.000378941542
0.000378878939
0.000378812851
0.00037875108
0.000378685553
0.000378624643
0.00037855978
0.000378499774
0.000378435664
0.000378376627
0.000378313345
0.000378255348
0.000378191698
0.000378132733
0.00037806952
0.000378011364
0.000377948916
0.000377891573
0.000377829911
0.00037777337
0.000377712527
0.000377656771
0.000377596783
0.000377541797
0.000377482694
0.000377428468
0.000377370278
0.000377316805
0.00037725955
0.000377206828
0.000377150528
0.000377098557
0.000377043228
0.000376992011
0.000376937666
0.000376887208
0.000376833859
0.000376784166
0.000376731826
0.000376682905
0.000376631584
0.000376583443
0.000376533151
0.000376485801
0.000376436546
0.000376389997
0.000376341788
0.000376296052
0.000376248898
0.000376203987
0.000376157895
0.000376113824
0.000376068801
0.000376025585
0.000375981637
0.000375939293
0.000375896425
0.000375854971
0.000375813186
0.000375772643
0.000375732121
0.000375693165
0.000375654159
0.000375616024
0.000375578018
0.000375539931
0.000375501068
0.000375462824
0.000375425163
0.000375387978
0.000375351514
0.000375315412
0.000375280146
0.000375245144
0.000375211085
0.000375177196
0.000375144356
0.000375111588
0.000375079979
0.00037504834
0.000375017972
0.000374987762
0.000374959783
0.000374931795
0.000374904935
0.000374878068
0.000374852324
0.000374826547
0.00037480191
0.000374777195
0.000374753649
0.000374729974
0.000374707498
0.000374684843
0.000374663411
0.000374641758
0.000374621344
0.000374600675
0.000374581252
0.000374561546
0.00037454309
0.000374524326
0.00037450681
0.000374488967
0.000374472365
0.000374455422
0.000374439708
0.00037442364
0.000374408787
0.000374393574
0.000374379555
0.000374365174
0.000374351961
0.000374338388
0.000374325954
0.000374313167
0.000374301484
0.000374289459
0.000374278499
0.000374267214
0.000374256949
0.00037424638
0.000374236782
0.000374226905
0.000374217947
0.000374208739
0.000374200394
0.00037419183
0.00037418407
0.000374176127
0.000374168926
0.000374161581
0.000374154912
0.000374148139
0.000374141978
0.000374135753
0.000374130074
0.000374124373
0.000374119152
0.000374113951
0.000374109164
0.000374104438
0.000374100063
0.000374095789
0.000374091803
0.000374087956
0.000374084337
0.000374080894
0.000374077623
0.000374074561
0.000374071615
0.000374068912
0.000374066271
0.000374063906
0.000374061552
0.000374059503
0.000374057415
0.000374055663
0.000374053824
0.000374052348
0.00037405074
0.000374049521
0.000374048128
0.000374047147
0.000374045955
0.00037404519
0.000374044187
0.000374043619
0.000374042793
0.000374042401
0.000374041743
0.000374041506
0.000374041007
0.000374040906
0.00037404056
0.000374040575
0.000374040372
0.000374040486
0.00037404042
0.000374040616
0.000374040677
0.000374040945
0.00037404112
0.000374041452
0.000374041729
0.000374042118
0.000374042481
0.000374042926
0.00037404336
0.00037404386
0.000374044348
0.000374044904
0.000374045431
0.000374046036
0.000374046592
0.000374047239
0.000374047815
0.000374048577
0.000374049143
0.000374049906
0.000374050459
0.000374051246
0.000374051802
0.000374052604
0.000374053184
0.000374053978
0.000374054586
0.000374055365
0.000374056
0.000374056761
0.000374057415
0.000374058158
0.000374058824
0.00037405955
0.000374060222
0.000374060932
0.000374061604
0.000374062298
0.000374062964
0.000374063643
0.0003740643
0.000374064962
0.000374065608
0.000374066253
0.000374066885
0.000374067513
0.000374068128
0.000374068739
0.000374069337
0.000374069929
0.000374070508
0.000374071081
0.000374071642
0.000374072195
0.000374072737
0.00037407327
0.000374073792
0.000374074305
0.000374074807
0.0003740753
0.000374075782
0.000374076255
0.000374076717
0.00037407717
0.000374077613
0.000374078046
0.000374078469
0.000374078883
0.000374079286
0.000374079681
0.000374080066
0.000374080442
0.000374080809
0.000374081166
0.000374081515
0.000374081855
0.000374082186
0.000374082508
0.000374082822
0.000374083128
0.000374083426
0.000374083716
0.000374083998
0.000374084272
0.000374084538
0.000374084797
0.000374085049
0.000374085294
0.000374085532
0.000374085763
0.000374085987
0.000374086205
0.000374086416
0.000374086621
0.00037408682
0.000374087013
0.0003740872
0.000374087382
0.000374087558
0.000374087728
0.000374087894
0.000374088054
0.000374088209
0.00037408836
0.000374088505
0.000374088646
0.000374088783
0.000374088915
0.000374089044
0.000374089167
0.000374089287
0.000374089403
0.000374089516
0.000374089625
0.00037408973
0.000374089831
0.00037408993
0.000374090025
0.000374090117
0.000374090206
0.000374090292
0.000374090376
0.000374090456
0.000374090534
0.000374090609
0.000374090682
0.000374090753
0.000374090821
0.000374090886
0.00037409095
0.000374091012
0.000374091071
0.000374091129
0.000374091185
0.000374091238
0.00037409129
0.000374091341
0.000374091388
0.000374091394
0.000374091325
0.000374091257
0.000374091196
0.000374091139
0.000374091086
0.000374091037
0.000374090992
0.00037409095
0.000374090911
0.000374090875
0.000374090842
0.000374090811
0.000374090783
0.000374090756
0.000374090732
0.00037409071
0.000374090689
0.00037409067
0.000374090653
0.000374090637
0.000374090622
0.000374090608
0.000374090595
0.000374090584
0.000374090573
0.000374090563
0.000374090554
0.000374090546
0.000374090538
0.000374090531
0.000374090525
0.000374090519
0.000374090513
0.000374090508
0.000374090504
0.000374090499
0.000374090494
0.00037409049
0.000374090486
0.000374090482
0.000374090479
0.000374090475
0.000374090472
0.000374090469
0.000374090467
0.000374090464
0.000374090463
0.000374090461
0.00037409046
0.000374090458
0.000374090458
0.000374090457
0.000374090456
0.000374090456
0.000374090456
0.000374090455
0.000374090455
0.000374090455
0.000374090455
0.000374090455
0.000374090455
0.000374090455
0.000374090455
0.000374090455
0.000374090455
0.000374090455
0.000374090455
0.000374090455
0.000374090455
0.000374090455
0.000374090455
0.000374090455
0.000374090455
0.000374090455
0.000374090455
0.000374090455
0.000374090455
0.000374090455
0.000374090455
0.000374090455
0.000374090455
0.000374090455
0.000374090455
0.000374090455
0.000374090455
0.000374090455
0.000374090455
0.000374090455
0.000374090455
0.000374090455
0.000374090455
0.000374090455
0.000374090455
0.000374090455
0.000374090455
0.000374090455
0.000374090455
0.000374090455
0.000374090455
0.000374090455
0.000374090455
0.000374090455
0.000374090455
0.000374090455
0.000374090455
0.000374090455
0.000374090455
0.000374090455
0.000374090455
0.000374090455
0.000374090455
)
;

boundaryField
{
    closed
    {
        type            calculated;
        value           nonuniform List<scalar> 0();
    }
    open
    {
        type            calculated;
        value           uniform 0.000374090455;
    }
    sides
    {
        type            empty;
    }
    procBoundary5to4
    {
        type            processor;
        value           uniform 0.000380472817;
    }
}


// ************************************************************************* //
