/*--------------------------------*- C++ -*----------------------------------*\
| =========                 |                                                 |
| \\      /  F ield         | OpenFOAM: The Open Source CFD Toolbox           |
|  \\    /   O peration     | Version:  2306                                  |
|   \\  /    A nd           | Website:  www.openfoam.com                      |
|    \\/     M anipulation  |                                                 |
\*---------------------------------------------------------------------------*/
FoamFile
{
    version     2.0;
    format      ascii;
    arch        "LSB;label=32;scalar=64";
    class       volScalarField;
    location    "0.00044";
    object      T;
}
// * * * * * * * * * * * * * * * * * * * * * * * * * * * * * * * * * * * * * //

dimensions      [0 0 0 1 0 0 0];

internalField   nonuniform List<scalar> 
530
(
1717.20415
1717.55987
1718.35718
1718.63517
1719.26802
1719.50519
1720.06292
1720.25741
1720.748
1720.89864
1721.3291
1721.43539
1721.81179
1721.87404
1722.2016
1722.22105
1722.50413
1722.48303
1722.69638
1722.57936
1722.72148
1722.55926
1722.66662
1722.46213
1722.53634
1722.29186
1722.33486
1722.05251
1722.06629
1721.74818
1721.73473
1721.38304
1721.34431
1720.96128
1720.89916
1720.48714
1720.40358
1719.96482
1719.86209
1719.38153
1719.222
1718.69372
1718.51195
1717.96073
1717.75801
1717.18574
1716.96276
1716.37159
1716.12886
1715.52211
1715.26805
1714.65943
1714.38676
1713.76635
1713.47572
1712.84556
1712.53789
1711.8997
1711.57632
1710.93139
1710.59409
1709.94334
1709.59427
1708.93832
1708.57973
1707.9193
1707.55298
1706.88957
1706.51044
1705.81087
1705.40617
1704.76661
1704.33256
1703.68373
1703.18764
1702.59172
1702.12465
1701.48146
1700.99388
1700.36222
1699.85596
1699.23244
1698.71007
1698.09412
1697.55777
1696.94913
1696.40104
1695.79941
1695.24191
1694.64684
1694.08221
1693.49323
1692.92347
1692.34023
1691.76708
1691.18859
1690.6141
1690.04384
1689.47176
1688.90993
1688.3413
1687.78785
1687.22361
1686.67856
1686.11957
1685.58305
1685.03008
1684.50234
1683.95605
1683.43747
1682.89843
1682.38946
1681.84716
1681.33068
1680.79249
1680.28398
1679.75278
1679.25229
1678.72829
1678.23571
1677.71919
1677.23441
1676.72565
1676.24854
1675.74782
1675.27829
1674.78582
1674.32381
1673.83978
1673.38525
1672.90982
1672.46276
1671.99605
1671.55645
1671.09859
1670.66644
1670.21753
1669.79286
1669.35297
1668.93581
1668.50502
1668.09539
1667.67377
1667.27172
1666.85932
1666.46488
1666.06175
1665.67499
1665.28117
1664.90213
1664.51766
1664.14641
1663.77133
1663.40793
1663.04225
1662.6868
1662.33052
1661.9831
1661.63623
1661.29694
1660.96057
1660.63353
1660.30916
1659.98965
1659.67409
1659.35811
1659.04175
1658.72828
1658.42178
1658.11713
1657.82044
1657.52471
1657.23781
1656.95108
1656.67401
1656.39632
1656.12911
1655.86047
1655.60319
1655.34361
1655.09628
1654.84586
1654.6085
1654.36759
1654.13912
1653.90723
1653.68763
1653.4645
1653.25371
1653.03912
1652.83702
1652.63078
1652.43721
1652.23916
1652.05392
1651.86392
1651.68681
1651.5047
1651.33552
1651.16115
1650.9997
1650.83291
1650.67898
1650.5196
1650.37299
1650.22086
1650.08135
1649.93631
1649.80369
1649.66557
1649.53962
1649.40825
1649.28876
1649.16396
1649.05072
1648.93233
1648.82512
1648.71295
1648.61155
1648.50545
1648.40963
1648.30941
1648.21897
1648.12447
1648.03918
1647.95021
1647.86987
1647.78626
1647.71065
1647.63223
1647.56114
1647.48772
1647.42096
1647.35236
1647.28973
1647.22577
1647.16707
1647.10757
1647.05262
1646.99739
1646.94602
1646.89487
1646.84689
1646.79965
1646.7549
1646.71138
1646.66969
1646.6297
1646.59092
1646.55429
1646.51827
1646.48482
1646.4514
1646.42096
1646.39001
1646.36241
1646.33378
1646.30885
1646.28243
1646.25999
1646.23565
1646.21554
1646.19319
1646.17524
1646.15477
1646.1388
1646.12013
1646.10597
1646.08904
1646.07651
1646.06125
1646.05016
1646.03654
1646.02672
1646.01468
1646.00596
1645.99547
1645.9877
1645.97868
1645.97174
1645.96412
1645.9579
1645.95161
1645.94603
1645.94096
1645.93598
1645.932
1645.9276
1645.92458
1645.92076
1645.91857
1645.91531
1645.91382
1645.9111
1645.91021
1645.90802
1645.90761
1645.90659
1645.9064
1645.90572
1645.90539
1645.90532
1645.90503
1645.90551
1645.90544
1645.90625
1645.90649
1645.90753
1645.90807
1645.90928
1645.91012
1645.91146
1645.91255
1645.91401
1645.9153
1645.91686
1645.91832
1645.91996
1645.92155
1645.92327
1645.92496
1645.92674
1645.92851
1645.93033
1645.93215
1645.93401
1645.93586
1645.93774
1645.93961
1645.9415
1645.94338
1645.94526
1645.94713
1645.94901
1645.95086
1645.95272
1645.95455
1645.95638
1645.95818
1645.95997
1645.96174
1645.96349
1645.96522
1645.96693
1645.96861
1645.97027
1645.9719
1645.97351
1645.97509
1645.97665
1645.97817
1645.97968
1645.98115
1645.9826
1645.98401
1645.9854
1645.98676
1645.9881
1645.9894
1645.99068
1645.99193
1645.99315
1645.99434
1645.9955
1645.99664
1645.99775
1645.99884
1645.99989
1646.00092
1646.00193
1646.00291
1646.00386
1646.00479
1646.0057
1646.00658
1646.00744
1646.00827
1646.00908
1646.00987
1646.01064
1646.01138
1646.01211
1646.01281
1646.0135
1646.01416
1646.01481
1646.01543
1646.01604
1646.01663
1646.01721
1646.01776
1646.0183
1646.01882
1646.01933
1646.01982
1646.0203
1646.02076
1646.02121
1646.02165
1646.02207
1646.02248
1646.02288
1646.02326
1646.02363
1646.02399
1646.02434
1646.02468
1646.02501
1646.02533
1646.02564
1646.02594
1646.02623
1646.02651
1646.02679
1646.02705
1646.0273
1646.02756
1646.02779
1646.02776
1646.02726
1646.02679
1646.02635
1646.02594
1646.02556
1646.02521
1646.02489
1646.02459
1646.02431
1646.02405
1646.02382
1646.0236
1646.02339
1646.0232
1646.02303
1646.02287
1646.02272
1646.02258
1646.02246
1646.02234
1646.02223
1646.02213
1646.02204
1646.02195
1646.02188
1646.0218
1646.02174
1646.02168
1646.02162
1646.02157
1646.02152
1646.02148
1646.02144
1646.0214
1646.02137
1646.02133
1646.0213
1646.02127
1646.02124
1646.02121
1646.02118
1646.02116
1646.02113
1646.02111
1646.02109
1646.02108
1646.02106
1646.02105
1646.02104
1646.02103
1646.02103
1646.02102
1646.02102
1646.02101
1646.02101
1646.02101
1646.02101
1646.02101
1646.02101
1646.02101
1646.021
1646.021
1646.021
1646.021
1646.021
1646.021
1646.021
1646.021
1646.021
1646.021
1646.021
1646.021
1646.021
1646.021
1646.021
1646.021
1646.021
1646.021
1646.021
1646.021
1646.021
1646.021
1646.021
1646.021
1646.021
1646.021
1646.021
1646.021
1646.021
1646.021
1646.021
1646.021
1646.021
1646.021
1646.021
1646.021
1646.021
1646.021
1646.021
1646.021
1646.021
1646.021
1646.021
1646.021
1646.021
1646.021
1646.021
1646.021
1646.021
1646.021
1646.021
)
;

boundaryField
{
    closed
    {
        type            fixedValue;
        value           nonuniform List<scalar> 0();
    }
    open
    {
        type            zeroGradient;
    }
    sides
    {
        type            empty;
    }
    procBoundary5to4
    {
        type            processor;
        value           uniform 1716.25877;
    }
}


// ************************************************************************* //
