/*--------------------------------*- C++ -*----------------------------------*\
| =========                 |                                                 |
| \\      /  F ield         | OpenFOAM: The Open Source CFD Toolbox           |
|  \\    /   O peration     | Version:  2306                                  |
|   \\  /    A nd           | Website:  www.openfoam.com                      |
|    \\/     M anipulation  |                                                 |
\*---------------------------------------------------------------------------*/
FoamFile
{
    version     2.0;
    format      ascii;
    arch        "LSB;label=32;scalar=64";
    class       volScalarField;
    location    "0.0016";
    object      H2O;
}
// * * * * * * * * * * * * * * * * * * * * * * * * * * * * * * * * * * * * * //

dimensions      [0 0 0 0 0 0 0];

internalField   nonuniform List<scalar> 
531
(
0.00425613353
0.00101374056
0.0013452024
0.00699386623
0.00721121938
0.00683083213
0.00441035958
0.00102901404
0.00109468682
0.006874186
0.00704948297
0.00397434162
0.00102507712
0.00113058334
0.00686563851
0.00706825666
0.00401823445
0.00101915762
0.00117955684
0.00688305627
0.00709128648
0.00395015114
0.00101316047
0.00151971617
0.00694971484
0.00710386491
0.00301817489
0.00100952091
0.00308003822
0.00705305116
0.0069436866
0.000881788848
0.00103116307
0.00424764361
0.00731344031
0.00702434012
0.000849114183
0.00101981381
0.0010232265
0.00145617815
0.00702085948
0.00728790695
0.00724530909
0.00709822041
0.000766343103
0.0010211653
0.00479660436
0.00714007978
0.00591438478
0.000963821888
0.000984880014
0.00664020929
0.00737867473
0.0056232733
0.000982698051
0.000834085543
0.00664936252
0.0065876718
0.000948141007
0.00104766411
0.00595683611
0.00716425245
0.00552446468
0.000984764146
0.00100549755
0.00664862408
0.00612211897
0.000986248138
0.00102835448
0.00642205296
0.00717584536
0.0071490267
0.00696693759
0.00204043001
0.0010842768
0.00104316614
0.0062949179
0.00741254767
0.00692771133
0.00159453737
0.00107909186
0.00262461176
0.00662142843
0.00611293773
0.000999421383
0.00104884461
0.00621288932
0.00711264077
0.00710395579
0.0069859998
0.00222216496
0.00107691585
0.00101411398
0.00630958296
0.00737895606
0.00612669718
0.000963802923
0.00104062513
0.00602135125
0.00733683293
0.00586032313
0.000881744807
0.00110185224
0.00103216488
0.00665428191
0.00731510116
0.00729840338
0.00625653307
0.000942864596
0.00106222799
0.00559964178
0.00712764283
0.00632076793
0.000929245745
0.00104259203
0.00555375311
0.00723164021
0.00657640073
0.000906598105
0.000995953283
0.00589962226
0.00647419756
0.00076578217
0.000999472285
0.00559306031
0.00731965835
0.00678284935
0.000837842248
0.000998639762
0.00526455112
0.0072742668
0.00680190775
0.000816486516
0.000983727764
0.00527246108
0.00724393543
0.00675218995
0.000802740554
0.000974986902
0.00521084977
0.00724450797
0.00681353426
0.000790170803
0.000960229279
0.00519096092
0.00731110511
0.00701966964
0.000991300571
0.000948563307
0.00540665993
0.00656155144
0.00218993562
0.000930238729
0.00500142923
0.00725509194
0.00700283319
0.00105911692
0.000951367045
0.00518103991
0.00645630587
0.00234683774
0.000937002855
0.00475681622
0.00717759114
0.00687879476
0.00096973368
0.000944963907
0.00518374869
0.00637917431
0.00227976322
0.000938000093
0.00480527093
0.00699081123
0.00701046216
0.00722854761
0.0069592933
0.00086732354
0.00090206933
0.0055894055
0.00656276955
0.00252386948
0.000971494633
0.00405661659
0.00709721491
0.00659510067
0.000812111266
0.000874841372
0.0060557056
0.00650315301
0.00138524224
0.00091402296
0.0056094275
0.00738915339
0.00628598753
0.000849063005
0.000812096261
0.00640375131
0.00642028296
0.000805251391
0.000911569344
0.00599330786
0.00740181593
0.00601665461
0.000866119271
0.00128958258
0.00646015958
0.00607428436
0.00086043874
0.000904544786
0.00621427992
0.00735680258
0.00586200337
0.000875122209
0.000915383748
0.00614756363
0.00723655535
0.00577302991
0.000899847618
0.0009548335
0.00529664564
0.00709734307
0.00732863676
0.00571243012
0.000893178823
0.000903669817
0.00630362066
0.00726087131
0.00564803253
0.000903852051
0.000936408651
0.0060046271
0.007183882
0.00554868614
0.00091313999
0.000931483448
0.00607999661
0.00721993573
0.00550994219
0.000912965385
0.000900322324
0.00630359376
0.00729078344
0.005277259
0.00092932156
0.00248448966
0.00647107189
0.00509766605
0.000949292276
0.000847362842
0.0065608905
0.00732808313
0.00536244731
0.000927596511
0.000893104276
0.00640477437
0.00728810501
0.00536389809
0.000937123923
0.000917399932
0.00618701507
0.00721071356
0.00531762026
0.000954984092
0.000915484215
0.00598343842
0.006961218
0.00712280582
0.00729184753
0.00504810877
0.000951351988
0.00316706026
0.00655480615
0.00442179803
0.000999705062
0.00357157411
0.00654236785
0.00404897766
0.00100434353
0.00217362901
0.00682003245
0.00732159154
0.00485570335
0.000959235891
0.00119202539
0.00684836663
0.00742201928
0.00441478465
0.000973849748
0.00418180347
0.00668090149
0.00333867414
0.00102991038
0.00473770006
0.0066235756
0.00257314398
0.00103678696
0.00359664863
0.00701125804
0.00725725558
0.0040672368
0.000996655916
0.0020351479
0.0069068584
0.00729599236
0.00402292696
0.000995170609
0.00238608654
0.00698315473
0.00729943494
0.00370697001
0.000994889019
0.00305248539
0.00712145152
0.00730990217
0.0034251322
0.00101568387
0.00502984282
0.00671352511
0.00195384063
0.00103999377
0.00430428498
0.00724173614
0.00731670445
0.00319418548
0.00102368611
0.00531540595
0.00679543614
0.00159009078
0.00104587828
0.00459093639
0.00730315507
0.00735508497
0.00309654577
0.00102921664
0.00544272303
0.00686198259
0.0016003323
0.00106847823
0.00586181664
0.00681725627
0.000935569492
0.00106114726
0.00470427849
0.0072482437
0.00730743293
0.00299022217
0.00102499408
0.00378107428
0.00733793303
0.00738144514
0.00258945093
0.00104162529
0.00589135613
0.00692076912
0.000738122948
0.00107015771
0.00638499358
0.0069483657
0.000794429178
0.00105172522
0.00504412284
0.00746713355
0.0074265091
0.00253462513
0.00103354594
0.00612805745
0.0069589417
0.000829566653
0.00106431777
0.00657168224
0.00689989245
0.000870949277
0.00105176011
0.00493905637
0.0074597184
0.00729817441
0.00145365038
0.00104235372
0.00612076146
0.00680543855
0.00074301349
0.00106572604
0.00434393237
0.00724558566
0.00724368667
0.00340037765
0.00105429345
0.00173966303
0.00687964904
0.00732706772
0.00509983566
0.00104166373
0.000942438624
0.00682529719
0.00741384735
0.00513149016
0.00103734645
0.000962899943
0.00681066328
0.00736243257
0.00469560772
0.00105087242
0.0013601319
0.00672630858
0.00727846547
0.00716721032
0.00451804088
0.00107277244
0.0010706996
0.00418606082
0.00717783589
0.00731230491
0.00396098578
0.00101912661
0.00475152731
0.00698898963
0.00316189326
0.00104033515
0.00525716578
0.0070148253
0.00338048862
0.00104204365
0.00330657411
0.00729661312
0.00745659355
0.00366644836
0.00102396248
0.00559732055
0.00695895319
0.000993258544
0.0010640769
0.00650671388
0.0068868243
0.000980906318
0.00107461162
0.00669815378
0.00685761927
0.000894401878
0.00106839672
0.00470504824
0.00736576977
0.0072542406
0.00191721592
0.0010607024
0.00563574812
0.00682748487
0.00287123948
0.0010888907
0.00295933488
0.00692216852
0.00731400389
0.0053228415
0.0010537997
0.000939369475
0.00684618646
0.0075516639
0.00537971194
0.00104361714
0.00089791382
0.00690576029
0.00760714814
0.00539895183
0.00103683021
0.000834607457
0.00700930642
0.00761381333
0.00447276939
0.00104950676
0.00357223457
0.00685685563
0.00487897803
0.00107389807
0.00137938537
0.00704652514
0.00745157622
0.00396238253
0.00100908598
0.00109867061
0.00201440167
0.00669889709
0.00721353628
0.00719325611
0.00502991726
0.00105249491
0.00151906699
0.00704351703
0.00753113902
0.00459731834
0.00105249245
0.00384875835
0.00689886735
0.00391078642
0.001077222
0.00297001459
0.00713057365
0.00735656536
0.00367585275
0.00106903998
0.00488295628
0.00684932377
0.00209099626
0.00110189273
0.00561680794
0.00682405623
0.0014562326
0.00108776061
0.00407151409
0.00728269945
0.00720783148
0.00187057849
0.00106880636
0.00362255076
0.00733988892
0.00721868648
0.0013241465
0.0010672076
0.00397387834
0.00740971534
0.00719750116
0.000720274819
0.00106550328
0.00419550299
0.0074342512
0.00716131876
0.000797134452
0.00106386449
0.00435308865
0.00743185854
0.00710603758
0.000843919024
0.00106074097
)
;

boundaryField
{
    closed
    {
        type            calculated;
        value           nonuniform List<scalar> 0();
    }
    open
    {
        type            calculated;
        value           nonuniform List<scalar> 0();
    }
    sides
    {
        type            empty;
    }
    procBoundary1to0
    {
        type            processor;
        value           uniform 0.00718934392;
    }
    procBoundary1to2
    {
        type            processor;
        value           uniform 0.00448132695;
    }
}


// ************************************************************************* //
