/*--------------------------------*- C++ -*----------------------------------*\
| =========                 |                                                 |
| \\      /  F ield         | OpenFOAM: The Open Source CFD Toolbox           |
|  \\    /   O peration     | Version:  2306                                  |
|   \\  /    A nd           | Website:  www.openfoam.com                      |
|    \\/     M anipulation  |                                                 |
\*---------------------------------------------------------------------------*/
FoamFile
{
    version     2.0;
    format      ascii;
    arch        "LSB;label=32;scalar=64";
    class       volScalarField;
    location    "0.0016";
    object      prefDh_H2O;
}
// * * * * * * * * * * * * * * * * * * * * * * * * * * * * * * * * * * * * * //

dimensions      [1 1 -3 0 0 0 0];

internalField   nonuniform List<scalar> 
531
(
90.0406167
92.498922
92.5405374
87.9870968
87.9072127
88.0928936
89.9191385
92.4380685
92.763062
88.0485608
87.9960202
90.273814
92.4705059
92.731129
88.0588914
87.9845158
90.2368743
92.4816922
92.687574
88.047386
87.9709121
90.2920386
92.4975681
92.386113
88.0217107
87.9632013
91.0784821
92.4958463
91.0276361
87.9780891
88.0391005
92.7075743
92.3973289
90.0419544
87.8531726
87.9898348
92.8648088
92.4700292
92.4931206
92.4423044
88.0031239
87.8681531
87.9142454
87.9786801
92.9333566
92.4013743
89.5948224
87.9145923
88.6935664
92.5588756
92.3842634
88.1326763
87.798755
88.9344283
92.5606921
92.7675143
88.1690327
88.2460767
92.5818419
92.3162975
88.6533451
87.9039915
89.00194
92.5071485
92.8427497
88.1641035
88.5436119
92.4926046
92.3066844
88.2949312
87.884405
87.9323324
88.0178904
91.9272089
92.2875516
92.3628076
88.3878778
87.8176568
88.0163461
92.3197479
92.2677688
91.4207256
88.1667859
88.5455293
92.4337832
92.273057
88.4623116
87.9206716
87.9535191
88.012972
91.768242
92.3081779
92.4051573
88.3763867
87.8122114
88.528444
92.5511024
92.3239783
88.6070175
87.8439591
88.7350007
92.7524333
92.2216868
92.3484315
88.1374784
87.8278884
87.8339624
88.4495204
92.5929759
92.300084
88.9428481
87.9358514
88.377619
92.6346002
92.3041048
88.9788356
87.8750188
88.2111823
92.7112664
92.3739583
88.7204901
88.2850832
93.0552976
92.4211443
88.9465236
87.8500756
88.1155435
92.8729682
92.4021291
89.2096357
87.8706208
88.1128479
92.9350778
92.4399458
89.2024833
87.8934113
88.1419323
92.9837781
92.4654114
89.252002
87.8977515
88.1165857
93.0337895
92.5000903
89.2661952
87.8629244
88.0091393
92.8546061
92.5105312
89.1057691
88.2562594
91.7957289
92.5947354
89.4196452
87.8991711
88.0172837
92.7943463
92.5092787
89.2881859
88.3126471
91.65909
92.5872981
89.6208
87.9441666
88.0791982
92.8737796
92.5312031
89.2879885
88.3662248
91.7183961
92.5751444
89.5825278
88.0178798
87.9789053
87.9082753
88.046948
92.9654566
92.6320123
88.9636914
88.259902
91.5051176
92.5043537
90.1992743
87.9738114
88.1957567
92.9083624
92.6963979
88.6112693
88.3061234
92.5050675
92.6403761
88.928309
87.8311115
88.3934828
92.8229605
92.8854531
88.3564053
88.3436882
92.8982212
92.6530271
88.628726
87.8221971
88.5965588
92.7791778
92.5898409
88.3154165
88.5870739
92.7662408
92.6799291
88.4553464
87.8552912
88.7204998
92.7679805
92.6446849
88.5119866
87.9165929
88.7939985
92.7245629
92.5439544
89.1972082
87.9548791
87.8378585
88.842926
92.7297125
92.6861843
88.3888315
87.9086542
88.8934128
92.7253705
92.59061
88.6211498
87.9451301
88.973122
92.7043403
92.6006893
88.5597718
87.9245776
89.0030065
92.7022797
92.6686819
88.3827846
87.8765032
89.1831895
92.6617178
91.5418782
88.2814678
89.3428723
92.591647
92.8560851
88.1843635
87.8628795
89.1214669
92.6793155
92.6990426
88.3039581
87.8872058
89.1216976
92.6651941
92.6203439
88.4735441
87.9246912
89.1598089
92.6251983
92.6105359
88.6422631
88.0602329
87.9097494
87.8485468
89.3704844
92.5953957
90.9540733
88.2227367
89.8893969
92.4731766
90.6113643
88.2327587
90.2001691
92.4745441
91.8138048
88.0589047
87.8429617
89.5312044
92.5948862
92.6761769
88.0468188
87.7825302
89.8898329
92.5276091
90.0995499
88.1484898
90.799226
92.3856819
89.6471405
88.1869152
91.4593684
92.3979238
90.5956195
87.9743631
87.8630421
90.1842576
92.5104095
91.9342294
88.0286956
87.8572221
90.2212304
92.5199835
91.6287605
87.9940791
87.8502726
90.4865296
92.5170094
91.0543463
87.9274026
87.82065
90.7261135
92.4313233
89.4126953
88.1452793
92.0016342
92.3891428
90.0043635
87.8598739
87.807616
90.9238047
92.407506
89.1856033
88.1002174
92.3229354
92.3763914
89.7694302
87.8263539
87.7834975
91.0083102
92.3849374
89.0860617
88.0504145
92.3142381
92.3000837
88.7701863
88.0840014
92.9055413
92.3471218
89.68262
87.8575317
87.8296587
91.1002688
92.4388199
90.4362956
87.8193271
87.7735384
91.4478812
92.3588669
88.7448891
88.0218862
92.9968652
92.3002534
88.3857025
88.0181571
92.7920271
92.3693554
89.4056101
87.7442324
87.7444755
91.4954907
92.3663524
88.5602645
88.0010626
92.7279094
92.3168075
88.2815093
88.0448346
92.6017639
92.3922621
89.4887965
87.7692185
87.8209647
92.4443624
92.3838303
88.5767297
88.1024532
92.9929962
92.3582115
89.976383
87.8598264
87.865643
90.7529792
92.3643926
92.1924976
88.0456061
87.85781
89.3487009
92.3918421
92.5340791
88.0789712
87.8054281
89.3211752
92.4079098
92.4823513
88.0915009
87.81878
89.677993
92.3888914
92.5273231
88.1496426
87.8609387
87.8962751
89.8165758
92.3073664
92.2974674
90.0984643
87.8670164
87.8098501
90.274601
92.3994195
89.6231223
87.9853328
90.9526204
92.364499
89.2154541
87.9784581
90.7668011
92.3704168
90.8329224
87.811482
87.7304873
90.5249846
92.385699
88.9596286
87.9938783
92.8536834
92.3009834
88.2943338
88.0346481
92.4040309
92.2919238
88.1889264
88.0617427
92.5628034
92.3447511
89.675472
87.8037178
87.8399788
92.0350188
92.3264358
88.9318654
88.0775404
91.2059578
92.277137
91.1324481
88.0124389
87.8339464
89.1715111
92.3449761
92.5092858
88.0570614
87.7226667
89.1286991
92.3894762
92.6055377
88.0269031
87.6990869
89.1151191
92.4035472
92.761526
87.9623512
87.6931159
89.8511147
92.384041
90.60591
88.0666974
89.5285366
92.3005836
92.5102634
87.9356334
87.7911784
90.2741207
92.5259012
92.2503886
91.9515783
88.1444822
87.8933469
87.8777079
89.4099824
92.3380784
92.3866009
87.9354868
87.7218329
89.7484347
92.3608565
90.3722495
88.0373344
90.3198485
92.2962118
91.1205452
87.897234
87.7873202
90.517503
92.3061859
89.5251949
88.0512101
91.8826351
92.2421144
88.9508746
88.0732942
92.4420108
92.3057083
90.1947397
87.8510652
87.8795557
92.0763643
92.3676115
90.5702022
87.8347851
87.8804125
92.5592014
92.381039
90.2770494
87.8094638
87.8887305
93.0906528
92.3869166
90.0948661
87.7988082
87.908028
92.8406922
92.3927811
89.9652554
87.7968404
87.9358519
92.7131849
92.4019346
)
;

boundaryField
{
    closed
    {
        type            calculated;
        value           nonuniform List<scalar> 0();
    }
    open
    {
        type            calculated;
        value           nonuniform List<scalar> 0();
    }
    sides
    {
        type            empty;
    }
    procBoundary1to0
    {
        type            processor;
        value           uniform 87.917926;
    }
    procBoundary1to2
    {
        type            processor;
        value           uniform 89.8590212;
    }
}


// ************************************************************************* //
