/*--------------------------------*- C++ -*----------------------------------*\
| =========                 |                                                 |
| \\      /  F ield         | OpenFOAM: The Open Source CFD Toolbox           |
|  \\    /   O peration     | Version:  2306                                  |
|   \\  /    A nd           | Website:  www.openfoam.com                      |
|    \\/     M anipulation  |                                                 |
\*---------------------------------------------------------------------------*/
FoamFile
{
    version     2.0;
    format      ascii;
    arch        "LSB;label=32;scalar=64";
    class       volScalarField;
    location    "0.0016";
    object      prefDZ_H2O;
}
// * * * * * * * * * * * * * * * * * * * * * * * * * * * * * * * * * * * * * //

dimensions      [1 -1 -1 0 0 0 0];

internalField   nonuniform List<scalar> 
531
(
-7.53988051e-07
-7.75476444e-07
-7.75530068e-07
-7.3636407e-07
-7.3552532e-07
-7.37378116e-07
-7.52968382e-07
-7.74997278e-07
-7.7746642e-07
-7.36971117e-07
-7.36397091e-07
-7.55972379e-07
-7.75246741e-07
-7.77188268e-07
-7.37064838e-07
-7.36285902e-07
-7.55656693e-07
-7.75339214e-07
-7.76808503e-07
-7.3695481e-07
-7.36153776e-07
-7.56124147e-07
-7.75467072e-07
-7.74184311e-07
-7.36689032e-07
-7.36079255e-07
-7.62864158e-07
-7.75459229e-07
-7.62428606e-07
-7.36243664e-07
-7.36840345e-07
-7.77230288e-07
-7.74688177e-07
-7.53987692e-07
-7.34991314e-07
-7.36364376e-07
-7.78459459e-07
-7.7525057e-07
-7.75419496e-07
-7.74672596e-07
-7.36478872e-07
-7.35137084e-07
-7.35555993e-07
-7.36213414e-07
-7.79088329e-07
-7.74732872e-07
-7.50202967e-07
-7.35643217e-07
-7.42614818e-07
-7.75997437e-07
-7.74657091e-07
-7.37847092e-07
-7.34484697e-07
-7.44656874e-07
-7.75984692e-07
-7.77747308e-07
-7.38152462e-07
-7.38852155e-07
-7.76192124e-07
-7.74056498e-07
-7.4226078e-07
-7.35535546e-07
-7.45193851e-07
-7.75579093e-07
-7.78165285e-07
-7.38110821e-07
-7.41400472e-07
-7.75467708e-07
-7.74012699e-07
-7.39291853e-07
-7.35362198e-07
-7.35785034e-07
-7.36644009e-07
-7.70201802e-07
-7.73787806e-07
-7.74411827e-07
-7.40047369e-07
-7.34612944e-07
-7.36659692e-07
-7.73610496e-07
-7.73646982e-07
-7.65817673e-07
-7.38151749e-07
-7.41401938e-07
-7.75007269e-07
-7.73730881e-07
-7.40695346e-07
-7.35715288e-07
-7.3599797e-07
-7.36588256e-07
-7.6882371e-07
-7.73953219e-07
-7.74771384e-07
-7.39951659e-07
-7.34596303e-07
-7.41242329e-07
-7.75939021e-07
-7.74124304e-07
-7.41886129e-07
-7.34895256e-07
-7.42957686e-07
-7.77568001e-07
-7.73268343e-07
-7.74319883e-07
-7.37879192e-07
-7.34779331e-07
-7.34843487e-07
-7.40648143e-07
-7.76283237e-07
-7.73913783e-07
-7.44700391e-07
-7.35831292e-07
-7.39989597e-07
-7.76615328e-07
-7.73972534e-07
-7.45000683e-07
-7.35239916e-07
-7.38561626e-07
-7.77223784e-07
-7.74563783e-07
-7.42880755e-07
-7.39262183e-07
-7.80008729e-07
-7.74912367e-07
-7.4472715e-07
-7.34960399e-07
-7.37604605e-07
-7.78536225e-07
-7.74770969e-07
-7.4693792e-07
-7.35168833e-07
-7.37568121e-07
-7.79033527e-07
-7.7507603e-07
-7.46875758e-07
-7.353836e-07
-7.37850501e-07
-7.7941953e-07
-7.75279598e-07
-7.47292484e-07
-7.35419312e-07
-7.3759139e-07
-7.79818326e-07
-7.75560919e-07
-7.47407526e-07
-7.35074358e-07
-7.36530374e-07
-7.78256883e-07
-7.75655921e-07
-7.4609022e-07
-7.3895701e-07
-7.69062656e-07
-7.76314187e-07
-7.48702248e-07
-7.3542242e-07
-7.36611792e-07
-7.77732756e-07
-7.75642519e-07
-7.47627223e-07
-7.39510235e-07
-7.67878681e-07
-7.76248781e-07
-7.50407821e-07
-7.35861078e-07
-7.37227197e-07
-7.78423695e-07
-7.75816187e-07
-7.47630476e-07
-7.39990742e-07
-7.68391601e-07
-7.76156045e-07
-7.50086849e-07
-7.36625972e-07
-7.36282637e-07
-7.35520106e-07
-7.36894724e-07
-7.79227711e-07
-7.76633899e-07
-7.44908101e-07
-7.3898726e-07
-7.66546435e-07
-7.75576891e-07
-7.55325191e-07
-7.36173421e-07
-7.3841719e-07
-7.78837894e-07
-7.77155915e-07
-7.42006871e-07
-7.39422747e-07
-7.75219806e-07
-7.76680007e-07
-7.44561017e-07
-7.3474442e-07
-7.40090213e-07
-7.78144023e-07
-7.78665233e-07
-7.39920095e-07
-7.39800125e-07
-7.78770743e-07
-7.76778569e-07
-7.42066313e-07
-7.34659748e-07
-7.41760634e-07
-7.7779087e-07
-7.75954602e-07
-7.39531374e-07
-7.41778868e-07
-7.77701268e-07
-7.76990716e-07
-7.40621149e-07
-7.34972412e-07
-7.42801426e-07
-7.77694189e-07
-7.76710508e-07
-7.41104943e-07
-7.35582802e-07
-7.43424468e-07
-7.77333216e-07
-7.75897949e-07
-7.46866796e-07
-7.36014519e-07
-7.34851327e-07
-7.43836397e-07
-7.7738117e-07
-7.77038998e-07
-7.40076804e-07
-7.35496498e-07
-7.44257649e-07
-7.77333799e-07
-7.76274509e-07
-7.42006688e-07
-7.35863977e-07
-7.44927664e-07
-7.77162616e-07
-7.76357187e-07
-7.41488929e-07
-7.35663038e-07
-7.45175855e-07
-7.77147335e-07
-7.76911983e-07
-7.40009658e-07
-7.35204193e-07
-7.46675132e-07
-7.76819316e-07
-7.66864032e-07
-7.39233214e-07
-7.48057162e-07
-7.76264244e-07
-7.78396029e-07
-7.38341538e-07
-7.35059745e-07
-7.46172333e-07
-7.7695422e-07
-7.77150402e-07
-7.39354461e-07
-7.35295409e-07
-7.46177766e-07
-7.76834723e-07
-7.76524684e-07
-7.40764038e-07
-7.3567157e-07
-7.46500769e-07
-7.76508825e-07
-7.76453673e-07
-7.42194877e-07
-7.3700503e-07
-7.35615687e-07
-7.34970475e-07
-7.48260147e-07
-7.76289563e-07
-7.61796784e-07
-7.38674826e-07
-7.526722e-07
-7.75302665e-07
-7.5885682e-07
-7.38768879e-07
-7.55322267e-07
-7.75306368e-07
-7.6921376e-07
-7.3709699e-07
-7.3489961e-07
-7.49628975e-07
-7.76274734e-07
-7.76700995e-07
-7.36974524e-07
-7.34313804e-07
-7.52664584e-07
-7.75748276e-07
-7.54484074e-07
-7.37955739e-07
-7.60454614e-07
-7.74602547e-07
-7.50655411e-07
-7.38322608e-07
-7.66150358e-07
-7.74684601e-07
-7.58730771e-07
-7.36243703e-07
-7.35119361e-07
-7.55185163e-07
-7.75586848e-07
-7.70256857e-07
-7.36779316e-07
-7.35039403e-07
-7.55500751e-07
-7.75660943e-07
-7.67614254e-07
-7.36430944e-07
-7.34978685e-07
-7.57770061e-07
-7.75638968e-07
-7.62661674e-07
-7.35765152e-07
-7.34723112e-07
-7.59826933e-07
-7.74965554e-07
-7.48682251e-07
-7.37906077e-07
-7.70851452e-07
-7.74614073e-07
-7.53687296e-07
-7.35105217e-07
-7.34608803e-07
-7.61527937e-07
-7.74775285e-07
-7.46777954e-07
-7.37465509e-07
-7.73644732e-07
-7.74509901e-07
-7.51695903e-07
-7.34776147e-07
-7.34376743e-07
-7.62256632e-07
-7.74597957e-07
-7.45948161e-07
-7.36995515e-07
-7.73566104e-07
-7.73904705e-07
-7.43349341e-07
-7.37312347e-07
-7.78718992e-07
-7.7426824e-07
-7.50974463e-07
-7.35080474e-07
-7.34800296e-07
-7.63049763e-07
-7.75008626e-07
-7.57361105e-07
-7.34689401e-07
-7.34272459e-07
-7.66051557e-07
-7.74384476e-07
-7.43132798e-07
-7.3671162e-07
-7.79604978e-07
-7.73903542e-07
-7.40183526e-07
-7.36659994e-07
-7.77986772e-07
-7.74448693e-07
-7.48633379e-07
-7.3395818e-07
-7.33993757e-07
-7.66463177e-07
-7.74452281e-07
-7.41597974e-07
-7.36507706e-07
-7.77456054e-07
-7.7403617e-07
-7.39165125e-07
-7.3692105e-07
-7.7645105e-07
-7.74620714e-07
-7.49330362e-07
-7.34171551e-07
-7.34735095e-07
-7.74694878e-07
-7.74570805e-07
-7.41764863e-07
-7.37477403e-07
-7.7956921e-07
-7.7434496e-07
-7.53459699e-07
-7.35101776e-07
-7.35151932e-07
-7.60066027e-07
-7.74407748e-07
-7.7249924e-07
-7.36942158e-07
-7.35018505e-07
-7.48124732e-07
-7.74631958e-07
-7.75841367e-07
-7.37263941e-07
-7.34510575e-07
-7.47887948e-07
-7.74758811e-07
-7.75423998e-07
-7.37380705e-07
-7.34664658e-07
-7.50908433e-07
-7.74596652e-07
-7.75412796e-07
-7.37934315e-07
-7.35084689e-07
-7.35468504e-07
-7.52067555e-07
-7.73953115e-07
-7.73881861e-07
-7.54479793e-07
-7.3521455e-07
-7.34630971e-07
-7.5595956e-07
-7.74721129e-07
-7.50422911e-07
-7.36352755e-07
-7.61777398e-07
-7.74428594e-07
-7.46986589e-07
-7.36275623e-07
-7.60180342e-07
-7.74470549e-07
-7.6075279e-07
-7.34657018e-07
-7.33852755e-07
-7.58106637e-07
-7.74611228e-07
-7.44879898e-07
-7.36446898e-07
-7.78260902e-07
-7.7391784e-07
-7.39319623e-07
-7.36844095e-07
-7.74810915e-07
-7.7383461e-07
-7.38288135e-07
-7.37094751e-07
-7.76125435e-07
-7.74240037e-07
-7.50898978e-07
-7.3453662e-07
-7.34928824e-07
-7.71138253e-07
-7.74113629e-07
-7.44654687e-07
-7.37250243e-07
-7.63963791e-07
-7.73702989e-07
-7.63332199e-07
-7.3663056e-07
-7.34830735e-07
-7.46638999e-07
-7.74262703e-07
-7.75659732e-07
-7.37063106e-07
-7.33707412e-07
-7.46286258e-07
-7.74611398e-07
-7.76440954e-07
-7.3676491e-07
-7.33464222e-07
-7.46176845e-07
-7.74726775e-07
-7.77701563e-07
-7.36143641e-07
-7.33409164e-07
-7.52354908e-07
-7.74562161e-07
-7.58802286e-07
-7.37137321e-07
-7.4964443e-07
-7.739006e-07
-7.75264523e-07
-7.35890656e-07
-7.3436025e-07
-7.55956742e-07
-7.75686007e-07
-7.73488153e-07
-7.70409321e-07
-7.37909326e-07
-7.35407597e-07
-7.35292555e-07
-7.48652945e-07
-7.74212829e-07
-7.74190002e-07
-7.35891611e-07
-7.33718317e-07
-7.51482752e-07
-7.7438378e-07
-7.56800701e-07
-7.36858264e-07
-7.56352107e-07
-7.73862991e-07
-7.63227216e-07
-7.35504481e-07
-7.3440746e-07
-7.58043306e-07
-7.73949659e-07
-7.49615944e-07
-7.37011184e-07
-7.69815717e-07
-7.73421414e-07
-7.44824252e-07
-7.37216586e-07
-7.74675675e-07
-7.7391905e-07
-7.55301906e-07
-7.3499889e-07
-7.3529669e-07
-7.71496089e-07
-7.74411191e-07
-7.58507376e-07
-7.34816449e-07
-7.35295312e-07
-7.75694423e-07
-7.74514392e-07
-7.56005403e-07
-7.34547533e-07
-7.35381653e-07
-7.80336055e-07
-7.74561e-07
-7.54457806e-07
-7.34438297e-07
-7.35571685e-07
-7.78348756e-07
-7.74607417e-07
-7.53357569e-07
-7.34424063e-07
-7.3584798e-07
-7.77325329e-07
-7.74680673e-07
)
;

boundaryField
{
    closed
    {
        type            calculated;
        value           nonuniform List<scalar> 0();
    }
    open
    {
        type            calculated;
        value           nonuniform List<scalar> 0();
    }
    sides
    {
        type            empty;
    }
    procBoundary1to0
    {
        type            processor;
        value           uniform -7.35632425e-07;
    }
    procBoundary1to2
    {
        type            processor;
        value           uniform -7.5245455e-07;
    }
}


// ************************************************************************* //
