/*--------------------------------*- C++ -*----------------------------------*\
| =========                 |                                                 |
| \\      /  F ield         | OpenFOAM: The Open Source CFD Toolbox           |
|  \\    /   O peration     | Version:  2306                                  |
|   \\  /    A nd           | Website:  www.openfoam.com                      |
|    \\/     M anipulation  |                                                 |
\*---------------------------------------------------------------------------*/
FoamFile
{
    version     2.0;
    format      ascii;
    arch        "LSB;label=32;scalar=64";
    class       volVectorField;
    location    "0.0016";
    object      U;
}
// * * * * * * * * * * * * * * * * * * * * * * * * * * * * * * * * * * * * * //

dimensions      [0 1 -1 0 0 0 0];

internalField   nonuniform List<vector> 
531
(
(1.11964821 0 0)
(1.11730208 0 0)
(1.15869627 0 0)
(1.19259221 0 0)
(1.1890406 0 0)
(1.16711711 0 0)
(1.13662854 0 0)
(1.13505444 0 0)
(1.18131275 0 0)
(1.22003598 0 0)
(1.20638589 0 0)
(1.17996006 0 0)
(1.16525969 0 0)
(1.20751216 0 0)
(1.24562712 0 0)
(1.23411151 0 0)
(1.20993893 0 0)
(1.19739448 0 0)
(1.23994999 0 0)
(1.27949102 0 0)
(1.27109195 0 0)
(1.24999513 0 0)
(1.2387845 0 0)
(1.27178486 0 0)
(1.304009 0 0)
(1.29944895 0 0)
(1.28069475 0 0)
(1.25995968 0 0)
(1.25627079 0 0)
(1.26400982 0 0)
(1.24337381 0 0)
(1.23526787 0 0)
(1.22231071 0 0)
(1.19423913 0 0)
(1.18742838 0 0)
(1.16668591 0 0)
(1.15124566 0 0)
(1.13405065 0 0)
(1.10473284 0 0)
(1.10934699 0 0)
(1.11699227 0 0)
(1.09437385 0 0)
(1.05458595 0 0)
(0.992607618 0 0)
(0.968566461 0 0)
(0.940840318 0 0)
(0.883991873 0 0)
(0.85211675 0 0)
(0.831802958 0 0)
(0.815131342 0 0)
(0.777928268 0 0)
(0.749631312 0 0)
(0.738141775 0 0)
(0.70488391 0 0)
(0.673552813 0 0)
(0.657422475 0 0)
(0.647963408 0 0)
(0.60995775 0 0)
(0.569659672 0 0)
(0.523502134 0 0)
(0.483096353 0 0)
(0.459056844 0 0)
(0.435288546 0 0)
(0.407837307 0 0)
(0.438485907 0 0)
(0.460598048 0 0)
(0.429295864 0 0)
(0.419117478 0 0)
(0.399088696 0 0)
(0.377972289 0 0)
(0.369053185 0 0)
(0.355588077 0 0)
(0.340402032 0 0)
(0.33331812 0 0)
(0.340316025 0 0)
(0.328864421 0 0)
(0.321814324 0 0)
(0.326277536 0 0)
(0.326460861 0 0)
(0.337875584 0 0)
(0.356343591 0 0)
(0.375622865 0 0)
(0.39620237 0 0)
(0.416423223 0 0)
(0.450281525 0 0)
(0.473816472 0 0)
(0.486978871 0 0)
(0.51524161 0 0)
(0.545161138 0 0)
(0.566548884 0 0)
(0.596727891 0 0)
(0.64090896 0 0)
(0.674924728 0 0)
(0.693409185 0 0)
(0.723754061 0 0)
(0.768484246 0 0)
(0.831095479 0 0)
(0.873390475 0 0)
(0.887620436 0 0)
(0.918777783 0 0)
(0.968474614 0 0)
(1.04109297 0 0)
(1.10325323 0 0)
(1.15887343 0 0)
(1.20176519 0 0)
(1.26092501 0 0)
(1.31054858 0 0)
(1.37226971 0 0)
(1.46992175 0 0)
(1.53184063 0 0)
(1.55153894 0 0)
(1.60654813 0 0)
(1.69206741 0 0)
(1.811034 0 0)
(1.88538012 0 0)
(1.90078667 0 0)
(1.95290954 0 0)
(1.99444261 0 0)
(2.06146164 0 0)
(2.14511484 0 0)
(2.16099809 0 0)
(2.21458182 0 0)
(2.31719771 0 0)
(2.38128947 0 0)
(2.3906061 0 0)
(2.42678166 0 0)
(2.44413133 0 0)
(2.48517142 0 0)
(2.5304768 0 0)
(2.50574588 0 0)
(2.51299529 0 0)
(2.50091736 0 0)
(2.51427459 0 0)
(2.53945847 0 0)
(2.4970315 0 0)
(2.48215435 0 0)
(2.44982578 0 0)
(2.44017119 0 0)
(2.44557357 0 0)
(2.38656376 0 0)
(2.34741965 0 0)
(2.29232119 0 0)
(2.25107221 0 0)
(2.22726508 0 0)
(2.15508375 0 0)
(2.09644009 0 0)
(2.02911912 0 0)
(1.96250718 0 0)
(1.91677574 0 0)
(1.84592703 0 0)
(1.78437516 0 0)
(1.72553662 0 0)
(1.63841919 0 0)
(1.56992095 0 0)
(1.50756493 0 0)
(1.4362654 0 0)
(1.359237 0 0)
(1.29988197 0 0)
(1.237977 0 0)
(1.16656272 0 0)
(1.09967807 0 0)
(1.00759114 0 0)
(0.945679261 0 0)
(0.883897858 0 0)
(0.812114058 0 0)
(0.744120653 0 0)
(0.696769782 0 0)
(0.656837422 0 0)
(0.596237585 0 0)
(0.548881785 0 0)
(0.477915979 0 0)
(0.441972293 0 0)
(0.392059286 0 0)
(0.342903302 0 0)
(0.304218268 0 0)
(0.255307092 0 0)
(0.219549162 0 0)
(0.214609407 0 0)
(0.209280968 0 0)
(0.157985925 0 0)
(0.126227307 0 0)
(0.0849105684 0 0)
(0.0677645589 0 0)
(0.038268619 0 0)
(-0.016413238 0 0)
(-0.0388951494 0 0)
(-0.0272897337 0 0)
(-0.0134238688 0 0)
(-0.0782641723 0 0)
(-0.0713015602 0 0)
(-0.0350392519 0 0)
(-0.0454663538 0 0)
(-0.0661777239 0 0)
(-0.0794642401 0 0)
(-0.0680798134 0 0)
(-0.0135565554 0 0)
(0.0140135963 0 0)
(-0.0410478624 0 0)
(-0.0273061716 0 0)
(0.0302210556 0 0)
(0.0542053017 0 0)
(0.0547942473 0 0)
(0.0659020526 0 0)
(0.0811527629 0 0)
(0.157233133 0 0)
(0.194113002 0 0)
(0.195507611 0 0)
(0.225236234 0 0)
(0.271361261 0 0)
(0.311977923 0 0)
(0.323286396 0 0)
(0.348320828 0 0)
(0.385036809 0 0)
(0.440767574 0 0)
(0.492352386 0 0)
(0.511846645 0 0)
(0.549334428 0 0)
(0.591547741 0 0)
(0.640343108 0 0)
(0.682724876 0 0)
(0.706859852 0 0)
(0.746652391 0 0)
(0.795431835 0 0)
(0.838720954 0 0)
(0.893526701 0 0)
(0.929752399 0 0)
(0.9444167 0 0)
(0.987022733 0 0)
(1.03739943 0 0)
(1.08492235 0 0)
(1.11300407 0 0)
(1.13229649 0 0)
(1.17496199 0 0)
(1.22089025 0 0)
(1.25907765 0 0)
(1.27261174 0 0)
(1.28324178 0 0)
(1.32328651 0 0)
(1.36862923 0 0)
(1.40945012 0 0)
(1.42010076 0 0)
(1.42819353 0 0)
(1.48029543 0 0)
(1.52583916 0 0)
(1.58384751 0 0)
(1.65746104 0 0)
(1.70317191 0 0)
(1.75896671 0 0)
(1.84120186 0 0)
(1.9188873 0 0)
(1.96392524 0 0)
(2.02394759 0 0)
(2.08550892 0 0)
(2.11343697 0 0)
(2.08355253 0 0)
(2.06158974 0 0)
(2.09313616 0 0)
(2.13438611 0 0)
(2.14266473 0 0)
(2.09669702 0 0)
(2.06986014 0 0)
(2.08399665 0 0)
(2.09576375 0 0)
(2.0719972 0 0)
(2.00568562 0 0)
(1.95882007 0 0)
(1.93847625 0 0)
(1.92603443 0 0)
(1.9288787 0 0)
(1.91961048 0 0)
(1.89196521 0 0)
(1.90225121 0 0)
(1.89144214 0 0)
(1.86806773 0 0)
(1.82505978 0 0)
(1.82413497 0 0)
(1.79727535 0 0)
(1.76209311 0 0)
(1.74140283 0 0)
(1.73975524 0 0)
(1.71492263 0 0)
(1.68631351 0 0)
(1.65524706 0 0)
(1.6610206 0 0)
(1.66777086 0 0)
(1.62878855 0 0)
(1.59587999 0 0)
(1.54909251 0 0)
(1.48412238 0 0)
(1.45631441 0 0)
(1.42167189 0 0)
(1.36483489 0 0)
(1.29752901 0 0)
(1.26531524 0 0)
(1.22923729 0 0)
(1.1736147 0 0)
(1.12318553 0 0)
(1.0963072 0 0)
(1.0748802 0 0)
(1.0419535 0 0)
(0.999353741 0 0)
(0.983347273 0 0)
(0.974244046 0 0)
(0.945799859 0 0)
(0.911448124 0 0)
(0.871827214 0 0)
(0.852615323 0 0)
(0.841292374 0 0)
(0.818219965 0 0)
(0.789177072 0 0)
(0.750278111 0 0)
(0.724544986 0 0)
(0.709374836 0 0)
(0.692804509 0 0)
(0.673642444 0 0)
(0.633783193 0 0)
(0.596856976 0 0)
(0.574065909 0 0)
(0.56153864 0 0)
(0.536334867 0 0)
(0.50247863 0 0)
(0.48362064 0 0)
(0.475127641 0 0)
(0.464678912 0 0)
(0.431909266 0 0)
(0.402117253 0 0)
(0.383103219 0 0)
(0.382792151 0 0)
(0.373195206 0 0)
(0.343646798 0 0)
(0.327471812 0 0)
(0.322391665 0 0)
(0.315767884 0 0)
(0.289462552 0 0)
(0.26396832 0 0)
(0.246087203 0 0)
(0.249551201 0 0)
(0.243174416 0 0)
(0.218701469 0 0)
(0.196771208 0 0)
(0.213468134 0 0)
(0.225084848 0 0)
(0.191660321 0 0)
(0.172469331 0 0)
(0.1648306 0 0)
(0.155507681 0 0)
(0.134718738 0 0)
(0.114108705 0 0)
(0.0958765094 0 0)
(0.0817634718 0 0)
(0.0767812387 0 0)
(0.0663742367 0 0)
(0.0640975845 0 0)
(0.0310005738 0 0)
(0.0494001432 0 0)
(0.0693458771 0 0)
(0.0173724327 0 0)
(-0.0254617832 0 0)
(-0.0125258794 0 0)
(0.00627125179 0 0)
(-0.0183465399 0 0)
(-0.0239767126 0 0)
(-0.0323051498 0 0)
(-0.0204814283 0 0)
(-0.0205239175 0 0)
(-0.0226453303 0 0)
(-0.0432526854 0 0)
(-0.0339405863 0 0)
(-0.0154793314 0 0)
(-0.0540356401 0 0)
(-0.0788233485 0 0)
(-0.0708425447 0 0)
(-0.0650118637 0 0)
(-0.0790752402 0 0)
(-0.0908886782 0 0)
(-0.106112199 0 0)
(-0.0797874529 0 0)
(-0.0603340932 0 0)
(-0.0631922196 0 0)
(-0.0864324227 0 0)
(-0.0642181397 0 0)
(-0.0344351129 0 0)
(-0.0639882822 0 0)
(-0.0724152775 0 0)
(-0.0706585006 0 0)
(-0.0747073553 0 0)
(-0.0866907954 0 0)
(-0.0746312699 0 0)
(-0.0649050978 0 0)
(-0.076846199 0 0)
(-0.0843548714 0 0)
(-0.0920887037 0 0)
(-0.0898484893 0 0)
(-0.0908995078 0 0)
(-0.102170863 0 0)
(-0.107922129 0 0)
(-0.116226493 0 0)
(-0.11664406 0 0)
(-0.121210357 0 0)
(-0.132337024 0 0)
(-0.138429992 0 0)
(-0.15326526 0 0)
(-0.126585434 0 0)
(-0.111775117 0 0)
(-0.136653782 0 0)
(-0.139228962 0 0)
(-0.140969229 0 0)
(-0.147232963 0 0)
(-0.149144889 0 0)
(-0.152060249 0 0)
(-0.158962484 0 0)
(-0.161717955 0 0)
(-0.161932653 0 0)
(-0.161843747 0 0)
(-0.164584035 0 0)
(-0.176372311 0 0)
(-0.174728523 0 0)
(-0.167773589 0 0)
(-0.170794552 0 0)
(-0.180455683 0 0)
(-0.183690583 0 0)
(-0.182589606 0 0)
(-0.18376061 0 0)
(-0.191262874 0 0)
(-0.198276022 0 0)
(-0.199446908 0 0)
(-0.198484926 0 0)
(-0.193280208 0 0)
(-0.220677446 0 0)
(-0.171681785 0 0)
(-0.124977805 0 0)
(-0.165021466 0 0)
(-0.175874182 0 0)
(-0.177663105 0 0)
(-0.176015322 0 0)
(-0.191480022 0 0)
(-0.213066269 0 0)
(-0.200418971 0 0)
(-0.192722436 0 0)
(-0.201476202 0 0)
(-0.205205972 0 0)
(-0.216098502 0 0)
(-0.187641131 0 0)
(-0.16750255 0 0)
(-0.170187497 0 0)
(-0.169989632 0 0)
(-0.164748045 0 0)
(-0.156953624 0 0)
(-0.155149368 0 0)
(-0.151573142 0 0)
(-0.149536742 0 0)
(-0.148495237 0 0)
(-0.155777731 0 0)
(-0.147766408 0 0)
(-0.137636476 0 0)
(-0.144515559 0 0)
(-0.141318036 0 0)
(-0.150781232 0 0)
(-0.138442771 0 0)
(-0.124229185 0 0)
(-0.13611723 0 0)
(-0.131633992 0 0)
(-0.144070624 0 0)
(-0.123388157 0 0)
(-0.102518124 0 0)
(-0.121034385 0 0)
(-0.119044139 0 0)
(-0.120727321 0 0)
(-0.112447881 0 0)
(-0.11013684 0 0)
(-0.11134529 0 0)
(-0.124340625 0 0)
(-0.0892945616 0 0)
(-0.0563459338 0 0)
(-0.0802988585 0 0)
(-0.0830258184 0 0)
(-0.0786275015 0 0)
(-0.0809055606 0 0)
(-0.0649003766 0 0)
(-0.0573104347 0 0)
(-0.0660629616 0 0)
(-0.0591121678 0 0)
(-0.0537952257 0 0)
(-0.0670555942 0 0)
(-0.0307061448 0 0)
(-0.000675989142 0 0)
(-0.0211297703 0 0)
(-0.0206024401 0 0)
(-0.0193843001 0 0)
(-0.013719561 0 0)
(-0.013768431 0 0)
(-0.017185011 0 0)
(-0.0171798934 0 0)
(-0.00843460316 0 0)
(-0.00253244281 0 0)
(-0.00597917773 0 0)
(-0.00197214537 0 0)
(0.00222281016 0 0)
(0.00686001607 0 0)
(-0.0115660888 0 0)
(0.00861324162 0 0)
(0.0344565058 0 0)
(0.0272745235 0 0)
(0.0119674592 0 0)
(0.0375238131 0 0)
(0.0695887993 0 0)
(0.0454809343 0 0)
(0.031551476 0 0)
(0.0146653895 0 0)
(0.0241371786 0 0)
(0.0293393426 0 0)
(0.00616843162 0 0)
(-0.0155365201 0 0)
(-0.0545333109 0 0)
(-0.0368842684 0 0)
(-0.0247138271 0 0)
(-0.069508016 0 0)
(-0.0981227347 0 0)
(-0.153632733 0 0)
(-0.13080912 0 0)
(-0.117428719 0 0)
(-0.183005105 0 0)
(-0.218191576 0 0)
(-0.274760908 0 0)
(-0.294531559 0 0)
(-0.319983688 0 0)
(-0.385637774 0 0)
(-0.428316384 0 0)
(-0.474292005 0 0)
(-0.511320086 0 0)
(-0.564728075 0 0)
)
;

boundaryField
{
    closed
    {
        type            noSlip;
    }
    open
    {
        type            inletOutlet;
        inletValue      nonuniform List<vector> 0();
        value           nonuniform List<vector> 0();
    }
    sides
    {
        type            empty;
    }
    procBoundary1to0
    {
        type            processor;
        value           uniform (1.13178245 0 0);
    }
    procBoundary1to2
    {
        type            processor;
        value           uniform (-0.633238612 0 0);
    }
}


// ************************************************************************* //
