/*--------------------------------*- C++ -*----------------------------------*\
| =========                 |                                                 |
| \\      /  F ield         | OpenFOAM: The Open Source CFD Toolbox           |
|  \\    /   O peration     | Version:  2306                                  |
|   \\  /    A nd           | Website:  www.openfoam.com                      |
|    \\/     M anipulation  |                                                 |
\*---------------------------------------------------------------------------*/
FoamFile
{
    version     2.0;
    format      ascii;
    arch        "LSB;label=32;scalar=64";
    class       volScalarField;
    location    "0.00198";
    object      prefDPV_H2;
}
// * * * * * * * * * * * * * * * * * * * * * * * * * * * * * * * * * * * * * //

dimensions      [1 -1 -1 0 0 0 0];

internalField   nonuniform List<scalar> 
531
(
-3.15249723e-05
-3.148066e-05
-3.15287421e-05
-3.15061387e-05
-3.09237529e-05
-3.07218948e-05
-3.04732168e-05
-3.04738882e-05
-3.14930787e-05
-3.15160113e-05
-3.06887555e-05
-3.04669511e-05
-3.14901221e-05
-3.15130447e-05
-3.0736472e-05
-3.04204876e-05
-3.1503714e-05
-3.14951461e-05
-3.09258419e-05
-3.02117218e-05
-3.02300834e-05
-3.1479283e-05
-3.15138615e-05
-3.0606173e-05
-3.04857551e-05
-3.14896977e-05
-3.15070595e-05
-3.14991992e-05
-3.07080354e-05
-3.05717822e-05
-3.14947161e-05
-3.15180739e-05
-3.14931561e-05
-3.09233872e-05
-3.01962933e-05
-3.02833654e-05
-3.14949502e-05
-3.15106175e-05
-3.15074685e-05
-3.08365626e-05
-3.06104381e-05
-3.15034665e-05
-3.15221721e-05
-3.14971473e-05
-3.09161473e-05
-3.04459442e-05
-3.04550677e-05
-3.15078144e-05
-3.15193801e-05
-3.0937697e-05
-3.05544485e-05
-3.03064342e-05
-3.03088144e-05
-3.14992086e-05
-3.15076099e-05
-3.15029329e-05
-3.09048955e-05
-3.04387249e-05
-3.14962606e-05
-3.15165259e-05
-3.07687216e-05
-3.05910013e-05
-3.14891728e-05
-3.15190434e-05
-3.07317302e-05
-3.07336792e-05
-3.15064221e-05
-3.09215236e-05
-3.03593984e-05
-3.15057309e-05
-3.15039999e-05
-3.08660168e-05
-3.05048989e-05
-3.15098245e-05
-3.15012444e-05
-3.09287927e-05
-3.03671695e-05
-3.03889494e-05
-3.14982255e-05
-3.15106444e-05
-3.15074043e-05
-3.08637545e-05
-3.06297865e-05
-3.15156604e-05
-3.15028554e-05
-3.09160389e-05
-3.05047819e-05
-3.05767864e-05
-3.01200023e-05
-3.01417269e-05
-3.1472311e-05
-3.15246708e-05
-3.14750403e-05
-3.15362505e-05
-3.14893384e-05
-3.09112334e-05
-3.04191812e-05
-3.04357783e-05
-3.14845603e-05
-3.15331843e-05
-3.07847496e-05
-3.05954697e-05
-3.14853795e-05
-3.15268643e-05
-3.07130287e-05
-3.07143861e-05
-3.15053627e-05
-3.09236709e-05
-3.03304906e-05
-3.15002579e-05
-3.1507089e-05
-3.07397464e-05
-3.05240727e-05
-3.14901979e-05
-3.15228894e-05
-3.06321018e-05
-3.06216503e-05
-3.14903377e-05
-3.1529162e-05
-3.14938613e-05
-3.09162356e-05
-3.04542893e-05
-3.04617399e-05
-3.15144998e-05
-3.15111092e-05
-3.0919342e-05
-3.04078397e-05
-3.04172756e-05
-3.14948296e-05
-3.15300258e-05
-3.08481159e-05
-3.06022419e-05
-3.14916651e-05
-3.15265459e-05
-3.08728827e-05
-3.06720372e-05
-3.14996263e-05
-3.15192843e-05
-3.09411802e-05
-3.06898114e-05
-3.04681687e-05
-3.04695854e-05
-3.14876565e-05
-3.15159646e-05
-3.05752223e-05
-3.05579449e-05
-3.14900708e-05
-3.15145168e-05
-3.15042606e-05
-3.0929285e-05
-3.04806696e-05
-3.14882182e-05
-3.15094298e-05
-3.0774854e-05
-3.05842208e-05
-3.14754851e-05
-3.1505012e-05
-3.06595635e-05
-3.06082862e-05
-3.14641202e-05
-3.14701441e-05
-3.14700029e-05
-3.11721378e-05
-3.06130483e-05
-3.03072717e-05
-3.03239163e-05
-3.14774537e-05
-3.15100507e-05
-3.06220165e-05
-3.04716445e-05
-3.14703602e-05
-3.15169669e-05
-3.05589606e-05
-3.053595e-05
-3.14698525e-05
-3.15217984e-05
-3.14779266e-05
-3.0909724e-05
-3.02310555e-05
-3.02563059e-05
-3.14598519e-05
-3.1513639e-05
-3.05315685e-05
-3.04507127e-05
-3.1456169e-05
-3.15175937e-05
-3.14714089e-05
-3.15254493e-05
-3.14970929e-05
-3.09265125e-05
-3.04391038e-05
-3.05135489e-05
-3.01033548e-05
-3.01226413e-05
-3.14547769e-05
-3.1501639e-05
-3.14713231e-05
-3.15044742e-05
-3.09465348e-05
-3.05236658e-05
-3.03725327e-05
-3.03775161e-05
-3.14805783e-05
-3.15028426e-05
-3.14993441e-05
-3.08225438e-05
-3.05639004e-05
-3.14914904e-05
-3.15134095e-05
-3.14997452e-05
-3.09221127e-05
-3.04481543e-05
-3.04536572e-05
-3.1496216e-05
-3.1504806e-05
-3.09347829e-05
-3.03529989e-05
-3.03691221e-05
-3.14784231e-05
-3.15222361e-05
-3.06728767e-05
-3.06170995e-05
-3.1485398e-05
-3.1525433e-05
-3.14994852e-05
-3.09226235e-05
-3.03251981e-05
-3.03647682e-05
-3.14910588e-05
-3.15209813e-05
-3.15072554e-05
-3.07507636e-05
-3.04542441e-05
-3.15095221e-05
-3.14787285e-05
-3.09136218e-05
-3.1472897e-05
-3.15385083e-05
-3.08898029e-05
-3.07379724e-05
-3.04975833e-05
-3.050401e-05
-3.14896863e-05
-3.15179233e-05
-3.15017961e-05
-3.09238379e-05
-3.04564198e-05
-3.05629987e-05
-3.01336109e-05
-3.01501034e-05
-3.14706736e-05
-3.15036559e-05
-3.14968469e-05
-3.05071779e-05
-3.02438304e-05
-3.1467164e-05
-3.14984783e-05
-3.14812714e-05
-3.15014822e-05
-3.0871746e-05
-3.04588453e-05
-3.14875819e-05
-3.14833581e-05
-3.09009478e-05
-3.03223772e-05
-3.03394103e-05
-3.1455615e-05
-3.15017458e-05
-3.06100312e-05
-3.03677211e-05
-3.145259e-05
-3.14928059e-05
-3.14742839e-05
-3.14958361e-05
-3.08151658e-05
-3.03197685e-05
-3.00771122e-05
-3.00801102e-05
-3.14539159e-05
-3.1490412e-05
-3.14684642e-05
-3.14988951e-05
-3.14903893e-05
-3.08070841e-05
-3.03499354e-05
-3.03592066e-05
-3.14470118e-05
-3.14764225e-05
-3.06366757e-05
-3.04624101e-05
-3.14403054e-05
-3.14623191e-05
-3.14620935e-05
-3.14746794e-05
-3.05135301e-05
-3.01865653e-05
-3.00273143e-05
-3.00324948e-05
-3.14591652e-05
-3.14916955e-05
-3.14870514e-05
-3.05704218e-05
-3.02288368e-05
-3.14782672e-05
-3.15044258e-05
-3.1502008e-05
-3.15083238e-05
-3.09255091e-05
-3.04829687e-05
-3.0495579e-05
-3.14984263e-05
-3.15196073e-05
-3.15158815e-05
-3.15238643e-05
-3.09192457e-05
-3.05957305e-05
-3.04375049e-05
-3.04383963e-05
-3.14912283e-05
-3.15244471e-05
-3.03852069e-05
-3.02888822e-05
-3.14889621e-05
-3.15288194e-05
-3.15202664e-05
-3.15321801e-05
-3.07822142e-05
-3.0416414e-05
-3.0291747e-05
-3.02957417e-05
-3.1503357e-05
-3.15400317e-05
-3.15340756e-05
-3.06823722e-05
-3.0403634e-05
-3.15156295e-05
-3.15568044e-05
-3.15639971e-05
-3.07714562e-05
-3.01673175e-05
-3.02101294e-05
-3.15583601e-05
-3.15943183e-05
-3.04539731e-05
-3.01997444e-05
-3.15676508e-05
-3.16340007e-05
-3.16429726e-05
-3.16605859e-05
-3.05192911e-05
-3.00878445e-05
-2.9918126e-05
-2.99186888e-05
-3.1682292e-05
-3.17771857e-05
-3.17440237e-05
-3.17796221e-05
-3.17583348e-05
-3.17835677e-05
-3.17674154e-05
-3.03465915e-05
-3.01538227e-05
-3.16528463e-05
-3.17313655e-05
-3.16893006e-05
-3.02157782e-05
-2.99886466e-05
-3.15671397e-05
-3.16260615e-05
-3.16033213e-05
-3.1616649e-05
-3.15963702e-05
-3.16082981e-05
-3.15902224e-05
-3.16035305e-05
-3.15885692e-05
-3.16031677e-05
-3.15929217e-05
-3.1609989e-05
-3.16060315e-05
-3.16277589e-05
-3.1633372e-05
-3.16633217e-05
-3.16861141e-05
-3.17302958e-05
-3.17865014e-05
-3.18686094e-05
-3.20179066e-05
-3.2247541e-05
-3.21897127e-05
-3.20941088e-05
-3.19696768e-05
-3.18841013e-05
-3.17818879e-05
-3.17128155e-05
-3.16335506e-05
-3.15852098e-05
-3.15314408e-05
-3.14980132e-05
-3.14068692e-05
-3.13571395e-05
-3.13123894e-05
-3.13881935e-05
-3.13082795e-05
-3.12682702e-05
-3.12090994e-05
-3.11807133e-05
-3.11598167e-05
-3.11454409e-05
-3.11595805e-05
-3.11293094e-05
-3.10756351e-05
-3.09113112e-05
-3.08981432e-05
-3.0696102e-05
-3.0733338e-05
-3.04829905e-05
-3.0565653e-05
-3.02936579e-05
-3.26578849e-05
-3.20933079e-05
-3.22093152e-05
-3.17087302e-05
-3.17322468e-05
-3.13006983e-05
-3.12423735e-05
-3.08645074e-05
-3.07463035e-05
-3.03831878e-05
-3.02128973e-05
-2.9918878e-05
-2.99407624e-05
-2.99837427e-05
-3.00098194e-05
-3.00532955e-05
-3.00822188e-05
-3.01274701e-05
-3.01584794e-05
-3.02047685e-05
-3.02157124e-05
-3.02714373e-05
-3.03214808e-05
-3.03716649e-05
-3.0677547e-05
-3.21282879e-05
-3.35939009e-05
-3.4828098e-05
-3.55938674e-05
-3.82891026e-05
-3.9407656e-05
-4.13277024e-05
-4.23726985e-05
-4.42174737e-05
-4.51401956e-05
-4.67542675e-05
-4.76057778e-05
-4.93965763e-05
-5.03030123e-05
-5.22773683e-05
-5.32089462e-05
-5.52595611e-05
-5.61560129e-05
-5.8212015e-05
-5.90534045e-05
-6.10344866e-05
-6.17824661e-05
-6.35985362e-05
-6.4264082e-05
-6.59208202e-05
-6.65042464e-05
-6.79857086e-05
-6.84926376e-05
-6.98013976e-05
-7.02400001e-05
-7.14107498e-05
-7.18018213e-05
-7.28506204e-05
-7.32034577e-05
-7.41462668e-05
-7.44590521e-05
-7.52978384e-05
-7.55933497e-05
-7.63513322e-05
-7.6613304e-05
-7.73101652e-05
-7.75439979e-05
-7.81692007e-05
-7.83882642e-05
-7.89703177e-05
-7.91553312e-05
-7.9734174e-05
-7.97458389e-05
-8.02749176e-05
-8.08102919e-05
-8.13314902e-05
-8.08437126e-05
-8.16936781e-05
-8.21214294e-05
-8.29049319e-05
-8.19302086e-05
-8.2651051e-05
-8.33861163e-05
-8.41074083e-05
-8.26758084e-05
-8.32709229e-05
-8.41971447e-05
-8.44548251e-05
-8.36725812e-05
-8.39102775e-05
-8.47549547e-05
-8.49698989e-05
-8.43462111e-05
-8.45154618e-05
-8.52286209e-05
-8.53970825e-05
-8.5053119e-05
-8.49840425e-05
-8.52537306e-05
-8.57598665e-05
-8.57381434e-05
-8.53502468e-05
-8.53502041e-05
-8.60630342e-05
-8.5987971e-05
-8.56379638e-05
-8.56363767e-05
-8.63367796e-05
-8.62297886e-05
-8.59802597e-05
-8.58793937e-05
-8.62337337e-05
)
;

boundaryField
{
    closed
    {
        type            calculated;
        value           nonuniform List<scalar> 0();
    }
    open
    {
        type            calculated;
        value           nonuniform List<scalar> 0();
    }
    sides
    {
        type            empty;
    }
    procBoundary4to3
    {
        type            processor;
        value           uniform -3.1469992e-05;
    }
    procBoundary4to5
    {
        type            processor;
        value           uniform -8.64860304e-05;
    }
}


// ************************************************************************* //
