/*--------------------------------*- C++ -*----------------------------------*\
| =========                 |                                                 |
| \\      /  F ield         | OpenFOAM: The Open Source CFD Toolbox           |
|  \\    /   O peration     | Version:  2306                                  |
|   \\  /    A nd           | Website:  www.openfoam.com                      |
|    \\/     M anipulation  |                                                 |
\*---------------------------------------------------------------------------*/
FoamFile
{
    version     2.0;
    format      ascii;
    arch        "LSB;label=32;scalar=64";
    class       volScalarField;
    location    "0.00092";
    object      T;
}
// * * * * * * * * * * * * * * * * * * * * * * * * * * * * * * * * * * * * * //

dimensions      [0 0 0 1 0 0 0];

internalField   nonuniform List<scalar> 
530
(
340.274632
328.978424
326.126917
327.206998
324.901914
324.977516
340.228119
340.509826
327.982974
326.398633
340.303154
340.456137
327.910804
326.680337
340.457612
340.227343
328.748493
324.237864
326.352151
340.177023
340.489383
340.175825
328.732724
325.559857
327.094582
324.134949
325.468188
340.314984
340.387458
340.326456
328.857972
324.493764
325.461297
340.355112
340.304189
328.856954
323.686557
326.214115
340.333753
340.348924
340.331425
328.876131
325.114174
326.229745
340.375655
340.284659
328.812531
325.40842
327.156324
324.191399
325.574397
340.303821
340.353181
340.302926
328.841286
325.269166
326.293337
340.309575
340.328771
328.888719
325.627696
326.451288
340.336562
340.293983
328.870182
325.73293
326.415786
340.293427
340.294147
328.930785
325.377439
326.947196
340.29469
340.164707
329.554666
326.227002
326.583515
324.587895
324.598787
340.11192
340.289553
326.678282
326.572375
340.115929
340.186147
340.196776
329.01793
323.108103
324.682644
340.099267
340.123223
327.725706
321.898528
323.835156
339.968458
340.156389
340.02287
340.236062
328.701831
323.73565
323.823091
323.817822
339.849772
340.155989
325.243196
324.142553
339.892724
340.080062
326.086553
324.682308
339.999058
339.893927
327.846273
322.697176
325.126865
339.860323
340.065314
339.953837
328.623486
324.289993
325.115853
339.935448
339.995692
328.581623
323.46382
324.637011
339.86316
340.059916
326.914347
324.859717
339.958414
339.894535
327.173878
321.938148
323.252066
339.695324
340.233878
325.658171
323.805407
339.688741
340.241946
325.178892
323.776786
339.760422
340.202835
325.060308
323.985002
339.834927
340.177532
325.501503
324.624679
339.910284
340.09655
326.494011
325.257844
340.072333
339.912666
328.342259
323.533934
326.014124
339.844322
340.209403
339.955877
328.949963
324.817733
326.642362
323.748344
324.150263
339.806718
340.307111
326.568482
325.025987
339.827795
340.265796
326.623254
325.568253
339.89148
340.14418
326.917064
325.433323
340.030739
340.018578
327.866046
322.691101
325.070584
339.969955
340.088058
340.056007
340.109733
329.041096
324.336349
326.784973
323.606246
324.079448
340.041817
339.954488
326.973962
322.051858
323.893265
339.810538
340.227005
325.263299
324.57586
339.933224
340.13562
324.17893
324.435657
340.286887
340.061449
340.408533
326.770925
323.800436
340.198591
340.283954
325.64824
326.648325
340.449473
329.107665
325.112309
340.248368
340.268321
329.019885
326.35553
326.907262
326.887538
340.369646
340.081788
328.845588
325.084054
326.801128
340.092795
340.454623
327.567835
326.499183
340.280463
340.296234
328.309683
324.594818
325.881363
340.318223
340.170826
327.996129
323.083887
326.643756
340.144829
340.259936
340.022642
328.972963
322.27419
327.811617
340.090879
327.286718
323.476183
340.323375
339.918224
340.176061
339.91629
325.763422
322.671321
325.360106
322.671784
325.77626
340.018806
340.095525
339.928303
328.776574
324.341136
326.740756
340.153771
340.115982
327.367695
323.070229
326.307981
340.269549
340.21675
340.082306
326.645817
322.319094
325.273656
340.231471
340.265424
325.314798
325.120093
340.344316
340.112655
326.576482
323.580661
326.049378
340.196501
340.117347
326.725032
326.463364
340.228733
339.839705
327.884616
322.715879
327.201733
340.09296
340.049367
339.965907
325.285578
321.796367
324.125271
324.432361
340.198754
339.861057
325.717147
326.101686
340.361675
340.027771
326.027506
326.108053
340.511107
340.071058
326.571817
323.100655
327.294863
340.434521
340.351255
340.311121
327.470729
326.941384
340.504166
340.164226
327.224334
326.297897
326.659432
327.110097
340.562841
340.118009
327.929578
323.698611
328.816877
340.320525
328.20075
326.121926
340.480587
340.068381
326.15722
329.030916
340.50158
329.051447
325.28472
340.375017
340.187053
327.208892
323.7097
326.721582
340.188182
340.237762
325.984297
322.252507
327.31811
340.285367
340.158079
340.248805
325.627615
325.085987
340.281645
340.077051
325.138162
325.296825
340.389902
340.019639
325.18332
322.953371
326.195856
340.106156
340.295035
325.821421
326.171308
340.246651
340.184391
326.826157
325.058925
327.695996
340.203507
340.258345
327.261691
325.576025
328.019718
340.213271
340.372239
327.512368
325.887288
328.144457
340.472277
340.23368
328.726283
324.225477
328.718146
340.313629
328.752059
325.332947
340.520013
340.322241
328.276893
324.979821
328.295827
340.40746
340.550642
328.764859
326.01881
328.279281
340.471114
340.532369
327.683603
326.013812
327.848441
340.367372
340.51547
327.941529
325.899917
327.780722
340.33419
340.493425
327.520408
325.591984
327.311519
340.312923
340.442586
326.966953
324.681383
327.053664
340.238169
340.448143
326.143625
325.916059
340.201199
340.351848
326.685568
324.19388
326.708532
340.104644
340.461348
326.027212
325.676994
340.096594
340.309024
326.633147
324.104434
326.647772
340.05304
340.414392
326.071913
325.682862
340.036897
340.250635
326.668766
324.08292
326.610419
339.985228
340.39452
326.07778
325.609007
339.956426
340.21534
326.563137
323.861757
326.430307
339.960294
340.327716
325.697887
325.241276
339.937485
340.147834
325.928154
322.993535
325.654388
339.884562
340.395109
325.110665
324.838828
339.948727
340.252923
325.573183
325.314781
339.994502
340.197875
325.63261
325.287469
340.040272
340.097383
325.848827
323.304028
325.79496
339.878033
340.452982
326.034366
325.660556
339.905008
340.263599
327.232872
326.845603
339.960104
340.152043
327.087605
326.752516
325.281511
328.156655
340.372155
327.287841
324.607095
339.708103
340.400708
325.708975
325.01464
339.819897
340.326606
323.877319
326.940631
340.1141
340.179213
340.196211
328.932136
320.82452
328.049256
340.15876
326.506213
325.32297
339.990495
340.086288
340.181418
327.171127
323.690174
326.4446
340.040376
340.253942
326.662119
324.674865
)
;

boundaryField
{
    closed
    {
        type            fixedValue;
        value           nonuniform List<scalar> 0();
    }
    open
    {
        type            zeroGradient;
    }
    sides
    {
        type            empty;
    }
    procBoundary2to1
    {
        type            processor;
        value           uniform 340.32484;
    }
    procBoundary2to3
    {
        type            processor;
        value           uniform 326.29356;
    }
}


// ************************************************************************* //
