/*--------------------------------*- C++ -*----------------------------------*\
| =========                 |                                                 |
| \\      /  F ield         | OpenFOAM: The Open Source CFD Toolbox           |
|  \\    /   O peration     | Version:  2306                                  |
|   \\  /    A nd           | Website:  www.openfoam.com                      |
|    \\/     M anipulation  |                                                 |
\*---------------------------------------------------------------------------*/
FoamFile
{
    version     2.0;
    format      ascii;
    arch        "LSB;label=32;scalar=64";
    class       volScalarField;
    location    "0.00074";
    object      prefDh_H2O;
}
// * * * * * * * * * * * * * * * * * * * * * * * * * * * * * * * * * * * * * //

dimensions      [1 1 -3 0 0 0 0];

internalField   nonuniform List<scalar> 
531
(
92.2885211
92.3095198
88.9154845
87.8399968
88.013188
92.3834002
92.1795417
92.2708305
88.5986629
87.9366147
88.0395649
87.8550915
87.8244114
92.4107929
92.2692755
88.1144895
87.9584774
92.3960481
92.2486147
88.1167567
87.9920708
92.3361872
92.2671942
88.6144851
87.9517642
88.0369996
92.322768
92.1970231
88.167564
88.0027264
92.3437596
92.232514
88.5961601
87.9737625
87.9747948
92.3117766
92.2823701
89.1610061
87.8712841
87.9926098
92.3743256
92.1952963
92.243528
88.5276766
88.0040528
87.9858508
87.9313786
92.4296006
92.3820611
88.2247076
87.6612677
87.8523498
92.5257828
92.254302
92.3899686
88.1821345
87.6543023
87.7622152
92.5186322
92.3305684
87.9887849
87.8169634
92.5804616
92.3257653
87.9868122
87.8277114
92.5698063
92.3218256
87.9941575
87.8517627
92.5354826
92.3126828
88.0579851
87.9087875
92.4459671
92.3136646
88.4575634
87.9527203
87.9311222
92.3675645
92.2773052
88.7963511
87.9644566
87.9613461
92.3619941
92.3043164
89.2157538
87.8637923
87.9510524
92.4256961
92.2537767
92.3021323
90.219342
88.0434008
88.051579
87.9890382
87.8910743
87.8624842
92.4902513
92.2893779
88.1387544
87.9585969
92.5186495
92.2757947
88.0712433
87.9208467
92.5314393
92.2792385
88.0437494
87.9091092
92.5154547
92.2777853
88.1065066
87.9608861
92.4459172
92.2873208
88.5132204
87.9841247
87.9676578
92.3787983
92.2686197
89.1709554
88.0032212
87.9973185
92.3968921
92.3144898
88.4673716
87.8240333
87.8040918
92.4469893
92.296841
88.0446423
87.8568653
92.5292359
92.2802142
88.0995295
87.9821647
92.4552239
92.2497028
89.0650559
88.1149026
88.0598987
88.0487558
92.4271931
92.2871638
88.5508555
87.9203276
87.9002733
92.4001136
92.2761854
88.178626
87.9670953
92.4262109
92.301844
88.5432891
87.8771215
87.8734507
92.3965669
92.255137
88.1869384
88.0075991
92.4269352
92.2209923
88.9341346
88.095074
88.0132019
87.991945
92.4603999
92.2487575
88.1466971
87.9643941
92.4316084
92.2749899
88.5944425
87.9521268
87.9398296
92.3676867
92.2709086
88.8277103
87.9910263
87.9755182
92.3771786
92.2757179
88.7072282
87.9629116
87.9457468
92.411915
92.325372
88.5814119
87.7627332
87.8379508
92.4856768
92.3396027
92.3282414
92.3432909
88.3058451
87.7660412
87.9069937
87.5523318
87.6311825
92.6081127
92.3483402
92.4550925
92.2734071
92.296919
88.216229
87.8783229
87.883335
87.8990444
92.4745916
92.3222647
89.1845006
88.0271249
87.9986118
92.3978387
92.269974
88.7293766
87.9733537
87.9640858
92.3943985
92.2965607
88.533884
87.8661923
87.8525726
92.3917945
92.2656064
88.1635802
87.9495029
92.4279037
92.266436
88.5539721
87.9408031
87.9322318
92.369395
92.266506
88.7471984
87.9804676
87.9614949
92.3377799
92.2124823
88.9267907
88.1340473
88.0587482
88.0333769
92.4733297
92.2479755
88.0777045
87.9336661
92.5753422
92.3035889
92.3661038
92.3202743
88.3451176
87.8482881
87.9616504
87.7988322
87.7938435
92.4651644
92.3618689
88.506381
87.9079477
88.0141644
92.4457372
92.2432165
88.0794748
88.0050159
92.5666655
92.2048211
92.3488972
88.3352198
87.734448
87.8426562
92.3900722
92.3236122
88.6846797
87.901303
88.1969083
92.4161319
92.1609723
92.263509
88.4175619
87.844564
87.9600922
87.7151259
87.6925921
92.5560362
92.3560424
92.3460178
92.3448925
88.468029
87.7920166
87.8001066
92.4103109
92.3910951
88.5110022
87.6924816
87.9271376
92.5223781
92.1979
92.3542387
88.5542943
87.6565904
87.9385439
92.4710893
92.1997877
92.2568835
88.4407598
87.9703557
87.9851361
87.9846993
92.422759
92.2182873
89.1146407
88.1873526
88.0873899
88.1889743
92.3362791
92.1876495
92.2277301
90.0661612
88.0341619
88.0588678
87.8743304
87.8724227
92.4603178
92.3437511
88.3010524
87.7743208
87.8982256
92.4879165
92.2754865
92.3317869
92.2733148
88.3447399
87.9367893
87.8555098
87.8209829
92.5996037
92.3107451
87.8935816
87.8558714
92.6749032
92.2415614
92.4242763
88.2888271
87.6895105
87.9053687
92.4204821
92.2990381
88.5993839
87.9445113
88.0874907
92.3973
92.1921973
92.2493488
89.2243951
88.0868131
88.0845846
88.0501332
87.8670714
87.8728533
92.5213276
92.3558087
92.3532861
92.3671751
88.156806
87.4783864
87.7039601
92.5930571
92.2581342
92.4033991
88.144942
87.6060456
88.4008997
92.4743091
92.1822728
88.1210453
87.8342556
92.4947356
92.2560762
89.2223939
88.0270464
87.931136
87.9192561
92.4520533
92.3217863
88.0965763
87.4458392
87.5508559
92.5334356
92.1602273
92.3534316
92.0420903
92.191047
87.9362002
87.3368159
87.3167073
87.2730356
92.2151163
91.8836598
87.6237031
86.9272376
86.9609848
91.5270914
91.4356102
91.0905576
91.1698168
86.9943894
91.009302
90.1842071
90.3873508
89.6921792
89.7536477
89.1554216
89.0925978
88.5730308
88.4059086
87.9592982
87.7178281
87.3657954
87.1386443
87.0798785
86.7232468
86.3268461
85.8223836
85.3192459
84.7143701
84.1046024
83.3823115
82.7403639
82.214149
82.1945773
81.5787028
80.8227561
79.9671173
78.8182716
77.7642816
76.1626227
74.9802708
73.2693859
72.0508403
70.6999287
72.6583724
70.6069465
69.1997061
66.9459278
65.4655305
63.016111
61.3766902
58.7266508
57.5653754
55.6249796
53.1744407
47.6997266
48.7421536
37.1229748
29.3204573
23.2468303
3.43673074
1.31629873
-5.63372458
-8.39922971
-13.9725647
-16.8019608
-23.6359001
-27.1136905
-35.087777
-39.4443607
-49.8217288
-56.5850433
-66.8819995
-73.4433907
-82.9611391
-88.6206887
-96.6614551
-101.889139
-108.893174
-112.264646
-117.348589
-123.381543
-129.613128
-128.500411
-131.825497
-142.603064
-147.247506
-140.924282
-144.170128
-155.835694
-158.081723
-154.976834
-158.335347
-163.421336
-164.753899
-165.956522
-168.006991
-169.222966
-171.012243
-172.197221
-173.992653
-175.179762
-178.50926
-176.742456
-176.435044
-183.078513
-191.62824
-178.999275
-177.44342
-192.995383
-199.141352
-182.805088
-183.724856
-199.601535
-199.539825
-188.624099
-187.282448
-200.055358
-200.332577
-191.90685
-190.19024
-199.727643
-200.980547
-195.77726
-192.329564
-196.475825
-201.428065
-200.76244
-194.190872
-196.094159
-201.821514
-201.769663
-195.734414
)
;

boundaryField
{
    closed
    {
        type            calculated;
        value           nonuniform List<scalar> 0();
    }
    open
    {
        type            calculated;
        value           nonuniform List<scalar> 0();
    }
    sides
    {
        type            empty;
    }
    procBoundary4to3
    {
        type            processor;
        value           uniform 87.9005627;
    }
    procBoundary4to5
    {
        type            processor;
        value           uniform -196.622176;
    }
}


// ************************************************************************* //
