/*--------------------------------*- C++ -*----------------------------------*\
| =========                 |                                                 |
| \\      /  F ield         | OpenFOAM: The Open Source CFD Toolbox           |
|  \\    /   O peration     | Version:  2306                                  |
|   \\  /    A nd           | Website:  www.openfoam.com                      |
|    \\/     M anipulation  |                                                 |
\*---------------------------------------------------------------------------*/
FoamFile
{
    version     2.0;
    format      ascii;
    arch        "LSB;label=32;scalar=64";
    class       volScalarField;
    location    "0.00074";
    object      prefDZ_H2;
}
// * * * * * * * * * * * * * * * * * * * * * * * * * * * * * * * * * * * * * //

dimensions      [1 -1 -1 0 0 0 0];

internalField   nonuniform List<scalar> 
531
(
6.36157935e-05
6.35873976e-05
6.22725598e-05
6.16163442e-05
6.19467575e-05
6.35917683e-05
6.36216038e-05
6.35961061e-05
6.22738332e-05
6.17742303e-05
6.19941946e-05
6.16294698e-05
6.1637632e-05
6.35614554e-05
6.36238216e-05
6.20823204e-05
6.18524625e-05
6.35929231e-05
6.36208487e-05
6.21110058e-05
6.18987568e-05
6.36243875e-05
6.3606025e-05
6.2257552e-05
6.18133835e-05
6.20051856e-05
6.36056477e-05
6.36504901e-05
6.2195079e-05
6.19440709e-05
6.36138823e-05
6.36341318e-05
6.22805216e-05
6.18682886e-05
6.18693475e-05
6.36066689e-05
6.35958239e-05
6.2283108e-05
6.16803834e-05
6.19052499e-05
6.35992356e-05
6.36086824e-05
6.36054314e-05
6.22977172e-05
6.1889455e-05
6.18668561e-05
6.17600971e-05
6.35731296e-05
6.35482315e-05
6.22803291e-05
6.125567e-05
6.16540995e-05
6.35223597e-05
6.35885468e-05
6.35343221e-05
6.22107631e-05
6.1229502e-05
6.15024765e-05
6.34968136e-05
6.35833711e-05
6.18081075e-05
6.15908961e-05
6.34917596e-05
6.35858403e-05
6.18072323e-05
6.16081655e-05
6.35038125e-05
6.35855053e-05
6.18389104e-05
6.16471315e-05
6.35315411e-05
6.35858672e-05
6.19729621e-05
6.173543e-05
6.35677069e-05
6.35772124e-05
6.23019657e-05
6.17860943e-05
6.17903799e-05
6.35619114e-05
6.35955406e-05
6.22999388e-05
6.1828996e-05
6.18279807e-05
6.3581286e-05
6.35774955e-05
6.22962164e-05
6.16511786e-05
6.18188215e-05
6.35724243e-05
6.35805005e-05
6.35756901e-05
6.24214497e-05
6.19770675e-05
6.19556544e-05
6.18844565e-05
6.16692337e-05
6.16721681e-05
6.35279993e-05
6.35961352e-05
6.2086393e-05
6.18330471e-05
6.35298753e-05
6.36029878e-05
6.1980537e-05
6.17781855e-05
6.35390778e-05
6.36084709e-05
6.19458023e-05
6.17609029e-05
6.35534646e-05
6.36065962e-05
6.2064214e-05
6.18351996e-05
6.35772144e-05
6.35875192e-05
6.22975093e-05
6.18432522e-05
6.18480411e-05
6.3561979e-05
6.35862846e-05
6.23046642e-05
6.18872342e-05
6.18894112e-05
6.35783262e-05
6.3577683e-05
6.22908782e-05
6.15672329e-05
6.15900469e-05
6.35554853e-05
6.36120764e-05
6.19557169e-05
6.16796615e-05
6.35537998e-05
6.36102299e-05
6.20459159e-05
6.18730986e-05
6.35673148e-05
6.35939906e-05
6.23062545e-05
6.2083731e-05
6.19765266e-05
6.19731027e-05
6.35799806e-05
6.35807984e-05
6.22966495e-05
6.1735711e-05
6.17396529e-05
6.35704243e-05
6.36033154e-05
6.21963664e-05
6.18455405e-05
6.35937215e-05
6.35903069e-05
6.22835788e-05
6.16702583e-05
6.17091852e-05
6.35768775e-05
6.36223823e-05
6.22071796e-05
6.19341447e-05
6.35869035e-05
6.36226326e-05
6.22965715e-05
6.20754292e-05
6.19056619e-05
6.19076897e-05
6.35748519e-05
6.36202046e-05
6.2144561e-05
6.18544357e-05
6.35978844e-05
6.36047175e-05
6.22837401e-05
6.18077946e-05
6.18099726e-05
6.3587549e-05
6.35944492e-05
6.22832909e-05
6.18673644e-05
6.18680557e-05
6.35880291e-05
6.35914792e-05
6.22897644e-05
6.18103525e-05
6.18127769e-05
6.35695801e-05
6.35820026e-05
6.23093255e-05
6.14663996e-05
6.16103201e-05
6.35591125e-05
6.35619196e-05
6.3578763e-05
6.35628021e-05
6.23111968e-05
6.14471495e-05
6.17367157e-05
6.10755503e-05
6.12542342e-05
6.3516156e-05
6.35603543e-05
6.35414221e-05
6.3583785e-05
6.35753135e-05
6.22591829e-05
6.1661338e-05
6.16844288e-05
6.16955652e-05
6.35606535e-05
6.35465271e-05
6.23029294e-05
6.18951264e-05
6.18971498e-05
6.35604105e-05
6.35909154e-05
6.23013481e-05
6.18374764e-05
6.18413756e-05
6.35873837e-05
6.35932929e-05
6.22822122e-05
6.16600594e-05
6.16776825e-05
6.35868053e-05
6.36247085e-05
6.21801306e-05
6.18383348e-05
6.3599403e-05
6.36163899e-05
6.22825985e-05
6.18001088e-05
6.180334e-05
6.35960634e-05
6.36052473e-05
6.22714487e-05
6.18619684e-05
6.18613088e-05
6.35934779e-05
6.36240779e-05
6.22948596e-05
6.21414021e-05
6.1973592e-05
6.19743268e-05
6.3550311e-05
6.36128584e-05
6.20016842e-05
6.17990861e-05
6.35444662e-05
6.35962366e-05
6.35695319e-05
6.35968079e-05
6.23064114e-05
6.16229155e-05
6.18349215e-05
6.15311113e-05
6.15342309e-05
6.35539163e-05
6.35477881e-05
6.23039129e-05
6.16770305e-05
6.19233346e-05
6.35365073e-05
6.36028046e-05
6.20002048e-05
6.1922001e-05
6.35516621e-05
6.36135901e-05
6.35789621e-05
6.22984333e-05
6.1429591e-05
6.16335331e-05
6.35811855e-05
6.35734837e-05
6.22899706e-05
6.16975438e-05
6.22303841e-05
6.35758239e-05
6.36126918e-05
6.35887121e-05
6.22890696e-05
6.16075585e-05
6.1845543e-05
6.13729469e-05
6.13867986e-05
6.35109708e-05
6.35806607e-05
6.35503421e-05
6.35903281e-05
6.23228357e-05
6.15342486e-05
6.15391901e-05
6.35765901e-05
6.35496846e-05
6.22843301e-05
6.13218821e-05
6.17968447e-05
6.35449837e-05
6.36163612e-05
6.35677337e-05
6.22751589e-05
6.1286083e-05
6.1818095e-05
6.35762094e-05
6.36147512e-05
6.36073253e-05
6.22883778e-05
6.18503242e-05
6.18804093e-05
6.18821131e-05
6.35882485e-05
6.36105576e-05
6.22880915e-05
6.22230314e-05
6.204898e-05
6.22181673e-05
6.36034273e-05
6.3602902e-05
6.3603558e-05
6.23881928e-05
6.1972724e-05
6.20022093e-05
6.16885336e-05
6.16904326e-05
6.35737535e-05
6.35798128e-05
6.22955231e-05
6.14761012e-05
6.17417018e-05
6.35449098e-05
6.35997824e-05
6.35611867e-05
6.36103616e-05
6.23404512e-05
6.17951519e-05
6.15991776e-05
6.16048694e-05
6.34989936e-05
6.35920039e-05
6.16606197e-05
6.16660805e-05
6.35202736e-05
6.36009369e-05
6.35555934e-05
6.23048771e-05
6.13225372e-05
6.17376647e-05
6.35512806e-05
6.35771208e-05
6.23140133e-05
6.17760374e-05
6.20311486e-05
6.35767485e-05
6.35887888e-05
6.35870781e-05
6.23036347e-05
6.20331504e-05
6.20333755e-05
6.19613194e-05
6.16485202e-05
6.16533925e-05
6.35370949e-05
6.3544204e-05
6.35643389e-05
6.35477788e-05
6.2169789e-05
6.09561465e-05
6.14131672e-05
6.35371945e-05
6.36208145e-05
6.35596792e-05
6.22071395e-05
6.11715779e-05
6.22335021e-05
6.35325419e-05
6.36750219e-05
6.20759769e-05
6.16729484e-05
6.35630743e-05
6.36278669e-05
6.22943561e-05
6.19690643e-05
6.18045887e-05
6.17981444e-05
6.36380856e-05
6.36429094e-05
6.21667659e-05
6.10300079e-05
6.13070128e-05
6.36832236e-05
6.38161232e-05
6.37668978e-05
6.38996686e-05
6.3866377e-05
6.19736676e-05
6.11471666e-05
6.11733693e-05
6.1152361e-05
6.40441866e-05
6.41302419e-05
6.17411063e-05
6.08730137e-05
6.09232624e-05
6.39255341e-05
6.39403889e-05
6.39529859e-05
6.380973e-05
6.09795147e-05
6.34391186e-05
6.38912302e-05
6.35774347e-05
6.38545203e-05
6.36781161e-05
6.38576253e-05
6.37630939e-05
6.38953526e-05
6.38601903e-05
6.39904095e-05
6.40322455e-05
6.42251155e-05
6.4475407e-05
6.50601771e-05
6.48023189e-05
6.44982983e-05
6.41829152e-05
6.39426677e-05
6.37202942e-05
6.35751091e-05
6.34426863e-05
6.32378463e-05
6.3110517e-05
6.31807696e-05
6.29817199e-05
6.28558437e-05
6.28091247e-05
6.27680643e-05
6.27534662e-05
6.23620649e-05
6.21000281e-05
6.16959142e-05
6.14399223e-05
6.14801453e-05
6.50206582e-05
6.43065031e-05
6.38461488e-05
6.30774292e-05
6.25835489e-05
6.17524489e-05
6.11764041e-05
6.0316678e-05
6.0388259e-05
6.05228326e-05
6.29465284e-05
6.52937564e-05
6.84266522e-05
7.21282265e-05
7.67132311e-05
8.03217628e-05
9.24983718e-05
9.35517004e-05
9.64117127e-05
9.7660424e-05
9.96358224e-05
0.000100868273
0.000103412867
0.000104952401
0.000108000477
0.00010988639
0.00011397284
0.000116894037
0.000120801068
0.000123509791
0.000127045311
0.000129368197
0.000132406471
0.000134471463
0.000137144484
0.000138831041
0.000141078545
0.000142955648
0.000145305401
0.000146166567
0.000147826363
0.000150194369
0.000151886662
0.000151428356
0.000152644852
0.000154978808
0.000155826575
0.00015651853
0.000157671705
0.000158631881
0.0001592546
0.000160440779
0.000161020564
0.000161188076
0.000161737277
0.000162383083
0.000163434881
0.000163064969
0.000163782582
0.000164250456
0.000165875166
0.000165407449
0.000167458372
0.000165838961
0.000166886528
0.000168061201
0.000169841057
0.00016716949
0.000168597178
0.000170446833
0.000170371043
0.000168872512
0.00016961532
0.000171072241
0.000171455804
0.000170147796
0.000170636732
0.00017204809
0.000172365393
0.000171625347
0.000171445212
0.000172009046
0.00017300844
0.000173059521
0.000172090221
0.000172280813
0.000173580851
0.000173506729
0.000172677025
)
;

boundaryField
{
    closed
    {
        type            calculated;
        value           nonuniform List<scalar> 0();
    }
    open
    {
        type            calculated;
        value           nonuniform List<scalar> 0();
    }
    sides
    {
        type            empty;
    }
    procBoundary4to3
    {
        type            processor;
        value           uniform 6.1738165e-05;
    }
    procBoundary4to5
    {
        type            processor;
        value           uniform 0.000172804426;
    }
}


// ************************************************************************* //
