/*--------------------------------*- C++ -*----------------------------------*\
| =========                 |                                                 |
| \\      /  F ield         | OpenFOAM: The Open Source CFD Toolbox           |
|  \\    /   O peration     | Version:  2306                                  |
|   \\  /    A nd           | Website:  www.openfoam.com                      |
|    \\/     M anipulation  |                                                 |
\*---------------------------------------------------------------------------*/
FoamFile
{
    version     2.0;
    format      ascii;
    arch        "LSB;label=32;scalar=64";
    class       volScalarField;
    location    "0.00054";
    object      prefDZ_H2;
}
// * * * * * * * * * * * * * * * * * * * * * * * * * * * * * * * * * * * * * //

dimensions      [1 -1 -1 0 0 0 0];

internalField   nonuniform List<scalar> 
530
(
6.34115673e-05
6.31333751e-05
6.21906983e-05
6.16771555e-05
6.23239482e-05
6.3344273e-05
6.35476072e-05
6.32306464e-05
6.22762025e-05
6.1775997e-05
6.16212267e-05
6.22133533e-05
6.33475568e-05
6.32469465e-05
6.22811433e-05
6.17251097e-05
6.22200433e-05
6.33184987e-05
6.35301079e-05
6.24123858e-05
6.18604053e-05
6.15223861e-05
6.22185096e-05
6.32979887e-05
6.33934471e-05
6.22533893e-05
6.17464657e-05
6.22092222e-05
6.32934744e-05
6.35655845e-05
6.28279429e-05
6.22945276e-05
6.17318478e-05
6.1550816e-05
6.22030697e-05
6.32875146e-05
6.32073743e-05
6.23110362e-05
6.18025476e-05
6.22473273e-05
6.33439444e-05
6.25784423e-05
6.21350369e-05
6.22330193e-05
6.33662986e-05
6.25240691e-05
6.20262628e-05
6.22195204e-05
6.33505115e-05
6.25059959e-05
6.19527571e-05
6.22225312e-05
6.33445281e-05
6.29897452e-05
6.23034941e-05
6.16688689e-05
6.22548828e-05
6.33766377e-05
6.25152057e-05
6.20706845e-05
6.22648981e-05
6.33887188e-05
6.28315629e-05
6.21652631e-05
6.16012396e-05
6.22728927e-05
6.34057599e-05
6.24614311e-05
6.196984e-05
6.2273507e-05
6.34398806e-05
6.24178091e-05
6.20052564e-05
6.23165425e-05
6.34246446e-05
6.26703696e-05
6.20144218e-05
6.15995165e-05
6.23421885e-05
6.34640014e-05
6.24137979e-05
6.20991872e-05
6.24129978e-05
6.3474403e-05
6.25979955e-05
6.19183575e-05
6.15715442e-05
6.24042899e-05
6.34978442e-05
6.23700981e-05
6.20768751e-05
6.25057245e-05
6.3505055e-05
6.25455206e-05
6.18957693e-05
6.16521183e-05
6.25440606e-05
6.34862899e-05
6.25507796e-05
6.18241787e-05
6.15768185e-05
6.2565593e-05
6.35441137e-05
6.23272086e-05
6.2034823e-05
6.26924604e-05
6.35356825e-05
6.24791237e-05
6.17876823e-05
6.16917076e-05
6.28103963e-05
6.35217322e-05
6.24832735e-05
6.17547197e-05
6.16970993e-05
6.29470288e-05
6.35339176e-05
6.24242402e-05
6.17186859e-05
6.17232949e-05
6.34311142e-05
6.35478111e-05
6.24246112e-05
6.1706196e-05
6.17086858e-05
6.34704613e-05
6.35466823e-05
6.23866041e-05
6.16260044e-05
6.1630998e-05
6.35058847e-05
6.36048726e-05
6.23392613e-05
6.18939585e-05
6.29837911e-05
6.3536279e-05
6.23815455e-05
6.15498874e-05
6.15914288e-05
6.35447521e-05
6.3537992e-05
6.23537175e-05
6.1524686e-05
6.16013367e-05
6.35526682e-05
6.3601096e-05
6.23728687e-05
6.18851405e-05
6.3186215e-05
6.35254901e-05
6.23568353e-05
6.15262651e-05
6.1710031e-05
6.35799768e-05
6.35835453e-05
6.2311599e-05
6.15851172e-05
6.25924425e-05
6.35292197e-05
6.26484723e-05
6.16496673e-05
6.17151011e-05
6.33540772e-05
6.35064801e-05
6.23756663e-05
6.157957e-05
6.17415933e-05
6.35963889e-05
6.35118776e-05
6.23189235e-05
6.15628146e-05
6.23454877e-05
6.34865054e-05
6.22987765e-05
6.15843968e-05
6.24654333e-05
6.34552977e-05
6.24209822e-05
6.15809649e-05
6.20441485e-05
6.35293085e-05
6.35125906e-05
6.17462893e-05
6.16262881e-05
6.34348351e-05
6.35033041e-05
6.19831263e-05
6.17921329e-05
6.34638695e-05
6.34914996e-05
6.23144254e-05
6.15216202e-05
6.23066978e-05
6.35100456e-05
6.3368385e-05
6.15696058e-05
6.1681286e-05
6.35528916e-05
6.34111004e-05
6.18229855e-05
6.20176133e-05
6.3627413e-05
6.34827471e-05
6.22947534e-05
6.14496431e-05
6.22813001e-05
6.35421073e-05
6.34410737e-05
6.17096435e-05
6.18910275e-05
6.35639236e-05
6.33968933e-05
6.18015319e-05
6.21462712e-05
6.36365876e-05
6.34840066e-05
6.22869477e-05
6.14123056e-05
6.22329144e-05
6.35530673e-05
6.34136444e-05
6.17889673e-05
6.22078062e-05
6.36378237e-05
6.35050719e-05
6.22762616e-05
6.14731931e-05
6.2316629e-05
6.35514049e-05
6.32284131e-05
6.17927612e-05
6.22715279e-05
6.36418399e-05
6.35406245e-05
6.22699468e-05
6.15955229e-05
6.22655772e-05
6.36260111e-05
6.35779233e-05
6.22626613e-05
6.14692065e-05
6.2279145e-05
6.35339688e-05
6.29178565e-05
6.17652175e-05
6.21916227e-05
6.36438768e-05
6.35596823e-05
6.22813223e-05
6.15970215e-05
6.22735433e-05
6.36473668e-05
6.35964434e-05
6.2272987e-05
6.15489671e-05
6.22744322e-05
6.36307366e-05
6.36151874e-05
6.22841413e-05
6.15309098e-05
6.22721227e-05
6.36220999e-05
6.36188388e-05
6.22854192e-05
6.15483106e-05
6.22771174e-05
6.36085289e-05
6.36143901e-05
6.2294499e-05
6.14870541e-05
6.22976069e-05
6.35267608e-05
6.36243291e-05
6.17249833e-05
6.1660411e-05
6.35995252e-05
6.35228978e-05
6.23368261e-05
6.16052302e-05
6.17369997e-05
6.35717504e-05
6.36078243e-05
6.23093616e-05
6.22536369e-05
6.230077e-05
6.25049786e-05
6.24350388e-05
6.22971118e-05
6.22968728e-05
6.23627518e-05
6.2366969e-05
6.23299564e-05
6.23210219e-05
6.23305215e-05
6.23361368e-05
6.23330891e-05
6.23297573e-05
6.23299999e-05
6.23310276e-05
6.23309816e-05
6.23305828e-05
6.23304646e-05
6.23305045e-05
6.23305234e-05
6.23305006e-05
6.23304769e-05
6.2330472e-05
6.23304695e-05
6.23304669e-05
6.23304642e-05
6.23304629e-05
6.23304617e-05
6.23304609e-05
6.23304605e-05
6.23304604e-05
6.23304603e-05
6.233046e-05
6.23304598e-05
6.23304598e-05
6.23304599e-05
6.23304599e-05
6.23304597e-05
6.23304597e-05
6.23304598e-05
6.23304598e-05
6.23304597e-05
6.23304597e-05
6.23304598e-05
6.23304599e-05
6.23304598e-05
6.23304595e-05
6.23304596e-05
6.23304601e-05
6.23304601e-05
6.23304594e-05
6.23304592e-05
6.23304599e-05
6.23304605e-05
6.23304599e-05
6.2330459e-05
6.23304592e-05
6.23304604e-05
6.23304605e-05
6.23304595e-05
6.23304591e-05
6.23304596e-05
6.23304602e-05
6.233046e-05
6.23304596e-05
6.23304596e-05
6.23304598e-05
6.23304598e-05
6.23304597e-05
6.2330461e-05
6.23304614e-05
6.23304577e-05
6.23304555e-05
6.23304699e-05
6.23304866e-05
6.23304518e-05
6.23303911e-05
6.2330477e-05
6.23307777e-05
6.23306213e-05
6.23296938e-05
6.2329774e-05
6.2333352e-05
6.23334676e-05
6.23249689e-05
6.23233619e-05
6.23461892e-05
6.23554383e-05
6.23110641e-05
6.22954485e-05
6.23760502e-05
6.24701974e-05
6.23073098e-05
6.23240558e-05
6.23426879e-05
6.28764618e-05
6.23677103e-05
6.1951384e-05
6.23089527e-05
6.34174365e-05
6.32252136e-05
6.17706494e-05
6.16207158e-05
6.31987877e-05
6.35607155e-05
6.23277506e-05
6.16384103e-05
6.31185997e-05
6.35585862e-05
6.22790228e-05
6.16594629e-05
6.31995194e-05
6.35321895e-05
6.23244709e-05
6.16533607e-05
6.23448634e-05
6.33704332e-05
6.31541089e-05
6.18712245e-05
6.17807859e-05
6.32321524e-05
6.35683064e-05
6.23683598e-05
6.15286184e-05
6.29914634e-05
6.35519719e-05
6.23807459e-05
6.16395712e-05
6.30317453e-05
6.35595379e-05
6.23737684e-05
6.18036258e-05
6.31339796e-05
6.35063955e-05
6.24731728e-05
6.16208664e-05
6.1535231e-05
6.30538955e-05
6.35697111e-05
6.23633978e-05
6.18428507e-05
6.31790378e-05
6.35157426e-05
6.24438395e-05
6.16120077e-05
6.15494509e-05
6.30855199e-05
6.35758914e-05
6.23682219e-05
6.18621615e-05
6.32002736e-05
6.35251249e-05
6.24538902e-05
6.16545654e-05
6.15970851e-05
6.31237162e-05
6.35828194e-05
6.23748279e-05
6.18462555e-05
6.32014535e-05
6.35297993e-05
6.24745981e-05
6.16955904e-05
6.16613828e-05
6.31674857e-05
6.35190354e-05
6.24801301e-05
6.16891935e-05
6.16586108e-05
6.31737602e-05
6.3510853e-05
6.24886641e-05
6.17239611e-05
6.1694766e-05
6.31762856e-05
6.34976218e-05
6.24511607e-05
6.16012751e-05
6.15852407e-05
6.31459694e-05
6.34843977e-05
6.24539141e-05
6.1595875e-05
6.15529654e-05
6.30533445e-05
6.35403441e-05
6.23780991e-05
6.18326479e-05
6.29568815e-05
6.34886887e-05
6.24383986e-05
6.1615658e-05
6.16051484e-05
6.32635186e-05
6.35429814e-05
6.2371328e-05
6.17404597e-05
6.28645605e-05
6.3528832e-05
6.23360154e-05
6.17577711e-05
6.28251576e-05
6.35241756e-05
6.23266495e-05
6.16544314e-05
6.22634418e-05
6.3438699e-05
6.34758124e-05
6.21353285e-05
6.17744865e-05
6.26508238e-05
6.35489722e-05
6.28513335e-05
6.23089107e-05
6.15071314e-05
6.1528983e-05
6.28892943e-05
6.35479284e-05
6.2310569e-05
6.1836815e-05
6.22608426e-05
6.3443897e-05
6.35969276e-05
6.25447828e-05
6.18142766e-05
6.12528662e-05
6.2283241e-05
6.34909016e-05
6.22740037e-05
6.18485255e-05
6.24263184e-05
6.34865809e-05
6.29007409e-05
6.19886333e-05
6.17770239e-05
6.27202824e-05
6.35272038e-05
6.28436407e-05
6.20376404e-05
6.17291078e-05
6.25756032e-05
6.35130252e-05
6.27551911e-05
6.1857713e-05
6.1447185e-05
6.24866345e-05
)
;

boundaryField
{
    closed
    {
        type            calculated;
        value           nonuniform List<scalar> 0();
    }
    open
    {
        type            calculated;
        value           nonuniform List<scalar> 0();
    }
    sides
    {
        type            empty;
    }
    procBoundary2to1
    {
        type            processor;
        value           uniform 6.22759391e-05;
    }
    procBoundary2to3
    {
        type            processor;
        value           uniform 6.35142036e-05;
    }
}


// ************************************************************************* //
