/*--------------------------------*- C++ -*----------------------------------*\
| =========                 |                                                 |
| \\      /  F ield         | OpenFOAM: The Open Source CFD Toolbox           |
|  \\    /   O peration     | Version:  2306                                  |
|   \\  /    A nd           | Website:  www.openfoam.com                      |
|    \\/     M anipulation  |                                                 |
\*---------------------------------------------------------------------------*/
FoamFile
{
    version     2.0;
    format      ascii;
    arch        "LSB;label=32;scalar=64";
    class       volScalarField;
    location    "0.00054";
    object      Z;
}
// * * * * * * * * * * * * * * * * * * * * * * * * * * * * * * * * * * * * * //

dimensions      [0 0 0 0 0 0 0];

internalField   nonuniform List<scalar> 
530
(
0.0141162918
0.0141767334
0.0147114437
0.0148108318
0.0144347029
0.0141264086
0.014080172
0.0141528501
0.0145900747
0.0147916814
0.0148152878
0.0145358593
0.0141309073
0.0141515419
0.0146705509
0.0148039547
0.0145535537
0.0141344346
0.0140917656
0.0144227945
0.0147780297
0.0148338882
0.0145702113
0.0141407589
0.0141191973
0.0146183014
0.014802932
0.0145191864
0.014139299
0.0140770041
0.0142522183
0.0146646546
0.0147961548
0.0148301276
0.0145745958
0.0141428564
0.0141579271
0.0146567091
0.0147936628
0.014529075
0.0141317599
0.0143399561
0.0147302412
0.0145211215
0.0141300502
0.0143611116
0.0147497776
0.0145281578
0.0141329376
0.0143684378
0.0147641577
0.0145352269
0.0141322924
0.0142099676
0.0146987262
0.0148134921
0.0145097268
0.0141242595
0.0143663069
0.0147430319
0.0144943322
0.0141218523
0.014252852
0.0147236733
0.0148230699
0.0144942709
0.014118641
0.0143922715
0.014757975
0.0144784834
0.0141134114
0.0144128872
0.0147547912
0.0144547468
0.0141123633
0.014305142
0.0147513929
0.0148211447
0.0144417219
0.0141042012
0.0144230749
0.0147379344
0.014401595
0.0141009964
0.0143328318
0.014766911
0.0148240766
0.0144064978
0.0140968135
0.0144572935
0.0147407818
0.0143612611
0.0140935029
0.0143560025
0.0147720397
0.0148131424
0.0143479302
0.0140955404
0.0143538448
0.0147838932
0.0148218057
0.0143392568
0.0140866295
0.0145149868
0.0147462886
0.0142980933
0.0140858513
0.014389369
0.0147919383
0.0148048198
0.0142646096
0.0140866659
0.0143886872
0.0147980356
0.0148032391
0.0142311015
0.0140841704
0.014425595
0.0148056967
0.0148004865
0.0141264972
0.0140792953
0.0144290541
0.0148066128
0.0148029147
0.0141191659
0.014080314
0.0144608473
0.0148187681
0.0148135485
0.0141073178
0.0140737905
0.0146234243
0.0147692251
0.0142229357
0.0140837041
0.0144598315
0.0148322717
0.014821755
0.0141014899
0.0140827431
0.0144957636
0.014834805
0.0148184171
0.0140950743
0.0140761258
0.0146716068
0.0147732508
0.0141785748
0.0140840552
0.0144921916
0.0148363588
0.014800573
0.0140893068
0.0140774385
0.0146477244
0.0148207762
0.0143301479
0.0140853306
0.0143126041
0.0148202592
0.0148043849
0.0141433628
0.0140863392
0.0144929598
0.01482869
0.0148004582
0.0140844255
0.0140906679
0.0146363062
0.0148346057
0.0144741553
0.0140988705
0.0145186518
0.0148315547
0.0143832614
0.0140984806
0.0144168613
0.0148325928
0.0147492838
0.0140906956
0.0140957513
0.0148090737
0.0148188705
0.0141213336
0.0140968337
0.014774931
0.0147907634
0.0141200933
0.0140949192
0.0146208548
0.0148369333
0.0145826776
0.0140922862
0.0141389256
0.014831272
0.0148156833
0.0140912816
0.0141201316
0.014789273
0.0147534889
0.0140780002
0.0140960385
0.0145960715
0.0148489673
0.014702527
0.0140908699
0.0141171801
0.0148077806
0.0147793453
0.014087468
0.0141294972
0.0147892504
0.0147353784
0.0140724286
0.0140965845
0.0146131358
0.0148543761
0.0147148479
0.0140901502
0.0141326443
0.0147915704
0.0147259585
0.0140719053
0.0140928068
0.01461982
0.0148439056
0.0146679018
0.0140896884
0.0141706222
0.0147902411
0.0147128987
0.0140710502
0.0140862868
0.0146242074
0.0148212008
0.0146220735
0.0140731324
0.0140838517
0.0147029119
0.0148434708
0.0145598173
0.0140897169
0.0142368024
0.0147947345
0.0147230599
0.0140717935
0.0140803446
0.0145538674
0.0148201145
0.0146998548
0.0140719089
0.0140768964
0.0146278183
0.0148276951
0.0146524502
0.0140721616
0.0140741341
0.0146603448
0.0148310159
0.0146353032
0.0140722195
0.014072139
0.0146509269
0.0148290117
0.0146397102
0.0140747048
0.0140724213
0.0146492948
0.0148413752
0.0146560254
0.0140906682
0.0140792316
0.0148034832
0.0148121351
0.0140872273
0.0140853767
0.0145341244
0.0148267994
0.0147993702
0.0140973216
0.0140781323
0.0145848736
0.0147142779
0.0145393386
0.0143696188
0.0144016227
0.0145251234
0.0145124897
0.0144428653
0.0144384073
0.0144657744
0.0144728193
0.0144634493
0.0144582686
0.0144604114
0.0144628842
0.014462528
0.0144615112
0.0144614808
0.0144617391
0.0144617986
0.014461735
0.014461698
0.0144617043
0.014461713
0.0144617116
0.0144617083
0.0144617078
0.0144617076
0.0144617073
0.0144617072
0.0144617072
0.0144617071
0.0144617069
0.0144617068
0.0144617069
0.014461707
0.014461707
0.0144617068
0.0144617069
0.0144617069
0.0144617069
0.0144617069
0.0144617069
0.0144617069
0.014461707
0.0144617069
0.0144617068
0.0144617069
0.0144617071
0.014461707
0.0144617066
0.0144617066
0.0144617072
0.0144617074
0.0144617068
0.0144617063
0.0144617067
0.0144617075
0.0144617074
0.0144617064
0.0144617063
0.0144617071
0.0144617074
0.014461707
0.0144617066
0.0144617067
0.0144617071
0.0144617071
0.0144617069
0.014461707
0.014461707
0.0144617062
0.0144617059
0.0144617096
0.0144617118
0.0144617009
0.0144616891
0.0144617195
0.0144617773
0.0144617068
0.0144614829
0.0144616068
0.0144624582
0.0144623652
0.0144596327
0.0144594993
0.0144671765
0.014468652
0.0144508091
0.0144444657
0.0144837197
0.0145075474
0.0144325762
0.0143831129
0.0144956321
0.0146338794
0.0144612864
0.0142441792
0.0144443362
0.0147702107
0.0146293711
0.0141124638
0.0141623636
0.0147969079
0.0148224402
0.0141680459
0.0140834677
0.014705269
0.0148134311
0.0141910696
0.0140851348
0.0147119073
0.0148106997
0.0141770976
0.0140869738
0.0145245277
0.0148172641
0.0146766192
0.0141241418
0.0141765723
0.0147833617
0.0147982602
0.0141581192
0.0140814086
0.0146942239
0.0148298131
0.0142218551
0.0140880507
0.0146941864
0.0148137677
0.014211064
0.01408535
0.0146872259
0.0147890808
0.014190174
0.014088593
0.0144003827
0.0148229432
0.0148301007
0.0142053595
0.014084197
0.0146749342
0.0147818426
0.0141813695
0.0140871006
0.0144204366
0.0148244384
0.0148276334
0.0141978928
0.0140830023
0.0146718111
0.014777913
0.0141782966
0.0140855544
0.0144126319
0.0148174021
0.0148202488
0.01418944
0.0140819995
0.0146757139
0.0147798969
0.0141795617
0.0140848776
0.0143992929
0.014810449
0.0148119776
0.0141832381
0.0140869188
0.014394674
0.0148119701
0.0148128967
0.0141808835
0.0140874864
0.0143915368
0.0148080357
0.0148088571
0.01417996
0.0140900679
0.0144192338
0.0148287676
0.0148267235
0.0141869848
0.0140928199
0.014418449
0.0148308048
0.0148314803
0.0142045556
0.0140899011
0.0146638576
0.0147879024
0.0142289643
0.0140927482
0.0144246549
0.0148279216
0.0148247506
0.0141584334
0.0140902478
0.0146673925
0.014803806
0.0142496592
0.0140945771
0.0146559699
0.0147994118
0.0142612603
0.0140906085
0.0144918814
0.0148153349
0.0146143823
0.0141111898
0.0141124935
0.0147357546
0.0147984577
0.0143111952
0.0140808341
0.01424534
0.0146674793
0.0148464364
0.01483183
0.0142444566
0.0140892628
0.0145209192
0.0147861813
0.0145426977
0.0141068337
0.0140721325
0.0143578603
0.0147792322
0.0148771688
0.0144908028
0.0141083593
0.0145187161
0.0147845063
0.0143969653
0.0140955319
0.0142350703
0.0147595791
0.0147959406
0.0142897302
0.0140859609
0.0142489422
0.0147461606
0.0148045048
0.0143357565
0.0140917898
0.0142763424
0.0147747651
0.0148486622
0.0143691309
)
;

boundaryField
{
    closed
    {
        type            zeroGradient;
    }
    open
    {
        type            zeroGradient;
    }
    sides
    {
        type            empty;
    }
    procBoundary2to1
    {
        type            processor;
        value           uniform 0.0144781432;
    }
    procBoundary2to3
    {
        type            processor;
        value           uniform 0.0141012362;
    }
}


// ************************************************************************* //
