/*--------------------------------*- C++ -*----------------------------------*\
| =========                 |                                                 |
| \\      /  F ield         | OpenFOAM: The Open Source CFD Toolbox           |
|  \\    /   O peration     | Version:  2306                                  |
|   \\  /    A nd           | Website:  www.openfoam.com                      |
|    \\/     M anipulation  |                                                 |
\*---------------------------------------------------------------------------*/
FoamFile
{
    version     2.0;
    format      ascii;
    arch        "LSB;label=32;scalar=64";
    class       volScalarField;
    location    "0.00028";
    object      prefDPV_T;
}
// * * * * * * * * * * * * * * * * * * * * * * * * * * * * * * * * * * * * * //

dimensions      [1 -1 -1 -1 0 0 0];

internalField   nonuniform List<scalar> 
530
(
-3.88709202e-11
-4.11799614e-11
-4.11820238e-11
-3.82704211e-11
-3.91602981e-11
-4.13121196e-11
-4.13093133e-11
-3.85123788e-11
-3.94036594e-11
-4.14204433e-11
-4.1425947e-11
-3.87736532e-11
-3.96535264e-11
-4.15344621e-11
-4.15468279e-11
-3.90370076e-11
-3.99016373e-11
-4.1656428e-11
-4.16703958e-11
-3.93239412e-11
-4.01607149e-11
-4.17885429e-11
-4.18016005e-11
-3.96722381e-11
-4.04280821e-11
-4.19166837e-11
-4.19326069e-11
-4.0026281e-11
-4.06739968e-11
-4.20382038e-11
-4.20587952e-11
-4.02368144e-11
-4.08737784e-11
-4.2153021e-11
-4.2175693e-11
-4.04547925e-11
-4.10138325e-11
-4.22667446e-11
-4.22867919e-11
-4.07328254e-11
-4.11664e-11
-4.23784589e-11
-4.23939077e-11
-4.10071341e-11
-4.1311651e-11
-4.24850993e-11
-4.24982031e-11
-4.12605328e-11
-4.14347109e-11
-4.25897999e-11
-4.25988191e-11
-4.15217457e-11
-4.15487421e-11
-4.26856898e-11
-4.26903559e-11
-4.16737365e-11
-4.16436808e-11
-4.2775921e-11
-4.27774596e-11
-4.17989209e-11
-4.17268613e-11
-4.285931e-11
-4.28597591e-11
-4.18868217e-11
-4.18222355e-11
-4.29384523e-11
-4.29372639e-11
-4.19662171e-11
-4.18972707e-11
-4.30157664e-11
-4.30095711e-11
-4.2124323e-11
-4.19296847e-11
-4.30929652e-11
-4.30774545e-11
-4.23446296e-11
-4.19875801e-11
-4.31697054e-11
-4.31425935e-11
-4.25312224e-11
-4.20938259e-11
-4.32369189e-11
-4.32053328e-11
-4.26770113e-11
-4.22221647e-11
-4.32946263e-11
-4.32628814e-11
-4.27895642e-11
-4.23556678e-11
-4.33445637e-11
-4.331741e-11
-4.28797519e-11
-4.24883462e-11
-4.33893605e-11
-4.33686893e-11
-4.29484071e-11
-4.26075671e-11
-4.34294311e-11
-4.34160543e-11
-4.30022712e-11
-4.27266326e-11
-4.34653259e-11
-4.34622157e-11
-4.30463292e-11
-4.28913051e-11
-4.34978257e-11
-4.35096832e-11
-4.30908404e-11
-4.31866223e-11
-4.35304545e-11
-4.34103335e-11
-4.3163096e-11
-4.35607588e-11
-4.35341292e-11
-4.32734408e-11
-4.34797572e-11
-4.35760631e-11
-4.34061505e-11
-4.32205963e-11
-4.35962075e-11
-4.35945654e-11
-4.33266616e-11
-4.32290173e-11
-4.361295e-11
-4.36134189e-11
-4.33266675e-11
-4.32614887e-11
-4.36297192e-11
-4.36309878e-11
-4.33465565e-11
-4.33024558e-11
-4.36453171e-11
-4.36468676e-11
-4.33770723e-11
-4.33448549e-11
-4.36594201e-11
-4.36609857e-11
-4.34106797e-11
-4.33860944e-11
-4.36719408e-11
-4.36733967e-11
-4.34440114e-11
-4.3424672e-11
-4.36829242e-11
-4.3684214e-11
-4.34754828e-11
-4.34599591e-11
-4.3692471e-11
-4.36935753e-11
-4.35044368e-11
-4.34917823e-11
-4.37007094e-11
-4.37016255e-11
-4.35307e-11
-4.35202006e-11
-4.37077766e-11
-4.37085077e-11
-4.3554339e-11
-4.35453862e-11
-4.37138064e-11
-4.371436e-11
-4.35755414e-11
-4.35675536e-11
-4.37189256e-11
-4.3719312e-11
-4.35945697e-11
-4.35869144e-11
-4.37232545e-11
-4.37234808e-11
-4.3611604e-11
-4.36038105e-11
-4.37269102e-11
-4.3726968e-11
-4.36269253e-11
-4.36185448e-11
-4.37299864e-11
-4.37298809e-11
-4.36407795e-11
-4.36315346e-11
-4.37325721e-11
-4.3732317e-11
-4.36534419e-11
-4.36432126e-11
-4.37347488e-11
-4.3734364e-11
-4.36651677e-11
-4.36539594e-11
-4.37365869e-11
-4.37360956e-11
-4.36761822e-11
-4.36639532e-11
-4.37381442e-11
-4.37375639e-11
-4.36865513e-11
-4.36732188e-11
-4.37394579e-11
-4.37388137e-11
-4.36961844e-11
-4.36817232e-11
-4.37405574e-11
-4.37398973e-11
-4.37049394e-11
-4.36896495e-11
-4.37414594e-11
-4.37409305e-11
-4.37125914e-11
-4.36981922e-11
-4.37421776e-11
-4.37421461e-11
-4.37188212e-11
-4.37098949e-11
-4.37427187e-11
-4.37425201e-11
-4.37233719e-11
-4.37375575e-11
-4.37431263e-11
-4.37287039e-11
-4.37261406e-11
-4.37434618e-11
-4.37434244e-11
-4.37207133e-11
-4.37277702e-11
-4.37433677e-11
-4.3743652e-11
-4.37206365e-11
-4.37292764e-11
-4.37435044e-11
-4.3743847e-11
-4.37224904e-11
-4.37308582e-11
-4.37436949e-11
-4.37440234e-11
-4.37250028e-11
-4.3732523e-11
-4.37438855e-11
-4.37441796e-11
-4.37275682e-11
-4.37342448e-11
-4.37440629e-11
-4.37443175e-11
-4.37300851e-11
-4.37357842e-11
-4.37442247e-11
-4.37444315e-11
-4.37325337e-11
-4.37370754e-11
-4.37443732e-11
-4.3744528e-11
-4.37349109e-11
-4.37381731e-11
-4.37445097e-11
-4.37446111e-11
-4.37371529e-11
-4.3739163e-11
-4.37446336e-11
-4.3744686e-11
-4.37391934e-11
-4.37401697e-11
-4.3744748e-11
-4.37447575e-11
-4.37410775e-11
-4.3741254e-11
-4.37448569e-11
-4.37448254e-11
-4.37428389e-11
-4.37423201e-11
-4.37449435e-11
-4.3744885e-11
-4.37442696e-11
-4.3743322e-11
-4.37449935e-11
-4.37449363e-11
-4.3744996e-11
-4.37442012e-11
-4.37450041e-11
-4.37449758e-11
-4.37449933e-11
-4.37448964e-11
-4.37449938e-11
-4.37449914e-11
-4.37449877e-11
-4.37449931e-11
-4.37449848e-11
-4.37449848e-11
-4.37449809e-11
-4.37449816e-11
-4.3744978e-11
-4.37449776e-11
-4.37449752e-11
-4.37449748e-11
-4.37449728e-11
-4.37449723e-11
-4.37449708e-11
-4.37449702e-11
-4.37449692e-11
-4.37449686e-11
-4.37449677e-11
-4.37449672e-11
-4.37449666e-11
-4.37449661e-11
-4.37449656e-11
-4.37449652e-11
-4.37449648e-11
-4.37449644e-11
-4.37449641e-11
-4.37449638e-11
-4.37449636e-11
-4.37449633e-11
-4.37449631e-11
-4.37449629e-11
-4.37449628e-11
-4.37449626e-11
-4.37449625e-11
-4.37449623e-11
-4.37449622e-11
-4.37449621e-11
-4.37449621e-11
-4.3744962e-11
-4.37449619e-11
-4.37449618e-11
-4.37449618e-11
-4.37449617e-11
-4.37449617e-11
-4.37449616e-11
-4.37449616e-11
-4.37449616e-11
-4.37449616e-11
-4.37449615e-11
-4.37449615e-11
-4.37449615e-11
-4.37449615e-11
-4.37449615e-11
-4.37449614e-11
-4.37449614e-11
-4.37449614e-11
-4.37449614e-11
-4.37449614e-11
-4.37449614e-11
-4.37449614e-11
-4.37449614e-11
-4.37449614e-11
-4.37449614e-11
-4.37449614e-11
-4.37449614e-11
-4.37449614e-11
-4.37449614e-11
-4.37449614e-11
-4.37449614e-11
-4.37449614e-11
-4.37449614e-11
-4.37449614e-11
-4.37449614e-11
-4.37449614e-11
-4.37449614e-11
-4.37449614e-11
-4.37449614e-11
-4.37449614e-11
-4.37449614e-11
-4.37449614e-11
-4.37449614e-11
-4.37449614e-11
-4.37449614e-11
-4.37449614e-11
-4.37449614e-11
-4.37449614e-11
-4.37449614e-11
-4.37449614e-11
-4.37449614e-11
-4.37449614e-11
-4.37449614e-11
-4.37449614e-11
-4.37449614e-11
-4.37449614e-11
-4.37449614e-11
-4.37449614e-11
-4.37449614e-11
-4.37449614e-11
-4.37449614e-11
-4.37449614e-11
-4.37449614e-11
-4.37449614e-11
-4.37449614e-11
-4.37449614e-11
-4.37449614e-11
-4.37449614e-11
-4.37449614e-11
-4.37449614e-11
-4.37449614e-11
-4.37449614e-11
-4.37449614e-11
-4.37449614e-11
-4.37449614e-11
-4.37449614e-11
-4.37449614e-11
-4.37449614e-11
-4.37449614e-11
-4.37449614e-11
-4.37449614e-11
-4.37449614e-11
-4.37449614e-11
-4.37449614e-11
-4.37449614e-11
-4.37449614e-11
-4.37449614e-11
-4.37449614e-11
-4.37449614e-11
-4.37449614e-11
-4.37449614e-11
-4.37449614e-11
-4.37449614e-11
-4.37449614e-11
-4.37449614e-11
-4.37449614e-11
-4.37449614e-11
-4.37449614e-11
-4.37449614e-11
-4.37449614e-11
-4.37449614e-11
-4.37449614e-11
-4.37449614e-11
-4.37449614e-11
-4.37449614e-11
-4.37449614e-11
-4.37449614e-11
-4.37449614e-11
-4.37449614e-11
-4.37449614e-11
-4.37449614e-11
-4.37449614e-11
-4.37449614e-11
-4.37449614e-11
-4.37449614e-11
-4.37449614e-11
-4.37449614e-11
-4.37449614e-11
-4.37449614e-11
-4.37449614e-11
-4.37449614e-11
-4.37449614e-11
-4.37449614e-11
-4.37449614e-11
-4.37449614e-11
-4.37449614e-11
-4.37449614e-11
-4.37449614e-11
-4.37449614e-11
-4.37449614e-11
-4.37449614e-11
-4.37449614e-11
-4.37449614e-11
-4.37449614e-11
-4.37449614e-11
-4.37449614e-11
-4.37449614e-11
-4.37449614e-11
-4.37449614e-11
-4.37449614e-11
-4.37449614e-11
-4.37449614e-11
-4.37449614e-11
-4.37449614e-11
-4.37449614e-11
-4.37449614e-11
-4.37449614e-11
-4.37449614e-11
-4.37449614e-11
-4.37449614e-11
-4.37449614e-11
-4.37449614e-11
-4.37449614e-11
-4.37449614e-11
-4.37449614e-11
-4.37449614e-11
-4.37449614e-11
-4.37449614e-11
-4.37449614e-11
-4.37449614e-11
-4.37449614e-11
-4.37449614e-11
-4.37449614e-11
-4.37449614e-11
-4.37449614e-11
-4.37449614e-11
-4.37449614e-11
-4.37449614e-11
-4.37449614e-11
-4.37449614e-11
-4.37449614e-11
-4.37449614e-11
-4.37449614e-11
-4.37449614e-11
-4.37449614e-11
-4.37449614e-11
-4.37449614e-11
-4.37449614e-11
-4.37449614e-11
-4.37449614e-11
-4.37449614e-11
-4.37449614e-11
-4.37449614e-11
-4.37449614e-11
-4.37449614e-11
-4.37449614e-11
-4.37449614e-11
-4.37449614e-11
-4.37449614e-11
-4.37449614e-11
-4.37449614e-11
-4.37449614e-11
-4.37449614e-11
-4.37449614e-11
-4.37449614e-11
-4.37449614e-11
-4.37449614e-11
-4.37449614e-11
-4.37449614e-11
-4.37449614e-11
-4.37449614e-11
-4.37449614e-11
-4.37449614e-11
-4.37449614e-11
-4.37449614e-11
-4.37449614e-11
-4.37449614e-11
-4.37449614e-11
-4.37449614e-11
-4.37449614e-11
-4.37449614e-11
-4.37449614e-11
-4.37449614e-11
)
;

boundaryField
{
    closed
    {
        type            calculated;
        value           nonuniform List<scalar> 0();
    }
    open
    {
        type            calculated;
        value           uniform -4.37449614e-11;
    }
    sides
    {
        type            empty;
    }
    procBoundary5to4
    {
        type            processor;
        value           uniform -3.7897774e-11;
    }
}


// ************************************************************************* //
