/*--------------------------------*- C++ -*----------------------------------*\
| =========                 |                                                 |
| \\      /  F ield         | OpenFOAM: The Open Source CFD Toolbox           |
|  \\    /   O peration     | Version:  2306                                  |
|   \\  /    A nd           | Website:  www.openfoam.com                      |
|    \\/     M anipulation  |                                                 |
\*---------------------------------------------------------------------------*/
FoamFile
{
    version     2.0;
    format      ascii;
    arch        "LSB;label=32;scalar=64";
    class       volScalarField;
    location    "0.00028";
    object      prefDZ_H2O;
}
// * * * * * * * * * * * * * * * * * * * * * * * * * * * * * * * * * * * * * //

dimensions      [1 -1 -1 0 0 0 0];

internalField   nonuniform List<scalar> 
530
(
2.0429505e-06
2.08000896e-06
2.0800045e-06
2.043098e-06
2.0549278e-06
2.08995128e-06
2.09003218e-06
2.05414005e-06
2.06660458e-06
2.099549e-06
2.10027348e-06
2.06582875e-06
2.07855523e-06
2.10945387e-06
2.11067898e-06
2.07778351e-06
2.0906246e-06
2.11995835e-06
2.12118895e-06
2.09057598e-06
2.10304859e-06
2.13119919e-06
2.13231774e-06
2.10435861e-06
2.11573131e-06
2.14208604e-06
2.14317084e-06
2.1178803e-06
2.1278579e-06
2.1516263e-06
2.15335778e-06
2.12816676e-06
2.13848336e-06
2.16071392e-06
2.16258e-06
2.13854403e-06
2.14784751e-06
2.16977824e-06
2.17145733e-06
2.14970836e-06
2.15723467e-06
2.17862005e-06
2.18002631e-06
2.16050959e-06
2.16616216e-06
2.18692257e-06
2.18819344e-06
2.17057625e-06
2.17434938e-06
2.19495968e-06
2.19589506e-06
2.18036721e-06
2.18195325e-06
2.20226756e-06
2.20286927e-06
2.18820314e-06
2.18891169e-06
2.20907307e-06
2.20942197e-06
2.19527278e-06
2.19531165e-06
2.21525959e-06
2.21550759e-06
2.20138863e-06
2.20150219e-06
2.22098705e-06
2.22113863e-06
2.20695953e-06
2.20698764e-06
2.22637356e-06
2.22623778e-06
2.21337209e-06
2.21134951e-06
2.23162394e-06
2.23090237e-06
2.22035092e-06
2.21567528e-06
2.23667582e-06
2.23527012e-06
2.22677947e-06
2.2204462e-06
2.2410897e-06
2.23936883e-06
2.23223922e-06
2.22521809e-06
2.24485355e-06
2.24309948e-06
2.23680402e-06
2.22977428e-06
2.24804101e-06
2.2465351e-06
2.24065214e-06
2.23404594e-06
2.25084611e-06
2.24967977e-06
2.24382341e-06
2.23799287e-06
2.25328467e-06
2.25250463e-06
2.24646765e-06
2.24180462e-06
2.25540281e-06
2.25520513e-06
2.24870391e-06
2.24625317e-06
2.25725711e-06
2.25796577e-06
2.25075638e-06
2.2529807e-06
2.25907851e-06
2.25767449e-06
2.25317902e-06
2.26072273e-06
2.26059071e-06
2.25595586e-06
2.25998125e-06
2.26145342e-06
2.25893646e-06
2.25568676e-06
2.26250897e-06
2.26236252e-06
2.25810059e-06
2.25645803e-06
2.26330866e-06
2.26327483e-06
2.2586469e-06
2.25757925e-06
2.26409538e-06
2.26410033e-06
2.2594719e-06
2.25876931e-06
2.26480247e-06
2.26482255e-06
2.26041297e-06
2.25990877e-06
2.26542127e-06
2.26544392e-06
2.26134142e-06
2.26095912e-06
2.26595216e-06
2.26597194e-06
2.26220476e-06
2.26190281e-06
2.26640166e-06
2.26641647e-06
2.26298292e-06
2.26273756e-06
2.26677842e-06
2.26678787e-06
2.26367218e-06
2.26346849e-06
2.26709174e-06
2.26709613e-06
2.26427686e-06
2.26410393e-06
2.26735077e-06
2.26735044e-06
2.26480476e-06
2.2646533e-06
2.26756387e-06
2.26755908e-06
2.26526504e-06
2.26512581e-06
2.26773859e-06
2.26772936e-06
2.26566729e-06
2.26552984e-06
2.26788154e-06
2.26786765e-06
2.26601879e-06
2.2658754e-06
2.26799848e-06
2.26797958e-06
2.26632799e-06
2.26617117e-06
2.26809424e-06
2.26807027e-06
2.26660209e-06
2.26642735e-06
2.26817306e-06
2.26814421e-06
2.26684833e-06
2.26665387e-06
2.26823857e-06
2.26820521e-06
2.26707309e-06
2.26685929e-06
2.26829371e-06
2.26825632e-06
2.26728181e-06
2.26704809e-06
2.26834079e-06
2.26829958e-06
2.26747664e-06
2.26722169e-06
2.26838106e-06
2.26833675e-06
2.26765656e-06
2.26738022e-06
2.26841538e-06
2.26836964e-06
2.26781933e-06
2.2675279e-06
2.26844387e-06
2.26840359e-06
2.26796099e-06
2.26768841e-06
2.26846656e-06
2.268452e-06
2.26807571e-06
2.26791102e-06
2.26848268e-06
2.26852444e-06
2.26815866e-06
2.26842906e-06
2.26849329e-06
2.268256e-06
2.26820793e-06
2.26849579e-06
2.26849946e-06
2.26810223e-06
2.26823598e-06
2.26848352e-06
2.26850368e-06
2.26809843e-06
2.26826208e-06
2.26848578e-06
2.26850786e-06
2.26813162e-06
2.26828999e-06
2.26849186e-06
2.26851238e-06
2.26817762e-06
2.26831981e-06
2.26849889e-06
2.26851697e-06
2.26822484e-06
2.268351e-06
2.26850587e-06
2.26852151e-06
2.26827136e-06
2.26837896e-06
2.26851262e-06
2.26852529e-06
2.26831676e-06
2.26840241e-06
2.26851918e-06
2.26852854e-06
2.268361e-06
2.26842237e-06
2.26852551e-06
2.26853144e-06
2.26840285e-06
2.26844046e-06
2.26853146e-06
2.26853428e-06
2.26844103e-06
2.26845902e-06
2.26853708e-06
2.26853732e-06
2.26847634e-06
2.26847918e-06
2.26854247e-06
2.26854045e-06
2.26850931e-06
2.26849907e-06
2.26854671e-06
2.26854334e-06
2.26853601e-06
2.26851781e-06
2.26854916e-06
2.26854592e-06
2.26854933e-06
2.26853426e-06
2.26854942e-06
2.2685479e-06
2.26854856e-06
2.26854723e-06
2.26854789e-06
2.26854798e-06
2.26854711e-06
2.2685472e-06
2.26854647e-06
2.26854636e-06
2.26854592e-06
2.26854579e-06
2.26854546e-06
2.26854533e-06
2.26854509e-06
2.26854497e-06
2.2685448e-06
2.26854469e-06
2.26854457e-06
2.26854448e-06
2.26854439e-06
2.26854431e-06
2.26854425e-06
2.26854419e-06
2.26854414e-06
2.26854409e-06
2.26854405e-06
2.26854401e-06
2.26854399e-06
2.26854396e-06
2.26854394e-06
2.26854391e-06
2.2685439e-06
2.26854388e-06
2.26854387e-06
2.26854385e-06
2.26854385e-06
2.26854383e-06
2.26854383e-06
2.26854382e-06
2.26854381e-06
2.26854381e-06
2.26854381e-06
2.2685438e-06
2.2685438e-06
2.26854379e-06
2.26854379e-06
2.26854379e-06
2.26854379e-06
2.26854379e-06
2.26854378e-06
2.26854378e-06
2.26854378e-06
2.26854378e-06
2.26854378e-06
2.26854378e-06
2.26854378e-06
2.26854378e-06
2.26854378e-06
2.26854378e-06
2.26854378e-06
2.26854378e-06
2.26854378e-06
2.26854378e-06
2.26854378e-06
2.26854378e-06
2.26854378e-06
2.26854378e-06
2.26854378e-06
2.26854378e-06
2.26854378e-06
2.26854378e-06
2.26854378e-06
2.26854378e-06
2.26854378e-06
2.26854378e-06
2.26854378e-06
2.26854378e-06
2.26854378e-06
2.26854378e-06
2.26854378e-06
2.26854378e-06
2.26854378e-06
2.26854378e-06
2.26854378e-06
2.26854378e-06
2.26854378e-06
2.26854378e-06
2.26854378e-06
2.26854378e-06
2.26854378e-06
2.26854378e-06
2.26854378e-06
2.26854378e-06
2.26854378e-06
2.26854378e-06
2.26854378e-06
2.26854378e-06
2.26854378e-06
2.26854378e-06
2.26854378e-06
2.26854378e-06
2.26854378e-06
2.26854378e-06
2.26854378e-06
2.26854378e-06
2.26854378e-06
2.26854378e-06
2.26854378e-06
2.26854378e-06
2.26854378e-06
2.26854378e-06
2.26854378e-06
2.26854378e-06
2.26854378e-06
2.26854378e-06
2.26854378e-06
2.26854378e-06
2.26854378e-06
2.26854378e-06
2.26854378e-06
2.26854378e-06
2.26854378e-06
2.26854378e-06
2.26854378e-06
2.26854378e-06
2.26854378e-06
2.26854378e-06
2.26854378e-06
2.26854378e-06
2.26854378e-06
2.26854378e-06
2.26854378e-06
2.26854378e-06
2.26854378e-06
2.26854378e-06
2.26854378e-06
2.26854378e-06
2.26854378e-06
2.26854378e-06
2.26854378e-06
2.26854378e-06
2.26854378e-06
2.26854378e-06
2.26854378e-06
2.26854378e-06
2.26854378e-06
2.26854378e-06
2.26854378e-06
2.26854378e-06
2.26854378e-06
2.26854378e-06
2.26854378e-06
2.26854378e-06
2.26854378e-06
2.26854378e-06
2.26854378e-06
2.26854378e-06
2.26854378e-06
2.26854378e-06
2.26854378e-06
2.26854378e-06
2.26854378e-06
2.26854378e-06
2.26854378e-06
2.26854378e-06
2.26854378e-06
2.26854378e-06
2.26854378e-06
2.26854378e-06
2.26854378e-06
2.26854378e-06
2.26854378e-06
2.26854378e-06
2.26854378e-06
2.26854378e-06
2.26854378e-06
2.26854378e-06
2.26854378e-06
2.26854378e-06
2.26854378e-06
2.26854378e-06
2.26854378e-06
2.26854378e-06
2.26854378e-06
2.26854378e-06
2.26854378e-06
2.26854378e-06
2.26854378e-06
2.26854378e-06
2.26854378e-06
2.26854378e-06
2.26854378e-06
2.26854378e-06
2.26854378e-06
2.26854378e-06
2.26854378e-06
2.26854378e-06
2.26854378e-06
2.26854378e-06
2.26854378e-06
2.26854378e-06
2.26854378e-06
2.26854378e-06
2.26854378e-06
2.26854378e-06
2.26854378e-06
2.26854378e-06
2.26854378e-06
2.26854378e-06
2.26854378e-06
2.26854378e-06
2.26854378e-06
2.26854378e-06
2.26854378e-06
2.26854378e-06
2.26854378e-06
2.26854378e-06
2.26854378e-06
2.26854378e-06
2.26854378e-06
2.26854378e-06
2.26854378e-06
2.26854378e-06
2.26854378e-06
2.26854378e-06
2.26854378e-06
2.26854378e-06
2.26854378e-06
2.26854378e-06
2.26854378e-06
2.26854378e-06
2.26854378e-06
2.26854378e-06
2.26854378e-06
2.26854378e-06
2.26854378e-06
2.26854378e-06
2.26854378e-06
2.26854378e-06
2.26854378e-06
2.26854378e-06
2.26854378e-06
2.26854378e-06
2.26854378e-06
2.26854378e-06
2.26854378e-06
2.26854378e-06
2.26854378e-06
2.26854378e-06
2.26854378e-06
2.26854378e-06
2.26854378e-06
2.26854378e-06
2.26854378e-06
2.26854378e-06
)
;

boundaryField
{
    closed
    {
        type            calculated;
        value           nonuniform List<scalar> 0();
    }
    open
    {
        type            calculated;
        value           uniform 2.26854378e-06;
    }
    sides
    {
        type            empty;
    }
    procBoundary5to4
    {
        type            processor;
        value           uniform 2.03052342e-06;
    }
}


// ************************************************************************* //
