/*--------------------------------*- C++ -*----------------------------------*\
| =========                 |                                                 |
| \\      /  F ield         | OpenFOAM: The Open Source CFD Toolbox           |
|  \\    /   O peration     | Version:  2306                                  |
|   \\  /    A nd           | Website:  www.openfoam.com                      |
|    \\/     M anipulation  |                                                 |
\*---------------------------------------------------------------------------*/
FoamFile
{
    version     2.0;
    format      ascii;
    arch        "LSB;label=32;scalar=64";
    class       volScalarField;
    location    "0.00138";
    object      h;
}
// * * * * * * * * * * * * * * * * * * * * * * * * * * * * * * * * * * * * * //

dimensions      [0 2 -2 0 0 0 0];

internalField   nonuniform List<scalar> 
531
(
9678.0297
8671.72287
-3618.68625
-3341.63519
9506.17027
10299.4814
2351.1833
-5539.49385
-5279.3741
9082.94071
10054.3243
2088.74135
-5694.04246
-5364.02838
9070.09782
9105.21779
-3527.18205
-3431.33566
9027.59742
10632.1417
7140.522
-1624.14599
-3980.89393
-3787.73275
-4832.9832
-6141.47752
-1060.66006
9291.54558
10567.5537
5336.2417
-1502.40615
4368.24633
10434.1095
9290.13293
2325.80108
-3195.6715
-5599.74344
-3626.48939
8837.92148
2505.13742
-4853.2943
2819.18679
9873.85212
9330.01819
-3369.13541
-5817.80836
5889.94145
9590.56548
-2562.64695
-4114.25433
7584.07059
10329.1522
10123.7972
4310.80639
-5323.55322
-5511.03674
6719.50195
5478.18125
-5088.40761
2843.56231
9177.1705
-2360.52571
-3451.23155
7867.56104
10545.535
9914.54502
1263.9014
-4557.31362
-5929.98349
-4768.7605
8964.17623
9694.32948
-216.404795
-6754.61644
-6779.39727
6715.07268
9340.39922
-3360.78719
-4037.3115
8479.26415
5412.38955
-4344.66185
377.430326
9225.59777
10334.5835
7680.0709
-3766.94505
-4448.62229
7208.57108
9736.48076
9900.66867
8651.59128
-1054.03457
-5355.41604
-7220.81672
-5700.39594
8512.79537
9254.54357
-2874.98738
-6524.46584
-730.206221
9399.73623
10414.3887
3147.32194
-3341.59183
5705.67536
8707.77566
-3141.77549
-857.143035
9634.32929
7344.26741
-541.94795
-3840.98667
-6061.91869
-1398.1135
8320.03843
-143.011086
-5728.57351
4691.25819
9851.82457
2785.72421
-3638.08171
2616.78436
9354.38384
10135.1868
8220.43052
-3494.23864
-4988.49157
5154.9351
9866.40685
1372.95602
-4377.18864
5254.0045
10007.9471
4675.71415
-2301.52039
-6119.01064
-6104.52603
7667.61522
3429.62765
-5475.26193
4891.35494
9699.25367
575.977052
-4764.32572
2826.2483
9624.75387
813.257517
-4277.18008
3526.91736
10038.1519
10096.9826
1794.2797
-3507.01987
1637.97016
9968.78452
10262.9297
1680.05418
-3097.34025
-5517.35062
-5583.06054
2922.94106
3071.40977
-4710.86905
3954.40186
9820.92022
-556.24232
-3619.85476
6858.81808
6991.66074
-5370.33092
218.375769
9714.59245
10100.852
315.993939
-4769.90877
7461.2056
9996.38672
5233.123
-4237.32528
-5926.57279
-165.03116
9488.96281
9409.82577
-2047.41461
-6028.6092
-3524.93419
9001.01308
10415.7362
1737.56178
-3343.30458
2234.62238
630.352298
-5097.42171
3333.76774
9841.31728
9977.79592
3649.50696
-4704.84316
-4756.68311
8502.1781
10211.165
514.250879
-4409.72276
7574.07639
9986.29997
-2294.16591
-4574.24407
7510.50375
10277.2787
2582.52831
-2214.31483
-3103.58909
-5448.55295
-3014.02144
8878.24789
515.732139
-4791.24356
7229.70161
10247.8725
10123.3927
-2120.97288
-4692.36718
7489.887
9948.14818
4619.22179
-5208.34557
-6223.96253
2098.21052
9501.98076
8313.48273
-4838.57865
-6647.20132
2877.27968
9527.36625
445.804716
-4664.44953
2745.17856
9810.18811
9841.06711
-2692.02278
-5768.16629
6303.93052
10182.5892
3095.79533
-961.663836
-5710.79077
-5745.33339
7733.73543
2994.01095
-6231.66126
7271.63185
9871.70785
-2311.56822
-4622.05508
7608.2599
10068.5839
-2023.45859
-4308.34605
7722.43292
10096.0057
-2062.72423
-4355.11469
7777.01356
10076.8336
543.094068
-4726.65758
-645.806107
9197.97355
10475.1415
10425.1175
-1848.74754
-6566.77212
1304.75641
9415.67816
-1332.24779
-3869.08873
7602.10308
3700.30087
-6904.27364
7233.01296
9819.09729
336.380759
-4490.94414
-2025.90683
9400.0489
10607.4905
3633.6955
-2685.23337
-6773.83305
-7114.10685
3256.42718
9859.83354
9975.2072
2081.84122
-5536.59171
-4236.08048
8562.84708
10026.5304
9827.12421
9799.09589
713.407012
-7191.70573
-2657.00318
8733.0554
36.97378
-5963.77911
7506.88165
9835.51111
-2564.42691
-5279.82825
7657.48631
9899.76577
3563.68377
-5563.78906
-6087.68998
2922.21782
9652.08705
9410.8478
-4148.86325
-6539.89519
4843.53284
9809.52296
-1550.54794
-3740.67132
7927.36666
10532.6115
3901.79744
-309.916568
-5584.7443
-5596.58403
6835.3696
9949.0733
6415.07849
-5111.00675
-5687.86951
5514.18707
9813.35863
7068.2099
-5738.35918
-6355.40316
4766.60125
10053.5729
9788.75921
-1429.64643
-5297.43756
7894.45264
9778.14932
2787.28024
-7414.27613
-7451.04521
5569.44718
9951.20932
9854.48004
-2074.16722
-5092.06485
7912.3734
9905.88889
2955.13608
-6616.5436
-6608.30603
7644.17156
9809.18182
3918.33955
-6268.22273
-6279.87594
7705.05917
9825.95332
3955.93598
-6441.00269
-6468.98697
7400.35755
9834.6775
-2092.4303
-5113.5752
7970.9825
9850.87541
3459.18832
-6828.23643
-7161.12927
3581.78092
9609.95346
9600.88673
10177.8057
10185.2482
3143.60935
-2826.3143
-7063.16806
-7049.24188
7375.69943
9807.33854
-2856.95786
-4961.48812
7850.75102
10079.4601
-2086.92399
-4334.77879
7920.66956
10084.403
5125.01724
-5847.80741
-5896.99843
7491.30179
9923.47679
-2176.57726
-4783.70037
7938.9667
9987.49573
3979.79001
-6274.68457
-6334.94645
7509.67938
9896.07682
-2330.55865
-4717.83743
7917.52137
10096.8115
-1945.93528
-4376.32896
7955.92236
10080.5713
4716.02788
-5779.55857
-5832.10005
7536.18228
9683.03173
1740.33843
-7883.39975
-7886.95177
6079.74134
9944.60338
9674.93652
-2376.74688
-4895.30715
7283.95129
10362.8467
9720.10169
3153.51786
-4991.13133
-6740.84082
-3568.74674
8885.207
10643.1517
10609.8698
-1041.9161
-5118.84846
7998.27238
9690.60005
1541.66067
-8173.65901
-8229.08683
5485.88976
9846.15614
9850.15301
-2462.71586
-5847.04856
7797.26173
9748.46542
1334.3625
-7192.01651
-7188.74567
6779.50274
9760.78836
-2451.95053
-5153.23766
7431.49656
10026.4908
-3418.12676
-4880.85235
6968.00871
10268.8563
9863.60911
-2188.68918
-5577.44332
7544.16738
9888.85166
-3082.98256
-5703.9736
7010.06203
9835.80424
-3676.48301
-6121.49734
5728.15583
9791.66942
9652.07752
10107.973
3169.63631
-3036.16774
-6726.59314
-6730.46755
7260.07775
9853.1886
-2754.69207
-4864.81233
7976.91326
10241.8247
436.482117
-2968.24438
-6754.24674
-6789.74312
6875.20492
10095.7737
9767.24514
-2477.85811
-5167.30923
7199.32121
10264.7285
9654.44863
-2145.29309
-5984.74359
7524.73252
9948.04569
-3956.99049
-4882.2807
7274.34997
10393.8914
10043.1166
2659.38445
-3264.12378
-6473.50504
-6491.04499
7715.23091
9627.74882
384.433389
-8065.80094
-8078.57344
7248.56004
9989.99578
10018.7869
-2719.94091
-4329.94691
)
;

boundaryField
{
    closed
    {
        type            lookUpEnthalpy;
        h0              nonuniform List<scalar> 0();
        value           nonuniform List<scalar> 0();
    }
    open
    {
        type            zeroGradient;
    }
    sides
    {
        type            empty;
    }
    procBoundary1to0
    {
        type            processor;
        value           uniform -2211.84432;
    }
    procBoundary1to2
    {
        type            processor;
        value           uniform 7693.90761;
    }
}


// ************************************************************************* //
