/*--------------------------------*- C++ -*----------------------------------*\
| =========                 |                                                 |
| \\      /  F ield         | OpenFOAM: The Open Source CFD Toolbox           |
|  \\    /   O peration     | Version:  2306                                  |
|   \\  /    A nd           | Website:  www.openfoam.com                      |
|    \\/     M anipulation  |                                                 |
\*---------------------------------------------------------------------------*/
FoamFile
{
    version     2.0;
    format      ascii;
    arch        "LSB;label=32;scalar=64";
    class       volScalarField;
    location    "0.00094";
    object      alpha;
}
// * * * * * * * * * * * * * * * * * * * * * * * * * * * * * * * * * * * * * //

dimensions      [1 -1 -1 0 0 0 0];

internalField   nonuniform List<scalar> 
530
(
7.62711403e-05
7.63252668e-05
7.62319012e-05
7.64775891e-05
7.64471298e-05
7.65214426e-05
7.64293727e-05
7.65255784e-05
7.65862422e-05
7.65731506e-05
7.65718202e-05
7.65813381e-05
7.67200549e-05
7.66916434e-05
7.67284571e-05
7.67138782e-05
7.68469757e-05
7.68022257e-05
7.68599373e-05
7.6849861e-05
7.69614974e-05
7.69161454e-05
7.69837905e-05
7.69802931e-05
7.70666826e-05
7.70262643e-05
7.71176561e-05
7.71130451e-05
7.71637943e-05
7.71325472e-05
7.71892085e-05
7.72198787e-05
7.72824593e-05
7.72564292e-05
7.73384959e-05
7.73340327e-05
7.73807884e-05
7.73838594e-05
7.74262985e-05
7.74099391e-05
7.74564031e-05
7.74769487e-05
7.7504345e-05
7.74981566e-05
7.75370454e-05
7.755318e-05
7.75957508e-05
7.75882203e-05
7.76185226e-05
7.76329764e-05
7.7687394e-05
7.76798321e-05
7.77083609e-05
7.77198342e-05
7.77787046e-05
7.77719035e-05
7.77988797e-05
7.78101872e-05
7.78697592e-05
7.78641823e-05
7.78917831e-05
7.79011537e-05
7.79613742e-05
7.79568214e-05
7.79882683e-05
7.79968732e-05
7.80591665e-05
7.80522413e-05
7.80876767e-05
7.8096264e-05
7.8158473e-05
7.81521978e-05
7.81890875e-05
7.81970778e-05
7.82587766e-05
7.82533548e-05
7.82920673e-05
7.82993752e-05
7.83606036e-05
7.83563849e-05
7.83964817e-05
7.84031778e-05
7.84642722e-05
7.84613355e-05
7.85024478e-05
7.85095712e-05
7.85702273e-05
7.85686383e-05
7.86142041e-05
7.86192244e-05
7.86808819e-05
7.86781993e-05
7.87277293e-05
7.87332264e-05
7.87958701e-05
7.87936904e-05
7.8844099e-05
7.88507335e-05
7.8913313e-05
7.89113443e-05
7.89623285e-05
7.89715859e-05
7.90330568e-05
7.90314129e-05
7.90834381e-05
7.90953069e-05
7.9155e-05
7.9153506e-05
7.92068004e-05
7.92198663e-05
7.92789242e-05
7.92773102e-05
7.93316761e-05
7.93458969e-05
7.94036963e-05
7.94031281e-05
7.94576589e-05
7.94725994e-05
7.95293447e-05
7.95286852e-05
7.9585371e-05
7.96006021e-05
7.96567526e-05
7.9656113e-05
7.97154232e-05
7.97302492e-05
7.97858723e-05
7.97850348e-05
7.98466971e-05
7.98607022e-05
7.99157251e-05
7.99148992e-05
7.99789742e-05
7.99921586e-05
8.00464475e-05
8.00451939e-05
8.01085039e-05
8.01240618e-05
8.01742383e-05
8.01754097e-05
8.02326978e-05
8.02498619e-05
8.0297056e-05
8.02989034e-05
8.0354558e-05
8.03726835e-05
8.0419258e-05
8.04215084e-05
8.04751513e-05
8.04933842e-05
8.05403209e-05
8.05430735e-05
8.05949872e-05
8.06120489e-05
8.06597969e-05
8.06631732e-05
8.07141762e-05
8.072857e-05
8.07774387e-05
8.07814155e-05
8.08319418e-05
8.08436328e-05
8.08927755e-05
8.0897662e-05
8.0949279e-05
8.09581591e-05
8.10077937e-05
8.1012199e-05
8.10663738e-05
8.10723838e-05
8.11223859e-05
8.11270723e-05
8.1181489e-05
8.11856439e-05
8.12343028e-05
8.12393509e-05
8.12940578e-05
8.12966447e-05
8.13438987e-05
8.13487848e-05
8.14028754e-05
8.14048346e-05
8.14504243e-05
8.1456393e-05
8.15105264e-05
8.15108289e-05
8.15543221e-05
8.15601969e-05
8.1614411e-05
8.16147077e-05
8.1655111e-05
8.1660847e-05
8.17149477e-05
8.17174555e-05
8.17525047e-05
8.17584481e-05
8.18120695e-05
8.18191601e-05
8.18461887e-05
8.18536116e-05
8.19077119e-05
8.19166429e-05
8.19366278e-05
8.19451022e-05
8.19978636e-05
8.20066334e-05
8.20229546e-05
8.20327425e-05
8.20808911e-05
8.20907212e-05
8.21059331e-05
8.21161499e-05
8.21575995e-05
8.21703446e-05
8.21850514e-05
8.2197616e-05
8.22292309e-05
8.22478783e-05
8.22601124e-05
8.22760474e-05
8.22997944e-05
8.23217357e-05
8.23325051e-05
8.23504458e-05
8.23718436e-05
8.23932586e-05
8.24026679e-05
8.24211899e-05
8.24458471e-05
8.24614694e-05
8.2471708e-05
8.24883307e-05
8.25155953e-05
8.25269017e-05
8.25387161e-05
8.255248e-05
8.25813514e-05
8.25898785e-05
8.26018021e-05
8.26139182e-05
8.26430832e-05
8.26496056e-05
8.26609569e-05
8.2672492e-05
8.27009165e-05
8.27052443e-05
8.2716328e-05
8.27285276e-05
8.27547791e-05
8.27586624e-05
8.27676846e-05
8.27822566e-05
8.2804061e-05
8.28093415e-05
8.28146118e-05
8.28332854e-05
8.28498486e-05
8.28568893e-05
8.28596888e-05
8.28799151e-05
8.2893828e-05
8.29011415e-05
8.29031501e-05
8.29234313e-05
8.29347464e-05
8.2942352e-05
8.29439909e-05
8.29639485e-05
8.29733546e-05
8.29810519e-05
8.29825875e-05
8.30017296e-05
8.3009842e-05
8.30171961e-05
8.30188633e-05
8.30368888e-05
8.30441438e-05
8.30509599e-05
8.30528508e-05
8.30696135e-05
8.30761434e-05
8.30824028e-05
8.30843716e-05
8.31001636e-05
8.3106041e-05
8.31115679e-05
8.311369e-05
8.31281426e-05
8.31337727e-05
8.31386459e-05
8.31411226e-05
8.31544072e-05
8.31595089e-05
8.31636495e-05
8.31658901e-05
8.317859e-05
8.31832861e-05
8.31867404e-05
8.31893573e-05
8.3200431e-05
8.32050612e-05
8.32077661e-05
8.32106685e-05
8.32211757e-05
8.32256415e-05
8.32272181e-05
8.32300348e-05
8.32397384e-05
8.32436193e-05
8.32451466e-05
8.32475893e-05
8.32568704e-05
8.32599353e-05
8.32615715e-05
8.32634212e-05
8.32720237e-05
8.32742001e-05
8.32765061e-05
8.32779736e-05
8.32861109e-05
8.32877994e-05
8.32900369e-05
8.32912743e-05
8.32988625e-05
8.33001799e-05
8.33022619e-05
8.33033296e-05
8.33103428e-05
8.33114112e-05
8.33132031e-05
8.33143009e-05
8.33205187e-05
8.33216712e-05
8.33230069e-05
8.33244581e-05
8.33298452e-05
8.33313256e-05
8.33317671e-05
8.33334796e-05
8.33379797e-05
8.33395209e-05
8.33397257e-05
8.33415782e-05
8.33453528e-05
8.33467333e-05
8.3346867e-05
8.33485493e-05
8.33518119e-05
8.33528092e-05
8.335334e-05
8.33548067e-05
8.33578725e-05
8.3358653e-05
8.33591777e-05
8.33604347e-05
8.33632798e-05
8.33638945e-05
8.33643859e-05
8.33654622e-05
8.33680922e-05
8.33685873e-05
8.33690611e-05
8.33699574e-05
8.33723831e-05
8.33728219e-05
8.33732034e-05
8.33739705e-05
8.33761676e-05
8.3376495e-05
8.33768918e-05
8.33774484e-05
8.33797336e-05
8.33799349e-05
8.3380181e-05
8.33804656e-05
8.33827717e-05
8.33829382e-05
8.3383069e-05
8.33833665e-05
8.33851402e-05
8.33861023e-05
8.33858298e-05
8.33864653e-05
8.33871508e-05
8.33888245e-05
8.3387896e-05
8.33890939e-05
8.33890609e-05
8.33911639e-05
8.33897513e-05
8.33912777e-05
8.33908036e-05
8.33931277e-05
8.3391428e-05
8.33932015e-05
8.33923568e-05
8.33949603e-05
8.33929236e-05
8.33950697e-05
8.33937386e-05
8.3397041e-05
8.33942714e-05
8.33974895e-05
8.33949645e-05
8.33986361e-05
8.33954763e-05
8.34001035e-05
8.33960324e-05
8.33970968e-05
8.33965788e-05
8.33973538e-05
8.33969212e-05
8.33972778e-05
8.33974494e-05
8.33974559e-05
8.33976388e-05
8.33980196e-05
8.33981534e-05
8.33980298e-05
8.33980629e-05
8.3398752e-05
8.33986038e-05
8.33986454e-05
8.33985068e-05
8.33992311e-05
8.33989303e-05
8.33991297e-05
8.33989767e-05
8.33996439e-05
8.33993571e-05
8.33995336e-05
8.3399429e-05
8.33999834e-05
8.3399762e-05
8.33998766e-05
8.33998275e-05
8.34002782e-05
8.34001196e-05
8.34001865e-05
8.34001686e-05
8.34005404e-05
8.34004281e-05
8.34004653e-05
8.34004507e-05
8.34007948e-05
8.34007592e-05
8.34007424e-05
8.34007056e-05
8.34009946e-05
8.34011015e-05
8.34011277e-05
8.34010029e-05
8.34013154e-05
8.34022682e-05
8.3402395e-05
8.34015821e-05
8.34017836e-05
8.34018544e-05
8.34019973e-05
8.34018395e-05
8.34019602e-05
8.34018698e-05
8.34019641e-05
8.34018879e-05
8.3401958e-05
8.34019e-05
8.34019498e-05
8.34019057e-05
8.3401941e-05
8.3401906e-05
8.34019298e-05
8.34019027e-05
8.34019171e-05
8.34018964e-05
8.34019034e-05
8.34018906e-05
8.34018924e-05
8.34018843e-05
8.34018855e-05
8.34018813e-05
8.34018835e-05
8.34018853e-05
8.34018413e-05
8.34017782e-05
8.34017289e-05
8.34016926e-05
8.3401667e-05
8.34016495e-05
8.34016384e-05
8.34016315e-05
8.34016276e-05
8.34016255e-05
8.34016245e-05
8.3401624e-05
8.34016237e-05
8.34016237e-05
8.34016236e-05
8.34016236e-05
8.34016236e-05
8.34016236e-05
8.34016236e-05
8.34016236e-05
8.34016236e-05
8.34016236e-05
8.34016236e-05
8.34016236e-05
8.34016236e-05
8.34016236e-05
8.34016236e-05
8.34016236e-05
8.34016236e-05
8.34016236e-05
8.34016236e-05
8.34016236e-05
8.34016236e-05
8.34016236e-05
8.34016236e-05
8.34016236e-05
8.34016236e-05
8.34016236e-05
8.34016236e-05
8.34016236e-05
8.34016236e-05
8.34016236e-05
8.34016236e-05
8.34016236e-05
8.34016236e-05
8.34016236e-05
8.34016236e-05
8.34016236e-05
)
;

boundaryField
{
    closed
    {
        type            calculated;
        value           nonuniform List<scalar> 0();
    }
    open
    {
        type            calculated;
        value           uniform 8.34016236e-05;
    }
    sides
    {
        type            empty;
    }
    procBoundary5to4
    {
        type            processor;
        value           uniform 7.63065228e-05;
    }
}


// ************************************************************************* //
