/*--------------------------------*- C++ -*----------------------------------*\
| =========                 |                                                 |
| \\      /  F ield         | OpenFOAM: The Open Source CFD Toolbox           |
|  \\    /   O peration     | Version:  2306                                  |
|   \\  /    A nd           | Website:  www.openfoam.com                      |
|    \\/     M anipulation  |                                                 |
\*---------------------------------------------------------------------------*/
FoamFile
{
    version     2.0;
    format      ascii;
    arch        "LSB;label=32;scalar=64";
    class       volScalarField;
    location    "0.00148";
    object      H;
}
// * * * * * * * * * * * * * * * * * * * * * * * * * * * * * * * * * * * * * //

dimensions      [0 0 0 0 0 0 0];

internalField   nonuniform List<scalar> 
531
(
1.31684843e-09
1.05258851e-09
4.07826061e-08
3.76677819e-08
1.32316117e-09
1.14981219e-09
4.21221014e-08
4.43717175e-08
3.31206849e-08
1.24495668e-09
1.19898718e-09
4.37883259e-08
4.68199394e-08
3.46983551e-08
1.22769378e-09
1.16402595e-09
4.37620291e-08
3.52054163e-08
1.24353504e-09
1.36197074e-09
1.1302403e-09
4.0473067e-08
4.49718134e-08
4.20563105e-08
4.3093665e-08
4.52283044e-08
3.48575357e-08
1.27789453e-09
1.4110822e-09
1.10350086e-09
3.58881276e-08
3.57680095e-08
1.37943883e-09
1.21370359e-09
3.85796461e-08
4.14986771e-08
4.07560774e-08
3.72498917e-08
1.28183001e-09
1.03983485e-09
4.47010035e-08
4.25680479e-08
1.23868797e-09
9.67171729e-10
4.6379031e-08
4.40090011e-08
1.20019708e-09
9.43480441e-10
4.95019156e-08
4.39777517e-08
1.17500826e-09
1.0342519e-09
1.16493021e-09
8.48756192e-10
4.95230757e-08
4.68114927e-08
1.1734997e-09
1.00273087e-09
4.8822214e-08
3.80353442e-08
1.03410083e-09
4.07626295e-08
3.96093993e-08
1.24870035e-09
1.29423299e-09
1.14434074e-09
4.12664265e-08
4.47786336e-08
4.185889e-08
4.01605777e-08
1.23839727e-09
1.09082418e-09
4.7656429e-08
5.19424939e-08
4.14104555e-08
1.12972071e-09
1.04400812e-09
4.81184594e-08
4.47501173e-08
1.16249467e-09
1.03691794e-09
4.90123113e-08
4.16506302e-08
1.09502199e-09
1.24792169e-09
9.63760973e-10
4.56542141e-08
4.42748911e-08
1.2647476e-09
1.15625061e-09
1.26885192e-09
1.08130603e-09
4.41832215e-08
4.67359562e-08
4.35571358e-08
4.140921e-08
1.2828974e-09
1.13232958e-09
4.49783133e-08
4.81115094e-08
3.88752435e-08
1.22808656e-09
1.197456e-09
4.12402836e-08
3.90707837e-08
1.31067787e-09
1.19413908e-09
3.93140944e-08
3.73695931e-08
1.3037145e-09
1.19305858e-09
4.30789775e-08
4.31639215e-08
4.5002949e-08
4.12586652e-08
1.22646306e-09
1.09987546e-09
4.84163575e-08
4.57384043e-08
1.2297856e-09
1.14253109e-09
4.52979684e-08
3.8499205e-08
1.22516602e-09
1.32519018e-09
1.17208847e-09
4.07308713e-08
4.07871417e-08
1.35250152e-09
1.21525331e-09
3.89167648e-08
4.41460391e-08
3.73937796e-08
1.26964358e-09
1.23240313e-09
4.28918805e-08
4.90518788e-08
4.09451419e-08
1.20075197e-09
1.15658151e-09
4.72507034e-08
4.54136292e-08
1.22612784e-09
1.11346453e-09
4.71095534e-08
4.5261642e-08
1.22573072e-09
1.14335378e-09
4.79847492e-08
4.14240533e-08
1.21193429e-09
1.27780088e-09
1.1695889e-09
4.27718621e-08
3.99071507e-08
1.28337452e-09
1.37808887e-09
1.23268213e-09
3.41933383e-08
4.27169814e-08
3.63575195e-08
4.17476121e-08
3.68532597e-08
4.26682513e-08
3.28855225e-08
1.26508315e-09
3.43308885e-08
4.10581123e-08
1.39229149e-09
1.26053032e-09
4.10721446e-08
4.09910471e-08
1.31521928e-09
1.26377034e-09
4.46094815e-08
3.80079875e-08
1.24731732e-09
1.35217987e-09
1.19188438e-09
3.91997891e-08
4.80384282e-08
4.08787209e-08
1.26251978e-09
1.22626231e-09
4.19657807e-08
4.86510734e-08
3.93354854e-08
1.232008e-09
1.40380727e-09
1.19660659e-09
3.26449755e-08
4.5457833e-08
3.83145442e-08
4.67633663e-08
3.85989186e-08
1.22419407e-09
1.33535034e-09
1.22631137e-09
4.11183769e-08
4.37085532e-08
1.30721003e-09
1.2333425e-09
4.26165274e-08
4.24183836e-08
1.27165731e-09
1.24301923e-09
4.58804754e-08
4.06201283e-08
1.22743158e-09
1.25961944e-09
1.19429055e-09
4.39813008e-08
4.76078982e-08
4.68858674e-08
4.32254194e-08
1.21176245e-09
4.4869e-08
4.48858216e-08
1.24040702e-09
1.23321375e-09
1.22197129e-09
4.48175897e-08
4.26900689e-08
1.21706057e-09
1.27591697e-09
1.17729358e-09
4.15528479e-08
4.92875534e-08
4.33807284e-08
1.22906979e-09
1.21576838e-09
4.23765206e-08
4.80336949e-08
4.22891815e-08
1.26146704e-09
1.27944861e-09
4.1666148e-08
4.23400759e-08
1.36959028e-09
1.25358796e-09
3.53090015e-08
4.34693828e-08
3.96742928e-08
1.29680126e-09
1.26934023e-09
3.99505896e-08
4.79373249e-08
4.16797275e-08
1.22864662e-09
1.34048277e-09
4.55367867e-08
3.88726837e-08
1.24487021e-09
3.72636358e-08
4.57428568e-08
1.36585967e-09
1.24990303e-09
4.16823528e-08
4.33969248e-08
1.33949875e-09
1.25031435e-09
4.11479529e-08
4.34984736e-08
1.38199603e-09
1.18860749e-09
3.73833826e-08
4.90162834e-08
4.21450456e-08
1.16710928e-09
1.312521e-09
1.1720747e-09
1.29624951e-09
4.75579289e-08
4.21936307e-08
1.18701895e-09
4.09576113e-08
4.89616209e-08
1.27210241e-09
1.17706889e-09
4.50634465e-08
4.64846138e-08
1.20464172e-09
1.17905426e-09
5.0364866e-08
4.66470347e-08
1.17919626e-09
1.20377613e-09
1.17676993e-09
4.27170601e-08
4.83715256e-08
4.84001324e-08
4.56455126e-08
1.14215152e-09
1.26565914e-09
1.11699368e-09
3.97441586e-08
5.25482879e-08
4.38332616e-08
1.15045379e-09
1.29409434e-09
1.18835744e-09
1.31992326e-09
4.48514344e-08
4.01567657e-08
1.22108373e-09
3.93294412e-08
4.87264678e-08
1.34454057e-09
1.2207442e-09
4.2730254e-08
4.42468173e-08
1.37836576e-09
1.24869548e-09
2.33204832e-08
4.25806763e-08
4.2389915e-08
4.34868232e-08
1.39820879e-09
1.24389676e-09
2.97003812e-08
4.58783914e-08
3.79113859e-08
1.2621403e-09
3.86220141e-08
4.18754013e-08
1.31766125e-09
1.36996272e-09
1.29370666e-09
2.92913023e-08
4.36035264e-08
3.99317018e-08
4.35833312e-08
1.33503322e-09
1.2864052e-09
3.71106024e-08
4.31406523e-08
4.19250113e-08
1.34227582e-09
1.2246384e-09
3.39972429e-08
4.9124334e-08
4.1115162e-08
1.11067257e-09
1.31578267e-09
1.1360758e-09
4.22763324e-08
5.01809936e-08
1.33679261e-09
1.19040576e-09
3.56386968e-08
4.50994796e-08
4.1695368e-08
1.3062344e-09
1.32825107e-09
2.52427679e-08
4.22345138e-08
4.152945e-08
1.36559794e-09
1.33525552e-09
3.41888004e-08
4.30441314e-08
4.24968995e-08
1.31833772e-09
1.29162161e-09
3.68448195e-08
4.45759228e-08
4.41520883e-08
1.28933907e-09
1.25574546e-09
3.77588816e-08
4.68721181e-08
4.51862912e-08
1.23431698e-09
1.23523244e-09
4.07219521e-08
4.70718543e-08
1.25029671e-09
1.19943341e-09
4.09810521e-08
5.23463815e-08
4.70069771e-08
1.1128423e-09
1.27711425e-09
1.18060352e-09
1.33154597e-09
1.25379945e-09
3.65654114e-08
4.34884929e-08
4.40872423e-08
4.54040589e-08
1.1982483e-09
1.23249094e-09
4.37719544e-08
4.57083729e-08
1.2366277e-09
1.23987173e-09
4.05108139e-08
4.44249088e-08
1.30689753e-09
1.27517786e-09
3.61092519e-08
4.48105766e-08
4.36084383e-08
1.27197791e-09
1.28492919e-09
3.81853308e-08
4.33082705e-08
1.34391988e-09
1.279708e-09
3.2467469e-08
4.56831514e-08
3.96581076e-08
1.19851767e-09
2.58269016e-08
4.50853263e-08
1.36606502e-09
1.30446678e-09
3.04805385e-08
4.24760254e-08
4.22522974e-08
1.31065467e-09
1.29365657e-09
3.16143375e-08
4.41553185e-08
4.40071351e-08
1.2404264e-09
1.21218121e-09
3.87623861e-08
5.21522055e-08
4.84246796e-08
1.07804871e-09
1.20863709e-09
1.14516119e-09
4.5093864e-08
4.69627926e-08
1.05508727e-09
1.29174883e-09
1.09116055e-09
3.58418468e-08
5.39728934e-08
4.56779656e-08
1.08814676e-09
1.31512905e-09
1.19852344e-09
3.64785029e-08
4.39932358e-08
1.31733493e-09
1.27568677e-09
2.99993771e-08
4.13079323e-08
4.2939761e-08
4.34435925e-08
1.20031112e-09
1.28311223e-09
3.94666856e-08
4.24430515e-08
1.26848587e-09
1.2844861e-09
3.36902825e-08
4.1602582e-08
4.47063213e-08
4.46737541e-08
1.09902793e-09
1.23129277e-09
4.55583557e-08
4.6407227e-08
1.06863255e-09
1.20328467e-09
4.76485515e-08
4.72519295e-08
1.03027447e-09
1.23472684e-09
1.0819377e-09
4.04011851e-08
5.02381851e-08
1.12281787e-09
1.1512804e-09
4.53212166e-08
4.83968337e-08
1.07508515e-09
1.17683309e-09
4.72004367e-08
4.80473949e-08
1.08755774e-09
1.20370163e-09
1.25026195e-09
1.23927138e-09
3.20677789e-08
4.19681504e-08
4.27952008e-08
4.250168e-08
1.13638748e-09
3.48466438e-08
4.64982898e-08
1.0285253e-09
1.20044452e-09
7.67119906e-09
4.40385561e-08
4.75167373e-08
5.14600289e-08
5.13353256e-08
1.00445662e-09
1.1624656e-09
1.09830199e-09
4.3431766e-08
4.72700461e-08
1.00905382e-09
1.24801763e-09
1.08459222e-09
3.81528832e-08
4.89459557e-08
1.13112596e-09
1.19595239e-09
4.40194355e-08
4.37645379e-08
1.0592287e-09
1.31841718e-09
1.13875173e-09
3.10528229e-08
4.55777587e-08
4.4406995e-08
4.77979711e-08
1.10838123e-09
1.1030424e-09
4.00330399e-08
5.4909328e-08
5.16659532e-08
9.9684769e-10
1.15819179e-09
1.11390891e-09
4.44504877e-08
)
;

boundaryField
{
    closed
    {
        type            calculated;
        value           nonuniform List<scalar> 0();
    }
    open
    {
        type            calculated;
        value           nonuniform List<scalar> 0();
    }
    sides
    {
        type            empty;
    }
    procBoundary1to0
    {
        type            processor;
        value           uniform 4.00405683e-08;
    }
    procBoundary1to2
    {
        type            processor;
        value           uniform 4.61752463e-08;
    }
}


// ************************************************************************* //
