/*--------------------------------*- C++ -*----------------------------------*\
| =========                 |                                                 |
| \\      /  F ield         | OpenFOAM: The Open Source CFD Toolbox           |
|  \\    /   O peration     | Version:  2306                                  |
|   \\  /    A nd           | Website:  www.openfoam.com                      |
|    \\/     M anipulation  |                                                 |
\*---------------------------------------------------------------------------*/
FoamFile
{
    version     2.0;
    format      ascii;
    arch        "LSB;label=32;scalar=64";
    class       volScalarField;
    location    "0.00148";
    object      prefDPV_H2;
}
// * * * * * * * * * * * * * * * * * * * * * * * * * * * * * * * * * * * * * //

dimensions      [1 -1 -1 0 0 0 0];

internalField   nonuniform List<scalar> 
531
(
-3.15494071e-05
-3.15183448e-05
-3.07205454e-05
-3.08444742e-05
-3.15465734e-05
-3.1520269e-05
-3.0672525e-05
-3.06000569e-05
-3.09022204e-05
-3.15262812e-05
-3.15424441e-05
-3.06153454e-05
-3.05045888e-05
-3.09085238e-05
-3.15353287e-05
-3.15498686e-05
-3.06171331e-05
-3.09143116e-05
-3.15345172e-05
-3.15364905e-05
-3.15332447e-05
-3.0737717e-05
-3.05723425e-05
-3.06780044e-05
-3.06370611e-05
-3.05609249e-05
-3.09051626e-05
-3.15480547e-05
-3.15511127e-05
-3.15334805e-05
-3.0897607e-05
-3.09069882e-05
-3.15406737e-05
-3.15270174e-05
-3.08056738e-05
-3.07041842e-05
-3.07264228e-05
-3.08552215e-05
-3.15408643e-05
-3.15116253e-05
-3.05804273e-05
-3.06675916e-05
-3.15341099e-05
-3.14943929e-05
-3.05192957e-05
-3.06160829e-05
-3.15314841e-05
-3.14902395e-05
-3.0401509e-05
-3.0616931e-05
-3.15340785e-05
-3.14915805e-05
-3.15277773e-05
-3.14825303e-05
-3.04016115e-05
-3.05094096e-05
-3.15203683e-05
-3.14989478e-05
-3.04301228e-05
-3.08293592e-05
-3.15195284e-05
-3.07318657e-05
-3.07697278e-05
-3.1523723e-05
-3.15207103e-05
-3.15193771e-05
-3.07138341e-05
-3.05825344e-05
-3.06912491e-05
-3.07496644e-05
-3.15252547e-05
-3.15115218e-05
-3.04726148e-05
-3.03112715e-05
-3.07016274e-05
-3.15091382e-05
-3.15122492e-05
-3.04583392e-05
-3.05820796e-05
-3.15114638e-05
-3.1508283e-05
-3.04238206e-05
-3.06946994e-05
-3.15149818e-05
-3.15264428e-05
-3.15033324e-05
-3.05458966e-05
-3.06019174e-05
-3.15379244e-05
-3.15117162e-05
-3.15340235e-05
-3.15080267e-05
-3.05999353e-05
-3.05106708e-05
-3.06218178e-05
-3.07053768e-05
-3.15457362e-05
-3.15157497e-05
-3.05666933e-05
-3.04582878e-05
-3.07837407e-05
-3.15233273e-05
-3.15382478e-05
-3.07123518e-05
-3.07834972e-05
-3.15314311e-05
-3.15266964e-05
-3.07804913e-05
-3.08498811e-05
-3.1533652e-05
-3.15152301e-05
-3.06416996e-05
-3.06411512e-05
-3.05706884e-05
-3.07066791e-05
-3.15394687e-05
-3.15235989e-05
-3.04412537e-05
-3.05409672e-05
-3.15362528e-05
-3.15274065e-05
-3.05589818e-05
-3.08049144e-05
-3.15441366e-05
-3.15348403e-05
-3.15367368e-05
-3.07262509e-05
-3.072248e-05
-3.1545434e-05
-3.15314829e-05
-3.07860564e-05
-3.06052959e-05
-3.08357447e-05
-3.15349801e-05
-3.15450019e-05
-3.06463617e-05
-3.04186104e-05
-3.07128452e-05
-3.15365675e-05
-3.15337577e-05
-3.04858595e-05
-3.05524093e-05
-3.15368683e-05
-3.15251491e-05
-3.04903138e-05
-3.05599696e-05
-3.15402989e-05
-3.15228649e-05
-3.04567414e-05
-3.07010147e-05
-3.15516526e-05
-3.15301964e-05
-3.15438193e-05
-3.06530593e-05
-3.07512759e-05
-3.15435599e-05
-3.15424598e-05
-3.15373845e-05
-3.09137202e-05
-3.06567894e-05
-3.08780145e-05
-3.069206e-05
-3.08588242e-05
-3.06572697e-05
-3.09015538e-05
-3.15458557e-05
-3.09089412e-05
-3.07101897e-05
-3.15547212e-05
-3.15444875e-05
-3.07077399e-05
-3.07121129e-05
-3.15545687e-05
-3.15392794e-05
-3.0579265e-05
-3.0820802e-05
-3.1558781e-05
-3.15385225e-05
-3.15507836e-05
-3.07794773e-05
-3.04564224e-05
-3.07155587e-05
-3.15412854e-05
-3.15413131e-05
-3.06779986e-05
-3.04344938e-05
-3.07693815e-05
-3.1537991e-05
-3.15519082e-05
-3.15289125e-05
-3.08993823e-05
-3.05565112e-05
-3.08053862e-05
-3.05064931e-05
-3.07959171e-05
-3.15429231e-05
-3.15414257e-05
-3.15435124e-05
-3.07116935e-05
-3.06160556e-05
-3.15395215e-05
-3.15331314e-05
-3.06566102e-05
-3.0665495e-05
-3.15418725e-05
-3.15245293e-05
-3.05354003e-05
-3.07347832e-05
-3.15489221e-05
-3.1517333e-05
-3.15415345e-05
-3.06119285e-05
-3.04739141e-05
-3.05017146e-05
-3.06382893e-05
-3.15355726e-05
-3.0577422e-05
-3.05747296e-05
-3.15381387e-05
-3.15248872e-05
-3.1535552e-05
-3.05786664e-05
-3.06561161e-05
-3.15382965e-05
-3.15243093e-05
-3.153609e-05
-3.06989193e-05
-3.04113444e-05
-3.062938e-05
-3.15285786e-05
-3.15327574e-05
-3.06674397e-05
-3.04585655e-05
-3.06682285e-05
-3.15371206e-05
-3.15391697e-05
-3.06919961e-05
-3.06680479e-05
-3.15467186e-05
-3.1532017e-05
-3.09121397e-05
-3.06308592e-05
-3.07577939e-05
-3.15365288e-05
-3.15457467e-05
-3.07509715e-05
-3.04610945e-05
-3.06843097e-05
-3.15394416e-05
-3.15551661e-05
-3.05490766e-05
-3.07858705e-05
-3.15524682e-05
-3.08450904e-05
-3.0540686e-05
-3.1553114e-05
-3.15377585e-05
-3.06850428e-05
-3.06305603e-05
-3.15589587e-05
-3.15264151e-05
-3.07029983e-05
-3.06302431e-05
-3.15594894e-05
-3.15188383e-05
-3.08360353e-05
-3.04245254e-05
-3.06653498e-05
-3.1519926e-05
-3.15568326e-05
-3.15199446e-05
-3.15501601e-05
-3.04766838e-05
-3.06715632e-05
-3.15364644e-05
-3.07199562e-05
-3.04234723e-05
-3.15294527e-05
-3.15193059e-05
-3.05688028e-05
-3.0519657e-05
-3.15357098e-05
-3.15082336e-05
-3.03679452e-05
-3.05146114e-05
-3.15428547e-05
-3.15039572e-05
-3.15384404e-05
-3.06626705e-05
-3.04457768e-05
-3.04467808e-05
-3.05485812e-05
-3.15262293e-05
-3.15210631e-05
-3.15263044e-05
-3.0763762e-05
-3.02869771e-05
-3.0610367e-05
-3.15202583e-05
-3.15477389e-05
-3.15206254e-05
-3.15522973e-05
-3.05773418e-05
-3.0741735e-05
-3.15461965e-05
-3.07706747e-05
-3.04303508e-05
-3.15585162e-05
-3.1532366e-05
-3.0643345e-05
-3.06013935e-05
-3.15767398e-05
-3.15196744e-05
-3.09075683e-05
-3.06634583e-05
-3.06540084e-05
-3.06285476e-05
-3.15720467e-05
-3.1529155e-05
-3.08887024e-05
-3.05390829e-05
-3.08182752e-05
-3.15481673e-05
-3.07961476e-05
-3.06834594e-05
-3.15562157e-05
-3.15417513e-05
-3.15499664e-05
-3.09034368e-05
-3.06191707e-05
-3.0752318e-05
-3.06193047e-05
-3.1545853e-05
-3.15442879e-05
-3.08557366e-05
-3.06395598e-05
-3.06845714e-05
-3.15438842e-05
-3.15215512e-05
-3.09093675e-05
-3.04203793e-05
-3.07072034e-05
-3.15278726e-05
-3.15446918e-05
-3.1530489e-05
-3.06642655e-05
-3.03780875e-05
-3.15529291e-05
-3.15193105e-05
-3.08987206e-05
-3.05714654e-05
-3.06834135e-05
-3.15415801e-05
-3.15540657e-05
-3.09082145e-05
-3.06654806e-05
-3.06902097e-05
-3.1560643e-05
-3.15544092e-05
-3.08976603e-05
-3.06399726e-05
-3.06540134e-05
-3.1547976e-05
-3.1553487e-05
-3.08595697e-05
-3.05851624e-05
-3.05972825e-05
-3.15409806e-05
-3.15456344e-05
-3.08300879e-05
-3.05015323e-05
-3.05609641e-05
-3.15341039e-05
-3.15391832e-05
-3.07262904e-05
-3.04936459e-05
-3.15360943e-05
-3.15297928e-05
-3.07154546e-05
-3.02942343e-05
-3.04934298e-05
-3.15258515e-05
-3.15385327e-05
-3.15290612e-05
-3.15384407e-05
-3.15335284e-05
-3.0874142e-05
-3.06296199e-05
-3.06027994e-05
-3.05566139e-05
-3.15411214e-05
-3.15306856e-05
-3.06119293e-05
-3.05450168e-05
-3.15471775e-05
-3.15331802e-05
-3.07283668e-05
-3.05924041e-05
-3.15517973e-05
-3.15378963e-05
-3.08839557e-05
-3.05788899e-05
-3.06162442e-05
-3.15419498e-05
-3.15471494e-05
-3.08116015e-05
-3.06322912e-05
-3.15595541e-05
-3.15351343e-05
-3.08903203e-05
-3.05474679e-05
-3.0752901e-05
-3.15371744e-05
-3.08995905e-05
-3.05656487e-05
-3.15640874e-05
-3.15415876e-05
-3.08908373e-05
-3.06630099e-05
-3.06646827e-05
-3.15441685e-05
-3.15450768e-05
-3.09036089e-05
-3.06028237e-05
-3.06044317e-05
-3.1533477e-05
-3.15364357e-05
-3.0797182e-05
-3.0301716e-05
-3.04423478e-05
-3.15232168e-05
-3.15273482e-05
-3.15269662e-05
-3.05668268e-05
-3.04986682e-05
-3.15300669e-05
-3.15278964e-05
-3.15288746e-05
-3.09004864e-05
-3.02310357e-05
-3.05431316e-05
-3.15264618e-05
-3.1539767e-05
-3.15330146e-05
-3.0873945e-05
-3.06101663e-05
-3.15507978e-05
-3.15304417e-05
-3.0897073e-05
-3.07073432e-05
-3.0642518e-05
-3.06261379e-05
-3.15435735e-05
-3.1540958e-05
-3.0768771e-05
-3.06646187e-05
-3.15415301e-05
-3.15341304e-05
-3.0915405e-05
-3.06984639e-05
-3.05831298e-05
-3.05834187e-05
-3.15213689e-05
-3.15276272e-05
-3.05525502e-05
-3.05202695e-05
-3.15164392e-05
-3.1519267e-05
-3.04741934e-05
-3.04897332e-05
-3.1516976e-05
-3.15172173e-05
-3.15173418e-05
-3.07419075e-05
-3.0376883e-05
-3.15188288e-05
-3.15116736e-05
-3.05606446e-05
-3.04469253e-05
-3.15202031e-05
-3.15169219e-05
-3.04892914e-05
-3.04589418e-05
-3.15265297e-05
-3.15219794e-05
-3.15306077e-05
-3.15252263e-05
-3.0915885e-05
-3.06885353e-05
-3.06546092e-05
-3.06689597e-05
-3.15236469e-05
-3.09492219e-05
-3.05207326e-05
-3.1483641e-05
-3.15009911e-05
-3.1182494e-05
-3.06119558e-05
-3.04866994e-05
-3.03297193e-05
-3.03354526e-05
-3.15035534e-05
-3.15040138e-05
-3.15111254e-05
-3.06332905e-05
-3.04902611e-05
-3.15141998e-05
-3.1515852e-05
-3.15194626e-05
-3.08232617e-05
-3.04263176e-05
-3.15188677e-05
-3.15154566e-05
-3.0609483e-05
-3.06211216e-05
-3.15165245e-05
-3.15206536e-05
-3.15139784e-05
-3.0919341e-05
-3.0556302e-05
-3.0596171e-05
-3.04711263e-05
-3.15141112e-05
-3.15049993e-05
-3.07565154e-05
-3.01941723e-05
-3.03209988e-05
-3.14974139e-05
-3.15069511e-05
-3.15065907e-05
-3.05966984e-05
)
;

boundaryField
{
    closed
    {
        type            calculated;
        value           nonuniform List<scalar> 0();
    }
    open
    {
        type            calculated;
        value           nonuniform List<scalar> 0();
    }
    sides
    {
        type            empty;
    }
    procBoundary1to0
    {
        type            processor;
        value           uniform -3.07598913e-05;
    }
    procBoundary1to2
    {
        type            processor;
        value           uniform -3.05329757e-05;
    }
}


// ************************************************************************* //
