/*--------------------------------*- C++ -*----------------------------------*\
| =========                 |                                                 |
| \\      /  F ield         | OpenFOAM: The Open Source CFD Toolbox           |
|  \\    /   O peration     | Version:  2306                                  |
|   \\  /    A nd           | Website:  www.openfoam.com                      |
|    \\/     M anipulation  |                                                 |
\*---------------------------------------------------------------------------*/
FoamFile
{
    version     2.0;
    format      ascii;
    arch        "LSB;label=32;scalar=64";
    class       volScalarField;
    location    "0.00148";
    object      T;
}
// * * * * * * * * * * * * * * * * * * * * * * * * * * * * * * * * * * * * * //

dimensions      [0 0 0 1 0 0 0];

internalField   nonuniform List<scalar> 
531
(
340.193172
339.789554
326.030661
328.051761
340.146039
339.787534
325.254786
324.102654
329.018076
339.850708
340.1226
324.336888
322.550055
329.082359
340.000051
340.252109
324.367405
329.165316
339.981817
339.972708
339.999786
326.317816
323.64294
325.34872
324.681023
323.454121
329.022693
340.184954
340.187957
340.012457
328.897028
329.055189
340.033102
339.872973
327.415978
325.782025
326.133554
328.219652
340.069513
339.687355
323.769587
325.195429
339.976998
339.438625
322.783388
324.366973
339.948365
339.380731
320.876879
324.380005
339.99799
339.37182
339.90147
339.289938
320.881793
322.640061
339.781134
339.498936
321.349452
327.804766
339.814448
326.230801
326.836523
339.808868
339.745568
339.775237
325.939976
323.814286
325.573386
326.511961
339.836657
339.668709
322.031522
319.434469
325.730917
339.617904
339.695848
321.810348
323.803655
339.643719
339.635389
321.250878
325.621951
339.722121
339.852264
339.581255
323.212744
324.12903
340.028671
339.649822
339.965391
339.616525
324.085949
322.65611
324.437661
325.79776
340.146461
339.721786
323.540092
321.808518
327.045109
339.80959
340.056556
325.91189
327.050818
339.910005
339.874493
327.010689
328.131876
339.947621
339.693085
324.763609
324.759594
323.615109
325.811841
340.066136
339.857043
321.516075
323.128914
340.014002
339.903114
323.424088
327.3985
340.140626
339.959134
340.041126
326.129031
326.065281
340.117921
339.943263
327.087952
324.180736
327.885509
339.980299
340.151912
324.834971
321.153807
325.903206
340.028796
339.999092
322.240321
323.312746
340.025002
339.877068
322.310239
323.439279
340.079554
339.830848
321.76469
325.720812
340.264334
339.901637
340.154291
324.947484
326.526462
340.111763
340.061922
340.030973
329.181162
325.010945
328.57642
325.580816
328.263956
325.016323
329.013022
340.154401
329.098581
325.86252
340.251734
340.134234
325.819787
325.892828
340.275668
340.0505
323.741523
327.653092
340.365542
340.008322
340.257285
326.986698
321.764361
325.947602
340.082753
340.095464
325.342969
321.413142
326.815793
340.040821
340.203097
339.908799
328.983211
323.391957
327.397577
322.580284
327.245338
340.121703
340.060168
340.130336
325.892805
324.344063
340.039561
339.963288
325.001057
325.147675
340.088967
339.823584
323.038167
326.274247
340.215789
339.703827
340.109753
324.289051
322.051048
322.502527
324.712185
340.009302
323.727818
323.679828
340.040322
339.832587
340.005527
323.746508
324.997025
340.050719
339.808901
340.029119
325.691294
321.042032
324.562038
339.89253
339.963301
325.179858
321.804808
325.188385
340.017033
340.043435
325.574611
325.188411
340.132454
339.938749
329.126743
324.595087
326.62915
339.995624
340.151228
326.523437
321.842467
325.438316
340.064969
340.27654
323.261533
327.082439
340.266175
328.042916
323.124104
340.235279
340.031076
325.451535
324.584502
340.337099
339.851012
325.739886
324.586028
340.330997
339.751784
327.890108
321.265382
325.127976
339.776276
340.312527
339.774898
340.212136
322.098348
325.242061
340.031785
326.030375
321.237302
339.891781
339.763089
323.585388
322.800092
340.013881
339.586941
320.330574
322.721368
340.135766
339.510802
340.06657
325.117
321.597896
321.620784
323.261586
339.884581
339.760916
339.8942
326.738398
319.036666
324.249903
339.787148
340.174439
339.780196
340.238006
323.72494
326.371284
340.174684
326.838274
321.342001
340.328351
339.955411
324.770431
324.117295
340.606285
339.744671
329.359417
325.121817
324.94025
324.55446
340.524931
339.896643
328.881763
323.106083
327.604096
340.192081
327.250545
325.43499
340.300984
340.053467
340.209927
329.135873
324.393046
326.546224
324.394065
340.13055
340.122285
328.221988
324.72924
325.457989
340.09682
339.782598
329.114097
321.198352
325.812733
339.92117
340.118692
339.954143
325.116625
320.507563
340.242283
339.75866
328.905474
323.63732
325.423274
340.072563
340.263243
329.319399
325.135768
325.534542
340.354933
340.266307
328.915487
324.730131
324.946888
340.169948
340.266517
328.276594
323.846421
324.035517
340.068804
340.154054
327.803809
322.497763
323.451484
339.978383
340.058643
326.129216
322.369151
340.004542
339.921803
325.951655
319.149471
322.35884
339.888409
340.034122
339.916552
340.014095
339.96265
328.518302
324.574006
324.130935
323.389291
340.101868
339.924785
324.273863
323.201114
340.185004
339.961851
326.154081
323.966979
340.234503
340.024683
328.66892
323.750044
324.340527
340.090084
340.168199
327.500331
324.609596
340.345044
339.979321
328.837799
323.244262
326.54199
340.039174
329.161768
323.529311
340.409481
340.073284
328.897076
325.106814
325.122599
340.112135
340.132338
329.079375
324.136412
324.154755
339.96637
340.022851
327.275898
319.270212
321.538034
339.858271
339.879932
339.895251
323.551588
322.452839
339.974463
339.860396
339.943564
328.945152
318.129566
323.163762
339.906329
340.040755
339.973201
328.510883
324.25788
340.215083
339.906247
329.01251
325.826652
324.769003
324.507831
340.14007
340.070564
326.811908
325.13355
340.08461
339.961767
329.221798
325.686253
323.819406
323.822129
339.821986
339.876688
323.327427
322.804154
339.754022
339.753618
322.060731
322.313612
339.775284
339.710463
339.763883
326.388085
320.492435
339.773771
339.650823
323.456608
321.623182
339.811505
339.725383
322.29996
321.813586
339.907601
339.796476
339.917525
339.835909
329.270931
325.531821
324.976975
325.215529
339.845581
329.752257
322.821643
339.248069
339.464935
334.321652
324.293922
322.285678
319.730443
319.828483
339.57128
339.525685
339.659926
324.636433
322.325556
339.738349
339.684297
339.7966
327.703544
321.29111
339.771601
339.695698
324.247411
324.440023
339.758506
339.736386
339.691559
329.353922
323.398693
324.034364
322.018895
339.703854
339.561294
326.626209
317.544647
319.585005
339.476607
339.573665
339.582856
324.04746
)
;

boundaryField
{
    closed
    {
        type            fixedValue;
        value           nonuniform List<scalar> 0();
    }
    open
    {
        type            zeroGradient;
    }
    sides
    {
        type            empty;
    }
    procBoundary1to0
    {
        type            processor;
        value           uniform 326.686542;
    }
    procBoundary1to2
    {
        type            processor;
        value           uniform 323.019659;
    }
}


// ************************************************************************* //
