/*--------------------------------*- C++ -*----------------------------------*\
| =========                 |                                                 |
| \\      /  F ield         | OpenFOAM: The Open Source CFD Toolbox           |
|  \\    /   O peration     | Version:  2306                                  |
|   \\  /    A nd           | Website:  www.openfoam.com                      |
|    \\/     M anipulation  |                                                 |
\*---------------------------------------------------------------------------*/
FoamFile
{
    version     2.0;
    format      ascii;
    arch        "LSB;label=32;scalar=64";
    class       volScalarField;
    location    "0.00176";
    object      mu;
}
// * * * * * * * * * * * * * * * * * * * * * * * * * * * * * * * * * * * * * //

dimensions      [1 -1 -1 0 0 0 0];

internalField   nonuniform List<scalar> 
531
(
1.97619855e-05
1.9459672e-05
1.95031945e-05
1.9237011e-05
1.92453848e-05
2.02334331e-05
2.02889372e-05
2.02663207e-05
2.0293432e-05
2.02922696e-05
1.96734323e-05
1.9470055e-05
2.02426067e-05
2.02807058e-05
1.97155402e-05
1.91969411e-05
1.92687118e-05
2.02349738e-05
2.0286473e-05
2.02619373e-05
2.02920422e-05
2.02903169e-05
1.97650634e-05
1.95392982e-05
1.94668036e-05
1.94679212e-05
2.02328924e-05
2.02872261e-05
1.96153829e-05
1.94765531e-05
2.02288196e-05
2.02903535e-05
1.95602241e-05
1.95002052e-05
2.02301839e-05
2.02849384e-05
2.02807639e-05
1.96731737e-05
1.95029618e-05
2.02362443e-05
2.02806109e-05
2.02632821e-05
2.02852686e-05
1.97721177e-05
1.95203795e-05
1.95095025e-05
1.94184504e-05
1.91745774e-05
1.9201004e-05
2.02522666e-05
2.02921283e-05
2.02765133e-05
2.02995017e-05
2.03007343e-05
1.97563625e-05
1.94658021e-05
1.95068064e-05
2.02598037e-05
2.03030401e-05
1.97809156e-05
1.96742879e-05
2.02533392e-05
2.02944842e-05
1.9774087e-05
1.96428579e-05
1.95523315e-05
1.95676478e-05
2.02741238e-05
2.02911153e-05
2.02950673e-05
1.97610103e-05
1.94261964e-05
1.95169418e-05
1.92608846e-05
1.93018663e-05
2.02603644e-05
2.02942684e-05
2.02793596e-05
2.02993623e-05
1.96354443e-05
1.95917991e-05
2.0254509e-05
2.02872476e-05
2.02911185e-05
1.97632295e-05
1.94047046e-05
1.94875169e-05
2.02662933e-05
2.02916174e-05
1.97354333e-05
1.93994642e-05
1.94737175e-05
2.02608454e-05
2.02825566e-05
1.95872089e-05
1.95140655e-05
2.02472113e-05
2.02744306e-05
2.02842197e-05
2.02868398e-05
1.95940791e-05
1.92232736e-05
1.95491689e-05
2.02512797e-05
1.97621371e-05
1.94196856e-05
2.02424582e-05
2.02744969e-05
1.96921498e-05
1.93081111e-05
1.94119682e-05
2.02498398e-05
2.0281635e-05
2.02778408e-05
2.02822066e-05
1.95132903e-05
1.93780586e-05
2.02328459e-05
2.02753064e-05
1.9632722e-05
1.93215175e-05
1.94213324e-05
2.02473599e-05
2.02935957e-05
1.95197029e-05
1.94930747e-05
2.02540441e-05
2.02916058e-05
2.02827668e-05
2.02922789e-05
2.02907453e-05
1.97128875e-05
1.94919625e-05
1.95010031e-05
1.95052128e-05
2.02606976e-05
2.02836654e-05
1.96849033e-05
1.9320488e-05
1.96381186e-05
2.02585498e-05
1.97530138e-05
1.94057673e-05
2.02610189e-05
2.02773418e-05
1.96334564e-05
1.92334482e-05
1.93963034e-05
2.02473556e-05
2.02679848e-05
2.0260992e-05
2.02516735e-05
2.02598307e-05
2.01075619e-05
1.93344571e-05
1.93718028e-05
2.02660047e-05
2.02663285e-05
2.02707961e-05
1.96146323e-05
1.93700635e-05
1.94015142e-05
1.94513538e-05
2.02886262e-05
2.02655745e-05
1.95041179e-05
1.95196567e-05
2.02874103e-05
2.02696681e-05
1.95691448e-05
1.93217517e-05
1.95081823e-05
2.03004672e-05
2.02991357e-05
2.02853972e-05
2.02978425e-05
2.02692969e-05
1.97640779e-05
1.95749582e-05
1.95427678e-05
1.96129201e-05
2.03014977e-05
2.02732388e-05
1.94708288e-05
1.9257033e-05
1.94551004e-05
2.02968536e-05
2.02923683e-05
2.02917775e-05
2.02665542e-05
1.96509506e-05
1.96557821e-05
2.02961151e-05
2.02727421e-05
1.96229876e-05
1.9526731e-05
1.94617377e-05
1.96061647e-05
2.03079536e-05
2.02887223e-05
2.03025272e-05
2.02773606e-05
1.97702449e-05
1.9583913e-05
1.95849211e-05
1.96691006e-05
2.02980095e-05
2.0283183e-05
1.9609178e-05
1.95167639e-05
1.94600834e-05
1.95632459e-05
2.02969318e-05
2.02701025e-05
1.94951484e-05
1.95555701e-05
2.03007942e-05
2.0275201e-05
1.9496135e-05
1.96269582e-05
2.02971133e-05
2.02923196e-05
2.02903517e-05
1.96247559e-05
1.96026792e-05
2.03088602e-05
2.02823511e-05
1.96481695e-05
1.94541918e-05
1.95906963e-05
2.02926723e-05
2.02929486e-05
1.96660182e-05
1.96932163e-05
2.03079898e-05
2.02874762e-05
1.97444638e-05
1.96244243e-05
1.9539488e-05
1.9682021e-05
2.03047469e-05
1.96643347e-05
1.95087204e-05
2.02992246e-05
2.0283127e-05
1.95267591e-05
1.95516086e-05
2.0301799e-05
2.02834161e-05
1.94574024e-05
1.95837104e-05
2.02983914e-05
2.02844665e-05
2.02923427e-05
1.96025135e-05
1.95131957e-05
2.03005882e-05
2.02826482e-05
1.95009473e-05
1.96192759e-05
2.02940166e-05
2.02823985e-05
2.02823321e-05
1.96820605e-05
1.93876009e-05
1.93426486e-05
1.94590906e-05
2.02919197e-05
2.02819257e-05
2.02865319e-05
1.95104714e-05
1.94688877e-05
2.03095854e-05
2.02779756e-05
2.03021529e-05
2.02780659e-05
1.9762538e-05
1.95364958e-05
1.96101742e-05
1.94644981e-05
1.95210589e-05
1.93436157e-05
1.95540955e-05
2.03026134e-05
2.03042161e-05
2.02921441e-05
2.02997479e-05
2.0289712e-05
1.96795886e-05
1.96336022e-05
2.03222124e-05
2.02896099e-05
1.97162675e-05
1.94196885e-05
1.95621716e-05
2.0291898e-05
2.02956858e-05
2.02800909e-05
1.97683943e-05
1.95458264e-05
1.95333704e-05
1.94327532e-05
1.91931087e-05
1.92772845e-05
2.0292076e-05
2.02886279e-05
2.0277499e-05
2.02897033e-05
2.02699096e-05
1.96604784e-05
1.93565995e-05
1.94401697e-05
2.02879469e-05
2.02955018e-05
1.95445053e-05
1.95655938e-05
2.03026387e-05
2.02947076e-05
2.02917133e-05
1.96924334e-05
1.95128739e-05
2.03230734e-05
2.02916636e-05
1.97476544e-05
1.93933268e-05
1.95151957e-05
2.03088133e-05
2.03165963e-05
2.03040914e-05
1.97380016e-05
1.94599794e-05
1.94905209e-05
2.03318058e-05
2.0330846e-05
1.97267597e-05
1.94143541e-05
1.9442873e-05
2.03499657e-05
2.03544926e-05
1.96268066e-05
1.9471909e-05
2.03852871e-05
2.03758067e-05
1.96751463e-05
1.93540861e-05
1.93764964e-05
2.04163067e-05
2.04271516e-05
1.95225375e-05
1.93285127e-05
2.04767566e-05
2.04791222e-05
1.95013438e-05
1.91071904e-05
1.91869157e-05
2.04196107e-05
2.04391287e-05
2.04249097e-05
2.04247946e-05
2.04248657e-05
2.04073404e-05
1.92754584e-05
1.91405352e-05
2.03006739e-05
2.03358503e-05
2.02902372e-05
2.03058316e-05
2.02756473e-05
2.02831253e-05
2.02632467e-05
2.0271182e-05
2.02600317e-05
2.02709021e-05
2.02691671e-05
2.02853031e-05
2.0293551e-05
2.03210247e-05
2.03446185e-05
2.04002307e-05
2.0461158e-05
2.06185085e-05
2.06973972e-05
2.05702876e-05
2.04904044e-05
2.03778041e-05
2.03078771e-05
2.02184156e-05
2.01608995e-05
2.00988184e-05
2.00580544e-05
1.99935197e-05
1.99260146e-05
1.98961972e-05
1.99083061e-05
1.98455853e-05
1.97795864e-05
1.97437802e-05
1.96935008e-05
1.96826001e-05
1.96497091e-05
1.96006689e-05
1.94516595e-05
1.93606812e-05
1.92140345e-05
1.91176519e-05
1.92940983e-05
2.04826762e-05
2.02575235e-05
2.00942363e-05
1.9836116e-05
1.96680046e-05
1.94053303e-05
1.92296107e-05
1.89631404e-05
1.87739283e-05
1.85000679e-05
1.83996734e-05
1.86402194e-05
1.87551321e-05
1.85257858e-05
1.84416272e-05
1.88340642e-05
2.06414545e-05
2.05641711e-05
2.10154402e-05
2.15110533e-05
2.48935609e-05
2.53936024e-05
2.60782706e-05
2.66048365e-05
2.74490109e-05
2.84448078e-05
2.96486814e-05
3.13137604e-05
3.29445475e-05
3.56228484e-05
3.68644868e-05
3.8050509e-05
3.95114994e-05
4.07561132e-05
4.18471538e-05
4.27186155e-05
4.35539558e-05
4.43619869e-05
4.51179727e-05
4.59324703e-05
4.67054714e-05
4.74137406e-05
4.79965479e-05
4.8512149e-05
4.89533247e-05
4.94197222e-05
4.98211638e-05
5.0246033e-05
5.06149049e-05
5.10056869e-05
5.13350208e-05
5.16819333e-05
5.19793005e-05
5.22867755e-05
5.25572461e-05
5.28318561e-05
5.30822481e-05
5.33462665e-05
5.35792584e-05
5.38376447e-05
5.40666563e-05
5.43432429e-05
5.4594145e-05
5.47925395e-05
5.49280107e-05
5.50902697e-05
5.52073082e-05
5.53524542e-05
5.54600277e-05
5.55986006e-05
5.56966848e-05
5.5831208e-05
5.59450303e-05
5.61017482e-05
5.62162987e-05
5.63737699e-05
5.64706484e-05
5.65992965e-05
5.66877563e-05
5.68024903e-05
5.68817864e-05
5.69874799e-05
5.70618211e-05
5.71612975e-05
5.72327887e-05
5.73274856e-05
5.73958784e-05
5.7479272e-05
5.75405818e-05
5.76197518e-05
5.76902996e-05
5.77752934e-05
5.78464239e-05
5.79288576e-05
5.7994086e-05
5.80689549e-05
5.81293518e-05
5.8198058e-05
5.8252083e-05
5.83104397e-05
5.8359716e-05
5.8415078e-05
5.84625832e-05
5.85152524e-05
5.85611571e-05
5.86118398e-05
5.86571763e-05
5.8706509e-05
5.87510327e-05
5.87989007e-05
5.88426869e-05
5.88892312e-05
5.89323602e-05
5.89777191e-05
5.90212501e-05
5.90622787e-05
5.91018606e-05
5.91409386e-05
5.91790479e-05
5.92164166e-05
5.92531562e-05
5.92889456e-05
5.93244102e-05
5.93587442e-05
5.93930228e-05
)
;

boundaryField
{
    closed
    {
        type            calculated;
        value           nonuniform List<scalar> 0();
    }
    open
    {
        type            calculated;
        value           nonuniform List<scalar> 0();
    }
    sides
    {
        type            empty;
    }
    procBoundary4to3
    {
        type            processor;
        value           uniform 2.02937826e-05;
    }
    procBoundary4to5
    {
        type            processor;
        value           uniform 5.94260191e-05;
    }
}


// ************************************************************************* //
