/*--------------------------------*- C++ -*----------------------------------*\
| =========                 |                                                 |
| \\      /  F ield         | OpenFOAM: The Open Source CFD Toolbox           |
|  \\    /   O peration     | Version:  2306                                  |
|   \\  /    A nd           | Website:  www.openfoam.com                      |
|    \\/     M anipulation  |                                                 |
\*---------------------------------------------------------------------------*/
FoamFile
{
    version     2.0;
    format      ascii;
    arch        "LSB;label=32;scalar=64";
    class       volScalarField;
    location    "0.00058";
    object      alpha;
}
// * * * * * * * * * * * * * * * * * * * * * * * * * * * * * * * * * * * * * //

dimensions      [1 -1 -1 0 0 0 0];

internalField   nonuniform List<scalar> 
531
(
3.51662063e-05
3.56606601e-05
3.67229115e-05
3.62349919e-05
3.54763975e-05
3.56677562e-05
3.6730398e-05
3.62430993e-05
3.54972001e-05
3.56890461e-05
3.67262182e-05
3.67884766e-05
3.5667524e-05
3.51021559e-05
3.56534666e-05
3.66764795e-05
3.6814718e-05
3.68032368e-05
3.65670696e-05
3.57141263e-05
3.5115285e-05
3.50779004e-05
3.61755824e-05
3.61910404e-05
3.54763997e-05
3.56860989e-05
3.67208618e-05
3.68204135e-05
3.57047503e-05
3.52077413e-05
3.56717441e-05
3.67107154e-05
3.68284166e-05
3.61675514e-05
3.53377686e-05
3.50020719e-05
3.57393361e-05
3.674942e-05
3.65209925e-05
3.55476907e-05
3.52343835e-05
3.58671385e-05
3.6758979e-05
3.65424072e-05
3.5555382e-05
3.52088488e-05
3.58814312e-05
3.67621981e-05
3.68220374e-05
3.67997331e-05
3.60127209e-05
3.54408254e-05
3.53726825e-05
3.50821232e-05
3.50745045e-05
3.61783698e-05
3.67748851e-05
3.67570301e-05
3.62117004e-05
3.53872855e-05
3.51601424e-05
3.60084256e-05
3.68122574e-05
3.57750103e-05
3.54173925e-05
3.61742977e-05
3.68255901e-05
3.62459117e-05
3.57034988e-05
3.5288306e-05
3.52881535e-05
3.66016815e-05
3.68032525e-05
3.60613999e-05
3.53540918e-05
3.52902629e-05
3.65048846e-05
3.68255281e-05
3.58192641e-05
3.54748831e-05
3.57244163e-05
3.63208665e-05
3.62034779e-05
3.57456548e-05
3.57412802e-05
3.58776774e-05
3.59175385e-05
3.58434958e-05
3.58103547e-05
3.58275967e-05
3.58442179e-05
3.58403839e-05
3.58331114e-05
3.58330653e-05
3.58347079e-05
3.58346785e-05
3.58341927e-05
3.58340716e-05
3.58340688e-05
3.58340255e-05
3.58339623e-05
3.58339535e-05
3.58339454e-05
3.58339312e-05
3.58339078e-05
3.58339037e-05
3.58339033e-05
3.58339007e-05
3.58338959e-05
3.58338914e-05
3.58338884e-05
3.58338882e-05
3.58338962e-05
3.58338966e-05
3.58338777e-05
3.5833869e-05
3.58338988e-05
3.58339246e-05
3.58338854e-05
3.58338228e-05
3.58338609e-05
3.58339863e-05
3.58339698e-05
3.58337552e-05
3.58337386e-05
3.58340102e-05
3.58341004e-05
3.5833832e-05
3.58336226e-05
3.58338248e-05
3.58341728e-05
3.58340833e-05
3.58336267e-05
3.58336064e-05
3.58340463e-05
3.58341698e-05
3.58338794e-05
3.5833648e-05
3.58337839e-05
3.58340549e-05
3.5834035e-05
3.58337963e-05
3.58337672e-05
3.58338973e-05
3.58339654e-05
3.58339142e-05
3.58338457e-05
3.58338555e-05
3.58339033e-05
3.58339069e-05
3.58338858e-05
3.5833878e-05
3.58338841e-05
3.58338892e-05
3.58338883e-05
3.58338884e-05
3.58338888e-05
3.58338846e-05
3.5833882e-05
3.5833888e-05
3.58338949e-05
3.58338897e-05
3.58338771e-05
3.5833879e-05
3.58338973e-05
3.58338989e-05
3.58338806e-05
3.58338732e-05
3.58338865e-05
3.58339005e-05
3.58338939e-05
3.58338761e-05
3.58338765e-05
3.58338935e-05
3.5833896e-05
3.58338865e-05
3.58338805e-05
3.58338845e-05
3.58338907e-05
3.58338901e-05
3.58338854e-05
3.5833885e-05
3.5833887e-05
3.58338881e-05
3.58338875e-05
3.58338866e-05
3.58338866e-05
3.58338871e-05
3.58338872e-05
3.5833887e-05
3.58338869e-05
3.5833887e-05
3.5833887e-05
3.5833887e-05
3.5833887e-05
3.5833887e-05
3.5833887e-05
3.5833887e-05
3.5833887e-05
3.5833887e-05
3.5833887e-05
3.5833887e-05
3.5833887e-05
3.5833887e-05
3.5833887e-05
3.5833887e-05
3.5833887e-05
3.5833887e-05
3.5833887e-05
3.5833887e-05
3.5833887e-05
3.5833887e-05
3.5833887e-05
3.5833887e-05
3.5833887e-05
3.5833887e-05
3.5833887e-05
3.5833887e-05
3.5833887e-05
3.5833887e-05
3.5833887e-05
3.5833887e-05
3.5833887e-05
3.5833887e-05
3.5833887e-05
3.5833887e-05
3.5833887e-05
3.5833887e-05
3.5833887e-05
3.5833887e-05
3.5833887e-05
3.5833887e-05
3.5833887e-05
3.5833887e-05
3.5833887e-05
3.5833887e-05
3.5833887e-05
3.5833887e-05
3.5833887e-05
3.5833887e-05
3.5833887e-05
3.5833887e-05
3.5833887e-05
3.5833887e-05
3.5833887e-05
3.5833887e-05
3.5833887e-05
3.5833887e-05
3.5833887e-05
3.5833887e-05
3.5833887e-05
3.5833887e-05
3.58338869e-05
3.58338869e-05
3.58338872e-05
3.58338872e-05
3.58338867e-05
3.58338866e-05
3.58338873e-05
3.58338878e-05
3.58338869e-05
3.58338856e-05
3.58338865e-05
3.58338889e-05
3.58338886e-05
3.58338848e-05
3.58338844e-05
3.58338885e-05
3.58338903e-05
3.58338871e-05
3.58338834e-05
3.58338851e-05
3.58338901e-05
3.58338901e-05
3.58338851e-05
3.58338841e-05
3.5833887e-05
3.58338893e-05
3.5833888e-05
3.58338856e-05
3.58338858e-05
3.58338875e-05
3.58338878e-05
3.58338871e-05
3.58338865e-05
3.58338867e-05
3.58338873e-05
3.58338874e-05
3.58338868e-05
3.58338866e-05
3.58338871e-05
3.58338876e-05
3.58338872e-05
3.58338861e-05
3.58338862e-05
3.58338881e-05
3.58338883e-05
3.58338862e-05
3.58338853e-05
3.58338871e-05
3.58338889e-05
3.58338878e-05
3.58338854e-05
3.58338856e-05
3.5833888e-05
3.58338883e-05
3.58338869e-05
3.5833886e-05
3.58338866e-05
3.58338876e-05
3.58338874e-05
3.58338868e-05
3.58338867e-05
3.5833887e-05
3.58338872e-05
3.58338871e-05
3.58338869e-05
3.58338869e-05
3.5833887e-05
3.5833887e-05
3.5833887e-05
3.5833887e-05
3.5833887e-05
3.5833887e-05
3.5833887e-05
3.5833887e-05
3.5833887e-05
3.5833887e-05
3.5833887e-05
3.5833887e-05
3.5833887e-05
3.5833887e-05
3.5833887e-05
3.5833887e-05
3.5833887e-05
3.5833887e-05
3.5833887e-05
3.5833887e-05
3.5833887e-05
3.5833887e-05
3.5833887e-05
3.5833887e-05
3.5833887e-05
3.5833887e-05
3.5833887e-05
3.58338871e-05
3.5833887e-05
3.58338869e-05
3.5833887e-05
3.58338872e-05
3.58338872e-05
3.58338866e-05
3.58338866e-05
3.58338876e-05
3.58338878e-05
3.58338865e-05
3.58338856e-05
3.5833887e-05
3.5833889e-05
3.5833888e-05
3.58338846e-05
3.58338848e-05
3.58338891e-05
3.58338898e-05
3.58338862e-05
3.5833884e-05
3.58338862e-05
3.58338896e-05
3.58338889e-05
3.58338853e-05
3.58338851e-05
3.58338873e-05
3.58338885e-05
3.58338876e-05
3.58338859e-05
3.58338859e-05
3.58338881e-05
3.58338886e-05
3.58338856e-05
3.58338832e-05
3.5833889e-05
3.58338966e-05
3.58338861e-05
3.58338633e-05
3.5833879e-05
3.58339413e-05
3.58339272e-05
3.58337728e-05
3.58337685e-05
3.58340929e-05
3.58341502e-05
3.58335983e-05
3.58333446e-05
3.58341909e-05
3.58349159e-05
3.58337965e-05
3.58321121e-05
3.58332847e-05
3.58367072e-05
3.58359912e-05
3.5829975e-05
3.58297156e-05
3.58382732e-05
3.5840498e-05
3.58309587e-05
3.58249818e-05
3.58336138e-05
3.58454608e-05
3.58391781e-05
3.58218658e-05
3.58231571e-05
3.58456623e-05
3.58482199e-05
3.58280635e-05
3.58193862e-05
3.58329697e-05
3.58483201e-05
3.58408779e-05
3.5823155e-05
3.58239607e-05
3.58405248e-05
3.58428025e-05
3.58335898e-05
3.58294898e-05
3.58310389e-05
3.58303345e-05
3.58344966e-05
3.58514684e-05
3.58504474e-05
3.58007827e-05
3.57958279e-05
3.59012077e-05
3.59460737e-05
3.57762003e-05
3.57389439e-05
3.59009602e-05
3.62572183e-05
3.58740954e-05
3.54869496e-05
3.57518208e-05
3.67991818e-05
3.67524668e-05
3.52735768e-05
3.53153229e-05
3.67742906e-05
3.68278477e-05
3.54111637e-05
3.52263836e-05
3.67619661e-05
3.68302383e-05
3.54675627e-05
3.54101254e-05
3.68056592e-05
3.68109727e-05
3.57605374e-05
3.50871973e-05
3.53886725e-05
3.67967103e-05
3.68457693e-05
3.54323018e-05
3.53851093e-05
3.67906236e-05
3.68297202e-05
3.53663043e-05
3.53467961e-05
3.67908258e-05
3.68403043e-05
3.53756713e-05
3.53225386e-05
3.67786351e-05
3.68248945e-05
3.62582586e-05
3.54789919e-05
3.49997842e-05
3.57126344e-05
3.67362627e-05
3.68538767e-05
3.66258164e-05
3.57104866e-05
3.53897493e-05
3.52326584e-05
3.5150303e-05
3.58758121e-05
3.67998199e-05
3.68026884e-05
3.55440277e-05
3.52767552e-05
3.6064302e-05
3.67786817e-05
3.66321303e-05
3.5340594e-05
3.53017452e-05
3.68273454e-05
3.68010853e-05
3.59231276e-05
3.51780605e-05
3.51807765e-05
3.63929045e-05
3.68024786e-05
3.60336456e-05
3.51804356e-05
3.52026692e-05
3.65064277e-05
3.68028657e-05
3.60801009e-05
3.52890807e-05
3.53034386e-05
3.64290134e-05
3.68226911e-05
3.66301694e-05
3.54887945e-05
3.49707682e-05
3.5735643e-05
3.67494725e-05
3.68666518e-05
3.63425353e-05
3.5703943e-05
3.49396517e-05
3.50583004e-05
3.67948995e-05
3.66729513e-05
3.53102354e-05
3.56791773e-05
3.68186537e-05
3.68516571e-05
3.58051922e-05
3.52046426e-05
3.56885567e-05
3.67839542e-05
3.63249515e-05
3.54480091e-05
)
;

boundaryField
{
    closed
    {
        type            calculated;
        value           nonuniform List<scalar> 0();
    }
    open
    {
        type            calculated;
        value           nonuniform List<scalar> 0();
    }
    sides
    {
        type            empty;
    }
    procBoundary3to2
    {
        type            processor;
        value           uniform 3.56787386e-05;
    }
    procBoundary3to4
    {
        type            processor;
        value           uniform 3.57065423e-05;
    }
}


// ************************************************************************* //
