/*--------------------------------*- C++ -*----------------------------------*\
| =========                 |                                                 |
| \\      /  F ield         | OpenFOAM: The Open Source CFD Toolbox           |
|  \\    /   O peration     | Version:  2306                                  |
|   \\  /    A nd           | Website:  www.openfoam.com                      |
|    \\/     M anipulation  |                                                 |
\*---------------------------------------------------------------------------*/
FoamFile
{
    version     2.0;
    format      ascii;
    arch        "LSB;label=32;scalar=64";
    class       volScalarField;
    location    "0.00058";
    object      prefDPV_T;
}
// * * * * * * * * * * * * * * * * * * * * * * * * * * * * * * * * * * * * * //

dimensions      [1 -1 -1 -1 0 0 0];

internalField   nonuniform List<scalar> 
531
(
5.89646633e-10
5.92133159e-10
6.11827709e-10
6.05115323e-10
5.90415561e-10
5.9256188e-10
6.11673286e-10
6.05247008e-10
5.90511893e-10
5.92280125e-10
6.11669336e-10
6.10537327e-10
5.92534261e-10
5.89442423e-10
5.91624247e-10
6.11773359e-10
6.09224382e-10
6.09162001e-10
6.10329975e-10
5.93013297e-10
5.89484248e-10
5.89206645e-10
6.04165085e-10
6.04390932e-10
5.90495974e-10
5.93152049e-10
6.11301389e-10
6.09902194e-10
5.93734813e-10
5.8975271e-10
5.93330442e-10
6.11389189e-10
6.08801148e-10
6.03938644e-10
5.89793863e-10
5.88912878e-10
5.95684576e-10
6.1071828e-10
6.09636118e-10
5.9060111e-10
5.89854591e-10
5.98633317e-10
6.10162605e-10
6.09981278e-10
5.9061448e-10
5.89814197e-10
5.98967135e-10
6.10530931e-10
6.09298137e-10
6.09373628e-10
6.01086423e-10
5.90365986e-10
5.90073347e-10
5.89291205e-10
5.89170338e-10
6.04212964e-10
6.09406456e-10
6.09318009e-10
6.04716279e-10
5.90198752e-10
5.89353602e-10
6.01348037e-10
6.09616184e-10
5.94932876e-10
5.90137615e-10
6.04159338e-10
6.08917863e-10
6.05297718e-10
5.92024666e-10
5.90150749e-10
5.89831685e-10
6.10655414e-10
6.08903781e-10
6.01941181e-10
5.90133833e-10
5.89825958e-10
6.09199493e-10
6.09046538e-10
5.96530315e-10
5.90508634e-10
5.92551234e-10
6.06486434e-10
6.04597552e-10
5.93758191e-10
5.93825506e-10
5.9839072e-10
5.99336189e-10
5.97657552e-10
5.96835913e-10
5.97318032e-10
5.977569e-10
5.97672717e-10
5.97505546e-10
5.97509235e-10
5.97556902e-10
5.97558854e-10
5.97550002e-10
5.97548662e-10
5.97550271e-10
5.97550101e-10
5.97549472e-10
5.97549723e-10
5.97550054e-10
5.97549939e-10
5.97549657e-10
5.97549698e-10
5.97549826e-10
5.97549851e-10
5.97549802e-10
5.97549743e-10
5.97549706e-10
5.97549725e-10
5.97549948e-10
5.97549971e-10
5.97549515e-10
5.97549309e-10
5.9755005e-10
5.97550692e-10
5.97549726e-10
5.97548183e-10
5.97549124e-10
5.97552223e-10
5.97551817e-10
5.97546517e-10
5.97546107e-10
5.97552815e-10
5.97555044e-10
5.97548416e-10
5.97543241e-10
5.97548238e-10
5.97556831e-10
5.9755462e-10
5.97543343e-10
5.97542842e-10
5.97553708e-10
5.97556756e-10
5.97549586e-10
5.9754387e-10
5.97547228e-10
5.9755392e-10
5.9755343e-10
5.97547533e-10
5.97546814e-10
5.97550028e-10
5.97551712e-10
5.97550447e-10
5.97548753e-10
5.97548996e-10
5.97550177e-10
5.97550266e-10
5.97549744e-10
5.97549553e-10
5.97549703e-10
5.97549828e-10
5.97549806e-10
5.9754981e-10
5.97549819e-10
5.97549715e-10
5.97549651e-10
5.97549799e-10
5.97549969e-10
5.97549841e-10
5.9754953e-10
5.97549577e-10
5.9755003e-10
5.97550069e-10
5.97549616e-10
5.97549434e-10
5.97549762e-10
5.97550109e-10
5.97549944e-10
5.97549507e-10
5.97549515e-10
5.97549935e-10
5.97549998e-10
5.97549762e-10
5.97549614e-10
5.97549712e-10
5.97549866e-10
5.97549851e-10
5.97549736e-10
5.97549724e-10
5.97549774e-10
5.97549801e-10
5.97549786e-10
5.97549763e-10
5.97549765e-10
5.97549778e-10
5.97549779e-10
5.97549775e-10
5.97549773e-10
5.97549774e-10
5.97549775e-10
5.97549775e-10
5.97549774e-10
5.97549774e-10
5.97549775e-10
5.97549775e-10
5.97549775e-10
5.97549775e-10
5.97549775e-10
5.97549775e-10
5.97549775e-10
5.97549775e-10
5.97549775e-10
5.97549775e-10
5.97549775e-10
5.97549775e-10
5.97549775e-10
5.97549775e-10
5.97549775e-10
5.97549775e-10
5.97549775e-10
5.97549775e-10
5.97549775e-10
5.97549775e-10
5.97549775e-10
5.97549775e-10
5.97549775e-10
5.97549775e-10
5.97549775e-10
5.97549775e-10
5.97549775e-10
5.97549775e-10
5.97549775e-10
5.97549775e-10
5.97549775e-10
5.97549775e-10
5.97549775e-10
5.97549775e-10
5.97549775e-10
5.97549775e-10
5.97549775e-10
5.97549775e-10
5.97549775e-10
5.97549775e-10
5.97549775e-10
5.97549775e-10
5.97549775e-10
5.97549775e-10
5.97549775e-10
5.97549775e-10
5.97549775e-10
5.97549775e-10
5.97549774e-10
5.97549775e-10
5.97549775e-10
5.97549774e-10
5.97549774e-10
5.97549774e-10
5.97549776e-10
5.97549775e-10
5.97549772e-10
5.97549772e-10
5.97549779e-10
5.9754978e-10
5.97549768e-10
5.97549764e-10
5.97549781e-10
5.97549794e-10
5.97549773e-10
5.97549741e-10
5.97549761e-10
5.97549822e-10
5.97549814e-10
5.9754972e-10
5.97549711e-10
5.97549811e-10
5.97549856e-10
5.97549777e-10
5.97549686e-10
5.97549728e-10
5.97549851e-10
5.97549851e-10
5.97549727e-10
5.97549702e-10
5.97549775e-10
5.9754983e-10
5.975498e-10
5.97549741e-10
5.97549744e-10
5.97549788e-10
5.97549795e-10
5.97549777e-10
5.97549762e-10
5.97549767e-10
5.97549783e-10
5.97549783e-10
5.9754977e-10
5.97549764e-10
5.97549776e-10
5.9754979e-10
5.9754978e-10
5.97549752e-10
5.97549756e-10
5.97549802e-10
5.97549807e-10
5.97549755e-10
5.97549732e-10
5.97549776e-10
5.9754982e-10
5.97549795e-10
5.97549735e-10
5.97549739e-10
5.97549799e-10
5.97549808e-10
5.97549772e-10
5.9754975e-10
5.97549766e-10
5.97549788e-10
5.97549785e-10
5.97549769e-10
5.97549767e-10
5.97549774e-10
5.97549778e-10
5.97549776e-10
5.97549773e-10
5.97549773e-10
5.97549775e-10
5.97549775e-10
5.97549775e-10
5.97549774e-10
5.97549774e-10
5.97549775e-10
5.97549775e-10
5.97549775e-10
5.97549775e-10
5.97549775e-10
5.97549775e-10
5.97549775e-10
5.97549775e-10
5.97549775e-10
5.97549775e-10
5.97549775e-10
5.97549775e-10
5.97549775e-10
5.97549775e-10
5.97549775e-10
5.97549774e-10
5.97549774e-10
5.97549775e-10
5.97549775e-10
5.97549774e-10
5.97549774e-10
5.97549775e-10
5.97549776e-10
5.97549774e-10
5.97549772e-10
5.97549774e-10
5.9754978e-10
5.97549778e-10
5.97549764e-10
5.97549764e-10
5.9754979e-10
5.97549795e-10
5.97549761e-10
5.9754974e-10
5.97549776e-10
5.97549824e-10
5.97549798e-10
5.97549716e-10
5.9754972e-10
5.97549827e-10
5.97549845e-10
5.97549756e-10
5.975497e-10
5.97549755e-10
5.97549838e-10
5.97549822e-10
5.97549734e-10
5.97549726e-10
5.97549783e-10
5.97549812e-10
5.97549788e-10
5.97549747e-10
5.97549748e-10
5.97549802e-10
5.97549814e-10
5.9754974e-10
5.97549682e-10
5.97549824e-10
5.97550012e-10
5.97549753e-10
5.9754919e-10
5.97549576e-10
5.97551114e-10
5.97550767e-10
5.97546954e-10
5.97546847e-10
5.97554857e-10
5.97556271e-10
5.9754264e-10
5.97536366e-10
5.97557277e-10
5.97575142e-10
5.97547537e-10
5.97505811e-10
5.97534875e-10
5.97619131e-10
5.9760156e-10
5.97452593e-10
5.97446078e-10
5.97657455e-10
5.97711492e-10
5.97477149e-10
5.97326848e-10
5.97542971e-10
5.97831084e-10
5.97679375e-10
5.97247509e-10
5.97280445e-10
5.97836042e-10
5.97896958e-10
5.97404699e-10
5.97183708e-10
5.97526963e-10
5.9789927e-10
5.97720645e-10
5.97280245e-10
5.97300753e-10
5.97711811e-10
5.97766418e-10
5.97541537e-10
5.97437498e-10
5.97476908e-10
5.97453442e-10
5.97558853e-10
5.97955858e-10
5.97931814e-10
5.96632346e-10
5.96465866e-10
5.99043208e-10
5.99942672e-10
5.95790726e-10
5.93411469e-10
5.98984025e-10
6.05477122e-10
5.98238128e-10
5.90635375e-10
5.91691806e-10
6.09835616e-10
6.11717886e-10
5.89862419e-10
5.90244695e-10
6.10437739e-10
6.09686426e-10
5.90336777e-10
5.89840175e-10
6.11151891e-10
6.09716669e-10
5.9046079e-10
5.90371128e-10
6.10211493e-10
6.08982618e-10
5.94533317e-10
5.89313181e-10
5.90195444e-10
6.10195236e-10
6.09584562e-10
5.90372238e-10
5.90376276e-10
6.10314013e-10
6.10011536e-10
5.9014296e-10
5.90248192e-10
6.10250303e-10
6.09740365e-10
5.90336188e-10
5.90005806e-10
6.1122073e-10
6.08508479e-10
6.05506273e-10
5.90082326e-10
5.89264539e-10
5.94351205e-10
6.10705165e-10
6.07966887e-10
6.11133932e-10
5.91362289e-10
5.90557994e-10
5.89551655e-10
5.89496523e-10
5.98289595e-10
6.09030433e-10
6.10496985e-10
5.9065874e-10
5.90104598e-10
6.02180485e-10
6.09034918e-10
6.11168241e-10
5.90203731e-10
5.90118236e-10
6.11072796e-10
6.08946202e-10
5.99047262e-10
5.895142e-10
5.89484414e-10
6.07561086e-10
6.09117879e-10
6.01510948e-10
5.89591786e-10
5.89551345e-10
6.09239102e-10
6.08982211e-10
6.02379501e-10
5.89979842e-10
5.89923044e-10
6.08143084e-10
6.08624176e-10
6.11211486e-10
5.90114979e-10
5.89255092e-10
5.95343741e-10
6.10242782e-10
6.08008616e-10
6.06885338e-10
5.91159456e-10
5.89078669e-10
5.89239618e-10
6.10781405e-10
6.11677155e-10
5.90057332e-10
5.91081873e-10
6.09777342e-10
6.08527926e-10
5.96544996e-10
5.89579872e-10
5.91781649e-10
6.10294272e-10
6.06546478e-10
5.90428034e-10
)
;

boundaryField
{
    closed
    {
        type            calculated;
        value           nonuniform List<scalar> 0();
    }
    open
    {
        type            calculated;
        value           nonuniform List<scalar> 0();
    }
    sides
    {
        type            empty;
    }
    procBoundary3to2
    {
        type            processor;
        value           uniform 5.92438578e-10;
    }
    procBoundary3to4
    {
        type            processor;
        value           uniform 5.92298648e-10;
    }
}


// ************************************************************************* //
