/*--------------------------------*- C++ -*----------------------------------*\
| =========                 |                                                 |
| \\      /  F ield         | OpenFOAM: The Open Source CFD Toolbox           |
|  \\    /   O peration     | Version:  2306                                  |
|   \\  /    A nd           | Website:  www.openfoam.com                      |
|    \\/     M anipulation  |                                                 |
\*---------------------------------------------------------------------------*/
FoamFile
{
    version     2.0;
    format      ascii;
    arch        "LSB;label=32;scalar=64";
    class       volScalarField;
    location    "0.00058";
    object      sourcePV;
}
// * * * * * * * * * * * * * * * * * * * * * * * * * * * * * * * * * * * * * //

dimensions      [1 -3 -1 0 0 0 0];

internalField   nonuniform List<scalar> 
531
(
0.164268207
0.11803199
0.00295890812
0.0385473399
0.14396281
0.114836175
0.00310011917
0.0378015806
0.142792444
0.117838805
0.00310931562
0.00414559337
0.115049029
0.168112213
0.121893855
0.00496607448
0.00539180553
0.00545637515
0.0107783231
0.112787288
0.167326957
0.169137221
0.0441246244
0.0423596333
0.144412068
0.110748885
0.0034740267
0.00473868297
0.106749653
0.16166785
0.108890629
0.00340191359
0.00578943112
0.0439297584
0.151941433
0.173583691
0.0929194785
0.00400585109
0.014314522
0.139077471
0.160105338
0.0748528878
0.0045312757
0.0123518124
0.138502244
0.161795513
0.0729013555
0.00417432372
0.00531827314
0.00525676743
0.060307348
0.146594098
0.150548805
0.169078094
0.169271415
0.0439156249
0.00524013331
0.0053358837
0.0398219532
0.150010905
0.163728026
0.05943347
0.00501827677
0.0995043296
0.147272781
0.0444059403
0.00567945118
0.0366530302
0.120438714
0.157279053
0.156018471
0.0108788611
0.00570113353
0.055145345
0.152293857
0.155832151
0.0186610335
0.0055570348
0.088507571
0.144604653
0.116890598
0.0314163454
0.0412607065
0.107868087
0.107188969
0.0764297987
0.0707094815
0.0809296276
0.0861098851
0.0830252663
0.0802678205
0.080785544
0.0818202783
0.0817945063
0.0814933243
0.0814796769
0.0815330835
0.0815405124
0.0815295623
0.0815301192
0.0815335262
0.0815317024
0.0815293471
0.0815299303
0.081531521
0.0815311917
0.0815303148
0.0815301129
0.0815303777
0.0815307185
0.0815309255
0.081530792
0.0815293921
0.0815292404
0.0815320747
0.0815333544
0.0815287362
0.0815247325
0.0815307467
0.0815403585
0.0815344952
0.0815151986
0.0815177267
0.081550732
0.0815532822
0.0815115072
0.081497631
0.0815389011
0.0815711353
0.081540013
0.0814864995
0.081500268
0.0815705024
0.0815736234
0.0815059476
0.0814869693
0.0815316173
0.0815672155
0.0815463054
0.0815046306
0.0815076812
0.0815444017
0.0815488785
0.0815288651
0.0815183795
0.081526253
0.0815368024
0.0815352929
0.0815279334
0.0815273846
0.0815306322
0.0815318235
0.0815308911
0.0815301083
0.0815302446
0.0815302239
0.0815301655
0.0815308136
0.0815312138
0.0815302916
0.0815292336
0.0815300292
0.0815319664
0.0815316753
0.0815288539
0.0815286078
0.081531427
0.0815325616
0.0815305181
0.0815283629
0.0815293846
0.0815321116
0.0815320607
0.0815294434
0.0815290509
0.0815305187
0.0815314449
0.0815308304
0.0815298708
0.0815299685
0.081530681
0.0815307577
0.0815304446
0.0815302769
0.0815303692
0.0815305115
0.0815305053
0.0815304228
0.0815304137
0.0815304392
0.0815304539
0.0815304481
0.0815304394
0.0815304398
0.0815304434
0.0815304439
0.081530443
0.0815304425
0.0815304427
0.0815304429
0.0815304429
0.0815304428
0.0815304428
0.0815304428
0.0815304428
0.0815304428
0.0815304428
0.0815304428
0.0815304428
0.0815304428
0.0815304428
0.0815304428
0.0815304428
0.0815304428
0.0815304428
0.0815304428
0.0815304428
0.0815304428
0.0815304428
0.0815304428
0.0815304428
0.0815304428
0.0815304428
0.0815304428
0.0815304428
0.0815304428
0.0815304428
0.0815304428
0.0815304428
0.0815304428
0.0815304428
0.0815304428
0.0815304428
0.0815304428
0.0815304428
0.0815304428
0.0815304428
0.0815304428
0.0815304428
0.0815304428
0.0815304428
0.0815304428
0.0815304427
0.0815304429
0.0815304431
0.0815304427
0.0815304419
0.081530443
0.0815304452
0.0815304435
0.0815304364
0.0815304389
0.0815304571
0.0815304569
0.0815304147
0.0815304098
0.0815304842
0.0815305103
0.0815303997
0.0815303201
0.0815304511
0.0815306527
0.0815305259
0.081530145
0.0815301954
0.0815307821
0.0815308414
0.0815302158
0.0815299346
0.0815304283
0.0815309926
0.0815307296
0.0815299641
0.0815299647
0.0815307363
0.0815308915
0.0815304372
0.0815300952
0.0815302868
0.0815306524
0.0815306316
0.0815303586
0.0815303141
0.0815304295
0.0815305207
0.0815304904
0.0815303931
0.0815303879
0.0815304728
0.0815305105
0.0815304324
0.0815303468
0.0815304096
0.0815305827
0.0815305579
0.0815302731
0.0815302436
0.0815305661
0.081530708
0.081530434
0.0815301573
0.0815303139
0.0815306901
0.0815306646
0.0815302889
0.0815302358
0.0815304604
0.0815305984
0.0815304974
0.0815303558
0.0815303748
0.0815304753
0.0815304873
0.0815304448
0.0815304193
0.0815304327
0.0815304517
0.0815304505
0.0815304408
0.0815304392
0.0815304424
0.081530444
0.0815304434
0.0815304425
0.0815304426
0.0815304428
0.0815304429
0.0815304428
0.0815304428
0.0815304428
0.0815304428
0.0815304428
0.0815304428
0.0815304428
0.0815304428
0.0815304428
0.0815304427
0.0815304427
0.0815304431
0.0815304431
0.0815304421
0.0815304416
0.0815304443
0.0815304462
0.0815304405
0.0815304342
0.081530445
0.0815304613
0.0815304466
0.0815304064
0.0815304183
0.0815305089
0.0815305104
0.0815303489
0.0815303131
0.081530525
0.0815306595
0.0815304364
0.0815301359
0.0815302955
0.0815308054
0.0815307837
0.0815301142
0.0815300066
0.0815305583
0.08153091
0.0815305662
0.081530046
0.0815301463
0.0815306974
0.0815307419
0.0815303897
0.081530212
0.0815303574
0.0815306133
0.0815306087
0.0815302697
0.0815301942
0.081530659
0.0815310196
0.0815301355
0.0815289665
0.0815305744
0.0815340841
0.0815316794
0.0815220987
0.0815242612
0.0815480071
0.081548674
0.081498791
0.0814899926
0.081574881
0.0816139684
0.0814837263
0.0813725343
0.0815443779
0.08180445
0.0816232617
0.0810990388
0.0812082398
0.0821367003
0.0821774347
0.0808610794
0.080526145
0.0819833076
0.0829242623
0.0815728489
0.0797869639
0.0807251866
0.0834229278
0.0832157634
0.0797563209
0.0793810535
0.0824362381
0.0838250271
0.0816726315
0.079366854
0.0804694947
0.0832171153
0.0830882247
0.080524342
0.0801866872
0.0815822463
0.0822327639
0.0819860866
0.08213606
0.0814772081
0.079027077
0.0791749269
0.0873784475
0.0884757281
0.0724539679
0.0671384637
0.0929901175
0.110424834
0.0728125449
0.0364395537
0.0773977509
0.144313296
0.125001677
0.00481512371
0.00302952282
0.157250424
0.155669827
0.00425360328
0.00494303302
0.148807444
0.160631157
0.00357252414
0.00491276775
0.144938697
0.149056533
0.00444861867
0.00562329022
0.102197727
0.168788637
0.149885217
0.00447043201
0.0050337385
0.147310292
0.1510116
0.00436009681
0.00462797834
0.151388233
0.153353332
0.00442148657
0.004885414
0.151551541
0.15414611
0.00348867012
0.00606731471
0.0354690473
0.141706343
0.174469
0.102202492
0.00403216093
0.0065736365
0.00731009227
0.126156831
0.151448838
0.159068803
0.164919743
0.0770748316
0.00558277474
0.00417388322
0.139746771
0.157944399
0.0543341308
0.0055892503
0.00765375083
0.153631343
0.156175582
0.00359268783
0.00566193813
0.0725033356
0.1629864
0.162682948
0.0265790064
0.00549862917
0.0578750559
0.163081098
0.161317329
0.0182544771
0.00562707795
0.0528836772
0.15656535
0.155245341
0.0230621447
0.00595865719
0.00680170127
0.141057199
0.176276844
0.0953264619
0.00446296065
0.00653445552
0.0282458149
0.127588762
0.177950167
0.170570156
0.00390315094
0.00585077485
0.155299456
0.130826613
0.00486001785
0.00604377569
0.0880969784
0.161277892
0.121882363
0.00438424032
0.031204912
0.146342887
)
;

boundaryField
{
    closed
    {
        type            calculated;
        value           nonuniform List<scalar> 0();
    }
    open
    {
        type            calculated;
        value           nonuniform List<scalar> 0();
    }
    sides
    {
        type            empty;
    }
    procBoundary3to2
    {
        type            processor;
        value           uniform 0;
    }
    procBoundary3to4
    {
        type            processor;
        value           uniform 0;
    }
}


// ************************************************************************* //
