/*--------------------------------*- C++ -*----------------------------------*\
| =========                 |                                                 |
| \\      /  F ield         | OpenFOAM: The Open Source CFD Toolbox           |
|  \\    /   O peration     | Version:  2306                                  |
|   \\  /    A nd           | Website:  www.openfoam.com                      |
|    \\/     M anipulation  |                                                 |
\*---------------------------------------------------------------------------*/
FoamFile
{
    version     2.0;
    format      ascii;
    arch        "LSB;label=32;scalar=64";
    class       volScalarField;
    location    "0.00014";
    object      Z;
}
// * * * * * * * * * * * * * * * * * * * * * * * * * * * * * * * * * * * * * //

dimensions      [0 0 0 0 0 0 0];

internalField   nonuniform List<scalar> 
530
(
0.0130757126
0.0130741363
0.0130907083
0.0132690938
0.0131793839
0.0131673336
0.0131860841
0.013352815
0.0132824987
0.0132642482
0.013285462
0.0134432867
0.0133840642
0.0133668609
0.013388242
0.013535464
0.013484439
0.0134642981
0.0134912577
0.0136236838
0.0135810383
0.0135530313
0.0135860106
0.0137118787
0.0136745321
0.0136412544
0.0136759619
0.013796037
0.0137649642
0.0137276007
0.0137623337
0.0138747213
0.0138506176
0.013808572
0.0138426672
0.013948708
0.0139306693
0.0138844338
0.0139169424
0.0140181774
0.0140046619
0.0139546753
0.0139851826
0.0140821688
0.0140716294
0.0140196599
0.0140476743
0.0141392597
0.0141316142
0.0140794353
0.0141041957
0.0141891801
0.0141842477
0.0141338661
0.0141554713
0.0142325449
0.0142298019
0.0141840469
0.0142013403
0.0142698715
0.0142703142
0.0142293711
0.0142426735
0.0143009252
0.0143060536
0.0142687034
0.0142786038
0.01432869
0.0143362879
0.0143024531
0.0143094435
0.0143529969
0.0143612657
0.0143300969
0.0143357558
0.0143741394
0.0143822851
0.014353727
0.0143583392
0.0143921092
0.0143996701
0.0143737414
0.0143774849
0.0144071352
0.0144139016
0.014390563
0.0143935733
0.0144195072
0.0144254082
0.0144045789
0.0144069823
0.0144295507
0.0144345915
0.0144161604
0.0144180647
0.0144375918
0.0144418203
0.0144256488
0.0144271463
0.0144439399
0.0144474277
0.0144333562
0.014434525
0.0144488785
0.0144517091
0.0144395638
0.0144404698
0.0144526605
0.0144549214
0.0144445222
0.0144452205
0.0144555069
0.0144572852
0.0144484515
0.0144489881
0.0144576075
0.0144589862
0.014451542
0.0144519544
0.014459124
0.0144601773
0.0144539563
0.014454274
0.0144601918
0.0144609833
0.0144558303
0.0144560765
0.014460921
0.0144615037
0.0144572769
0.0144574689
0.0144613992
0.0144618176
0.0144583884
0.0144585387
0.0144616946
0.0144619876
0.0144592392
0.0144593569
0.0144618589
0.0144620615
0.0144598885
0.0144599803
0.0144619331
0.0144620729
0.014460383
0.0144604533
0.0144619496
0.0144620455
0.0144607581
0.0144608111
0.0144619325
0.0144619964
0.0144610411
0.0144610813
0.0144618968
0.0144619373
0.0144612548
0.0144612853
0.0144618502
0.0144618757
0.0144614185
0.0144614393
0.0144617973
0.0144618167
0.014461544
0.0144615549
0.0144617458
0.014461764
0.0144616342
0.0144616386
0.0144617084
0.0144617225
0.0144616802
0.0144616873
0.0144616918
0.0144616997
0.0144616897
0.0144616937
0.0144616933
0.0144616964
0.0144616948
0.0144616969
0.0144616968
0.0144616985
0.0144616985
0.0144616997
0.0144617
0.0144617009
0.0144617012
0.014461702
0.0144617023
0.0144617029
0.0144617032
0.0144617037
0.014461704
0.0144617044
0.0144617046
0.0144617049
0.0144617051
0.0144617053
0.0144617055
0.0144617057
0.0144617058
0.014461706
0.0144617061
0.0144617062
0.0144617063
0.0144617064
0.0144617064
0.0144617065
0.0144617065
0.0144617066
0.0144617066
0.0144617067
0.0144617067
0.0144617067
0.0144617067
0.0144617068
0.0144617068
0.0144617068
0.0144617068
0.0144617068
0.0144617068
0.0144617068
0.0144617069
0.0144617069
0.0144617069
0.0144617069
0.0144617069
0.0144617069
0.0144617069
0.0144617069
0.0144617069
0.0144617069
0.0144617069
0.0144617069
0.0144617069
0.0144617069
0.0144617069
0.0144617069
0.0144617069
0.0144617069
0.0144617069
0.0144617069
0.0144617069
0.0144617069
0.0144617069
0.0144617069
0.0144617069
0.0144617069
0.0144617069
0.0144617069
0.0144617069
0.0144617069
0.0144617069
0.0144617069
0.0144617069
0.0144617069
0.0144617069
0.0144617069
0.0144617069
0.0144617069
0.0144617069
0.0144617069
0.0144617069
0.0144617069
0.0144617069
0.0144617069
0.0144617069
0.0144617069
0.0144617069
0.0144617069
0.0144617069
0.0144617069
0.0144617069
0.0144617069
0.0144617069
0.0144617069
0.0144617069
0.0144617069
0.0144617069
0.0144617069
0.0144617069
0.0144617069
0.0144617069
0.0144617069
0.0144617069
0.0144617069
0.0144617069
0.0144617069
0.0144617069
0.0144617069
0.0144617069
0.0144617069
0.0144617069
0.0144617069
0.0144617069
0.0144617069
0.0144617069
0.0144617069
0.0144617069
0.0144617069
0.0144617069
0.0144617069
0.0144617069
0.0144617069
0.0144617069
0.0144617069
0.0144617069
0.0144617069
0.0144617069
0.0144617069
0.0144617069
0.0144617069
0.0144617069
0.0144617069
0.0144617069
0.0144617069
0.0144617069
0.0144617069
0.0144617069
0.0144617069
0.0144617069
0.0144617069
0.0144617069
0.0144617069
0.0144617069
0.0144617069
0.0144617069
0.0144617069
0.0144617069
0.0144617069
0.0144617069
0.0144617069
0.0144617069
0.0144617069
0.0144617069
0.0144617069
0.0144617069
0.0144617069
0.0144617069
0.0144617069
0.0144617069
0.0144617069
0.0144617069
0.0144617069
0.0144617069
0.0144617069
0.0144617069
0.0144617069
0.0144617069
0.0144617069
0.0144617069
0.0144617069
0.0144617069
0.0144617069
0.0144617069
0.0144617069
0.0144617069
0.0144617069
0.0144617069
0.0144617069
0.0144617069
0.0144617069
0.0144617069
0.0144617069
0.0144617069
0.0144617069
0.0144617069
0.0144617069
0.0144617069
0.0144617069
0.0144617069
0.0144617069
0.0144617069
0.0144617069
0.0144617069
0.0144617069
0.0144617069
0.0144617069
0.0144617069
0.0144617069
0.0144617069
0.0144617069
0.0144617069
0.0144617069
0.0144617069
0.0144617069
0.0144617069
0.0144617069
0.0144617069
0.0144617069
0.0144617069
0.0144617069
0.0144617069
0.0144617069
0.0144617069
0.0144617069
0.0144617069
0.0144617069
0.0144617069
0.0144617069
0.0144617069
0.0144617069
0.0144617069
0.0144617069
0.0144617069
0.0144617069
0.0144617069
0.0144617069
0.0144617069
0.0144617069
0.0144617069
0.0144617069
0.0144617069
0.0144617069
0.0144617069
0.0144617069
0.0144617069
0.0144617069
0.0144617069
0.0144617069
0.0144617069
0.0144617069
0.0144617069
0.0144617069
0.0144617069
0.0144617069
0.0144617069
0.0144617069
0.0144617069
0.0144617069
0.0144617069
0.0144617069
0.0144617069
0.0144617069
0.0144617069
0.0144617069
0.0144617069
0.0144617069
0.0144617069
0.0144617069
0.0144617069
0.0144617069
0.0144617069
0.0144617069
0.0144617069
0.0144617069
0.0144617069
0.0144617069
0.0144617069
0.0144617069
0.0144617069
0.0144617069
0.0144617069
0.0144617069
0.0144617069
0.0144617069
0.0144617069
0.0144617069
0.0144617069
0.0144617069
0.0144617069
0.0144617069
0.0144617069
0.0144617069
0.0144617069
0.0144617069
0.0144617069
0.0144617069
0.0144617069
0.0144617069
0.0144617069
0.0144617069
0.0144617069
0.0144617069
0.0144617069
0.0144617069
0.0144617069
0.0144617069
0.0144617069
0.0144617069
0.0144617069
0.0144617069
0.0144617069
0.0144617069
0.0144617069
0.0144617069
0.0144617069
0.0144617069
0.0144617069
0.0144617069
0.0144617069
0.0144617069
0.0144617069
0.0144617069
0.0144617069
0.0144617069
0.0144617069
0.0144617069
0.0144617069
0.0144617069
0.0144617069
0.0144617069
0.0144617069
0.0144617069
0.0144617069
0.0144617069
0.0144617069
0.0144617069
0.0144617069
0.0144617069
0.0144617069
0.0144617069
0.0144617069
0.0144617069
0.0144617069
0.0144617069
0.0144617069
0.0144617069
0.0144617069
0.0144617069
0.0144617069
0.0144617069
0.0144617069
0.0144617069
0.0144617069
0.0144617069
0.0144617069
)
;

boundaryField
{
    closed
    {
        type            zeroGradient;
    }
    open
    {
        type            zeroGradient;
    }
    sides
    {
        type            empty;
    }
    procBoundary5to4
    {
        type            processor;
        value           uniform 0.0131951068;
    }
}


// ************************************************************************* //
