/*--------------------------------*- C++ -*----------------------------------*\
| =========                 |                                                 |
| \\      /  F ield         | OpenFOAM: The Open Source CFD Toolbox           |
|  \\    /   O peration     | Version:  2306                                  |
|   \\  /    A nd           | Website:  www.openfoam.com                      |
|    \\/     M anipulation  |                                                 |
\*---------------------------------------------------------------------------*/
FoamFile
{
    version     2.0;
    format      ascii;
    arch        "LSB;label=32;scalar=64";
    class       volScalarField;
    location    "0.00024";
    object      prefDPV_H2;
}
// * * * * * * * * * * * * * * * * * * * * * * * * * * * * * * * * * * * * * //

dimensions      [1 -1 -1 0 0 0 0];

internalField   nonuniform List<scalar> 
3810
(
-3.0632815e-05
-3.15016075e-05
-3.14620214e-05
-3.06180965e-05
-3.07397264e-05
-3.1499544e-05
-3.14654298e-05
-3.0595322e-05
-3.08155686e-05
-3.14966916e-05
-3.14733164e-05
-3.04577044e-05
-3.09440434e-05
-3.14890921e-05
-3.14991472e-05
-3.14764343e-05
-3.03492272e-05
-3.03473722e-05
-3.05983269e-05
-3.09091434e-05
-3.15092001e-05
-3.15140096e-05
-3.14855223e-05
-3.15040451e-05
-3.14675522e-05
-3.02667037e-05
-3.02637316e-05
-3.04684902e-05
-3.09355128e-05
-3.15035041e-05
-3.15122506e-05
-3.14814683e-05
-3.06442423e-05
-3.06548475e-05
-3.15061413e-05
-3.14798567e-05
-3.05004405e-05
-3.08615028e-05
-3.14974913e-05
-3.15057561e-05
-3.1472638e-05
-3.14968791e-05
-3.14580241e-05
-2.99405921e-05
-2.99351831e-05
-3.04351843e-05
-3.05700175e-05
-3.06168034e-05
-3.09307953e-05
-3.15059407e-05
-3.14917997e-05
-3.05363001e-05
-3.05320855e-05
-3.09271165e-05
-3.14940105e-05
-3.14921764e-05
-3.14940245e-05
-3.14759276e-05
-3.02733175e-05
-3.02654821e-05
-3.09465586e-05
-3.15010184e-05
-3.14826222e-05
-3.04271725e-05
-3.04185647e-05
-3.0928679e-05
-3.14920104e-05
-3.14986855e-05
-3.05611688e-05
-3.09004479e-05
-3.1501342e-05
-3.14958377e-05
-3.05111631e-05
-3.09373711e-05
-3.14969398e-05
-3.15074641e-05
-3.14906058e-05
-3.06303953e-05
-3.06312918e-05
-3.15025286e-05
-3.1485699e-05
-3.05153436e-05
-3.08654336e-05
-3.14930798e-05
-3.14999706e-05
-3.14741615e-05
-3.14905606e-05
-3.14633302e-05
-2.996414e-05
-2.99606994e-05
-3.04895426e-05
-3.05959948e-05
-3.06742241e-05
-3.09342854e-05
-3.15001601e-05
-3.14947781e-05
-3.06152786e-05
-3.08881114e-05
-3.15132111e-05
-3.14796158e-05
-3.03996703e-05
-3.03868862e-05
-3.09252306e-05
-3.14908341e-05
-3.15056556e-05
-3.05030796e-05
-3.09410315e-05
-3.15011387e-05
-3.14958428e-05
-3.1492252e-05
-3.14825013e-05
-3.0293255e-05
-3.06667899e-05
-3.14807935e-05
-3.14927769e-05
-3.14652535e-05
-3.01006142e-05
-2.99820248e-05
-3.09488953e-05
-3.14902201e-05
-3.14841878e-05
-3.14857868e-05
-3.14621102e-05
-2.98816949e-05
-2.98694625e-05
-3.08418602e-05
-3.14895444e-05
-3.14657484e-05
-3.0209313e-05
-3.0196256e-05
-3.09470355e-05
-3.14902597e-05
-3.14924452e-05
-3.14827023e-05
-3.14758176e-05
-3.01664903e-05
-3.07159731e-05
-3.14789715e-05
-3.14872172e-05
-3.14714135e-05
-3.01703939e-05
-3.08191464e-05
-3.14834357e-05
-3.06630914e-05
-3.07461542e-05
-3.14882043e-05
-3.14968202e-05
-3.14673858e-05
-3.14944342e-05
-3.14469666e-05
-3.1487937e-05
-3.14295086e-05
-2.97953903e-05
-2.97656554e-05
-3.04455598e-05
-3.03082365e-05
-3.09310642e-05
-3.14812761e-05
-3.14905871e-05
-3.14816463e-05
-3.1471818e-05
-3.02407192e-05
-3.02382117e-05
-3.05793254e-05
-3.09054478e-05
-3.15023003e-05
-3.14895999e-05
-3.05796322e-05
-3.05790158e-05
-3.08002211e-05
-3.09272704e-05
-3.15083935e-05
-3.15140868e-05
-3.14945001e-05
-3.15042419e-05
-3.14864066e-05
-3.03163032e-05
-3.07322066e-05
-3.14920807e-05
-3.15010899e-05
-3.14841456e-05
-3.01376299e-05
-3.01328489e-05
-3.05342411e-05
-3.08621721e-05
-3.15036115e-05
-3.15144789e-05
-3.14875218e-05
-3.15037363e-05
-3.1475488e-05
-3.00142861e-05
-3.00133634e-05
-3.05677545e-05
-3.06268132e-05
-3.07886641e-05
-3.09226487e-05
-3.14957497e-05
-3.15180393e-05
-3.14802174e-05
-3.15091704e-05
-3.14658349e-05
-3.02563372e-05
-3.02430231e-05
-3.06594133e-05
-3.06434164e-05
-3.09420218e-05
-3.14929431e-05
-3.14939452e-05
-3.06743303e-05
-3.09391173e-05
-3.14989049e-05
-3.14831243e-05
-3.14958008e-05
-3.14615425e-05
-3.14903872e-05
-3.14430418e-05
-2.99456019e-05
-2.99242111e-05
-3.05161795e-05
-3.04057206e-05
-3.09311505e-05
-3.14812139e-05
-3.14894604e-05
-3.14818504e-05
-3.14720408e-05
-3.02866752e-05
-3.02864936e-05
-3.05882826e-05
-3.0934089e-05
-3.14898006e-05
-3.14879953e-05
-3.14878508e-05
-3.14699191e-05
-3.14790009e-05
-3.14576618e-05
-3.00713898e-05
-3.05906012e-05
-3.14687666e-05
-3.14810433e-05
-3.1458509e-05
-3.00959916e-05
-3.00950801e-05
-3.05086614e-05
-3.09266411e-05
-3.14971916e-05
-3.14780437e-05
-3.03956369e-05
-3.03882541e-05
-3.09315521e-05
-3.14923111e-05
-3.14913797e-05
-3.05413593e-05
-3.08885427e-05
-3.15081646e-05
-3.14806885e-05
-3.04117085e-05
-3.04021778e-05
-3.09249229e-05
-3.14977687e-05
-3.14966827e-05
-3.05484429e-05
-3.08895799e-05
-3.15150174e-05
-3.14863704e-05
-3.0402134e-05
-3.03933515e-05
-3.09165819e-05
-3.14976454e-05
-3.15072337e-05
-3.05032299e-05
-3.09310417e-05
-3.15078455e-05
-3.15130198e-05
-3.14973165e-05
-3.0505283e-05
-3.08267129e-05
-3.15039417e-05
-3.15091656e-05
-3.14916779e-05
-3.02728713e-05
-3.02704362e-05
-3.05962891e-05
-3.09263498e-05
-3.15081788e-05
-3.15225459e-05
-3.14890122e-05
-3.06419845e-05
-3.06404745e-05
-3.15210774e-05
-3.14787702e-05
-3.05513221e-05
-3.06737257e-05
-3.1515495e-05
-3.14772556e-05
-3.04543823e-05
-3.04530882e-05
-3.07138503e-05
-3.0930353e-05
-3.15063756e-05
-3.14968601e-05
-3.05923044e-05
-3.09352927e-05
-3.15031029e-05
-3.15134848e-05
-3.1478974e-05
-3.05517339e-05
-3.06923611e-05
-3.15075748e-05
-3.14675487e-05
-3.14916171e-05
-3.14412589e-05
-2.98115887e-05
-2.9806016e-05
-3.04053628e-05
-3.04295263e-05
-3.05017001e-05
-3.09246943e-05
-3.14839915e-05
-3.14705822e-05
-3.14786691e-05
-3.14478717e-05
-3.04415028e-05
-3.0437952e-05
-3.09559302e-05
-3.15005334e-05
-3.14640154e-05
-3.09376455e-05
-3.14810899e-05
-3.14763318e-05
-3.04244805e-05
-3.04193657e-05
-3.09290443e-05
-3.14947414e-05
-3.15148337e-05
-3.14727591e-05
-3.15080098e-05
-3.1452455e-05
-3.00381433e-05
-3.00107234e-05
-3.08914165e-05
-3.14873149e-05
-3.15124389e-05
-3.14701499e-05
-3.01390648e-05
-3.00965564e-05
-3.09302703e-05
-3.14932049e-05
-3.14987266e-05
-3.03879242e-05
-3.08016651e-05
-3.14984115e-05
-3.15001497e-05
-3.03764567e-05
-3.09369034e-05
-3.14979044e-05
-3.15072507e-05
-3.14924408e-05
-3.03172641e-05
-3.03066197e-05
-3.07186156e-05
-3.09295637e-05
-3.15009047e-05
-3.1521387e-05
-3.1484013e-05
-3.15138752e-05
-3.14738511e-05
-3.04492317e-05
-3.06651466e-05
-3.1506722e-05
-3.14649058e-05
-3.149652e-05
-3.14507192e-05
-2.98570985e-05
-2.98124115e-05
-3.08836083e-05
-3.14768119e-05
-3.14915588e-05
-3.14781195e-05
-3.02191663e-05
-3.02187884e-05
-3.05373432e-05
-3.09471283e-05
-3.14927139e-05
-3.14872043e-05
-3.14876172e-05
-3.14779157e-05
-3.02125956e-05
-3.02105471e-05
-3.05841419e-05
-3.09492174e-05
-3.14918966e-05
-3.14831735e-05
-3.14873647e-05
-3.14744408e-05
-3.03950743e-05
-3.06815929e-05
-3.14909573e-05
-3.14594505e-05
-3.14840113e-05
-3.14510821e-05
-2.99886904e-05
-2.99684412e-05
-3.05535515e-05
-3.04559078e-05
-3.09320089e-05
-3.14757866e-05
-3.15021597e-05
-3.05334042e-05
-3.07927257e-05
-3.14896957e-05
-3.14970049e-05
-3.04985366e-05
-3.07234198e-05
-3.1490891e-05
-3.15007976e-05
-3.14808388e-05
-3.14980278e-05
-3.14716802e-05
-2.98715337e-05
-2.98580513e-05
-3.05005421e-05
-3.04895738e-05
-3.0919582e-05
-3.15224574e-05
-3.15221876e-05
-3.15375132e-05
-3.15138268e-05
-3.15435463e-05
-3.15031893e-05
-3.15344372e-05
-3.14977563e-05
-3.04745665e-05
-3.00561018e-05
-3.04405851e-05
-3.0503043e-05
-3.04450639e-05
-3.09269968e-05
-3.15129657e-05
-3.1497531e-05
-3.15036281e-05
-3.14788673e-05
-3.01355379e-05
-3.01240906e-05
-3.06039631e-05
-3.05353275e-05
-3.09243537e-05
-3.14906504e-05
-3.1508841e-05
-3.05905669e-05
-3.09320664e-05
-3.149955e-05
-3.15062204e-05
-3.14922466e-05
-3.04923196e-05
-3.04891331e-05
-3.07701409e-05
-3.09521253e-05
-3.14997871e-05
-3.1495525e-05
-3.14968659e-05
-3.14840821e-05
-3.02967248e-05
-3.02902909e-05
-3.09371537e-05
-3.14980799e-05
-3.14930336e-05
-3.14958984e-05
-3.14762193e-05
-2.99941862e-05
-2.99846377e-05
-3.07882744e-05
-3.14992136e-05
-3.1485369e-05
-3.0372918e-05
-3.04227323e-05
-3.06145458e-05
-3.09276722e-05
-3.1509211e-05
-3.15041901e-05
-3.1505618e-05
-3.14908837e-05
-3.04906601e-05
-3.06046249e-05
-3.15024339e-05
-3.14908656e-05
-3.05010463e-05
-3.08010247e-05
-3.14978288e-05
-3.1507289e-05
-3.1483104e-05
-3.1502093e-05
-3.14655516e-05
-3.00224886e-05
-3.00101524e-05
-3.05401298e-05
-3.04353385e-05
-3.09242464e-05
-3.15091291e-05
-3.15058937e-05
-3.15079413e-05
-3.14890952e-05
-3.15022138e-05
-3.14675695e-05
-2.98327875e-05
-2.98259129e-05
-3.04011458e-05
-3.04189791e-05
-3.06894409e-05
-3.06813771e-05
-3.0944284e-05
-3.15135722e-05
-3.150072e-05
-3.05889821e-05
-3.05858764e-05
-3.0920783e-05
-3.15137485e-05
-3.15057561e-05
-3.06865935e-05
-3.09235706e-05
-3.15181048e-05
-3.15059956e-05
-3.15151764e-05
-3.14844375e-05
-3.15103103e-05
-3.14588614e-05
-3.01305619e-05
-3.01167135e-05
-3.05912981e-05
-3.05239446e-05
-3.09218517e-05
-3.15090158e-05
-3.14914613e-05
-3.05793592e-05
-3.05778545e-05
-3.09196713e-05
-3.15159622e-05
-3.15236962e-05
-3.14935502e-05
-3.15133224e-05
-3.14738421e-05
-3.0331421e-05
-3.07773171e-05
-3.15029472e-05
-3.15099171e-05
-3.14744007e-05
-3.03086691e-05
-3.06685993e-05
-3.1495666e-05
-3.15051636e-05
-3.14665065e-05
-3.00800418e-05
-3.00748151e-05
-3.05849102e-05
-3.06497063e-05
-3.07989491e-05
-3.09283242e-05
-3.15140672e-05
-3.14858294e-05
-3.07623298e-05
-3.09559296e-05
-3.15235686e-05
-3.14727871e-05
-3.06159311e-05
-3.06098471e-05
-3.09331345e-05
-3.14970507e-05
-3.1495621e-05
-3.07251192e-05
-3.093563e-05
-3.15010293e-05
-3.15171452e-05
-3.14717092e-05
-3.15124721e-05
-3.14510496e-05
-3.01291214e-05
-3.01010325e-05
-3.08946422e-05
-3.1486478e-05
-3.15225729e-05
-3.14715257e-05
-3.02519376e-05
-3.02412256e-05
-3.06364174e-05
-3.05940176e-05
-3.09298447e-05
-3.1510726e-05
-3.14921075e-05
-3.05130686e-05
-3.05086334e-05
-3.09229238e-05
-3.15072262e-05
-3.14930463e-05
-3.06023184e-05
-3.08696123e-05
-3.15264688e-05
-3.14784746e-05
-3.05700345e-05
-3.07950417e-05
-3.15319772e-05
-3.14741573e-05
-3.05183199e-05
-3.07925092e-05
-3.15324894e-05
-3.14744263e-05
-3.03398739e-05
-3.03221552e-05
-3.09170949e-05
-3.15099155e-05
-3.15049518e-05
-3.05660166e-05
-3.05644427e-05
-3.07966218e-05
-3.09190265e-05
-3.15199067e-05
-3.15250515e-05
-3.15014325e-05
-3.05436616e-05
-3.05403899e-05
-3.09167897e-05
-3.15084848e-05
-3.15070436e-05
-3.06651253e-05
-3.09315189e-05
-3.151064e-05
-3.15173942e-05
-3.14886711e-05
-3.04626027e-05
-3.04536763e-05
-3.09206776e-05
-3.15028332e-05
-3.1498807e-05
-3.06474446e-05
-3.09404883e-05
-3.15141077e-05
-3.14947969e-05
-3.06362384e-05
-3.09399289e-05
-3.150897e-05
-3.15159444e-05
-3.14847491e-05
-3.15092601e-05
-3.14656395e-05
-3.00230035e-05
-2.99563109e-05
-3.0863798e-05
-3.14996983e-05
-3.15108571e-05
-3.14836266e-05
-3.01316106e-05
-3.01295121e-05
-3.0547774e-05
-3.06326138e-05
-3.0725535e-05
-3.09195925e-05
-3.15126055e-05
-3.15225628e-05
-3.14979179e-05
-3.0432088e-05
-3.04206664e-05
-3.0923585e-05
-3.15125785e-05
-3.1506488e-05
-3.05107587e-05
-3.07767385e-05
-3.15243799e-05
-3.14988747e-05
-3.05101048e-05
-3.06842984e-05
-3.15270344e-05
-3.1497409e-05
-3.05096346e-05
-3.05068989e-05
-3.06635584e-05
-3.09187899e-05
-3.15168779e-05
-3.15237475e-05
-3.15055561e-05
-3.05296465e-05
-3.04767424e-05
-3.09146656e-05
-3.15094832e-05
-3.15172637e-05
-3.06336504e-05
-3.09216555e-05
-3.15118669e-05
-3.15098107e-05
-3.15080263e-05
-3.14959201e-05
-3.15020275e-05
-3.14817625e-05
-3.14926202e-05
-3.14696082e-05
-2.98961112e-05
-2.98919548e-05
-3.02203733e-05
-3.06560626e-05
-3.14903107e-05
-3.15037697e-05
-3.14777343e-05
-3.00840903e-05
-3.00714893e-05
-3.04811205e-05
-3.04239854e-05
-3.08766446e-05
-3.15057842e-05
-3.15201867e-05
-3.14967922e-05
-3.15168781e-05
-3.14878829e-05
-3.15106617e-05
-3.1476679e-05
-3.01520089e-05
-3.01373923e-05
-3.05822116e-05
-3.04744251e-05
-3.0926161e-05
-3.15000353e-05
-3.15138709e-05
-3.06599653e-05
-3.06978861e-05
-3.07815038e-05
-3.09185817e-05
-3.15058048e-05
-3.15171006e-05
-3.07002963e-05
-3.09309203e-05
-3.15126838e-05
-3.15119429e-05
-3.15089088e-05
-3.15000832e-05
-3.02366543e-05
-3.02044808e-05
-3.07685601e-05
-3.15130285e-05
-3.14880715e-05
-3.03982873e-05
-3.0390466e-05
-3.07871921e-05
-3.1506511e-05
-3.15147029e-05
-3.14942859e-05
-3.15107856e-05
-3.14812684e-05
-3.01866537e-05
-3.00581008e-05
-3.07172413e-05
-3.14931151e-05
-3.14854911e-05
-3.03427921e-05
-3.07176456e-05
-3.15057055e-05
-3.14685388e-05
-3.02560719e-05
-3.02460066e-05
-3.07101931e-05
-3.15032499e-05
-3.15092095e-05
-3.14898083e-05
-3.15055085e-05
-3.14750863e-05
-3.02698193e-05
-3.00903759e-05
-3.08185938e-05
-3.15055621e-05
-3.1506588e-05
-3.1488928e-05
-3.04813639e-05
-3.07673415e-05
-3.15082828e-05
-3.15107758e-05
-3.1494909e-05
-3.03660991e-05
-3.03592361e-05
-3.05656515e-05
-3.08244859e-05
-3.15186719e-05
-3.15243804e-05
-3.1500846e-05
-3.0470455e-05
-3.03988362e-05
-3.09253144e-05
-3.15171931e-05
-3.15038686e-05
-3.0517192e-05
-3.08546272e-05
-3.15330394e-05
-3.14963308e-05
-3.05079839e-05
-3.05015977e-05
-3.09092647e-05
-3.15097957e-05
-3.15119664e-05
-3.15045711e-05
-3.148525e-05
-3.02969707e-05
-3.07445052e-05
-3.14881309e-05
-3.14970353e-05
-3.14598958e-05
-3.01321312e-05
-3.01266201e-05
-3.0287945e-05
-3.07186359e-05
-3.14907031e-05
-3.14742731e-05
-3.1488328e-05
-3.14502387e-05
-3.03616907e-05
-3.03518704e-05
-3.09525463e-05
-3.14952351e-05
-3.14762278e-05
-3.06635786e-05
-3.06859951e-05
-3.08537943e-05
-3.09342268e-05
-3.15109793e-05
-3.14959351e-05
-3.07788678e-05
-3.09359918e-05
-3.15152573e-05
-3.14943314e-05
-3.15100071e-05
-3.14794762e-05
-3.02489517e-05
-3.02328339e-05
-3.09136685e-05
-3.15057963e-05
-3.15116518e-05
-3.14931093e-05
-3.03857836e-05
-3.03848229e-05
-3.05727073e-05
-3.09453001e-05
-3.15161105e-05
-3.14934115e-05
-3.0443959e-05
-3.04365361e-05
-3.09314604e-05
-3.15063247e-05
-3.15013566e-05
-3.04784998e-05
-3.08237913e-05
-3.15214726e-05
-3.14891458e-05
-3.03393694e-05
-3.03262216e-05
-3.09129855e-05
-3.15060612e-05
-3.15078926e-05
-3.04483776e-05
-3.0744269e-05
-3.15164088e-05
-3.15002644e-05
-3.04560165e-05
-3.06967828e-05
-3.15191085e-05
-3.15042912e-05
-3.04466611e-05
-3.08527667e-05
-3.15220176e-05
-3.15052667e-05
-3.1515336e-05
-3.14909621e-05
-3.15061044e-05
-3.14828175e-05
-3.02369185e-05
-3.02367502e-05
-3.05903666e-05
-3.09272424e-05
-3.15090291e-05
-3.15063817e-05
-3.06081943e-05
-3.09418142e-05
-3.15168133e-05
-3.15026276e-05
-3.15099539e-05
-3.1493094e-05
-3.02668658e-05
-3.02676117e-05
-3.05676249e-05
-3.08638082e-05
-3.151589e-05
-3.15222094e-05
-3.15009925e-05
-3.15169175e-05
-3.1486013e-05
-3.02809232e-05
-3.02705745e-05
-3.06630451e-05
-3.06091232e-05
-3.09176203e-05
-3.15093106e-05
-3.15153565e-05
-3.06509565e-05
-3.08507198e-05
-3.15235225e-05
-3.15081789e-05
-3.05930048e-05
-3.08202996e-05
-3.15319107e-05
-3.14999797e-05
-3.04415769e-05
-3.04328677e-05
-3.09085169e-05
-3.1509314e-05
-3.15219011e-05
-3.05814401e-05
-3.08585146e-05
-3.15188607e-05
-3.15149298e-05
-3.05394422e-05
-3.08642241e-05
-3.15258871e-05
-3.15091698e-05
-3.15182912e-05
-3.14983554e-05
-3.01953474e-05
-3.01937649e-05
-3.05268944e-05
-3.08647877e-05
-3.15202398e-05
-3.15061068e-05
-3.05241579e-05
-3.07967688e-05
-3.15273374e-05
-3.14862445e-05
-3.03107302e-05
-3.0292769e-05
-3.08872562e-05
-3.1501197e-05
-3.15298247e-05
-3.1490623e-05
-3.152148e-05
-3.14794855e-05
-3.02477168e-05
-3.01468215e-05
-3.09040149e-05
-3.1501386e-05
-3.15150116e-05
-3.04481042e-05
-3.04612986e-05
-3.06612466e-05
-3.09184224e-05
-3.15250329e-05
-3.15269221e-05
-3.06194346e-05
-3.07774283e-05
-3.15321272e-05
-3.15176931e-05
-3.05718751e-05
-3.07106535e-05
-3.15309752e-05
-3.15095868e-05
-3.05195338e-05
-3.05175183e-05
-3.07641832e-05
-3.09160934e-05
-3.15208241e-05
-3.15251832e-05
-3.06600367e-05
-3.09204425e-05
-3.15124618e-05
-3.15179359e-05
-3.15112852e-05
-3.06061861e-05
-3.08267927e-05
-3.15063778e-05
-3.1512491e-05
-3.14981003e-05
-3.02784901e-05
-3.02178633e-05
-3.09286533e-05
-3.15044794e-05
-3.1500526e-05
-3.14981142e-05
-3.14863339e-05
-3.14894571e-05
-3.14701317e-05
-2.99912526e-05
-2.99825458e-05
-3.05180917e-05
-3.05363042e-05
-3.07708598e-05
-3.0741539e-05
-3.09544669e-05
-3.14946146e-05
-3.1482158e-05
-3.03482078e-05
-3.03176546e-05
-3.09178013e-05
-3.148768e-05
-3.15203012e-05
-3.14749236e-05
-3.15116999e-05
-3.14625651e-05
-3.03593308e-05
-3.03467041e-05
-3.15029926e-05
-3.14615025e-05
-3.03444959e-05
-3.03375048e-05
-3.06003749e-05
-3.09424423e-05
-3.15055733e-05
-3.14883307e-05
-3.15004015e-05
-3.14744781e-05
-3.00645951e-05
-3.00535309e-05
-3.05439914e-05
-3.05288222e-05
-3.09759072e-05
-3.14803375e-05
-3.15019047e-05
-3.1480101e-05
-3.07646928e-05
-3.09265797e-05
-3.15112852e-05
-3.14818295e-05
-3.15045496e-05
-3.14719753e-05
-3.0168684e-05
-3.0151726e-05
-3.09340858e-05
-3.14904521e-05
-3.14980768e-05
-3.04300758e-05
-3.07525343e-05
-3.15073273e-05
-3.14936676e-05
-3.0437465e-05
-3.06885836e-05
-3.15229677e-05
-3.1495645e-05
-3.036194e-05
-3.03546491e-05
-3.09122686e-05
-3.15290386e-05
-3.15269848e-05
-3.15333114e-05
-3.15145963e-05
-3.15310787e-05
-3.15010554e-05
-3.15185458e-05
-3.14927995e-05
-3.02630166e-05
-3.01354925e-05
-3.04121744e-05
-3.08349169e-05
-3.1527316e-05
-3.14825082e-05
-3.04024981e-05
-3.0394081e-05
-3.06571023e-05
-3.0935915e-05
-3.15060312e-05
-3.14846934e-05
-3.14962415e-05
-3.14687901e-05
-3.02329019e-05
-3.02319638e-05
-3.06266409e-05
-3.09504808e-05
-3.15045335e-05
-3.14853383e-05
-3.05781001e-05
-3.07892352e-05
-3.15127721e-05
-3.14775447e-05
-3.04790232e-05
-3.04758047e-05
-3.07671539e-05
-3.09360356e-05
-3.15184972e-05
-3.14864907e-05
-3.06902423e-05
-3.08568903e-05
-3.15257456e-05
-3.14733656e-05
-3.06077734e-05
-3.07664676e-05
-3.15259674e-05
-3.14624444e-05
-3.05486656e-05
-3.07126079e-05
-3.15218308e-05
-3.14528644e-05
-3.04997331e-05
-3.06813739e-05
-3.15150441e-05
-3.1444659e-05
-3.04234336e-05
-3.07010223e-05
-3.15094237e-05
-3.14389672e-05
-3.01435196e-05
-3.01170273e-05
-3.09300481e-05
-3.14743914e-05
-3.14728904e-05
-3.14770265e-05
-3.14385067e-05
-3.04314159e-05
-3.06536084e-05
-3.14856667e-05
-3.14363635e-05
-3.05002715e-05
-3.08977235e-05
-3.14915725e-05
-3.14423864e-05
-3.1484881e-05
-3.13723598e-05
-3.00072096e-05
-2.99837874e-05
-3.05509275e-05
-3.05323246e-05
-3.09569464e-05
-3.1475773e-05
-3.14675585e-05
-3.14769034e-05
-3.14455786e-05
-3.05668561e-05
-3.08513226e-05
-3.14767667e-05
-3.14874313e-05
-3.144348e-05
-3.14827147e-05
-3.14135505e-05
-2.98724901e-05
-2.98423756e-05
-3.09558482e-05
-3.14848025e-05
-3.1451165e-05
-3.02733733e-05
-3.02692366e-05
-3.06657553e-05
-3.0688807e-05
-3.09514429e-05
-3.14977081e-05
-3.14696794e-05
-3.06206774e-05
-3.08551601e-05
-3.15055831e-05
-3.14546107e-05
-3.04676277e-05
-3.04623482e-05
-3.07634912e-05
-3.09372559e-05
-3.14987682e-05
-3.14678935e-05
-3.05408563e-05
-3.09509742e-05
-3.14970242e-05
-3.15067672e-05
-3.146418e-05
-3.03936889e-05
-3.06840469e-05
-3.15046394e-05
-3.15070938e-05
-3.15158908e-05
-3.14959082e-05
-3.15501711e-05
-3.14728301e-05
-3.09095258e-05
-3.01505378e-05
-3.03080731e-05
-3.06090123e-05
-3.09426022e-05
-3.14989213e-05
-3.14513642e-05
-3.04828003e-05
-3.0472814e-05
-3.09500332e-05
-3.14775247e-05
-3.14665778e-05
-3.06024058e-05
-3.09544771e-05
-3.14906259e-05
-3.14957619e-05
-3.14605117e-05
-3.05036406e-05
-3.07784875e-05
-3.14834464e-05
-3.14909916e-05
-3.14527528e-05
-2.98957265e-05
-2.98909633e-05
-3.05244339e-05
-3.05759319e-05
-3.07552567e-05
-3.09701864e-05
-3.15007362e-05
-3.1492696e-05
-3.14966036e-05
-3.14813305e-05
-3.1492332e-05
-3.14897817e-05
-3.14828223e-05
-3.11294354e-05
-3.00164001e-05
-3.00253115e-05
-3.05333247e-05
-3.0590046e-05
-3.07180463e-05
-3.09221065e-05
-3.14919146e-05
-3.15239193e-05
-3.1461079e-05
-3.15154087e-05
-3.14488543e-05
-3.0216918e-05
-3.01984137e-05
-3.06312758e-05
-3.06027735e-05
-3.09386373e-05
-3.14901725e-05
-3.15246651e-05
-3.14839783e-05
-3.03238756e-05
-3.03148177e-05
-3.07577035e-05
-3.09582803e-05
-3.1497741e-05
-3.15098855e-05
-3.14811839e-05
-3.02276708e-05
-3.02134102e-05
-3.05666258e-05
-3.04595122e-05
-3.08297902e-05
-3.14958934e-05
-3.14929878e-05
-3.14671846e-05
-3.14866018e-05
-3.07663959e-05
-3.09452361e-05
-3.15044632e-05
-3.15153566e-05
-3.14940337e-05
-3.1509154e-05
-3.14892034e-05
-3.05433759e-05
-3.08320602e-05
-3.14921734e-05
-3.14983762e-05
-3.14862843e-05
-3.02656248e-05
-3.02646502e-05
-3.05340596e-05
-3.0929495e-05
-3.15113905e-05
-3.14992982e-05
-3.15079818e-05
-3.14814229e-05
-3.02821809e-05
-3.02721984e-05
-3.06637179e-05
-3.0687889e-05
-3.09039108e-05
-3.09774701e-05
-3.15231311e-05
-3.15030553e-05
-3.06978447e-05
-3.0782303e-05
-3.15243724e-05
-3.15011005e-05
-3.05620831e-05
-3.07478451e-05
-3.15116145e-05
-3.15047602e-05
-3.03656674e-05
-3.09313944e-05
-3.14972917e-05
-3.15069562e-05
-3.14857109e-05
-3.01945958e-05
-3.01757824e-05
-3.05368095e-05
-3.08553096e-05
-3.14945549e-05
-3.14990902e-05
-3.0338936e-05
-3.07820744e-05
-3.14948275e-05
-3.15030028e-05
-3.14845583e-05
-3.05083014e-05
-3.08889749e-05
-3.14939886e-05
-3.14993468e-05
-3.14870786e-05
-3.04437962e-05
-3.043781e-05
-3.07662912e-05
-3.09284969e-05
-3.15101106e-05
-3.15043152e-05
-3.07161866e-05
-3.08331464e-05
-3.15212207e-05
-3.14991001e-05
-3.06291142e-05
-3.0733998e-05
-3.1522301e-05
-3.14941361e-05
-3.05610068e-05
-3.06754577e-05
-3.15157079e-05
-3.14938426e-05
-3.0481562e-05
-3.06637918e-05
-3.15051002e-05
-3.14981661e-05
-3.02847429e-05
-3.0850413e-05
-3.15012095e-05
-3.15104337e-05
-3.14936676e-05
-3.02508161e-05
-3.02347274e-05
-3.05743262e-05
-3.09216992e-05
-3.15007637e-05
-3.15183131e-05
-3.14948936e-05
-3.15047908e-05
-3.02546748e-05
-3.07123696e-05
-3.1496819e-05
-3.15068741e-05
-3.14891713e-05
-3.03055089e-05
-3.02926044e-05
-3.06596355e-05
-3.09006146e-05
-3.15020691e-05
-3.15056084e-05
-3.06602639e-05
-3.07963717e-05
-3.15123666e-05
-3.15044931e-05
-3.0561235e-05
-3.074639e-05
-3.15237331e-05
-3.1496611e-05
-3.03995917e-05
-3.03886948e-05
-3.09108395e-05
-3.14992387e-05
-3.15231002e-05
-3.04367942e-05
-3.08890768e-05
-3.150693e-05
-3.15131717e-05
-3.15057996e-05
-3.04065512e-05
-3.03865932e-05
-3.06508269e-05
-3.09159417e-05
-3.14931652e-05
-3.15179322e-05
-3.04590687e-05
-3.0799853e-05
-3.15019628e-05
-3.15151211e-05
-3.14965417e-05
-3.02235902e-05
-3.02407839e-05
-3.1508584e-05
-3.14941339e-05
-3.15044967e-05
-3.14900897e-05
-3.02718597e-05
-3.02666685e-05
-3.05830485e-05
-3.05834895e-05
-3.07788004e-05
-3.09879462e-05
-3.15452155e-05
-3.15331289e-05
-3.07426442e-05
-3.08891822e-05
-3.15805964e-05
-3.15367856e-05
-3.08764924e-05
-3.05537195e-05
-3.08822792e-05
-3.15454162e-05
-3.15661297e-05
-3.15393271e-05
-3.15545492e-05
-3.15301322e-05
-3.15423062e-05
-3.03787765e-05
-3.03475401e-05
-3.0617716e-05
-3.06633309e-05
-3.06938721e-05
-3.09188672e-05
-3.15378795e-05
-3.15414877e-05
-3.04896232e-05
-3.0462627e-05
-3.08902004e-05
-3.15458501e-05
-3.15673326e-05
-3.0569276e-05
-3.07847478e-05
-3.15646314e-05
-3.1566446e-05
-3.0661032e-05
-3.08994316e-05
-3.15798682e-05
-3.15553769e-05
-3.08240192e-05
-3.06393296e-05
-3.07957554e-05
-3.07313794e-05
-3.08756566e-05
-3.15328353e-05
-3.15832792e-05
-3.06597215e-05
-3.08909142e-05
-3.15410754e-05
-3.15475358e-05
-3.15407412e-05
-3.03960152e-05
-3.02772033e-05
-3.05157651e-05
-3.06048587e-05
-3.05738096e-05
-3.09127728e-05
-3.15295651e-05
-3.15301876e-05
-3.15246958e-05
-3.1524208e-05
-3.15195985e-05
-3.15202878e-05
-3.15130198e-05
-3.15186712e-05
-3.1504598e-05
-3.15157664e-05
-3.02167765e-05
-3.0196385e-05
-3.0501405e-05
-3.05726394e-05
-3.10943243e-05
-3.15044433e-05
-3.1492964e-05
-3.15051665e-05
-3.15000962e-05
-3.04169858e-05
-3.02598045e-05
-3.0503682e-05
-3.04598007e-05
-3.05954714e-05
-3.06120081e-05
-3.07451901e-05
-3.06872295e-05
-3.09147914e-05
-3.15155506e-05
-3.15391315e-05
-3.15138624e-05
-3.1528813e-05
-3.05526697e-05
-3.07407119e-05
-3.15180132e-05
-3.15101912e-05
-3.15126898e-05
-3.14956308e-05
-3.02838128e-05
-3.02775916e-05
-3.06482954e-05
-3.06058179e-05
-3.09133067e-05
-3.10156651e-05
-3.15153648e-05
-3.15033729e-05
-3.06814624e-05
-3.0691339e-05
-3.15193655e-05
-3.14999821e-05
-3.04817369e-05
-3.04810893e-05
-3.07369274e-05
-3.09488428e-05
-3.15050751e-05
-3.15201267e-05
-3.14935377e-05
-3.15126591e-05
-3.14775318e-05
-3.01100948e-05
-2.99418802e-05
-3.09408373e-05
-3.15005263e-05
-3.15031483e-05
-3.14859645e-05
-3.02154635e-05
-3.02137532e-05
-3.0646774e-05
-3.06428198e-05
-3.09535134e-05
-3.15058957e-05
-3.14828855e-05
-3.06804933e-05
-3.06796095e-05
-3.15296861e-05
-3.14578893e-05
-3.08500651e-05
-3.14594423e-05
-3.15095765e-05
-2.9959713e-05
-3.09138227e-05
-3.14585262e-05
-3.04586629e-05
-3.01734949e-05
-3.09252202e-05
-3.14733067e-05
-3.14866185e-05
-3.03207992e-05
-3.0320027e-05
-3.09402938e-05
-3.14874602e-05
-3.14814046e-05
-3.1485363e-05
-3.14648987e-05
-3.01323516e-05
-3.01172164e-05
-3.09380749e-05
-3.14803136e-05
-3.14909872e-05
-3.049384e-05
-3.09495944e-05
-3.1495613e-05
-3.14864582e-05
-3.14898931e-05
-3.14780665e-05
-3.03630573e-05
-3.06697963e-05
-3.14840799e-05
-3.14952973e-05
-3.14718986e-05
-3.05068666e-05
-3.05223607e-05
-3.15069987e-05
-3.14664665e-05
-3.04121251e-05
-3.05727604e-05
-3.15110195e-05
-3.14653869e-05
-3.01523729e-05
-3.01331056e-05
-3.060212e-05
-3.0595985e-05
-3.08968653e-05
-3.11240728e-05
-3.15036769e-05
-3.14778144e-05
-3.15012037e-05
-3.14933282e-05
-3.15154726e-05
-3.14986194e-05
-3.1552084e-05
-3.1492158e-05
-3.09242141e-05
-3.01328002e-05
-3.02150739e-05
-3.06008641e-05
-3.06369865e-05
-3.0794741e-05
-3.09830451e-05
-3.15094483e-05
-3.14759209e-05
-3.1501357e-05
-3.14698223e-05
-3.01685518e-05
-3.01583201e-05
-3.06367753e-05
-3.06825101e-05
-3.07311589e-05
-3.0919987e-05
-3.1524491e-05
-3.15163392e-05
-3.04368483e-05
-3.04351609e-05
-3.0847183e-05
-3.09707719e-05
-3.14944796e-05
-3.15174595e-05
-3.14709667e-05
-3.15112627e-05
-3.14658234e-05
-3.05859929e-05
-3.08361376e-05
-3.14867773e-05
-3.14909876e-05
-3.14776441e-05
-3.01591665e-05
-3.01533868e-05
-3.05996906e-05
-3.06042148e-05
-3.09709997e-05
-3.15037463e-05
-3.14697672e-05
-3.150212e-05
-3.14491389e-05
-3.03217408e-05
-3.03096224e-05
-3.09955303e-05
-3.14768964e-05
-3.14834737e-05
-3.14823189e-05
-3.1491294e-05
-3.1479042e-05
-3.11030981e-05
-3.0319799e-05
-3.03254835e-05
-3.0677833e-05
-3.06184183e-05
-3.09346012e-05
-3.14861178e-05
-3.14541272e-05
-3.01940272e-05
-3.01802147e-05
-3.05500978e-05
-3.04673758e-05
-3.09288565e-05
-3.14865404e-05
-3.1470785e-05
-3.14833124e-05
-3.13677721e-05
-3.04610392e-05
-3.08500113e-05
-3.14818138e-05
-3.14875776e-05
-3.14526165e-05
-3.03144768e-05
-3.03159178e-05
-3.07799605e-05
-3.09371947e-05
-3.14774979e-05
-3.15259527e-05
-3.14358885e-05
-3.06683305e-05
-3.07940351e-05
-3.15344196e-05
-3.14250226e-05
-3.05912782e-05
-3.08407816e-05
-3.15321731e-05
-3.14178312e-05
-3.05591323e-05
-3.08528539e-05
-3.152392e-05
-3.14091013e-05
-3.02473504e-05
-3.02224922e-05
-3.05407902e-05
-3.05808952e-05
-3.07317485e-05
-3.07544727e-05
-3.09616541e-05
-3.15027422e-05
-3.14606319e-05
-3.14992305e-05
-3.1423204e-05
-3.06543931e-05
-3.09665736e-05
-3.14957298e-05
-3.1497209e-05
-3.14683716e-05
-3.14889478e-05
-3.12731923e-05
-3.03325173e-05
-3.08121094e-05
-3.14739225e-05
-3.14837347e-05
-3.13769752e-05
-3.01627538e-05
-3.01581298e-05
-3.05330324e-05
-3.09443695e-05
-3.14866024e-05
-3.15031524e-05
-3.14369114e-05
-3.04623789e-05
-3.08100668e-05
-3.14866113e-05
-3.1495323e-05
-3.14406136e-05
-3.01291655e-05
-3.01310012e-05
-3.05899157e-05
-3.09185022e-05
-3.15084855e-05
-3.15305605e-05
-3.14790964e-05
-3.15172564e-05
-3.14560641e-05
-3.03906866e-05
-3.02869414e-05
-3.09156634e-05
-3.14953491e-05
-3.14912162e-05
-3.14989538e-05
-3.14570879e-05
-3.0362372e-05
-3.0359999e-05
-3.06509087e-05
-3.09282116e-05
-3.15098331e-05
-3.1478614e-05
-3.15067961e-05
-3.14462382e-05
-3.02345079e-05
-3.02197401e-05
-3.06102591e-05
-3.05421712e-05
-3.09203427e-05
-3.14961674e-05
-3.1512457e-05
-3.14718528e-05
-3.0409191e-05
-3.02369226e-05
-3.09336586e-05
-3.14981747e-05
-3.15060449e-05
-3.14791415e-05
-3.06355973e-05
-3.08633902e-05
-3.14868102e-05
-3.14946207e-05
-3.14672625e-05
-3.02429027e-05
-3.02369315e-05
-3.05995895e-05
-3.04622581e-05
-3.09224819e-05
-3.15083352e-05
-3.15026041e-05
-3.1508921e-05
-3.14767514e-05
-3.02137073e-05
-3.02051282e-05
-3.05884727e-05
-3.0433898e-05
-3.09184207e-05
-3.15151412e-05
-3.15170983e-05
-3.15030286e-05
-3.05801651e-05
-3.07927657e-05
-3.15096885e-05
-3.15185308e-05
-3.14947462e-05
-3.04080782e-05
-3.02079027e-05
-3.09212876e-05
-3.15170589e-05
-3.15203665e-05
-3.15053544e-05
-3.15118045e-05
-3.14908217e-05
-3.02132084e-05
-3.02106445e-05
-3.04086465e-05
-3.07817113e-05
-3.15119401e-05
-3.1510206e-05
-3.15105149e-05
-3.1497714e-05
-3.03350956e-05
-3.03327458e-05
-3.05971743e-05
-3.06893014e-05
-3.0737344e-05
-3.09075736e-05
-3.15194048e-05
-3.15294134e-05
-3.07000216e-05
-3.09196885e-05
-3.15306419e-05
-3.15332615e-05
-3.15251049e-05
-3.15193535e-05
-3.05021395e-05
-3.06816571e-05
-3.15197997e-05
-3.15151105e-05
-3.15109473e-05
-3.14919594e-05
-3.02084324e-05
-3.02005052e-05
-3.0469942e-05
-3.02772255e-05
-3.06407927e-05
-3.15004068e-05
-3.14937966e-05
-3.14759846e-05
-3.14838534e-05
-3.08429054e-05
-3.14980679e-05
-3.14948923e-05
-3.03999397e-05
-3.07539995e-05
-3.15152232e-05
-3.15274375e-05
-3.1504458e-05
-3.03586023e-05
-3.02997368e-05
-3.0645375e-05
-3.04507034e-05
-3.09089169e-05
-3.15183223e-05
-3.15309429e-05
-3.15016159e-05
-3.03439682e-05
-3.02307968e-05
-3.05593627e-05
-3.03781074e-05
-3.08037538e-05
-3.1516902e-05
-3.15167846e-05
-3.15119355e-05
-3.15150961e-05
-3.15072998e-05
-3.15102936e-05
-3.15035746e-05
-3.14992118e-05