/*--------------------------------*- C++ -*----------------------------------*\
| =========                 |                                                 |
| \\      /  F ield         | OpenFOAM: The Open Source CFD Toolbox           |
|  \\    /   O peration     | Version:  2306                                  |
|   \\  /    A nd           | Website:  www.openfoam.com                      |
|    \\/     M anipulation  |                                                 |
\*---------------------------------------------------------------------------*/
FoamFile
{
    version     2.0;
    format      ascii;
    arch        "LSB;label=32;scalar=64";
    class       volScalarField;
    location    "0.00178";
    object      H2;
}
// * * * * * * * * * * * * * * * * * * * * * * * * * * * * * * * * * * * * * //

dimensions      [0 0 0 0 0 0 0];

internalField   nonuniform List<scalar> 
530
(
6.32554428e-05
8.9080623e-05
5.1801921e-08
4.34945873e-08
6.28695327e-05
7.92522723e-05
1.71857975e-07
4.63634616e-08
6.23369495e-05
7.01872987e-05
4.91735086e-08
4.90744124e-08
6.29711942e-05
6.10709819e-05
5.15031112e-08
5.13382064e-08
6.48894931e-05
5.26266016e-05
5.35126779e-08
5.3686359e-08
6.57597801e-05
4.75558682e-05
5.59962224e-08
5.61587963e-08
6.33773842e-05
4.60209559e-05
5.88071858e-08
5.88578432e-08
5.97164687e-05
4.4847953e-05
6.17420185e-08
6.15598812e-08
5.71694418e-05
4.29170289e-05
6.45400677e-08
6.43060522e-08
5.53837648e-05
4.09400203e-05
6.72206502e-08
6.70249086e-08
5.41626855e-05
3.90588165e-05
1.38988343e-07
6.97287213e-08
5.32282589e-05
3.74561423e-05
6.7725376e-07
7.22715208e-08
5.23375694e-05
3.64242777e-05
7.31920575e-07
7.50623955e-08
5.05211668e-05
3.63576535e-05
4.41057545e-07
3.0017587e-07
4.82184874e-05
3.67647774e-05
8.00402622e-08
3.88720364e-07
4.63672345e-05
3.68330899e-05
8.24463982e-08
8.28884516e-08
4.47306235e-05
3.72894768e-05
8.47712428e-08
8.50551881e-08
4.34719618e-05
3.76575484e-05
8.69512223e-08
8.71242335e-08
4.26544722e-05
3.76504907e-05
8.90275179e-08
8.91399711e-08
4.2121036e-05
3.73264064e-05
9.10119796e-08
9.11553522e-08
4.17144976e-05
3.68690949e-05
9.30950368e-08
9.32916964e-08
4.12566102e-05
3.64507516e-05
9.54870391e-08
9.56863612e-08
4.07471461e-05
3.59856267e-05
9.78919912e-08
9.80333486e-08
4.06448425e-05
3.54151918e-05
1.00340062e-07
1.00490806e-07
4.02448246e-05
3.48699528e-05
1.02879646e-07
1.03023035e-07
3.95281938e-05
3.40074401e-05
1.05386969e-07
1.05524547e-07
3.89872131e-05
3.33223998e-05
1.07839809e-07
1.08017918e-07
3.83985081e-05
3.27006285e-05
1.10319679e-07
1.10518844e-07
3.76986188e-05
3.2150517e-05
1.12777043e-07
1.12973207e-07
3.6964255e-05
3.16470288e-05
1.15676544e-07
1.15890694e-07
3.6194398e-05
3.11577057e-05
1.18767306e-07
1.18980217e-07
3.5424274e-05
3.06399663e-05
1.21891733e-07
1.22060191e-07
3.46342509e-05
3.01754431e-05
1.24952335e-07
1.25134234e-07
3.39372092e-05
2.9697905e-05
1.2803308e-07
1.28220744e-07
3.33696246e-05
2.93055395e-05
1.31104857e-07
1.31278359e-07
3.28430635e-05
2.89596197e-05
1.34172772e-07
1.34303957e-07
3.24022936e-05
2.82218345e-05
1.37332551e-07
1.37407281e-07
3.21711597e-05
2.76905635e-05
1.40347598e-07
1.4081457e-07
3.21873818e-05
2.6863544e-05
1.44149127e-07
1.44743607e-07
3.18445849e-05
2.64708825e-05
1.47954123e-07
1.48564554e-07
3.13547262e-05
2.62660372e-05
1.51710436e-07
1.52392441e-07
3.11065256e-05
2.58884442e-05
1.55718385e-07
1.56301946e-07
3.09645044e-05
2.56975608e-05
1.59913274e-07
1.60402564e-07
3.0290975e-05
2.54300967e-05
1.64216167e-07
1.64680581e-07
2.96137469e-05
2.48847206e-05
1.6864924e-07
1.69046736e-07
2.90383685e-05
2.44091781e-05
1.73000078e-07
1.73458662e-07
2.8586484e-05
2.3910625e-05
1.78331155e-07
1.78868023e-07
2.80298965e-05
2.34135251e-05
1.83817963e-07
1.84355747e-07
2.734409e-05
2.2947119e-05
1.89427822e-07
1.89860939e-07
2.66365316e-05
2.26075621e-05
1.95054317e-07
1.95338767e-07
2.57437622e-05
2.23573455e-05
2.00296256e-07
2.00581543e-07
2.51290626e-05
2.17691516e-05
2.05425374e-07
2.05499404e-07
2.49066121e-05
2.19769447e-05
2.10049431e-07
2.10373253e-07
2.47788355e-05
2.17094181e-05
2.14715201e-07
2.15247852e-07
2.48497677e-05
2.13243384e-05
2.19845947e-07
2.20770717e-07
2.48975387e-05
2.09008248e-05
2.25392221e-07
2.26603261e-07
2.48265185e-05
2.0430401e-05
2.30958942e-07
2.32370393e-07
2.47117791e-05
1.99246168e-05
2.36564357e-07
2.38095704e-07
2.45233363e-05
1.94316169e-05
2.42187327e-07
2.43912904e-07
2.41546016e-05
1.89809257e-05
2.48017522e-07
2.49757877e-07
2.37991994e-05
1.8560034e-05
2.53990801e-07
2.55668348e-07
2.33723787e-05
1.81408438e-05
2.59967712e-07
2.61721383e-07
2.30048339e-05
1.7606059e-05
2.65975898e-07
2.6776726e-07
2.26618246e-05
1.71103029e-05
2.71918233e-07
2.73823008e-07
2.22690421e-05
1.66679085e-05
2.78435374e-07
2.80540883e-07
2.16934517e-05
1.62371521e-05
2.8533915e-07
2.87531872e-07
2.11757945e-05
1.56864963e-05
2.9215592e-07
2.94563137e-07
2.06253789e-05
1.51193395e-05
2.99061274e-07
3.0159355e-07
1.98649163e-05
1.4532896e-05
3.06131036e-07
3.08655114e-07
1.89873401e-05
1.39107668e-05
3.13198653e-07
3.15704863e-07
1.82304483e-05
1.33222184e-05
3.20068409e-07
3.22550566e-07
1.77466082e-05
1.29551256e-05
3.26572956e-07
3.2914329e-07
1.75698202e-05
1.26791712e-05
3.32695173e-07
3.35501893e-07
1.75148852e-05
1.24946942e-05
3.38605868e-07
3.4161303e-07
1.73535062e-05
1.24522212e-05
3.44509458e-07
3.47468813e-07
1.69952208e-05
1.24908171e-05
3.50443037e-07
3.53167392e-07
1.65559951e-05
1.24988881e-05
3.5638464e-07
3.58815875e-07
1.60681552e-05
1.24524626e-05
3.62767707e-07
3.6522203e-07
1.55654766e-05
1.23339971e-05
3.6958305e-07
3.71569822e-07
1.50196329e-05
1.2203299e-05
3.76345998e-07
3.77849469e-07
1.46322672e-05
1.20366316e-05
3.82820321e-07
3.84071136e-07
1.43133704e-05
1.18152127e-05
3.89045794e-07
3.90258847e-07
1.3980543e-05
1.15272497e-05
3.95093034e-07
3.9642988e-07
1.36618934e-05
1.11750897e-05
4.00959427e-07
4.02497825e-07
1.33677338e-05
1.07438778e-05
4.06663388e-07
4.08210458e-07
1.30743729e-05
1.0318087e-05
4.12261269e-07
4.13816708e-07
1.27405172e-05
9.89719975e-06
4.17821672e-07
4.19288576e-07
1.23309698e-05
9.49220691e-06
4.23387549e-07
4.24619066e-07
1.18390195e-05
9.11400248e-06
4.28973866e-07
4.29795549e-07
1.13108384e-05
8.75695777e-06
4.34181044e-07
4.34818449e-07
1.06610115e-05
8.39125802e-06
4.39117096e-07
4.39694662e-07
1.00610857e-05
8.01208818e-06
4.43934876e-07
4.44435965e-07
9.5050208e-06
7.62883024e-06
4.48582997e-07
4.49032672e-07
8.98429908e-06
7.25377238e-06
4.53072107e-07
4.53478344e-07
8.48234671e-06
6.89186079e-06
4.57410308e-07
4.5777239e-07
7.99526147e-06
6.54026571e-06
4.61596763e-07
4.61917676e-07
7.52823141e-06
6.19409616e-06
4.65626127e-07
4.65917547e-07
7.08866539e-06
5.85137001e-06
4.6949875e-07
4.69771602e-07
6.67645329e-06
5.5170436e-06
4.73212469e-07
4.73479249e-07
6.28244997e-06
5.19785737e-06
4.76776145e-07
4.77030735e-07
5.90245475e-06
4.89787942e-06
4.80195127e-07
4.80425378e-07
5.53324653e-06
4.61462439e-06
4.83470615e-07
4.83680595e-07
5.1726704e-06
4.33568367e-06
4.86609314e-07
4.86793917e-07
4.82726935e-06
4.07831899e-06
4.89853537e-07
4.90036649e-07
4.50947701e-06
3.83536033e-06
4.92962416e-07
4.93117652e-07
4.21111668e-06
3.60280266e-06
4.95904636e-07
4.96036993e-07
3.93352703e-06
3.33860028e-06
4.98754683e-07
4.98816601e-07
3.67708158e-06
3.10633169e-06
5.01373797e-07
5.01452615e-07
3.4698372e-06
2.88026348e-06
5.03834737e-07
5.03946849e-07
3.26175858e-06
2.67890161e-06
5.06154633e-07
5.06286929e-07
3.06236189e-06
2.5375263e-06
5.08298439e-07
5.08481522e-07
2.85100098e-06
2.39872451e-06
5.10462157e-07
5.10640368e-07
2.54606099e-06
2.20515225e-06
5.129049e-07
5.13027604e-07
2.20784331e-06
1.86782697e-06
1.05908486e-06
9.04557177e-07
1.45956315e-06
1.26615856e-06
1.29358896e-06
1.12250937e-06
1.27114013e-06
1.1020878e-06
1.2262579e-06
1.05890437e-06
1.17796032e-06
1.01768009e-06
1.12426763e-06
9.765183e-07
1.0656487e-06
9.36195111e-07
1.00265664e-06
8.97285677e-07
9.3605355e-07
8.60550812e-07
8.73112296e-07
8.18815886e-07
8.16313691e-07
7.74270076e-07
7.65835118e-07
7.27635525e-07
7.19078368e-07
6.84507063e-07
6.76694916e-07
6.46308877e-07
6.39321633e-07
6.13954365e-07
6.07544674e-07
5.87742672e-07
5.81730438e-07
5.67409185e-07
5.61833339e-07
5.52231631e-07
5.47177099e-07
5.41146266e-07
5.36497224e-07
5.35548551e-07
5.35537759e-07
5.35529443e-07
5.35523908e-07
5.35520352e-07
5.35518346e-07
5.3551727e-07
5.35516772e-07
5.35516509e-07
5.35516414e-07
5.35516379e-07
5.35516368e-07
5.35516364e-07
5.35516363e-07
5.35516363e-07
5.35516363e-07
5.35516363e-07
5.35516363e-07
5.35516363e-07
5.35516363e-07
5.35516363e-07
5.35516363e-07
5.35516363e-07
5.35516363e-07
5.35516363e-07
5.35516363e-07
5.35516363e-07
5.35516363e-07
5.35516363e-07
5.35516363e-07
5.35516363e-07
5.35516363e-07
5.35516363e-07
5.35516363e-07
5.35516363e-07
)
;

boundaryField
{
    closed
    {
        type            calculated;
        value           nonuniform List<scalar> 0();
    }
    open
    {
        type            calculated;
        value           uniform 5.35516363e-07;
    }
    sides
    {
        type            empty;
    }
    procBoundary5to4
    {
        type            processor;
        value           uniform 4.04562437e-08;
    }
}


// ************************************************************************* //
