/*--------------------------------*- C++ -*----------------------------------*\
| =========                 |                                                 |
| \\      /  F ield         | OpenFOAM: The Open Source CFD Toolbox           |
|  \\    /   O peration     | Version:  2306                                  |
|   \\  /    A nd           | Website:  www.openfoam.com                      |
|    \\/     M anipulation  |                                                 |
\*---------------------------------------------------------------------------*/
FoamFile
{
    version     2.0;
    format      ascii;
    arch        "LSB;label=32;scalar=64";
    class       volVectorField;
    location    "0.00178";
    object      U;
}
// * * * * * * * * * * * * * * * * * * * * * * * * * * * * * * * * * * * * * //

dimensions      [0 1 -1 0 0 0 0];

internalField   nonuniform List<vector> 
530
(
(0.837092348 0 0)
(0.696882846 0 0)
(0.764523968 0 0)
(0.910826506 0 0)
(0.845779794 0 0)
(0.69346884 0 0)
(0.753349998 0 0)
(0.904595969 0 0)
(0.852330928 0 0)
(0.696782076 0 0)
(0.740562976 0 0)
(0.89184626 0 0)
(0.858836021 0 0)
(0.708952414 0 0)
(0.736536268 0 0)
(0.875788413 0 0)
(0.853663936 0 0)
(0.72093035 0 0)
(0.739914716 0 0)
(0.870086415 0 0)
(0.855455652 0 0)
(0.725515592 0 0)
(0.737263788 0 0)
(0.865270625 0 0)
(0.857359871 0 0)
(0.729240718 0 0)
(0.73195124 0 0)
(0.857518595 0 0)
(0.857133013 0 0)
(0.732532875 0 0)
(0.733616566 0 0)
(0.857692939 0 0)
(0.856701723 0 0)
(0.732934786 0 0)
(0.73471558 0 0)
(0.857997311 0 0)
(0.856538479 0 0)
(0.732777982 0 0)
(0.73438008 0 0)
(0.857767764 0 0)
(0.857186205 0 0)
(0.732899691 0 0)
(0.731638903 0 0)
(0.855024032 0 0)
(0.859834029 0 0)
(0.739046952 0 0)
(0.730971645 0 0)
(0.848833419 0 0)
(0.859779953 0 0)
(0.744331163 0 0)
(0.732523566 0 0)
(0.845055747 0 0)
(0.858985777 0 0)
(0.747714237 0 0)
(0.734261084 0 0)
(0.840925626 0 0)
(0.852015092 0 0)
(0.746554806 0 0)
(0.740208066 0 0)
(0.845617702 0 0)
(0.849681456 0 0)
(0.746541119 0 0)
(0.742998417 0 0)
(0.845661178 0 0)
(0.847417906 0 0)
(0.744995064 0 0)
(0.742968453 0 0)
(0.844354586 0 0)
(0.845885835 0 0)
(0.745277744 0 0)
(0.743513885 0 0)
(0.842062085 0 0)
(0.842471372 0 0)
(0.74435697 0 0)
(0.743465059 0 0)
(0.838782857 0 0)
(0.837952391 0 0)
(0.742258967 0 0)
(0.74198823 0 0)
(0.834721884 0 0)
(0.833407496 0 0)
(0.74047426 0 0)
(0.74073289 0 0)
(0.83071892 0 0)
(0.829489093 0 0)
(0.740611044 0 0)
(0.74134364 0 0)
(0.827508503 0 0)
(0.826225449 0 0)
(0.741747027 0 0)
(0.74412733 0 0)
(0.827603073 0 0)
(0.823371225 0 0)
(0.739654414 0 0)
(0.74442451 0 0)
(0.828262177 0 0)
(0.824137429 0 0)
(0.740179432 0 0)
(0.743957373 0 0)
(0.827432146 0 0)
(0.8252373 0 0)
(0.744369577 0 0)
(0.748941472 0 0)
(0.830792539 0 0)
(0.827823944 0 0)
(0.74756351 0 0)
(0.751502958 0 0)
(0.831992859 0 0)
(0.828517589 0 0)
(0.748109222 0 0)
(0.751637706 0 0)
(0.832072637 0 0)
(0.828938043 0 0)
(0.74865983 0 0)
(0.751875806 0 0)
(0.832154181 0 0)
(0.829392716 0 0)
(0.749657727 0 0)
(0.752469248 0 0)
(0.831728808 0 0)
(0.829439282 0 0)
(0.75111441 0 0)
(0.753791477 0 0)
(0.831950749 0 0)
(0.829690983 0 0)
(0.752342944 0 0)
(0.755301001 0 0)
(0.833029387 0 0)
(0.831799563 0 0)
(0.756185803 0 0)
(0.758574615 0 0)
(0.83429163 0 0)
(0.83348316 0 0)
(0.760584346 0 0)
(0.763801 0 0)
(0.83817521 0 0)
(0.836890206 0 0)
(0.765110054 0 0)
(0.769108494 0 0)
(0.843472685 0 0)
(0.842697512 0 0)
(0.772033451 0 0)
(0.776506868 0 0)
(0.850337959 0 0)
(0.849354988 0 0)
(0.779961021 0 0)
(0.78630392 0 0)
(0.860656689 0 0)
(0.859284484 0 0)
(0.789587672 0 0)
(0.79405451 0 0)
(0.866265531 0 0)
(0.862905403 0 0)
(0.792384739 0 0)
(0.796738067 0 0)
(0.867702777 0 0)
(0.864786291 0 0)
(0.79561744 0 0)
(0.799374805 0 0)
(0.86818285 0 0)
(0.866666291 0 0)
(0.800012703 0 0)
(0.801801138 0 0)
(0.867126093 0 0)
(0.864511242 0 0)
(0.798987762 0 0)
(0.801620184 0 0)
(0.86605914 0 0)
(0.86169687 0 0)
(0.795238457 0 0)
(0.79790343 0 0)
(0.863067352 0 0)
(0.860580829 0 0)
(0.79526556 0 0)
(0.797349256 0 0)
(0.862149337 0 0)
(0.860077348 0 0)
(0.795616934 0 0)
(0.799128487 0 0)
(0.865379196 0 0)
(0.864230181 0 0)
(0.799688135 0 0)
(0.802628664 0 0)
(0.869023537 0 0)
(0.868152795 0 0)
(0.803477301 0 0)
(0.805911549 0 0)
(0.871943784 0 0)
(0.87144644 0 0)
(0.807360854 0 0)
(0.809869532 0 0)
(0.876010862 0 0)
(0.875743241 0 0)
(0.811686058 0 0)
(0.814595522 0 0)
(0.881372445 0 0)
(0.880688013 0 0)
(0.816059775 0 0)
(0.819208694 0 0)
(0.886311885 0 0)
(0.887441185 0 0)
(0.824523996 0 0)
(0.825866264 0 0)
(0.889534077 0 0)
(0.889526392 0 0)
(0.830208429 0 0)
(0.835743229 0 0)
(0.899969853 0 0)
(0.899068464 0 0)
(0.838389938 0 0)
(0.841119415 0 0)
(0.903513427 0 0)
(0.903675448 0 0)
(0.844434044 0 0)
(0.846561777 0 0)
(0.907362832 0 0)
(0.908200709 0 0)
(0.850691226 0 0)
(0.851947237 0 0)
(0.910391416 0 0)
(0.912042333 0 0)
(0.857415705 0 0)
(0.8579916 0 0)
(0.913582379 0 0)
(0.91537174 0 0)
(0.863111966 0 0)
(0.863445231 0 0)
(0.916364165 0 0)
(0.917518472 0 0)
(0.867286738 0 0)
(0.867934761 0 0)
(0.918463609 0 0)
(0.918427859 0 0)
(0.869683827 0 0)
(0.870887113 0 0)
(0.919395156 0 0)
(0.91831326 0 0)
(0.87122064 0 0)
(0.873115459 0 0)
(0.919719261 0 0)
(0.917327776 0 0)
(0.871506408 0 0)
(0.874440821 0 0)
(0.920095426 0 0)
(0.91741089 0 0)
(0.872389762 0 0)
(0.875423568 0 0)
(0.920305772 0 0)
(0.917436509 0 0)
(0.872882991 0 0)
(0.876301146 0 0)
(0.920815032 0 0)
(0.917736853 0 0)
(0.873421889 0 0)
(0.876872342 0 0)
(0.921473107 0 0)
(0.918269486 0 0)
(0.874261373 0 0)
(0.877909502 0 0)
(0.922251388 0 0)
(0.9198618 0 0)
(0.877232714 0 0)
(0.88074041 0 0)
(0.924049727 0 0)
(0.922224628 0 0)
(0.880872566 0 0)
(0.884177361 0 0)
(0.926802816 0 0)
(0.925456749 0 0)
(0.88464333 0 0)
(0.887454348 0 0)
(0.92987149 0 0)
(0.928742072 0 0)
(0.887670748 0 0)
(0.889955637 0 0)
(0.932657998 0 0)
(0.931492836 0 0)
(0.889208988 0 0)
(0.890876665 0 0)
(0.934100182 0 0)
(0.932567322 0 0)
(0.888551958 0 0)
(0.889240242 0 0)
(0.932135113 0 0)
(0.929686465 0 0)
(0.88492588 0 0)
(0.885099166 0 0)
(0.926695248 0 0)
(0.923377212 0 0)
(0.878772086 0 0)
(0.878231394 0 0)
(0.917801421 0 0)
(0.91420834 0 0)
(0.871048038 0 0)
(0.870261687 0 0)
(0.908005661 0 0)
(0.904523659 0 0)
(0.863269193 0 0)
(0.862519154 0 0)
(0.899017015 0 0)
(0.896478227 0 0)
(0.857569247 0 0)
(0.857166517 0 0)
(0.892590655 0 0)
(0.890776597 0 0)
(0.854248444 0 0)
(0.854808727 0 0)
(0.889531232 0 0)
(0.888294623 0 0)
(0.853891144 0 0)
(0.855240772 0 0)
(0.889147456 0 0)
(0.887783659 0 0)
(0.855228815 0 0)
(0.858135263 0 0)
(0.891541258 0 0)
(0.889246091 0 0)
(0.857475452 0 0)
(0.86173853 0 0)
(0.894856076 0 0)
(0.891297253 0 0)
(0.859589805 0 0)
(0.864298986 0 0)
(0.896544686 0 0)
(0.892510094 0 0)
(0.861405008 0 0)
(0.86588136 0 0)
(0.896894596 0 0)
(0.892781101 0 0)
(0.862441481 0 0)
(0.866534709 0 0)
(0.896459836 0 0)
(0.892531828 0 0)
(0.862927688 0 0)
(0.866597882 0 0)
(0.895420322 0 0)
(0.891654985 0 0)
(0.863562409 0 0)
(0.867607337 0 0)
(0.894588658 0 0)
(0.890128641 0 0)
(0.863696261 0 0)
(0.868378275 0 0)
(0.893787092 0 0)
(0.888627448 0 0)
(0.863661152 0 0)
(0.869088792 0 0)
(0.893191872 0 0)
(0.887158917 0 0)
(0.863284316 0 0)
(0.86951767 0 0)
(0.892660793 0 0)
(0.885622809 0 0)
(0.862424273 0 0)
(0.8696048 0 0)
(0.892231063 0 0)
(0.884254408 0 0)
(0.861513532 0 0)
(0.868431395 0 0)
(0.889549096 0 0)
(0.882223393 0 0)
(0.861404438 0 0)
(0.86751219 0 0)
(0.886556874 0 0)
(0.879707082 0 0)
(0.860612454 0 0)
(0.86620434 0 0)
(0.883495306 0 0)
(0.877099072 0 0)
(0.859654982 0 0)
(0.864834064 0 0)
(0.880547471 0 0)
(0.874556869 0 0)
(0.858626062 0 0)
(0.863415865 0 0)
(0.877695213 0 0)
(0.872103686 0 0)
(0.85756113 0 0)
(0.86195765 0 0)
(0.874911321 0 0)
(0.869710185 0 0)
(0.856443745 0 0)
(0.860463338 0 0)
(0.872190719 0 0)
(0.867358504 0 0)
(0.855269438 0 0)
(0.858958335 0 0)
(0.869559279 0 0)
(0.865047687 0 0)
(0.854027319 0 0)
(0.857456708 0 0)
(0.867049616 0 0)
(0.862800264 0 0)
(0.852758329 0 0)
(0.856007066 0 0)
(0.864772808 0 0)
(0.86067969 0 0)
(0.851371478 0 0)
(0.854468278 0 0)
(0.862634929 0 0)
(0.858795329 0 0)
(0.850075492 0 0)
(0.852935197 0 0)
(0.860593737 0 0)
(0.857037382 0 0)
(0.848860837 0 0)
(0.8514976 0 0)
(0.858736334 0 0)
(0.855522283 0 0)
(0.847908712 0 0)
(0.850403449 0 0)
(0.857288596 0 0)
(0.8544442 0 0)
(0.847375342 0 0)
(0.849587168 0 0)
(0.855847156 0 0)
(0.853189841 0 0)
(0.846670189 0 0)
(0.848660757 0 0)
(0.85437388 0 0)
(0.851941988 0 0)
(0.845998717 0 0)
(0.847838101 0 0)
(0.853063131 0 0)
(0.85085548 0 0)
(0.845665622 0 0)
(0.84777128 0 0)
(0.852791067 0 0)
(0.850855322 0 0)
(0.84631532 0 0)
(0.848472726 0 0)
(0.853047381 0 0)
(0.850974614 0 0)
(0.846767022 0 0)
(0.848940807 0 0)
(0.853139087 0 0)
(0.851156339 0 0)
(0.847313435 0 0)
(0.849451085 0 0)
(0.853285263 0 0)
(0.8512895 0 0)
(0.847526431 0 0)
(0.849182816 0 0)
(0.852526944 0 0)
(0.850601568 0 0)
(0.846969912 0 0)
(0.848626366 0 0)
(0.852419267 0 0)
(0.851326229 0 0)
(0.848021052 0 0)
(0.850135844 0 0)
(0.854724675 0 0)
(0.849919493 0 0)
(0.842019824 0 0)
(0.842391401 0 0)
(0.84962221 0 0)
(0.852335268 0 0)
(0.850604862 0 0)
(0.849991123 0 0)
(0.850504928 0 0)
(0.850760159 0 0)
(0.850793461 0 0)
(0.850879327 0 0)
(0.851023845 0 0)
(0.851196999 0 0)
(0.851397836 0 0)
(0.851625335 0 0)
(0.851871706 0 0)
(0.852127399 0 0)
(0.852380424 0 0)
(0.852616977 0 0)
(0.852819073 0 0)
(0.852965686 0 0)
(0.853027375 0 0)
(0.852971877 0 0)
(0.852761718 0 0)
(0.852352575 0 0)
(0.851696794 0 0)
(0.850746526 0 0)
(0.849450462 0 0)
(0.847762182 0 0)
(0.845645701 0 0)
(0.843080235 0 0)
(0.840068551 0 0)
(0.836642916 0 0)
(0.832873528 0 0)
(0.828871854 0 0)
(0.824793216 0 0)
(0.82083204 0 0)
(0.817212491 0 0)
(0.814170347 0 0)
(0.811928925 0 0)
(0.810669306 0 0)
(0.81050072 0 0)
(0.811435864 0 0)
(0.813383483 0 0)
(0.81615455 0 0)
(0.819489199 0 0)
(0.823098567 0 0)
(0.826688809 0 0)
(0.8299452 0 0)
(0.83245887 0 0)
(0.83363028 0 0)
(0.832663008 0 0)
(0.828789132 0 0)
(0.821798041 0 0)
(0.812590744 0 0)
(0.803441851 0 0)
(0.797335996 0 0)
(0.796703395 0 0)
(0.801790837 0 0)
(0.810688306 0 0)
(0.820209198 0 0)
(0.829146043 0 0)
(0.834654603 0 0)
(0.836478273 0 0)
(0.83052256 0 0)
(0.822766457 0 0)
(0.807324693 0 0)
(0.790049754 0 0)
(0.772936905 0 0)
(0.788152824 0 0)
(0.841048658 0 0)
(0.923845007 0 0)
(0.979467824 0 0)
(0.982027664 0 0)
(0.897712544 0 0)
(0.762407837 0 0)
(0.648597246 0 0)
(0.725365367 0 0)
)
;

boundaryField
{
    closed
    {
        type            noSlip;
    }
    open
    {
        type            inletOutlet;
        inletValue      uniform (0 0 0);
        value           uniform (0.725365367 0 0);
    }
    sides
    {
        type            empty;
    }
    procBoundary5to4
    {
        type            processor;
        value           uniform (0.905564282 0 0);
    }
}


// ************************************************************************* //
