/*--------------------------------*- C++ -*----------------------------------*\
| =========                 |                                                 |
| \\      /  F ield         | OpenFOAM: The Open Source CFD Toolbox           |
|  \\    /   O peration     | Version:  2306                                  |
|   \\  /    A nd           | Website:  www.openfoam.com                      |
|    \\/     M anipulation  |                                                 |
\*---------------------------------------------------------------------------*/
FoamFile
{
    version     2.0;
    format      ascii;
    arch        "LSB;label=32;scalar=64";
    class       volScalarField;
    location    "0.00016";
    object      prefDh_T;
}
// * * * * * * * * * * * * * * * * * * * * * * * * * * * * * * * * * * * * * //

dimensions      [1 1 -3 -1 0 0 0];

internalField   nonuniform List<scalar> 
530
(
-0.000591194916
-0.000591195414
-0.000591194449
-0.0005911939
-0.000591194399
-0.000591194844
-0.000591194624
-0.000591194328
-0.000591194407
-0.000591194581
-0.000591194565
-0.000591194463
-0.000591194463
-0.000591194513
-0.000591194525
-0.000591194503
-0.000591194483
-0.000591194494
-0.000591194512
-0.000591194508
-0.000591194494
-0.000591194497
-0.000591194506
-0.000591194502
-0.000591194495
-0.000591194501
-0.000591194509
-0.000591194501
-0.000591194493
-0.000591194503
-0.000591194509
-0.000591194495
-0.000591194491
-0.000591194512
-0.000591194515
-0.000591194485
-0.000591194483
-0.000591194522
-0.000591194523
-0.000591194473
-0.000591194472
-0.000591194536
-0.000591194539
-0.000591194465
-0.000591194454
-0.000591194529
-0.000591194551
-0.000591194489
-0.000591194454
-0.000591194495
-0.000591194538
-0.000591194526
-0.000591194477
-0.000591194475
-0.000591194498
-0.000591194523
-0.000591194523
-0.000591194493
-0.000591194469
-0.000591194489
-0.000591194534
-0.000591194531
-0.000591194479
-0.000591194466
-0.0005911945
-0.000591194529
-0.000591194522
-0.000591194486
-0.000591194478
-0.0005911945
-0.000591194517
-0.000591194507
-0.000591194493
-0.000591194499
-0.000591194508
-0.000591194496
-0.000591194488
-0.000591194511
-0.000591194523
-0.00059119449
-0.000591194469
-0.000591194508
-0.00059119454
-0.0005911945
-0.000591194455
-0.000591194491
-0.000591194553
-0.000591194527
-0.000591194444
-0.000591194453
-0.000591194558
-0.000591194561
-0.000591194464
-0.000591194435
-0.000591194507
-0.000591194566
-0.000591194528
-0.000591194444
-0.000591194452
-0.00059119454
-0.00059119455
-0.000591194488
-0.00059119446
-0.000591194497
-0.000591194528
-0.000591194511
-0.000591194489
-0.000591194494
-0.000591194501
-0.0005911945
-0.000591194507
-0.000591194514
-0.000591194492
-0.000591194476
-0.000591194509
-0.000591194536
-0.000591194496
-0.000591194457
-0.000591194503
-0.000591194558
-0.000591194508
-0.000591194428
-0.000591194475
-0.00059119459
-0.000591194561
-0.000591194403
-0.000591194409
-0.000591194587
-0.000591194611
-0.000591194453
-0.000591194385
-0.000591194504
-0.000591194605
-0.000591194536
-0.00059119442
-0.000591194448
-0.000591194552
-0.000591194548
-0.000591194476
-0.000591194476
-0.000591194507
-0.000591194507
-0.000591194497
-0.000591194504
-0.000591194513
-0.000591194498
-0.000591194482
-0.000591194493
-0.000591194519
-0.00059119452
-0.000591194497
-0.000591194477
-0.000591194484
-0.000591194524
-0.000591194529
-0.000591194487
-0.00059119447
-0.000591194505
-0.000591194525
-0.000591194501
-0.000591194487
-0.000591194505
-0.000591194505
-0.000591194485
-0.000591194497
-0.000591194535
-0.000591194516
-0.000591194448
-0.000591194463
-0.000591194563
-0.00059119456
-0.000591194445
-0.000591194431
-0.000591194534
-0.000591194574
-0.000591194497
-0.000591194429
-0.000591194473
-0.000591194563
-0.000591194555
-0.000591194464
-0.00059119444
-0.000591194487
-0.000591194559
-0.000591194556
-0.000591194467
-0.000591194425
-0.000591194494
-0.000591194584
-0.000591194547
-0.000591194419
-0.000591194428
-0.000591194573
-0.000591194584
-0.000591194448
-0.00059119441
-0.000591194533
-0.000591194598
-0.000591194494
-0.000591194404
-0.000591194481
-0.000591194586
-0.00059119454
-0.000591194437
-0.000591194458
-0.000591194542
-0.000591194534
-0.000591194475
-0.000591194479
-0.000591194523
-0.000591194521
-0.000591194474
-0.000591194472
-0.000591194526
-0.000591194544
-0.000591194492
-0.000591194445
-0.000591194483
-0.000591194562
-0.00059119455
-0.000591194443
-0.000591194438
-0.000591194538
-0.000591194566
-0.000591194488
-0.000591194441
-0.000591194493
-0.000591194548
-0.000591194522
-0.00059119447
-0.000591194481
-0.000591194513
-0.00059119451
-0.000591194502
-0.000591194508
-0.000591194503
-0.000591194474
-0.000591194482
-0.000591194545
-0.000591194544
-0.00059119445
-0.000591194436
-0.000591194542
-0.000591194583
-0.000591194481
-0.000591194408
-0.000591194495
-0.000591194595
-0.000591194535
-0.000591194413
-0.000591194444
-0.000591194574
-0.000591194567
-0.00059119445
-0.000591194443
-0.000591194522
-0.000591194541
-0.000591194502
-0.000591194483
-0.000591194493
-0.000591194497
-0.0005911945
-0.000591194521
-0.00059119452
-0.000591194477
-0.000591194468
-0.000591194511
-0.000591194539
-0.000591194517
-0.000591194467
-0.00059119447
-0.000591194514
-0.000591194531
-0.000591194516
-0.000591194476
-0.000591194477
-0.000591194511
-0.000591194524
-0.000591194502
-0.000591194481
-0.000591194496
-0.000591194518
-0.000591194507
-0.000591194483
-0.000591194494
-0.000591194522
-0.000591194512
-0.000591194477
-0.000591194484
-0.000591194525
-0.000591194523
-0.000591194482
-0.00059119448
-0.000591194512
-0.000591194517
-0.000591194495
-0.00059119449
-0.000591194507
-0.000591194508
-0.000591194491
-0.000591194494
-0.000591194515
-0.00059119451
-0.000591194485
-0.000591194489
-0.000591194515
-0.000591194513
-0.000591194491
-0.000591194492
-0.000591194504
-0.000591194504
-0.000591194501
-0.000591194505
-0.000591194503
-0.00059119449
-0.000591194495
-0.000591194516
-0.00059119451
-0.000591194485
-0.000591194491
-0.000591194519
-0.000591194512
-0.000591194478
-0.000591194486
-0.00059119453
-0.000591194527
-0.000591194467
-0.000591194464
-0.000591194527
-0.000591194543
-0.000591194488
-0.000591194463
-0.000591194501
-0.000591194527
-0.000591194507
-0.000591194487
-0.000591194497
-0.000591194506
-0.000591194499
-0.000591194498
-0.000591194511
-0.00059119451
-0.000591194482
-0.000591194483
-0.000591194519
-0.000591194531
-0.000591194498
-0.000591194463
-0.000591194474
-0.000591194535
-0.000591194546
-0.000591194496
-0.000591194448
-0.000591194467
-0.000591194552
-0.000591194552
-0.000591194473
-0.000591194447
-0.000591194504
-0.000591194547
-0.000591194515
-0.000591194465
-0.000591194481
-0.000591194527
-0.000591194523
-0.00059119448
-0.000591194479
-0.000591194514
-0.000591194523
-0.0005911945
-0.00059119448
-0.000591194485
-0.000591194513
-0.000591194524
-0.000591194515
-0.000591194472
-0.000591194469
-0.000591194521
-0.000591194545
-0.000591194498
-0.000591194451
-0.000591194486
-0.00059119455
-0.000591194533
-0.000591194456
-0.000591194459
-0.000591194535
-0.000591194544
-0.000591194487
-0.000591194459
-0.000591194493
-0.000591194538
-0.00059119453
-0.00059119447
-0.000591194463
-0.000591194515
-0.000591194541
-0.000591194504
-0.000591194464
-0.000591194484
-0.000591194528
-0.000591194525
-0.000591194486
-0.000591194481
-0.000591194498
-0.000591194513
-0.000591194514
-0.000591194509
-0.000591194479
-0.000591194472
-0.000591194523
-0.000591194552
-0.000591194491
-0.000591194428
-0.000591194486
-0.000591194589
-0.000591194554
-0.000591194408
-0.000591194416
-0.000591194581
-0.000591194595
-0.000591194456
-0.00059119441
-0.000591194512
-0.000591194575
-0.000591194515
-0.000591194448
-0.000591194473
-0.000591194531
-0.000591194529
-0.000591194496
-0.000591194483
-0.000591194486
-0.000591194503
-0.000591194521
-0.000591194518
-0.000591194481
-0.000591194477
-0.000591194512
-0.000591194522
-0.000591194498
-0.000591194486
-0.000591194501
-0.000591194508
-0.000591194496
-0.000591194495
-0.000591194513
-0.000591194513
-0.000591194482
-0.000591194481
-0.000591194517
-0.000591194528
-0.000591194497
-0.000591194472
-0.000591194487
-0.000591194527
-0.000591194526
-0.000591194488
-0.000591194472
-0.000591194499
-0.000591194532
-0.000591194517
-0.000591194467
-0.000591194473
-0.000591194537
-0.000591194537
-0.000591194467
-0.000591194459
-0.000591194528
-0.000591194546
-0.000591194485
-0.000591194457
-0.000591194501
-0.000591194538
-0.000591194516
-0.000591194475
-0.000591194478
-0.000591194511
-0.000591194521
-0.00059119451
-0.000591194482
-0.000591194483
-0.000591194517
-0.000591194526
-0.000591194487
-0.000591194466
-0.00059119451
-0.000591194546
-0.000591194503
-0.000591194452
-0.000591194486
-0.000591194546
-0.000591194526
-0.000591194466
-0.000591194477
-0.000591194523
-0.000591194518
-0.000591194488
-0.000591194493
-0.000591194513
-0.000591194503
-0.000591194481
-0.000591194503
-0.00059119454
-0.000591194499
-0.000591194405
-0.00059119446
-0.00059119474
-0.000591194718
-0.000591194016
-0.000591193831
-0.000591195141
-0.000591196142
-0.000591194325
-0.000591191269
-0.000591192678
-0.000591199661
-0.000591199421
-0.000591188924
-0.00059118616
-0.000591197673
-0.000591205671
-0.000591196202
-0.000591182356
-0.00059118737
-0.000591205366
-0.000591204441
-0.000591187227
-0.00059118528
-0.000591197393
)
;

boundaryField
{
    closed
    {
        type            calculated;
        value           nonuniform List<scalar> 0();
    }
    open
    {
        type            calculated;
        value           nonuniform List<scalar> 0();
    }
    sides
    {
        type            empty;
    }
    procBoundary2to1
    {
        type            processor;
        value           uniform -0.000591193323;
    }
    procBoundary2to3
    {
        type            processor;
        value           uniform -0.000591201614;
    }
}


// ************************************************************************* //
