/*--------------------------------*- C++ -*----------------------------------*\
| =========                 |                                                 |
| \\      /  F ield         | OpenFOAM: The Open Source CFD Toolbox           |
|  \\    /   O peration     | Version:  2306                                  |
|   \\  /    A nd           | Website:  www.openfoam.com                      |
|    \\/     M anipulation  |                                                 |
\*---------------------------------------------------------------------------*/
FoamFile
{
    version     2.0;
    format      ascii;
    arch        "LSB;label=32;scalar=64";
    class       volScalarField;
    location    "0.0002";
    object      sourcePV;
}
// * * * * * * * * * * * * * * * * * * * * * * * * * * * * * * * * * * * * * //

dimensions      [1 -3 -1 0 0 0 0];

internalField   nonuniform List<scalar> 
3816
(
0.081116903
0.0817157267
0.0815312894
0.081530526
0.0815304431
0.0815304428
0.0815304428
0.0815304428
0.0815304428
0.0815304428
0.0815304428
0.0815304428
0.0815304428
0.0815304428
0.0815304428
0.0815304428
0.0815304428
0.0815304428
0.0815304428
0.0815304428
0.0815304428
0.0815304428
0.0815304428
0.0815304428
0.0815304428
0.0815304428
0.0815304428
0.0815304428
0.0815304428
0.0815304428
0.0815304428
0.0815304428
0.0815304428
0.0815304428
0.0815304428
0.0815304428
0.0815304428
0.0815304428
0.0815304428
0.0815304428
0.0815304428
0.0815304428
0.0815304428
0.0815304428
0.0815304428
0.0815304428
0.0815304428
0.0815304428
0.0815304428
0.0815304428
0.0815304428
0.0815304428
0.0815304428
0.0815304428
0.0815304428
0.0815304428
0.0815304428
0.0815304428
0.0815304428
0.0815304428
0.0815304428
0.0815304428
0.0815304428
0.0815304428
0.0815304428
0.0815304428
0.0815304428
0.0815304428
0.0815304428
0.0815304428
0.0815304428
0.0815304428
0.0815304429
0.0815304432
0.081530444
0.0815304465
0.0815304528
0.081530469
0.0815305069
0.0815305894
0.081530758
0.08153108
0.0815316585
0.0815326323
0.081534168
0.0815366026
0.0815408028
0.0815437679
0.0815384909
0.0815856557
0.0817084357
0.0814212123
0.0804358427
0.0812812529
0.0876918918
0.0870547352
0.0699727856
0.0715801591
0.108772303
0.133534916
0.133164811
0.136590979
0.0839249423
0.00551116286
0.00483210214
0.00525928638
0.0256147091
0.160038793
0.129150465
0.00520120153
0.00433620597
0.00506642919
0.00612000461
0.179932382
0.180717361
0.151738107
0.115453039
0.00603058798
0.00425535051
0.146746306
0.135222906
0.00608646039
0.00448455763
0.152024231
0.141651904
0.00595829102
0.00463783719
0.159388389
0.160029226
0.14817449
0.0942804654
0.00592335787
0.00588381823
0.00571157902
0.00525110268
0.00550084095
0.00462856259
0.180019783
0.180759481
0.158434313
0.161857918
0.14278314
0.0447959587
0.00590311135
0.00511780215
0.00560345965
0.00462742692
0.176265459
0.176362971
0.162142871
0.155896354
0.163741529
0.130835648
0.00554846641
0.00573188688
0.00557254161
0.004986545
0.164601852
0.16558564
0.115979932
0.00564868308
0.00557461079
0.15516175
0.12740766
0.00568728254
0.00606623467
0.00512772168
0.00564852391
0.00443619814
0.182253269
0.182340753
0.159654997
0.150380778
0.148579185
0.111492287
0.00597507349
0.00558081743
0.14886708
0.127785925
0.00587833717
0.00549595824
0.160054152
0.108636907
0.00534297943
0.00622716981
0.00475716729
0.161617278
0.162286803
0.15140528
0.123988549
0.00588412893
0.00551069679
0.155871455
0.121932492
0.00563633734
0.00621336088
0.00494266178
0.162317139
0.174198849
0.127535013
0.00555693009
0.00556468076
0.00540374371
0.00452884317
0.181796258
0.181733009
0.160534596
0.151479531
0.151884828
0.118546029
0.00580863988
0.00538440693
0.158651709
0.137055398
0.00557446162
0.00513179929
0.179243451
0.180202813
0.138626783
0.00534168098
0.0053849012
0.00529299653
0.00454291578
0.177371414
0.158379876
0.00542051545
0.00556355155
0.00499580046
0.00537388922
0.00457939022
0.00523725782
0.00424551443
0.188425832
0.189123205
0.162001245
0.161861869
0.142475927
0.149617329
0.112586256
0.00602101703
0.00571834429
0.147438649
0.147520763
0.141145141
0.115327514
0.00624997617
0.00596974476
0.143759542
0.134663305
0.00621849927
0.00575199154
0.148122739
0.140366874
0.0061484333
0.00564028516
0.152625709
0.142288404
0.00598612581
0.00556890007
0.162091854
0.162548448
0.0665722445
0.00570132891
0.00559698493
0.00559941681
0.00510281136
0.170597823
0.170804982
0.153755577
0.145312699
0.149000506
0.114051429
0.00581513226
0.00580115268
0.168342536
0.171891826
0.137042671
0.00557814493
0.00583839743
0.00558845152
0.00536354083
0.166988157
0.168747602
0.128596351
0.0058236308
0.00591293298
0.155328788
0.137959913
0.00594959255
0.00571123857
0.15376343
0.144365156
0.00602856767
0.0055544575
0.154827888
0.148588091
0.00603758316
0.00543195608
0.156635721
0.151604456
0.00603913865
0.0052994112
0.15665181
0.157100244
0.149838015
0.125005213
0.00616904501
0.00588147234
0.152240267
0.15324364
0.1159475
0.00604429228
0.00602511502
0.149570194
0.130641263
0.00613045848
0.00581469385
0.152181493
0.153011994
0.106185297
0.00603239723
0.00598847588
0.149770192
0.125083086
0.00596426117
0.00595813375
0.00584805231
0.00509672313
0.163814583
0.163750913
0.153720366
0.135534962
0.00605888125
0.00533123684
0.149644014
0.148643521
0.144916084
0.113037938
0.00617231109
0.00563579164
0.153838039
0.155030042
0.123478867
0.00579510696
0.00561594282
0.16398838
0.124021163
0.005403472
0.00616472643
0.00470228662
0.169294842
0.169397517
0.15617357
0.134005078
0.00605283811
0.00615190333
0.00558295355
0.00585194449
0.00503798395
0.005615023
0.00424045472
0.179768599
0.180666418
0.158637631
0.158044061
0.14125364
0.145947458
0.0974883854
0.00608136511
0.00545494972
0.145766571
0.132717614
0.00607852197
0.00518082938
0.149774237
0.139910088
0.00604410184
0.00501589831
0.152863635
0.144568633
0.00599712123
0.0049180397
0.155649535
0.147823149
0.00594227253
0.00487130836
0.158251031
0.14992109
0.00587623473
0.00489399047
0.161446528
0.162000452
0.150968558
0.131290481
0.00607704088
0.00538492933
0.148421927
0.148726395
0.14085518
0.113500023
0.00625234618
0.00582011159
0.144613134
0.124100981
0.00609146057
0.00582758828
0.00596246418
0.00513460182
0.159879893
0.160067432
0.14900401
0.125269833
0.00611981172
0.00599082964
0.147914
0.113098402
0.00597061688
0.00600906795
0.00575299272
0.00535842626
0.00554819118
0.00491195884
0.182581906
0.183458576
0.161373192
0.161771796
0.143117288
0.15123447
0.109107399
0.00600128434
0.0061128253
0.152104746
0.134394456
0.00594481713
0.00582055973
0.161782347
0.163631278
0.13407798
0.00577036176
0.00595929941
0.159511829
0.142867247
0.00586284215
0.00576350192
0.161076869
0.14529215
0.00582731706
0.00564802812
0.167503686
0.169310166
0.14010399
0.00573051446
0.00582780027
0.156893232
0.151404395
0.150624223
0.118989722
0.00594392687
0.00636948132
0.00561755211
0.00602670716
0.00537066992
0.164943338
0.165324946
0.159561356
0.136461627
0.00588157346
0.00591442797
0.00572219503
0.00546948786
0.169413546
0.169605813
0.154065278
0.144978266
0.143863494
0.110456902
0.00622843704
0.00636173345
0.140986913
0.131873896
0.00624510684
0.00615514895
0.14555953
0.134754643
0.00620581603
0.00598600428
0.151530009
0.153837434
0.131209547
0.00606482589
0.00623176614
0.154338049
0.137279769
0.00591874878
0.00598395352
0.00576320296
0.005466779
0.167811351
0.168545386
0.156045126
0.146836897
0.14794571
0.123038388
0.00609200822
0.00615360405
0.146475191
0.136548218
0.00606994969
0.00582077331
0.151783645
0.145333963
0.00598649138
0.00553147379
0.157372067
0.151822635
0.00591638623
0.00529406495
0.160152656
0.16032047
0.155037101
0.139870426
0.00604528092
0.00549845413
0.149323464
0.144143372
0.145173599
0.116673788
0.00613866847
0.00611050969
0.0060229718
0.00514901615
0.157110725
0.144417109
0.0058346378
0.0055198535
0.00572075565
0.00449546352
0.168776691
0.169045755
0.162611512
0.139712942
0.00578669168
0.00486193455
0.161067722
0.162070227
0.134717247
0.00592309732
0.00598777408
0.00518245774
0.00564953595
0.00406012413
0.177712984
0.177892361
0.168800216
0.160145424
0.165169425
0.133778196
0.00605718872
0.00622305052
0.00490266834
0.155052129
0.163084009
0.11580867
0.00584231889
0.00481911266
0.150130257
0.109371774
0.00598801025
0.00609326643
0.00580194099
0.00518392876
0.00559296427
0.00357357985
0.180805471
0.181933076
0.160697733
0.170023481
0.128377544
0.00556339328
0.00430511378
0.166028839
0.133428693
0.00573310019
0.00599778884
0.00520652692
0.00561585217
0.00447202024
0.00534140675
0.00328227827
0.191664402
0.19243019
0.164767112
0.164383958
0.149268421
0.142869234
0.137815672
0.089883842
0.00622158854
0.00488805818
0.140238626
0.130665601
0.00610884529
0.0046560885
0.148539051
0.140047771
0.00598068182
0.00450827701
0.155970185
0.147745079
0.00588307178
0.00440377014
0.159909047
0.160382292
0.158739483
0.109791025
0.00550559006
0.00636298141
0.00490264528
0.148623863
0.14946313
0.00608483092
0.00500522865
0.149868133
0.144277318
0.00606276321
0.00523846317
0.151888652
0.139337089
0.00598828215
0.00549405901
0.159588629
0.162491175
0.126688138
0.00566341995
0.00585585394
0.00552732751
0.00527114996
0.172632807
0.173999745
0.158077215
0.14930989
0.151275149
0.126287898
0.00589170338
0.00633907638
0.15361223
0.139841642
0.00576579222
0.00627377542
0.163928005
0.136817568
0.0054289346
0.00601335386
0.00537069357
0.167046964
0.175489034
0.149694643
0.16182113
0.128253379
0.00545369948
0.00625005019
0.00545659275
0.00592691267
0.00553116784
0.164790807
0.167343817
0.168571206
0.136557299
0.00543356709
0.00609843219
0.00565520502
0.153469356
0.160072605
0.00516163745
0.0056815275
0.0051519699
0.00556914733
0.00518570806
0.173644805
0.189609298
0.158617596
0.170416319
0.139934903
0.0054540194
0.00634799845
0.151095101
0.147254012
0.00575420992
0.00618380031
0.149234136
0.150747524
0.00560552052
0.00608330224
0.150869821
0.153742545
0.00555689875
0.0060240469
0.152820059
0.155823537
0.00553223835
0.00598682202
0.154499644
0.157248473
0.00553662678
0.00596133682
0.155863148
0.158220163
0.00556937514
0.00594306985
0.156982403
0.158902215
0.00562826467
0.00592968487
0.157991538
0.159365037
0.00570860026
0.00591360104
0.159000592
0.159640896
0.00579105219
0.00585295004
0.159868694
0.159631727
0.00584114205
0.00575696621
0.160713592
0.159481132
0.00586843647
0.00562573872
0.161658839
0.159145715
0.00586137712
0.00546030178
0.162559154
0.158793794
0.00582997034
0.00528411155
0.163631815
0.158606932
0.00579050428
0.0051052714
0.16487161
0.158470469
0.00576667172
0.00488378031
0.164177149
0.164424151
0.157014178
0.139525532
0.00593844605
0.0051407748
0.152082248
0.149278174
0.14607722
0.125832859
0.00610164557
0.0053491998
0.147162704
0.13034163
0.00603440144
0.00521004591
0.15395775
0.124257551
0.0057949388
0.00610372666
0.00558242828
0.00555912058
0.00536695205
0.00483697278
0.00518087243
0.00364388263
0.19524579
0.195543689
0.167851704
0.166115937
0.151004828
0.143226459
0.14194951
0.104991249
0.00617929626
0.00502786818
0.142925064
0.131040958
0.00614700888
0.0047418154
0.1485357
0.138164417
0.00608333418
0.00472457836
0.153543081
0.154179101
0.144476623
0.12199458
0.00624279902
0.00510367601
0.143557732
0.144392685
0.131891316
0.0906593865
0.00649161631
0.00524075571
0.133852154
0.122098274
0.0063624405
0.00524670707
0.142450926
0.113129888
0.00605803013
0.00592162765
0.00578640224
0.00507972919
0.00555410142
0.00420364527
0.184205722
0.185386572
0.15706066
0.16596858
0.124687973
0.00570059013
0.00537479976
0.157613188
0.134230909
0.0058099813
0.00540802456
0.164347501
0.165052013
0.128336652
0.00572064774
0.00554654787
0.162360394
0.16317548
0.129683112
0.00576267952
0.00560119847
0.156117348
0.140226225
0.00591427364
0.00542326231
0.156624494
0.144681509
0.00590258254
0.0054023073
0.160462702
0.144909124
0.00576314129
0.00546850948
0.171043317
0.173033953
0.137429368
0.00571952963
0.00575503642
0.167113984
0.167656404
0.133733646
0.00573801067
0.0061656175
0.00539405938
0.00581764591
0.00516347473
0.175181512
0.176482846
0.154455612
0.146665878
0.14240821
0.107294748
0.0062596753
0.0063231486
0.139762897
0.13161379
0.00625936504
0.00615607152
0.143368414
0.135018423
0.00614812873
0.00608711075
0.150901305
0.133419437
0.0058036
0.00582058532
0.00553842029
0.00525506739
0.179864833
0.180551396
0.16791652
0.15849621
0.171738715
0.133661412
0.00535233985
0.00622885569
0.0053459691
0.152885703
0.154369902
0.0059716975
0.00542194154
0.162395319
0.167625445
0.134727919
0.00564808056
0.00587049127
0.159166878
0.145408732
0.00589199465
0.00550581503
0.155717497
0.15481173
0.1497203
0.119547221
0.00598067897
0.00590176868
0.00587907078
0.00510874412
0.161177146
0.160903907
0.159134934
0.100455261
0.00550807684
0.00621571364
0.00513065117
0.159849596
0.160372867
0.150933705
0.129188366
0.00590316225
0.0060976681
0.00534588912
0.00568553843
0.00473145018
0.182888454
0.183445583
0.155357618
0.165375231
0.121364594
0.00576830973
0.00600871918
0.00551573546
0.00537055526
0.00527982235
0.00468888481
0.00508712945
0.00390991696
0.198807612
0.199633191
0.170273193
0.169093479
0.146241518
0.15332755
0.108493287
0.00581930791
0.00550353342
0.150039044
0.132974135
0.00579792549
0.00522049688
0.156350336
0.138095274
0.00560117854
0.00517865011
0.170633123
0.128957672
0.00494643405
0.0059111961
0.00433973947
0.174401303
0.174706113
0.167527015
0.129079463
0.00538470486
0.00615472747
0.00460796213
0.153425878
0.145421128
0.00562360132
0.00539255539
0.00534493008
0.00475000711
0.00510326291
0.00402488719
0.195759421
0.195896119
0.170402502
0.160518719
0.160638593
0.128870142
0.00551566047
0.00537536423
0.165863896
0.133775483
0.00526249038
0.00579992997
0.00467744944
0.181779986
0.183093161
0.156377753
0.167128735
0.128277193
0.00561820571
0.00610261186
0.00491962018
0.00576211466
0.00415948565
0.170902337
0.170757775
0.0053256946
0.0046567386
0.185004789
0.146897257
0.00469488066
0.00548817677
0.00422456113
0.186663427
0.187428373
0.173425424
0.14479847
0.00536048573
0.0056374895
0.00480834422
0.0052664984
0.00423511829
0.193967392
0.194217217
0.169119351
0.157640849
0.157362616
0.122136919
0.00575033122
0.00618486213
0.00526070121
0.00585416344
0.00476983169
0.164013799
0.146065549
0.00522672629
0.00562879764
0.00480942587
0.00526014574
0.00437108044
0.00494365124
0.00393156302
0.20741854
0.207805546
0.176331587
0.165532074
0.15878977
0.133038007
0.00584548582
0.00613034375
0.0053028045
0.00592430561
0.00473849013
0.159316495
0.151912474
0.00557151216
0.00525650942
0.00535744653
0.004678143
0.186475339
0.192755289
0.145386727
0.00512488931
0.00509776994
0.180227352
0.180749891
0.145866785
0.00536356652
0.00512830445
0.16944508
0.160431136
0.165775011
0.116985734
0.00534436663
0.00625914981
0.00505862893
0.154367013
0.155162613
0.0059340045
0.00515679567
0.154640494
0.152173066
0.00592917629
0.00518864706
0.156310707
0.152202196
0.00589638635
0.00517612989
0.158846919
0.153829424
0.00584163325
0.00515002
0.161719692
0.155593282
0.00577001905
0.00511938634
0.164560805
0.16480191
0.155169066
0.137845249
0.00592858867
0.00549773031
0.152512511
0.151529911
0.148867876
0.122638059
0.00597092801
0.00604217445
0.16206826
0.116994143
0.00543367791
0.00626179388
0.00512197662
0.158728465
0.148110369
0.00546179325
0.00576919474
0.00505631534
0.00545044601
0.00469229288
0.186947222
0.187733954
0.164309537
0.153834425
0.151378866
0.123189158
0.00600699234
0.00599143397
0.146461377
0.133922215
0.0061100564
0.00579766588
0.14749227
0.137896238
0.00612354446
0.00569690334
0.150607923
0.137057852
0.00606023714
0.00569803012
0.15797815
0.159366836
0.127403437
0.00583607293
0.00599751949
0.157083555
0.131405213
0.00576028388
0.00585007056
0.0056070533
0.00516151845
0.175849925
0.176316566
0.153603849
0.161888551
0.130801473
0.00585217472
0.00615421614
0.00541567639
0.163252702
0.163676242
0.144128025
0.150986864
0.114303168
0.00615830067
0.00617558724
0.00583578066
0.00561220539
0.00553845549
0.005056187
0.00527608534
0.00446873889
0.192887321
0.19311919
0.170272911
0.159066504
0.159179968
0.128192416
0.00581287336
0.00564425405
0.157271508
0.157809666
0.128903159
0.00584406036
0.0055927915
0.158307854
0.159038907
0.131442823
0.00581164999
0.00552408543
0.156597821
0.141012718
0.00593387037
0.00525952656
0.155955151
0.156495036
0.144273887
0.134210835
0.00643185708
0.00523256357
0.130420037
0.0057524762
0.00588227431
0.0057067122
0.00505161472
0.163474188
0.146250339
0.00563818932
0.00543290861
0.00554582931
0.00464125979
0.172943507
0.172996084
0.160728344
0.141054827
0.00581762639
0.00510930522
0.15446317
0.153028434
0.149396013
0.123635084
0.00591148075
0.00561245161
0.156544378
0.122178659
0.00565824074
0.00619996657
0.00504081499
0.166422577
0.168616285
0.145972083
0.155609949
0.111918569
0.00588091797
0.00549702864
0.151729983
0.134155624
0.00590408506
0.00516729409
0.155747441
0.141765384
0.00582015147
0.00499398711
0.161182888
0.142976329
0.00565709573
0.00506452649
0.169772654
0.131689676
0.00530190035
0.00603465957
0.00479638221
0.00563508034
0.00407531801
0.182717172
0.18287619
0.166942277
0.142107598
0.00571213489
0.0048458532
0.158590105
0.145274027
0.00590302447
0.00474149753
0.153368725
0.15387387
0.14797247
0.114424555
0.00596349256
0.00573335407
0.00585089948
0.00458112588
0.161578475
0.161910468
0.152534766
0.127941389
0.00597789848
0.00515900407
0.15311734
0.13257193
0.00598219125
0.00513252903
0.160065601
0.161464337
0.125682333
0.00578647547
0.00533409326
0.15491328
0.130119777
0.00591597369
0.0053298012
0.159287631
0.160157173
0.117734319
0.00570285211
0.00579230502
0.00559223018
0.00483254599
0.177446534
0.178231376
0.136070115
0.00549439863
0.00505529268
0.167090924
0.144532279
0.00572013001
0.00494045094
0.164683066
0.144574248
0.00571709237
0.00507173579
0.171531809
0.172737134
0.1351335
0.00563862308
0.0051930311
0.157988836
0.153909294
0.148896057
0.112613472
0.00602805939
0.00630080552
0.00535694264
0.00589531082
0.00476243496
0.17159134
0.171775908
0.158429204
0.134789245
0.00585569133
0.00547395158
0.155928565
0.143255939
0.00593555109
0.00532267247
0.155544167
0.147106603
0.00594165396
0.00526182594
0.156393505
0.1494023
0.00589101274
0.0052065958
0.159195569
0.159423036
0.150296178
0.127251091
0.00595802552
0.00582383019
0.15474537
0.134602165
0.00579761355
0.00555266304
0.00566408123
0.00485877236
0.170437771
0.17015499
0.167029278
0.112810975
0.00536985942
0.00629173511
0.00521740203
0.152839158
0.142420493
0.0054893822
0.00584356713
0.00508117285
0.00548817778
0.00480459618
0.185513086
0.18621017
0.16244876
0.153318367
0.15238315
0.125173663
0.00591026571
0.00598181233
0.152647504
0.141538971
0.0059342934
0.00559797945
0.15589909
0.155781154
0.147586708
0.129817294
0.0060962292
0.00585056957
0.148396897
0.147766714
0.141521874
0.117823416
0.00623396659
0.00612419014
0.146297569
0.132505475
0.00610834622
0.00586022787
0.158022501
0.160212564
0.128672675
0.00593429624
0.00615918935
0.154957692
0.135566747
0.00593317107
0.00606496859
0.156858772
0.128086418
0.00572728706
0.00600347591
0.00554549864
0.0054292526
0.00538166666
0.00491956582
0.186687682
0.187142919
0.156909961
0.167295949
0.126462465
0.00579052984
0.00581323838
0.159162968
0.15983423
0.128264408
0.00583371045
0.0058955663
0.154476294
0.136835051
0.00594116158
0.00571494379
0.153414787
0.137625105
0.00593128265
0.00570600946
0.156740384
0.129997778
0.00570740149
0.00588704298
0.00550674067
0.00522935461
0.00532779692
0.00450296752
0.186880493
0.187109752
0.164167521
0.154819843
0.153869888
0.125073655
0.00590199443
0.0055604316
0.152567931
0.137232731
0.00595112521
0.00526385664
0.1550475
0.142539029
0.00590552891
0.00509120038
0.159552425
0.142161543
0.00575852568
0.00509557976
0.170670811
0.171929474
0.134009469
0.00541924405
0.00546830271
0.00527551161
0.00434390325
0.185810871
0.186280999
0.169794947
0.1578303
0.165464134
0.122801621
0.00558270613
0.00629363412
0.00449585963
0.150433787
0.150921558
0.00599543305
0.00475237273
0.152401668
0.142735776
0.00592794943
0.00490145046
0.156626719
0.134698329
0.00573906969
0.00538555521
0.00558559778
0.00433900302
0.17545048
0.175861106
0.155272309
0.146901932
0.146299485
0.106722382
0.00601342324
0.00531583016
0.151143643
0.124443573
0.00574410656
0.00546429885
0.00551786477
0.00427937939
0.181669029
0.182135307
0.162804489
0.162004249
0.153188643
0.150741022
0.0404041719
0.00535846671
0.00561579405
0.00456674186
0.153569447
0.130410631
0.00559315878
0.00599841518
0.00481382644
0.00564548548
0.00391353596
0.177777143
0.177922824
0.163838114
0.130832771
0.00576919579
0.0060125454
0.00486977519
0.00563178082
0.0039336006
0.180056466
0.180458824
0.165230216
0.134843986
0.00562700641
0.00483041279
0.16734736
0.168488016
0.133550559
0.00584312079
0.00595590205
0.00500856328
0.00553211267
0.00410121858
0.186560132
0.186848363
0.163383724
0.153620983
0.150601421
0.123171458
0.00615340144
0.00620203991
0.00543312218
0.00580996451
0.00470901716
0.176324215
0.177591833
0.136290985
0.00571919329
0.00599338177
0.00498795678
0.00566940856
0.00421751809
0.175873456
0.176009242
0.164206611
0.12834855
0.00553385812
0.00549952938
0.00544800019
0.00453837428
0.177202704
0.177846747
0.154285225
0.155828317
0.132116673
0.00613181792
0.00491141665
0.130724681
0.00526076942
0.00524937211
0.171982468
0.172553007
0.134021139
0.0053928077
0.00535201879
0.171176853
0.137770932
0.00520135515
0.00572718811
0.00465494639
0.187333754
0.187960925
0.161610171
0.170113509
0.131265965
0.00573313493
0.00577422138
0.00563166115
0.00506283732
0.164436935
0.144093421
0.00549009
0.00580883981
0.0050474636
0.00551783197
0.00457432786
0.183555535
0.193184947
0.144581277
0.00529169295
0.0050128449
0.171744815
0.172370024
0.149221569
0.158231217
0.119763662
0.00586908106
0.00573802362
0.152511448
0.13815828
0.00603838041
0.00535979396
0.150645854
0.151002109
0.143973529
0.118564296
0.00622450293
0.00576436168
0.147608554
0.148644285
0.108309784
0.0060814753
0.00590831675
0.143461855
0.124440261
0.00610862119
0.00624314915
0.00562950707
0.00585930913
0.00510127407
0.00551783931
0.00441868758
0.18560763
0.185744354
0.165023678
0.15367921
0.157120309
0.117075252
0.00570357474
0.00580671381
0.00556305595
0.00481371777
0.176626842
0.177133349
0.152285889
0.165298048
0.118189141
0.00558951885
0.00618803972
0.0048005054
0.160473445
0.142447417
0.00515135746
0.0056731356
0.00439906237
0.187583409
0.188419921
0.167584527
0.168508549
0.153085326
0.170485757
0.134539011
0.00477597577
0.00614388208
0.00437346068
0.00596791614
0.00439455703
0.158794115
0.162797285
0.12236782
0.00593364061
0.00628466819
0.00541960102
0.00599528809
0.00481583072
0.158894799
0.134815841
0.00530564416
0.00593032944
0.00478798935
0.00557340421
0.00421801692
0.180360391
0.180993397
0.167746305
0.137742378
0.00542446276
0.00530614305
0.174406095
0.131910772
0.00495582413
0.00578323668
0.00450644975
0.188457501
0.188891808
0.164584194
0.162350269
0.150056282
0.142036527
0.142495162
0.112063525
0.00607748351
0.00635480825
0.00528190619
0.00602684567
0.00454222435
0.163810117
0.164592811
0.00560210106
0.00473873733
0.178665003
0.179623923
0.158628237
0.158546056
0.140566475
0.149060006
0.105528141
0.00574157824
0.00560933369
0.162929075
0.163456618
0.131664158
0.0056748418
0.00591001878
0.00534255337
0.00548536651
0.00504684395
0.00508368857
0.00481223542
0.00468295659
0.00462943401
0.00427748689
0.00447750266
0.0039059428
0.00434480303
0.00371221026
0.227747206
0.228469134
0.185281451
0.183166303
0.161677991
0.151094066
0.147816886
0.12450671
0.00593699138
0.00618677478
0.00549684308
0.00583853783
0.00503899397
0.00552562782
0.00475605588
0.179656452
0.179788034
0.170577434
0.140746185
0.0054410199
0.00554773184
0.00531237087
0.00507443295
0.180250038
0.18036252
0.161741658
0.151194487
0.153108397
0.123489663
0.00585484659
0.00602079585
0.15517611
0.156318874
0.133211504
0.00583871198
0.00612488425
0.15808851
0.139505388
0.0057897956
0.00582494791
0.162877558
0.164876201
0.140437819
0.00565935629
0.00621175189
0.16477826
0.139747122
0.00542730188
0.00597627681
0.00527763423
0.00564559971
0.00528064868
0.177668763
0.179274058
0.171124676
0.153721409
0.0054391254
0.00583013233
0.00532760074
0.00582847349
0.186560933
0.159531257
0.00508430368
0.00552890043
0.00520698616
0.181796697
0.18745979
0.176274051
0.164276688
0.00538251228
0.00585281731
0.159404263
0.159143853
0.157097837
0.14488973
0.00555598714
0.00628014707
0.151540745
0.145667285
0.00535703697
0.00616746177
0.00555225687
0.00610200612
0.1657824
0.159527707
0.00474565061
0.00594411559
0.00532987904
0.148297211
0.191556115
0.160194103
0.00425013646
0.00591325018
0.00525136481
0.142122566
0.16698811
0.00286109004
0.00542682594
0.00512002624
0.00537614664
0.140065767
0.179872549
0.1642235
0.175205743
0.173605202
0.00271160159
0.00563854742
0.00503847366
0.0059987312
0.00609127924
0.108986025
0.15903721
0.169511858
0.171845178
0.0481537342
0.00482386355
0.00537198232
0.00546512427
0.0832620787
0.158193291
0.159656033
0.16656212
0.17045387
0.08428269
0.00421819902
0.00538635274
0.00561303866
0.00575007704
0.0606217445
0.157374056
0.18311012
0.10559289
0.00375955052
0.0593578336
0.154521439
0.175449553
0.114495596
0.00386207006
0.0532784993
0.155219823
0.11120108
0.00427365297
0.0474004905
0.155906997
0.115118576
0.00463225464
0.0395841868
0.143969206
0.15413675
0.150569824
0.150225711
0.157145422
0.0892192114
0.00494539702
0.00577974621
0.00514763581
0.00544876801
0.00540742348
0.00546698187
0.00559327016
0.00558707572
0.00574090302
0.00564027265
0.0610956013
0.170872797
0.181494896
0.177390743
0.193776008
0.134924201
0.00484923789
0.0254697308
0.161352941
0.131142499
0.00546196038
0.00653349307
0.150654459
0.159490352
0.161699237
0.125326551
0.00567338738
0.00332767653
0.146708323
0.175941324
0.116139314
0.00525635871
0.00536370071
0.00544111713
0.0165613173
0.150235343
0.161699744
0.165007014
0.11640736
0.00543182423
0.00632733691
0.0268698608
0.148326584
0.122633439
0.00577632375
0.00574723614
0.00547006248
0.0413563578
0.162648465
0.162740632
0.168643427
0.129034835
0.00561023588
0.00374986315
0.163186543
0.178568936
0.11134463
0.00603596726
0.00601246812
0.0697376122
0.153319412
0.153261909
0.150284485
0.149383084
0.147768545
0.0675723699
0.00578076587
0.00474615883
0.00572903135
0.00259075054
0.148748406
0.117676052
0.00571789215
0.00599074273
0.00536020449
0.00584883854
0.00465638813
0.0814233916
0.170176642
0.164039005
0.166792019
0.115871137
0.00548794376
0.00210321972
0.156414449
0.110491897
0.00603381057
0.00571337518
0.00626974505
0.00388487185
0.128363209
0.169119997
0.15992382
0.163410778
0.155482857
0.151529344
0.0703438385
0.00616012888
0.00635857313
0.00429652855
0.105011887
0.168165254
0.157995712
0.151858495
0.141975278
0.0508827932
0.00611595677
0.00544355196
0.00625031686
0.00387599288
0.121461412
0.161569208
0.146894797
0.144943801
0.081029166
0.00557513038
0.0290140971
0.147778545
0.104212797
0.00559199728
0.0364081183
0.140601621
0.0836278759
0.00630137256
0.00650181055
0.00388013599
0.129055097
0.165914933
0.155977784
0.126080029
0.00277015804
0.00576425101
0.00495750477
0.00458029633
0.00552284664
0.00264030554
0.169656145
0.17615695
0.156240486
0.155675382
0.150802412
0.133825368
0.0187944467
0.00501760291
0.093079315
0.169594509
0.143216451
0.00413742029
0.00474719365
0.108285681
0.171831875
0.136399049
0.00490540675
0.00488570165
0.11614213
0.171281192
0.124998212
0.00561230499
0.00519719945
0.135403376
0.1328139
0.00539455627
0.00604237249
0.00339591484
0.166107404
0.181439717
0.120264184
0.00501529321
0.00505580641
0.00491577364
0.00381595262
0.1747905
0.177435756
0.164067928
0.129785641
0.00451737679
0.00601990882
0.00362825699
0.175105562
0.183690947
0.151037717
0.160530376
0.110904017
0.00536533426
0.00625102547
0.00484794946
0.160748777
0.166073561
0.149245173
0.1261587
0.00631452905
0.00567450452
0.128593321
0.163762655
0.103603338
0.00569159806
0.00580889724
0.00579705534
0.0052320007
0.147720438
0.139292087
0.00549044944
0.00583048715
0.00515630361
0.00548865144
0.00523938808
0.00524578422
0.0609578639
0.182005162
0.180965276
0.161756146
0.171001681
0.137206365
0.00572078471
0.00569110913
0.153002833
0.159106309
0.155760337
0.125057468
0.00619592683
0.00563915747
0.140255391
0.160239684
0.116862496
0.00571770405
0.00625493799
0.00508274526
0.00581879265
0.00453075958
0.174591411
0.178757316
0.149153425
0.15816855
0.117928976
0.00583521453
0.00547360211
0.14962041
0.139217971
0.00599519014
0.00519671801
0.153931766
0.138559409
0.00581431948
0.0052627666
0.169431651
0.173667151
0.121993199
0.0054983389
0.00551788597
0.171060139
0.173512745
0.124734205
0.00555075856
0.00554222621
0.0053886888
0.00442613552
0.172612165
0.173720432
0.161931214
0.125164158
0.00542222545
0.00620780961
0.00464911665
0.155285046
0.153669842
0.00559593143
0.00506414712
0.00529494852
0.0043755268
0.190037854
0.189999563
0.162983545
0.155104567
0.156835447
0.111737197
0.00571042607
0.00585886119
0.00558953466
0.00508470407
0.00554266093
0.00451117801
0.164538388
0.147202917
0.00523065045
0.0056289972
0.00460965236
0.00529019572
0.00410117346
0.190990565
0.191094261
0.162576945
0.156492858
0.154839331
0.123932851
0.00595059542
0.00511982126
0.151613795
0.138514691
0.00596455545
0.00486930594
0.164110187
0.165413322
0.144804411
0.152896708
0.107202089
0.00599968432
0.00638196211
0.00495154864
0.157758811
0.169803776
0.113545855
0.0057868727
0.00504012861
0.149274915
0.149335954
0.141521683
0.101462633
0.00622901517
0.00509334392
0.143100014
0.119599611
0.00593566438
0.00634459781
0.00497943677
0.155200739
0.162023725
0.140006357
0.149625591
0.105919756
0.00610101903
0.0055395571
0.151567556
0.151759713
0.111568776
0.00624577136
0.00630723134
0.00558428718
0.00587311274
0.00483531156
0.00551527157
0.00359192375
0.186592937
0.187526141
0.163206114
0.161589073
0.148568554
0.148709014
0.0713213431
0.0057168444
0.00494782057
0.170406944
0.170833375
0.131577945
0.00611827161
0.00504536585
0.126725492
0.00571398398
0.0058717895
0.00537895321
0.00511394166
0.00517184448
0.00434838353
0.188988237
0.189411791
0.164427268