/*--------------------------------*- C++ -*----------------------------------*\
| =========                 |                                                 |
| \\      /  F ield         | OpenFOAM: The Open Source CFD Toolbox           |
|  \\    /   O peration     | Version:  2306                                  |
|   \\  /    A nd           | Website:  www.openfoam.com                      |
|    \\/     M anipulation  |                                                 |
\*---------------------------------------------------------------------------*/
FoamFile
{
    version     2.0;
    format      ascii;
    arch        "LSB;label=32;scalar=64";
    class       volVectorField;
    location    "0.00118";
    object      U;
}
// * * * * * * * * * * * * * * * * * * * * * * * * * * * * * * * * * * * * * //

dimensions      [0 1 -1 0 0 0 0];

internalField   nonuniform List<vector> 
530
(
(0.131691121 0 0)
(0.132566451 0 0)
(0.030335426 0 0)
(-0.0722170213 0 0)
(-0.193856947 0 0)
(-0.233014313 0 0)
(-0.241239894 0 0)
(-0.264735424 0 0)
(-0.375642075 0 0)
(-0.493969037 0 0)
(-0.505945148 0 0)
(-0.361022571 0 0)
(-0.149800851 0 0)
(0.0585575338 0 0)
(0.274926686 0 0)
(0.541306443 0 0)
(0.781432919 0 0)
(0.813987746 0 0)
(0.528709178 0 0)
(0.0739468063 0 0)
(-0.242101203 0 0)
(-0.135020718 0 0)
(0.37060605 0 0)
(0.951077629 0 0)
(1.29046077 0 0)
(1.22826374 0 0)
(0.824874887 0 0)
(0.351440397 0 0)
(0.0469864553 0 0)
(-0.0126493664 0 0)
(0.120482518 0 0)
(0.318361471 0 0)
(0.488481431 0 0)
(0.605958515 0 0)
(0.673235373 0 0)
(0.702317545 0 0)
(0.700956218 0 0)
(0.672413555 0 0)
(0.616147225 0 0)
(0.528871438 0 0)
(0.408555237 0 0)
(0.256572053 0 0)
(0.0834137589 0 0)
(-0.0951635346 0 0)
(-0.253029343 0 0)
(-0.374682522 0 0)
(-0.449563294 0 0)
(-0.47991895 0 0)
(-0.477144107 0 0)
(-0.452282324 0 0)
(-0.416550014 0 0)
(-0.378790829 0 0)
(-0.341235046 0 0)
(-0.303872419 0 0)
(-0.270374119 0 0)
(-0.239807766 0 0)
(-0.211378234 0 0)
(-0.185513085 0 0)
(-0.16247012 0 0)
(-0.140800887 0 0)
(-0.120506142 0 0)
(-0.10082554 0 0)
(-0.0832768557 0 0)
(-0.066077751 0 0)
(-0.0492483005 0 0)
(-0.0336197445 0 0)
(-0.0190815475 0 0)
(-0.00490607944 0 0)
(0.0087166316 0 0)
(0.0215314302 0 0)
(0.0338374725 0 0)
(0.0453594639 0 0)
(0.0560116093 0 0)
(0.0659629492 0 0)
(0.0752458961 0 0)
(0.0841826214 0 0)
(0.0923506037 0 0)
(0.0997821289 0 0)
(0.106878111 0 0)
(0.113508349 0 0)
(0.119469606 0 0)
(0.124814006 0 0)
(0.129739124 0 0)
(0.134919946 0 0)
(0.140300506 0 0)
(0.139740736 0 0)
(0.133263704 0 0)
(0.155572635 0 0)
(0.169584147 0 0)
(0.165102492 0 0)
(0.165232686 0 0)
(0.167621704 0 0)
(0.165936745 0 0)
(0.167691468 0 0)
(0.175708777 0 0)
(0.179015001 0 0)
(0.183589329 0 0)
(0.183981979 0 0)
(0.188739848 0 0)
(0.189986637 0 0)
(0.193120027 0 0)
(0.192550657 0 0)
(0.195960505 0 0)
(0.198516451 0 0)
(0.199797432 0 0)
(0.203499793 0 0)
(0.208597177 0 0)
(0.209829006 0 0)
(0.210867637 0 0)
(0.210197494 0 0)
(0.20306832 0 0)
(0.198476604 0 0)
(0.199569019 0 0)
(0.204179305 0 0)
(0.204421021 0 0)
(0.205787805 0 0)
(0.215990187 0 0)
(0.218849955 0 0)
(0.216343328 0 0)
(0.211201475 0 0)
(0.209895344 0 0)
(0.210222462 0 0)
(0.211165989 0 0)
(0.214040971 0 0)
(0.216053797 0 0)
(0.216896097 0 0)
(0.220635967 0 0)
(0.221922494 0 0)
(0.22571339 0 0)
(0.225624531 0 0)
(0.224862874 0 0)
(0.229207012 0 0)
(0.228706362 0 0)
(0.226203276 0 0)
(0.224482286 0 0)
(0.224678592 0 0)
(0.228571658 0 0)
(0.2281721 0 0)
(0.2260504 0 0)
(0.227186682 0 0)
(0.228460752 0 0)
(0.226515565 0 0)
(0.224580136 0 0)
(0.228864613 0 0)
(0.23279749 0 0)
(0.230019066 0 0)
(0.222187644 0 0)
(0.220995338 0 0)
(0.222171916 0 0)
(0.220863821 0 0)
(0.218240054 0 0)
(0.216222611 0 0)
(0.215596972 0 0)
(0.218252554 0 0)
(0.216768914 0 0)
(0.213745463 0 0)
(0.210004452 0 0)
(0.206497744 0 0)
(0.205205809 0 0)
(0.207199298 0 0)
(0.214510685 0 0)
(0.216428978 0 0)
(0.219158132 0 0)
(0.217984704 0 0)
(0.214755053 0 0)
(0.215617089 0 0)
(0.217015791 0 0)
(0.214460749 0 0)
(0.212043085 0 0)
(0.208720242 0 0)
(0.204860524 0 0)
(0.20258539 0 0)
(0.202305179 0 0)
(0.205947222 0 0)
(0.205986821 0 0)
(0.207874375 0 0)
(0.206361266 0 0)
(0.206558666 0 0)
(0.214974896 0 0)
(0.215824119 0 0)
(0.206718913 0 0)
(0.200656683 0 0)
(0.198039942 0 0)
(0.194988999 0 0)
(0.195229896 0 0)
(0.195792921 0 0)
(0.193241683 0 0)
(0.19015137 0 0)
(0.185467539 0 0)
(0.181315372 0 0)
(0.179467047 0 0)
(0.180958433 0 0)
(0.187448907 0 0)
(0.188785319 0 0)
(0.190394507 0 0)
(0.188201636 0 0)
(0.184569313 0 0)
(0.180842306 0 0)
(0.17719101 0 0)
(0.175154139 0 0)
(0.176316666 0 0)
(0.181252336 0 0)
(0.181825398 0 0)
(0.183413019 0 0)
(0.181301584 0 0)
(0.18259936 0 0)
(0.190633286 0 0)
(0.185257251 0 0)
(0.178573339 0 0)
(0.175826394 0 0)
(0.172329959 0 0)
(0.172623708 0 0)
(0.171863918 0 0)
(0.167951463 0 0)
(0.165090004 0 0)
(0.163669579 0 0)
(0.162558023 0 0)
(0.159743443 0 0)
(0.15652851 0 0)
(0.151447831 0 0)
(0.147092859 0 0)
(0.145029281 0 0)
(0.146298861 0 0)
(0.152480637 0 0)
(0.153366219 0 0)
(0.153738057 0 0)
(0.151515123 0 0)
(0.145688738 0 0)
(0.142534767 0 0)
(0.140257382 0 0)
(0.137903547 0 0)
(0.135842078 0 0)
(0.136019103 0 0)
(0.134236651 0 0)
(0.131925453 0 0)
(0.131157788 0 0)
(0.130423327 0 0)
(0.128233397 0 0)
(0.125244033 0 0)
(0.120469273 0 0)
(0.116553779 0 0)
(0.114489729 0 0)
(0.117079469 0 0)
(0.125159675 0 0)
(0.120728316 0 0)
(0.11480838 0 0)
(0.112795701 0 0)
(0.110209519 0 0)
(0.107828617 0 0)
(0.105925728 0 0)
(0.10445696 0 0)
(0.102355944 0 0)
(0.0976113179 0 0)
(0.0932731143 0 0)
(0.0918701529 0 0)
(0.0937140152 0 0)
(0.0996653586 0 0)
(0.10097032 0 0)
(0.101393406 0 0)
(0.0993628556 0 0)
(0.0964706954 0 0)
(0.0929805744 0 0)
(0.089830455 0 0)
(0.088542904 0 0)
(0.090129439 0 0)
(0.0954396746 0 0)
(0.0962748912 0 0)
(0.0966699883 0 0)
(0.0950214305 0 0)
(0.0922408791 0 0)
(0.0885985494 0 0)
(0.085747772 0 0)
(0.0846423365 0 0)
(0.085287443 0 0)
(0.0916740353 0 0)
(0.0932174796 0 0)
(0.0872078396 0 0)
(0.0826088814 0 0)
(0.0802226769 0 0)
(0.0785660564 0 0)
(0.0803641405 0 0)
(0.0809838852 0 0)
(0.079566029 0 0)
(0.0764325652 0 0)
(0.0779296174 0 0)
(0.0813503135 0 0)
(0.0811670139 0 0)
(0.0816861193 0 0)
(0.0817309596 0 0)
(0.0807377027 0 0)
(0.0821631667 0 0)
(0.0882842096 0 0)
(0.0887076339 0 0)
(0.0865648025 0 0)
(0.086814522 0 0)
(0.0853619561 0 0)
(0.0866774978 0 0)
(0.0927981485 0 0)
(0.0951860404 0 0)
(0.0962186923 0 0)
(0.0942937707 0 0)
(0.0910998721 0 0)
(0.0881006627 0 0)
(0.0858512175 0 0)
(0.0846710777 0 0)
(0.0869299139 0 0)
(0.0933157437 0 0)
(0.0894742391 0 0)
(0.0842060535 0 0)
(0.0821342051 0 0)
(0.0795677496 0 0)
(0.0776483405 0 0)
(0.0760563144 0 0)
(0.0751491299 0 0)
(0.0768505879 0 0)
(0.0812549353 0 0)
(0.0817072358 0 0)
(0.0821071975 0 0)
(0.0813303615 0 0)
(0.0822215102 0 0)
(0.0864706977 0 0)
(0.0881500273 0 0)
(0.0893026524 0 0)
(0.0880791565 0 0)
(0.0899653452 0 0)
(0.0965083593 0 0)
(0.0988712847 0 0)
(0.100017648 0 0)
(0.100345173 0 0)
(0.100234574 0 0)
(0.0994099153 0 0)
(0.101635384 0 0)
(0.107547234 0 0)
(0.104285953 0 0)
(0.100079745 0 0)
(0.0987475445 0 0)
(0.0964705079 0 0)
(0.0951074263 0 0)
(0.0947966192 0 0)
(0.0939544275 0 0)
(0.0924901833 0 0)
(0.0898792254 0 0)
(0.0877615745 0 0)
(0.0870706125 0 0)
(0.0895318384 0 0)
(0.0957882467 0 0)
(0.0933526084 0 0)
(0.0895478459 0 0)
(0.0881507443 0 0)
(0.0863733351 0 0)
(0.0862344612 0 0)
(0.0866633884 0 0)
(0.0857557914 0 0)
(0.0845029057 0 0)
(0.0825831994 0 0)
(0.0805339997 0 0)
(0.0798544445 0 0)
(0.0813368803 0 0)
(0.0851786931 0 0)
(0.0858977597 0 0)
(0.0867116644 0 0)
(0.0862516509 0 0)
(0.0867677594 0 0)
(0.0912562377 0 0)
(0.0931619816 0 0)
(0.0934326937 0 0)
(0.0934556711 0 0)
(0.0927011224 0 0)
(0.0928498367 0 0)
(0.0932501535 0 0)
(0.0933301866 0 0)
(0.0924837942 0 0)
(0.090867618 0 0)
(0.0891969587 0 0)
(0.0888442491 0 0)
(0.088447362 0 0)
(0.0893720068 0 0)
(0.0939522857 0 0)
(0.0959240949 0 0)
(0.0962089411 0 0)
(0.096094665 0 0)
(0.0963191652 0 0)
(0.0982930288 0 0)
(0.0992526755 0 0)
(0.0979851373 0 0)
(0.0949009165 0 0)
(0.0922073031 0 0)
(0.0916493049 0 0)
(0.0911663181 0 0)
(0.0926543407 0 0)
(0.0971791001 0 0)
(0.0998113265 0 0)
(0.102096141 0 0)
(0.101598802 0 0)
(0.0995087382 0 0)
(0.0977983941 0 0)
(0.0975058523 0 0)
(0.097623029 0 0)
(0.100839709 0 0)
(0.107873087 0 0)
(0.106873053 0 0)
(0.104818724 0 0)
(0.104306501 0 0)
(0.103057632 0 0)
(0.103236154 0 0)
(0.104591766 0 0)
(0.104949664 0 0)
(0.104247478 0 0)
(0.10633154 0 0)
(0.108806468 0 0)
(0.108203036 0 0)
(0.107462223 0 0)
(0.10548404 0 0)
(0.103362387 0 0)
(0.104431021 0 0)
(0.105196681 0 0)
(0.10462746 0 0)
(0.106478532 0 0)
(0.112163544 0 0)
(0.114307651 0 0)
(0.113447642 0 0)
(0.111673044 0 0)
(0.109336477 0 0)
(0.107345686 0 0)
(0.106892065 0 0)
(0.108886247 0 0)
(0.110270321 0 0)
(0.109692031 0 0)
(0.108406173 0 0)
(0.10828741 0 0)
(0.108822699 0 0)
(0.108497319 0 0)
(0.109911416 0 0)
(0.115924499 0 0)
(0.118798645 0 0)
(0.119895037 0 0)
(0.122351083 0 0)
(0.121927736 0 0)
(0.121251563 0 0)
(0.124456453 0 0)
(0.128052242 0 0)
(0.128332772 0 0)
(0.12974123 0 0)
(0.134389846 0 0)
(0.136754862 0 0)
(0.139528924 0 0)
(0.139663989 0 0)
(0.142255624 0 0)
(0.149991749 0 0)
(0.155041933 0 0)
(0.159182219 0 0)
(0.158860477 0 0)
(0.160532863 0 0)
(0.16800217 0 0)
(0.173211096 0 0)
(0.177685152 0 0)
(0.177288109 0 0)
(0.178649114 0 0)
(0.185607753 0 0)
(0.190372264 0 0)
(0.194725092 0 0)
(0.193994829 0 0)
(0.193903728 0 0)
(0.20098177 0 0)
(0.203848601 0 0)
(0.197606409 0 0)
(0.192750849 0 0)
(0.193654507 0 0)
(0.193555624 0 0)
(0.191404994 0 0)
(0.189035469 0 0)
(0.190811668 0 0)
(0.194456259 0 0)
(0.194304854 0 0)
(0.195760896 0 0)
(0.201720333 0 0)
(0.199954677 0 0)
(0.198623466 0 0)
(0.197407545 0 0)
(0.194780604 0 0)
(0.198132169 0 0)
(0.203344003 0 0)
(0.202677823 0 0)
(0.1998203 0 0)
(0.202329886 0 0)
(0.207188341 0 0)
(0.206681042 0 0)
(0.203968417 0 0)
(0.20588278 0 0)
(0.20905146 0 0)
(0.207881954 0 0)
(0.209589347 0 0)
(0.216178495 0 0)
(0.214516121 0 0)
(0.213302559 0 0)
(0.212275363 0 0)
(0.210065444 0 0)
(0.213999413 0 0)
(0.219494799 0 0)
(0.218843125 0 0)
(0.216110724 0 0)
(0.21835689 0 0)
(0.222047309 0 0)
(0.22113598 0 0)
(0.222755676 0 0)
(0.229345598 0 0)
(0.227557569 0 0)
(0.226382787 0 0)
(0.225339367 0 0)
(0.223138483 0 0)
(0.227461407 0 0)
(0.233117169 0 0)
(0.232210978 0 0)
(0.229399537 0 0)
(0.232015849 0 0)
(0.235965841 0 0)
(0.234808814 0 0)
(0.23624207 0 0)
(0.242953509 0 0)
(0.24092001 0 0)
(0.23989578 0 0)
(0.238840172 0 0)
(0.236508951 0 0)
(0.24106859 0 0)
(0.247142522 0 0)
(0.246347138 0 0)
(0.243344935 0 0)
(0.246977885 0 0)
(0.25297743 0 0)
(0.252329634 0 0)
)
;

boundaryField
{
    closed
    {
        type            noSlip;
    }
    open
    {
        type            inletOutlet;
        inletValue      nonuniform List<vector> 0();
        value           nonuniform List<vector> 0();
    }
    sides
    {
        type            empty;
    }
    procBoundary0to1
    {
        type            processor;
        value           uniform (0.249251059 0 0);
    }
}


// ************************************************************************* //
