/*--------------------------------*- C++ -*----------------------------------*\
| =========                 |                                                 |
| \\      /  F ield         | OpenFOAM: The Open Source CFD Toolbox           |
|  \\    /   O peration     | Version:  2306                                  |
|   \\  /    A nd           | Website:  www.openfoam.com                      |
|    \\/     M anipulation  |                                                 |
\*---------------------------------------------------------------------------*/
FoamFile
{
    version     2.0;
    format      ascii;
    arch        "LSB;label=32;scalar=64";
    class       surfaceScalarField;
    location    "0.00178";
    object      phi;
}
// * * * * * * * * * * * * * * * * * * * * * * * * * * * * * * * * * * * * * //

dimensions      [1 0 -1 0 0 0 0];

oriented        oriented;

internalField   nonuniform List<scalar> 
529
(
1.75462038e-06
1.75004575e-06
1.74543681e-06
1.74081325e-06
1.73617528e-06
1.73152519e-06
1.72687225e-06
1.72221309e-06
1.71755206e-06
1.71289369e-06
1.70824325e-06
1.70360703e-06
1.6989911e-06
1.69440333e-06
1.68985054e-06
1.68534178e-06
1.6808846e-06
1.67648853e-06
1.6721622e-06
1.66790231e-06
1.66372914e-06
1.65965253e-06
1.65567974e-06
1.65181998e-06
1.64807981e-06
1.64446691e-06
1.6409869e-06
1.63764545e-06
1.63444683e-06
1.63139446e-06
1.62849081e-06
1.62573702e-06
1.62313341e-06
1.62067894e-06
1.61837156e-06
1.61620826e-06
1.61418462e-06
1.6122959e-06
1.6105355e-06
1.60889723e-06
1.60737275e-06
1.60595464e-06
1.60463345e-06
1.603392e-06
1.60222866e-06
1.60113503e-06
1.60010034e-06
1.59911615e-06
1.59817214e-06
1.59726e-06
1.59637038e-06
1.59549539e-06
1.59462694e-06
1.59375789e-06
1.59288153e-06
1.59199175e-06
1.59108329e-06
1.59014459e-06
1.58917846e-06
1.58818128e-06
1.58715054e-06
1.58608389e-06
1.58498007e-06
1.58383793e-06
1.58265735e-06
1.58143824e-06
1.58018146e-06
1.57888786e-06
1.57755911e-06
1.57619684e-06
1.5748034e-06
1.57338102e-06
1.57193258e-06
1.57046076e-06
1.56896886e-06
1.56745982e-06
1.56593728e-06
1.56440428e-06
1.56286472e-06
1.56132157e-06
1.55977893e-06
1.55823956e-06
1.55670771e-06
1.55518581e-06
1.55367806e-06
1.55218671e-06
1.55070899e-06
1.54925307e-06
1.5478228e-06
1.5464194e-06
1.5450461e-06
1.54370388e-06
1.5423952e-06
1.54112075e-06
1.5398822e-06
1.53867982e-06
1.53751455e-06
1.53638614e-06
1.53529487e-06
1.53423989e-06
1.53322087e-06
1.53223638e-06
1.53128553e-06
1.53036637e-06
1.52947753e-06
1.52861661e-06
1.52778187e-06
1.52697057e-06
1.52618072e-06
1.52540936e-06
1.52465439e-06
1.52391277e-06
1.52318242e-06
1.52246039e-06
1.52174472e-06
1.52103267e-06
1.52032257e-06
1.51961196e-06
1.51889957e-06
1.51818332e-06
1.51746239e-06
1.51673515e-06
1.51600127e-06
1.5152596e-06
1.51451027e-06
1.51375264e-06
1.51298725e-06
1.51221395e-06
1.51143358e-06
1.5106465e-06
1.50985369e-06
1.509056e-06
1.5082544e-06
1.5074502e-06
1.50664421e-06
1.50583812e-06
1.50503253e-06
1.50422931e-06
1.50342896e-06
1.50263312e-06
1.50184266e-06
1.50105827e-06
1.5002819e-06
1.49951233e-06
1.49875365e-06
1.49800163e-06
1.49726342e-06
1.49653115e-06
1.49581526e-06
1.49510479e-06
1.49441227e-06
1.49372607e-06
1.49305777e-06
1.49239759e-06
1.49175474e-06
1.49112274e-06
1.49050718e-06
1.48990571e-06
1.48931981e-06
1.48875189e-06
1.48819961e-06
1.48766912e-06
1.48715563e-06
1.48666747e-06
1.48619905e-06
1.48575933e-06
1.48534346e-06
1.48495966e-06
1.4846047e-06
1.48428591e-06
1.48400064e-06
1.48375636e-06
1.48355066e-06
1.48339092e-06
1.48327533e-06
1.48321072e-06
1.483196e-06
1.48323722e-06
1.48333392e-06
1.48349137e-06
1.48370948e-06
1.48399284e-06
1.48434147e-06
1.48475933e-06
1.48524633e-06
1.48580591e-06
1.48643762e-06
1.48714244e-06
1.48792129e-06
1.48877668e-06
1.48970731e-06
1.49071487e-06
1.49179782e-06
1.49295709e-06
1.49419081e-06
1.49549922e-06
1.4968801e-06
1.49833306e-06
1.49985551e-06
1.50144649e-06
1.50310305e-06
1.50482379e-06
1.50660538e-06
1.50844604e-06
1.51034216e-06
1.51229164e-06
1.51429064e-06
1.51633683e-06
1.51842619e-06
1.52055626e-06
1.52272291e-06
1.52492362e-06
1.52715422e-06
1.5294122e-06
1.53169346e-06
1.53399553e-06
1.53631446e-06
1.53864786e-06
1.54099205e-06
1.54334468e-06
1.54570252e-06
1.54806316e-06
1.550424e-06
1.55278248e-06
1.55513687e-06
1.55748426e-06
1.55982401e-06
1.5621528e-06
1.56447118e-06
1.56677541e-06
1.56906711e-06
1.57134252e-06
1.57360357e-06
1.57584762e-06
1.57807486e-06
1.5802864e-06
1.58247444e-06
1.58461513e-06
1.58686505e-06
1.58895418e-06
1.59107464e-06
1.5931885e-06
1.59528431e-06
1.59736963e-06
1.59944043e-06
1.60150189e-06
1.60355272e-06
1.60559596e-06
1.60763244e-06
1.60966352e-06
1.6116915e-06
1.61371684e-06
1.61574257e-06
1.61776883e-06
1.61979887e-06
1.62183288e-06
1.62387402e-06
1.62592263e-06
1.62798165e-06
1.6300516e-06
1.63213513e-06
1.63423288e-06
1.63634722e-06
1.63847884e-06
1.64062984e-06
1.6428009e-06
1.64499389e-06
1.64720941e-06
1.64944913e-06
1.65171354e-06
1.65400408e-06
1.65632116e-06
1.65866601e-06
1.66103888e-06
1.66344084e-06
1.66587201e-06
1.66833326e-06
1.67082459e-06
1.67334671e-06
1.67589949e-06
1.67848349e-06
1.68109848e-06
1.68374488e-06
1.68642239e-06
1.68913129e-06
1.6918712e-06
1.69464232e-06
1.69744423e-06
1.70027703e-06
1.7031512e-06
1.70605598e-06
1.7089909e-06
1.71195594e-06
1.71495065e-06
1.71797499e-06
1.72102851e-06
1.72411114e-06
1.72722249e-06
1.73036246e-06
1.73353068e-06
1.73672708e-06
1.73995132e-06
1.74320332e-06
1.7464828e-06
1.74978967e-06
1.7531237e-06
1.75648482e-06
1.7598728e-06
1.7632876e-06
1.76672902e-06
1.77019702e-06
1.77369142e-06
1.77721218e-06
1.78075913e-06
1.78433222e-06
1.78793128e-06
1.79155625e-06
1.79520696e-06
1.79888332e-06
1.80258516e-06
1.80631234e-06
1.81006468e-06
1.81384201e-06
1.81764413e-06
1.82147083e-06
1.82532187e-06
1.82919701e-06
1.83309598e-06
1.8370185e-06
1.84096429e-06
1.84493302e-06
1.84892437e-06
1.85294044e-06
1.85697857e-06
1.86103842e-06
1.86511965e-06
1.8692219e-06
1.87334483e-06
1.8774881e-06
1.88165138e-06
1.88583437e-06
1.89003677e-06
1.89425833e-06
1.89849881e-06
1.90275802e-06
1.90703582e-06
1.91133208e-06
1.91564677e-06
1.91997988e-06
1.92433149e-06
1.92870172e-06
1.93309078e-06
1.93749895e-06
1.94192658e-06
1.94637413e-06
1.95084211e-06
1.95533113e-06
1.95984189e-06
1.96437516e-06
1.96893183e-06
1.97351282e-06
1.97811919e-06
1.98275202e-06
1.9874125e-06
1.99210186e-06
1.9968214e-06
2.00157244e-06
2.00635637e-06
2.01117455e-06
2.01602841e-06
2.02091931e-06
2.02584862e-06
2.03081767e-06
2.03582769e-06
2.04087988e-06
2.04597528e-06
2.05111484e-06
2.05629932e-06
2.06152937e-06
2.06680534e-06
2.07212746e-06
2.0774956e-06
2.08290947e-06
2.08836836e-06
2.09387135e-06
2.09943744e-06
2.10504463e-06
2.11069075e-06
2.11637338e-06
2.1220895e-06
2.1278358e-06
2.13360838e-06
2.139403e-06
2.14521482e-06
2.15103862e-06
2.15686862e-06
2.16269863e-06
2.16852194e-06
2.17433139e-06
2.18011938e-06
2.18587787e-06
2.19159841e-06
2.19727217e-06
2.20288997e-06
2.20844228e-06
2.21391934e-06
2.21931109e-06
2.2246073e-06
2.22979759e-06
2.23487148e-06
2.23981843e-06
2.24462792e-06
2.24928947e-06
2.25379277e-06
2.25812766e-06
2.26228422e-06
2.26625288e-06
2.27002438e-06
2.27358995e-06
2.27694127e-06
2.28007057e-06
2.28297071e-06
2.2856352e-06
2.28805824e-06
2.29023483e-06
2.29216073e-06
2.29383258e-06
2.29524788e-06
2.29640507e-06
2.29730351e-06
2.29794353e-06
2.29832643e-06
2.29845453e-06
2.29833112e-06
2.2979605e-06
2.29734796e-06
2.29649976e-06
2.29542315e-06
2.29412629e-06
2.29261829e-06
2.29090908e-06
2.28900954e-06
2.28693122e-06
2.28468655e-06
2.28228854e-06
2.27975099e-06
2.27709133e-06
2.27432134e-06
2.27145625e-06
2.26851186e-06
2.26550417e-06
2.26244954e-06
2.25935795e-06
2.25603093e-06
2.25247242e-06
2.24869497e-06
2.24472255e-06
2.24059403e-06
2.23636731e-06
2.23212413e-06
2.22797574e-06
2.22406891e-06
2.22059254e-06
2.21778409e-06
2.21593539e-06
2.21539687e-06
2.21657888e-06
2.21994864e-06
2.2260206e-06
2.23533843e-06
2.24844626e-06
2.26584788e-06
2.2879536e-06
2.31501662e-06
2.34706431e-06
2.38383285e-06
2.42480127e-06
2.4689406e-06
2.51498925e-06
2.56148469e-06
2.60693573e-06
2.65003288e-06
2.68984119e-06
2.72590017e-06
2.75816499e-06
2.78677422e-06
2.81169608e-06
2.83233519e-06
2.84717404e-06
2.85355314e-06
2.8477081e-06
2.82496349e-06
2.78000299e-06
2.70818501e-06
2.60829224e-06
2.48390768e-06
2.35082154e-06
2.23195021e-06
2.13956546e-06
1.96531374e-06
1.80984993e-06
1.70171948e-06
1.45634128e-06
1.1130594e-06
9.42833464e-07
9.9569995e-07
1.13345638e-06
1.21177711e-06
1.23775822e-06
1.26040306e-06
1.32323942e-06
1.49421643e-06
1.77821143e-06
2.12495199e-06
2.33550748e-06
2.3123847e-06
2.21080643e-06
2.03309192e-06
1.8403447e-06
1.81137984e-06
1.90473519e-06
1.9956935e-06
2.06511088e-06
2.03267023e-06
1.90817514e-06
1.78693951e-06
1.73664075e-06
1.92266071e-06
2.17662471e-06
)
;

boundaryField
{
    closed
    {
        type            calculated;
        value           nonuniform List<scalar> 0();
    }
    open
    {
        type            calculated;
        value           uniform 2.16295192e-06;
    }
    sides
    {
        type            empty;
        value           nonuniform List<scalar> 0();
    }
    procBoundary5to4
    {
        type            processor;
        value           uniform -1.7591774e-06;
    }
}


// ************************************************************************* //
