/*--------------------------------*- C++ -*----------------------------------*\
| =========                 |                                                 |
| \\      /  F ield         | OpenFOAM: The Open Source CFD Toolbox           |
|  \\    /   O peration     | Version:  2306                                  |
|   \\  /    A nd           | Website:  www.openfoam.com                      |
|    \\/     M anipulation  |                                                 |
\*---------------------------------------------------------------------------*/
FoamFile
{
    version     2.0;
    format      ascii;
    arch        "LSB;label=32;scalar=64";
    class       volScalarField;
    location    "2e-05";
    object      prefDZ_T;
}
// * * * * * * * * * * * * * * * * * * * * * * * * * * * * * * * * * * * * * //

dimensions      [1 -1 -1 -1 0 0 0];

internalField   nonuniform List<scalar> 
3801
(
-1.22821893e-09
-1.19052838e-09
-1.18740685e-09
-1.22817459e-09
-1.22675055e-09
-1.18942586e-09
-1.18766298e-09
-1.22858178e-09
-1.22677442e-09
-1.18869924e-09
-1.18748623e-09
-1.22881546e-09
-1.22691234e-09
-1.18832142e-09
-1.18730807e-09
-1.22894864e-09
-1.22702213e-09
-1.18814822e-09
-1.18719058e-09
-1.22902142e-09
-1.22709441e-09
-1.18806723e-09
-1.18712148e-09
-1.22905484e-09
-1.22713468e-09
-1.18804407e-09
-1.18709844e-09
-1.22905549e-09
-1.22714508e-09
-1.18807288e-09
-1.18713025e-09
-1.22902626e-09
-1.2271292e-09
-1.18814067e-09
-1.18722338e-09
-1.22897127e-09
-1.22709264e-09
-1.18822426e-09
-1.18738722e-09
-1.22889279e-09
-1.22703791e-09
-1.18830502e-09
-1.18764644e-09
-1.22878954e-09
-1.22695808e-09
-1.18836739e-09
-1.18803918e-09
-1.228666e-09
-1.22683401e-09
-1.18825934e-09
-1.18875505e-09
-1.22876288e-09
-1.19023934e-09
-1.18680868e-09
-1.22841866e-09
-1.2270845e-09
-1.18933577e-09
-1.18779134e-09
-1.22863896e-09
-1.22684605e-09
-1.18884008e-09
-1.18821626e-09
-1.22871342e-09
-1.22674152e-09
-1.1884105e-09
-1.18886606e-09
-1.22900894e-09
-1.19039557e-09
-1.18658342e-09
-1.22863655e-09
-1.22719603e-09
-1.18931234e-09
-1.18740909e-09
-1.22900148e-09
-1.22699934e-09
-1.18877885e-09
-1.18743005e-09
-1.22920057e-09
-1.2270175e-09
-1.18849912e-09
-1.18730221e-09
-1.22932121e-09
-1.22706858e-09
-1.18836048e-09
-1.18719995e-09
-1.22938377e-09
-1.22711182e-09
-1.18830429e-09
-1.18715152e-09
-1.22940015e-09
-1.2271361e-09
-1.18830819e-09
-1.18717466e-09
-1.22937272e-09
-1.22713228e-09
-1.18836664e-09
-1.18730598e-09
-1.22929853e-09
-1.22709076e-09
-1.18846786e-09
-1.18757899e-09
-1.22917799e-09
-1.22700635e-09
-1.18857134e-09
-1.18800428e-09
-1.22904406e-09
-1.22685492e-09
-1.18841052e-09
-1.18877798e-09
-1.22905635e-09
-1.19085855e-09
-1.18622581e-09
-1.22854371e-09
-1.22740793e-09
-1.18938581e-09
-1.18755457e-09
-1.22890341e-09
-1.2270194e-09
-1.18900952e-09
-1.18774691e-09
-1.22894508e-09
-1.22695828e-09
-1.18894284e-09
-1.18780472e-09
-1.2287606e-09
-1.22705674e-09
-1.18923738e-09
-1.18777311e-09
-1.22818408e-09
-1.2274737e-09
-1.1903994e-09
-1.18714764e-09
-1.18662962e-09
-1.22842941e-09
-1.22694568e-09
-1.19007939e-09
-1.18806679e-09
-1.22851873e-09
-1.22681898e-09
-1.18997136e-09
-1.18821317e-09
-1.22805593e-09
-1.22723557e-09
-1.19151337e-09
-1.18747669e-09
-1.18711253e-09
-1.22828527e-09
-1.22666892e-09
-1.18967851e-09
-1.18966986e-09
-1.22901955e-09
-1.19298658e-09
-1.18625664e-09
-1.22848832e-09
-1.22740706e-09
-1.18953619e-09
-1.18765881e-09
-1.22903475e-09
-1.22699471e-09
-1.18901041e-09
-1.18753209e-09
-1.22926297e-09
-1.22695103e-09
-1.18872892e-09
-1.18730372e-09
-1.22934413e-09
-1.22696888e-09
-1.18860129e-09
-1.18720541e-09
-1.22931891e-09
-1.22696283e-09
-1.18859697e-09
-1.18726414e-09
-1.22919941e-09
-1.22689812e-09
-1.18873131e-09
-1.18753977e-09
-1.2289885e-09
-1.22675485e-09
-1.1889959e-09
-1.18816431e-09
-1.22872368e-09
-1.22657774e-09
-1.18917267e-09
-1.18903546e-09
-1.22847527e-09
-1.20526896e-09
-1.18564604e-09
-1.18619818e-09
-1.22801159e-09
-1.22711686e-09
-1.19005861e-09
-1.1889308e-09
-1.22745871e-09
-1.22658214e-09
-1.18880037e-09
-1.18960125e-09
-1.22779243e-09
-1.19241587e-09
-1.18595536e-09
-1.22673475e-09
-1.22778442e-09
-1.18861186e-09
-1.18780511e-09
-1.22728e-09
-1.22799787e-09
-1.18817042e-09
-1.18815506e-09
-1.22733351e-09
-1.22876872e-09
-1.18801629e-09
-1.18848699e-09
-1.22727473e-09
-1.22944761e-09
-1.18795746e-09
-1.18910392e-09
-1.22722083e-09
-1.22984669e-09
-1.18777916e-09
-1.19021531e-09
-1.22906633e-09
-1.19006307e-09
-1.18741936e-09
-1.22629018e-09
-1.23093291e-09
-1.18819611e-09
-1.1894963e-09
-1.22667831e-09
-1.23052556e-09
-1.188309e-09
-1.18974072e-09
-1.22642265e-09
-1.22937792e-09
-1.18869996e-09
-1.18665897e-09
-1.18873542e-09
-1.22756077e-09
-1.22963667e-09
-1.18851206e-09
-1.18903343e-09
-1.22704016e-09
-1.22918534e-09
-1.18798204e-09
-1.18880968e-09
-1.22712574e-09
-1.22855367e-09
-1.18766284e-09
-1.18834323e-09
-1.22727833e-09
-1.22802917e-09
-1.18754487e-09
-1.18798825e-09
-1.22760486e-09
-1.22774393e-09
-1.18757771e-09
-1.18780007e-09
-1.22805357e-09
-1.22757945e-09
-1.18769703e-09
-1.18770083e-09
-1.22845124e-09
-1.22748131e-09
-1.18784841e-09
-1.18766898e-09
-1.22877067e-09
-1.22738394e-09
-1.18803418e-09
-1.18775081e-09
-1.22900793e-09
-1.22723752e-09
-1.18830128e-09
-1.18795846e-09
-1.22909703e-09
-1.22713009e-09
-1.18882157e-09
-1.18821907e-09
-1.22897837e-09
-1.22748748e-09
-1.18943278e-09
-1.18677412e-09
-1.18717214e-09
-1.2286579e-09
-1.22695972e-09
-1.1897421e-09
-1.187955e-09
-1.22940796e-09
-1.22686576e-09
-1.18940203e-09
-1.18815109e-09
-1.22944701e-09
-1.22677707e-09
-1.18916389e-09
-1.18826375e-09
-1.22943474e-09
-1.22661919e-09
-1.18871456e-09
-1.18898232e-09
-1.2290254e-09
-1.19076292e-09
-1.18695633e-09
-1.22907757e-09
-1.22708036e-09
-1.18948632e-09
-1.18788516e-09
-1.22920996e-09
-1.22690383e-09
-1.18939429e-09
-1.1883018e-09
-1.22879662e-09
-1.22740919e-09
-1.1898535e-09
-1.18690582e-09
-1.18687589e-09
-1.22858593e-09
-1.22680141e-09
-1.18975381e-09
-1.1876801e-09
-1.22928939e-09
-1.22670139e-09
-1.18933792e-09
-1.18777032e-09
-1.22931932e-09
-1.22670415e-09
-1.18917158e-09
-1.18782678e-09
-1.22929604e-09
-1.22662685e-09
-1.18918413e-09
-1.18813649e-09
-1.22917605e-09
-1.22647347e-09
-1.18916986e-09
-1.18909027e-09
-1.22885243e-09
-1.1922573e-09
-1.18734724e-09
-1.22813209e-09
-1.22769998e-09
-1.19050204e-09
-1.18678704e-09
-1.18687982e-09
-1.22870345e-09
-1.22683484e-09
-1.18995423e-09
-1.18778379e-09
-1.22952524e-09
-1.22677579e-09
-1.18942336e-09
-1.18768305e-09
-1.22974898e-09
-1.226905e-09
-1.18904515e-09
-1.18745736e-09
-1.2299209e-09
-1.22700734e-09
-1.18882499e-09
-1.18728214e-09
-1.23004296e-09
-1.22706287e-09
-1.18872518e-09
-1.1872113e-09
-1.23010457e-09
-1.22707543e-09
-1.18869806e-09
-1.18724982e-09
-1.23009612e-09
-1.22704505e-09
-1.18874097e-09
-1.18741429e-09
-1.22999311e-09
-1.22698777e-09
-1.18890522e-09
-1.18771993e-09
-1.22972658e-09
-1.22700326e-09
-1.18929427e-09
-1.18788822e-09
-1.22907217e-09
-1.2274699e-09
-1.19023913e-09
-1.18685358e-09
-1.18641319e-09
-1.22863107e-09
-1.22684832e-09
-1.18994767e-09
-1.18793438e-09
-1.22935637e-09
-1.22648737e-09
-1.18972173e-09
-1.18832902e-09
-1.22911561e-09
-1.22642049e-09
-1.19004698e-09
-1.18865782e-09
-1.22851757e-09
-1.22662966e-09
-1.19230925e-09
-1.18841507e-09
-1.1880862e-09
-1.22794178e-09
-1.22628471e-09
-1.19540273e-09
-1.1894857e-09
-1.1889976e-09
-1.18886937e-09
-1.22847367e-09
-1.2266787e-09
-1.19261268e-09
-1.18817181e-09
-1.18771871e-09
-1.22844227e-09
-1.22640847e-09
-1.19055326e-09
-1.1887355e-09
-1.22858811e-09
-1.22642148e-09
-1.19009314e-09
-1.18845942e-09
-1.22827341e-09
-1.22706892e-09
-1.19104392e-09
-1.18730583e-09
-1.18675877e-09
-1.22878414e-09
-1.22669825e-09
-1.19008374e-09
-1.18808261e-09
-1.22901515e-09
-1.22648751e-09
-1.1895807e-09
-1.18862086e-09
-1.22903917e-09
-1.2264346e-09
-1.18935134e-09
-1.18948576e-09
-1.22916825e-09
-1.19294025e-09
-1.18669216e-09
-1.2288188e-09
-1.22770129e-09
-1.18935857e-09
-1.18692436e-09
-1.22987735e-09
-1.22778935e-09
-1.18713697e-09
-1.18546405e-09
-1.23020121e-09
-1.22764324e-09
-1.1887985e-09
-1.1874335e-09
-1.22949393e-09
-1.2270924e-09
-1.18919493e-09
-1.18778049e-09
-1.22926123e-09
-1.22694125e-09
-1.18887939e-09
-1.18747744e-09
-1.22924738e-09
-1.22695521e-09
-1.18858917e-09
-1.18722865e-09
-1.22926822e-09
-1.22699207e-09
-1.18843922e-09
-1.18713367e-09
-1.22926679e-09
-1.22700379e-09
-1.18841552e-09
-1.18718678e-09
-1.22921807e-09
-1.22697044e-09
-1.18850609e-09
-1.18743319e-09
-1.22910586e-09
-1.22687902e-09
-1.18864781e-09
-1.18797775e-09
-1.22892176e-09
-1.22671829e-09
-1.18875018e-09
-1.18880792e-09
-1.22868946e-09
-1.19320847e-09
-1.18615318e-09
-1.22789666e-09
-1.22772988e-09
-1.1896872e-09
-1.18790048e-09
-1.2277534e-09
-1.2277808e-09
-1.19199205e-09
-1.18677981e-09
-1.18622245e-09
-1.22851833e-09
-1.22714134e-09
-1.19005486e-09
-1.18803431e-09
-1.22872915e-09
-1.22683141e-09
-1.18947116e-09
-1.18826228e-09
-1.22865559e-09
-1.22700701e-09
-1.18959265e-09
-1.18805495e-09
-1.22811477e-09
-1.22770829e-09
-1.19199048e-09
-1.18645257e-09
-1.18593799e-09
-1.22894898e-09
-1.22730459e-09
-1.18996931e-09
-1.18766236e-09
-1.22932563e-09
-1.22698213e-09
-1.18934911e-09
-1.18766393e-09
-1.22959387e-09
-1.22700798e-09
-1.18905215e-09
-1.18741943e-09
-1.22979516e-09
-1.22709753e-09
-1.18887066e-09
-1.18723447e-09
-1.22994658e-09
-1.22717108e-09
-1.18879667e-09
-1.18715192e-09
-1.23005439e-09
-1.22721282e-09
-1.18880296e-09
-1.18714613e-09
-1.23013259e-09
-1.22723125e-09
-1.18884419e-09
-1.18716649e-09
-1.23019723e-09
-1.2272381e-09
-1.18888839e-09
-1.18718301e-09
-1.23025638e-09
-1.22723791e-09
-1.18892367e-09
-1.18719442e-09
-1.23030761e-09
-1.22722848e-09
-1.18896024e-09
-1.18722446e-09
-1.23033733e-09
-1.22720559e-09
-1.18902084e-09
-1.18730937e-09
-1.23032152e-09
-1.2271726e-09
-1.1891278e-09
-1.18747628e-09
-1.23021628e-09
-1.22715979e-09
-1.18933297e-09
-1.18771557e-09
-1.22991654e-09
-1.22729389e-09
-1.18981098e-09
-1.18779308e-09
-1.22911987e-09
-1.22797944e-09
-1.19331193e-09
-1.1862312e-09
-1.18576473e-09
-1.22960801e-09
-1.22744871e-09
-1.19046546e-09
-1.187945e-09
-1.2299889e-09
-1.22699402e-09
-1.19015781e-09
-1.18821545e-09
-1.2298831e-09
-1.2271221e-09
-1.19034398e-09
-1.18810974e-09
-1.22925145e-09
-1.2279078e-09
-1.19401945e-09
-1.18636267e-09
-1.18581841e-09
-1.22982171e-09
-1.22739283e-09
-1.19062035e-09
-1.18775023e-09
-1.23049566e-09
-1.22695246e-09
-1.19018186e-09
-1.18784577e-09
-1.23068775e-09
-1.22690194e-09
-1.18999157e-09
-1.18782987e-09
-1.23079464e-09
-1.22685552e-09
-1.1899181e-09
-1.1880769e-09
-1.23088075e-09
-1.22662635e-09
-1.18967099e-09
-1.18924327e-09
-1.23070087e-09
-1.19544693e-09
-1.18566804e-09
-1.23047223e-09
-1.22785278e-09
-1.19038819e-09
-1.18790257e-09
-1.23054515e-09
-1.22721439e-09
-1.19074202e-09
-1.18817594e-09
-1.23007023e-09
-1.22754193e-09
-1.19464444e-09
-1.18714436e-09
-1.18666132e-09
-1.23027469e-09
-1.22714291e-09
-1.19164587e-09
-1.18848316e-09
-1.23007165e-09
-1.22715438e-09
-1.19611725e-09
-1.18777921e-09
-1.18751531e-09
-1.23010908e-09
-1.22741277e-09
-1.19598542e-09
-1.18745324e-09
-1.18702003e-09
-1.23045949e-09
-1.22701742e-09
-1.19119297e-09
-1.18844095e-09
-1.23033549e-09
-1.22694253e-09
-1.19094937e-09
-1.18830002e-09
-1.23001716e-09
-1.22752505e-09
-1.1932086e-09
-1.18698583e-09
-1.18633725e-09
-1.23077596e-09
-1.22712198e-09
-1.19052119e-09
-1.18762003e-09
-1.23084301e-09
-1.22692538e-09
-1.18983861e-09
-1.18767019e-09
-1.23087308e-09
-1.22695994e-09
-1.18945407e-09
-1.18748396e-09
-1.23083289e-09
-1.22703324e-09
-1.18919558e-09
-1.1873269e-09
-1.23072496e-09
-1.22709186e-09
-1.18901702e-09
-1.18723557e-09
-1.23056726e-09
-1.2271275e-09
-1.18888744e-09
-1.18720232e-09
-1.23037553e-09
-1.22713626e-09
-1.18881516e-09
-1.18726451e-09
-1.23014754e-09
-1.22710521e-09
-1.18883007e-09
-1.18750263e-09
-1.22987987e-09
-1.2270158e-09
-1.18889844e-09
-1.18799409e-09
-1.22960428e-09
-1.22685314e-09
-1.18878613e-09
-1.18888162e-09
-1.22937143e-09
-1.19253714e-09
-1.18577524e-09
-1.22886135e-09
-1.22774299e-09
-1.18948369e-09
-1.18737553e-09
-1.2293678e-09
-1.22723715e-09
-1.18907212e-09
-1.18764748e-09
-1.22950746e-09
-1.22707466e-09
-1.1890121e-09
-1.18777915e-09
-1.22953736e-09
-1.22697105e-09
-1.18902846e-09
-1.18810912e-09
-1.22952008e-09
-1.22682172e-09
-1.18884453e-09
-1.18889847e-09
-1.22936041e-09
-1.1926497e-09
-1.185706e-09
-1.22907949e-09
-1.22777022e-09
-1.18953482e-09
-1.18727306e-09
-1.22966235e-09
-1.22726145e-09
-1.18907833e-09
-1.18746045e-09
-1.22984803e-09
-1.22711196e-09
-1.18895504e-09
-1.18743568e-09
-1.22988861e-09
-1.22704481e-09
-1.18898706e-09
-1.18749246e-09
-1.22978485e-09
-1.2270003e-09
-1.18925637e-09
-1.18768525e-09
-1.22947171e-09
-1.22702294e-09
-1.18995645e-09
-1.18785161e-09
-1.2288474e-09
-1.22728195e-09
-1.19217459e-09
-1.18744653e-09
-1.18721791e-09
-1.22862981e-09
-1.22747196e-09
-1.19301072e-09
-1.18727595e-09
-1.1868224e-09
-1.22886818e-09
-1.22696968e-09
-1.19041633e-09
-1.18827416e-09
-1.22910384e-09
-1.22666532e-09
-1.1897063e-09
-1.188717e-09
-1.22909293e-09
-1.22653943e-09
-1.1890793e-09
-1.18926303e-09
-1.2292165e-09
-1.19302786e-09
-1.18593344e-09
-1.2284881e-09
-1.22758242e-09
-1.18928993e-09
-1.18724289e-09
-1.2288492e-09
-1.22722128e-09
-1.18865891e-09
-1.18743783e-09
-1.22883586e-09
-1.22713548e-09
-1.18838577e-09
-1.1873383e-09
-1.22870995e-09
-1.22713842e-09
-1.18818207e-09
-1.18721126e-09
-1.22855472e-09
-1.22716019e-09
-1.18802434e-09
-1.18712971e-09
-1.22840539e-09
-1.22717446e-09
-1.18792236e-09
-1.18710428e-09
-1.22828199e-09
-1.22717357e-09
-1.18787222e-09
-1.18711953e-09
-1.22819364e-09
-1.22715955e-09
-1.18785485e-09
-1.18715034e-09
-1.22813802e-09
-1.22713715e-09
-1.18785103e-09
-1.18718201e-09
-1.2281009e-09
-1.22710762e-09
-1.18785372e-09
-1.18722305e-09
-1.22805846e-09
-1.22706584e-09
-1.18787105e-09
-1.18731073e-09
-1.22798173e-09
-1.22699876e-09
-1.18791982e-09
-1.18752135e-09
-1.22784411e-09
-1.22687858e-09
-1.1880081e-09
-1.18796571e-09
-1.22764636e-09
-1.22663275e-09
-1.18803199e-09
-1.1887972e-09
-1.22759343e-09
-1.19208359e-09
-1.18614915e-09
-1.22627862e-09
-1.22731327e-09
-1.189112e-09
-1.18741797e-09
-1.22631609e-09
-1.22742043e-09
-1.18959368e-09
-1.18690682e-09
-1.18667217e-09
-1.22751281e-09
-1.22688643e-09
-1.18903816e-09
-1.18743425e-09
-1.22721573e-09
-1.22677127e-09
-1.18842588e-09
-1.18769743e-09
-1.22726792e-09
-1.22670574e-09
-1.18820351e-09
-1.18774525e-09
-1.22727947e-09
-1.22665284e-09
-1.18842238e-09
-1.18799444e-09
-1.22716034e-09
-1.22657979e-09
-1.18925669e-09
-1.18850252e-09
-1.22689717e-09
-1.22657464e-09
-1.1905277e-09
-1.18877284e-09
-1.18797309e-09
-1.18780121e-09
-1.22824101e-09
-1.22683741e-09
-1.18857074e-09
-1.18781285e-09
-1.22837489e-09
-1.2268387e-09
-1.1886635e-09
-1.18779971e-09
-1.22865411e-09
-1.22688229e-09
-1.18855395e-09
-1.18757929e-09
-1.22897231e-09
-1.22696817e-09
-1.18844536e-09
-1.18736569e-09
-1.22924699e-09
-1.22704831e-09
-1.18841643e-09
-1.18724813e-09
-1.22943881e-09
-1.22710767e-09
-1.18844078e-09
-1.18720712e-09
-1.22953829e-09
-1.22715126e-09
-1.18846607e-09
-1.18719514e-09
-1.22954251e-09
-1.22718601e-09
-1.18845509e-09
-1.18717949e-09
-1.2294475e-09
-1.22721423e-09
-1.18839562e-09
-1.18715091e-09
-1.22925374e-09
-1.22723374e-09
-1.18829198e-09
-1.18711752e-09
-1.22897373e-09
-1.22724023e-09
-1.18816258e-09
-1.18709607e-09
-1.22863105e-09
-1.22723123e-09
-1.1880327e-09
-1.18709784e-09
-1.22825442e-09
-1.22721349e-09
-1.18792264e-09
-1.1871478e-09
-1.22788458e-09
-1.22727389e-09
-1.18785973e-09
-1.18729384e-09
-1.22755335e-09
-1.22743409e-09
-1.1878561e-09
-1.1876205e-09
-1.22731571e-09
-1.22766127e-09
-1.18788876e-09
-1.18824065e-09
-1.22717969e-09
-1.22784566e-09
-1.18779536e-09
-1.18951007e-09
-1.22815826e-09
-1.19042357e-09
-1.18694128e-09
-1.22611499e-09
-1.22915826e-09
-1.18855364e-09
-1.18853044e-09
-1.22639383e-09
-1.22944242e-09
-1.18864158e-09
-1.18901355e-09
-1.22610239e-09
-1.22865041e-09
-1.18918348e-09
-1.18736849e-09
-1.18876115e-09
-1.2271556e-09
-1.22882112e-09
-1.18865784e-09
-1.19048509e-09
-1.22808179e-09
-1.19028819e-09
-1.18772815e-09
-1.22596717e-09
-1.22894211e-09
-1.18815092e-09
-1.18851874e-09
-1.22637275e-09
-1.22811112e-09
-1.18764892e-09
-1.18850375e-09
-1.22654157e-09
-1.22756187e-09
-1.18806976e-09
-1.18825903e-09
-1.22691454e-09
-1.22723512e-09
-1.18853923e-09
-1.18663791e-09
-1.18726189e-09
-1.22747927e-09
-1.22662643e-09
-1.18868228e-09
-1.18781693e-09
-1.22819532e-09
-1.22641728e-09
-1.18888286e-09
-1.18801326e-09
-1.22796634e-09
-1.22654555e-09
-1.18960224e-09
-1.18623864e-09
-1.18640409e-09
-1.22805201e-09
-1.22582811e-09
-1.1865786e-09
-1.18542526e-09
-1.22939813e-09
-1.22550776e-09
-1.22823037e-09
-1.18487705e-09
-1.18249902e-09
-1.22642284e-09
-1.22625426e-09
-1.18514247e-09
-1.18479167e-09
-1.22435637e-09
-1.22450448e-09
-1.18489735e-09
-1.18486097e-09
-1.221959e-09
-1.22132517e-09
-1.22113595e-09
-1.22000641e-09
-1.2192726e-09
-1.21865962e-09
-1.21724193e-09
-1.21706131e-09
-1.20741636e-09
-1.21865177e-09
-1.22030213e-09
-1.16927927e-09
-1.17769871e-09
-1.2335458e-09
-1.23150326e-09
-1.18180586e-09
-1.1647004e-09
-1.22323694e-09
-1.18078201e-09
-1.13693537e-09
-1.15251863e-09
-1.20515088e-09
-1.20564273e-09
-1.14947801e-09
-1.16253565e-09
-1.19998964e-09
-1.18049318e-09
-1.15775592e-09
-1.16186716e-09
-1.18922731e-09
-1.18417789e-09
-1.17434331e-09
-1.15491569e-09
-1.19963015e-09
-1.2099354e-09
-1.18486335e-09
-1.16326807e-09
-1.20027962e-09
-1.20612812e-09
-1.16328047e-09
-1.16590645e-09
-1.20763538e-09
-1.18820283e-09
-1.17584235e-09
-1.16541565e-09
-1.18911792e-09
-1.17473086e-09
-1.17610866e-09
-1.16509154e-09
-1.17788583e-09
-1.16348135e-09
-1.17354288e-09
-1.15983272e-09
-1.17827883e-09
-1.16299195e-09
-1.17427315e-09
-1.16261217e-09
-1.18436728e-09
-1.16737934e-09
-1.17844131e-09
-1.18841358e-09
-1.17369748e-09
-1.16105007e-09
-1.20083332e-09
-1.19554099e-09
-1.16606737e-09
-1.15923898e-09
-1.17861199e-09
-1.17016948e-09
-1.13892174e-09
-1.13850468e-09
-1.1501201e-09
-1.14546836e-09
-1.13017848e-09
-1.12589456e-09
-1.13525833e-09
-1.15835401e-09
-1.14470304e-09
-1.13698523e-09
-1.1414347e-09
-1.13767322e-09
-1.13511392e-09
-1.12550477e-09
-1.13115393e-09
-1.11841365e-09
-1.11947933e-09
-1.1193304e-09
-1.16413188e-09
-1.14081042e-09
-1.13889671e-09
-1.14669774e-09
-1.16967857e-09
-1.17672029e-09
-1.14012539e-09
-1.0996719e-09
-1.13340879e-09
-1.11538854e-09
-1.08246836e-09
-1.09234932e-09
-1.07707617e-09
-1.11169716e-09
-1.07017717e-09
-1.08645658e-09
-1.0573386e-09
-1.06267899e-09
-1.04948101e-09
-1.0500264e-09
-1.02945494e-09
-1.02689989e-09
-1.01013645e-09
-1.00595513e-09
-9.99550983e-10
-9.94068706e-10
-9.81367546e-10
-9.74422683e-10
-9.61888817e-10
-9.55928895e-10
-9.44017808e-10
-9.38324445e-10
-9.25842911e-10
-9.35535656e-10
-9.27649847e-10
-9.22654972e-10
-9.15134099e-10
-9.09868324e-10
-9.00816067e-10
-8.94560485e-10
-8.90414931e-10
-8.86280999e-10
-8.81987076e-10
-8.77309451e-10
-8.72194529e-10
-8.65603728e-10
-8.59447475e-10
-8.53044604e-10
-8.47642817e-10
-8.41695519e-10
-8.3666687e-10
-8.30778197e-10
-8.26013111e-10
-8.20286843e-10
-8.15699189e-10
-8.10088617e-10
-8.0562366e-10
-8.00162781e-10
-7.95876083e-10
-7.90601814e-10
-7.86366759e-10
-7.8112003e-10
-7.76864826e-10
-7.71647622e-10
-7.67353612e-10
-7.62177675e-10
-7.57842264e-10
-7.52681945e-10
-7.47543637e-10
-7.41760079e-10
-7.36553561e-10
-7.31218745e-10
-7.26339657e-10
-7.21537401e-10
-7.16930313e-10
-7.12414612e-10
-7.07993947e-10
-7.03708342e-10
-6.99602577e-10
-6.95547515e-10
-6.914329e-10
-6.87274914e-10
-6.83035062e-10
-6.78803331e-10
-6.74462372e-10
-6.70173326e-10
-6.65673449e-10
-6.61240107e-10
-6.56746834e-10
-6.52383267e-10
-6.47914839e-10
-6.43617469e-10
-6.3922793e-10
-6.35003079e-10
-6.30655154e-10
-6.26545936e-10
-6.22290017e-10
-6.18282316e-10
-6.14126331e-10
-6.10222016e-10
-6.06170489e-10
-6.02364644e-10
-5.98408231e-10
-5.94676117e-10
-5.90815408e-10
-5.87111073e-10
-5.83419238e-10
-5.79808468e-10
-5.76236417e-10
-5.7265354e-10
-5.69139703e-10
-5.65536283e-10
-5.62069126e-10
-5.58384293e-10
-5.54989284e-10
-5.51276637e-10
-5.47928033e-10
-5.44166367e-10
-5.40683812e-10
-5.36827794e-10
-5.33380874e-10
-5.29560138e-10
-5.26210736e-10
-5.22439497e-10
-5.19176619e-10
-5.1552498e-10
-5.12290156e-10
-5.0866374e-10
-5.05519232e-10
-5.01985527e-10
-4.98869071e-10
-4.95407796e-10
-4.92344171e-10
-4.8892218e-10
-4.8587709e-10
-4.82522267e-10
-4.79484713e-10
-4.76225689e-10
-4.73180679e-10
-4.69960815e-10
-4.66960346e-10
-4.63821397e-10
-4.60820698e-10
-4.57744033e-10
-4.54754642e-10
-4.51740128e-10
-4.48777192e-10
-4.45750116e-10
-4.4275308e-10
-4.39706431e-10
-4.36769457e-10
-4.33735257e-10
-4.30855145e-10
-4.27845866e-10
-4.25018426e-10
-4.22042414e-10
-4.19258173e-10
-4.16318608e-10
-4.13571749e-10
-4.10671414e-10
-4.07960506e-10
-4.0510249e-10
-4.02422804e-10
-3.99605017e-10
-3.96954597e-10
-3.94176558e-10
-3.91554627e-10
-3.88817046e-10
-3.86225557e-10
-3.83525961e-10
-3.8096215e-10
-3.78299142e-10
-3.7576265e-10
-3.7313488e-10
-3.70626656e-10
-3.68034965e-10
-3.65554967e-10
-3.62996922e-10
-3.60544025e-10
-3.58018787e-10
-3.55593317e-10
-3.53100859e-10
-3.50703953e-10
-3.48243314e-10
-3.45872706e-10
-3.43442066e-10
-3.41097572e-10
-3.38696218e-10
-3.36378042e-10
-3.3400651e-10
-3.31715141e-10
-3.29371523e-10
-3.27105599e-10
-3.24789329e-10
-3.22537152e-10
-3.20230791e-10
-3.17995963e-10
-3.1571618e-10
-3.13506217e-10
-3.11252555e-10
-3.09068352e-10
-3.06841802e-10
-3.04683356e-10
-3.02482695e-10
-3.00349705e-10
-2.98175901e-10
-2.96069975e-10
-2.9392262e-10
-2.91843048e-10
-2.89722868e-10
-2.87671628e-10
-2.85579577e-10
-2.83555149e-10
-2.81485677e-10
-2.79489745e-10
-2.77455304e-10
-2.75492642e-10
-2.73493588e-10
-2.71567136e-10
-2.696025e-10
-2.67710319e-10
-2.65782076e-10
-2.63925867e-10
-2.62031555e-10
-2.6021047e-10
-2.58351618e-10
-2.56564661e-10
-2.54741408e-10
-2.52991693e-10
-2.51204707e-10
-2.49490818e-10
-2.47741807e-10
-2.46064764e-10
-2.44352748e-10
-2.42714526e-10
-2.41040892e-10
-2.39440075e-10
-2.37806365e-10
-2.3624348e-10
-2.3464886e-10
-2.33125781e-10
-2.31569599e-10
-2.30085945e-10
-2.28570361e-10
-2.27124067e-10
-2.25648844e-10
-2.24241077e-10
-2.2280391e-10
-2.21433637e-10
-2.20032536e-10
-2.18696212e-10
-2.17327948e-10
-2.16020682e-10
-2.14678114e-10
-2.13394209e-10
-2.12064801e-10
-2.10793523e-10
-2.09487336e-10
-2.08241153e-10
-2.06968719e-10
-2.05753775e-10
-2.04511221e-10
-2.03322634e-10
-2.02104795e-10
-2.00937364e-10
-1.99738574e-10
-1.985921e-10
-1.97414358e-10
-1.96293389e-10
-1.95144304e-10
-1.94066424e-10
-1.92929688e-10
-1.91896104e-10
-1.90768537e-10
-1.89781811e-10
-1.8865832e-10
-1.87720914e-10
-1.86595444e-10
-1.85710964e-10
-1.84577746e-10
-1.83750405e-10
-1.82596247e-10
-1.81837814e-10
-1.80659635e-10
-1.79972282e-10
-1.78731263e-10
-1.78150165e-10
-1.76908257e-10
-1.76381539e-10
-1.74892864e-10
-1.74651922e-10
-1.73448792e-10
-1.72999104e-10
-1.70534752e-10
-1.71323465e-10
-1.71206012e-10
-1.69813437e-10
-1.65088987e-10
-1.68193867e-10
-1.70084555e-10
-1.66860793e-10
-1.57880032e-10
-1.65413181e-10
-1.71556441e-10
-1.63360606e-10
-1.48235017e-10
-1.63590163e-10
-1.80380057e-10
-1.58723461e-10
-1.29675618e-10
-1.6325114e-10
-1.84039787e-10
-1.50170573e-10
-1.1942725e-10
-1.68571187e-10
-1.84196686e-10
-1.36778166e-10
-1.10834773e-10
-1.76998586e-10
-1.83887996e-10
-1.18116583e-10
-1.0307601e-10
-1.77847934e-10
-1.80883655e-10
-1.07775723e-10
-9.87264917e-11
-1.77334855e-10
-1.75617139e-10
-1.00553046e-10
-9.58532777e-11
-1.75461e-10
-1.67978956e-10
-9.73887555e-11
-9.45062053e-11
-1.72087432e-10
-1.62265925e-10
-9.55757405e-11
-9.34782309e-11
-1.6717271e-10
-1.56852545e-10
-9.42003775e-11
-9.2385364e-11
-1.61987565e-10
-1.52384506e-10
-9.32668765e-11
-9.16383945e-11
-1.57449415e-10
-1.48324696e-10
-9.25910904e-11
-9.11720539e-11
-1.53354286e-10
-1.44702106e-10
-9.19562411e-11
-9.07493074e-11
-1.49614024e-10
-1.41322948e-10
-9.1355947e-11
-9.02754389e-11
-1.45901257e-10
-1.38352504e-10
-9.07740867e-11
-8.99278236e-11
-1.42393916e-10
-1.35874157e-10
-9.0179318e-11
-8.96937951e-11
-1.38817783e-10
-1.33470423e-10
-8.96986414e-11
-8.93394286e-11
-1.35660365e-10
-1.30722118e-10
-8.93983057e-11
-8.89938847e-11
-1.32919779e-10
-1.28282628e-10
-8.90698789e-11
-8.87899933e-11
-1.29994007e-10
-1.25909352e-10
-8.8851121e-11
-8.85324368e-11
-1.27707479e-10
-1.23301085e-10
-8.87793447e-11
-8.83390427e-11
-1.25713481e-10
-1.21384395e-10
-8.85194636e-11
-8.830407e-11
-1.23610591e-10
-1.19506143e-10
-8.84255773e-11
-8.82566171e-11
-1.22051464e-10
-1.17451566e-10
-8.84331449e-11
-8.82279543e-11
-1.20906417e-10
-1.15381093e-10
-8.84503054e-11
-8.81482224e-11
-1.2010857e-10
-1.13482094e-10
-8.85984702e-11
-8.82062616e-11
-1.19131588e-10
-1.12267295e-10
-8.86544918e-11
-8.83105008e-11
-1.17890748e-10
-1.11599301e-10
-8.86663885e-11
-8.84492125e-11
-1.16465801e-10
-1.11177391e-10
-8.85974361e-11
-8.84426051e-11
-1.15550532e-10
-1.1034074e-10
-8.85678233e-11
-8.83689822e-11
-1.15160181e-10
-1.09419663e-10
-8.85713347e-11
-8.8329315e-11
-1.14650735e-10
-1.09104453e-10
-8.84705332e-11
-8.83689314e-11
-1.13750738e-10
-1.08968375e-10
-8.84221498e-11
-8.83731493e-11
-1.13003802e-10
-1.08879615e-10
-8.84181566e-11
-8.83468736e-11
-1.12496649e-10
-1.08726543e-10
-8.84090422e-11
-8.83509164e-11
-1.12136184e-10
-1.08520443e-10
-8.84162556e-11
-8.83764898e-11
-1.11855383e-10
-1.08302442e-10
-8.84309149e-11
-8.8398395e-11
-1.11577724e-10
-1.0813776e-10
-8.84405148e-11
-8.84145737e-11
-1.11263621e-10
-1.0803679e-10
-8.84497146e-11
-8.84245617e-11
-1.10947899e-10
-1.07937837e-10
-8.84601434e-11
-8.84311659e-11
-1.1067717e-10
-1.07818359e-10
-8.84688834e-11
-8.84389291e-11
-1.10464806e-10
-1.07684903e-10
-8.84729705e-11
-8.84502558e-11
-1.10320598e-10
-1.07521551e-10
-8.84714888e-11
-8.84606741e-11
-1.10266301e-10
-1.07328079e-10
-8.84673296e-11
-8.84715804e-11
-1.10235957e-10
-1.07162843e-10
-8.84670221e-11
-8.84783809e-11
-1.10159922e-10
-1.07091494e-10
-8.84763067e-11
-8.84847296e-11
-1.09954535e-10
-1.07111621e-10
-8.84889256e-11
-8.84884349e-11
-1.09727157e-10
-1.07100735e-10
-8.85056908e-11
-8.84899391e-11
-1.09593071e-10
-1.07045155e-10
-8.8518254e-11
-8.84952465e-11
-1.09512235e-10
-1.06971951e-10
-8.85249834e-11
-8.85035825e-11
-1.09471278e-10
-1.06876552e-10
-8.8527895e-11
-8.85130069e-11
-1.0947698e-10
-1.06754509e-10
-8.85310743e-11
-8.85201641e-11
-1.09504969e-10
-1.06666949e-10
-8.8536689e-11
-8.8529599e-11
-1.09460041e-10
-1.06636017e-10
-8.8542435e-11
-8.8536366e-11
-1.09395749e-10
-1.06595078e-10
-8.85524432e-11
-8.85421468e-11
-1.0935367e-10
-1.06554209e-10
-8.8559724e-11
-8.85487947e-11
-1.09318822e-10
-1.06507948e-10
-8.8566487e-11
-8.85548639e-11
-1.09293859e-10
-1.06464595e-10
-8.85730863e-11
-8.85604234e-11
-1.09264725e-10
-1.06434122e-10
-8.85800905e-11
-8.85649919e-11
-1.09225223e-10
-1.06418261e-10
-8.8587629e-11
-8.85684205e-11
-1.09176366e-10
-1.06410536e-10
-8.85956858e-11
-8.85716381e-11
-1.09122266e-10
-1.06285613e-10
-8.86377006e-11
-8.85791342e-11
-1.09078178e-10
-1.06344674e-10
-8.86040105e-11
-8.859221e-11
-1.09116271e-10
-1.06153856e-10
-8.86081798e-11
-8.85948559e-11
-1.09309105e-10
-1.06036901e-10
-8.86004511e-11
-8.86120323e-11
-1.09270269e-10
-1.05987395e-10
-8.85959901e-11
-8.86139506e-11
-1.09260462e-10
-1.05959804e-10
-8.85940583e-11
-8.86183937e-11
-1.09168078e-10
-1.05940978e-10
-8.86018696e-11
-8.86233309e-11
-1.09021055e-10
-1.05917946e-10
-8.86107109e-11
-8.8628057e-11
-1.08862044e-10
-1.05843442e-10
-8.86263931e-11
-8.86370885e-11
-1.08666804e-10
-1.05741108e-10
-8.86428379e-11
-8.86500309e-11
-1.08426431e-10
-1.05579457e-10
-8.8663989e-11
-8.86678977e-11
-1.08133819e-10
-1.05350187e-10
-8.86899605e-11
-8.86926539e-11
-1.07760562e-10
-1.05038815e-10
-8.87231311e-11
-8.87238862e-11
-1.07285421e-10
-1.04629297e-10
-8.87665094e-11
-8.87629601e-11
-1.06679274e-10
-1.04098314e-10
-8.88229858e-11
-8.88143639e-11
-1.05894313e-10
-1.03422178e-10
-8.88923874e-11
-8.88770258e-11
-1.04908713e-10
-1.02547911e-10
-8.89739587e-11
-8.89499261e-11
-1.03736377e-10
-1.01484673e-10
-8.90659342e-11
-8.90282736e-11
-1.02317162e-10
-1.00220696e-10
-8.91658877e-11
-8.91172332e-11
-1.00727601e-10
-9.87306261e-11
-8.93968998e-11
-8.92681594e-11
-9.87161407e-11
-9.68337931e-11
-8.98006763e-11
-8.95894341e-11
-9.64575887e-11
-9.47054687e-11
-9.02281694e-11
-8.9907017e-11
-9.43155032e-11
-9.28621102e-11
-9.03927004e-11
-9.00537418e-11
-9.24357572e-11
-9.13428777e-11
-9.03572254e-11
-9.00268788e-11
-9.10327333e-11
-9.04005015e-11
-9.01094788e-11
-8.97680638e-11
-9.01860694e-11
-8.97889437e-11
-8.971292e-11
-8.94500461e-11
-8.96076133e-11
-8.93440794e-11
-8.93304491e-11
-8.91690249e-11
-8.91904237e-11
-8.90771937e-11
-8.90744896e-11
-8.89859894e-11
-8.89822575e-11
-8.89068557e-11
-8.88988143e-11
-8.88350638e-11
-8.88270876e-11
-8.87707227e-11
-8.87630372e-11
-8.8714022e-11
-8.8706592e-11
-8.86637965e-11
-8.86566249e-11
-8.86193148e-11
-8.8612455e-11
-8.85799e-11
-8.85733745e-11
-8.8544971e-11
-8.85388011e-11
-8.85140079e-11
-8.85082059e-11
-8.84865572e-11
-8.84811274e-11
-8.84622173e-11
-8.84571574e-11
-8.84406337e-11
-8.84359358e-11
-8.84214927e-11
-8.8417145e-11
-8.84045167e-11
-8.84005045e-11
-8.83894597e-11
-8.83857664e-11
-8.83761042e-11
-8.83727118e-11
-8.83642571e-11
-8.83611473e-11
-8.83537476e-11
-8.83509018e-11
-8.83444241e-11
-8.8341824e-11
-8.83361524e-11
-8.83337801e-11
-8.83288134e-11
-8.83266517e-11
-8.83223017e-11
-8.83203341e-11
-8.83165236e-11
-8.83147348e-11
-8.83113963e-11
-8.83097715e-11
-8.83068462e-11
-8.83053719e-11
-8.83028082e-11
-8.83014715e-11
-8.82992245e-11
-8.82980136e-11
-8.82960438e-11
-8.82949477e-11
-8.82932206e-11
-8.82922293e-11
-8.82907148e-11
-8.82898188e-11
-8.82884905e-11
-8.82876812e-11
-8.82865161e-11
-8.82857857e-11
-8.82847634e-11
-8.82841046e-11
-8.82832076e-11
-8.82826137e-11
-8.82818264e-11
-8.82812914e-11
-8.82806003e-11
-8.82801186e-11
-8.82795118e-11
-8.82790784e-11
-8.82785455e-11
-8.82781558e-11
-8.82776877e-11
-8.82773375e-11
-8.82769262e-11
-8.82766116e-11
-8.82762502e-11
-8.82759678e-11
-8.82756501e-11
-8.82753968e-11