/*--------------------------------*- C++ -*----------------------------------*\
| =========                 |                                                 |
| \\      /  F ield         | OpenFOAM: The Open Source CFD Toolbox           |
|  \\    /   O peration     | Version:  2306                                  |
|   \\  /    A nd           | Website:  www.openfoam.com                      |
|    \\/     M anipulation  |                                                 |
\*---------------------------------------------------------------------------*/
FoamFile
{
    version     2.0;
    format      ascii;
    arch        "LSB;label=32;scalar=64";
    class       volScalarField;
    location    "0.00072";
    object      prefDZ_H2;
}
// * * * * * * * * * * * * * * * * * * * * * * * * * * * * * * * * * * * * * //

dimensions      [1 -1 -1 0 0 0 0];

internalField   nonuniform List<scalar> 
530
(
6.22905509e-05
6.35845016e-05
6.36080004e-05
6.23126181e-05
6.14598018e-05
6.16973669e-05
6.35348997e-05
6.35659573e-05
6.25094452e-05
6.18162705e-05
6.16622436e-05
6.25779355e-05
6.35678218e-05
6.27802833e-05
6.20020053e-05
6.13524979e-05
6.22380505e-05
6.34978758e-05
6.36224783e-05
6.35541981e-05
6.26666748e-05
6.18799327e-05
6.13906224e-05
6.22692729e-05
6.35399338e-05
6.36113691e-05
6.23084566e-05
6.15659054e-05
6.15984024e-05
6.26820448e-05
6.3545876e-05
6.28330557e-05
6.20141649e-05
6.14634055e-05
6.22946867e-05
6.35384661e-05
6.338441e-05
6.21232622e-05
6.13164572e-05
6.22378916e-05
6.35047359e-05
6.36426962e-05
6.35934965e-05
6.25186716e-05
6.2074658e-05
6.135681e-05
6.13644999e-05
6.34684483e-05
6.35598887e-05
6.26295362e-05
6.2332454e-05
6.22211569e-05
6.18835233e-05
6.18461636e-05
6.25141133e-05
6.35714451e-05
6.23258324e-05
6.21004272e-05
6.24791735e-05
6.35777847e-05
6.35707514e-05
6.21381801e-05
6.14988666e-05
6.24009346e-05
6.34751031e-05
6.30818571e-05
6.18060233e-05
6.15439356e-05
6.2815942e-05
6.35426088e-05
6.22943898e-05
6.1707258e-05
6.25340616e-05
6.35201067e-05
6.25021045e-05
6.16649302e-05
6.18074472e-05
6.34690243e-05
6.35738172e-05
6.17904678e-05
6.14506755e-05
6.34818268e-05
6.35257189e-05
6.23356815e-05
6.1794691e-05
6.23137077e-05
6.34821629e-05
6.35184586e-05
6.17263977e-05
6.14040806e-05
6.28951929e-05
6.35222684e-05
6.23063144e-05
6.17170033e-05
6.23591158e-05
6.35221628e-05
6.23490902e-05
6.1736688e-05
6.22918553e-05
6.3455945e-05
6.32961881e-05
6.15669893e-05
6.14134432e-05
6.33440422e-05
6.34646987e-05
6.24932493e-05
6.15123157e-05
6.15241316e-05
6.33887173e-05
6.3545881e-05
6.2325017e-05
6.17410238e-05
6.2388946e-05
6.34715846e-05
6.27594748e-05
6.15227729e-05
6.14787612e-05
6.32994098e-05
6.34924478e-05
6.25103063e-05
6.1615786e-05
6.1598953e-05
6.33167086e-05
6.35003873e-05
6.24604752e-05
6.15654486e-05
6.15501863e-05
6.33406105e-05
6.35574435e-05
6.23089912e-05
6.17758443e-05
6.22803169e-05
6.35042006e-05
6.36402842e-05
6.22549788e-05
6.14690933e-05
6.22678513e-05
6.34627705e-05
6.36258007e-05
6.22634974e-05
6.13898966e-05
6.23180594e-05
6.34725044e-05
6.23838874e-05
6.1906411e-05
6.22597258e-05
6.35131468e-05
6.36410576e-05
6.22629208e-05
6.15210023e-05
6.22696139e-05
6.348973e-05
6.36253215e-05
6.22541452e-05
6.13296937e-05
6.22736837e-05
6.34740239e-05
6.24349033e-05
6.19008426e-05
6.22678159e-05
6.3525449e-05
6.36387268e-05
6.22623622e-05
6.14629598e-05
6.22777358e-05
6.34896125e-05
6.36240367e-05
6.22659998e-05
6.13638161e-05
6.2271986e-05
6.34688192e-05
6.24901347e-05
6.19510978e-05
6.22907001e-05
6.35186454e-05
6.36148221e-05
6.22746334e-05
6.14296934e-05
6.23103699e-05
6.34747147e-05
6.35747266e-05
6.22662403e-05
6.12537325e-05
6.22597906e-05
6.34245588e-05
6.26129303e-05
6.17345522e-05
6.22619785e-05
6.3457283e-05
6.26549322e-05
6.17497404e-05
6.22608655e-05
6.34519663e-05
6.26561165e-05
6.1776616e-05
6.22597504e-05
6.34431725e-05
6.26139725e-05
6.18955732e-05
6.2326542e-05
6.34453177e-05
6.35880318e-05
6.22289592e-05
6.12835583e-05
6.22452311e-05
6.33777875e-05
6.26012346e-05
6.184019e-05
6.225194e-05
6.34087761e-05
6.26153224e-05
6.19818408e-05
6.2308587e-05
6.33945614e-05
6.35848262e-05
6.22159821e-05
6.13486051e-05
6.22266313e-05
6.3359485e-05
6.25348526e-05
6.18877938e-05
6.22393486e-05
6.34009345e-05
6.25269155e-05
6.19947626e-05
6.22655349e-05
6.3374803e-05
6.3492657e-05
6.22200999e-05
6.1424744e-05
6.22510928e-05
6.33842193e-05
6.23893433e-05
6.19503605e-05
6.23128953e-05
6.33876916e-05
6.30864306e-05
6.17993389e-05
6.13860026e-05
6.26306068e-05
6.35064129e-05
6.23272996e-05
6.19381215e-05
6.27163076e-05
6.34951756e-05
6.26584423e-05
6.18281119e-05
6.15742385e-05
6.27718926e-05
6.34727722e-05
6.26168409e-05
6.16545377e-05
6.14294993e-05
6.28067918e-05
6.35436136e-05
6.23269019e-05
6.19663162e-05
6.30365025e-05
6.35328297e-05
6.25345581e-05
6.17416692e-05
6.16092333e-05
6.29719062e-05
6.34983514e-05
6.26142475e-05
6.17009166e-05
6.15690497e-05
6.30476856e-05
6.35010578e-05
6.2560145e-05
6.16457561e-05
6.15750436e-05
6.3128093e-05
6.34977814e-05
6.2537567e-05
6.16220843e-05
6.16030596e-05
6.32168502e-05
6.34843253e-05
6.24893788e-05
6.15067233e-05
6.15432555e-05
6.32597233e-05
6.3541182e-05
6.24301709e-05
6.19307783e-05
6.34834006e-05
6.35137885e-05
6.24214226e-05
6.1554569e-05
6.16689798e-05
6.33638317e-05
6.3480802e-05
6.24703712e-05
6.15708502e-05
6.16957168e-05
6.33844604e-05
6.34790931e-05
6.24511152e-05
6.15651418e-05
6.17190614e-05
6.33949308e-05
6.34800766e-05
6.24382519e-05
6.15572965e-05
6.17282345e-05
6.33354561e-05
6.3484554e-05
6.24806493e-05
6.16323693e-05
6.18029318e-05
6.33813168e-05
6.34825864e-05
6.24438992e-05
6.16180313e-05
6.17897185e-05
6.32475169e-05
6.34966094e-05
6.25018063e-05
6.16236531e-05
6.17260291e-05
6.292635e-05
6.35480294e-05
6.25009704e-05
6.21290383e-05
6.18643857e-05
6.23437975e-05
6.35731974e-05
6.26090373e-05
6.23272584e-05
6.23286594e-05
6.23562565e-05
6.29337473e-05
6.27551907e-05
6.23269172e-05
6.21990593e-05
6.23427672e-05
6.34457297e-05
6.261132e-05
6.17212866e-05
6.20825015e-05
6.35936859e-05
6.35551489e-05
6.21946386e-05
6.17164597e-05
6.27208489e-05
6.35719353e-05
6.24347934e-05
6.21822081e-05
6.22979363e-05
6.2647879e-05
6.2430403e-05
6.23113328e-05
6.23653081e-05
6.24211017e-05
6.22676082e-05
6.20907956e-05
6.34282097e-05
6.35740284e-05
6.23347898e-05
6.16410544e-05
6.25395096e-05
6.35454462e-05
6.22731361e-05
6.16911e-05
6.2483964e-05
6.34965577e-05
6.25688279e-05
6.15041641e-05
6.15996434e-05
6.34967451e-05
6.35506528e-05
6.23329049e-05
6.16191317e-05
6.24868789e-05
6.35396697e-05
6.2281113e-05
6.16434598e-05
6.25785906e-05
6.35430519e-05
6.22845319e-05
6.16330499e-05
6.26803485e-05
6.35439646e-05
6.23133957e-05
6.16403908e-05
6.28540582e-05
6.35486938e-05
6.23696817e-05
6.16873953e-05
6.31020993e-05
6.35474555e-05
6.23380966e-05
6.17156492e-05
6.2540176e-05
6.34895365e-05
6.28015918e-05
6.16976058e-05
6.13982888e-05
6.26809728e-05
6.35292297e-05
6.23774705e-05
6.16536685e-05
6.31415754e-05
6.3555134e-05
6.22845022e-05
6.17226537e-05
6.33328394e-05
6.355474e-05
6.23617284e-05
6.17229228e-05
6.25100081e-05
6.34702749e-05
6.28574213e-05
6.16702032e-05
6.14073149e-05
6.28223889e-05
6.35407698e-05
6.23201156e-05
6.1667577e-05
6.32880958e-05
6.35866721e-05
6.22219392e-05
6.17402981e-05
6.3336131e-05
6.36015341e-05
6.2289068e-05
6.18123159e-05
6.22494105e-05
6.35097979e-05
6.36724357e-05
6.23586643e-05
6.23051803e-05
6.23180284e-05
6.23046844e-05
6.20519157e-05
6.225987e-05
6.3449336e-05
6.36147062e-05
6.27139412e-05
6.18773129e-05
6.18881436e-05
6.34288588e-05
6.3612268e-05
6.22681381e-05
6.15573275e-05
6.23739817e-05
6.34787523e-05
6.28632965e-05
6.18083752e-05
6.17861776e-05
6.34280629e-05
6.35940143e-05
6.22785431e-05
6.16464785e-05
6.22791862e-05
6.35104079e-05
6.3578798e-05
6.22675546e-05
6.14806282e-05
6.22708203e-05
6.34856743e-05
6.35678339e-05
6.22853806e-05
6.15196995e-05
6.2277339e-05
6.34698497e-05
6.35316788e-05
6.21413527e-05
6.15211072e-05
6.23838455e-05
6.34572319e-05
6.29800682e-05
6.17169309e-05
6.15216155e-05
6.28209988e-05
6.34875334e-05
6.2515364e-05
6.16153102e-05
6.15662459e-05
6.30592979e-05
6.35420816e-05
6.23285714e-05
6.17017969e-05
6.25404887e-05
6.347964e-05
6.26249048e-05
6.16057164e-05
6.15993065e-05
6.33539186e-05
6.35506305e-05
6.2201405e-05
6.16609953e-05
6.30794266e-05
6.35329378e-05
6.23528105e-05
6.16541431e-05
6.26978803e-05
6.34770327e-05
6.25073708e-05
6.17470496e-05
6.17466493e-05
6.34037532e-05
6.35518401e-05
6.24402907e-05
6.17656999e-05
6.17622971e-05
6.33197974e-05
6.35474633e-05
6.24271338e-05
6.16094878e-05
6.14932077e-05
6.26802608e-05
6.34768827e-05
6.26076451e-05
6.18662934e-05
6.15998615e-05
6.23368022e-05
6.34125347e-05
6.34610548e-05
6.22933142e-05
6.18078514e-05
6.25331129e-05
6.34428233e-05
6.2570502e-05
6.18129063e-05
6.16392195e-05
6.28237717e-05
6.35187234e-05
6.25638446e-05
)
;

boundaryField
{
    closed
    {
        type            calculated;
        value           nonuniform List<scalar> 0();
    }
    open
    {
        type            calculated;
        value           nonuniform List<scalar> 0();
    }
    sides
    {
        type            empty;
    }
    procBoundary2to1
    {
        type            processor;
        value           uniform 6.15115942e-05;
    }
    procBoundary2to3
    {
        type            processor;
        value           uniform 6.18717167e-05;
    }
}


// ************************************************************************* //
