/*--------------------------------*- C++ -*----------------------------------*\
| =========                 |                                                 |
| \\      /  F ield         | OpenFOAM: The Open Source CFD Toolbox           |
|  \\    /   O peration     | Version:  2306                                  |
|   \\  /    A nd           | Website:  www.openfoam.com                      |
|    \\/     M anipulation  |                                                 |
\*---------------------------------------------------------------------------*/
FoamFile
{
    version     2.0;
    format      ascii;
    arch        "LSB;label=32;scalar=64";
    class       volScalarField;
    location    "0.0007";
    object      prefDZ_T;
}
// * * * * * * * * * * * * * * * * * * * * * * * * * * * * * * * * * * * * * //

dimensions      [1 -1 -1 -1 0 0 0];

internalField   nonuniform List<scalar> 
530
(
-8.61681549e-11
-8.60828609e-11
-9.58311505e-11
-9.61505498e-11
-8.61506883e-11
-8.60480288e-11
-9.48268329e-11
-9.43572532e-11
-8.60676351e-11
-8.59861462e-11
-9.44915022e-11
-9.2955256e-11
-8.59912121e-11
-8.59379827e-11
-9.38737877e-11
-9.20138855e-11
-8.5916397e-11
-8.58875835e-11
-9.31331363e-11
-9.13076795e-11
-8.58734897e-11
-8.58525792e-11
-9.22370256e-11
-9.04483483e-11
-8.69897705e-11
-8.612171e-11
-8.95835597e-11
-8.88523698e-11
-8.98676035e-11
-8.73817902e-11
-8.62501678e-11
-8.64902785e-11
-9.09906037e-11
-8.84467562e-11
-8.56332436e-11
-8.57326112e-11
-9.0971511e-11
-8.8639193e-11
-8.55533532e-11
-8.56219399e-11
-9.08992835e-11
-8.87018368e-11
-8.54925146e-11
-8.55673254e-11
-9.07923196e-11
-8.86195565e-11
-8.54486736e-11
-8.5524896e-11
-9.06666363e-11
-8.85019057e-11
-8.54159215e-11
-8.54907003e-11
-9.04735162e-11
-8.83767299e-11
-8.53928663e-11
-8.54649222e-11
-9.02644244e-11
-8.82590251e-11
-8.53788184e-11
-8.54470932e-11
-9.00613764e-11
-8.81477219e-11
-8.53726637e-11
-8.54370308e-11
-8.98776811e-11
-8.80493023e-11
-8.53728814e-11
-8.5434475e-11
-8.97322161e-11
-8.79608083e-11
-8.53809753e-11
-8.54382822e-11
-8.96293363e-11
-8.78771017e-11
-8.53959403e-11
-8.54496981e-11
-8.94945158e-11
-8.77983671e-11
-8.54189183e-11
-8.547236e-11
-8.93800144e-11
-8.76825275e-11
-8.5450004e-11
-8.55054914e-11
-8.92649198e-11
-8.75517982e-11
-8.54883998e-11
-8.5547487e-11
-8.91352934e-11
-8.74117771e-11
-8.55363643e-11
-8.55946698e-11
-8.89768695e-11
-8.72978331e-11
-8.55991939e-11
-8.56547034e-11
-8.84805649e-11
-8.71555049e-11
-8.56991884e-11
-8.57875354e-11
-8.79244284e-11
-8.69200149e-11
-8.66849863e-11
-8.62965497e-11
-8.63741995e-11
-8.62420486e-11
-8.83754178e-11
-8.7211602e-11
-8.58001634e-11
-8.5862864e-11
-8.87950832e-11
-8.74357571e-11
-8.58105426e-11
-8.5890972e-11
-8.90384322e-11
-8.7624421e-11
-8.58535504e-11
-8.59412008e-11
-8.91923763e-11
-8.78377616e-11
-8.59119225e-11
-8.59927723e-11
-8.92427763e-11
-8.80505847e-11
-8.59875935e-11
-8.60501962e-11
-8.91470231e-11
-8.82027031e-11
-8.60902748e-11
-8.61149786e-11
-8.87543875e-11
-8.84023982e-11
-8.62262699e-11
-8.61943649e-11
-8.79262462e-11
-8.84930607e-11
-8.64397316e-11
-8.62781605e-11
-8.70247791e-11
-8.84415786e-11
-8.70929558e-11
-8.63723158e-11
-8.65330882e-11
-8.82493943e-11
-8.78861137e-11
-8.64854173e-11
-8.65205971e-11
-8.79563532e-11
-8.81499677e-11
-8.65964335e-11
-8.6577387e-11
-8.77745418e-11
-8.82290305e-11
-8.66929508e-11
-8.66507154e-11
-8.76897647e-11
-8.82495529e-11
-8.67824101e-11
-8.67296234e-11
-8.76327347e-11
-8.82556983e-11
-8.6867232e-11
-8.68107673e-11
-8.76177909e-11
-8.82379983e-11
-8.69457419e-11
-8.6893966e-11
-8.76695483e-11
-8.81892405e-11
-8.70179334e-11
-8.69794613e-11
-8.77413594e-11
-8.80981885e-11
-8.70834276e-11
-8.70702899e-11
-8.78318039e-11
-8.79362057e-11
-8.71409992e-11
-8.71671373e-11
-8.79665959e-11
-8.77860055e-11
-8.7189166e-11
-8.74263193e-11
-8.81145952e-11
-8.74464902e-11
-8.72395002e-11
-8.7766943e-11
-8.82529237e-11
-8.73420885e-11
-8.72955419e-11
-8.79146053e-11
-8.83124687e-11
-8.73966289e-11
-8.73535184e-11
-8.7981274e-11
-8.83399647e-11
-8.7452787e-11
-8.74116343e-11
-8.8034514e-11
-8.83543705e-11
-8.75069343e-11
-8.74706919e-11
-8.80936271e-11
-8.83568114e-11
-8.75572052e-11
-8.75310577e-11
-8.81596856e-11
-8.8340662e-11
-8.76028102e-11
-8.75939886e-11
-8.82314306e-11
-8.82784421e-11
-8.76431905e-11
-8.76586324e-11
-8.8311191e-11
-8.81643357e-11
-8.76769584e-11
-8.78276424e-11
-8.83793526e-11
-8.78377517e-11
-8.77171182e-11
-8.80946419e-11
-8.8401992e-11
-8.77864856e-11
-8.77595434e-11
-8.81790928e-11
-8.83973193e-11
-8.78233389e-11
-8.78007337e-11
-8.81952766e-11
-8.83846304e-11
-8.78606893e-11
-8.78403603e-11
-8.82020874e-11
-8.83691704e-11
-8.78953413e-11
-8.7878695e-11
-8.82102796e-11
-8.83441137e-11
-8.79271798e-11
-8.79164017e-11
-8.82240753e-11
-8.83002137e-11
-8.79574207e-11
-8.79558624e-11
-8.822594e-11
-8.82193571e-11
-8.79933114e-11
-8.80002245e-11
-8.81805121e-11
-8.80680333e-11
-8.81758296e-11
-8.8117821e-11
-8.80311668e-11
-8.80251155e-11
-8.83091751e-11
-8.81918093e-11
-8.80418389e-11
-8.80406144e-11
-8.83849466e-11
-8.82462048e-11
-8.80565374e-11
-8.80581184e-11
-8.84227128e-11
-8.82734364e-11
-8.80749711e-11
-8.80761236e-11
-8.84401441e-11
-8.82935424e-11
-8.80926898e-11
-8.80933859e-11
-8.8451075e-11
-8.83086743e-11
-8.81093022e-11
-8.81095289e-11
-8.84595152e-11
-8.83213362e-11
-8.81245798e-11
-8.8124401e-11
-8.84664377e-11
-8.83321465e-11
-8.81386201e-11
-8.81381592e-11
-8.84702659e-11
-8.83403699e-11
-8.81515458e-11
-8.81507219e-11
-8.84724313e-11
-8.83479313e-11
-8.816326e-11
-8.81621215e-11
-8.84737083e-11
-8.83532639e-11
-8.81738975e-11
-8.81726028e-11
-8.8473591e-11
-8.83554314e-11
-8.81836614e-11
-8.81823268e-11
-8.84706899e-11
-8.83547294e-11
-8.8192881e-11
-8.81915559e-11
-8.84617131e-11
-8.83510249e-11
-8.82020832e-11
-8.82007948e-11
-8.84427024e-11
-8.8341105e-11
-8.82121634e-11
-8.82104912e-11
-8.84020677e-11
-8.83239385e-11
-8.82291354e-11
-8.8220992e-11
-8.83327344e-11
-8.83259049e-11
-8.83422249e-11
-8.82311947e-11
-8.82325438e-11
-8.83175327e-11
-8.83595053e-11
-8.82404159e-11
-8.82326843e-11
-8.82952975e-11
-8.8356056e-11
-8.82699148e-11
-8.82373448e-11
-8.82564174e-11
-8.83375648e-11
-8.83178437e-11
-8.82431386e-11
-8.82458742e-11
-8.8312605e-11
-8.83346442e-11
-8.82503034e-11
-8.82475129e-11
-8.82729799e-11
-8.83390319e-11
-8.82983e-11
-8.82499801e-11
-8.82520953e-11
-8.83359078e-11
-8.83139259e-11
-8.82531607e-11
-8.82526967e-11
-8.83257392e-11
-8.83046526e-11
-8.82561857e-11
-8.82549976e-11
-8.83247404e-11
-8.82939333e-11
-8.82580876e-11
-8.8257181e-11
-8.83273299e-11
-8.82905607e-11
-8.82596213e-11
-8.82589364e-11
-8.83271311e-11
-8.82915371e-11
-8.8261293e-11
-8.82606015e-11
-8.83212502e-11
-8.82930687e-11
-8.82633809e-11
-8.82625308e-11
-8.83102956e-11
-8.82908508e-11
-8.82685308e-11
-8.82653362e-11
-8.82843318e-11
-8.8281635e-11
-8.8287992e-11
-8.82772603e-11
-8.82668598e-11
-8.82669575e-11
-8.82932134e-11
-8.82805943e-11
-8.82669441e-11
-8.82667586e-11
-8.82973314e-11
-8.82827773e-11
-8.82673058e-11
-8.82670968e-11
-8.8298864e-11
-8.82834908e-11
-8.82677308e-11
-8.82675494e-11
-8.82992097e-11
-8.82833857e-11
-8.8268186e-11
-8.82680151e-11
-8.82985675e-11
-8.82831086e-11
-8.82686312e-11
-8.82684909e-11
-8.82969978e-11
-8.82822323e-11
-8.82690671e-11
-8.82689105e-11
-8.82956451e-11
-8.82813084e-11
-8.82694677e-11
-8.82693142e-11
-8.82936515e-11
-8.82806656e-11
-8.82698127e-11
-8.82696597e-11
-8.82916884e-11
-8.82800337e-11
-8.82701144e-11
-8.82699666e-11
-8.82898211e-11
-8.82793955e-11
-8.82703776e-11
-8.82702374e-11
-8.82880702e-11
-8.82783061e-11
-8.82706692e-11
-8.82704794e-11
-8.82864391e-11
-8.827774e-11
-8.82708634e-11
-8.82706883e-11
-8.82849165e-11
-8.82772066e-11
-8.82710335e-11
-8.82708729e-11
-8.8283487e-11
-8.82767107e-11
-8.82711832e-11
-8.82710366e-11
-8.82821372e-11
-8.82762408e-11
-8.82713158e-11
-8.82711819e-11
-8.82808592e-11
-8.82757881e-11
-8.82714353e-11
-8.82713122e-11
-8.82796365e-11
-8.82753627e-11
-8.82715466e-11
-8.82714319e-11
-8.82784312e-11
-8.82749813e-11
-8.8271664e-11
-8.82715601e-11
-8.82770113e-11
-8.82745932e-11
-8.82718269e-11
-8.82717288e-11
-8.827562e-11
-8.82738775e-11
-8.8273085e-11
-8.82724422e-11
-8.82736244e-11
-8.82730306e-11
-8.82731439e-11
-8.82727811e-11
-8.82729378e-11
-8.82726843e-11
-8.82727204e-11
-8.82725231e-11
-8.82725114e-11
-8.82723457e-11
-8.82723106e-11
-8.82721487e-11
-8.82721067e-11
-8.82720302e-11
-8.82720242e-11
-8.82720064e-11
-8.82719988e-11
-8.82719857e-11
-8.82719782e-11
-8.82719688e-11
-8.82719625e-11
-8.8271956e-11
-8.82719514e-11
-8.82719473e-11
-8.82719443e-11
-8.82719419e-11
-8.82719403e-11
-8.82719391e-11
-8.82719383e-11
-8.82719378e-11
-8.82719375e-11
-8.82719373e-11
-8.82719372e-11
-8.82719371e-11
-8.82719371e-11
-8.82719371e-11
-8.82719371e-11
-8.82719371e-11
-8.82719371e-11
-8.82719371e-11
-8.82719371e-11
-8.82719371e-11
-8.82719371e-11
-8.82719371e-11
-8.82719371e-11
-8.82719371e-11
-8.82719371e-11
-8.82719371e-11
-8.82719371e-11
-8.82719371e-11
-8.82719371e-11
-8.82719371e-11
-8.82719371e-11
-8.82719371e-11
-8.82719371e-11
-8.82719371e-11
-8.82719371e-11
-8.82719371e-11
-8.82719371e-11
-8.82719371e-11
-8.82719371e-11
-8.82719371e-11
-8.82719371e-11
-8.82719371e-11
-8.82719371e-11
-8.82719371e-11
-8.82719371e-11
-8.82719371e-11
-8.82719371e-11
-8.82719371e-11
-8.82719371e-11
-8.82719371e-11
-8.82719371e-11
-8.82719371e-11
)
;

boundaryField
{
    closed
    {
        type            calculated;
        value           nonuniform List<scalar> 0();
    }
    open
    {
        type            calculated;
        value           uniform -8.82719371e-11;
    }
    sides
    {
        type            empty;
    }
    procBoundary5to4
    {
        type            processor;
        value           uniform -9.82224238e-11;
    }
}


// ************************************************************************* //
