/*--------------------------------*- C++ -*----------------------------------*\
| =========                 |                                                 |
| \\      /  F ield         | OpenFOAM: The Open Source CFD Toolbox           |
|  \\    /   O peration     | Version:  2306                                  |
|   \\  /    A nd           | Website:  www.openfoam.com                      |
|    \\/     M anipulation  |                                                 |
\*---------------------------------------------------------------------------*/
FoamFile
{
    version     2.0;
    format      ascii;
    arch        "LSB;label=32;scalar=64";
    class       volScalarField;
    location    "0.0007";
    object      prefDPV_T;
}
// * * * * * * * * * * * * * * * * * * * * * * * * * * * * * * * * * * * * * //

dimensions      [1 -1 -1 -1 0 0 0];

internalField   nonuniform List<scalar> 
530
(
-4.27406276e-11
-4.26983657e-11
-3.73574457e-11
-3.7209519e-11
-4.27316826e-11
-4.26808596e-11
-3.77994974e-11
-3.80079701e-11
-4.26903494e-11
-4.26500024e-11
-3.79135128e-11
-3.86172749e-11
-4.26522731e-11
-4.26258996e-11
-3.81537224e-11
-3.90098538e-11
-4.26150091e-11
-4.26006983e-11
-3.84443632e-11
-3.92895321e-11
-4.25935263e-11
-4.25831222e-11
-3.87917539e-11
-3.96480284e-11
-4.1598472e-11
-4.22371822e-11
-4.00830197e-11
-4.04387824e-11
-3.98942551e-11
-4.12683253e-11
-4.19821849e-11
-4.18220072e-11
-3.92557785e-11
-4.05625082e-11
-4.2473893e-11
-4.24635123e-11
-3.92263856e-11
-4.04186208e-11
-4.24341424e-11
-4.2467968e-11
-3.92167025e-11
-4.03356126e-11
-4.24038281e-11
-4.24407283e-11
-3.92296138e-11
-4.0338518e-11
-4.23819192e-11
-4.24195178e-11
-3.92584764e-11
-4.03672173e-11
-4.23654821e-11
-4.24023377e-11
-3.93305014e-11
-4.04069218e-11
-4.23538103e-11
-4.23893201e-11
-3.94167608e-11
-4.04497999e-11
-4.23465935e-11
-4.23802352e-11
-3.95062583e-11
-4.05031266e-11
-4.23432796e-11
-4.23749907e-11
-3.95925883e-11
-4.0556475e-11
-4.23431172e-11
-4.23734562e-11
-3.96686839e-11
-4.06113935e-11
-4.23468195e-11
-4.23750159e-11
-3.97335332e-11
-4.06706435e-11
-4.2353871e-11
-4.23803188e-11
-3.98268964e-11
-4.07334923e-11
-4.23648734e-11
-4.23911585e-11
-3.99150563e-11
-4.08276433e-11
-4.23798735e-11
-4.24071573e-11
-4.00084453e-11
-4.09369479e-11
-4.23984782e-11
-4.2427516e-11
-4.01143262e-11
-4.10569807e-11
-4.24217336e-11
-4.24503572e-11
-4.02379152e-11
-4.11728493e-11
-4.2452289e-11
-4.24795275e-11
-4.0553297e-11
-4.13207659e-11
-4.25010971e-11
-4.24526029e-11
-4.09000078e-11
-4.15230234e-11
-4.17166349e-11
-4.20070191e-11
-4.19525381e-11
-4.21108563e-11
-4.07347536e-11
-4.14308831e-11
-4.25498296e-11
-4.25805194e-11
-4.05893848e-11
-4.13713567e-11
-4.2554556e-11
-4.25939514e-11
-4.05303406e-11
-4.13325546e-11
-4.25753011e-11
-4.26182197e-11
-4.05169175e-11
-4.12802248e-11
-4.2603598e-11
-4.26431644e-11
-4.05607812e-11
-4.1230128e-11
-4.26403943e-11
-4.26709886e-11
-4.06830979e-11
-4.12216956e-11
-4.26903906e-11
-4.27023602e-11
-4.09674949e-11
-4.11860186e-11
-4.27565797e-11
-4.27408633e-11
-4.1524354e-11
-4.12131649e-11
-4.27666492e-11
-4.27815288e-11
-4.21998776e-11
-4.132189e-11
-4.21972097e-11
-4.28272532e-11
-4.28489017e-11
-4.15305527e-11
-4.17614519e-11
-4.2882229e-11
-4.28993858e-11
-4.17991462e-11
-4.16913324e-11
-4.29361256e-11
-4.29267971e-11
-4.19957756e-11
-4.17347693e-11
-4.29828896e-11
-4.29622371e-11
-4.21321359e-11
-4.18104458e-11
-4.3026212e-11
-4.30004156e-11
-4.2251669e-11
-4.18924039e-11
-4.30672776e-11
-4.30397028e-11
-4.2347878e-11
-4.1986771e-11
-4.31052755e-11
-4.30800036e-11
-4.24111889e-11
-4.2097165e-11
-4.31402063e-11
-4.31214357e-11
-4.24548009e-11
-4.22275576e-11
-4.31718867e-11
-4.3165474e-11
-4.24779968e-11
-4.23989862e-11
-4.31997006e-11
-4.32123253e-11
-4.2454593e-11
-4.26414736e-11
-4.32228093e-11
-4.30685411e-11
-4.24251577e-11
-4.31012414e-11
-4.32469652e-11
-4.28137017e-11
-4.24079433e-11
-4.3296416e-11
-4.32738927e-11
-4.27598024e-11
-4.24366378e-11
-4.33226065e-11
-4.33017618e-11
-4.27852228e-11
-4.24823269e-11
-4.33495913e-11
-4.33297105e-11
-4.28207758e-11
-4.25423198e-11
-4.33756198e-11
-4.33581224e-11
-4.28471441e-11
-4.261834e-11
-4.33997906e-11
-4.33871749e-11
-4.2863306e-11
-4.27064795e-11
-4.34217179e-11
-4.34174669e-11
-4.28707805e-11
-4.2836043e-11
-4.34411412e-11
-4.34485871e-11
-4.28670223e-11
-4.30136032e-11
-4.34573965e-11
-4.33834629e-11
-4.28675363e-11
-4.34104607e-11
-4.34767406e-11
-4.31807006e-11
-4.29075375e-11
-4.35101719e-11
-4.34971857e-11
-4.31575591e-11
-4.2969437e-11
-4.35279348e-11
-4.3517042e-11
-4.31983345e-11
-4.30356683e-11
-4.35459427e-11
-4.35361517e-11
-4.32446446e-11
-4.31012384e-11
-4.35626563e-11
-4.35546461e-11
-4.32865697e-11
-4.31726578e-11
-4.35780068e-11
-4.35728432e-11
-4.33201103e-11
-4.32583871e-11
-4.35925774e-11
-4.35918377e-11
-4.33614358e-11
-4.33766237e-11
-4.36098321e-11
-4.36131545e-11
-4.34434349e-11
-4.3565517e-11
-4.34684792e-11
-4.35383915e-11
-4.36281187e-11
-4.36252007e-11
-4.33778693e-11
-4.35000101e-11
-4.36333377e-11
-4.36326989e-11
-4.33370163e-11
-4.34797691e-11
-4.36404619e-11
-4.36411585e-11
-4.33295161e-11
-4.34825932e-11
-4.36493721e-11
-4.36498637e-11
-4.33393528e-11
-4.34896974e-11
-4.36579415e-11
-4.36582145e-11
-4.33531325e-11
-4.34992604e-11
-4.36659795e-11
-4.36660282e-11
-4.33672404e-11
-4.35090733e-11
-4.36733765e-11
-4.36732312e-11
-4.33808216e-11
-4.35187259e-11
-4.3680178e-11
-4.36798982e-11
-4.33956296e-11
-4.35291482e-11
-4.36864422e-11
-4.36859893e-11
-4.3410318e-11
-4.35384134e-11
-4.36921226e-11
-4.36915201e-11
-4.34242576e-11
-4.35482182e-11
-4.36972838e-11
-4.36966073e-11
-4.34381166e-11
-4.35596311e-11
-4.37020236e-11
-4.37013284e-11
-4.34533913e-11
-4.35724755e-11
-4.37064999e-11
-4.37058105e-11
-4.34734013e-11
-4.35869952e-11
-4.37109653e-11
-4.37102967e-11
-4.35018854e-11
-4.36063836e-11
-4.37158508e-11
-4.37150047e-11
-4.35500708e-11
-4.3631206e-11
-4.3723992e-11
-4.37200987e-11
-4.36227534e-11
-4.36355746e-11
-4.36172851e-11
-4.37250357e-11
-4.37256923e-11
-4.36488523e-11
-4.36107223e-11
-4.37294926e-11
-4.3725807e-11
-4.36763817e-11
-4.36206928e-11
-4.37067299e-11
-4.37280719e-11
-4.37217257e-11
-4.36444695e-11
-4.36633294e-11
-4.37308796e-11
-4.37322023e-11
-4.36736943e-11
-4.36518156e-11
-4.37343431e-11
-4.37330191e-11
-4.37162521e-11
-4.3652048e-11
-4.36922753e-11
-4.37342279e-11
-4.37352384e-11
-4.36591463e-11
-4.36815267e-11
-4.37357803e-11
-4.37355521e-11
-4.367278e-11
-4.36948226e-11
-4.37372545e-11
-4.37366754e-11
-4.36765763e-11
-4.37083918e-11
-4.37381878e-11
-4.3737739e-11
-4.36763425e-11
-4.3714036e-11
-4.37389408e-11
-4.37385981e-11
-4.36784754e-11
-4.37149991e-11
-4.37397566e-11
-4.37394138e-11
-4.36858348e-11
-4.37149735e-11
-4.37407691e-11
-4.37403552e-11
-4.36976961e-11
-4.37181106e-11
-4.37402666e-11
-4.374171e-11
-4.37249982e-11
-4.37276992e-11
-4.37224036e-11
-4.37330772e-11
-4.37424637e-11
-4.3742507e-11
-4.3718681e-11
-4.3731524e-11
-4.37425126e-11
-4.37424179e-11
-4.37155025e-11
-4.3730356e-11
-4.37426941e-11
-4.37425871e-11
-4.37147127e-11
-4.37304022e-11
-4.37429046e-11
-4.37428107e-11
-4.37149919e-11
-4.37311208e-11
-4.37431289e-11
-4.374304e-11
-4.37161535e-11
-4.37319046e-11
-4.37433474e-11
-4.37432734e-11
-4.37181502e-11
-4.37331959e-11
-4.37435609e-11
-4.37434792e-11
-4.37198518e-11
-4.37344585e-11
-4.37437567e-11
-4.3743677e-11
-4.37221465e-11
-4.37353822e-11
-4.37439252e-11
-4.37438463e-11
-4.37243631e-11
-4.37362448e-11
-4.37440725e-11
-4.37439966e-11
-4.37264392e-11
-4.37370702e-11
-4.37442009e-11
-4.37441292e-11
-4.37283619e-11
-4.37382997e-11
-4.37443425e-11
-4.37442476e-11
-4.3730134e-11
-4.37389866e-11
-4.37444373e-11
-4.37443498e-11
-4.37317712e-11
-4.37396163e-11
-4.37445203e-11
-4.37444401e-11
-4.37332919e-11
-4.37401885e-11
-4.37445932e-11
-4.37445201e-11
-4.37347133e-11
-4.37407171e-11
-4.37446578e-11
-4.37445912e-11
-4.37360478e-11
-4.37412135e-11
-4.37447159e-11
-4.37446548e-11
-4.37373144e-11
-4.37416706e-11
-4.37447699e-11
-4.37447133e-11
-4.37385494e-11
-4.37420705e-11
-4.37448267e-11
-4.37447757e-11
-4.37399767e-11
-4.37424493e-11
-4.37449052e-11
-4.37448575e-11
-4.3741292e-11
-4.37430786e-11
-4.37438583e-11
-4.37444776e-11
-4.37433146e-11
-4.37439142e-11
-4.3743817e-11
-4.37441871e-11
-4.37440411e-11
-4.37443034e-11
-4.37442778e-11
-4.37444841e-11
-4.37445059e-11
-4.37446794e-11
-4.37447251e-11
-4.3744894e-11
-4.37449453e-11
-4.37450046e-11
-4.37450019e-11
-4.37449937e-11
-4.37449903e-11
-4.37449842e-11
-4.37449808e-11
-4.37449763e-11
-4.37449734e-11
-4.37449704e-11
-4.37449682e-11
-4.37449662e-11
-4.37449648e-11
-4.37449637e-11
-4.37449629e-11
-4.37449623e-11
-4.37449619e-11
-4.37449617e-11
-4.37449615e-11
-4.37449615e-11
-4.37449614e-11
-4.37449614e-11
-4.37449614e-11
-4.37449614e-11
-4.37449614e-11
-4.37449614e-11
-4.37449614e-11
-4.37449614e-11
-4.37449614e-11
-4.37449614e-11
-4.37449614e-11
-4.37449614e-11
-4.37449614e-11
-4.37449614e-11
-4.37449614e-11
-4.37449614e-11
-4.37449614e-11
-4.37449614e-11
-4.37449614e-11
-4.37449614e-11
-4.37449614e-11
-4.37449614e-11
-4.37449614e-11
-4.37449614e-11
-4.37449614e-11
-4.37449614e-11
-4.37449614e-11
-4.37449614e-11
-4.37449614e-11
-4.37449614e-11
-4.37449614e-11
-4.37449614e-11
-4.37449614e-11
-4.37449614e-11
-4.37449614e-11
-4.37449614e-11
-4.37449614e-11
-4.37449614e-11
-4.37449614e-11
-4.37449614e-11
-4.37449614e-11
-4.37449614e-11
)
;

boundaryField
{
    closed
    {
        type            calculated;
        value           nonuniform List<scalar> 0();
    }
    open
    {
        type            calculated;
        value           uniform -4.37449614e-11;
    }
    sides
    {
        type            empty;
    }
    procBoundary5to4
    {
        type            processor;
        value           uniform -3.62670979e-11;
    }
}


// ************************************************************************* //
