/*--------------------------------*- C++ -*----------------------------------*\
| =========                 |                                                 |
| \\      /  F ield         | OpenFOAM: The Open Source CFD Toolbox           |
|  \\    /   O peration     | Version:  2306                                  |
|   \\  /    A nd           | Website:  www.openfoam.com                      |
|    \\/     M anipulation  |                                                 |
\*---------------------------------------------------------------------------*/
FoamFile
{
    version     2.0;
    format      ascii;
    arch        "LSB;label=32;scalar=64";
    class       volScalarField;
    location    "0.0007";
    object      prefDPV_H2O;
}
// * * * * * * * * * * * * * * * * * * * * * * * * * * * * * * * * * * * * * //

dimensions      [1 -1 -1 0 0 0 0];

internalField   nonuniform List<scalar> 
530
(
1.02658481e-06
1.02613796e-06
9.95295677e-07
9.94856606e-07
1.03002664e-06
1.02902336e-06
1.00021743e-06
1.00173915e-06
1.03187151e-06
1.03116862e-06
1.00294334e-06
1.00741941e-06
1.03367828e-06
1.03345955e-06
1.00625782e-06
1.01169529e-06
1.03531998e-06
1.0355583e-06
1.00977476e-06
1.01519725e-06
1.03739415e-06
1.03776124e-06
1.01358707e-06
1.01919841e-06
1.03267781e-06
1.03732967e-06
1.02420524e-06
1.02623017e-06
1.02350782e-06
1.0324187e-06
1.03729584e-06
1.03664263e-06
1.02013946e-06
1.02889334e-06
1.04209077e-06
1.04323743e-06
1.0215391e-06
1.02954861e-06
1.04328665e-06
1.04473017e-06
1.02302291e-06
1.03057816e-06
1.0445879e-06
1.04610425e-06
1.02463486e-06
1.0321897e-06
1.04608458e-06
1.04758856e-06
1.02636161e-06
1.03398829e-06
1.04766702e-06
1.04912273e-06
1.02845662e-06
1.03588383e-06
1.04932242e-06
1.05072459e-06
1.03067133e-06
1.03783282e-06
1.05104727e-06
1.05238121e-06
1.03293605e-06
1.03988672e-06
1.05283176e-06
1.05409679e-06
1.03521335e-06
1.04197279e-06
1.05465102e-06
1.05587233e-06
1.03745364e-06
1.04410711e-06
1.0565697e-06
1.05769555e-06
1.03966422e-06
1.0463117e-06
1.05854628e-06
1.0595885e-06
1.04219373e-06
1.04858579e-06
1.06060603e-06
1.06165097e-06
1.04471623e-06
1.05118229e-06
1.06273743e-06
1.06383098e-06
1.04729348e-06
1.05391769e-06
1.0649215e-06
1.06606703e-06
1.04999163e-06
1.05675462e-06
1.06719483e-06
1.06832308e-06
1.05283317e-06
1.05958119e-06
1.06959722e-06
1.07068723e-06
1.05693803e-06
1.06264967e-06
1.07258278e-06
1.07270694e-06
1.06136325e-06
1.06613084e-06
1.06848212e-06
1.07090233e-06
1.07116579e-06
1.07278236e-06
1.06303006e-06
1.06836671e-06
1.07734546e-06
1.07855808e-06
1.06384347e-06
1.06975268e-06
1.0786706e-06
1.08011067e-06
1.06530498e-06
1.07137641e-06
1.08044849e-06
1.08202189e-06
1.06700381e-06
1.07285314e-06
1.08237924e-06
1.08386177e-06
1.06908319e-06
1.07428595e-06
1.08448013e-06
1.08572443e-06
1.07167247e-06
1.07598586e-06
1.08692711e-06
1.08759755e-06
1.07545087e-06
1.07742764e-06
1.08984899e-06
1.08962388e-06
1.08125434e-06
1.07929376e-06
1.09242428e-06
1.091654e-06
1.08805647e-06
1.08172704e-06
1.08880665e-06
1.09380426e-06
1.09553649e-06
1.08486585e-06
1.08692371e-06
1.09619983e-06
1.09680386e-06
1.08842614e-06
1.08787576e-06
1.09847218e-06
1.09826244e-06
1.09136605e-06
1.0896581e-06
1.10044149e-06
1.09992835e-06
1.09379921e-06
1.09161646e-06
1.10226331e-06
1.10161026e-06
1.0960518e-06
1.09356046e-06
1.10397327e-06
1.10325755e-06
1.09807799e-06
1.09554155e-06
1.10554523e-06
1.10488042e-06
1.09982246e-06
1.09757756e-06
1.10698034e-06
1.10648316e-06
1.10132141e-06
1.09967663e-06
1.10827772e-06
1.10811586e-06
1.10256467e-06
1.10204607e-06
1.10941581e-06
1.10983351e-06
1.10331e-06
1.10523112e-06
1.11037294e-06
1.10966033e-06
1.10396646e-06
1.11039557e-06
1.11132715e-06
1.10815015e-06
1.1047054e-06
1.11294961e-06
1.1123305e-06
1.10846093e-06
1.10574212e-06
1.11391994e-06
1.11333613e-06
1.10945611e-06
1.10685638e-06
1.11488153e-06
1.11431199e-06
1.11049302e-06
1.10806704e-06
1.1157826e-06
1.11527492e-06
1.11138859e-06
1.10939844e-06
1.1166006e-06
1.11622995e-06
1.11213549e-06
1.11079045e-06
1.1173335e-06
1.11720388e-06
1.11275361e-06
1.11252399e-06
1.11796559e-06
1.11818409e-06
1.11320754e-06
1.11468559e-06
1.11847451e-06
1.11836335e-06
1.11366367e-06
1.11881928e-06
1.1190602e-06
1.11689892e-06
1.11444646e-06
1.12003759e-06
1.11966153e-06
1.11706902e-06
1.1153917e-06
1.12054869e-06
1.12023256e-06
1.11779664e-06
1.11634286e-06
1.12105631e-06
1.1207688e-06
1.1185397e-06
1.11725691e-06
1.12151603e-06
1.12127427e-06
1.11920993e-06
1.11819655e-06
1.12192499e-06
1.12176111e-06
1.11977238e-06
1.11924529e-06
1.12229912e-06
1.12226934e-06
1.1203836e-06
1.1205761e-06
1.1227764e-06
1.12286888e-06
1.12135621e-06
1.122538e-06
1.12167628e-06
1.12235734e-06
1.12319372e-06
1.1231223e-06
1.12098486e-06
1.12214249e-06
1.12325117e-06
1.12328206e-06
1.12074497e-06
1.12208733e-06
1.12338998e-06
1.12347006e-06
1.12079979e-06
1.12223521e-06
1.12358638e-06
1.12365978e-06
1.12100029e-06
1.1224081e-06
1.12377023e-06
1.12383659e-06
1.12122354e-06
1.12258981e-06
1.1239386e-06
1.12399746e-06
1.12143666e-06
1.12276146e-06
1.12408874e-06
1.12414124e-06
1.12163282e-06
1.12291978e-06
1.12422296e-06
1.12427072e-06
1.12183045e-06
1.12307526e-06
1.12434396e-06
1.12438562e-06
1.12201785e-06
1.12321086e-06
1.1244503e-06
1.12448629e-06
1.12218997e-06
1.12334365e-06
1.12454408e-06
1.12457696e-06
1.1223541e-06
1.12348474e-06
1.12462783e-06
1.12465967e-06
1.12252509e-06
1.12363327e-06
1.12470613e-06
1.12473691e-06
1.12273509e-06
1.12379238e-06
1.12478632e-06
1.12481474e-06
1.12302062e-06
1.12399318e-06
1.12487957e-06
1.12489662e-06
1.12348782e-06
1.12424362e-06
1.12511317e-06
1.1249894e-06
1.12418958e-06
1.12430112e-06
1.12414141e-06
1.12509065e-06
1.1251006e-06
1.12443801e-06
1.12407708e-06
1.12518669e-06
1.12505962e-06
1.12470308e-06
1.12417433e-06
1.12498227e-06
1.12509693e-06
1.12512751e-06
1.12440003e-06
1.1245819e-06
1.12515068e-06
1.12517872e-06
1.12467628e-06
1.12447407e-06
1.12522474e-06
1.1251733e-06
1.12507789e-06
1.12447577e-06
1.12485541e-06
1.12518417e-06
1.12521699e-06
1.12454113e-06
1.12475013e-06
1.12520361e-06
1.12520235e-06
1.12466692e-06
1.12487061e-06
1.12522411e-06
1.12521621e-06
1.12470084e-06
1.12499559e-06
1.1252312e-06
1.12523138e-06
1.124697e-06
1.12504684e-06
1.12523658e-06
1.12524001e-06
1.12471538e-06
1.12505417e-06
1.12524685e-06
1.12524747e-06
1.12478296e-06
1.12505259e-06
1.12526555e-06
1.1252595e-06
1.1248935e-06
1.12508152e-06
1.12528971e-06
1.1252896e-06
1.12514641e-06
1.12517167e-06
1.12511977e-06
1.12521964e-06
1.12528981e-06
1.1252944e-06
1.12508167e-06
1.12520094e-06
1.12528335e-06
1.12528598e-06
1.1250499e-06
1.1251877e-06
1.1252811e-06
1.12528429e-06
1.12504071e-06
1.12518623e-06
1.12528086e-06
1.12528467e-06
1.12504159e-06
1.12519123e-06
1.12528183e-06
1.12528572e-06
1.12505083e-06
1.12519698e-06
1.12528343e-06
1.1252875e-06
1.12506801e-06
1.12520759e-06
1.12528544e-06
1.12528915e-06
1.12508256e-06
1.12521806e-06
1.12528757e-06
1.12529101e-06
1.12510271e-06
1.12522548e-06
1.12528957e-06
1.1252925e-06
1.12512224e-06
1.12523242e-06
1.12529139e-06
1.12529389e-06
1.12514055e-06
1.12523912e-06
1.12529302e-06
1.12529516e-06
1.12515753e-06
1.12524972e-06
1.12529545e-06
1.12529638e-06
1.12517319e-06
1.12525531e-06
1.12529666e-06
1.12529743e-06
1.12518768e-06
1.12526045e-06
1.12529777e-06
1.12529837e-06
1.12520116e-06
1.12526512e-06
1.12529879e-06
1.12529924e-06
1.12521379e-06
1.12526946e-06
1.12529975e-06
1.12530005e-06
1.12522568e-06
1.12527357e-06
1.12530066e-06
1.12530081e-06
1.125237e-06
1.12527737e-06
1.12530157e-06
1.12530152e-06
1.12524809e-06
1.1252807e-06
1.12530273e-06
1.1253024e-06
1.12526107e-06
1.12528393e-06
1.12530473e-06
1.12530389e-06
1.12527328e-06
1.12528976e-06
1.12529701e-06
1.12530278e-06
1.12529178e-06
1.12529727e-06
1.12529624e-06
1.12529958e-06
1.1252981e-06
1.12530044e-06
1.12530008e-06
1.1253019e-06
1.12530199e-06
1.12530351e-06
1.12530382e-06
1.1253053e-06
1.12530568e-06
1.12530582e-06
1.12530548e-06
1.12530498e-06
1.12530466e-06
1.12530432e-06
1.12530407e-06
1.12530384e-06
1.12530368e-06
1.12530354e-06
1.12530344e-06
1.12530336e-06
1.12530331e-06
1.12530328e-06
1.12530325e-06
1.12530324e-06
1.12530323e-06
1.12530323e-06
1.12530322e-06
1.12530322e-06
1.12530322e-06
1.12530322e-06
1.12530322e-06
1.12530322e-06
1.12530322e-06
1.12530322e-06
1.12530322e-06
1.12530322e-06
1.12530322e-06
1.12530322e-06
1.12530322e-06
1.12530322e-06
1.12530322e-06
1.12530322e-06
1.12530322e-06
1.12530322e-06
1.12530322e-06
1.12530322e-06
1.12530322e-06
1.12530322e-06
1.12530322e-06
1.12530322e-06
1.12530322e-06
1.12530322e-06
1.12530322e-06
1.12530322e-06
1.12530322e-06
1.12530322e-06
1.12530322e-06
1.12530322e-06
1.12530322e-06
1.12530322e-06
1.12530322e-06
1.12530322e-06
1.12530322e-06
1.12530322e-06
1.12530322e-06
1.12530322e-06
1.12530322e-06
1.12530322e-06
1.12530322e-06
1.12530322e-06
)
;

boundaryField
{
    closed
    {
        type            calculated;
        value           nonuniform List<scalar> 0();
    }
    open
    {
        type            calculated;
        value           uniform 1.12530322e-06;
    }
    sides
    {
        type            empty;
    }
    procBoundary5to4
    {
        type            processor;
        value           uniform 9.86897374e-07;
    }
}


// ************************************************************************* //
