/*--------------------------------*- C++ -*----------------------------------*\
| =========                 |                                                 |
| \\      /  F ield         | OpenFOAM: The Open Source CFD Toolbox           |
|  \\    /   O peration     | Version:  2306                                  |
|   \\  /    A nd           | Website:  www.openfoam.com                      |
|    \\/     M anipulation  |                                                 |
\*---------------------------------------------------------------------------*/
FoamFile
{
    version     2.0;
    format      ascii;
    arch        "LSB;label=32;scalar=64";
    class       volScalarField;
    location    "0.00046";
    object      h;
}
// * * * * * * * * * * * * * * * * * * * * * * * * * * * * * * * * * * * * * //

dimensions      [0 2 -2 0 0 0 0];

internalField   nonuniform List<scalar> 
530
(
5011.85033
2840.69708
2277.84777
2274.37629
2273.89915
2273.89496
2273.89461
2273.89461
2273.89461
2273.89461
2273.89461
2273.89461
2273.89461
2273.89461
2273.89461
2273.89461
2273.89461
2273.89461
2273.89461
2273.89461
2273.89461
2273.89461
2273.89461
2273.89461
2273.89461
2273.89461
2273.89461
2273.89461
2273.89461
2273.89461
2273.89461
2273.89461
2273.89461
2273.89461
2273.89461
2273.89461
2273.89461
2273.89461
2273.89461
2273.89461
2273.89461
2273.89461
2273.89461
2273.89461
2273.89461
2273.89461
2273.89461
2273.89461
2273.89461
2273.89461
2273.89461
2273.89461
2273.89461
2273.89461
2273.89461
2273.89461
2273.89461
2273.89461
2273.89461
2273.89461
2273.89461
2273.89461
2273.89461
2273.89461
2273.89461
2273.89461
2273.89461
2273.89461
2273.89461
2273.89461
2273.89461
2273.89461
2273.89461
2273.89461
2273.89461
2273.89461
2273.89463
2273.89468
2273.89496
2273.89561
2273.89846
2273.90535
2273.93082
2273.96347
2274.12455
2274.41789
2275.16771
2274.99742
2276.4169
2282.92568
2310.0839
2275.38432
2153.57447
2277.44491
2947.57326
2732.6711
-161.517986
-222.10546
5727.78808
5994.68714
-1493.57411
-3886.62
1276.43336
10295.8036
8818.36935
-3458.29447
-2090.30639
10166.9328
9197.36796
-4942.17449
-6405.10799
-567.779153
9878.04327
8827.71733
-4282.35615
-1892.22092
9938.15771
6595.96447
-4666.8325
-1325.08667
9864.76781
6114.16945
-4901.40143
-1299.1001
9844.36521
6127.20392
-4906.85251
-1462.10134
9900.88473
6601.73243
-4676.09102
-1939.1691
10034.8997
7951.62879
-4192.87128
-2242.13873
10112.8241
9276.74703
-5043.16799
-6393.09048
-634.722927
10030.3649
9277.82001
-3627.57669
-2096.92709
10210.7769
9386.87807
-4874.1656
-6357.66592
-740.696368
9943.84066
9207.88755
-4338.17196
-2083.63249
9976.36867
6584.53671
-4849.0175
-1483.6947
9874.08899
6127.44189
-5019.82532
-1692.2184
9885.83891
6806.52717
-4696.88223
-2314.86751
9995.33779
8403.94628
-4147.02422
-2700.86816
10011.5196
9491.20959
-4875.39863
-6632.01527
-1315.86067
9860.44369
9485.76409
-3830.82946
-3138.79443
10072.7415
9312.26562
-3691.46468
-2916.65048
10036.7765
9694.20232
-4571.53797
-6340.29893
-1244.61251
9915.32268
9706.43664
-3321.77161
-2808.90872
10044.0832
9715.32028
-4330.43478
-6445.85704
-1590.24133
9774.34779
9657.63954
-3935.00406
-3405.4143
9879.41493
8668.80507
-4475.52907
-3355.79918
9832.86879
8588.08287
-4440.74181
-3486.27765
9860.42995
9118.83112
-4014.48093
-3447.84548
9809.97201
9722.17732
-4133.4713
-6651.25279
-2273.78161
9649.29647
9795.28461
-3662.98193
-3564.45871
9665.31256
8973.30514
-4213.10769
-3609.238
9681.19204
9281.97417
-3885.77925
-3659.95199
9603.56236
9840.94707
-3652.4342
-6515.10259
-2560.37101
9612.22923
10047.1608
-3176.36137
-3659.55912
9473.55349
9838.245
-3071.84275
-3416.32739
9428.81235
9967.8754
-3271.93688
-6117.16176
-2346.24441
9731.82285
10291.4029
-1914.49303
-2303.65773
9870.83261
10401.656
-1622.06519
-3560.31831
-2593.39929
-3267.11501
34.4029714
10082.9083
10185.2029
-2140.66447
-5483.38769
-2311.85473
9634.58269
10127.5845
-2601.27291
-3641.01344
9159.81035
9933.91037
-2817.00605
-3469.5637
9170.44523
10030.1612
-2802.26738
-4487.05343
1397.44478
2082.06501
-2527.87683
-756.991427
9618.25789
10533.2209
5843.56015
-3741.48047
-3507.68362
9401.51083
9455.77729
-3588.72353
-3907.537
9148.52143
9977.11913
-2222.57602
-5832.15444
-2316.30887
9481.70137
10139.4485
-1946.94909
-5654.87806
-2957.07196
9474.37599
10246.1192
-1710.31264
-2999.3713
8944.50976
10085.4825
-1812.76957
-5538.07838
-2158.94265
9464.25019
10215.9488
-1268.41773
-5037.62696
-1637.07633
9541.86764
10268.908
-905.084732
-4612.68404
-911.31151
9672.57329
10381.8812
-439.561147
-3493.24289
-3745.30913
-1122.99101
9704.92961
10313.9414
-416.025554
-4777.30793
-2143.30448
9416.43164
10158.9368
-997.117801
-5688.76467
-3722.5326
9171.5189
10152.2258
-1722.29798
-3729.11157
8330.83575
10028.6691
-2025.88809
-3496.16268
8341.12362
10011.3511
-1398.01109
-5771.75977
-3211.60461
9179.48583
10178.6536
-665.66764
-5235.33359
-3401.08629
9238.85534
10303.2939
-1009.08981
-3078.51677
8417.47337
10034.8502
-1219.87177
-5967.63196
-4175.27714
9096.55754
10237.6529
-1267.91221
-3196.01115
8456.89663
10115.1549
-884.397548
-5355.64487
-2919.49544
9295.51606
10278.8795
-382.386927
-5006.66406
-2924.56184
9337.25657
10233.7169
-613.354314
-5584.40759
-4038.52962
9181.17348
10177.8476
-1997.34592
-4036.79987
8423.76511
9928.55099
-2601.83357
-4005.01042
8517.42523
9991.00749
-1386.53449
-6260.38154
-4486.93786
9194.20118
10162.5135
-2091.43283
-3913.53128
8700.24095
10030.9667
-2646.91289
-3902.68673
8843.8151
10042.2236
-1425.11046
-6083.63276
-4129.20758
9426.97141
10232.6171
-2157.5586
-3531.7406
9189.73619
10107.4044
-1541.73264
-5945.91598
-3726.87108
9607.45023
10226.0971
-2581.91515
-3647.244
9523.83035
10068.1014
-1724.45251
-6241.63293
-3649.23085
9656.7487
10016.0497
-3597.75797
-4210.55523
9633.68908
9682.4172
-4220.14805
-4180.27717
9717.36169
9672.69153
-4127.40928
-4077.89628
9773.15
9855.62618
-1921.59209
-6200.69856
-3189.03154
9918.61329
9811.45223
-3437.36358
-3342.71198
9970.47913
10005.0601
-1382.92151
-5548.69953
-2558.90214
9992.50665
10054.3051
-1222.82235
-5470.05044
-2297.63689
9948.16363
9619.49119
-3679.68084
-3281.89702
9991.47145
9868.77532
-1552.69668
-5877.60568
-2191.71288
9827.02183
9316.50675
-4029.6923
-3351.58905
10035.0698
9843.42251
-1272.77109
-5529.93841
-1256.52606
10000.667
7913.49856
-2310.31343
312.861892
2888.89226
-2058.06473
-1269.27601
10207.5992
10173.794
-408.884647
-3213.83758
1124.80274
1414.12165
-2237.70133
89.1046756
10251.8765
8564.6055
-3742.57272
-2943.5962
10034.5138
9886.12529
-475.859324
-5123.01943
-2100.26559
10089.4941
9950.56925
-934.001222
-4451.61247
-4933.61482
-1888.04702
9789.36815
8158.11334
-4071.21014
-2260.33091
10011.7886
10433.0132
4368.03578
-3355.87591
-1946.25115
10084.6373
9585.5757
-3029.72895
-6122.81717
-2993.87478
9855.3889
9757.6801
-1024.47726
-5968.87279
-2238.59507
9631.20923
7830.57014
-4684.55638
-3005.61559
9948.66765
10339.8178
3799.97368
-3958.46553
)
;

boundaryField
{
    closed
    {
        type            lookUpEnthalpy;
        h0              uniform 255237.046;
        value           uniform 255237.046;
    }
    open
    {
        type            zeroGradient;
    }
    sides
    {
        type            empty;
    }
    procBoundary0to1
    {
        type            processor;
        value           uniform -962.81928;
    }
}


// ************************************************************************* //
