/*--------------------------------*- C++ -*----------------------------------*\
| =========                 |                                                 |
| \\      /  F ield         | OpenFOAM: The Open Source CFD Toolbox           |
|  \\    /   O peration     | Version:  2306                                  |
|   \\  /    A nd           | Website:  www.openfoam.com                      |
|    \\/     M anipulation  |                                                 |
\*---------------------------------------------------------------------------*/
FoamFile
{
    version     2.0;
    format      ascii;
    arch        "LSB;label=32;scalar=64";
    class       volScalarField;
    location    "0.00046";
    object      mu;
}
// * * * * * * * * * * * * * * * * * * * * * * * * * * * * * * * * * * * * * //

dimensions      [1 -1 -1 0 0 0 0];

internalField   nonuniform List<scalar> 
530
(
2.000938e-05
1.98314729e-05
1.97987432e-05
1.97985606e-05
1.9798536e-05
1.97985358e-05
1.97985358e-05
1.97985358e-05
1.97985358e-05
1.97985358e-05
1.97985358e-05
1.97985358e-05
1.97985358e-05
1.97985358e-05
1.97985358e-05
1.97985358e-05
1.97985358e-05
1.97985358e-05
1.97985358e-05
1.97985358e-05
1.97985358e-05
1.97985358e-05
1.97985358e-05
1.97985358e-05
1.97985358e-05
1.97985358e-05
1.97985358e-05
1.97985358e-05
1.97985358e-05
1.97985358e-05
1.97985358e-05
1.97985358e-05
1.97985358e-05
1.97985358e-05
1.97985358e-05
1.97985358e-05
1.97985358e-05
1.97985358e-05
1.97985358e-05
1.97985358e-05
1.97985358e-05
1.97985358e-05
1.97985358e-05
1.97985358e-05
1.97985358e-05
1.97985358e-05
1.97985358e-05
1.97985358e-05
1.97985358e-05
1.97985358e-05
1.97985358e-05
1.97985358e-05
1.97985358e-05
1.97985358e-05
1.97985358e-05
1.97985358e-05
1.97985358e-05
1.97985358e-05
1.97985358e-05
1.97985358e-05
1.97985358e-05
1.97985358e-05
1.97985358e-05
1.97985358e-05
1.97985358e-05
1.97985358e-05
1.97985358e-05
1.97985358e-05
1.97985358e-05
1.97985358e-05
1.97985358e-05
1.97985358e-05
1.97985358e-05
1.97985358e-05
1.97985358e-05
1.97985358e-05
1.97985358e-05
1.97985358e-05
1.97985358e-05
1.97985359e-05
1.9798536e-05
1.97985364e-05
1.97985376e-05
1.97985394e-05
1.97985477e-05
1.97985611e-05
1.97985989e-05
1.97986039e-05
1.97986978e-05
1.97989242e-05
1.97999806e-05
1.97988359e-05
1.9795534e-05
1.97992967e-05
1.98233222e-05
1.98152639e-05
1.9763381e-05
1.97641135e-05
1.99923872e-05
2.00089921e-05
1.97598068e-05
1.96079058e-05
1.97819825e-05
2.03129298e-05
2.02999774e-05
1.96480957e-05
1.97798602e-05
2.03109166e-05
2.02775621e-05
1.95059409e-05
1.93524743e-05
1.97690053e-05
2.0283548e-05
2.02969501e-05
1.95693203e-05
1.9781841e-05
2.02944878e-05
2.00818083e-05
1.95322771e-05
1.97764209e-05
2.02952871e-05
2.00408196e-05
1.95093054e-05
1.97703175e-05
2.02953902e-05
2.00436565e-05
1.9508824e-05
1.97746921e-05
2.02967054e-05
2.00859425e-05
1.9531603e-05
1.97956702e-05
2.03007921e-05
2.02315724e-05
1.95785332e-05
1.9767884e-05
2.02995746e-05
2.02843401e-05
1.94955114e-05
1.93539978e-05
1.97741395e-05
2.02825164e-05
2.03025016e-05
1.96328534e-05
1.97803933e-05
2.02940348e-05
2.02813062e-05
1.95119481e-05
1.93560695e-05
1.9772894e-05
2.02764014e-05
2.03144888e-05
1.95637056e-05
1.9780053e-05
2.02899732e-05
2.00725368e-05
1.95143773e-05
1.97755391e-05
2.02913962e-05
2.00343373e-05
1.94977582e-05
1.97756704e-05
2.02908216e-05
2.00979276e-05
1.95296057e-05
1.9760502e-05
2.02916864e-05
2.02584182e-05
1.95829437e-05
1.97237622e-05
2.02892643e-05
2.02945622e-05
1.95125198e-05
1.93292484e-05
1.97715516e-05
2.02724703e-05
2.03146019e-05
1.96132511e-05
1.96805405e-05
2.02912754e-05
2.03040494e-05
1.96262802e-05
1.97023213e-05
2.02912881e-05
2.02963095e-05
1.9542319e-05
1.93611912e-05
1.97675545e-05
2.02727805e-05
2.03178848e-05
1.96617439e-05
1.9711916e-05
2.02840941e-05
2.02951549e-05
1.95654802e-05
1.93492876e-05
1.97661826e-05
2.02664635e-05
2.03224984e-05
1.96032599e-05
1.96545713e-05
2.02811368e-05
2.02708897e-05
1.95513982e-05
1.96591805e-05
2.02841859e-05
2.02612657e-05
1.95548218e-05
1.96462017e-05
2.02838748e-05
2.02905321e-05
1.95956605e-05
1.96503537e-05
2.02799415e-05
2.02921721e-05
1.95843219e-05
1.93278613e-05
1.97599715e-05
2.02621134e-05
2.03217198e-05
1.96293303e-05
1.96390075e-05
2.0267939e-05
2.02778703e-05
1.9576629e-05
1.96340928e-05
2.02739527e-05
2.02943294e-05
1.96078956e-05
1.96296663e-05
2.02738717e-05
2.02951456e-05
1.96295077e-05
1.93448254e-05
1.97323471e-05
2.02690724e-05
2.03242679e-05
1.96752984e-05
1.96296145e-05
2.02663825e-05
2.03151715e-05
1.96845257e-05
1.96530482e-05
2.02719042e-05
2.03013263e-05
1.96644318e-05
1.93878526e-05
1.9744887e-05
2.02774229e-05
2.03385389e-05
1.97612518e-05
1.97508899e-05
2.02769526e-05
2.0311387e-05
1.97561452e-05
1.96391211e-05
1.97294086e-05
1.9667383e-05
1.97648259e-05
2.02852452e-05
2.03117883e-05
1.97479685e-05
1.94514793e-05
1.97510826e-05
2.02784614e-05
2.03297265e-05
1.972937e-05
1.96309908e-05
2.02676584e-05
2.03214816e-05
1.97091753e-05
1.96474872e-05
2.02775339e-05
2.03160196e-05
1.97071479e-05
1.95506812e-05
1.97745574e-05
1.97949892e-05
1.97339322e-05
1.97492993e-05
2.0287453e-05
2.03191134e-05
1.99934446e-05
1.96210551e-05
1.96444164e-05
2.02847586e-05
2.03148036e-05
1.96359184e-05
1.96058511e-05
2.02723408e-05
2.02974528e-05
1.97489364e-05
1.94145201e-05
1.97542198e-05
2.02723423e-05
2.03091399e-05
1.97569284e-05
1.9433474e-05
1.96953258e-05
2.02715935e-05
2.03256869e-05
1.97747191e-05
1.96911987e-05
2.02661042e-05
2.03034334e-05
1.97529852e-05
1.94447923e-05
1.97510178e-05
2.02748113e-05
2.03150463e-05
1.97531589e-05
1.94959346e-05
1.97504581e-05
2.02792493e-05
2.03160329e-05
1.97525359e-05
1.95376712e-05
1.97489764e-05
2.02761077e-05
2.03199769e-05
1.97641383e-05
1.96448325e-05
1.96214714e-05
1.97598201e-05
2.02813079e-05
2.03088925e-05
1.9755224e-05
1.95211511e-05
1.97518046e-05
2.02748789e-05
2.03123808e-05
1.97541055e-05
1.94306585e-05
1.96233667e-05
2.02673089e-05
2.03236806e-05
1.97762667e-05
1.96223869e-05
2.02449215e-05
2.03195834e-05
1.97835977e-05
1.96449336e-05
2.02493372e-05
2.02972551e-05
1.97562707e-05
1.9420464e-05
1.96716249e-05
2.02654081e-05
2.0308366e-05
1.97603137e-05
1.94757248e-05
1.96537737e-05
2.02644765e-05
2.03215036e-05
1.97786785e-05
1.96835639e-05
2.02502096e-05
2.03011808e-05
1.97589624e-05
1.94009919e-05
1.95803156e-05
2.02595604e-05
2.03211353e-05
1.97797531e-05
1.96725646e-05
2.02487661e-05
2.02995925e-05
1.97621556e-05
1.94626116e-05
1.96992275e-05
2.02654931e-05
2.03037238e-05
1.97656596e-05
1.94981382e-05
1.96993031e-05
2.026951e-05
2.02991688e-05
1.97638925e-05
1.94399952e-05
1.95933385e-05
2.02628358e-05
2.03117567e-05
1.97815351e-05
1.95935295e-05
2.02406187e-05
2.03069842e-05
1.97314543e-05
1.95964601e-05
2.02492693e-05
2.02862607e-05
1.9764338e-05
1.93697272e-05
1.95502171e-05
2.02634731e-05
2.03119955e-05
1.97791977e-05
1.9605266e-05
2.02531431e-05
2.03090752e-05
1.97267964e-05
1.96063621e-05
2.02664342e-05
2.02891813e-05
1.97623451e-05
1.93886866e-05
1.95847106e-05
2.02745098e-05
2.03152456e-05
1.97723591e-05
1.96415481e-05
2.02872492e-05
2.02932854e-05
1.97636784e-05
1.94026753e-05
1.96230394e-05
2.02807837e-05
2.03127776e-05
1.97327583e-05
1.96307573e-05
2.03042903e-05
2.02888358e-05
1.97632198e-05
1.93719947e-05
1.96303472e-05
2.02874348e-05
2.03079686e-05
1.96358038e-05
1.9576696e-05
2.02943789e-05
2.02930111e-05
1.95752559e-05
1.9579241e-05
2.02954177e-05
2.02873331e-05
1.95846047e-05
1.95894054e-05
2.03130138e-05
2.02767343e-05
1.97567735e-05
1.93772636e-05
1.96729434e-05
2.02980994e-05
2.02955253e-05
1.96511044e-05
1.96593614e-05
2.03174579e-05
2.02810121e-05
1.97570457e-05
1.94452327e-05
1.97310786e-05
2.03141383e-05
2.02900418e-05
1.97573837e-05
1.94529974e-05
1.97525773e-05
2.03012928e-05
2.02912221e-05
1.96277355e-05
1.96651667e-05
2.03227512e-05
2.02766485e-05
1.97548293e-05
1.94102199e-05
1.97547202e-05
2.02931354e-05
2.0284133e-05
1.95940722e-05
1.96588691e-05
2.03207607e-05
2.0277551e-05
1.975505e-05
1.94469947e-05
1.97715076e-05
2.03065951e-05
2.02371539e-05
1.97553164e-05
1.97843163e-05
1.98211136e-05
1.97583806e-05
1.97461313e-05
2.03398993e-05
2.03115256e-05
1.97449607e-05
1.96698435e-05
1.97706733e-05
1.97798814e-05
1.97503845e-05
1.97730344e-05
2.03148971e-05
2.02741461e-05
1.96214215e-05
1.96986044e-05
2.03277623e-05
2.02728632e-05
1.97500813e-05
1.94874586e-05
1.97390782e-05
2.03155958e-05
2.03012788e-05
1.97667085e-05
1.95538757e-05
1.95061939e-05
1.97732092e-05
2.03005969e-05
2.02619881e-05
1.95901194e-05
1.9763076e-05
2.03028689e-05
2.02915262e-05
1.98893009e-05
1.96577445e-05
1.97663982e-05
2.03269339e-05
2.02856734e-05
1.96879469e-05
1.93874154e-05
1.96905779e-05
2.03190233e-05
2.02841634e-05
1.97528422e-05
1.94018148e-05
1.97632194e-05
2.02971413e-05
2.02425561e-05
1.95306845e-05
1.96924917e-05
2.03091766e-05
2.02935274e-05
1.98617485e-05
1.96009154e-05
)
;

boundaryField
{
    closed
    {
        type            calculated;
        value           uniform 2.71057559e-05;
    }
    open
    {
        type            calculated;
        value           nonuniform List<scalar> 0();
    }
    sides
    {
        type            empty;
    }
    procBoundary0to1
    {
        type            processor;
        value           uniform 1.97623547e-05;
    }
}


// ************************************************************************* //
