/*--------------------------------*- C++ -*----------------------------------*\
| =========                 |                                                 |
| \\      /  F ield         | OpenFOAM: The Open Source CFD Toolbox           |
|  \\    /   O peration     | Version:  2306                                  |
|   \\  /    A nd           | Website:  www.openfoam.com                      |
|    \\/     M anipulation  |                                                 |
\*---------------------------------------------------------------------------*/
FoamFile
{
    version     2.0;
    format      ascii;
    arch        "LSB;label=32;scalar=64";
    class       volScalarField;
    location    "0.00046";
    object      prefDh_T;
}
// * * * * * * * * * * * * * * * * * * * * * * * * * * * * * * * * * * * * * //

dimensions      [1 1 -3 -1 0 0 0];

internalField   nonuniform List<scalar> 
530
(
-0.000679615236
-0.000605749319
-0.000591290714
-0.000591205779
-0.000591194605
-0.000591194509
-0.000591194501
-0.000591194501
-0.000591194501
-0.000591194501
-0.000591194501
-0.000591194501
-0.000591194501
-0.000591194501
-0.000591194501
-0.000591194501
-0.000591194501
-0.000591194501
-0.000591194501
-0.000591194501
-0.000591194501
-0.000591194501
-0.000591194501
-0.000591194501
-0.000591194501
-0.000591194501
-0.000591194501
-0.000591194501
-0.000591194501
-0.000591194501
-0.000591194501
-0.000591194501
-0.000591194501
-0.000591194501
-0.000591194501
-0.000591194501
-0.000591194501
-0.000591194501
-0.000591194501
-0.000591194501
-0.000591194501
-0.000591194501
-0.000591194501
-0.000591194501
-0.000591194501
-0.000591194501
-0.000591194501
-0.000591194501
-0.000591194501
-0.000591194501
-0.000591194501
-0.000591194501
-0.000591194501
-0.000591194501
-0.000591194501
-0.000591194501
-0.000591194501
-0.000591194501
-0.000591194501
-0.000591194501
-0.000591194501
-0.000591194501
-0.000591194501
-0.000591194501
-0.000591194501
-0.000591194501
-0.000591194501
-0.000591194501
-0.000591194501
-0.000591194501
-0.000591194501
-0.000591194501
-0.000591194501
-0.000591194501
-0.000591194501
-0.000591194501
-0.000591194501
-0.000591194502
-0.000591194509
-0.000591194524
-0.000591194589
-0.000591194743
-0.000591195308
-0.000591196115
-0.00059119998
-0.000591205341
-0.000591222214
-0.000591230613
-0.000591282453
-0.000591337605
-0.000591668771
-0.000591426806
-0.000591068755
-0.000591773691
-0.000597493606
-0.000595632449
-0.000591969821
-0.000592629424
-0.000645076822
-0.000650188996
-0.000597153526
-0.000548704206
-0.000591877557
-0.000750640451
-0.000746296145
-0.000562080398
-0.000608636881
-0.000749946872
-0.000738196548
-0.000513195791
-0.000460456589
-0.000596614247
-0.000740202448
-0.00074520982
-0.000535570105
-0.000608412368
-0.000744108284
-0.000673119852
-0.000522501118
-0.000603511279
-0.000744410109
-0.000660157223
-0.00051453042
-0.000600761001
-0.000744451324
-0.000661055894
-0.000514349533
-0.000603405866
-0.000744910644
-0.00067445799
-0.000522185724
-0.00061449202
-0.000746346534
-0.000721968213
-0.000538348275
-0.000605228849
-0.000745893533
-0.000740608052
-0.000509710063
-0.000460972103
-0.000599208366
-0.000739800663
-0.0007471138
-0.000557512219
-0.000609130504
-0.000743887354
-0.000739500013
-0.000515455614
-0.00046179453
-0.000599186388
-0.000737629571
-0.000751423855
-0.000533694218
-0.00060859317
-0.000742482878
-0.0006701282
-0.000516309036
-0.000603869007
-0.000743014238
-0.000658099163
-0.000510501035
-0.000604883074
-0.000742805945
-0.00067823693
-0.00052148291
-0.000602537803
-0.000743092558
-0.000731490983
-0.00053986732
-0.000590106851
-0.000742221474
-0.000744227
-0.000515457663
-0.000452315061
-0.000601372169
-0.000736239873
-0.000751409876
-0.000550461724
-0.000574658833
-0.000742928732
-0.000747661764
-0.000554642851
-0.000582378172
-0.000742941007
-0.000744811816
-0.000525631264
-0.000463372632
-0.000599308718
-0.000736339313
-0.000752542255
-0.000567221363
-0.000585245494
-0.000740362748
-0.000744393785
-0.000533642132
-0.000459279369
-0.000600352185
-0.000734107904
-0.000754206607
-0.0005470467
-0.000565720581
-0.000739338714
-0.000735906782
-0.000528879907
-0.000567956878
-0.00074044038
-0.000732477309
-0.000530015874
-0.000563393538
-0.00074032319
-0.000742856201
-0.000544164111
-0.000564464035
-0.000738925254
-0.000743323805
-0.000540046238
-0.00045179666
-0.000601092551
-0.000732577043
-0.000753899122
-0.000556067659
-0.000560251092
-0.000734658517
-0.000738349563
-0.000537633417
-0.000559062008
-0.000736807802
-0.000744184971
-0.000548324948
-0.000556972187
-0.000736794704
-0.000744364387
-0.000555445079
-0.000457552297
-0.000591309423
-0.000735075051
-0.000754759974
-0.000571806552
-0.00055610839
-0.000734140426
-0.000751542189
-0.000574755123
-0.000564425714
-0.000736125651
-0.000746552271
-0.0005672871
-0.000472365168
-0.000594780059
-0.000738039742
-0.000759826806
-0.000599750943
-0.000597135245
-0.000737842326
-0.000750063942
-0.000596189506
-0.000559442013
-0.00059033066
-0.000569445203
-0.000591536704
-0.00074076662
-0.000750255427
-0.000595134546
-0.000494496299
-0.000597254894
-0.000738431543
-0.000756700676
-0.0005905121
-0.000556227376
-0.000734658752
-0.000753784727
-0.000583540049
-0.00056213427
-0.000738191627
-0.000751805804
-0.000581869019
-0.000528330801
-0.000587025035
-0.000591720753
-0.000591497315
-0.000588875139
-0.000741654771
-0.000752804697
-0.000645412481
-0.000552452695
-0.000561571488
-0.000740733364
-0.000751488184
-0.000557927794
-0.000548148844
-0.000736336838
-0.000745162298
-0.00059592902
-0.000481859177
-0.000598681158
-0.000736271894
-0.000749315945
-0.000598055544
-0.00048834433
-0.000578509734
-0.000736005319
-0.000755225967
-0.000604559719
-0.000577024388
-0.000734143469
-0.000747282242
-0.000595737766
-0.000492333755
-0.000596519996
-0.00073715923
-0.000751416772
-0.000593181892
-0.000509884276
-0.000593811716
-0.00073873249
-0.00075175894
-0.000591078642
-0.00052433132
-0.000589541813
-0.000737581064
-0.000753148231
-0.00059379753
-0.000560963774
-0.00055338852
-0.000595363265
-0.000739436319
-0.000749189132
-0.000589689101
-0.000518733511
-0.00059678265
-0.000737192954
-0.000750473528
-0.00059223805
-0.000487294897
-0.000553659655
-0.000734531413
-0.000754526798
-0.000605274589
-0.000553028913
-0.00072667653
-0.000753083963
-0.000609751756
-0.000561227255
-0.000728253761
-0.000745084186
-0.000595166424
-0.000483947774
-0.000570379205
-0.000733849644
-0.000749030028
-0.000593276952
-0.000502991315
-0.000564200568
-0.000733504751
-0.000753713109
-0.000602999594
-0.000574301213
-0.000728552522
-0.000746485867
-0.000595465719
-0.000477124567
-0.000538787981
-0.000731773187
-0.000753595412
-0.000604677982
-0.000570490572
-0.000728029389
-0.000745899432
-0.000595198738
-0.000498600193
-0.000579989221
-0.000733857456
-0.000747344286
-0.000594174955
-0.000510831389
-0.000580213302
-0.00073528686
-0.000745721846
-0.000594589517
-0.000490681376
-0.000543515269
-0.000732928835
-0.000750245683
-0.000608751528
-0.000543432153
-0.000725122034
-0.000748588285
-0.000591914249
-0.000544830361
-0.000728198679
-0.000741150027
-0.000598596972
-0.000466330509
-0.000528519028
-0.000733154381
-0.000750334615
-0.000608267204
-0.000547432678
-0.000729551424
-0.000749316044
-0.000590169675
-0.000548155849
-0.000734280261
-0.000742185168
-0.000597921228
-0.000472878151
-0.000540328399
-0.000737058737
-0.000751484589
-0.000605747282
-0.000560043862
-0.000741666773
-0.000743641345
-0.000599048767
-0.000477758799
-0.000553633659
-0.000739268603
-0.000750601165
-0.000592163869
-0.000556466065
-0.000747706157
-0.000742055841
-0.00059970926
-0.000467096928
-0.000556109806
-0.000741640381
-0.000748922575
-0.000558775181
-0.000537858354
-0.000744132506
-0.000743632558
-0.000537708479
-0.000539039274
-0.000744487519
-0.000741600707
-0.000540730171
-0.000542389818
-0.000750782136
-0.000737767383
-0.000597871209
-0.000468852833
-0.000570518513
-0.00074540637
-0.000744506591
-0.000563816263
-0.000566177056
-0.000752334162
-0.000739267389
-0.000595428658
-0.000492288275
-0.000590514022
-0.000751139306
-0.000742490804
-0.000594794232
-0.000494996268
-0.000597824501
-0.000746544424
-0.000743004541
-0.00055551851
-0.000568219839
-0.000754227893
-0.000737733883
-0.000595290515
-0.000480331001
-0.000598247977
-0.000743647135
-0.000740526105
-0.000544004695
-0.000566199057
-0.000753504779
-0.000738062353
-0.000594025503
-0.000492915675
-0.000601072867
-0.000748433564
-0.000723969283
-0.000599184686
-0.000598857824
-0.000597408061
-0.000599190026
-0.000590123977
-0.000760333253
-0.00075016371
-0.000585019739
-0.000569167173
-0.000587284887
-0.000589733558
-0.000596615627
-0.000594961856
-0.000751355428
-0.000737091001
-0.000552940234
-0.000580435018
-0.000756016033
-0.000736375113
-0.000587706911
-0.000506954171
-0.000591143168
-0.000751641126
-0.000746538911
-0.000597435424
-0.000529612256
-0.000513437531
-0.00060472553
-0.000746328333
-0.000732810113
-0.000542550036
-0.000602635094
-0.000747095714
-0.000742939443
-0.000614870242
-0.000565432091
-0.000602091354
-0.000755708165
-0.00074102406
-0.00057575908
-0.000472200766
-0.000576446638
-0.000752919672
-0.000740447986
-0.000591822766
-0.000477322914
-0.000602207602
-0.000745122714
-0.000725913775
-0.00052190068
-0.000578224534
-0.00074936988
-0.000743677147
-0.000607135043
-0.000545755888
)
;

boundaryField
{
    closed
    {
        type            calculated;
        value           uniform -0.00446532343;
    }
    open
    {
        type            calculated;
        value           nonuniform List<scalar> 0();
    }
    sides
    {
        type            empty;
    }
    procBoundary0to1
    {
        type            processor;
        value           uniform -0.000595676839;
    }
}


// ************************************************************************* //
