/*--------------------------------*- C++ -*----------------------------------*\
| =========                 |                                                 |
| \\      /  F ield         | OpenFOAM: The Open Source CFD Toolbox           |
|  \\    /   O peration     | Version:  2306                                  |
|   \\  /    A nd           | Website:  www.openfoam.com                      |
|    \\/     M anipulation  |                                                 |
\*---------------------------------------------------------------------------*/
FoamFile
{
    version     2.0;
    format      ascii;
    arch        "LSB;label=32;scalar=64";
    class       volScalarField;
    location    "0.00046";
    object      prefDh_H2;
}
// * * * * * * * * * * * * * * * * * * * * * * * * * * * * * * * * * * * * * //

dimensions      [1 1 -3 0 0 0 0];

internalField   nonuniform List<scalar> 
530
(
33.9625195
29.743943
28.9220275
28.9172262
28.9165925
28.9165871
28.9165866
28.9165866
28.9165866
28.9165866
28.9165866
28.9165866
28.9165866
28.9165866
28.9165866
28.9165866
28.9165866
28.9165866
28.9165866
28.9165866
28.9165866
28.9165866
28.9165866
28.9165866
28.9165866
28.9165866
28.9165866
28.9165866
28.9165866
28.9165866
28.9165866
28.9165866
28.9165866
28.9165866
28.9165866
28.9165866
28.9165866
28.9165866
28.9165866
28.9165866
28.9165866
28.9165866
28.9165866
28.9165866
28.9165866
28.9165866
28.9165866
28.9165866
28.9165866
28.9165866
28.9165866
28.9165866
28.9165866
28.9165866
28.9165866
28.9165866
28.9165866
28.9165866
28.9165866
28.9165866
28.9165866
28.9165866
28.9165866
28.9165866
28.9165866
28.9165866
28.9165866
28.9165866
28.9165866
28.9165866
28.9165866
28.9165866
28.9165866
28.9165866
28.9165866
28.9165866
28.9165867
28.9165867
28.9165871
28.9165879
28.9165917
28.9166004
28.9166326
28.9166782
28.9168969
28.9172073
28.9181671
28.9185908
28.9214522
28.9249917
28.94506
28.9289358
28.8986457
28.9474124
29.3161111
29.195451
28.7963055
28.8297135
32.2315496
32.5392625
29.0127062
26.0756748
28.8784779
38.8060359
38.4040926
26.8784604
29.624781
38.7514849
37.9337102
23.972672
20.8406829
29.033403
38.1190395
38.3372688
25.2928764
29.625369
38.3675722
33.9025238
24.5216337
29.3795183
38.3798892
33.1296224
24.0491667
29.2261892
38.3806528
33.1827885
24.0386612
29.3662308
38.4142568
33.9811376
24.5042323
29.9654488
38.5155273
36.8120946
25.4643915
29.4096017
38.4941712
38.0909161
23.7639816
20.8713686
29.1752374
38.1074624
38.4961793
26.5953617
29.6486071
38.377822
38.0317487
24.1038779
20.9187582
29.1681644
37.9646784
38.7584923
25.1805193
29.6241466
38.269715
33.7267075
24.1542979
29.3911444
38.2937766
33.008764
23.810688
29.4371086
38.2818429
34.2078424
24.4627256
29.2523099
38.3093566
37.4451718
25.5546415
28.5099182
38.2565359
38.3353699
24.1070824
20.3597224
29.2596622
37.8708199
38.7823975
26.1814977
27.6018096
38.3059749
38.53339
26.4351401
28.0566807
38.3035711
38.3898144
24.7128763
21.0147244
29.1474703
37.8818542
38.8725732
27.176387
28.2345634
38.1436667
38.3656485
25.1882659
20.7718834
29.1874555
37.7305371
38.9719939
25.9781567
27.0707487
38.0653863
37.7437999
24.9038903
27.192787
38.1298614
37.5231516
24.9720843
26.9233412
38.1250009
38.2167923
25.8113262
26.9928452
38.0335099
38.2996166
25.5702067
20.3294824
29.1887728
37.624218
38.9650254
26.5134394
26.7476887
37.7551464
37.9231878
25.4228972
26.668765
37.8903091
38.3141165
26.0594608
26.5539539
37.8826118
38.3749357
26.488124
20.6718817
28.61205
37.7763606
39.0409482
27.4503129
26.5168291
37.7058911
38.821913
27.6295566
27.0068462
37.8254488
38.5224333
27.1952542
21.5508128
28.8328499
37.9714728
39.3784195
29.1361482
28.9678658
37.9714768
38.7793916
28.9514733
26.7139036
28.5532785
27.3036926
28.7834879
38.1722325
38.7723212
28.8639311
22.8613455
28.9741685
37.9872457
39.1690418
28.5606069
26.5299534
37.7101843
38.9701535
28.1465113
26.8771227
37.930999
38.855294
28.0644335
24.8762258
28.6199068
28.9274642
28.6296164
28.5888294
38.1864694
38.9617409
32.2535929
26.3116686
26.8352392
38.1098363
38.7846095
26.6309519
26.0401389
37.8136
38.4366617
28.9042617
22.1098923
29.0531529
37.8392531
38.7097489
29.0389136
22.4954111
27.8521069
37.8220119
39.0875179
29.4179312
27.7649444
37.658854
38.5782791
28.9156761
22.7308832
28.9409886
37.8929271
38.847405
28.8017792
23.7738842
28.8168843
37.9977517
38.873386
28.7039806
24.6307848
28.6174251
37.9376744
38.9699019
28.8827131
26.8119708
26.3537866
28.932376
38.0560293
38.7171821
28.6540006
24.2968429
28.9566287
37.8907727
38.7836029
28.7638726
22.4342801
26.376367
37.7033068
39.0356674
29.4575605
26.3438973
37.1391671
38.9348332
29.6938406
26.8236941
37.2381638
38.4348151
28.9061789
22.233252
27.3683012
37.6615983
38.6953815
28.8407626
23.3635356
27.0016225
37.6454395
38.9982207
29.3677711
27.6047276
37.263647
38.5242031
28.9327929
21.829988
25.4934096
37.5250068
38.9851166
29.4482382
27.3786216
37.2346803
38.4947438
28.9363485
23.1009538
27.9376591
37.6724371
38.5991516
28.9070972
23.8272066
27.9475064
37.7650995
38.4941074
28.917304
22.6328039
25.770251
37.6044601
38.771067
29.6389467
25.7678007
37.0509341
38.6458135
28.6318867
25.844391
37.2506719
38.1880086
29.0997239
21.189936
24.8817023
37.6196555
38.7752604
29.6053334
26.0062135
37.3512676
38.7001988
28.5306718
26.0433743
37.6583302
38.256981
29.0596169
21.5781372
25.5844922
37.8833569
38.8530971
29.4585015
26.7536668
38.1490669
38.3534083
29.1167213
21.8668641
26.3733458
38.0369469
38.7974639
28.65022
26.5386923
38.5549935
38.251207
29.1440276
21.2355924
26.5211857
38.188987
38.6743651
26.6662414
25.4329264
38.3421386
38.3153223
25.4183599
25.4980857
38.3716675
38.18793
25.601094
25.6995845
38.7687825
37.9654686
29.0299001
21.3405506
27.3820756
38.4467011
38.3811846
26.9696103
27.1181871
38.8829609
38.0720321
28.9217505
22.7310997
28.5711699
38.8104317
38.2770785
28.8948961
22.8913716
29.0070342
38.5202047
38.2706308
26.4808081
27.2388397
39.0028633
37.964545
28.9046848
22.0198695
29.0365849
38.3290322
38.0893597
25.795394
27.1161898
38.9616303
37.9827512
28.8489419
22.7680421
29.2460354
38.6425378
36.9329814
29.0808239
29.2086748
29.3038424
29.0968396
28.6299547
39.4026419
38.7656019
28.3932606
27.3067292
28.61508
28.7695928
28.9421325
28.9780654
38.8467393
37.8081031
26.3344574
27.9526357
39.1181474
37.8815049
28.5396098
23.6000494
28.6413608
38.8502595
38.5200736
29.0591952
24.9493811
23.9845947
29.4178108
38.4927079
37.5049525
25.7105202
29.2720144
38.5601633
38.3382766
30.40207
27.0771695
29.2662881
39.1033705
38.1442977
27.6922914
21.5412484
27.737018
38.9092882
38.1236844
28.7390314
21.8429496
29.255117
38.4035936
37.046287
24.4868003
27.8231052
38.6962925
38.3760568
29.9256208
25.9095862
)
;

boundaryField
{
    closed
    {
        type            calculated;
        value           uniform 247.232543;
    }
    open
    {
        type            calculated;
        value           nonuniform List<scalar> 0();
    }
    sides
    {
        type            empty;
    }
    procBoundary0to1
    {
        type            processor;
        value           uniform 28.9588422;
    }
}


// ************************************************************************* //
