/*--------------------------------*- C++ -*----------------------------------*\
| =========                 |                                                 |
| \\      /  F ield         | OpenFOAM: The Open Source CFD Toolbox           |
|  \\    /   O peration     | Version:  2306                                  |
|   \\  /    A nd           | Website:  www.openfoam.com                      |
|    \\/     M anipulation  |                                                 |
\*---------------------------------------------------------------------------*/
FoamFile
{
    version     2.0;
    format      ascii;
    arch        "LSB;label=32;scalar=64";
    class       volScalarField;
    location    "8e-05";
    object      p;
}
// * * * * * * * * * * * * * * * * * * * * * * * * * * * * * * * * * * * * * //

dimensions      [1 -1 -2 0 0 0 0];

internalField   nonuniform List<scalar> 
530
(
101624.003
101623.547
101623.087
101622.624
101622.157
101621.688
101621.215
101620.739
101620.261
101619.78
101619.296
101618.809
101618.321
101617.829
101617.336
101616.841
101616.343
101615.844
101615.343
101614.84
101614.336
101613.831
101613.324
101612.816
101612.307
101611.797
101611.287
101610.775
101610.263
101609.751
101609.239
101608.726
101608.213
101607.701
101607.188
101606.676
101606.164
101605.654
101605.143
101604.634
101604.125
101603.618
101603.112
101602.607
101602.104
101601.602
101601.103
101600.605
101600.109
101599.615
101599.123
101598.634
101598.147
101597.663
101597.181
101596.703
101596.227
101595.754
101595.285
101594.819
101594.356
101593.897
101593.442
101592.99
101592.543
101592.099
101591.659
101591.224
101590.793
101590.366
101589.944
101589.527
101589.114
101588.706
101588.303
101587.906
101587.513
101587.125
101586.743
101586.366
101585.995
101585.629
101585.269
101584.915
101584.566
101584.223
101583.887
101583.556
101583.231
101582.913
101582.601
101582.295
101581.995
101581.702
101581.416
101581.136
101580.863
101580.596
101580.336
101580.083
101579.836
101579.597
101579.364
101579.138
101578.919
101578.708
101578.503
101578.305
101578.114
101577.931
101577.754
101577.585
101577.423
101577.267
101577.12
101576.979
101576.845
101576.719
101576.6
101576.488
101576.383
101576.286
101576.195
101576.112
101576.036
101575.967
101575.905
101575.85
101575.802
101575.761
101575.728
101575.701
101575.681
101575.668
101575.662
101575.663
101575.67
101575.684
101575.705
101575.733
101575.767
101575.807
101575.854
101575.908
101575.967
101576.033
101576.106
101576.184
101576.268
101576.358
101576.455
101576.557
101576.664
101576.778
101576.897
101577.021
101577.151
101577.286
101577.427
101577.572
101577.723
101577.878
101578.038
101578.203
101578.373
101578.547
101578.726
101578.909
101579.096
101579.287
101579.482
101579.681
101579.883
101580.09
101580.3
101580.513
101580.729
101580.949
101581.171
101581.397
101581.625
101581.856
101582.09
101582.326
101582.564
101582.804
101583.047
101583.291
101583.537
101583.785
101584.034
101584.284
101584.536
101584.789
101585.043
101585.297
101585.553
101585.809
101586.065
101586.322
101586.579
101586.836
101587.093
101587.35
101587.606
101587.862
101588.118
101588.373
101588.626
101588.879
101589.131
101589.382
101589.631
101589.879
101590.125
101590.37
101590.613
101590.853
101591.092
101591.329
101591.563
101591.795
101592.025
101592.252
101592.476
101592.697
101592.915
101593.131
101593.343
101593.552
101593.758
101593.96
101594.159
101594.354
101594.546
101594.734
101594.918
101595.098
101595.274
101595.446
101595.614
101595.777
101595.937
101596.092
101596.242
101596.388
101596.53
101596.667
101596.8
101596.927
101597.05
101597.169
101597.282
101597.391
101597.495
101597.594
101597.688
101597.777
101597.861
101597.94
101598.014
101598.083
101598.147
101598.206
101598.26
101598.309
101598.353
101598.392
101598.426
101598.455
101598.48
101598.499
101598.513
101598.522
101598.527
101598.527
101598.521
101598.512
101598.497
101598.478
101598.454
101598.426
101598.393
101598.355
101598.314
101598.268
101598.217
101598.163
101598.104
101598.042
101597.975
101597.905
101597.83
101597.752
101597.67
101597.585
101597.497
101597.405
101597.309
101597.211
101597.109
101597.005
101596.897
101596.787
101596.674
101596.559
101596.441
101596.321
101596.199
101596.074
101595.948
101595.82
101595.689
101595.558
101595.425
101595.29
101595.154
101595.017
101594.879
101594.74
101594.6
101594.46
101594.319
101594.177
101594.036
101593.894
101593.752
101593.61
101593.468
101593.326
101593.185
101593.045
101592.905
101592.766
101592.628
101592.49
101592.354
101592.219
101592.086
101591.954
101591.823
101591.694
101591.567
101591.441
101591.318
101591.196
101591.077
101590.96
101590.845
101590.732
101590.622
101590.515
101590.41
101590.308
101590.209
101590.112
101590.018
101589.928
101589.84
101589.755
101589.674
101589.595
101589.52
101589.448
101589.38
101589.314
101589.252
101589.194
101589.138
101589.086
101589.038
101588.993
101588.951
101588.913
101588.878
101588.846
101588.818
101588.794
101588.772
101588.754
101588.739
101588.728
101588.72
101588.715
101588.712
101588.714
101588.718
101588.725
101588.735
101588.747
101588.763
101588.781
101588.802
101588.825
101588.851
101588.879
101588.909
101588.941
101588.976
101589.012
101589.05
101589.09
101589.131
101589.174
101589.218
101589.264
101589.31
101589.358
101589.406
101589.455
101589.504
101589.554
101589.604
101589.654
101589.704
101589.754
101589.804
101589.853
101589.901
101589.949
101589.995
101590.041
101590.085
101590.127
101590.168
101590.208
101590.245
101590.28
101590.313
101590.343
101590.371
101590.396
101590.418
101590.437
101590.452
101590.465
101590.473
101590.478
101590.479
101590.476
101590.469
101590.457
101590.441
101590.42
101590.395
101590.364
101590.329
101590.288
101590.242
101590.19
101590.133
101590.07
101590.002
101589.927
101589.846
101589.76
101589.667
101589.567
101589.461
101589.349
101589.23
101589.104
101588.972
101588.833
101588.687
101588.534
101588.374
101588.207
101588.033
101587.851
101587.663
101587.468
101587.265
101587.055
101586.838
101586.614
101586.383
101586.145
101585.899
101585.647
101585.387
101585.12
101584.847
101584.567
101584.279
101583.985
101583.685
101583.377
101583.064
101582.744
101582.417
101582.084
101581.746
101581.401
101581.051
101580.694
101580.333
101579.965
101579.593
101579.216
101578.833
101578.446
101578.054
101577.658
101577.258
101576.853
101576.445
101576.033
101575.618
101575.2
101574.778
101574.354
101573.928
101573.499
101573.068
101572.635
101572.2
101571.765
101571.328
101570.89
101570.452
101570.013
101569.574
101569.136
101568.698
101568.26
101567.824
101567.389
101566.955
101566.523
)
;

boundaryField
{
    closed
    {
        type            zeroGradient;
    }
    open
    {
        type            waveTransmissive;
        gamma           1.25;
        fieldInf        101325;
        lInf            1;
        value           nonuniform List<scalar> 0();
    }
    sides
    {
        type            empty;
    }
    procBoundary2to1
    {
        type            processor;
        value           uniform 101624.456;
    }
    procBoundary2to3
    {
        type            processor;
        value           uniform 101566.093;
    }
}


// ************************************************************************* //
