/*--------------------------------*- C++ -*----------------------------------*\
| =========                 |                                                 |
| \\      /  F ield         | OpenFOAM: The Open Source CFD Toolbox           |
|  \\    /   O peration     | Version:  2306                                  |
|   \\  /    A nd           | Website:  www.openfoam.com                      |
|    \\/     M anipulation  |                                                 |
\*---------------------------------------------------------------------------*/
FoamFile
{
    version     2.0;
    format      ascii;
    arch        "LSB;label=32;scalar=64";
    class       volScalarField;
    location    "0.00024";
    object      alpha;
}
// * * * * * * * * * * * * * * * * * * * * * * * * * * * * * * * * * * * * * //

dimensions      [1 -1 -1 0 0 0 0];

internalField   nonuniform List<scalar> 
3816
(
3.60072973e-05
3.58638054e-05
3.58340793e-05
3.58339e-05
3.58338871e-05
3.5833887e-05
3.5833887e-05
3.5833887e-05
3.5833887e-05
3.5833887e-05
3.5833887e-05
3.5833887e-05
3.5833887e-05
3.5833887e-05
3.5833887e-05
3.5833887e-05
3.5833887e-05
3.5833887e-05
3.5833887e-05
3.5833887e-05
3.5833887e-05
3.5833887e-05
3.5833887e-05
3.5833887e-05
3.5833887e-05
3.5833887e-05
3.5833887e-05
3.5833887e-05
3.5833887e-05
3.5833887e-05
3.5833887e-05
3.5833887e-05
3.5833887e-05
3.5833887e-05
3.5833887e-05
3.5833887e-05
3.5833887e-05
3.5833887e-05
3.5833887e-05
3.5833887e-05
3.5833887e-05
3.5833887e-05
3.5833887e-05
3.5833887e-05
3.5833887e-05
3.5833887e-05
3.5833887e-05
3.5833887e-05
3.5833887e-05
3.5833887e-05
3.5833887e-05
3.5833887e-05
3.5833887e-05
3.5833887e-05
3.5833887e-05
3.5833887e-05
3.5833887e-05
3.5833887e-05
3.5833887e-05
3.5833887e-05
3.5833887e-05
3.5833887e-05
3.5833887e-05
3.5833887e-05
3.5833887e-05
3.5833887e-05
3.5833887e-05
3.5833887e-05
3.5833887e-05
3.5833887e-05
3.5833887e-05
3.5833887e-05
3.58338871e-05
3.58338874e-05
3.58338882e-05
3.58338902e-05
3.58338948e-05
3.5833905e-05
3.58339259e-05
3.58339661e-05
3.58340385e-05
3.58341614e-05
3.58343573e-05
3.58346566e-05
3.58350759e-05
3.58356685e-05
3.58365745e-05
3.58372726e-05
3.58370692e-05
3.58380091e-05
3.58504484e-05
3.58546513e-05
3.5813209e-05
3.57914143e-05
3.58875599e-05
3.59580611e-05
3.57503166e-05
3.56194122e-05
3.56069287e-05
3.55705015e-05
3.58406743e-05
3.68530762e-05
3.67830182e-05
3.68366521e-05
3.67705669e-05
3.5252183e-05
3.52920128e-05
3.63505723e-05
3.67359847e-05
3.67752169e-05
3.67903041e-05
3.49816137e-05
3.49370108e-05
3.53377528e-05
3.53180502e-05
3.60385045e-05
3.67709005e-05
3.67880902e-05
3.68205076e-05
3.5286394e-05
3.52290702e-05
3.67991197e-05
3.67984217e-05
3.51816766e-05
3.5327612e-05
3.68143694e-05
3.67665097e-05
3.5080685e-05
3.49522754e-05
3.54911245e-05
3.67911337e-05
3.67984191e-05
3.67843533e-05
3.68026503e-05
3.67785136e-05
3.68036061e-05
3.67650575e-05
3.4676391e-05
3.45968032e-05
3.50404499e-05
3.48065536e-05
3.54989213e-05
3.68007377e-05
3.67933304e-05
3.67798825e-05
3.67856948e-05
3.67531184e-05
3.49488744e-05
3.49475143e-05
3.51866237e-05
3.53000619e-05
3.53056621e-05
3.57206493e-05
3.68010334e-05
3.68046539e-05
3.67789672e-05
3.67982972e-05
3.67608999e-05
3.50361776e-05
3.49515354e-05
3.56524688e-05
3.67965872e-05
3.67659522e-05
3.51150312e-05
3.56291052e-05
3.6810098e-05
3.67697554e-05
3.68066518e-05
3.67577663e-05
3.49902521e-05
3.49835524e-05
3.52447181e-05
3.54065157e-05
3.537495e-05
3.57566941e-05
3.67898153e-05
3.67967686e-05
3.67830152e-05
3.53498218e-05
3.57510952e-05
3.67852002e-05
3.55555758e-05
3.57650149e-05
3.68111008e-05
3.67684247e-05
3.68054599e-05
3.67759949e-05
3.5102102e-05
3.50943498e-05
3.53014916e-05
3.57572825e-05
3.68172709e-05
3.67967065e-05
3.52771808e-05
3.56555125e-05
3.68243116e-05
3.67923659e-05
3.50645268e-05
3.50529699e-05
3.5728305e-05
3.67955434e-05
3.67993846e-05
3.67992673e-05
3.68124342e-05
3.48209473e-05
3.48157134e-05
3.51938064e-05
3.52413513e-05
3.52159815e-05
3.5620363e-05
3.6485294e-05
3.68044905e-05
3.67741356e-05
3.55064384e-05
3.55908666e-05
3.68116869e-05
3.68047448e-05
3.54334273e-05
3.57716339e-05
3.68199572e-05
3.6795843e-05
3.6814635e-05
3.68363482e-05
3.51391318e-05
3.55776904e-05
3.68113267e-05
3.68117616e-05
3.67999785e-05
3.68200652e-05
3.68067795e-05
3.68164557e-05
3.68274243e-05
3.43472496e-05
3.42834355e-05
3.49301715e-05
3.49498074e-05
3.5226445e-05
3.53705908e-05
3.53931034e-05
3.57177021e-05
3.68090642e-05
3.68501465e-05
3.54200916e-05
3.54224775e-05
3.55901096e-05
3.57434919e-05
3.68095083e-05
3.68452057e-05
3.55610674e-05
3.56191152e-05
3.68199303e-05
3.68391513e-05
3.54764133e-05
3.55187379e-05
3.68257383e-05
3.68379054e-05
3.53836223e-05
3.54589816e-05
3.68288705e-05
3.68339257e-05
3.52652268e-05
3.55144633e-05
3.68353167e-05
3.68182144e-05
3.6831095e-05
3.68333257e-05
3.48832041e-05
3.4827093e-05
3.52138173e-05
3.52236092e-05
3.54970336e-05
3.5417008e-05
3.57201929e-05
3.6796488e-05
3.68583443e-05
3.54623366e-05
3.56603398e-05
3.68067262e-05
3.68202018e-05
3.6819478e-05
3.68247504e-05
3.6825831e-05
3.5036484e-05
3.47888684e-05
3.54198168e-05
3.68096254e-05
3.68461257e-05
3.50633572e-05
3.52707763e-05
3.68135241e-05
3.68463387e-05
3.51374788e-05
3.52212997e-05
3.68179362e-05
3.68386208e-05
3.51622938e-05
3.52103577e-05
3.68175123e-05
3.68335997e-05
3.51761629e-05
3.52165511e-05
3.68145688e-05
3.68305333e-05
3.51872845e-05
3.52224794e-05
3.53026063e-05
3.56113407e-05
3.68136552e-05
3.68194793e-05
3.52140784e-05
3.57242823e-05
3.68451224e-05
3.68043518e-05
3.68476533e-05
3.53437517e-05
3.52364159e-05
3.6813193e-05
3.68186632e-05
3.51070257e-05
3.54595475e-05
3.68403307e-05
3.68039054e-05
3.68337503e-05
3.51525062e-05
3.51472506e-05
3.68173924e-05
3.68184857e-05
3.68131208e-05
3.49423439e-05
3.4849078e-05
3.52535842e-05
3.50941443e-05
3.55350289e-05
3.68093214e-05
3.68150508e-05
3.53003264e-05
3.54212909e-05
3.53960754e-05
3.57095184e-05
3.68155852e-05
3.68040055e-05
3.53205508e-05
3.57319296e-05
3.68276293e-05
3.68103228e-05
3.68147982e-05
3.53888448e-05
3.54222925e-05
3.68173515e-05
3.68222277e-05
3.68014904e-05
3.51336949e-05
3.49219087e-05
3.55251909e-05
3.68258996e-05
3.68221966e-05
3.68187334e-05
3.68242533e-05
3.68041593e-05
3.68248002e-05
3.67879799e-05
3.45406909e-05
3.45086487e-05
3.49757025e-05
3.49255636e-05
3.53507359e-05
3.51316952e-05
3.57342885e-05
3.6809653e-05
3.68094964e-05
3.67804743e-05
3.53918311e-05
3.54372536e-05
3.68152407e-05
3.67790092e-05
3.53247529e-05
3.54656337e-05
3.68195128e-05
3.67764398e-05
3.52914926e-05
3.54633272e-05
3.68201093e-05
3.67765829e-05
3.52723194e-05
3.54543326e-05
3.68202134e-05
3.67769656e-05
3.52576671e-05
3.54429012e-05
3.68209122e-05
3.6783731e-05
3.52462037e-05
3.52451531e-05
3.53695884e-05
3.57529531e-05
3.68230711e-05
3.67902045e-05
3.52895829e-05
3.52874297e-05
3.57176504e-05
3.68007351e-05
3.68122382e-05
3.68168559e-05
3.53450095e-05
3.57091651e-05
3.681185e-05
3.68057906e-05
3.68223202e-05
3.51897797e-05
3.51886304e-05
3.52932363e-05
3.57343703e-05
3.68152372e-05
3.68091841e-05
3.6836068e-05
3.5347746e-05
3.55005991e-05
3.68096343e-05
3.68140456e-05
3.68054558e-05
3.68159876e-05
3.68168846e-05
3.46530055e-05
3.46331574e-05
3.5079473e-05
3.50727172e-05
3.54221617e-05
3.52640988e-05
3.57739847e-05
3.67984487e-05
3.68073644e-05
3.68254605e-05
3.54511545e-05
3.54491417e-05
3.68143114e-05
3.68113851e-05
3.52057608e-05
3.51914289e-05
3.5611786e-05
3.68032268e-05
3.68251782e-05
3.5623001e-05
3.68111926e-05
3.6823322e-05
3.5035687e-05
3.5026668e-05
3.56322881e-05
3.68093147e-05
3.68174681e-05
3.51006516e-05
3.50782585e-05
3.56514933e-05
3.68143492e-05
3.68174702e-05
3.51359311e-05
3.51136014e-05
3.56791919e-05
3.67964644e-05
3.68080367e-05
3.68129436e-05
3.68076952e-05
3.68291934e-05
3.4905128e-05
3.49048948e-05
3.50606171e-05
3.56010714e-05
3.68132351e-05
3.68058661e-05
3.68119294e-05
3.68159063e-05
3.47858935e-05
3.47619061e-05
3.5256846e-05
3.50731104e-05
3.57236356e-05
3.68016112e-05
3.6822034e-05
3.67982365e-05
3.68332524e-05
3.50847663e-05
3.51702344e-05
3.6797918e-05
3.68188302e-05
3.50808376e-05
3.52781859e-05
3.6798107e-05
3.68138596e-05
3.49344032e-05
3.55279799e-05
3.68202507e-05
3.67960347e-05
3.68223658e-05
3.50969668e-05
3.5155319e-05
3.68049974e-05
3.6802844e-05
3.6803062e-05
3.48099437e-05
3.47985823e-05
3.52628882e-05
3.51027669e-05
3.56876914e-05
3.68062591e-05
3.68155013e-05
3.68011731e-05
3.68196537e-05
3.51114892e-05
3.53267007e-05
3.67979329e-05
3.6808413e-05
3.4984694e-05
3.56340654e-05
3.68071771e-05
3.53507533e-05
3.50595071e-05
3.5722157e-05
3.68064326e-05
3.68056319e-05
3.53383955e-05
3.54454754e-05
3.54689783e-05
3.57486203e-05
3.68129844e-05
3.6794719e-05
3.53984244e-05
3.53983863e-05
3.57372512e-05
3.68065477e-05
3.6809973e-05
3.68081283e-05
3.68079623e-05
3.51977383e-05
3.54844698e-05
3.6822232e-05
3.67986542e-05
3.6822535e-05
3.67900244e-05
3.48151326e-05
3.48026806e-05
3.5240536e-05
3.50968011e-05
3.5707265e-05
3.68023989e-05
3.68155248e-05
3.52045166e-05
3.56693047e-05
3.6817394e-05
3.68174347e-05
3.68092134e-05
3.68141267e-05
3.68091494e-05
3.48354303e-05
3.48345274e-05
3.51714106e-05
3.53392869e-05
3.53117806e-05
3.57393996e-05
3.68100308e-05
3.68084008e-05
3.6811298e-05
3.53292187e-05
3.50724176e-05
3.57544094e-05
3.68097012e-05
3.67997222e-05
3.6817491e-05
3.53666781e-05
3.55271643e-05
3.68056085e-05
3.68065318e-05
3.67991862e-05
3.68086386e-05
3.6799399e-05
3.46701517e-05
3.46591635e-05
3.51793712e-05
3.49657072e-05
3.56967668e-05
3.68073657e-05
3.680472e-05
3.68159769e-05
3.52707795e-05
3.5372822e-05
3.6818776e-05
3.67910582e-05
3.68178724e-05
3.67937293e-05
3.68157479e-05
3.67989752e-05
3.44179907e-05
3.44009597e-05
3.49170245e-05
3.492936e-05
3.53342803e-05
3.51901652e-05
3.57353355e-05
3.68022362e-05
3.68093476e-05
3.67996863e-05
3.68189114e-05
3.51926498e-05
3.52654848e-05
3.68035804e-05
3.68093776e-05
3.52133553e-05
3.53263974e-05
3.68072423e-05
3.68037898e-05
3.51961939e-05
3.5406638e-05
3.68141618e-05
3.67945478e-05
3.50744414e-05
3.50580691e-05
3.55632682e-05
3.68046143e-05
3.67981402e-05
3.6816987e-05
3.5177212e-05
3.55567982e-05
3.68252868e-05
3.67947243e-05
3.68322522e-05
3.50342069e-05
3.53971942e-05
3.68118112e-05
3.51866549e-05
3.49482834e-05
3.55871872e-05
3.68099668e-05
3.68263528e-05
3.51146056e-05
3.55202418e-05
3.68180819e-05
3.68201261e-05
3.681447e-05
3.68271975e-05
3.48783495e-05
3.48735904e-05
3.51657092e-05
3.53564429e-05
3.52666541e-05
3.57466427e-05
3.68179482e-05
3.68132749e-05
3.68252906e-05
3.52604163e-05
3.56650987e-05
3.68440706e-05
3.54760908e-05
3.55793263e-05
3.68247183e-05
3.6821777e-05
3.68268354e-05
3.51254422e-05
3.5122568e-05
3.54546866e-05
3.5344787e-05
3.57389754e-05
3.68176948e-05
3.68230867e-05
3.68228165e-05
3.68215116e-05
3.68292336e-05
3.52065615e-05
3.52060026e-05
3.52184783e-05
3.57359608e-05
3.68259402e-05
3.68142776e-05
3.68286855e-05
3.53421175e-05
3.55257328e-05
3.68277219e-05
3.68193657e-05
3.68265205e-05
3.68196771e-05
3.6826937e-05
3.47938972e-05
3.47815874e-05
3.51330844e-05
3.52767042e-05
3.52982303e-05
3.57017088e-05
3.68169335e-05
3.68292938e-05
3.53376854e-05
3.56071442e-05
3.68238398e-05
3.68269021e-05
3.52861596e-05
3.56011695e-05
3.68303849e-05
3.68214865e-05
3.51090325e-05
3.57179231e-05
3.6835128e-05
3.54618199e-05
3.54390391e-05
3.68305725e-05
3.68232813e-05
3.53769876e-05
3.54493729e-05
3.68341184e-05
3.68174348e-05
3.53339269e-05
3.54396287e-05
3.68362703e-05
3.68132663e-05
3.53065482e-05
3.54301511e-05
3.68370743e-05
3.68101305e-05
3.52899808e-05
3.54233461e-05
3.68369492e-05
3.68074624e-05
3.52788511e-05
3.54195827e-05
3.68364555e-05
3.68048437e-05
3.52676531e-05
3.54197142e-05
3.6836243e-05
3.68016425e-05
3.52478032e-05
3.54311513e-05
3.68378376e-05
3.67971768e-05
3.51960453e-05
3.54786864e-05
3.68446119e-05
3.67917845e-05
3.5030692e-05
3.5018756e-05
3.55970231e-05
3.68011104e-05
3.68310519e-05
3.50035802e-05
3.57071241e-05
3.6815503e-05
3.54180833e-05
3.54211646e-05
3.68370308e-05
3.68058216e-05
3.51588981e-05
3.51552954e-05
3.54583918e-05
3.53755506e-05
3.57262427e-05
3.68160579e-05
3.68262748e-05
3.54738346e-05
3.54751491e-05
3.55979985e-05
3.57454919e-05
3.68231723e-05
3.68180181e-05
3.55897987e-05
3.56246842e-05
3.68371748e-05
3.68113301e-05
3.56878249e-05
3.68108782e-05
3.68295249e-05
3.68181062e-05
3.6822722e-05
3.68210235e-05
3.6817412e-05
3.68187832e-05
3.68202965e-05
3.43027237e-05
3.43014259e-05
3.48766388e-05
3.49223494e-05
3.51916325e-05
3.53471449e-05
3.53425833e-05
3.58507386e-05
3.6807557e-05
3.68078359e-05
3.68216051e-05
3.54566221e-05
3.54651039e-05
3.68160746e-05
3.68160851e-05
3.51778217e-05
3.57378195e-05
3.68402902e-05
3.53884537e-05
3.53527999e-05
3.55346209e-05
3.57303721e-05
3.68134936e-05
3.68140299e-05
3.68232018e-05
3.53538914e-05
3.52540808e-05
3.5743009e-05
3.68189707e-05
3.68102778e-05
3.6836636e-05
3.52825376e-05
3.57235246e-05
3.68389824e-05
3.55771163e-05
3.56166119e-05
3.68278546e-05
3.68060549e-05
3.68281835e-05
3.68152421e-05
3.68274321e-05
3.68216799e-05
3.47093636e-05
3.46713518e-05
3.52103799e-05
3.49864017e-05
3.57195791e-05
3.68242507e-05
3.68123314e-05
3.68425431e-05
3.5190158e-05
3.54932483e-05
3.6830333e-05
3.52776072e-05
3.50776351e-05
3.56523031e-05
3.68168842e-05
3.68403067e-05
3.53108031e-05
3.53686878e-05
3.54467587e-05
3.57170965e-05
3.68114065e-05
3.68384134e-05
3.54051553e-05
3.56350921e-05
3.68279159e-05
3.68330315e-05
3.51778437e-05
3.57536632e-05
3.68413376e-05
3.55292186e-05
3.55041559e-05
3.68219286e-05
3.68162616e-05
3.52049879e-05
3.51511953e-05
3.56327514e-05
3.68223336e-05
3.68202239e-05
3.51794254e-05
3.51777766e-05
3.55766567e-05
3.68140494e-05
3.68202257e-05
3.68157252e-05
3.68238769e-05
3.68161895e-05
3.48015531e-05
3.47774985e-05
3.52269381e-05
3.50989678e-05
3.56209928e-05
3.68126181e-05
3.68218221e-05
3.68111966e-05
3.68241166e-05
3.48982292e-05
3.55660403e-05
3.68229102e-05
3.53057157e-05
3.52874668e-05
3.68140448e-05
3.68095144e-05
3.51779021e-05
3.54535039e-05
3.68245166e-05
3.6798109e-05
3.68224597e-05
3.67945263e-05
3.48143476e-05
3.48026459e-05
3.52510207e-05
3.51254147e-05
3.57118494e-05
3.68089468e-05
3.68083068e-05
3.68089312e-05
3.68057985e-05
3.51582338e-05
3.5403763e-05
3.68183664e-05
3.67920355e-05
3.50564011e-05
3.50489522e-05
3.56373465e-05
3.68097236e-05
3.67999692e-05
3.51742454e-05
3.51711131e-05
3.57185891e-05
3.6817582e-05
3.67986504e-05
3.52315111e-05
3.52298156e-05
3.57178198e-05
3.68108117e-05
3.68056117e-05
3.68109985e-05
3.68025479e-05
3.51976986e-05
3.52149075e-05
3.52415833e-05
3.576245e-05
3.6810195e-05
3.68035579e-05
3.68085451e-05
3.52457956e-05
3.52447387e-05
3.54047974e-05
3.57236898e-05
3.68113892e-05
3.6815754e-05
3.67949766e-05
3.68153868e-05
3.67896548e-05
3.49700302e-05
3.49630446e-05
3.53408229e-05
3.52557414e-05
3.5716982e-05
3.68152956e-05
3.68182986e-05
3.68064458e-05
3.68166307e-05
3.67936163e-05
3.68119148e-05
3.67936101e-05
3.4593069e-05
3.45869089e-05
3.50678791e-05
3.5106553e-05
3.53464782e-05
3.54742301e-05
3.54871507e-05
3.57535633e-05
3.67971861e-05
3.68085355e-05
3.5480176e-05
3.5732413e-05
3.68051765e-05
3.68050483e-05
3.5384774e-05
3.56799824e-05
3.68093606e-05
3.6806894e-05
3.51762298e-05
3.57416789e-05
3.68120172e-05
3.68032052e-05
3.68183565e-05
3.51372026e-05
3.51351749e-05
3.52283043e-05
3.57327816e-05
3.68145011e-05
3.68091481e-05
3.68222561e-05
3.53538894e-05
3.54733684e-05
3.68206838e-05
3.6799517e-05
3.68169301e-05
3.68018538e-05
3.68103903e-05
3.68096927e-05
3.45229516e-05
3.4519315e-05
3.49894718e-05
3.51641232e-05
3.51737249e-05
3.57117225e-05
3.6801405e-05
3.68265285e-05
3.51489331e-05
3.57232241e-05
3.68122048e-05
3.68094929e-05
3.68165959e-05
3.50221582e-05
3.49967974e-05
3.54134556e-05
3.52492218e-05
3.57727073e-05
3.68109218e-05
3.68086321e-05
3.68129011e-05
3.68111105e-05
3.49960158e-05
3.49625968e-05
3.55692088e-05
3.68098298e-05
3.68320227e-05
3.5031515e-05
3.56991621e-05
3.68244865e-05
3.68101975e-05
3.68331512e-05
3.5095768e-05
3.50835642e-05
3.52560305e-05
3.56846023e-05
3.68137876e-05
3.68110257e-05
3.68248968e-05
3.6812283e-05
3.68312267e-05
3.49047666e-05
3.48981322e-05
3.52556957e-05
3.54082428e-05
3.54465622e-05
3.5742738e-05
3.68034826e-05
3.68113765e-05
3.68147689e-05
3.68118407e-05
3.68223401e-05
3.52750251e-05
3.54015145e-05
3.6822194e-05
3.67955497e-05
3.68202942e-05
3.68046526e-05
3.6817722e-05
3.68061978e-05
3.45448158e-05
3.45312893e-05
3.50187794e-05
3.50461945e-05
3.54016535e-05
3.53149537e-05
3.57286395e-05
3.67942026e-05
3.68120326e-05
3.68053094e-05
3.68113598e-05
3.68150844e-05
3.51866522e-05
3.52881095e-05
3.68195727e-05
3.67962041e-05
3.68175577e-05
3.67993205e-05
3.46258226e-05
3.45178627e-05
3.53569388e-05
3.68113911e-05
3.680476e-05
3.48097478e-05
3.48041982e-05
3.54312944e-05
3.68076517e-05
3.68164391e-05
3.50721412e-05
3.5221854e-05
3.51534717e-05
3.57506071e-05
3.68106081e-05
3.68016579e-05
3.6816254e-05
3.52700199e-05
3.55342276e-05
3.68197092e-05
3.68014518e-05
3.68210854e-05
3.49897312e-05
3.55133177e-05
3.68209565e-05
3.52945076e-05
3.52819548e-05
3.68127623e-05
3.68091165e-05
3.52385513e-05
3.53281363e-05
3.68177572e-05
3.68014812e-05
3.51886436e-05
3.53719203e-05
3.682357e-05
3.6794858e-05
3.5084468e-05
3.50798235e-05
3.54357898e-05
3.53109055e-05
3.57481448e-05
3.68058504e-05
3.68058533e-05
3.53296124e-05
3.53294e-05
3.5732367e-05
3.68037903e-05
3.68116512e-05
3.52677358e-05
3.5760315e-05
3.68116297e-05
3.68029957e-05
3.68158632e-05
3.53366199e-05
3.55619116e-05
3.68119486e-05
3.68081043e-05
3.68061328e-05
3.68066258e-05
3.68087487e-05
3.47394101e-05
3.47399635e-05
3.51073432e-05
3.53044894e-05
3.52393283e-05
3.57521686e-05
3.68072838e-05
3.68002347e-05
3.68113086e-05
3.52629114e-05
3.57124244e-05
3.68165182e-05
3.54922734e-05
3.54854447e-05
3.68109859e-05
3.68015534e-05
3.53452191e-05
3.55562135e-05
3.6824628e-05
3.67898077e-05
3.51245138e-05
3.51176131e-05
3.5668872e-05
3.68012859e-05
3.68197345e-05
3.51670442e-05
3.56357901e-05
3.68185748e-05
3.6805802e-05
3.68180926e-05
3.68058023e-05
3.48634494e-05
3.48552148e-05
3.53034157e-05
3.51106422e-05
3.57338302e-05
3.68156875e-05
3.68066268e-05
3.68211243e-05
3.52647555e-05
3.52610374e-05
3.54119777e-05
3.57238408e-05
3.68133844e-05
3.68156665e-05
3.68100348e-05
3.68185043e-05
3.68072702e-05
3.68182633e-05
3.68052295e-05
3.68140145e-05
3.68070076e-05
3.44045395e-05
3.44035031e-05
3.48952643e-05
3.50952033e-05
3.51140697e-05
3.56610546e-05
3.68133162e-05
3.68036177e-05
3.51678256e-05
3.51643561e-05
3.57027292e-05
3.68123547e-05
3.68073346e-05
3.51828747e-05
3.51792899e-05
3.57267932e-05
3.68159646e-05
3.68066051e-05
3.68213623e-05
3.52692553e-05
3.55970026e-05
3.68254628e-05
3.53287385e-05
3.53206021e-05
3.55328357e-05
3.56685023e-05
3.68206684e-05
3.68116463e-05
3.56952301e-05
3.68091139e-05
3.68222128e-05
3.68092868e-05
3.68252999e-05
3.50430464e-05
3.53237276e-05
3.68171338e-05
3.68146033e-05
3.68123292e-05
3.68200589e-05
3.47630835e-05
3.47591513e-05
3.50139343e-05
3.53839624e-05
3.68058415e-05
3.68167721e-05
3.51404952e-05
3.52366957e-05
3.51594639e-05
3.57602949e-05
3.68037246e-05
3.6795599e-05
3.68070556e-05
3.52301874e-05
3.52187339e-05
3.6796674e-05
3.67993143e-05
3.49626085e-05
3.49611052e-05
3.50265181e-05
3.55410714e-05
3.68011159e-05
3.68010993e-05
3.67942773e-05
3.68052964e-05
3.5132359e-05
3.54060539e-05
3.67949519e-05
3.67977934e-05
3.5055447e-05
3.57493915e-05
3.68197798e-05
3.54840837e-05
3.56449909e-05
3.6811536e-05
3.68050468e-05
3.68175951e-05
3.53253788e-05
3.53572848e-05
3.68193879e-05
3.68086111e-05
3.68146369e-05
3.68166057e-05
3.49787438e-05
3.4977369e-05
3.50137019e-05
3.57217881e-05
3.68216556e-05
3.68111915e-05
3.68224442e-05
3.50993139e-05
3.54807949e-05
3.68307263e-05
3.52565e-05
3.52361118e-05
3.53614295e-05
3.57214266e-05
3.68187791e-05
3.68172776e-05
3.6815989e-05
3.68222627e-05
3.5178703e-05
3.51787133e-05
3.52106527e-05
3.57590503e-05
3.68185747e-05
3.6808845e-05
3.68226514e-05
3.5241937e-05
3.55993799e-05
3.68241856e-05
3.5316118e-05
3.50848733e-05
3.57926898e-05
3.6814282e-05
3.6804399e-05
3.68198331e-05
3.52686835e-05
3.56441981e-05
3.6819206e-05
3.53445297e-05
3.51202814e-05
3.57745011e-05
3.68097919e-05
3.68016537e-05
3.68120529e-05
3.6800797e-05
3.49129238e-05
3.49034715e-05
3.55837517e-05
3.68100615e-05
3.68135465e-05
3.50895924e-05
3.54617956e-05
3.68180401e-05
3.68066479e-05
3.51196328e-05
3.54627258e-05
3.68270446e-05
3.67983562e-05
3.49939114e-05
3.49854545e-05
3.55913685e-05
3.68072421e-05
3.68216044e-05
3.52180033e-05
3.529006e-05
3.53590517e-05
3.573485e-05
3.68116807e-05
3.68133258e-05
3.68105692e-05
3.68108592e-05
3.6817539e-05
3.49685588e-05
3.49673842e-05
3.51967008e-05
3.5599648e-05
3.68139331e-05
3.68158481e-05
3.52327729e-05
3.54764208e-05
3.68189774e-05
3.68096264e-05
3.52329703e-05
3.54419484e-05
3.68228493e-05
3.68044948e-05
3.52014121e-05
3.54838758e-05
3.68297474e-05
3.67951591e-05
3.5057892e-05
3.50484173e-05
3.56673874e-05
3.68024985e-05
3.68202413e-05
3.68005129e-05
3.68252138e-05
3.49185532e-05
3.55350054e-05
3.68134873e-05
3.680436e-05
3.68217155e-05
3.5004664e-05
3.4999839e-05
3.50830247e-05
3.57385649e-05
3.68141118e-05
3.68019898e-05
3.68258113e-05
3.52421039e-05
3.54585771e-05
3.68096982e-05
3.6808344e-05
3.68108702e-05
3.68070103e-05
3.6816579e-05
3.45865576e-05
3.45819265e-05
3.50277473e-05
3.52216904e-05
3.51840056e-05
3.57336157e-05
3.68136721e-05
3.68067393e-05
3.68230447e-05
3.52166969e-05
3.56151348e-05
3.68334206e-05
3.53283634e-05
3.52993536e-05
3.54831402e-05
3.57207412e-05
3.68147176e-05
3.68230783e-05
3.5475932e-05
3.54781607e-05
3.56233183e-05
3.57668038e-05
3.68148781e-05
3.68195272e-05
3.55652206e-05
3.57369918e-05
3.68300857e-05
3.68066547e-05
3.53706214e-05
3.53722117e-05
3.57303808e-05
3.68009985e-05
3.68332986e-05
3.54363696e-05
3.57130841e-05
3.6813746e-05
3.68230612e-05
3.53420395e-05
3.57299443e-05
3.68243645e-05
3.68111417e-05
3.68235977e-05
3.68114991e-05
3.68219578e-05
3.68092401e-05
3.47144198e-05
3.47045927e-05
3.52195659e-05
3.5051482e-05
3.57258115e-05
3.68196404e-05
3.68056606e-05
3.52018786e-05
3.51982861e-05
3.5712225e-05
3.68075429e-05
3.68222521e-05
3.52953145e-05
3.56023987e-05
3.68117044e-05
3.68170184e-05
3.52968008e-05
3.55713519e-05
3.68130121e-05
3.68130902e-05
3.52022586e-05
3.56553026e-05
3.68207494e-05
3.68075943e-05
3.68166284e-05
3.68076072e-05
3.68107481e-05
3.681003e-05
3.45341712e-05
3.45320868e-05
3.50058279e-05
3.51649678e-05
3.52037703e-05
3.56899947e-05
3.68033693e-05
3.68094321e-05
3.52488791e-05
3.55317966e-05
3.68089377e-05
3.68048815e-05
3.52264771e-05
3.54522524e-05
3.68130323e-05
3.67992169e-05
3.51498127e-05
3.54600422e-05
3.68202972e-05
3.6791137e-05
3.49485789e-05
3.493763e-05
3.55909312e-05
3.68085107e-05
3.68029929e-05
3.68102517e-05
3.68009672e-05
3.47645701e-05
3.47548657e-05
3.52433242e-05
3.50878959e-05
3.5730419e-05
3.68062142e-05
3.68038094e-05
3.68034087e-05
3.68085886e-05
3.5111547e-05
3.52455377e-05
3.68042166e-05
3.68024396e-05
3.51360018e-05
3.53267359e-05
3.68034344e-05
3.67986686e-05
3.50902757e-05
3.54535938e-05
3.68087424e-05
3.67934361e-05
3.68025229e-05
3.68014222e-05
3.47474443e-05
3.47473878e-05
3.5153085e-05
3.53122926e-05
3.53247015e-05
3.57422935e-05
3.67938933e-05
3.68045435e-05
3.52906574e-05
3.57300493e-05
3.68071655e-05
3.6788399e-05
3.68034655e-05
3.67821757e-05
3.48466888e-05
3.48299586e-05
3.52078147e-05
3.49197273e-05
3.55905519e-05
3.67897112e-05
3.67933859e-05
3.67781914e-05
3.67848396e-05
3.67733938e-05
3.51224076e-05
3.55082772e-05
3.67985057e-05
3.67804682e-05
3.67994453e-05
3.67891061e-05
3.68048228e-05
3.47880002e-05
3.4781904e-05
3.50599878e-05
3.55344108e-05
3.68004841e-05
3.68028454e-05
3.68032588e-05
3.68025448e-05
3.6807489e-05
3.47923097e-05
3.47910821e-05
3.50622295e-05
3.55226507e-05
3.68118625e-05
3.67968951e-05
3.509885e-05
3.50939602e-05
3.55879058e-05
3.68028849e-05
3.68071902e-05
3.68056632e-05
3.68051481e-05
3.68114353e-05
3.4834536e-05
3.48347752e-05
3.52428819e-05
3.53765474e-05
3.54691463e-05
3.57381204e-05
3.6800914e-05
3.68081572e-05
3.68018918e-05
3.68108762e-05
3.6803011e-05
3.49531954e-05
3.49218305e-05
3.55286128e-05
3.68040295e-05
3.68089735e-05
3.6806158e-05
3.6806146e-05
3.68133312e-05
3.48397909e-05
3.48404892e-05
3.50363455e-05
3.56315539e-05
3.68133009e-05
3.68022002e-05
3.68110081e-05
3.68071294e-05
3.47931473e-05
3.47888132e-05
3.52339844e-05
3.52115044e-05
3.56314637e-05
3.68113619e-05
3.68091982e-05
3.56672918e-05
3.68087873e-05
3.6807485e-05
3.4998163e-05
3.49930837e-05
3.56657105e-05
3.68045558e-05
3.68193472e-05
3.50693719e-05
3.56431651e-05
3.68121857e-05
3.6811305e-05
3.68151608e-05
3.49525452e-05
3.49466094e-05
3.53768758e-05
3.5249996e-05
3.57789495e-05
3.68018252e-05
3.68135067e-05
3.6801355e-05
3.68204102e-05
3.51391511e-05
3.54767313e-05
3.68065965e-05
3.68106847e-05
3.68044482e-05
3.68117409e-05
3.68048763e-05
3.45524152e-05
3.44112733e-05
3.54178759e-05
3.68165449e-05
3.6804066e-05
3.49075425e-05
3.49016978e-05
3.53483955e-05
3.52269513e-05
3.57382913e-05
3.68003083e-05
3.68153487e-05
3.53558933e-05
3.56181968e-05
3.68118128e-05
3.68067413e-05
3.53760521e-05
3.5376882e-05
3.55305998e-05
3.5767417e-05
3.6814256e-05
3.67975451e-05
3.53988232e-05
3.53995058e-05
3.57645029e-05
3.67901237e-05
3.68173684e-05
3.54477612e-05
3.57250361e-05
3.68023256e-05
3.68068287e-05
3.67992974e-05
3.6808759e-05
3.67970403e-05
3.68044468e-05
3.6800963e-05
3.44570912e-05
3.44565866e-05
3.49802663e-05
3.51827696e-05
3.51417268e-05
3.57502936e-05
3.68021236e-05
3.67917387e-05
3.68021976e-05
3.67903003e-05
3.47832392e-05
3.47709548e-05
3.52695521e-05
3.5092479e-05
3.57441412e-05
3.67908972e-05
3.67956381e-05
3.67982041e-05
3.52961323e-05
3.52977116e-05
3.68040583e-05
3.67832604e-05
3.50003191e-05
3.49935612e-05
3.54125142e-05
3.53362271e-05
3.57687762e-05
3.67879758e-05
3.67832286e-05
3.6791789e-05
3.6778161e-05
3.67925983e-05
3.67711452e-05
3.67914611e-05
3.67657409e-05
3.46119128e-05
3.45869496e-05
3.54706913e-05
3.6765923e-05
3.67887546e-05
3.67635506e-05
3.67867225e-05
3.6767439e-05
3.48588501e-05
3.50473556e-05
3.67917011e-05
3.67492262e-05
3.67892281e-05
3.6751145e-05
3.42779179e-05
3.42432121e-05
3.49674496e-05
3.47537182e-05
3.5628107e-05
3.67684835e-05
3.67882149e-05
3.48831442e-05
3.53142567e-05
3.67783371e-05
3.67894996e-05
3.48008171e-05
3.47968203e-05
3.51712113e-05
3.5331514e-05
3.53821846e-05
3.57501688e-05
3.67826846e-05
3.67942938e-05
3.67814177e-05
3.67980954e-05
3.67805429e-05
3.67972779e-05
3.67808337e-05
3.44516053e-05
3.43469573e-05
3.54043728e-05
3.67934273e-05
3.67881234e-05
3.49543522e-05
3.49496584e-05
3.53770249e-05
3.53343165e-05
3.59081381e-05
3.67749807e-05
3.67874763e-05
3.67749326e-05
3.6795309e-05
3.5354855e-05
3.56650912e-05
3.67852917e-05
3.67856561e-05
3.67803081e-05
3.67912128e-05
3.67757516e-05
3.67940418e-05
3.67706851e-05
3.67948578e-05
3.6765525e-05
3.67936281e-05
3.67601492e-05
3.67891969e-05
3.67523634e-05
3.35992974e-05
3.35769278e-05
3.45895773e-05
3.46294438e-05
3.50996904e-05
3.51269417e-05
3.53969088e-05
3.52039783e-05
3.56223524e-05
3.67123775e-05
3.67574038e-05
3.67080548e-05
3.67614058e-05
3.67414254e-05
3.67677338e-05
3.67612553e-05
3.67778812e-05
3.47371152e-05
3.47332122e-05
3.5005276e-05
3.56428015e-05
3.67939118e-05
3.67863462e-05
3.67926102e-05
3.67928487e-05
3.47166063e-05
3.47149524e-05
3.51678461e-05
3.53567522e-05
3.53659889e-05
3.57659342e-05
3.67978435e-05
3.67907938e-05
3.52832899e-05
3.5281119e-05
3.57476089e-05
3.67949857e-05
3.68006996e-05
3.53205694e-05
3.5698347e-05
3.68141461e-05
3.67880633e-05
3.51602808e-05
3.51545331e-05
3.57241546e-05
3.67940418e-05
3.6814981e-05
3.52428898e-05
3.56440529e-05
3.68054248e-05
3.6808248e-05
3.68027647e-05
3.68057483e-05
3.68071622e-05
3.48227669e-05
3.48201464e-05
3.50636606e-05
3.56653609e-05
3.68134792e-05
3.67970389e-05
3.68109741e-05
3.68001771e-05
3.48645361e-05
3.50871058e-05
3.68140311e-05
3.679009e-05
3.48070414e-05
3.47942779e-05
3.53047672e-05
3.51633285e-05
3.57527442e-05
3.67996438e-05
3.68005138e-05
3.52537503e-05
3.52508959e-05
3.57524372e-05
3.67950731e-05
3.68020077e-05
3.67933128e-05
3.68080854e-05
3.50024343e-05
3.56970378e-05
3.6808685e-05
3.67950409e-05
3.68149579e-05
3.51336894e-05
3.53875418e-05
3.67998073e-05
3.68005752e-05
3.67965799e-05
3.47934974e-05
3.46273134e-05
3.5630846e-05
3.67990317e-05
3.68000982e-05
3.68028585e-05
3.52056426e-05
3.53034526e-05
3.68137308e-05
3.677997e-05
3.68116855e-05
3.6782746e-05
3.46254618e-05
3.46058107e-05
3.51920199e-05
3.50938516e-05
3.57272134e-05
3.67903906e-05
3.68054576e-05
3.67932432e-05
3.68021059e-05
3.68006105e-05
3.48960069e-05
3.48928381e-05
3.51142601e-05
3.57328642e-05
3.6810853e-05
3.67905845e-05
3.68095701e-05
3.67918093e-05
3.47952553e-05
3.47817182e-05
3.52842411e-05
3.52228195e-05
3.57307217e-05
3.67909401e-05
3.68071105e-05
3.679093e-05
3.68070412e-05
3.67920477e-05
3.47658608e-05
3.46165291e-05
3.56084973e-05
3.68029197e-05
3.67898856e-05
3.49061824e-05
3.48961598e-05
3.56450099e-05
3.67922115e-05
3.67979128e-05
3.50808481e-05
3.54393995e-05
3.67934983e-05
3.67924701e-05
3.50922698e-05
3.52860644e-05
3.67929639e-05
3.67902687e-05
3.50692499e-05
3.50685214e-05
3.52140652e-05
3.57697069e-05
3.67879092e-05
3.67821012e-05
3.67863095e-05
3.67799317e-05
3.67871153e-05
3.6775656e-05
3.67860739e-05
3.67700057e-05
3.67839092e-05
3.67659162e-05
3.67780307e-05
3.67652914e-05
3.37220899e-05
3.37163854e-05
3.47511406e-05
3.49076563e-05
3.50987636e-05
3.5641222e-05
3.67813374e-05
3.67935148e-05
3.51719952e-05
3.54476414e-05
3.67949684e-05
3.67935644e-05
3.51991461e-05
3.51977378e-05
3.53774513e-05
3.5761842e-05
3.68058993e-05
3.67914856e-05
3.51909586e-05
3.51871696e-05
3.57529015e-05
3.67934719e-05
3.68058731e-05
3.6794037e-05
3.68109533e-05
3.50396188e-05
3.50336552e-05
3.52376773e-05
3.5746976e-05
3.67984124e-05
3.67951359e-05
3.68083782e-05
3.53577555e-05
3.54111531e-05
3.6809363e-05
3.679038e-05
3.68040384e-05
3.67990668e-05
3.47739708e-05
3.47687333e-05
3.50774592e-05
3.56070597e-05
3.68085374e-05
3.67926567e-05
3.49805297e-05
3.49739879e-05
3.56625746e-05
3.68035639e-05
3.67991363e-05
3.68118052e-05
3.51606829e-05
3.51589862e-05