/*--------------------------------*- C++ -*----------------------------------*\
| =========                 |                                                 |
| \\      /  F ield         | OpenFOAM: The Open Source CFD Toolbox           |
|  \\    /   O peration     | Version:  2306                                  |
|   \\  /    A nd           | Website:  www.openfoam.com                      |
|    \\/     M anipulation  |                                                 |
\*---------------------------------------------------------------------------*/
FoamFile
{
    version     2.0;
    format      ascii;
    arch        "LSB;label=32;scalar=64";
    class       volScalarField;
    location    "0.00024";
    object      mu;
}
// * * * * * * * * * * * * * * * * * * * * * * * * * * * * * * * * * * * * * //

dimensions      [1 -1 -1 0 0 0 0];

internalField   nonuniform List<scalar> 
3816
(
1.98899319e-05
1.98145561e-05
1.97986396e-05
1.97985428e-05
1.97985359e-05
1.97985358e-05
1.97985358e-05
1.97985358e-05
1.97985358e-05
1.97985358e-05
1.97985358e-05
1.97985358e-05
1.97985358e-05
1.97985358e-05
1.97985358e-05
1.97985358e-05
1.97985358e-05
1.97985358e-05
1.97985358e-05
1.97985358e-05
1.97985358e-05
1.97985358e-05
1.97985358e-05
1.97985358e-05
1.97985358e-05
1.97985358e-05
1.97985358e-05
1.97985358e-05
1.97985358e-05
1.97985358e-05
1.97985358e-05
1.97985358e-05
1.97985358e-05
1.97985358e-05
1.97985358e-05
1.97985358e-05
1.97985358e-05
1.97985358e-05
1.97985358e-05
1.97985358e-05
1.97985358e-05
1.97985358e-05
1.97985358e-05
1.97985358e-05
1.97985358e-05
1.97985358e-05
1.97985358e-05
1.97985358e-05
1.97985358e-05
1.97985358e-05
1.97985358e-05
1.97985358e-05
1.97985358e-05
1.97985358e-05
1.97985358e-05
1.97985358e-05
1.97985358e-05
1.97985358e-05
1.97985358e-05
1.97985358e-05
1.97985358e-05
1.97985358e-05
1.97985358e-05
1.97985358e-05
1.97985358e-05
1.97985358e-05
1.97985358e-05
1.97985358e-05
1.97985358e-05
1.97985358e-05
1.97985358e-05
1.97985358e-05
1.97985359e-05
1.97985361e-05
1.97985365e-05
1.97985375e-05
1.979854e-05
1.97985455e-05
1.97985567e-05
1.97985783e-05
1.97986171e-05
1.97986831e-05
1.97987882e-05
1.97989488e-05
1.97991746e-05
1.97994925e-05
1.97999679e-05
1.98003597e-05
1.98003928e-05
1.98009083e-05
1.9806394e-05
1.98083233e-05
1.9791106e-05
1.97827727e-05
1.98228114e-05
1.98542524e-05
1.97666184e-05
1.97128762e-05
1.97070254e-05
1.96870737e-05
1.98034355e-05
2.03116593e-05
2.02652033e-05
2.03016014e-05
2.02449684e-05
1.95153504e-05
1.95351949e-05
2.0036346e-05
2.0237555e-05
2.02626665e-05
2.02620708e-05
1.93702731e-05
1.93448278e-05
1.95609571e-05
1.95492967e-05
1.98909603e-05
2.02586538e-05
2.02741504e-05
2.02855491e-05
1.95337537e-05
1.95022858e-05
2.02792106e-05
2.0276082e-05
1.94778599e-05
1.95550628e-05
2.02877787e-05
2.02575173e-05
1.94241008e-05
1.93533476e-05
1.9643896e-05
2.02731536e-05
2.02795813e-05
2.02672007e-05
2.0280208e-05
2.02624836e-05
2.02792189e-05
2.02510649e-05
1.9207189e-05
1.91637298e-05
1.94021664e-05
1.92760127e-05
1.96481955e-05
2.0277701e-05
2.02762758e-05
2.02634734e-05
2.02703358e-05
2.02415202e-05
1.93524397e-05
1.93517179e-05
1.94797783e-05
1.95412238e-05
1.95435497e-05
1.97667982e-05
2.02821713e-05
2.02850138e-05
2.0265073e-05
2.02794835e-05
2.02474895e-05
1.93997324e-05
1.93532451e-05
1.97304464e-05
2.02758713e-05
2.02476686e-05
1.94419746e-05
1.97173614e-05
2.02845324e-05
2.02581079e-05
2.02821237e-05
2.02394267e-05
1.93753633e-05
1.93707004e-05
1.95117111e-05
1.95984029e-05
1.95812882e-05
1.97744621e-05
2.02756481e-05
2.0281313e-05
2.02577521e-05
1.95669952e-05
1.97779726e-05
2.02597663e-05
1.96781557e-05
1.9789636e-05
2.02876093e-05
2.02576595e-05
2.02830428e-05
2.02512424e-05
1.94351633e-05
1.94297512e-05
1.9541945e-05
1.97848852e-05
2.02903185e-05
2.02676927e-05
1.95293756e-05
1.9730671e-05
2.02939445e-05
2.02671328e-05
1.94157194e-05
1.94074359e-05
1.97662621e-05
2.02751102e-05
2.02759415e-05
2.02768394e-05
2.02750733e-05
1.9284321e-05
1.92809935e-05
1.9483687e-05
1.95097102e-05
1.94943673e-05
1.97136521e-05
2.01002397e-05
2.0286025e-05
2.02532464e-05
1.96520079e-05
1.96954503e-05
2.02890583e-05
2.02780427e-05
1.96129244e-05
1.97928379e-05
2.02923344e-05
2.0275081e-05
2.02884002e-05
2.02942031e-05
1.94551648e-05
1.96901405e-05
2.02843208e-05
2.02872993e-05
2.02736373e-05
2.02891558e-05
2.02736318e-05
2.02846201e-05
2.02838676e-05
1.90314527e-05
1.89969963e-05
1.93430781e-05
1.93536534e-05
1.95016772e-05
1.95794808e-05
1.95908863e-05
1.97621265e-05
2.02868918e-05
2.03105864e-05
1.96057661e-05
1.96072743e-05
1.96967675e-05
1.97703494e-05
2.02890562e-05
2.03093364e-05
1.9681476e-05
1.97128128e-05
2.02946923e-05
2.03045134e-05
1.96363984e-05
1.96588493e-05
2.02974425e-05
2.03031783e-05
1.95868235e-05
1.96268686e-05
2.02983631e-05
2.03010305e-05
1.95233907e-05
1.96562402e-05
2.03002199e-05
2.02894445e-05
2.02965722e-05
2.02961832e-05
1.93189552e-05
1.92879054e-05
1.9495916e-05
1.94998559e-05
1.96479373e-05
1.96034508e-05
1.97564317e-05
2.02797356e-05
2.03193119e-05
1.96278656e-05
1.97355238e-05
2.02840772e-05
2.02946002e-05
2.02896024e-05
2.02950557e-05
2.02921443e-05
1.94011798e-05
1.92673088e-05
1.96066149e-05
2.02829338e-05
2.03091186e-05
1.94144198e-05
1.9527061e-05
2.02870242e-05
2.03080467e-05
1.94544576e-05
1.95002259e-05
2.02902693e-05
2.03030574e-05
1.94678625e-05
1.94941481e-05
2.02902483e-05
2.02999188e-05
1.94752224e-05
1.94973522e-05
2.0288517e-05
2.02978513e-05
1.94810243e-05
1.95004344e-05
1.95424685e-05
1.97088886e-05
2.02885785e-05
2.02957625e-05
1.94956101e-05
1.97687709e-05
2.03060313e-05
2.0285805e-05
2.03074984e-05
1.9564763e-05
1.95082704e-05
2.02883558e-05
2.02914589e-05
1.94383722e-05
1.96271355e-05
2.03021721e-05
2.02832215e-05
2.02971041e-05
1.94623446e-05
1.946019e-05
2.02886603e-05
2.02895542e-05
2.0284321e-05
1.93502483e-05
1.92997443e-05
1.95170641e-05
1.94306988e-05
1.96681021e-05
2.02858412e-05
2.02887647e-05
1.95414691e-05
1.96071791e-05
1.95926225e-05
1.9760021e-05
2.02908723e-05
2.02840253e-05
1.95528309e-05
1.97677591e-05
2.02961288e-05
2.02897653e-05
2.02847994e-05
1.9589193e-05
1.96076861e-05
2.02905014e-05
2.02940516e-05
2.02763718e-05
1.94528389e-05
1.93384392e-05
1.96629682e-05
2.02940644e-05
2.02938593e-05
2.02869903e-05
2.02929767e-05
2.0276068e-05
2.02914117e-05
2.02622126e-05
1.91353481e-05
1.9117311e-05
1.93682303e-05
1.93404599e-05
1.95691495e-05
1.94507998e-05
1.97662387e-05
2.02853237e-05
2.028933e-05
2.02593246e-05
1.95908132e-05
1.9614392e-05
2.02904125e-05
2.02584368e-05
1.95549938e-05
1.96293488e-05
2.02924699e-05
2.0256782e-05
1.95372186e-05
1.96279746e-05
2.02925921e-05
2.02567746e-05
1.95269451e-05
1.96230436e-05
2.02925085e-05
2.02570208e-05
1.95191049e-05
1.96168159e-05
2.02928646e-05
2.02613787e-05
1.95129491e-05
1.9510916e-05
1.95788436e-05
1.97820853e-05
2.02946955e-05
2.02695003e-05
1.95364058e-05
1.95335781e-05
1.97633848e-05
2.02816439e-05
2.0290442e-05
2.02834158e-05
1.9565454e-05
1.9760866e-05
2.02843141e-05
2.0285585e-05
2.02852341e-05
1.948227e-05
1.9481532e-05
1.95375291e-05
1.97699652e-05
2.02884655e-05
2.02887315e-05
2.02946285e-05
1.95669989e-05
1.96490538e-05
2.02848163e-05
2.0288317e-05
2.0277297e-05
2.02870075e-05
2.02800608e-05
1.91951971e-05
1.91836442e-05
1.94234895e-05
1.94189781e-05
1.96071789e-05
1.95214664e-05
1.9779193e-05
2.02781286e-05
2.02885756e-05
2.02904244e-05
1.96225224e-05
1.96207508e-05
2.02895495e-05
2.02844992e-05
1.94910039e-05
1.94824313e-05
1.97084198e-05
2.02836917e-05
2.02909052e-05
1.97147227e-05
2.02837135e-05
2.02924358e-05
1.93994342e-05
1.93943667e-05
1.97193153e-05
2.0284197e-05
2.02895859e-05
1.94345079e-05
1.94220767e-05
1.97297854e-05
2.0287602e-05
2.02899589e-05
1.94536645e-05
1.94407548e-05
1.97448305e-05
2.0276297e-05
2.02868812e-05
2.02832583e-05
2.02840755e-05
2.02912122e-05
1.93296884e-05
1.93295233e-05
1.94125896e-05
1.97023371e-05
2.02853397e-05
2.02823608e-05
2.02839013e-05
2.02848527e-05
1.92661739e-05
1.92525137e-05
1.95183748e-05
1.94187334e-05
1.97687072e-05
2.02801229e-05
2.02932547e-05
2.02776697e-05
2.02961846e-05
1.94255621e-05
1.94720879e-05
2.02776025e-05
2.02880593e-05
1.94234032e-05
1.95298543e-05
2.02769813e-05
2.02864105e-05
1.93449824e-05
1.96636376e-05
2.0287091e-05
2.02785113e-05
2.0286405e-05
1.94322069e-05
1.94638564e-05
2.02798211e-05
2.02796025e-05
2.02762457e-05
1.92788277e-05
1.92722154e-05
1.95215405e-05
1.94349145e-05
1.97494923e-05
2.02840345e-05
2.02896718e-05
2.02800262e-05
2.0287158e-05
1.94398368e-05
1.95561403e-05
2.02771429e-05
2.02818614e-05
1.93718152e-05
1.9720885e-05
2.02793472e-05
1.95688992e-05
1.94117465e-05
1.97679628e-05
2.02833745e-05
2.02810016e-05
1.95618872e-05
1.96192939e-05
1.96317824e-05
1.97736436e-05
2.02897524e-05
2.02761722e-05
1.95945864e-05
1.95936103e-05
1.97671579e-05
2.02851767e-05
2.02870961e-05
2.02853706e-05
2.02794175e-05
1.94866487e-05
1.96404033e-05
2.02918849e-05
2.02768376e-05
2.02910021e-05
2.02653366e-05
1.92823466e-05
1.92742683e-05
1.95102135e-05
1.94317198e-05
1.97605247e-05
2.02805454e-05
2.02865737e-05
1.94899338e-05
1.9739892e-05
2.0289201e-05
2.02918927e-05
2.02809663e-05
2.02873824e-05
2.02764235e-05
1.92926254e-05
1.92920448e-05
1.94723028e-05
1.95626842e-05
1.95473801e-05
1.97692922e-05
2.02865531e-05
2.02885949e-05
2.02825728e-05
1.95572542e-05
1.9418854e-05
1.97743988e-05
2.02844755e-05
2.02835155e-05
2.02842381e-05
1.95768384e-05
1.96631316e-05
2.02816578e-05
2.02840078e-05
2.02746222e-05
2.02828045e-05
2.02711029e-05
1.9204198e-05
1.91974313e-05
1.94768965e-05
1.93614344e-05
1.9754317e-05
2.02823511e-05
2.02854602e-05
2.02831384e-05
1.95258061e-05
1.95799054e-05
2.02897394e-05
2.02718636e-05
2.02872609e-05
2.02694005e-05
2.02843408e-05
2.0269074e-05
1.90694015e-05
1.90592502e-05
1.93363313e-05
1.93418668e-05
1.95598607e-05
1.94815342e-05
1.97722284e-05
2.028131e-05
2.02856811e-05
2.0279451e-05
2.02866593e-05
1.9483535e-05
1.95225953e-05
2.02820747e-05
2.02816183e-05
1.94947669e-05
1.95550209e-05
2.02842767e-05
2.02789807e-05
1.94856881e-05
1.95978725e-05
2.02877481e-05
2.02744768e-05
1.9420742e-05
1.94107845e-05
1.96825258e-05
2.02818269e-05
2.02804145e-05
2.02870569e-05
1.94753189e-05
1.96788733e-05
2.02917868e-05
2.02775326e-05
2.02941378e-05
1.93984911e-05
1.9593853e-05
2.02827742e-05
1.94810673e-05
1.9352276e-05
1.9695833e-05
2.02850995e-05
2.02951678e-05
1.94418363e-05
1.96598762e-05
2.02892787e-05
2.02905072e-05
2.02861778e-05
2.02904659e-05
1.93156304e-05
1.93132852e-05
1.94693069e-05
1.95719574e-05
1.95233132e-05
1.97704562e-05
2.0289781e-05
2.02911766e-05
2.02925711e-05
1.95206305e-05
1.97373424e-05
2.03039722e-05
1.96358335e-05
1.96918855e-05
2.02943465e-05
2.0294513e-05
2.02930562e-05
1.94485408e-05
1.94464692e-05
1.96250302e-05
1.95654377e-05
1.97658833e-05
2.02921247e-05
2.02976431e-05
2.02918986e-05
2.02946879e-05
2.02920487e-05
1.94918356e-05
1.94914548e-05
1.94979182e-05
1.97665405e-05
2.02934052e-05
2.02920984e-05
2.02923489e-05
1.95642797e-05
1.96629303e-05
2.02949429e-05
2.02921119e-05
2.02912888e-05
2.02900026e-05
2.02879617e-05
1.92705994e-05
1.92643799e-05
1.94519461e-05
1.95297541e-05
1.95402304e-05
1.97571965e-05
2.0290767e-05
2.02959617e-05
1.95618016e-05
1.97068922e-05
2.02950423e-05
2.02935116e-05
1.95344434e-05
1.97035827e-05
2.0297983e-05
2.02905671e-05
1.94396152e-05
1.97618357e-05
2.02959053e-05
1.96287888e-05
1.96165449e-05
2.0300365e-05
2.02891292e-05
1.95835053e-05
1.96218285e-05
2.03019452e-05
2.02853023e-05
1.95605224e-05
1.9616423e-05
2.03029248e-05
2.02824675e-05
1.95459024e-05
1.96112015e-05
2.03032113e-05
2.02803137e-05
1.95370346e-05
1.96074352e-05
2.03030077e-05
2.02785013e-05
1.95310565e-05
1.96053066e-05
2.03026027e-05
2.0276772e-05
1.95250364e-05
1.96052594e-05
2.03023248e-05
2.02747655e-05
1.9514403e-05
1.96112461e-05
2.03029445e-05
2.02721784e-05
1.94867639e-05
1.96365956e-05
2.03060486e-05
2.02700592e-05
1.93984893e-05
1.93897095e-05
1.97020123e-05
2.02785907e-05
2.02949534e-05
1.93820057e-05
1.9757422e-05
2.02819943e-05
1.96055481e-05
1.96061047e-05
2.03030822e-05
2.02780502e-05
1.9466879e-05
1.94634209e-05
1.96272914e-05
1.95816825e-05
1.97617659e-05
2.02913957e-05
2.02929647e-05
1.96349874e-05
1.96354195e-05
1.97015205e-05
1.9770447e-05
2.02975765e-05
2.02885768e-05
1.9697527e-05
1.97153276e-05
2.03065459e-05
2.02821164e-05
1.97506651e-05
2.02865443e-05
2.02984905e-05
2.0288706e-05
2.02901457e-05
2.02883391e-05
2.02825244e-05
2.02852705e-05
2.02795983e-05
1.90077278e-05
1.90071235e-05
1.93145815e-05
1.93393538e-05
1.94832301e-05
1.95669306e-05
1.95641331e-05
1.98084401e-05
2.02845082e-05
2.02883455e-05
2.02879182e-05
1.96254769e-05
1.96297601e-05
2.02905575e-05
2.02870646e-05
1.9476174e-05
1.97756865e-05
2.03010797e-05
1.9588602e-05
1.95700911e-05
1.96669137e-05
1.97668582e-05
2.02906901e-05
2.02919602e-05
2.02926711e-05
1.95707413e-05
1.95166437e-05
1.97697421e-05
2.02912735e-05
2.02894096e-05
2.02999112e-05
1.95322636e-05
1.97662458e-05
2.03011412e-05
1.96902541e-05
1.97111659e-05
2.02977573e-05
2.02834533e-05
2.02958974e-05
2.02850762e-05
2.02936619e-05
2.02862272e-05
1.92258124e-05
1.9204474e-05
1.94940002e-05
1.93729371e-05
1.97653054e-05
2.02918309e-05
2.02898919e-05
2.03020455e-05
1.94827189e-05
1.96456279e-05
2.0295367e-05
1.95301064e-05
1.94220456e-05
1.97310764e-05
2.02896141e-05
2.03037082e-05
1.9547304e-05
1.95788751e-05
1.96199136e-05
1.97608057e-05
2.02886361e-05
2.0304727e-05
1.95978314e-05
1.97218169e-05
2.02980486e-05
2.03013581e-05
1.94766274e-05
1.97721159e-05
2.03038049e-05
1.96644372e-05
1.96512185e-05
2.02945601e-05
2.0288965e-05
1.94911557e-05
1.94614587e-05
1.97203784e-05
2.02929211e-05
2.02916832e-05
1.94773498e-05
1.94757265e-05
1.96902672e-05
2.02883123e-05
2.02933564e-05
2.02863227e-05
2.02930779e-05
2.02838571e-05
1.92750806e-05
1.92612768e-05
1.95027991e-05
1.94331846e-05
1.97140429e-05
2.02877951e-05
2.02934552e-05
2.02851881e-05
2.02908597e-05
1.93260626e-05
1.96845213e-05
2.02879437e-05
1.95446317e-05
1.95348082e-05
2.02887595e-05
2.02812687e-05
1.94761664e-05
1.96235275e-05
2.02931536e-05
2.02764429e-05
2.02908882e-05
2.02689206e-05
1.92818131e-05
1.92743336e-05
1.95156118e-05
1.94471766e-05
1.97627429e-05
2.02852564e-05
2.02848396e-05
2.02850288e-05
2.02771427e-05
1.94654943e-05
1.95967425e-05
2.02900424e-05
2.02703574e-05
1.94112682e-05
1.94060985e-05
1.97225896e-05
2.028466e-05
2.027617e-05
1.94741616e-05
1.94717699e-05
1.97660277e-05
2.02901805e-05
2.02758945e-05
1.95052038e-05
1.95030592e-05
1.97640244e-05
2.02862483e-05
2.02825574e-05
2.02863779e-05
2.02727558e-05
1.94867584e-05
1.94955456e-05
1.95099877e-05
1.97761792e-05
2.02844993e-05
2.02852731e-05
2.0278022e-05
1.95121826e-05
1.95116289e-05
1.95972236e-05
1.9767201e-05
2.02886851e-05
2.02918035e-05
2.02740274e-05
2.02892262e-05
2.02645877e-05
1.9365008e-05
1.93600021e-05
1.95637513e-05
1.95171616e-05
1.97635411e-05
2.02911297e-05
2.02929797e-05
2.02817714e-05
2.02890994e-05
2.02696658e-05
2.02839766e-05
2.02633049e-05
1.91628122e-05
1.91591451e-05
1.94167432e-05
1.94377761e-05
1.95658413e-05
1.96349904e-05
1.96411296e-05
1.97733991e-05
2.02804479e-05
2.02819483e-05
1.96375267e-05
1.97730288e-05
2.02846769e-05
2.02789549e-05
1.95865847e-05
1.97448854e-05
2.02858593e-05
2.02802883e-05
1.94748296e-05
1.97725287e-05
2.02832152e-05
2.0284362e-05
2.02825112e-05
1.94540379e-05
1.94529984e-05
1.95026388e-05
1.97692161e-05
2.0287479e-05
2.02888629e-05
2.02860189e-05
1.95704741e-05
1.96341305e-05
2.02915665e-05
2.02775281e-05
2.02873659e-05
2.02743078e-05
2.0281835e-05
2.02741956e-05
1.91251216e-05
1.91232786e-05
1.93744317e-05
1.94687619e-05
1.9472855e-05
1.97626789e-05
2.02798305e-05
2.02945436e-05
1.94598928e-05
1.97676201e-05
2.02843739e-05
2.02874496e-05
2.02843727e-05
1.93927639e-05
1.93785774e-05
1.960239e-05
1.95137902e-05
1.97794989e-05
2.02867725e-05
2.02862298e-05
2.02866503e-05
2.02832086e-05
1.93789116e-05
1.9359965e-05
1.96862406e-05
2.02848512e-05
2.02985839e-05
1.93971443e-05
1.97559887e-05
2.02904876e-05
2.02879305e-05
2.02940948e-05
1.94319816e-05
1.94257375e-05
1.95174863e-05
1.97478896e-05
2.02875945e-05
2.02886608e-05
2.029164e-05
2.02868179e-05
2.02930923e-05
1.93297243e-05
1.93263978e-05
1.95173705e-05
1.95995923e-05
1.96194563e-05
1.97705225e-05
2.02837079e-05
2.02908136e-05
2.02873113e-05
2.02892522e-05
2.02892915e-05
1.95282077e-05
1.95953918e-05
2.02920633e-05
2.02751248e-05
2.02892308e-05
2.02770742e-05
2.02862373e-05
2.0275452e-05
1.91373286e-05
1.91291567e-05
1.93909366e-05
1.94044287e-05
1.95961577e-05
1.95482685e-05
1.97675215e-05
2.02770558e-05
2.02907138e-05
2.02805403e-05
2.02883673e-05
2.02833991e-05
1.94808368e-05
1.9534579e-05
2.02898004e-05
2.0274451e-05
2.02869203e-05
2.02727069e-05
1.91806581e-05
1.9121991e-05
1.95719588e-05
2.02822164e-05
2.02786076e-05
1.92789338e-05
1.92753235e-05
1.96119832e-05
2.02819237e-05
2.0285655e-05
1.94190362e-05
1.94995874e-05
1.9462372e-05
1.97734969e-05
2.02838106e-05
2.02842449e-05
2.02842688e-05
1.95252214e-05
1.96669049e-05
2.02888915e-05
2.02811747e-05
2.02863617e-05
1.93748915e-05
1.96560075e-05
2.0286522e-05
1.95384874e-05
1.9531631e-05
2.02882144e-05
2.02798027e-05
1.95086732e-05
1.9556105e-05
2.02907305e-05
2.02753103e-05
1.94820765e-05
1.95793597e-05
2.02935267e-05
2.02717245e-05
1.94264771e-05
1.94225848e-05
1.96146226e-05
1.95465788e-05
1.97715315e-05
2.02843174e-05
2.02824135e-05
1.95574396e-05
1.95564879e-05
1.9768253e-05
2.02827101e-05
2.0285822e-05
1.95238845e-05
1.97760554e-05
2.02850581e-05
2.02853609e-05
2.02828532e-05
1.95608979e-05
1.96818886e-05
2.02850334e-05
2.02852362e-05
2.02780881e-05
2.0281967e-05
2.02752211e-05
1.92409785e-05
1.9241257e-05
1.94377867e-05
1.95438285e-05
1.95083958e-05
1.97739705e-05
2.02837645e-05
2.02833442e-05
2.02811826e-05
1.95211865e-05
1.97624901e-05
2.02846759e-05
1.96442949e-05
1.96405171e-05
2.02883774e-05
2.02763738e-05
1.9565843e-05
1.96781198e-05
2.02949513e-05
2.02704518e-05
1.94480856e-05
1.94425536e-05
1.9739931e-05
2.02796478e-05
2.02889298e-05
1.94698433e-05
1.97216729e-05
2.02894836e-05
2.02820048e-05
2.02884494e-05
2.02759117e-05
1.93079752e-05
1.93026924e-05
1.95436415e-05
1.9439523e-05
1.9768049e-05
2.02883145e-05
2.02870644e-05
2.028745e-05
1.95224603e-05
1.95205865e-05
1.96011185e-05
1.97675824e-05
2.02894663e-05
2.02916404e-05
2.02844291e-05
2.0290545e-05
2.02796801e-05
2.02879762e-05
2.02750578e-05
2.02834492e-05
2.02721675e-05
1.90619736e-05
1.90613591e-05
1.93242274e-05
1.94316619e-05
1.94412457e-05
1.97350544e-05
2.0287023e-05
2.02799566e-05
1.94708053e-05
1.94680665e-05
1.97576101e-05
2.02866859e-05
2.02829295e-05
1.94788843e-05
1.94762167e-05
1.97687612e-05
2.02884006e-05
2.02868589e-05
2.02879678e-05
1.95249641e-05
1.97007196e-05
2.02923176e-05
1.95567754e-05
1.95524894e-05
1.96661872e-05
1.9739067e-05
2.02962196e-05
2.02839342e-05
1.97541119e-05
2.02850518e-05
2.02931031e-05
2.02844071e-05
2.02896679e-05
1.9403691e-05
1.95543921e-05
2.02878124e-05
2.02849003e-05
2.02840988e-05
2.02831442e-05
1.92537665e-05
1.92518688e-05
1.93877266e-05
1.95866481e-05
2.02821579e-05
2.02852322e-05
1.94556475e-05
1.95074207e-05
1.94654703e-05
1.97767219e-05
2.02789689e-05
2.02804043e-05
2.02780486e-05
1.95035013e-05
1.94973037e-05
2.02769607e-05
2.02728569e-05
1.93601513e-05
1.93593873e-05
1.93940981e-05
1.96704592e-05
2.02789889e-05
2.02792969e-05
2.02751173e-05
2.0277422e-05
1.94507965e-05
1.95978598e-05
2.02757396e-05
2.02760833e-05
1.94097988e-05
1.97800304e-05
2.02872215e-05
1.96395747e-05
1.97264822e-05
2.02851096e-05
2.02855948e-05
2.02841887e-05
1.95551366e-05
1.95720093e-05
2.02914022e-05
2.02814897e-05
2.02875026e-05
2.02807626e-05
1.93693867e-05
1.93686921e-05
1.93876896e-05
1.9766751e-05
2.02887666e-05
2.02887916e-05
2.02856079e-05
1.94340817e-05
1.96385394e-05
2.02929513e-05
1.95180799e-05
1.9507529e-05
1.95741604e-05
1.97644606e-05
2.02916459e-05
2.02898083e-05
2.02895437e-05
2.02860615e-05
1.94766678e-05
1.94765575e-05
1.94935314e-05
1.97740949e-05
2.02888284e-05
2.02884454e-05
2.02867715e-05
1.95103358e-05
1.97022201e-05
2.02902038e-05
1.95502454e-05
1.94260079e-05
1.97861382e-05
2.02870332e-05
2.02858182e-05
2.02854595e-05
1.95244736e-05
1.97261741e-05
2.02873298e-05
1.9565404e-05
1.94447359e-05
1.97800823e-05
2.02844909e-05
2.02812722e-05
2.02852054e-05
2.02744317e-05
1.93343233e-05
1.93282485e-05
1.96938985e-05
2.02837306e-05
2.02830284e-05
1.94286086e-05
1.96280229e-05
2.02897013e-05
2.02781197e-05
1.94450498e-05
1.96282103e-05
2.02947964e-05
2.02739473e-05
1.93780995e-05
1.93720127e-05
1.9698268e-05
2.02828963e-05
2.0287597e-05
1.94973693e-05
1.9536131e-05
1.95727764e-05
1.9768588e-05
2.0287977e-05
2.0290706e-05
2.02826067e-05
2.02866262e-05
2.02817412e-05
1.93638337e-05
1.93630911e-05
1.9485755e-05
1.97021944e-05
2.02880674e-05
2.02850609e-05
1.95054897e-05
1.96357898e-05
2.02914539e-05
2.02805659e-05
1.95058004e-05
1.96170601e-05
2.02937202e-05
2.02775009e-05
1.94890451e-05
1.96393564e-05
2.02971096e-05
2.02732202e-05
1.94124735e-05
1.94055349e-05
1.97390973e-05
2.02803761e-05
2.02912305e-05
2.02781652e-05
2.02888874e-05
1.93365157e-05
1.96676701e-05
2.02825092e-05
2.02831274e-05
2.02837539e-05
1.93829933e-05
1.93805626e-05
1.94246386e-05
1.97714118e-05
2.02847477e-05
2.02839489e-05
2.02884003e-05
1.95101016e-05
1.96265508e-05
2.02825561e-05
2.02844431e-05
2.02797191e-05
2.02810952e-05
2.02795806e-05
1.91591648e-05
1.91568613e-05
1.93950717e-05
1.94995107e-05
1.94786687e-05
1.97701073e-05
2.02867535e-05
2.0286762e-05
2.0288767e-05
1.94968539e-05
1.97104225e-05
2.02962605e-05
1.9556455e-05
1.95413847e-05
1.96392938e-05
1.97656697e-05
2.02910216e-05
2.0292402e-05
1.96360414e-05
1.96369566e-05
1.9714965e-05
1.97768972e-05
2.02926728e-05
2.02916847e-05
1.96839831e-05
1.97739009e-05
2.03004454e-05
2.02835606e-05
1.95802367e-05
1.95795301e-05
1.97617081e-05
2.02820903e-05
2.02996561e-05
1.96141936e-05
1.97633947e-05
2.02895078e-05
2.02930657e-05
1.95640529e-05
1.97683501e-05
2.02940964e-05
2.02875163e-05
2.02922019e-05
2.02830848e-05
2.02899528e-05
2.02768517e-05
1.9228258e-05
1.92221549e-05
1.94986808e-05
1.9407802e-05
1.97690062e-05
2.02906888e-05
2.02811655e-05
1.94893834e-05
1.94862512e-05
1.97627358e-05
2.02843464e-05
2.02913412e-05
1.95386674e-05
1.9703897e-05
2.02874563e-05
2.02872183e-05
1.95396088e-05
1.96870442e-05
2.02879105e-05
2.02847867e-05
1.94889811e-05
1.97320448e-05
2.02904664e-05
2.0283836e-05
2.02865301e-05
2.0278851e-05
2.02817486e-05
2.02748409e-05
1.91311289e-05
1.91301877e-05
1.93832233e-05
1.94691436e-05
1.94890363e-05
1.97507579e-05
2.02816223e-05
2.02824307e-05
1.95136935e-05
1.96655195e-05
2.02853516e-05
2.02782412e-05
1.9501932e-05
1.96226322e-05
2.02874733e-05
2.0274274e-05
1.9461016e-05
1.96266111e-05
2.0290631e-05
2.02700588e-05
1.93535486e-05
1.93463687e-05
1.96976902e-05
2.02825463e-05
2.02795546e-05
2.02828606e-05
2.02719716e-05
1.92547846e-05
1.92487096e-05
1.95111966e-05
1.94269539e-05
1.97708753e-05
2.02827669e-05
2.0281444e-05
2.02810498e-05
2.02776913e-05
1.94402085e-05
1.95118038e-05
2.0281724e-05
2.0274924e-05
1.94532298e-05
1.95551763e-05
2.02810884e-05
2.02736342e-05
1.94286825e-05
1.96231893e-05
2.02828623e-05
2.0272688e-05
2.02782108e-05
2.02718117e-05
1.9245018e-05
1.92449532e-05
1.94619025e-05
1.95477346e-05
1.95536489e-05
1.97741781e-05
2.0276726e-05
2.02815651e-05
1.95357454e-05
1.97716032e-05
2.02832437e-05
2.02722693e-05
2.02799647e-05
2.02628296e-05
1.9298391e-05
1.92877315e-05
1.94918381e-05
1.93355293e-05
1.96971464e-05
2.0269911e-05
2.02776705e-05
2.02594998e-05
2.02712244e-05
2.02546902e-05
1.94453634e-05
1.96516944e-05
2.02752175e-05
2.02683271e-05
2.02728101e-05
2.02713852e-05
2.02725987e-05
1.92664919e-05
1.92635587e-05
1.9411902e-05
1.96669932e-05
2.02784862e-05
2.02821411e-05
2.02763856e-05
2.02797681e-05
2.0274612e-05
1.92692256e-05
1.92684583e-05
1.94135248e-05
1.96604945e-05
2.02857191e-05
2.02742402e-05
1.94338098e-05
1.94301332e-05
1.96959468e-05
2.02819665e-05
2.02853433e-05
2.02795627e-05
2.02818097e-05
2.02787509e-05
1.92918446e-05
1.92920002e-05
1.95102905e-05
1.95823666e-05
1.96314215e-05
1.9771692e-05
2.02831795e-05
2.02876935e-05
2.02797738e-05
2.02866772e-05
2.02763183e-05
1.93558491e-05
1.9338045e-05
1.96641947e-05
2.02813257e-05
2.02859619e-05
2.02782748e-05
2.02821864e-05
2.02779183e-05
1.92946805e-05
1.92950473e-05
1.93995915e-05
1.97191024e-05
2.02852367e-05
2.02790958e-05
2.02833218e-05
2.02758385e-05
1.92699706e-05
1.92670341e-05
1.95059807e-05
1.94934417e-05
1.97190405e-05
2.02887718e-05
2.02797271e-05
1.97386959e-05
2.0281636e-05
2.02807843e-05
1.93798137e-05
1.9376205e-05
1.97378536e-05
2.02806231e-05
2.02887814e-05
1.94173638e-05
1.97257332e-05
2.02843352e-05
2.02877164e-05
2.02823426e-05
1.93555529e-05
1.93516548e-05
1.95829307e-05
1.95141052e-05
1.97806358e-05
2.02810376e-05
2.02881832e-05
2.02801815e-05
2.02862566e-05
1.94548062e-05
1.96362921e-05
2.02818517e-05
2.02858826e-05
2.0276681e-05
2.02838517e-05
2.02727214e-05
1.91412031e-05
1.90650531e-05
1.96045013e-05
2.02851283e-05
2.02750689e-05
1.93314305e-05
1.93272285e-05
1.95676375e-05
1.9501414e-05
1.97689046e-05
2.02804888e-05
2.02868909e-05
1.95710484e-05
1.97118719e-05
2.02882384e-05
2.02797307e-05
1.958233e-05
1.95820214e-05
1.96650245e-05
1.97811605e-05
2.02908781e-05
2.02772563e-05
1.9594759e-05
1.95937923e-05
1.97754677e-05
2.02756434e-05
2.02886842e-05
1.96199207e-05
1.97693676e-05
2.02825919e-05
2.02856199e-05
2.02765137e-05
2.02836619e-05
2.02706139e-05
2.02785838e-05
2.02678147e-05
1.90897083e-05
1.90893756e-05
1.93693522e-05
1.94782737e-05
1.94556635e-05
1.97770055e-05
2.02791197e-05
2.02735901e-05
2.02782749e-05
2.02650602e-05
1.92644451e-05
1.92568061e-05
1.95249263e-05
1.94288646e-05
1.97751956e-05
2.02729088e-05
2.02804573e-05
2.02704853e-05
1.95390276e-05
1.95390848e-05
2.02818048e-05
2.0262866e-05
1.93806658e-05
1.93758033e-05
1.96013824e-05
1.95595452e-05
1.9782274e-05
2.02745906e-05
2.02722373e-05
2.02747206e-05
2.02652542e-05
2.02733475e-05
2.02570521e-05
2.02711661e-05
2.02493454e-05
1.91723727e-05
1.91573942e-05
1.96323869e-05
2.0256849e-05
2.02732191e-05
2.02505903e-05
2.02703088e-05
2.02473159e-05
1.93043637e-05
1.94038515e-05
2.02705583e-05
2.02421644e-05
2.02675129e-05
2.02375206e-05
1.89935964e-05
1.89733026e-05
1.93624882e-05
1.92462877e-05
1.97166451e-05
2.02571277e-05
2.02672036e-05
1.93164696e-05
1.95481339e-05
2.02635809e-05
2.02655941e-05
1.92728158e-05
1.92709263e-05
1.94709689e-05
1.95576022e-05
1.95839132e-05
1.97810483e-05
2.02712838e-05
2.02783719e-05
2.02664888e-05
2.02774733e-05
2.02619286e-05
2.02743802e-05
2.02579659e-05
1.90867212e-05
1.90298161e-05
1.95966875e-05
2.02712255e-05
2.02655114e-05
1.93555936e-05
1.9352396e-05
1.95819547e-05
1.9558559e-05
1.98338493e-05
2.02658991e-05
2.02726201e-05
2.02657025e-05
2.02724885e-05
1.95695086e-05
1.97363616e-05
2.02710644e-05
2.02723802e-05
2.02655071e-05
2.02727441e-05
2.02600783e-05
2.02717614e-05
2.02541752e-05
2.02698904e-05
2.02480273e-05
2.02671876e-05
2.02415021e-05
2.02631009e-05
2.0232852e-05
1.8630875e-05
1.86182947e-05
1.9159589e-05
1.91803824e-05
1.94325656e-05
1.94461646e-05
1.95918754e-05
1.94861121e-05
1.97130446e-05
2.02146398e-05
2.02546224e-05
2.02187884e-05
2.02532704e-05
2.02410679e-05
2.02529848e-05
2.0253066e-05
2.02540877e-05
1.92385814e-05
1.92366681e-05
1.93820537e-05
1.97244735e-05
2.02730929e-05
2.02688028e-05
2.02716838e-05
2.02653896e-05
1.92282906e-05
1.92272734e-05
1.94697285e-05
1.95712147e-05
1.95758723e-05
1.97817377e-05
2.02794226e-05
2.02724026e-05
1.95322689e-05
1.95301714e-05
1.97750055e-05
2.02772953e-05
2.02777787e-05
1.95519799e-05
1.97544185e-05
2.02884234e-05
2.02694042e-05
1.94668992e-05
1.94621824e-05
1.97663377e-05
2.0275694e-05
2.02857575e-05
1.95101342e-05
1.97259865e-05
2.02827015e-05
2.02860246e-05
2.02759582e-05
2.02820622e-05
2.02726235e-05
1.92855585e-05
1.92840209e-05
1.94142066e-05
1.97371837e-05
2.0285564e-05
2.02750364e-05
2.0283663e-05
2.02689159e-05
1.93082208e-05
1.94265352e-05
2.02852944e-05
2.02647266e-05
1.9277533e-05
1.92694067e-05
1.95440349e-05
1.94671599e-05
1.97749398e-05
2.02794078e-05
2.02776804e-05
1.9516485e-05
1.95141587e-05
1.97748781e-05
2.02770559e-05
2.02812733e-05
2.02747833e-05
2.0278639e-05
1.9381179e-05
1.97542275e-05
2.02797521e-05
2.02788248e-05
2.0278482e-05
1.94517412e-05
1.95881446e-05
2.02758165e-05
2.02792461e-05
2.02690001e-05
1.92700239e-05
1.91799554e-05
1.97187669e-05
2.02754625e-05
2.02819099e-05
2.02717351e-05
1.94907516e-05
1.95422875e-05
2.02862717e-05
2.02627571e-05
2.02834228e-05
2.0258323e-05
1.91803051e-05
1.91681834e-05
1.948361e-05
1.94294541e-05
1.97706364e-05
2.02742055e-05
2.02851601e-05
2.027084e-05
2.02805951e-05
2.0269519e-05
1.9324641e-05
1.9322612e-05
1.94411685e-05
1.97730905e-05
2.028407e-05
2.02721027e-05
2.02825985e-05
2.02654387e-05
1.92711331e-05
1.92625981e-05
1.95330184e-05
1.94987664e-05
1.97713815e-05
2.02758135e-05
2.0286095e-05
2.02710611e-05
2.02830558e-05
2.02666687e-05
1.92552678e-05
1.91742057e-05
1.97065438e-05
2.02774954e-05
2.02684113e-05
1.93301871e-05
1.93237639e-05
1.97261578e-05
2.02727842e-05
2.02737481e-05
1.94231094e-05
1.96154357e-05
2.02746848e-05
2.02685524e-05
1.94293965e-05
1.95329707e-05
2.02744165e-05
2.02656368e-05
1.94170308e-05
1.94163589e-05
1.94941671e-05
1.97849802e-05
2.02710074e-05
2.02707866e-05
2.02680381e-05
2.02653319e-05
2.02664265e-05
2.02588002e-05
2.02639806e-05
2.0251569e-05
2.0261168e-05
2.02451745e-05
2.02566914e-05
2.02404379e-05
1.86959262e-05
1.8693203e-05
1.92455283e-05
1.93303147e-05
1.94316378e-05
1.97237098e-05
2.02674328e-05
2.02714142e-05
1.94718476e-05
1.96197367e-05
2.02764272e-05
2.02695618e-05
1.94869011e-05
1.94856303e-05
1.95822629e-05
1.97839213e-05
2.02838727e-05
2.02730278e-05
1.94830252e-05
1.94798023e-05
1.97740726e-05
2.02747769e-05
2.02822116e-05
2.02746048e-05
2.02777151e-05
1.94012532e-05
1.93982962e-05
1.95070212e-05
1.97766066e-05
2.02774207e-05
2.02804764e-05
2.02775947e-05
1.95720996e-05
1.96002387e-05
2.02847425e-05
2.02696027e-05
2.0279901e-05
2.02683607e-05
1.92593202e-05
1.92560682e-05
1.9421474e-05
1.97054192e-05
2.02831382e-05
2.027123e-05
1.9370266e-05
1.93656642e-05