/*--------------------------------*- C++ -*----------------------------------*\
| =========                 |                                                 |
| \\      /  F ield         | OpenFOAM: The Open Source CFD Toolbox           |
|  \\    /   O peration     | Version:  2306                                  |
|   \\  /    A nd           | Website:  www.openfoam.com                      |
|    \\/     M anipulation  |                                                 |
\*---------------------------------------------------------------------------*/
FoamFile
{
    version     2.0;
    format      ascii;
    arch        "LSB;label=32;scalar=64";
    class       volScalarField;
    location    "0.00024";
    object      rho;
}
// * * * * * * * * * * * * * * * * * * * * * * * * * * * * * * * * * * * * * //

dimensions      [1 -3 0 0 0 0 0];

internalField   nonuniform List<scalar> 
3816
(
0.931779444
0.936311451
0.937337777
0.937345368
0.937771605
0.938774215
0.939288461
0.939194656
0.939448335
0.939675156
0.939590028
0.939524897
0.939476545
0.939571056
0.93985737
0.940067716
0.940157525
0.940227094
0.939966356
0.939479238
0.93953638
0.940107746
0.940530141
0.940627817
0.940377916
0.939715649
0.938963998
0.938822355
0.939067692
0.938906525
0.939078694
0.939861281
0.93930332
0.937682782
0.937611101
0.938578764
0.938476982
0.937631733
0.937456568
0.937861395
0.937773958
0.93736083
0.937412482
0.93739822
0.937182833
0.937312292
0.937385349
0.937291418
0.937205786
0.937160596
0.937147201
0.937152239
0.937125943
0.937065527
0.937059507
0.937084121
0.93701594
0.936842083
0.936660761
0.936532087
0.936554625
0.936746796
0.936998701
0.937316903
0.937518802
0.937252814
0.936513933
0.935916862
0.936117222
0.937126235
0.937771963
0.937053778
0.935696369
0.93475257
0.935052316
0.936486248
0.938166311
0.939241822
0.939221768
0.938208265
0.936991756
0.936050813
0.93553967
0.935383613
0.935408692
0.935529783
0.935714127
0.935967214
0.936286203
0.936561698
0.936415954
0.936424606
0.93774727
0.938330287
0.935082268
0.932591665
0.938789303
0.942938205
0.942947414
0.943974183
0.934809957
0.901811555
0.904332087
0.902233597
0.905095371
0.954329961
0.95314423
0.918478121
0.905916786
0.904512598
0.904338869
0.963758526
0.96550235
0.951797905
0.952694103
0.928789977
0.905301549
0.9046658
0.903936175
0.954375188
0.95662297
0.905037991
0.905347524
0.958764108
0.954118776
0.905337566
0.907286392
0.963036119
0.967842451
0.94943938
0.907175477
0.9070256
0.907823055
0.907266637
0.908384104
0.907585732
0.909269101
0.978682238
0.981637591
0.966561521
0.974798022
0.951064675
0.908709004
0.908970992
0.909718364
0.909508124
0.91105267
0.970824144
0.970912311
0.962805116
0.958905087
0.958828085
0.944422889
0.909413168
0.909383345
0.910526075
0.909798421
0.911486453
0.968428436
0.971450917
0.947222997
0.910009082
0.911428926
0.965719028
0.948049426
0.909436277
0.910918153
0.909502186
0.9116256
0.969784204
0.970016388
0.960878253
0.95525437
0.956285229
0.943071124
0.909469073
0.90909908
0.910018958
0.956826264
0.942854315
0.909654879
0.949390369
0.942166057
0.908045014
0.909614202
0.908093594
0.909496101
0.964352741
0.964608738
0.957275865
0.94157257
0.907059812
0.90803938
0.957640057
0.944735681
0.906428038
0.907729927
0.964478916
0.964984771
0.941530211
0.90702816
0.906850676
0.906730839
0.906497007
0.972202907
0.97233638
0.959332304
0.957568694
0.958544688
0.94435536
0.916829913
0.905658649
0.907142728
0.948041197
0.945290214
0.905165778
0.905576091
0.950254574
0.938734601
0.904670273
0.905556414
0.904761589
0.904170725
0.95992226
0.944869425
0.904716482
0.904556447
0.905138025
0.904262208
0.904933932
0.90437603
0.904188711
0.986375815
0.988519236
0.966505845
0.965789495
0.956337402
0.951314758
0.950582821
0.939310814
0.904033485
0.902576256
0.949468774
0.949326225
0.943596968
0.938281737
0.903743876
0.902485299
0.944418475
0.942371231
0.903268272
0.902613399
0.947145182
0.945691985
0.902964183
0.902555851
0.950171917
0.947607394
0.902774479
0.902583495
0.954106497
0.945652739
0.902519184
0.903121108
0.902665378
0.902625075
0.966976578
0.968965533
0.955686681
0.95547997
0.945958516
0.948865294
0.938301731
0.903629132
0.901349201
0.947262319
0.940304046
0.903291127
0.902727896
0.902896875
0.902630956
0.902705756
0.961580315
0.970130067
0.948491314
0.903262902
0.901831934
0.960788406
0.953555885
0.90307865
0.90187813
0.958247516
0.955302506
0.902927125
0.902189739
0.957423653
0.955738268
0.902974297
0.902417259
0.957012098
0.955598143
0.903137179
0.902598145
0.956724956
0.955487331
0.952877514
0.942248463
0.903280428
0.902980249
0.955943369
0.938528055
0.902331605
0.90367234
0.902317051
0.951742444
0.95533785
0.903614892
0.903474433
0.959964095
0.947999984
0.902931763
0.904183714
0.903317746
0.958752685
0.958929357
0.90404132
0.904062662
0.904389021
0.966224505
0.969539536
0.955757282
0.961387825
0.946282117
0.904867054
0.904764606
0.954666288
0.95051365
0.951588723
0.940807849
0.905115266
0.905617417
0.954477284
0.940490342
0.905119595
0.905698123
0.90588529
0.952659168
0.951564978
0.90592379
0.905838937
0.90684404
0.961836548
0.969262166
0.948552106
0.90624296
0.906380703
0.906729522
0.9065155
0.90745463
0.906686026
0.90828845
0.982859929
0.984078175
0.968095816
0.969941701
0.955319234
0.962952321
0.942207223
0.907410479
0.907289781
0.908738971
0.953988952
0.952500378
0.907119746
0.908734815
0.956201272
0.951475012
0.906898166
0.908736598
0.957230039
0.951457919
0.906771162
0.908613406
0.957751154
0.951636915
0.906632068
0.908454254
0.958094614
0.951879716
0.906449966
0.90802537
0.958336515
0.958463828
0.954017004
0.940897051
0.90610633
0.907433165
0.956520474
0.956752974
0.941758249
0.906675582
0.906163186
0.906279709
0.954434466
0.941880427
0.906186859
0.906200414
0.905919116
0.959490939
0.959505606
0.955882494
0.940667112
0.905675353
0.905706413
0.905041555
0.953735725
0.948427553
0.905649327
0.905417615
0.905871615
0.905343246
0.905516189
0.977090488
0.97779963
0.962457249
0.962733943
0.950644159
0.956114358
0.938603131
0.905515586
0.904993004
0.904607678
0.949401832
0.94951052
0.904683821
0.904862115
0.957639298
0.958182626
0.943693927
0.904864118
0.90424904
0.943169344
0.904641315
0.904138134
0.963210563
0.963513293
0.942756252
0.904525947
0.904201116
0.960842002
0.961627385
0.941965841
0.904232634
0.904092289
0.959515482
0.960360915
0.940916442
0.904816856
0.90427789
0.904310283
0.904360247
0.903786127
0.967334133
0.967346944
0.962072639
0.943606058
0.904209679
0.904424557
0.904279867
0.904189534
0.971361776
0.972259149
0.955318282
0.961708721
0.939337874
0.904603199
0.903884847
0.904800694
0.903669236
0.961408118
0.958440444
0.90491
0.904264439
0.961655321
0.954870477
0.905029718
0.904500214
0.966754212
0.946453164
0.904453881
0.905146076
0.904501486
0.961345136
0.959342936
0.905075538
0.905148561
0.905287615
0.971250892
0.971721542
0.955856884
0.961445991
0.941349667
0.905174993
0.904868456
0.905440143
0.904945842
0.961317746
0.953884293
0.905696406
0.905406497
0.965763807
0.943467001
0.905572217
0.953223408
0.963311044
0.940522838
0.905526574
0.905639746
0.953791579
0.950144325
0.949370886
0.939795241
0.905315259
0.906055707
0.95178724
0.951889981
0.940191106
0.905613239
0.905503865
0.905595957
0.905800934
0.958720505
0.948901964
0.905168885
0.906041024
0.905196169
0.906528709
0.971740293
0.972260764
0.95716495
0.962233237
0.941151221
0.905814315
0.905405587
0.958471642
0.94246411
0.905240516
0.905152447
0.905632798
0.905332882
0.9057703
0.970926154
0.970958434
0.959464725
0.953661588
0.95464735
0.939930735
0.905301387
0.905241524
0.905376603
0.953904426
0.962741277
0.939349067
0.905261608
0.905434945
0.905115496
0.952563708
0.947019606
0.905326642
0.905218459
0.905625023
0.905191274
0.905707757
0.976146023
0.976581767
0.958749815
0.966125505
0.941004476
0.905112817
0.905041607
0.904929501
0.955546739
0.952108966
0.904625093
0.905639199
0.904701274
0.905657541
0.904807952
0.905561767
0.984474866
0.985125788
0.967487748
0.967166392
0.95323118
0.958263057
0.939480346
0.905015372
0.904759937
0.905109002
0.904561481
0.958046679
0.955545448
0.904925745
0.904845266
0.957293465
0.953459997
0.904769106
0.904994667
0.95784183
0.950714469
0.904526907
0.905270923
0.961950905
0.962628763
0.945260727
0.904858556
0.905007623
0.90449333
0.958486095
0.945501199
0.90420432
0.905156418
0.904023534
0.963392156
0.950904971
0.904724767
0.958105765
0.966355891
0.944416062
0.904678925
0.904102426
0.960645709
0.946716893
0.90443235
0.904369432
0.904604992
0.904264557
0.96869839
0.968836954
0.958925511
0.952365753
0.9554968
0.939048976
0.904465139
0.904501116
0.904274363
0.955672864
0.94186109
0.903629347
0.948373294
0.944762172
0.90427679
0.904329388
0.904309924
0.960341515
0.960508656
0.949104295
0.952957023
0.939440745
0.904558088
0.904307244
0.904513324
0.904453279
0.904432763
0.957741805
0.957780002
0.95738849
0.939679764
0.904516545
0.90476183
0.904543987
0.953236016
0.94693894
0.904514786
0.904755782
0.904684408
0.904849582
0.904827477
0.972051503
0.972459558
0.960554275
0.955567752
0.954966727
0.94101135
0.904986781
0.904640734
0.953636438
0.94434561
0.904798693
0.904820126
0.955433793
0.944626374
0.904658623
0.905061988
0.961541067
0.940694881
0.9047372
0.949480048
0.950304377
0.90468628
0.905190201
0.952460077
0.950050028
0.904639516
0.905469631
0.953987794
0.950468626
0.904632691
0.905686576
0.954978248
0.950866667
0.904663213
0.905857864
0.955595892
0.951162704
0.904716704
0.906002278
0.956020923
0.951344052
0.904773119
0.906133457
0.956438673
0.951382815
0.904811616
0.90627368
0.957139872
0.951027115
0.904781317
0.906441265
0.958908886
0.949420495
0.904578412
0.906611599
0.964513981
0.965183046
0.945123966
0.906156844
0.905147291
0.965642589
0.941379848
0.905791547
0.951296291
0.951296566
0.904741181
0.906065782
0.960086176
0.960377528
0.949836781
0.952803307
0.940671918
0.905375386
0.905152093
0.949320753
0.949284574
0.945024152
0.93998773
0.904973935
0.905338872
0.945190416
0.944083326
0.904388317
0.905583491
0.941677296
0.905405413
0.904702152
0.905185711
0.905047375
0.905114726
0.905344476
0.905218923
0.905367101
0.988886829
0.988905801
0.96935892
0.967751908
0.958579928
0.953203526
0.953378865
0.936211013
0.905219445
0.905072263
0.904852431
0.949356519
0.949074947
0.904795369
0.904897577
0.958803656
0.939653792
0.903998394
0.951596444
0.952723395
0.94655871
0.939761595
0.904667962
0.904600729
0.904415491
0.952564277
0.956020547
0.939242369
0.904448638
0.904632879
0.903856401
0.954916603
0.939777887
0.903729312
0.944781331
0.943443728
0.903971006
0.90477205
0.904002169
0.904548446
0.904062953
0.904387994
0.974251855
0.975625191
0.957157865
0.96490156
0.939724729
0.90410301
0.904347566
0.903466266
0.957846987
0.947423999
0.903858206
0.954785559
0.961705323
0.941938325
0.904242639
0.903410938
0.953702258
0.951660449
0.949084185
0.939723922
0.904360207
0.903411441
0.950492572
0.94254012
0.903806726
0.903624917
0.958212334
0.938612351
0.903440539
0.946281267
0.947127813
0.904075603
0.904361273
0.957360966
0.959303689
0.942757553
0.904179538
0.904276472
0.958315385
0.95847398
0.944763433
0.904542631
0.904299601
0.904620996
0.904291376
0.904737489
0.971353725
0.972284942
0.956899344
0.961408925
0.943458188
0.904799784
0.904487138
0.904950294
0.904585121
0.968356697
0.945496666
0.904772554
0.954501368
0.955154177
0.904955077
0.905296868
0.958959348
0.94959588
0.904728314
0.905716317
0.90487825
0.906053171
0.971479294
0.971996272
0.956601578
0.961042543
0.94086065
0.905410608
0.905454488
0.905460795
0.905789536
0.959955008
0.951609455
0.905200929
0.906264304
0.963486464
0.96384498
0.943603065
0.905579598
0.906017543
0.959538364
0.959708734
0.940884419
0.905324186
0.906119952
0.957544803
0.957762916
0.940903577
0.905595367
0.90580721
0.905605749
0.906197311
0.958809462
0.958271686
0.957349581
0.939540778
0.905694655
0.905793552
0.905977167
0.957213374
0.957268507
0.951816216
0.940793952
0.905576057
0.90539553
0.906306586
0.905493577
0.906719614
0.966554888
0.966934336
0.953890139
0.956909347
0.940973726
0.905404031
0.905286537
0.905831606
0.905422709
0.906414961
0.905646806
0.906620449
0.979366923
0.979606533
0.9631925
0.961821451
0.953661809
0.949197502
0.948832546
0.939633393
0.905848356
0.905610887
0.948996484
0.940306289
0.905525466
0.905706733
0.952177102
0.942047984
0.90536591
0.905581531
0.959250528
0.939854411
0.905364277
0.905453758
0.905248162
0.960533365
0.960552312
0.957380383
0.940032226
0.905095221
0.9051133
0.90498687
0.952953514
0.948889666
0.904774265
0.905553682
0.904939791
0.905590171
0.905190547
0.905426125
0.981208256
0.981275477
0.96530513
0.959249727
0.959018296
0.940432765
0.905275364
0.904388456
0.959778527
0.940010786
0.904912828
0.904849844
0.904829073
0.963967804
0.964883727
0.950589023
0.956261035
0.938363807
0.904797775
0.90484631
0.904763124
0.904903682
0.964799693
0.966041678
0.945179877
0.904857101
0.904058555
0.96365976
0.940716506
0.904439143
0.904749544
0.904180721
0.961443903
0.961816871
0.956000279
0.941268752
0.904711181
0.904727538
0.904415794
0.904774031
0.904266291
0.967991282
0.968181968
0.956045569
0.950788226
0.949565861
0.939365566
0.905074752
0.904726829
0.904797391
0.904789956
0.904633662
0.955419682
0.951173185
0.904570296
0.905557045
0.904713208
0.905366692
0.904868666
0.905423246
0.980377062
0.980936919
0.964271186
0.963469994
0.951204785
0.954340339
0.940016904
0.905634366
0.904914495
0.905362592
0.905018811
0.90513189
0.958639658
0.955246819
0.904866438
0.905745726
0.905006228
0.905768318
0.977783386
0.981537628
0.952877282
0.905282304
0.905520794
0.971557919
0.971819617
0.950340309
0.905374274
0.905121175
0.96268463
0.957538646
0.959939071
0.939467408
0.905281014
0.90541865
0.905193206
0.955932011
0.946886062
0.904987777
0.905532451
0.905055347
0.965522503
0.94757077
0.905068401
0.95505806
0.955520779
0.905120772
0.905456728
0.956972184
0.95396862
0.904949877
0.905715521
0.958652039
0.952485623
0.904757281
0.905936291
0.962156562
0.962470512
0.950162471
0.954555283
0.939505223
0.905306293
0.905375715
0.953796862
0.953900944
0.939986789
0.905369024
0.905142433
0.955936589
0.939078843
0.905158948
0.90527033
0.905146939
0.953546253
0.945803441
0.905117802
0.905169189
0.905430567
0.905296194
0.905491329
0.9738653
0.973856346
0.961358546
0.954578692
0.956858424
0.93927033
0.905196853
0.905314535
0.905204023
0.956011275
0.940584392
0.904991425
0.948146671
0.948388368
0.904947595
0.9054885
0.953111215
0.945985655
0.904505256
0.905861573
0.960576467
0.961008575
0.941942169
0.905361702
0.904767684
0.959234371
0.943131148
0.904755017
0.90520155
0.904792574
0.905391596
0.969526538
0.969870742
0.954479045
0.961151051
0.939758212
0.90483667
0.905016478
0.904786313
0.955840805
0.955969779
0.950854346
0.940094173
0.90485003
0.904734718
0.905056089
0.904721489
0.905255155
0.904810079
0.905440742
0.905030249
0.905526163
0.985155295
0.985208433
0.968516054
0.961663393
0.961077703
0.942305874
0.90493923
0.905316009
0.959204858
0.959393325
0.940866868
0.904982958
0.905179287
0.958708511
0.958888121
0.940063073
0.904904647
0.905099464
0.904832006
0.955772954
0.944552301
0.904640612
0.953761034
0.954042072
0.946789764
0.942129498
0.904606155
0.905161666
0.941157804
0.905158803
0.904703719
0.90520133
0.90478442
0.963584075
0.953965985
0.904987477
0.905131225
0.905202934
0.90511699
0.97318092
0.973292709
0.964676208
0.951972948
0.905415306
0.905154562
0.960384029
0.957081803
0.959789937
0.939212757
0.905609115
0.905705583
0.905626272
0.957395909
0.957820817
0.905841893
0.90595433
0.966603378
0.966662886
0.96447584
0.94683336
0.905772536
0.905775812
0.906033962
0.905797054
0.960932873
0.951547056
0.906045761
0.906006335
0.963587568
0.939835501
0.905327976
0.94897012
0.943392609
0.905560802
0.905661342
0.905523095
0.954387725
0.953329321
0.905282881
0.905792603
0.905514905
0.905721092
0.966310043
0.96636309
0.965179023
0.940868541
0.90543876
0.905596496
0.905532463
0.962246048
0.949202571
0.905196172
0.95690906
0.957584141
0.953364386
0.94094687
0.905444085
0.90553547
0.905573984
0.905599433
0.959605073
0.959621045
0.958548048
0.939791591
0.905591585
0.905749178
0.905589083
0.957484972
0.945211336
0.905454697
0.954934012
0.962873363
0.938740449
0.905713435
0.905910047
0.9056768
0.956584814
0.943670964
0.905610421
0.95394666
0.96166111
0.939286051
0.905829004
0.906055916
0.905755545
0.906298084
0.96863179
0.969056221
0.945658523
0.905798261
0.905763351
0.962592997
0.949856952
0.905441321
0.905998076
0.961490692
0.949822977
0.905098305
0.906232847
0.965687688
0.966127729
0.945229134
0.905745885
0.90535946
0.958073272
0.955578976
0.953245033
0.940301829
0.905447093
0.905318771
0.905612884
0.905465532
0.905520091
0.966447705
0.966498651
0.958676449
0.944821221
0.905285959
0.905345887
0.957344763
0.949026676
0.905043557
0.905541894
0.957264145
0.950185547
0.904860717
0.905676844
0.958278972
0.948730494
0.90460277
0.905922421
0.96309798
0.963602779
0.942231935
0.905517875
0.90488374
0.90561952
0.90487289
0.96792758
0.946763413
0.905236214
0.905350596
0.905047448
0.964937662
0.965066846
0.962264602
0.939766885
0.905108967
0.905326072
0.904805401
0.956791253
0.949335032
0.905239059
0.905198099
0.905311295
0.905324846
0.905234147
0.979105267
0.979253562
0.964115205
0.957439195
0.958797477
0.939904496
0.905042914
0.90515105
0.904831643
0.957617226
0.943987859
0.904432694
0.953821155
0.954771309
0.948562274
0.94033149
0.90491076
0.904731083
0.948755621
0.948706352
0.943720464
0.938885893
0.904877297
0.904844507
0.94571652
0.939879878
0.904403291
0.905342763
0.952323621
0.952465017
0.940067628
0.90549522
0.904419408
0.95027146
0.940675727
0.905079878
0.904827735
0.953482058
0.940181284
0.904793834
0.905228674
0.904887392
0.905386611
0.905002987
0.905630998
0.97496884
0.975364262
0.957732401
0.963572542
0.940422821
0.905083254
0.905621972
0.958391046
0.958638645
0.94089079
0.905532206
0.905084343
0.955317156
0.94473855
0.905399647
0.905335841
0.955284002
0.945859982
0.905393662
0.905506024
0.958539985
0.943011582
0.905212075
0.905644893
0.905419003
0.905815619
0.905674311
0.905928109
0.981349396
0.981416556
0.965339208
0.959839672
0.958614651
0.941849488
0.905812822
0.905695341
0.957026311
0.947321476
0.905599405
0.905900303
0.95775878
0.950064933
0.905454997
0.906108098
0.960345741
0.949802149
0.905208275
0.906326554
0.967192085
0.96764942
0.945175212
0.90562171
0.905813023
0.905580146
0.906071013
0.973423336
0.97381202
0.957050262
0.962456731
0.940350784
0.905605599
0.905690931
0.90571152
0.905739508
0.961570004
0.957007198
0.905660444
0.905916002
0.960736039
0.954243315
0.905689993
0.906014169
0.962298454
0.9499004
0.90554501
0.906121972
0.905801181
0.906041887
0.973974302
0.973994538
0.960201602
0.954708804
0.954369293
0.939965422
0.905996107
0.905675881
0.955508169
0.940436241
0.905585271
0.906247504
0.905758373
0.906647208
0.970668542
0.971375326
0.958316773
0.968353367
0.945213136
0.906337416
0.906030993
0.906872775
0.906389209
0.90712135
0.96135629
0.948229124
0.906064215
0.906583393
0.906142875
0.906361872
0.906092842
0.972762963
0.972958364
0.963547098
0.947261952
0.905968986
0.905833896
0.906025411
0.905929585
0.906020959
0.97267586
0.972716338
0.963487001
0.947724885
0.905617547
0.906234037
0.962213242
0.962479408
0.945460897
0.905909101
0.905736858
0.905956612
0.905901097
0.905916851
0.971272528
0.97127648
0.957388852
0.95277321
0.949677207
0.940379068
0.905953612
0.905696412
0.906057865
0.905694379
0.906167752
0.967253915
0.968429428
0.947583041
0.906004581
0.905779271
0.906078333
0.905957456
0.906007118
0.971173271
0.971174818
0.964530319
0.944110688
0.905744503
0.90612351
0.905848371
0.906157561
0.972727004
0.972941539
0.957703917
0.958527914
0.944095499
0.905636634
0.905965171
0.942797843
0.905898432
0.90595797
0.96569796
0.965969313
0.942824695
0.905973252
0.905474897
0.963330644
0.943606374
0.905708973
0.905614772
0.90573357
0.967212234
0.967480142
0.952691955
0.957121415
0.939019437
0.905958728
0.90553953
0.905992613
0.905492665
0.960889485
0.949283906
0.905828809
0.905636045
0.906038654
0.905687868
0.90616403
0.980809362
0.985654856
0.951286051
0.90556124
0.906110897
0.968647347
0.96898396
0.953618567
0.957896377
0.940268188
0.90595742
0.905512962
0.953425971
0.944414865
0.905514626
0.90588151
0.952681038
0.952738626
0.947403862
0.93935933
0.905383943
0.906085092
0.951896047
0.952001921
0.939417214
0.906268448
0.905415593
0.950321365
0.940710545
0.90585474
0.905675487
0.906091956
0.905707303
0.906319084
0.905944401
0.906364263
0.98402829
0.984063923
0.966275361
0.959317514
0.960783046
0.93988034
0.905939815
0.906285157
0.905962859
0.906574411
0.972938923
0.973431271
0.956307582
0.962476403
0.940041089
0.906288871
0.905962509
0.906232848
0.955382645
0.955394085
0.90575207
0.906717387
0.965427539
0.965793951
0.951366838
0.954076343
0.939192739
0.906214193
0.906352223
0.906127767
0.906646786
0.906146832
0.907013074
0.906225821
0.907362767
0.978627352
0.979624162
0.949317575
0.907071366
0.906168932
0.907303512
0.906286035
0.907343329
0.970191378
0.963906342
0.906173948
0.907774963
0.906310989
0.907906965
0.989891623
0.991212974
0.966457225
0.973894367
0.943858928
0.906945261
0.906305921
0.969395262
0.954611629
0.906569851
0.906347887
0.972116262
0.97225111
0.959542919
0.953989236
0.952354123
0.939624588
0.906241178
0.905825595
0.906415958
0.905791037
0.906578459
0.90590863
0.906712843
0.983946392
0.987573079
0.951497873
0.906082266
0.906365126
0.966880642
0.967112014
0.952469897
0.953988766
0.934646978
0.906575361
0.90616458
0.906597856
0.906063187
0.953327162
0.942633808
0.906300823
0.906245923
0.906560033
0.906159693
0.90682882
0.906166135
0.907121359
0.906233931
0.907424767
0.906362543
0.907743833
0.906585077
0.908169204
1.01309623
1.01386996
0.979579911
0.978283349
0.962248468
0.961426451
0.952092847
0.95891128
0.944304184
0.909408831
0.907409864
0.909407657
0.90746491
0.908202307
0.907409307
0.907512899
0.907218935
0.974721374
0.974821466
0.965579575
0.943711951
0.906363413
0.906631393
0.906439676
0.906634407
0.975379196
0.975424811
0.959994597
0.953515909
0.953234776
0.939505639
0.906111579
0.906443554
0.956017042
0.956167431
0.940081054
0.906234137
0.906133656
0.954746772
0.941818831
0.905561871
0.906612491
0.960128909
0.960506642
0.940804343
0.906293412
0.905636663
0.957411204
0.943568471
0.905888286
0.905726295
0.906136732
0.905883717
0.906168186
0.971718863
0.971796819
0.963500376
0.942855681
0.905629492
0.906233858
0.905730121
0.906386506
0.970208054
0.962698412
0.90561156
0.9066587
0.972171105
0.972704972
0.955155612
0.960104529
0.939836785
0.906013845
0.906051824
0.956939691
0.957103697
0.939840349
0.906148534
0.905909112
0.906260443
0.905901518
0.965546503
0.941675842
0.905866377
0.90609676
0.905787593
0.961032547
0.952322476
0.906100679
0.90599154
0.906393065
0.972594662
0.978349956
0.943961741
0.906131615
0.905907545
0.906202467
0.95853508
0.955285999
0.905548258
0.906856982
0.905687055
0.906980249
0.978275131
0.979107511
0.958989519
0.96251063
0.940651453
0.906325646
0.905730992
0.906396894
0.905940719
0.906325494
0.969167347
0.969296347
0.961749924
0.940548983
0.90569606
0.906411024
0.905765277
0.906602474
0.972578508
0.973141383
0.955862881
0.958110593
0.940556099
0.906289871
0.905700477
0.906450453
0.905803826
0.90658271
0.97358099
0.978765314
0.944807472
0.90605155
0.906551662
0.968845886
0.969268406
0.943553047
0.906375591
0.906258608
0.962925597
0.950649844
0.906291271
0.906515179
0.962519042
0.955923638
0.906306308
0.90664286
0.963306769
0.963359177
0.958409511
0.939349097
0.906489552
0.906597685
0.906620939
0.906805967
0.906652075
0.907079291
0.90674161
0.907400141
0.906863256
0.907670732
0.907098649
0.907830186
1.00909101
1.00922742
0.974220289
0.968792696
0.962379395
0.943685841
0.906673552
0.906353179
0.95977014
0.950328116
0.906157499
0.906407553
0.958783334
0.958882185
0.952701276
0.939537989
0.905733806
0.906318776
0.958978989
0.959236831
0.939766253
0.906208103
0.905769288
0.90620594
0.905838422
0.964219781
0.964394935
0.957488635
0.939960573
0.906015242
0.905980394
0.905869615
0.953296263
0.951520862
0.905611322
0.906408267
0.90584948
0.906303424
0.973249966
0.973450507
0.962908667
0.944787842
0.905673217
0.906329661
0.966125785
0.966472242
0.94280927
0.905835329
0.905876347
0.905730655
0.960050612
0.960113406
0.953135169
0.938733666
0.90586443
0.906113005
0.905882963
0.906247522
0.906037969
0.906306665
0.96765411
0.954232644
0.905773444
0.90686662
0.905848235
0.907112213
0.905941486
0.907386195
0.990377976
0.991647269
0.963915363
0.971049437
0.940285047
0.906666903
0.905888422
0.964448999
0.942789336
0.906070951
0.906378435
0.90617544
0.906593459
0.977011858
0.977353322
0.959818175
0.958735281
0.949229047
0.931134657
0.906473379
0.906781324
0.906584626
0.906585328
0.969807479
0.969831737
0.961876391
0.939690351
0.906227675
0.9064332
0.906264967
0.906620777
0.906435792
0.906670757
0.969102881
0.969213688
0.9563908
0.940182778
0.90582605
0.906649358
0.958489287
0.958810424
0.939853742
0.906359142
0.905599928
0.957090963
0.940068728
0.90578586
0.905781515
0.905716266
0.959706907
0.95978018
0.952832222
0.9377665
0.905754471
0.905958221
0.905706702
0.90614391
0.905868442
0.906263751
0.981177097
0.981296388
0.961746496
0.955415284
0.953846786
0.939422971
0.905788802
0.905961268
0.958126356
0.958266921
0.939907618
0.905793408
0.905859685
0.959563052
0.959688671
0.940004681
0.905562543
0.906014095
0.960208551
0.960435277
0.940493619
0.905973333
0.905449539
0.958153209
0.942994368
0.905702118
0.905527409
0.905876488
0.967117496
0.972261594
0.940779451
0.905591548
0.90560465
0.905758692
0.905620369
0.971502032
0.971530241
0.965402098
0.940358507
0.90565937
0.905737729
0.905529483
0.964911864
0.965119887
0.956434105
0.94025744
0.905692126
0.905755667
0.905887067
0.905728749
0.962900268
0.96293333
0.952091925
0.940259297
0.905960802
0.905644329
0.951048764
0.940145668
0.905895016
0.905711716
0.906157358
0.905801196
0.906158589
0.961787128
0.953413935
0.90562638
0.906650829
0.905800258
0.906817992
0.906072237
0.906902791
0.994482595
0.994705749
0.967360236
0.962442929
0.956668049
0.940509674
0.905932992
0.906013793
0.954200212
0.954237084
0.94766312
0.939140199
0.905536861
0.906174362
0.953443237
0.953618115
0.940201763
0.906265189
0.905264551
0.906336301
0.905331287
0.906346235
0.971489826
0.972059624
0.954325602
0.95759229
0.939293755
0.906061491
0.905454668
0.95375092
0.943011089
0.905561787
0.905708486
0.955850023
0.944408255
0.905161558
0.906021646
0.963565277
0.96391047
0.940513665
0.905559145
0.905614326
0.961987267
0.962149553
0.939819551
0.90575825
0.905600338
0.9059246
0.905701783
0.965468768
0.965615365
0.956724129
0.940020932
0.905886615
0.905740434
0.905891859
0.954382957
0.950142626
0.905316069
0.906624099
0.905458267
0.906787149
0.978752625
0.979668118
0.958691492
0.960497406
0.940249726
0.90626682
0.905556101
0.906424327
0.905663934
0.906540693
0.906045373
0.906414439
0.977216239
0.960683559
0.906464243
0.906247732
0.906756978
0.906423057
0.906862559
0.999443434
0.999606445
0.969894335
0.964322128
0.959221121
0.940741342
0.906147881
0.905960364
0.957819119
0.948371841
0.905737356
0.906128372
0.957109847
0.957161782
0.950983797
0.9378586
0.905827108
0.906280482
0.905868522
0.90640715
0.971061015
0.971513439
0.944124508
0.906063371
0.905967483
0.959323258
0.956938331
0.952050171
0.939478769
0.906152548
0.905830923
0.957941304
0.93907525
0.905991078
0.906126811
0.905925388
0.963090433
0.963352983
0.953719605
0.940169073
0.90602853
0.905922148
0.906171907
0.960095092
0.960306839
0.940840486
0.906069044
0.905711457
0.906322412
0.905731195
0.906566337
0.905962862
0.906728472
0.985676227
0.985932969
0.96313676
0.957693012
0.95370834
0.937278562
0.906413134
0.906282508
0.906461844
0.961480804
0.961651339
0.941354966
0.905910152
0.90652335
0.94546732
0.906378178
0.906242331
0.906314055
0.906585243
0.906511855
0.906816274
0.989437059
0.989532887
0.965707335
0.95889776
0.956819341
0.939014258
0.906807113
0.906496612
0.906901528
0.906621523
0.969010939
0.951253664
0.906769351
0.90653066
0.907060175
0.977080846
0.977558474
0.957159351
0.963005336
0.939004494
0.906751312
0.906915003
0.906663677
0.907122549
0.974147433
0.974483072
0.956181998
0.959421916
0.936541237
0.907189693
0.906632669
0.907070192
0.94949258
0.945951609
0.906171309
0.907456206
0.906398883
0.907309935
0.965828078
0.952021983
0.906219561
0.907443424
0.906367112
0.907717953
0.906584566
0.907795001
1.00093465
1.00143921
0.969788795
0.969345339
0.95429847
0.950238879
0.947081702
0.938891117
0.90660513
0.906260121
0.950981822
0.950928178
0.943639135
0.938686135
0.906428345
0.906156602
0.948097371
0.942319054
0.906103411
0.906227739
0.954561129
0.944693071
0.90605802
0.906138657
0.965380731
0.939735778
0.906023956
0.950283442
0.950302556
0.905836171
0.906432265
0.955840201
0.947909929
0.905588361
0.906684357
0.962434063
0.962804397
0.940221994
0.906319627
0.906263656
0.906297875
0.906532724
0.906539415
0.906521797
0.96665516
0.955737895
0.906733614
0.906560263
0.907159387
0.906557348
0.907501125
0.906818707
0.907600874
1.00025501
1.00028364
0.968223477
0.963186193
0.957478126
0.940148641
0.906631959
0.90650264
0.958404551
0.945577159
0.905977042
0.906963697
0.965240533
0.965697491
0.943095723
0.906715565
0.906132476
0.906963046
0.90654195
0.907084333
0.986072031
0.986136986
0.96490099
0.962504978
0.962970481
0.942304198
0.906831444
0.906875993
0.907195893
0.957600345
0.957847593
0.940687263
0.935436401
0.906964147
0.906835322
0.944684108
0.940839943
0.906476697
0.906881624
0.951954287
0.939599522
0.906216731
0.907126722
0.906362309
0.907303235
0.906670883
0.907351905
0.982960454
0.983114323
0.968787875
0.943056957
0.906529195
0.907263584
0.90658755
0.907516994
0.984349143
0.985103064
0.959956284
0.965065103
0.939073688
0.907096261
0.906814124
0.9071112
0.906897396
0.961371259
0.95343479
0.906987869
0.907073478
0.961248405
0.942833588
0.906589684
0.907324708
0.906700137
0.907424586
0.906923419
0.907400991
0.991672404
0.991757018
0.962552123
0.958328869
0.951803171
0.939600774
0.906790656
0.906360755
0.952713229
0.941246913
0.906148095