/*--------------------------------*- C++ -*----------------------------------*\
| =========                 |                                                 |
| \\      /  F ield         | OpenFOAM: The Open Source CFD Toolbox           |
|  \\    /   O peration     | Version:  2306                                  |
|   \\  /    A nd           | Website:  www.openfoam.com                      |
|    \\/     M anipulation  |                                                 |
\*---------------------------------------------------------------------------*/
FoamFile
{
    version     2.0;
    format      ascii;
    arch        "LSB;label=32;scalar=64";
    class       volScalarField;
    location    "0.00022";
    object      p;
}
// * * * * * * * * * * * * * * * * * * * * * * * * * * * * * * * * * * * * * //

dimensions      [1 -1 -2 0 0 0 0];

internalField   nonuniform List<scalar> 
530
(
101525.236
101525.087
101524.943
101524.805
101524.671
101524.544
101524.421
101524.304
101524.193
101524.087
101523.987
101523.892
101523.802
101523.718
101523.64
101523.567
101523.5
101523.438
101523.382
101523.332
101523.287
101523.248
101523.214
101523.186
101523.164
101523.147
101523.136
101523.131
101523.131
101523.136
101523.147
101523.164
101523.186
101523.213
101523.246
101523.285
101523.329
101523.378
101523.433
101523.492
101523.558
101523.628
101523.703
101523.784
101523.87
101523.961
101524.057
101524.158
101524.264
101524.374
101524.49
101524.61
101524.735
101524.865
101525
101525.139
101525.282
101525.43
101525.582
101525.739
101525.899
101526.064
101526.234
101526.407
101526.584
101526.765
101526.95
101527.138
101527.331
101527.527
101527.726
101527.929
101528.135
101528.345
101528.558
101528.774
101528.993
101529.215
101529.44
101529.667
101529.898
101530.131
101530.367
101530.605
101530.845
101531.088
101531.333
101531.581
101531.83
101532.081
101532.334
101532.589
101532.846
101533.104
101533.364
101533.625
101533.888
101534.152
101534.417
101534.683
101534.95
101535.218
101535.487
101535.757
101536.027
101536.298
101536.569
101536.841
101537.113
101537.386
101537.658
101537.931
101538.203
101538.476
101538.748
101539.02
101539.292
101539.563
101539.834
101540.104
101540.373
101540.642
101540.911
101541.178
101541.444
101541.709
101541.973
101542.236
101542.498
101542.758
101543.017
101543.275
101543.531
101543.785
101544.038
101544.289
101544.539
101544.786
101545.032
101545.276
101545.517
101545.757
101545.995
101546.23
101546.463
101546.694
101546.923
101547.149
101547.373
101547.594
101547.813
101548.029
101548.243
101548.454
101548.663
101548.868
101549.071
101549.271
101549.468
101549.663
101549.854
101550.043
101550.229
101550.411
101550.591
101550.767
101550.941
101551.111
101551.278
101551.443
101551.604
101551.761
101551.916
101552.067
101552.215
101552.36
101552.502
101552.64
101552.775
101552.907
101553.036
101553.161
101553.282
101553.401
101553.516
101553.628
101553.736
101553.842
101553.943
101554.042
101554.137
101554.229
101554.317
101554.403
101554.484
101554.563
101554.638
101554.71
101554.779
101554.844
101554.906
101554.965
101555.021
101555.073
101555.123
101555.169
101555.212
101555.251
101555.288
101555.321
101555.352
101555.379
101555.404
101555.425
101555.443
101555.458
101555.471
101555.48
101555.487
101555.49
101555.491
101555.489
101555.484
101555.477
101555.466
101555.453
101555.438
101555.419
101555.398
101555.375
101555.349
101555.32
101555.289
101555.256
101555.22
101555.182
101555.142
101555.099
101555.054
101555.007
101554.957
101554.906
101554.852
101554.796
101554.739
101554.679
101554.617
101554.554
101554.488
101554.421
101554.352
101554.282
101554.209
101554.135
101554.06
101553.982
101553.904
101553.824
101553.742
101553.659
101553.575
101553.489
101553.402
101553.314
101553.225
101553.134
101553.043
101552.951
101552.857
101552.763
101552.668
101552.571
101552.474
101552.377
101552.278
101552.179
101552.08
101551.98
101551.879
101551.777
101551.676
101551.574
101551.471
101551.369
101551.266
101551.162
101551.059
101550.956
101550.852
101550.749
101550.645
101550.542
101550.438
101550.335
101550.232
101550.129
101550.027
101549.924
101549.823
101549.721
101549.62
101549.52
101549.42
101549.321
101549.222
101549.124
101549.027
101548.93
101548.834
101548.739
101548.645
101548.552
101548.46
101548.369
101548.279
101548.189
101548.101
101548.014
101547.929
101547.844
101547.761
101547.679
101547.598
101547.519
101547.441
101547.364
101547.289
101547.216
101547.143
101547.073
101547.004
101546.936
101546.87
101546.806
101546.743
101546.683
101546.623
101546.566
101546.51
101546.456
101546.404
101546.354
101546.306
101546.259
101546.214
101546.171
101546.13
101546.091
101546.054
101546.019
101545.986
101545.955
101545.925
101545.898
101545.873
101545.849
101545.828
101545.808
101545.791
101545.776
101545.762
101545.751
101545.741
101545.734
101545.728
101545.725
101545.723
101545.723
101545.725
101545.73
101545.736
101545.743
101545.753
101545.765
101545.778
101545.793
101545.81
101545.829
101545.85
101545.872
101545.896
101545.921
101545.948
101545.977
101546.007
101546.039
101546.072
101546.106
101546.142
101546.18
101546.218
101546.258
101546.299
101546.341
101546.385
101546.429
101546.474
101546.521
101546.568
101546.616
101546.665
101546.714
101546.765
101546.815
101546.867
101546.919
101546.971
101547.024
101547.076
101547.129
101547.183
101547.236
101547.289
101547.343
101547.396
101547.449
101547.501
101547.553
101547.605
101547.656
101547.707
101547.757
101547.806
101547.855
101547.902
101547.948
101547.994
101548.038
101548.081
101548.122
101548.162
101548.201
101548.238
101548.273
101548.307
101548.339
101548.368
101548.396
101548.422
101548.445
101548.466
101548.485
101548.501
101548.515
101548.526
101548.534
101548.54
101548.542
101548.542
101548.539
101548.532
101548.522
101548.509
101548.493
101548.473
101548.449
101548.422
101548.391
101548.356
101548.318
101548.275
101548.228
101548.178
101548.123
101548.063
101548
101547.932
101547.86
101547.783
101547.701
101547.615
101547.524
101547.428
101547.327
101547.222
101547.111
101546.995
101546.874
101546.748
101546.617
101546.481
101546.339
101546.192
101546.039
101545.881
101545.717
101545.548
101545.373
101545.193
101545.007
101544.815
101544.617
101544.414
101544.205
101543.99
101543.769
101543.542
101543.309
101543.071
101542.826
101542.575
101542.319
101542.056
101541.787
101541.513
101541.232
101540.945
101540.652
101540.354
101540.049
101539.737
101539.419
101539.097
101538.769
101538.434
101538.09
101537.742
101537.393
101537.035
101536.665
101536.292
101535.917
101535.537
101535.146
101534.747
101534.346
101533.944
101533.532
101533.11
101532.685
)
;

boundaryField
{
    closed
    {
        type            zeroGradient;
    }
    open
    {
        type            waveTransmissive;
        gamma           1.25;
        fieldInf        101325;
        lInf            1;
        value           nonuniform List<scalar> 0();
    }
    sides
    {
        type            empty;
    }
    procBoundary2to1
    {
        type            processor;
        value           uniform 101525.39;
    }
    procBoundary2to3
    {
        type            processor;
        value           uniform 101532.258;
    }
}


// ************************************************************************* //
