/*--------------------------------*- C++ -*----------------------------------*\
| =========                 |                                                 |
| \\      /  F ield         | OpenFOAM: The Open Source CFD Toolbox           |
|  \\    /   O peration     | Version:  2306                                  |
|   \\  /    A nd           | Website:  www.openfoam.com                      |
|    \\/     M anipulation  |                                                 |
\*---------------------------------------------------------------------------*/
FoamFile
{
    version     2.0;
    format      ascii;
    arch        "LSB;label=32;scalar=64";
    class       volScalarField;
    location    "0.00022";
    object      prefDPV_T;
}
// * * * * * * * * * * * * * * * * * * * * * * * * * * * * * * * * * * * * * //

dimensions      [1 -1 -1 -1 0 0 0];

internalField   nonuniform List<scalar> 
530
(
5.97483522e-10
5.97537756e-10
5.97596284e-10
5.9756875e-10
5.97520452e-10
5.97531522e-10
5.9756674e-10
5.97564179e-10
5.97540547e-10
5.97540699e-10
5.97553491e-10
5.97555118e-10
5.97548835e-10
5.97546685e-10
5.97549526e-10
5.97551539e-10
5.97550383e-10
5.97548789e-10
5.97549241e-10
5.97550308e-10
5.97550104e-10
5.97549452e-10
5.97549606e-10
5.97550038e-10
5.97549838e-10
5.97549509e-10
5.9754982e-10
5.9755008e-10
5.97549562e-10
5.9754936e-10
5.97550231e-10
5.9755039e-10
5.97549008e-10
5.9754886e-10
5.97550895e-10
5.97551098e-10
5.97548301e-10
5.97547911e-10
5.97551478e-10
5.97552283e-10
5.97548142e-10
5.97546634e-10
5.97550885e-10
5.97553373e-10
5.97549646e-10
5.97546074e-10
5.97548602e-10
5.97553098e-10
5.975523e-10
5.9754729e-10
5.97547024e-10
5.97550252e-10
5.97552146e-10
5.975513e-10
5.97548265e-10
5.97547532e-10
5.97549393e-10
5.97552102e-10
5.97551734e-10
5.97548067e-10
5.97547266e-10
5.97550043e-10
5.97552209e-10
5.97550891e-10
5.97547858e-10
5.97548081e-10
5.97550817e-10
5.97551237e-10
5.97549513e-10
5.97548733e-10
5.97549811e-10
5.97550545e-10
5.97549593e-10
5.97548902e-10
5.97550181e-10
5.97551088e-10
5.97549295e-10
5.97547837e-10
5.97550043e-10
5.97552387e-10
5.97550043e-10
5.9754653e-10
5.97548609e-10
5.97553541e-10
5.97552261e-10
5.97545674e-10
5.97545966e-10
5.97553535e-10
5.97554474e-10
5.97547387e-10
5.97544503e-10
5.97550181e-10
5.97555124e-10
5.97551587e-10
5.97544924e-10
5.9754603e-10
5.97553703e-10
5.97553782e-10
5.97547822e-10
5.9754623e-10
5.97550081e-10
5.97552438e-10
5.97550392e-10
5.97548183e-10
5.97549003e-10
5.97550335e-10
5.97550156e-10
5.97549954e-10
5.97550086e-10
5.97549218e-10
5.97548632e-10
5.97550428e-10
5.97551767e-10
5.97549274e-10
5.97546884e-10
5.97549831e-10
5.97553685e-10
5.97550601e-10
5.97544772e-10
5.9754736e-10
5.97555796e-10
5.97554609e-10
5.97543066e-10
5.97543149e-10
5.97555412e-10
5.9755771e-10
5.97546391e-10
5.97541258e-10
5.97550307e-10
5.97557935e-10
5.97551867e-10
5.97542924e-10
5.97545949e-10
5.97554831e-10
5.97554006e-10
5.9754655e-10
5.97546613e-10
5.97551263e-10
5.97551641e-10
5.9754908e-10
5.97548799e-10
5.97550465e-10
5.97550507e-10
5.97548805e-10
5.97548761e-10
5.97550732e-10
5.97551259e-10
5.97549427e-10
5.97547965e-10
5.97549072e-10
5.97551583e-10
5.9755134e-10
5.97548397e-10
5.97548056e-10
5.97550383e-10
5.97551185e-10
5.97549647e-10
5.97548926e-10
5.97549945e-10
5.97550136e-10
5.9754903e-10
5.97549424e-10
5.97551541e-10
5.97550782e-10
5.97546906e-10
5.9754734e-10
5.97553515e-10
5.97553519e-10
5.97546302e-10
5.97544886e-10
5.97552029e-10
5.97555454e-10
5.97549566e-10
5.9754384e-10
5.97547281e-10
5.97555293e-10
5.97554559e-10
5.9754603e-10
5.97544228e-10
5.97549915e-10
5.97555221e-10
5.97553553e-10
5.97545189e-10
5.97544253e-10
5.97551393e-10
5.9755606e-10
5.97551406e-10
5.97543356e-10
5.97545135e-10
5.9755602e-10
5.97555827e-10
5.9754501e-10
5.97543038e-10
5.97552638e-10
5.97556829e-10
5.97548907e-10
5.97542844e-10
5.97548734e-10
5.97556089e-10
5.97552293e-10
5.97544524e-10
5.97546528e-10
5.97553779e-10
5.97553042e-10
5.97546781e-10
5.97546949e-10
5.97552108e-10
5.97552277e-10
5.97547801e-10
5.97547074e-10
5.97551366e-10
5.97553093e-10
5.9754907e-10
5.97545757e-10
5.97548942e-10
5.97554209e-10
5.97552595e-10
5.97545353e-10
5.97545617e-10
5.97553183e-10
5.97554368e-10
5.97548063e-10
5.97545325e-10
5.97549876e-10
5.97553551e-10
5.97550806e-10
5.97547073e-10
5.97548425e-10
5.97551178e-10
5.97550655e-10
5.97549411e-10
5.97549809e-10
5.97549934e-10
5.97548542e-10
5.97548863e-10
5.97552238e-10
5.97552095e-10
5.97546547e-10
5.97545975e-10
5.9755279e-10
5.97554933e-10
5.97547824e-10
5.9754364e-10
5.97550053e-10
5.97556328e-10
5.97551463e-10
5.97543377e-10
5.97546257e-10
5.97555449e-10
5.9755457e-10
5.97545278e-10
5.97545252e-10
5.9755221e-10
5.97553353e-10
5.9754902e-10
5.97547558e-10
5.97549629e-10
5.97550553e-10
5.97549978e-10
5.97550028e-10
5.97550384e-10
5.97549016e-10
5.97548143e-10
5.97550149e-10
5.97552123e-10
5.97550598e-10
5.97547289e-10
5.97547695e-10
5.97551607e-10
5.9755223e-10
5.97549471e-10
5.9754748e-10
5.9754863e-10
5.9755162e-10
5.9755149e-10
5.97548754e-10
5.97548097e-10
5.97550044e-10
5.97551296e-10
5.97549939e-10
5.97548348e-10
5.97549349e-10
5.97551214e-10
5.97550475e-10
5.9754827e-10
5.9754874e-10
5.97551263e-10
5.97551111e-10
5.97548463e-10
5.97548427e-10
5.97550672e-10
5.97550937e-10
5.97549235e-10
5.97548918e-10
5.97550146e-10
5.97550366e-10
5.97549351e-10
5.97549306e-10
5.97550352e-10
5.97550304e-10
5.97549057e-10
5.97549093e-10
5.975505e-10
5.97550502e-10
5.97549258e-10
5.9754916e-10
5.97549995e-10
5.97550122e-10
5.97549796e-10
5.97549761e-10
5.97549696e-10
5.97549442e-10
5.97549755e-10
5.97550408e-10
5.97549953e-10
5.9754889e-10
5.97549431e-10
5.97550923e-10
5.97550338e-10
5.97548291e-10
5.97548822e-10
5.9755161e-10
5.97551388e-10
5.97547687e-10
5.9754765e-10
5.97551555e-10
5.9755223e-10
5.97548653e-10
5.9754734e-10
5.97550137e-10
5.97551802e-10
5.97549949e-10
5.97548416e-10
5.97549465e-10
5.97550481e-10
5.9754985e-10
5.97549362e-10
5.97550157e-10
5.97550417e-10
5.97548966e-10
5.97548493e-10
5.97550529e-10
5.97551862e-10
5.97549934e-10
5.9754707e-10
5.97547845e-10
5.9755259e-10
5.97552897e-10
5.97548419e-10
5.97545969e-10
5.97548919e-10
5.97553655e-10
5.97552766e-10
5.97546427e-10
5.97546102e-10
5.9755147e-10
5.97553437e-10
5.97549642e-10
5.97546522e-10
5.97548754e-10
5.97552469e-10
5.97551598e-10
5.97547612e-10
5.97547695e-10
5.9755105e-10
5.97551868e-10
5.97549714e-10
5.97547826e-10
5.97548433e-10
5.97551265e-10
5.97551777e-10
5.97549817e-10
5.97547467e-10
5.97548012e-10
5.9755197e-10
5.97552518e-10
5.97548597e-10
5.97546436e-10
5.97549615e-10
5.97553375e-10
5.97551368e-10
5.97546239e-10
5.97546846e-10
5.97552915e-10
5.97553191e-10
5.97547956e-10
5.97546182e-10
5.97549982e-10
5.97553275e-10
5.97551245e-10
5.97546661e-10
5.97547099e-10
5.97552031e-10
5.9755273e-10
5.97548975e-10
5.97546921e-10
5.97549194e-10
5.97552218e-10
5.97551511e-10
5.97547978e-10
5.97547925e-10
5.97550074e-10
5.97551148e-10
5.97550922e-10
5.97549459e-10
5.97547928e-10
5.9754827e-10
5.97551946e-10
5.97552824e-10
5.97548251e-10
5.97545274e-10
5.97549806e-10
5.97555447e-10
5.97551937e-10
5.97543501e-10
5.97545089e-10
5.97555957e-10
5.97555823e-10
5.97545198e-10
5.97543416e-10
5.97552058e-10
5.97555735e-10
5.97549674e-10
5.97544794e-10
5.97548162e-10
5.97553415e-10
5.97552504e-10
5.97547549e-10
5.97547424e-10
5.97549914e-10
5.97551287e-10
5.97550931e-10
5.97549337e-10
5.97548468e-10
5.97549033e-10
5.97550913e-10
5.97550879e-10
5.97549108e-10
5.9754882e-10
5.97550105e-10
5.97550437e-10
5.97549439e-10
5.97549242e-10
5.97550388e-10
5.97550495e-10
5.97548862e-10
5.97548604e-10
5.97550682e-10
5.97551476e-10
5.97549376e-10
5.97547675e-10
5.97549201e-10
5.97551975e-10
5.97551486e-10
5.97547806e-10
5.97547549e-10
5.97550797e-10
5.97552272e-10
5.97549806e-10
5.97547139e-10
5.97548757e-10
5.97552449e-10
5.97551764e-10
5.97547088e-10
5.97547204e-10
5.97552022e-10
5.97552685e-10
5.97548309e-10
5.97546707e-10
5.97550227e-10
5.97552751e-10
5.97550463e-10
5.97547183e-10
5.97547923e-10
5.97551826e-10
5.97551867e-10
5.97549038e-10
5.97547706e-10
5.97549191e-10
5.97551787e-10
5.97551404e-10
5.97547921e-10
5.97547585e-10
5.97551061e-10
5.97552412e-10
5.97549209e-10
5.97546885e-10
5.97549536e-10
5.97552588e-10
5.97550696e-10
5.97547392e-10
5.97548577e-10
5.97551456e-10
5.97550729e-10
5.97548755e-10
5.97549468e-10
5.9755078e-10
5.97549038e-10
5.97547351e-10
5.97551772e-10
5.97556359e-10
5.97548014e-10
5.97533799e-10
5.97544251e-10
5.97583231e-10
5.97578265e-10
5.97492697e-10
5.97478362e-10
5.97616171e-10
5.97695847e-10
5.97517308e-10
5.9730093e-10
5.97462247e-10
5.97919802e-10
5.97852013e-10
5.97116709e-10
5.97056395e-10
5.97899597e-10
5.98246209e-10
5.9743184e-10
5.96787499e-10
5.9735717e-10
5.98357864e-10
5.98043725e-10
5.96885158e-10
5.9694459e-10
5.98027855e-10
5.98134375e-10
5.97331088e-10
5.97095042e-10
)
;

boundaryField
{
    closed
    {
        type            calculated;
        value           nonuniform List<scalar> 0();
    }
    open
    {
        type            calculated;
        value           nonuniform List<scalar> 0();
    }
    sides
    {
        type            empty;
    }
    procBoundary2to1
    {
        type            processor;
        value           uniform 5.97542903e-10;
    }
    procBoundary2to3
    {
        type            processor;
        value           uniform 5.97591191e-10;
    }
}


// ************************************************************************* //
