/*--------------------------------*- C++ -*----------------------------------*\
| =========                 |                                                 |
| \\      /  F ield         | OpenFOAM: The Open Source CFD Toolbox           |
|  \\    /   O peration     | Version:  2306                                  |
|   \\  /    A nd           | Website:  www.openfoam.com                      |
|    \\/     M anipulation  |                                                 |
\*---------------------------------------------------------------------------*/
FoamFile
{
    version     2.0;
    format      ascii;
    arch        "LSB;label=32;scalar=64";
    class       volScalarField;
    location    "0.00022";
    object      sourcePV;
}
// * * * * * * * * * * * * * * * * * * * * * * * * * * * * * * * * * * * * * //

dimensions      [1 -3 -1 0 0 0 0];

internalField   nonuniform List<scalar> 
530
(
0.0819435294
0.0816053038
0.0812410323
0.0814123068
0.0817131486
0.0816441499
0.0814248163
0.0814407591
0.0815879213
0.081586974
0.0815072965
0.0814971692
0.0815362964
0.0815496869
0.0815319912
0.0815194571
0.0815266515
0.0815365811
0.0815337668
0.0815271229
0.081528388
0.0815324494
0.0815314909
0.0815288018
0.0815300489
0.0815320977
0.0815301618
0.0815285398
0.081531766
0.0815330253
0.0815275977
0.0815266072
0.0815352139
0.0815361354
0.081523464
0.0815222001
0.0815396196
0.0815420507
0.0815198341
0.0815148233
0.0815406073
0.081550003
0.0815235292
0.0815080316
0.0815312414
0.0815534879
0.0815377453
0.0815097443
0.0815147145
0.0815459177
0.081547573
0.0815274684
0.081515676
0.0815209399
0.0815398423
0.0815444107
0.0815328174
0.081515947
0.0815182372
0.081541075
0.0815460628
0.0815287681
0.0815152827
0.0815234887
0.0815423769
0.0815409926
0.081523948
0.0815213352
0.0815320722
0.0815369286
0.0815302127
0.081525643
0.0815315713
0.0815358747
0.0815279107
0.0815222613
0.0815334283
0.0815425126
0.0815287684
0.0815141746
0.0815287722
0.0815506523
0.0815377035
0.0815069848
0.0815149566
0.0815559836
0.0815541613
0.0815070247
0.0815011789
0.0815453151
0.0815632725
0.0815279121
0.0814971295
0.0815191533
0.0815606549
0.0815537673
0.0815059794
0.0815054865
0.0815426006
0.0815525161
0.0815285366
0.0815138587
0.0815265985
0.0815403519
0.0815352468
0.0815269525
0.0815280693
0.0815293229
0.0815285059
0.08153391
0.0815375559
0.0815263726
0.0815180344
0.0815335584
0.0815484433
0.0815300897
0.081506091
0.081525296
0.0815616017
0.0815454785
0.0814929478
0.0815003399
0.0815722286
0.0815717123
0.0814953398
0.0814810303
0.0815515174
0.0815834864
0.0815271259
0.0814796276
0.0815174101
0.0815731095
0.0815542688
0.0814989532
0.081504093
0.0815505268
0.0815501334
0.0815211743
0.0815188188
0.0815347672
0.0815365156
0.0815261408
0.0815258783
0.0815364837
0.0815367565
0.081524477
0.0815211984
0.0815326072
0.0815417142
0.0815348192
0.081519181
0.0815206951
0.081539021
0.0815411464
0.0815266516
0.08152166
0.0815312353
0.0815357297
0.0815293791
0.0815281886
0.0815350812
0.0815326259
0.0815194399
0.0815241672
0.0815483061
0.081545607
0.0815071526
0.0815071225
0.0815520714
0.0815608876
0.0815164043
0.0814950783
0.0815317398
0.0815674031
0.0815459756
0.0814960762
0.0815006499
0.0815537669
0.0815649904
0.0815295703
0.0814965289
0.0815069111
0.0815589999
0.0815648329
0.081520366
0.0814913045
0.0815202856
0.0815704218
0.0815593367
0.0814915529
0.0814927538
0.0815601146
0.0815724024
0.0815126079
0.0814865125
0.0815358432
0.08157361
0.0815369256
0.081491122
0.0815147614
0.0815631476
0.081550662
0.0815055079
0.0815100963
0.0815490842
0.0815480401
0.0815159137
0.0815148607
0.081542731
0.08154726
0.0815205346
0.0815097754
0.0815348326
0.0815554619
0.0815356262
0.0815028258
0.0815128773
0.0815579818
0.0815563373
0.0815092188
0.08150184
0.0815411002
0.0815581564
0.081529811
0.0815069269
0.0815240176
0.0815472685
0.0815388445
0.081521703
0.0815249605
0.0815327081
0.0815302308
0.0815294467
0.081538116
0.0815361208
0.081515102
0.0815159908
0.0815505452
0.0815541052
0.0815116654
0.0814983186
0.0815425883
0.0815686505
0.0815287086
0.0814896319
0.0815199267
0.0815702912
0.081552351
0.0814951082
0.0815005806
0.0815584491
0.0815586076
0.0815152789
0.081508159
0.0815351434
0.0815442494
0.0815313495
0.0815255954
0.0815291762
0.0815288673
0.0815266455
0.0815351674
0.0815406065
0.0815281123
0.0815158163
0.0815253145
0.0815459235
0.081543396
0.0815190307
0.081515154
0.0815323321
0.081544735
0.0815375735
0.0815189491
0.0815197618
0.0815368012
0.0815408927
0.0815287628
0.0815209675
0.0815294169
0.0815393285
0.0815330939
0.0815214797
0.0815260819
0.0815398121
0.0815368864
0.0815211743
0.0815221206
0.0815386138
0.0815388326
0.081524851
0.0815232048
0.0815338006
0.081535776
0.0815281281
0.0815267602
0.0815330789
0.0815333594
0.0815268454
0.0815271463
0.0815349134
0.081534685
0.0815259224
0.0815259143
0.0815336603
0.08153427
0.0815290696
0.0815282813
0.0815303082
0.0815305301
0.0815309343
0.0815325124
0.0815305648
0.0815264989
0.0815293329
0.0815359509
0.0815325805
0.0815232888
0.0815269325
0.0815396839
0.081536378
0.0815190121
0.0815203979
0.0815434431
0.0815436724
0.0815193534
0.0815151531
0.0815374306
0.0815456073
0.0815281836
0.0815178158
0.0815293556
0.081538901
0.0815323693
0.081526042
0.0815299713
0.08153301
0.0815280589
0.0815264391
0.0815354767
0.0815384223
0.0815257426
0.0815174454
0.0815294509
0.081547284
0.0815424595
0.0815129098
0.0815109985
0.0815388875
0.0815541433
0.0815357685
0.0815062809
0.081511814
0.0815512914
0.0815533164
0.0815198842
0.0815076334
0.0815312691
0.0815506996
0.0815367977
0.0815136646
0.0815190872
0.0815439109
0.0815433936
0.081522498
0.0815174069
0.081530821
0.0815425763
0.0815387976
0.0815211584
0.0815179696
0.0815301794
0.0815448168
0.0815414207
0.0815167736
0.081513356
0.081537779
0.0815512343
0.0815314382
0.0815080239
0.0815205221
0.0815524606
0.0815486821
0.0815108875
0.0815091663
0.0815417673
0.0815528179
0.0815291521
0.0815086457
0.0815212829
0.081549833
0.0815471051
0.081516391
0.0815120375
0.0815354248
0.0815482123
0.0815340587
0.0815152286
0.0815196316
0.0815416326
0.0815419599
0.0815285758
0.0815218895
0.0815232944
0.0815324099
0.0815419417
0.08153981
0.0815169194
0.0815114549
0.0815399327
0.0815584704
0.0815302445
0.0814951169
0.0815169768
0.0815695191
0.0815596244
0.081491946
0.0814927812
0.0815589486
0.0815700489
0.0815162195
0.0814933277
0.0815310703
0.0815614605
0.0815404869
0.081507772
0.0815134465
0.0815443055
0.0815450808
0.0815295763
0.081521024
0.0815232404
0.0815331678
0.0815385808
0.0815350588
0.0815233509
0.0815235654
0.0815345934
0.0815363879
0.0815283824
0.0815263157
0.081532532
0.081533759
0.0815266206
0.0815259549
0.081536126
0.0815377346
0.0815247916
0.0815198459
0.0815329227
0.0815435189
0.0815340171
0.0815167388
0.0815197829
0.0815427017
0.0815443007
0.0815240748
0.0815148919
0.0815302486
0.0815468579
0.0815367771
0.0815137889
0.0815180527
0.0815471754
0.0815464523
0.0815164469
0.0815123205
0.0815395698
0.081549547
0.081527627
0.0815119047
0.0815261534
0.0815465843
0.0815419729
0.0815176684
0.0815174132
0.0815350284
0.0815433273
0.0815340793
0.0815179092
0.0815202971
0.0815419866
0.08154408
0.0815224288
0.0815140171
0.081533965
0.0815484418
0.0815319252
0.0815129195
0.0815247032
0.08154528
0.0815378983
0.0815199694
0.0815245
0.0815367905
0.0815323528
0.081524179
0.081535029
0.081545539
0.0815180027
0.0814894434
0.081541407
0.0816299682
0.0815648494
0.081322215
0.0813531179
0.0818862732
0.0819757777
0.0811174521
0.0806231015
0.0817328298
0.083087085
0.0820765376
0.0792405288
0.0796580455
0.084248216
0.0846304468
0.0793648489
0.0772436691
0.0822665827
0.086343499
0.0827340172
0.0765652863
0.0784797171
0.0857192917
0.0853402712
0.0785773129
0.0779255046
0.0828978493
0.0843856398
)
;

boundaryField
{
    closed
    {
        type            calculated;
        value           nonuniform List<scalar> 0();
    }
    open
    {
        type            calculated;
        value           nonuniform List<scalar> 0();
    }
    sides
    {
        type            empty;
    }
    procBoundary2to1
    {
        type            processor;
        value           uniform 0;
    }
    procBoundary2to3
    {
        type            processor;
        value           uniform 0;
    }
}


// ************************************************************************* //
