/*--------------------------------*- C++ -*----------------------------------*\
| =========                 |                                                 |
| \\      /  F ield         | OpenFOAM: The Open Source CFD Toolbox           |
|  \\    /   O peration     | Version:  2306                                  |
|   \\  /    A nd           | Website:  www.openfoam.com                      |
|    \\/     M anipulation  |                                                 |
\*---------------------------------------------------------------------------*/
FoamFile
{
    version     2.0;
    format      ascii;
    arch        "LSB;label=32;scalar=64";
    class       volScalarField;
    location    "0.00188";
    object      h;
}
// * * * * * * * * * * * * * * * * * * * * * * * * * * * * * * * * * * * * * //

dimensions      [0 2 -2 0 0 0 0];

internalField   nonuniform List<scalar> 
530
(
-7360.71091
-7163.90454
8913.31825
10326.6105
9805.8943
982.166001
-6923.16687
-6909.73653
9167.40441
9956.70079
-3606.95121
-5035.1648
8939.99112
10236.4775
-4235.6131
-4222.41046
8863.31935
10617.0271
10067.0192
-688.123656
-4277.59291
-7943.63989
-7854.13298
8151.66199
9613.77679
9422.77663
9712.13889
3098.79818
-6984.3647
-6955.97614
9061.5558
10021.2304
-3901.50205
-4385.86139
8812.64619
10591.7545
10096.5299
-799.068475
-4216.52683
-7653.3304
-7547.83166
8299.22125
10078.6185
9278.41856
-3293.88705
-6221.74871
8472.53915
10093.9001
9546.44017
10340.9106
4226.35531
-2737.14554
-5706.47184
-5706.90688
9217.27638
9920.48629
-177.820635
-6596.29801
-6580.15593
9293.85999
9765.51564
30.0288723
-7286.84081
-7129.452
8961.86785
10361.6573
9911.86154
363.88247
-6663.67188
-6652.96026
9125.8831
9939.47978
-4167.26026
-5816.9415
8518.80416
9876.11912
9742.97182
9777.25214
804.573558
-7356.79106
-7342.99546
9166.41413
9601.29803
-1021.6387
-8146.92995
-8103.46531
8919.98252
9745.94654
-4916.7414
-6412.83677
8344.61803
9937.24349
9652.19781
10061.2824
352.808609
-4430.38136
-7290.47592
-7272.31259
8398.99908
10059.492
9622.72376
-3859.05368
-5347.56692
8565.7284
10403.1303
9738.13127
-2386.71417
-3653.56679
8971.57402
-809.675708
-6148.28665
8789.33097
10434.1268
9900.95346
739.135555
-4359.2341
-6623.638
-6622.25086
8628.5211
10318.2203
9750.31265
-2046.30777
-5379.09055
9401.9919
9971.14699
862.298673
-6375.10754
-5929.9068
9151.35952
-2291.73844
-5814.40984
8731.35133
10469.6738
9789.54579
181.032909
-6774.9458
-6733.69372
9223.65219
10129.6296
-3661.16456
-3656.47633
8926.72928
-20.626268
-7281.69222
9045.06678
9877.02475
-3983.46781
-5643.02841
8871.02447
10058.9398
-4523.66677
-5515.80806
8708.53512
10073.9441
-5799.51304
-5809.21082
8306.65735
10197.0029
9309.55162
10471.8022
10282.1243
1226.64706
-4444.75514
-4323.38815
-7260.6286
-7238.94181
8750.32123
10130.333
9953.79946
-3395.51087
-3409.72288
8923.38379
-30.5999119
-7265.66793
9101.46586
9854.4691
-4375.308
-6035.16298
8768.64116
9967.37521
-5794.07478
-6351.40634
8259.9193
9965.36449
9250.04965
10093.2936
5967.25487
-4658.33304
-5073.12296
-8546.8765
-8504.30184
8495.81852
9655.97882
9664.48098
9830.54421
-1813.35295
-5343.66497
9581.13411
9947.0814
-348.079302
-6679.42951
-6649.11442
9321.10321
10112.7351
-3934.44203
-3936.99528
9005.44506
-1961.30018
-6738.80933
8843.64127
10311.8811
9670.40638
-1636.81652
-7954.49269
-7946.45821
9056.69089
9834.53566
9954.78271
10090.2271
-924.408354
-3870.66194
9689.84138
10460.1176
2741.3918
-3443.01083
-3499.15961
-5738.5876
-5733.7866
9142.462
10423.8075
9861.66804
-2123.72036
-3187.5952
9177.39425
1351.72663
-7465.18447
9546.05097
9565.24216
-1751.52181
-8466.76154
-8326.00271
8935.65769
9704.8407
9601.35203
9878.63115
5448.83773
-6015.02727
-5828.05302
9330.20759
-405.204653
-6332.84767
9687.97676
10020.7391
754.575966
-5166.45411
-4482.04083
-7472.1626
-7452.49361
8846.55936
10032.7771
9550.77523
10401.4902
10204.0114
1657.32267
-5278.72694
-5280.69123
9611.35604
10174.8557
-2835.5839
-4451.45609
9701.38321
10280.8878
659.2178
-4408.01086
-4001.96743
-6408.22089
-6396.11597
9192.79411
10265.9443
9936.6502
-2762.59053
-3474.59298
9296.57902
-1795.40498
-6057.96089
9112.1002
10357.6306
9628.58277
-1850.23042
-5462.70108
9674.0532
10123.7024
-2859.57493
-4708.62055
9786.99969
10183.314
4.91002951
-5121.09117
-4536.92591
-7891.46889
-7890.00347
8757.20645
9649.7078
9435.56626
9684.597
10184.6759
9812.34295
652.364567
-6802.7852
-6795.30688
9632.34263
9719.10184
-2356.04653
-7349.40996
-7313.31007
9587.49663
9891.27596
-3423.90782
-5358.70251
9658.18753
10155.032
-2223.03999
-4515.45632
-6355.57528
-6327.80651
9036.95545
10197.338
9703.4019
10545.9007
10333.8915
1222.13828
-3600.03227
-5587.09587
-5608.28762
9240.62348
10059.0134
-5225.89419
-5740.37457
9025.02591
10087.4075
9966.35236
10180.4243
-59.2667187
-4272.50313
-5382.02006
-5554.90125
9438.80199
9838.52298
-2707.82575
-7400.67951
-6974.20198
9276.23179
10198.5534
9852.23757
-3038.15337
-3671.38093
9240.92456
191.97443
-7645.43446
9780.70853
9792.03246
-2572.57795
-8295.08631
-7560.88321
9135.40584
10027.1292
9748.68421
10429.5501
10408.7057
-1348.98026
-3891.7829
-5809.18694
-5734.86811
9216.92394
10423.4439
9754.03402
-1679.28992
-5527.04794
9919.74178
9999.5157
-663.648996
-6128.37608
-5602.54706
9585.6286
10512.3867
10220.5974
7.26546164
-4982.3274
-4450.87534
-7384.70317
-7373.48238
9046.24206
9945.05208
9731.07909
-5044.4486
-5758.00907
8884.16989
10273.8541
9529.08932
-3318.26033
-5324.77851
9218.56122
10476.9141
9822.33654
-1739.29374
-6237.44225
-6233.1626
9762.98306
9840.98398
-2044.24768
-6676.16787
-6667.53632
9624.71639
9879.21916
-3308.11537
-6125.63583
9663.33904
9765.11081
-2295.80629
-7587.62858
-6756.72771
9218.48116
10269.1767
9818.44904
-2632.65783
-5348.28247
9620.88874
10162.8189
-3369.30655
-4707.02026
9602.61039
10231.7083
-3010.78389
-4618.19351
9800.12173
10142.6536
-1269.13162
-5417.83345
-5409.18038
9803.04296
10008.0373
-1396.40455
-5964.79182
-5961.50213
9691.49149
10056.3177
-3249.92303
-5154.97019
9534.4839
10080.5589
-3432.89675
-5764.63911
9603.08814
9774.89274
-2609.99624
-7987.86058
-7632.56893
9116.63227
9961.52926
9702.32311
10283.5933
10266.2899
-2872.81003
-5041.43403
-7497.03521
-7451.31044
8761.15551
10028.771
9430.74973
10411.9962
10035.7649
-1314.03507
-4811.95882
-6010.49347
-6009.37176
9090.17536
10012.999
-5019.34401
-5814.63242
9086.21707
10056.0694
-5276.41078
-5696.67134
8973.22271
10099.7625
9979.86592
10173.4567
-857.609351
-4312.10103
-5550.10675
-5559.61372
9151.08083
10057.5695
-5067.614
-5922.46033
8959.5462
9965.30023
9936.60695
9941.56275
-1642.61157
-6371.25674
-6348.51806
9576.7436
10174.3913
-3596.8082
-3616.68568
9283.26596
-1798.17721
-5055.19503
9330.33809
-2742.12829
-5526.21152
9134.27044
10532.3711
9927.24068
177.75022
-4872.89678
-5654.53109
-5660.2025
9062.09371
10105.7517
-5274.53033
-5315.29027
8803.4985
10315.8815
9752.54965
-3438.20552
-5130.43871
9058.67665
10460.1907
)
;

boundaryField
{
    closed
    {
        type            lookUpEnthalpy;
        h0              nonuniform List<scalar> 0();
        value           nonuniform List<scalar> 0();
    }
    open
    {
        type            zeroGradient;
    }
    sides
    {
        type            empty;
    }
    procBoundary2to1
    {
        type            processor;
        value           uniform 582.152503;
    }
    procBoundary2to3
    {
        type            processor;
        value           uniform 9896.48284;
    }
}


// ************************************************************************* //
