/*--------------------------------*- C++ -*----------------------------------*\
| =========                 |                                                 |
| \\      /  F ield         | OpenFOAM: The Open Source CFD Toolbox           |
|  \\    /   O peration     | Version:  2306                                  |
|   \\  /    A nd           | Website:  www.openfoam.com                      |
|    \\/     M anipulation  |                                                 |
\*---------------------------------------------------------------------------*/
FoamFile
{
    version     2.0;
    format      ascii;
    arch        "LSB;label=32;scalar=64";
    class       volScalarField;
    location    "0.00188";
    object      prefDZ_H2O;
}
// * * * * * * * * * * * * * * * * * * * * * * * * * * * * * * * * * * * * * //

dimensions      [1 -1 -1 0 0 0 0];

internalField   nonuniform List<scalar> 
530
(
-7.31608723e-07
-7.31639536e-07
-7.77501163e-07
-7.74096601e-07
-7.75705106e-07
-7.47197445e-07
-7.32329149e-07
-7.32006637e-07
-7.76871309e-07
-7.74754845e-07
-7.37493179e-07
-7.34961183e-07
-7.77292559e-07
-7.74181437e-07
-7.36467288e-07
-7.36250969e-07
-7.77280053e-07
-7.73493821e-07
-7.74946036e-07
-7.4277158e-07
-7.36511454e-07
-7.30497654e-07
-7.307067e-07
-7.79006818e-07
-7.7599016e-07
-7.76278119e-07
-7.75796487e-07
-7.53723238e-07
-7.32157539e-07
-7.32013817e-07
-7.77040059e-07
-7.7473881e-07
-7.36996421e-07
-7.36030537e-07
-7.77495795e-07
-7.73571838e-07
-7.74886187e-07
-7.42501174e-07
-7.36580982e-07
-7.3093993e-07
-7.31187887e-07
-7.78556265e-07
-7.7491757e-07
-7.76579594e-07
-7.37850064e-07
-7.33307398e-07
-7.78297704e-07
-7.74774721e-07
-7.7612815e-07
-7.74182135e-07
-7.57658798e-07
-7.38612338e-07
-7.34198597e-07
-7.3404301e-07
-7.76594919e-07
-7.75146098e-07
-7.44028523e-07
-7.32737518e-07
-7.32686772e-07
-7.76411633e-07
-7.75561892e-07
-7.44558507e-07
-7.31697227e-07
-7.31761467e-07
-7.77421115e-07
-7.74187092e-07
-7.75527973e-07
-7.45414294e-07
-7.32826034e-07
-7.32564119e-07
-7.77185574e-07
-7.75152645e-07
-7.36752539e-07
-7.33978766e-07
-7.78427529e-07
-7.75412691e-07
-7.75777153e-07
-7.75617841e-07
-7.46518275e-07
-7.31567515e-07
-7.31516718e-07
-7.7683275e-07
-7.76026801e-07
-7.41998456e-07
-7.30344103e-07
-7.30203601e-07
-7.77633578e-07
-7.75472259e-07
-7.35516012e-07
-7.32916375e-07
-7.78721251e-07
-7.75034043e-07
-7.75860244e-07
-7.74743503e-07
-7.45369586e-07
-7.36102822e-07
-7.31565331e-07
-7.31560593e-07
-7.78386446e-07
-7.74846886e-07
-7.75780752e-07
-7.36910629e-07
-7.34649552e-07
-7.77923359e-07
-7.74120034e-07
-7.7544934e-07
-7.39167215e-07
-7.37245595e-07
-7.77064244e-07
-7.42470706e-07
-7.3340113e-07
-7.77365479e-07
-7.74044189e-07
-7.75153161e-07
-7.46426104e-07
-7.36240329e-07
-7.32611782e-07
-7.3262e-07
-7.77807456e-07
-7.7427151e-07
-7.75446918e-07
-7.39644719e-07
-7.34653403e-07
-7.76088046e-07
-7.75072169e-07
-7.4680878e-07
-7.33073371e-07
-7.33632622e-07
-7.76720721e-07
-7.39207547e-07
-7.33936527e-07
-7.77591268e-07
-7.73954558e-07
-7.75494931e-07
-7.44954541e-07
-7.32507821e-07
-7.32358029e-07
-7.76784287e-07
-7.74569672e-07
-7.37388881e-07
-7.37246102e-07
-7.77295984e-07
-7.44432718e-07
-7.31634606e-07
-7.77030672e-07
-7.75281056e-07
-7.36867058e-07
-7.34177213e-07
-7.77609874e-07
-7.74767109e-07
-7.36134715e-07
-7.34292064e-07
-7.78030253e-07
-7.74642126e-07
-7.34108021e-07
-7.33766294e-07
-7.78787598e-07
-7.74275148e-07
-7.76721197e-07
-7.73657771e-07
-7.74615738e-07
-7.47904383e-07
-7.36218234e-07
-7.36155194e-07
-7.31697973e-07
-7.31609516e-07
-7.77747596e-07
-7.74792835e-07
-7.75122417e-07
-7.37759267e-07
-7.37711121e-07
-7.77310514e-07
-7.4439872e-07
-7.31662088e-07
-7.76921791e-07
-7.75337032e-07
-7.36232854e-07
-7.33559658e-07
-7.77794966e-07
-7.75005296e-07
-7.34088379e-07
-7.32993709e-07
-7.7903015e-07
-7.75008251e-07
-7.76995836e-07
-7.74762505e-07
-7.65307114e-07
-7.35686908e-07
-7.35268724e-07
-7.29518191e-07
-7.29605786e-07
-7.78304335e-07
-7.75751763e-07
-7.75709577e-07
-7.75285937e-07
-7.40156619e-07
-7.34711805e-07
-7.75661575e-07
-7.75149417e-07
-7.43615068e-07
-7.32626788e-07
-7.3241575e-07
-7.7650005e-07
-7.7446013e-07
-7.36858502e-07
-7.36684391e-07
-7.76980707e-07
-7.3973745e-07
-7.32465912e-07
-7.77188038e-07
-7.7432234e-07
-7.75503043e-07
-7.40569981e-07
-7.30504456e-07
-7.30426128e-07
-7.76981443e-07
-7.75207363e-07
-7.74997275e-07
-7.74606833e-07
-7.4220518e-07
-7.36898831e-07
-7.75448457e-07
-7.73955561e-07
-7.52623067e-07
-7.37596135e-07
-7.37476538e-07
-7.34053358e-07
-7.34023904e-07
-7.76740804e-07
-7.74111651e-07
-7.75202235e-07
-7.39585872e-07
-7.37971753e-07
-7.76700512e-07
-7.48230736e-07
-7.31301465e-07
-7.75737504e-07
-7.75984054e-07
-7.40256173e-07
-7.29749147e-07
-7.29811637e-07
-7.77526963e-07
-7.75650895e-07
-7.76086832e-07
-7.75331986e-07
-7.63205522e-07
-7.3359914e-07
-7.339001e-07
-7.763811e-07
-7.43467113e-07
-7.33148578e-07
-7.75362447e-07
-7.75044975e-07
-7.4658236e-07
-7.35065771e-07
-7.35819975e-07
-7.31349412e-07
-7.31157517e-07
-7.77632141e-07
-7.74661734e-07
-7.76070581e-07
-7.73796872e-07
-7.7464562e-07
-7.49340785e-07
-7.34762495e-07
-7.34476985e-07
-7.75581175e-07
-7.74155499e-07
-7.38259841e-07
-7.3582971e-07
-7.75179323e-07
-7.74075155e-07
-7.46365504e-07
-7.35973622e-07
-7.36498502e-07
-7.32849334e-07
-7.32818432e-07
-7.76463753e-07
-7.74169275e-07
-7.74780181e-07
-7.38406725e-07
-7.37391622e-07
-7.76101859e-07
-7.40110743e-07
-7.33392236e-07
-7.76539061e-07
-7.73952846e-07
-7.75432224e-07
-7.39978523e-07
-7.34393293e-07
-7.7530227e-07
-7.74559306e-07
-7.38192481e-07
-7.35640854e-07
-7.75091939e-07
-7.74608174e-07
-7.44528911e-07
-7.35114474e-07
-7.35800722e-07
-7.3064511e-07
-7.30527865e-07
-7.77787962e-07
-7.75709706e-07
-7.76194263e-07
-7.75589189e-07
-7.74563289e-07
-7.75272601e-07
-7.46199731e-07
-7.32291348e-07
-7.32255651e-07
-7.75607496e-07
-7.75418688e-07
-7.38998246e-07
-7.31471976e-07
-7.31354327e-07
-7.75815232e-07
-7.74935529e-07
-7.37525985e-07
-7.3453855e-07
-7.75579426e-07
-7.74524612e-07
-7.39344674e-07
-7.35990707e-07
-7.33015568e-07
-7.33071104e-07
-7.77002905e-07
-7.74501239e-07
-7.7553017e-07
-7.73718345e-07
-7.74228736e-07
-7.47788127e-07
-7.37309391e-07
-7.34237682e-07
-7.34104187e-07
-7.76525057e-07
-7.74594279e-07
-7.34746265e-07
-7.33852e-07
-7.76873212e-07
-7.74515962e-07
-7.74836284e-07
-7.74300377e-07
-7.44341194e-07
-7.36208032e-07
-7.34507063e-07
-7.34191004e-07
-7.76031404e-07
-7.75135306e-07
-7.38576439e-07
-7.31368647e-07
-7.31990466e-07
-7.76418427e-07
-7.74524574e-07
-7.75099989e-07
-7.38156471e-07
-7.37135073e-07
-7.76471587e-07
-7.45031137e-07
-7.30954974e-07
-7.75144967e-07
-7.75301155e-07
-7.38655448e-07
-7.29970743e-07
-7.30934112e-07
-7.76895813e-07
-7.74637076e-07
-7.75496398e-07
-7.73800476e-07
-7.74037477e-07
-7.41175118e-07
-7.36946728e-07
-7.33785667e-07
-7.339889e-07
-7.76410033e-07
-7.73947626e-07
-7.75296204e-07
-7.40408811e-07
-7.34368129e-07
-7.74847691e-07
-7.7496191e-07
-7.4282275e-07
-7.33462469e-07
-7.34063582e-07
-7.75828638e-07
-7.73698865e-07
-7.74471287e-07
-7.44516611e-07
-7.35269683e-07
-7.35934152e-07
-7.3140486e-07
-7.31341674e-07
-7.77012156e-07
-7.75023518e-07
-7.75459199e-07
-7.35015524e-07
-7.33930959e-07
-7.77217612e-07
-7.74257434e-07
-7.75832942e-07
-7.37580577e-07
-7.34640164e-07
-7.76385485e-07
-7.73874621e-07
-7.7515311e-07
-7.40299235e-07
-7.33210654e-07
-7.33139054e-07
-7.75319768e-07
-7.75156367e-07
-7.39575212e-07
-7.32549703e-07
-7.32399891e-07
-7.7571169e-07
-7.74997937e-07
-7.37654756e-07
-7.33354186e-07
-7.75488227e-07
-7.75346857e-07
-7.39122844e-07
-7.31088586e-07
-7.32273447e-07
-7.76553085e-07
-7.74251023e-07
-7.75172255e-07
-7.38675012e-07
-7.34595979e-07
-7.75583436e-07
-7.74487719e-07
-7.37558288e-07
-7.35578289e-07
-7.75609219e-07
-7.74341878e-07
-7.38095619e-07
-7.35748446e-07
-7.75179988e-07
-7.74585488e-07
-7.41368201e-07
-7.34556371e-07
-7.34436268e-07
-7.75306628e-07
-7.74864432e-07
-7.41073689e-07
-7.33733274e-07
-7.33535606e-07
-7.75662323e-07
-7.74650661e-07
-7.37859193e-07
-7.34883974e-07
-7.75880848e-07
-7.74706464e-07
-7.37503859e-07
-7.33984426e-07
-7.75676312e-07
-7.75432596e-07
-7.38676432e-07
-7.30483231e-07
-7.30877005e-07
-7.76951919e-07
-7.74886413e-07
-7.75608431e-07
-7.7419688e-07
-7.74345606e-07
-7.38309391e-07
-7.35147726e-07
-7.3114012e-07
-7.31244516e-07
-7.77552951e-07
-7.7481164e-07
-7.76116216e-07
-7.73950196e-07
-7.74786205e-07
-7.41285149e-07
-7.35483073e-07
-7.33585792e-07
-7.33520342e-07
-7.76994394e-07
-7.74798191e-07
-7.35195218e-07
-7.338033e-07
-7.77029365e-07
-7.74696703e-07
-7.34798437e-07
-7.3398688e-07
-7.77238292e-07
-7.74631883e-07
-7.7507205e-07
-7.74452994e-07
-7.42383374e-07
-7.36251689e-07
-7.34379441e-07
-7.34257561e-07
-7.76874765e-07
-7.74774384e-07
-7.35093564e-07
-7.33680636e-07
-7.77192906e-07
-7.7497712e-07
-7.75008628e-07
-7.7501401e-07
-7.40488397e-07
-7.3309069e-07
-7.32880944e-07
-7.75964426e-07
-7.74319609e-07
-7.37385475e-07
-7.37182368e-07
-7.76458996e-07
-7.40142855e-07
-7.35150038e-07
-7.76209982e-07
-7.38638189e-07
-7.34332754e-07
-7.76792595e-07
-7.73814494e-07
-7.75061501e-07
-7.44936703e-07
-7.35387174e-07
-7.34171736e-07
-7.34084853e-07
-7.77040696e-07
-7.74621987e-07
-7.34776465e-07
-7.34585342e-07
-7.77550545e-07
-7.74172125e-07
-7.75404797e-07
-7.37470235e-07
-7.34963987e-07
-7.76840547e-07
-7.73965999e-07
)
;

boundaryField
{
    closed
    {
        type            calculated;
        value           nonuniform List<scalar> 0();
    }
    open
    {
        type            calculated;
        value           nonuniform List<scalar> 0();
    }
    sides
    {
        type            empty;
    }
    procBoundary2to1
    {
        type            processor;
        value           uniform -7.46042313e-07;
    }
    procBoundary2to3
    {
        type            processor;
        value           uniform -7.75056622e-07;
    }
}


// ************************************************************************* //
