/*--------------------------------*- C++ -*----------------------------------*\
| =========                 |                                                 |
| \\      /  F ield         | OpenFOAM: The Open Source CFD Toolbox           |
|  \\    /   O peration     | Version:  2306                                  |
|   \\  /    A nd           | Website:  www.openfoam.com                      |
|    \\/     M anipulation  |                                                 |
\*---------------------------------------------------------------------------*/
FoamFile
{
    version     2.0;
    format      ascii;
    arch        "LSB;label=32;scalar=64";
    class       volScalarField;
    location    "0.0013";
    object      H;
}
// * * * * * * * * * * * * * * * * * * * * * * * * * * * * * * * * * * * * * //

dimensions      [0 0 0 0 0 0 0];

internalField   nonuniform List<scalar> 
530
(
1.20953819e-09
1.32689871e-09
1.20327529e-09
3.08779567e-08
4.57722794e-08
4.76440196e-08
4.89738501e-08
1.12187243e-09
1.1724544e-09
4.88732348e-08
4.88905998e-08
1.12939937e-09
1.18871712e-09
4.80436384e-08
4.71921334e-08
1.14882726e-09
1.30111794e-09
1.1438098e-09
3.34700511e-08
5.048537e-08
4.36655175e-08
1.14783643e-09
1.23056741e-09
1.22131942e-09
1.2056592e-09
4.08189554e-08
4.84619919e-08
5.1802861e-08
5.16664816e-08
1.11118641e-09
1.25751523e-09
1.16230831e-09
3.60842959e-08
4.46918759e-08
1.36259776e-09
1.27215722e-09
3.24198813e-08
4.08388626e-08
4.5417768e-08
4.44932566e-08
1.1601087e-09
1.23675098e-09
1.21437425e-09
3.97631287e-08
4.29860813e-08
1.00733636e-09
1.30882352e-09
1.0080978e-09
3.66587356e-08
5.17814179e-08
4.28695059e-08
5.13889918e-08
4.88369213e-08
1.09881744e-09
1.25094496e-09
1.18606005e-09
3.87475377e-08
4.59838e-08
1.32459508e-09
1.18080002e-09
2.87438771e-08
5.14330013e-08
4.55896437e-08
1.09165764e-09
1.34723958e-09
1.15702906e-09
3.4578318e-08
4.97882386e-08
4.59443849e-08
1.15955407e-09
1.2821452e-09
4.22740337e-08
4.2151763e-08
1.18159733e-09
1.35517564e-09
1.22268831e-09
3.42666528e-08
4.5555537e-08
4.57689611e-08
4.9332507e-08
1.17134716e-09
1.15472507e-09
3.96681284e-08
5.32068463e-08
4.7335224e-08
1.09018478e-09
1.27166831e-09
1.20505942e-09
3.62092582e-08
4.28530348e-08
1.24473853e-09
1.21351533e-09
3.65449522e-08
4.31694427e-08
5.14398628e-08
5.11134383e-08
9.28193636e-10
1.08990238e-09
9.54139237e-10
1.1132388e-09
1.00023477e-09
4.92810448e-08
5.60401714e-08
1.04147494e-09
1.09721617e-09
4.62556038e-08
4.85273375e-08
1.12850715e-09
1.19467043e-09
4.11325976e-08
4.42696882e-08
1.24957376e-09
1.25569047e-09
3.30981476e-08
4.16402637e-08
4.39305276e-08
4.3801362e-08
1.13898019e-09
1.33234609e-09
1.19478153e-09
3.50341384e-08
4.48058017e-08
1.28400275e-09
1.27062827e-09
3.6298619e-08
4.91260087e-08
4.89475179e-08
1.16921221e-09
1.19387765e-09
4.02248393e-08
4.7761065e-08
1.24206128e-09
1.20755802e-09
3.42537048e-08
4.95765044e-08
4.83721829e-08
1.12242137e-09
1.22340705e-09
4.22171365e-08
4.62848009e-08
1.10399934e-09
1.24281362e-09
4.26001355e-08
4.4661468e-08
1.11434261e-09
1.26346029e-09
4.19584665e-08
4.370905e-08
1.13681479e-09
1.27941066e-09
4.09176542e-08
4.28491005e-08
1.17377906e-09
1.29273958e-09
3.87099625e-08
4.1296486e-08
1.24831414e-09
1.30417986e-09
3.04946384e-08
4.02137592e-08
4.42697439e-08
4.42596759e-08
1.11147716e-09
1.25119333e-09
1.26932819e-09
1.26341991e-09
3.36434031e-08
4.36611493e-08
4.6905352e-08
4.64906997e-08
1.077836e-09
3.72718279e-08
5.10542563e-08
1.1363862e-09
1.18300824e-09
4.07805729e-08
4.49255418e-08
1.07988125e-09
1.2302343e-09
4.30947293e-08
4.29597541e-08
9.67574179e-10
1.27756646e-09
1.02141014e-09
3.68985928e-08
4.83523033e-08
4.70982483e-08
4.69055666e-08
9.92934033e-10
1.22280624e-09
1.0873822e-09
1.29775726e-09
1.17276076e-09
3.66862577e-08
5.0960043e-08
5.075688e-08
1.12036594e-09
1.13021812e-09
3.7391245e-08
5.30978873e-08
5.02925326e-08
1.08426707e-09
1.22449873e-09
4.28179974e-08
4.26951544e-08
1.06153664e-09
3.60887096e-08
4.79213723e-08
1.05145177e-09
1.24781496e-09
1.11635554e-09
3.77422049e-08
4.80767332e-08
1.06229563e-09
1.17074149e-09
1.19061018e-09
1.18811767e-09
3.85108388e-08
4.87533016e-08
4.85474561e-08
1.12815649e-09
1.1996527e-09
3.18066455e-08
4.21159066e-08
4.68234106e-08
4.68280476e-08
1.00166423e-09
1.26576459e-09
1.14322247e-09
3.72725096e-08
5.22521892e-08
4.93411153e-08
1.08225212e-09
1.22512444e-09
3.98185099e-08
4.42640054e-08
1.1048804e-09
1.28833643e-09
3.77498852e-08
4.04602398e-08
1.09757955e-09
1.32948031e-09
1.57768259e-08
3.92115572e-08
4.14090714e-08
4.41018705e-08
4.4065915e-08
1.15962614e-09
1.27986828e-09
3.46267395e-08
4.22466097e-08
1.22152138e-09
1.25643737e-09
2.71271513e-08
4.61785605e-08
4.60245235e-08
1.13375303e-09
1.25764491e-09
1.29041207e-09
1.27940536e-09
2.81139454e-08
4.44411566e-08
4.22085039e-08
5.0600616e-08
5.04040052e-08
9.70553917e-10
1.17785286e-09
1.16217072e-09
4.40666253e-08
5.08588775e-08
1.02575853e-09
1.04909495e-09
3.74776119e-08
5.61919991e-08
5.32194462e-08
8.94178633e-10
1.13089317e-09
1.04009624e-09
1.17739028e-09
4.45392217e-08
4.46611762e-08
8.45680495e-10
3.98088999e-08
5.7178831e-08
8.62245373e-10
1.02523093e-09
1.00368712e-09
1.08663378e-09
4.86257018e-08
4.86560321e-08
8.52656516e-10
3.77106414e-08
4.94321464e-08
9.33690791e-10
1.17551309e-09
1.13386458e-08
3.9831996e-08
5.19283854e-08
5.1769324e-08
9.55538248e-10
1.03584114e-09
1.14489475e-09
1.09250636e-09
3.90747572e-08
5.39671177e-08
4.47188947e-08
9.56493396e-10
3.06242457e-08
4.86524433e-08
1.18983313e-09
1.14382514e-09
3.05418135e-08
4.75257e-08
4.00491444e-08
1.0879153e-09
1.30147407e-09
1.23285291e-09
4.39878925e-08
4.87215305e-08
9.75958387e-10
1.21206579e-09
4.35129757e-08
4.35282576e-08
9.89671696e-10
1.31921385e-09
1.21011462e-09
2.42863751e-08
4.17729059e-08
4.5842235e-08
4.56861377e-08
1.01532904e-09
3.57779445e-08
5.06860038e-08
1.01702091e-09
1.14289305e-09
4.32782514e-08
4.84094321e-08
9.2819606e-10
1.15628378e-09
1.17065058e-09
1.16723018e-09
3.51123816e-08
4.62936019e-08
4.7154411e-08
4.87329684e-08
1.01788334e-09
1.10859648e-09
2.867066e-08
5.06494404e-08
4.85428296e-08
7.35302046e-10
1.15551977e-09
7.5262521e-10
4.77991546e-08
5.19311016e-08
8.80537954e-10
1.16473407e-09
4.13240444e-08
4.30689642e-08
9.67188849e-10
1.26454019e-09
4.16408125e-08
4.14331008e-08
9.29278884e-10
1.34486196e-09
1.13577535e-09
2.64107031e-08
5.15080827e-08
4.61056845e-08
1.00121933e-09
3.8708301e-08
4.87322354e-08
9.00490114e-10
1.28127316e-09
1.10782424e-09
3.44045389e-08
4.83813934e-08
1.11063528e-09
1.17613679e-09
3.01491101e-08
4.69971824e-08
4.6706877e-08
1.1104219e-09
1.26916835e-09
2.26598955e-08
3.93108041e-08
4.42536714e-08
4.40959579e-08
1.07526798e-09
3.25575872e-08
4.70734665e-08
1.01045334e-09
1.22426284e-09
4.24816567e-08
4.30942001e-08
8.87937746e-10
1.30649392e-09
1.12646393e-09
2.16771894e-08
4.87890667e-08
4.86430796e-08
1.03678718e-09
1.17278599e-09
3.08264725e-08
4.70061873e-08
4.67945029e-08
1.07327704e-09
1.1808915e-09
2.58619652e-08
4.71428697e-08
4.68958218e-08
1.01836387e-09
1.1835278e-09
3.67953087e-08
4.62796879e-08
1.04867017e-09
1.10826062e-09
3.21388756e-08
5.31853037e-08
5.15006921e-08
8.8625111e-10
1.15412571e-09
1.06265008e-09
4.41746563e-08
5.29424683e-08
7.97820996e-10
1.10694043e-09
4.93409707e-08
4.95794553e-08
7.21220597e-10
1.20145423e-09
1.0407618e-09
4.00878869e-08
5.10768127e-08
9.35343098e-10
1.11649527e-09
4.0283228e-08
4.82411413e-08
1.02158115e-09
1.13150085e-09
2.95646815e-08
4.88437266e-08
4.84401324e-08
9.89364413e-10
1.18740634e-09
3.93452555e-08
4.61348328e-08
9.38541581e-10
1.16811876e-09
1.57492581e-08
4.84842306e-08
4.82347827e-08
8.83493317e-10
1.22984638e-09
4.23692415e-08
4.20889944e-08
7.9847049e-10
1.33187715e-09
8.57784106e-09
3.4879629e-08
4.91380089e-08
4.44426994e-08
1.01791125e-09
3.53048665e-08
4.48504995e-08
9.51057662e-10
1.31691365e-09
1.17143924e-09
2.65714468e-08
5.06805501e-08
4.47643746e-08
1.0023357e-09
3.11653618e-08
4.8607779e-08
1.04862542e-09
1.2266963e-09
3.81260661e-08
4.26523645e-08
1.0175792e-09
1.30533649e-09
3.90492401e-08
3.91402582e-08
9.57914878e-10
1.37237994e-09
1.39724462e-08
3.51711902e-08
4.65905234e-08
4.41093405e-08
1.07068714e-09
2.50302904e-08
4.54380911e-08
1.08200824e-09
1.27847521e-09
3.6492293e-08
4.11709884e-08
1.11513982e-09
1.32461197e-09
2.90568686e-08
3.93514603e-08
4.48683035e-08
4.47895538e-08
9.99037406e-10
1.28775403e-09
4.08948562e-08
4.09585488e-08
9.5745626e-10
2.01465316e-08
4.76579032e-08
1.00994407e-09
1.25103432e-09
3.79022301e-08
4.15668464e-08
1.08207895e-09
1.31342242e-09
2.63938705e-08
3.8484612e-08
4.53738977e-08
4.5364168e-08
9.39473542e-10
1.19225684e-09
4.35533815e-08
4.69447224e-08
7.75988296e-10
1.06433127e-09
9.90692363e-10
1.04521631e-09
4.6238649e-08
5.31772714e-08
9.12782844e-10
1.08514353e-09
)
;

boundaryField
{
    closed
    {
        type            calculated;
        value           nonuniform List<scalar> 0();
    }
    open
    {
        type            calculated;
        value           nonuniform List<scalar> 0();
    }
    sides
    {
        type            empty;
    }
    procBoundary2to1
    {
        type            processor;
        value           uniform 4.20411067e-08;
    }
    procBoundary2to3
    {
        type            processor;
        value           uniform 3.30229672e-08;
    }
}


// ************************************************************************* //
