/*--------------------------------*- C++ -*----------------------------------*\
| =========                 |                                                 |
| \\      /  F ield         | OpenFOAM: The Open Source CFD Toolbox           |
|  \\    /   O peration     | Version:  2306                                  |
|   \\  /    A nd           | Website:  www.openfoam.com                      |
|    \\/     M anipulation  |                                                 |
\*---------------------------------------------------------------------------*/
FoamFile
{
    version     2.0;
    format      ascii;
    arch        "LSB;label=32;scalar=64";
    class       volScalarField;
    location    "0.0013";
    object      H2O;
}
// * * * * * * * * * * * * * * * * * * * * * * * * * * * * * * * * * * * * * //

dimensions      [0 0 0 0 0 0 0];

internalField   nonuniform List<scalar> 
530
(
0.00104349337
0.00113893883
0.00104450138
0.00584455589
0.00729358204
0.00744963549
0.00755657205
0.000998484594
0.00103618964
0.00755238148
0.00755094132
0.00100030782
0.0010436816
0.00748716456
0.00741413512
0.00100817096
0.00110742649
0.00101136024
0.00622316712
0.00767462384
0.00713768753
0.00101839399
0.00106039367
0.0010618636
0.00104502996
0.00690751622
0.00751415049
0.0077951553
0.00777978534
0.000979401056
0.00107547608
0.00101123334
0.00654542127
0.00720639683
0.0011123829
0.00110004953
0.00607445827
0.00689096777
0.00728938026
0.00718735242
0.000992251993
0.00109676031
0.00103029452
0.00679301553
0.00707834186
0.000956897433
0.0011225219
0.000937336356
0.00657491843
0.00776517297
0.00706701201
0.00773743785
0.00754881727
0.00100586218
0.00107864958
0.00104546821
0.00674785057
0.00730565578
0.00109568985
0.00105092843
0.00552797449
0.00775255328
0.00730843959
0.000983350039
0.00110413233
0.00101812777
0.00638765717
0.00761798038
0.0073339099
0.00102775701
0.0010683835
0.00702174941
0.00702070306
0.00102278038
0.00112522553
0.00104995761
0.00634006267
0.00727797659
0.0073103519
0.00758734562
0.00101970581
0.00102028123
0.00681985008
0.00789817
0.00742875633
0.000992080404
0.00109801293
0.00105910035
0.00653016106
0.0070458001
0.00108787596
0.00108969938
0.0065552636
0.00705917557
0.0077509134
0.00771678445
0.000911380835
0.00101456
0.000927720362
0.00101700684
0.000955623162
0.00758243159
0.00813138085
0.000966502551
0.00100966589
0.00733835361
0.00751354824
0.00100477249
0.00105361667
0.00693689934
0.00717361079
0.00105955642
0.00108047903
0.00617163539
0.00696612132
0.00716174849
0.00714667719
0.000992879037
0.00111179573
0.00102495032
0.00645072296
0.00722731182
0.00107436136
0.00106996671
0.00656622243
0.00757445051
0.00756880652
0.00101620889
0.00102675293
0.00687402128
0.00746098328
0.00104976348
0.00105054186
0.0063397838
0.0075987309
0.00752429826
0.00101589458
0.0010395155
0.00700987688
0.00734906189
0.000998343299
0.00105950014
0.00704331421
0.00721745144
0.000999164815
0.0010704258
0.00699556741
0.00714277038
0.00100556493
0.00107705776
0.00691805185
0.00707442739
0.00101871116
0.00108606484
0.00674986888
0.00694651989
0.00105457134
0.00110046639
0.00578993525
0.00685720914
0.00718754083
0.00718402816
0.000980815991
0.00106788246
0.00107147995
0.00107222362
0.00625086597
0.007129456
0.00740203738
0.00735990801
0.000955902545
0.00663038705
0.00772925441
0.00101244562
0.00103661664
0.00689844029
0.00722595827
0.000994885947
0.00108008052
0.00706842315
0.00705861408
0.00093123405
0.00111698111
0.000953347267
0.00659029858
0.00748410153
0.00739718259
0.00737075113
0.000943949779
0.0010850108
0.00099349322
0.00111069376
0.00102975096
0.00658640101
0.00771548172
0.00771073062
0.0010038206
0.000995205512
0.00664244551
0.00789234772
0.00767330458
0.000985802373
0.00104917171
0.00706404162
0.00705623176
0.000961875106
0.0065349217
0.00746812486
0.000964534426
0.0010844065
0.00100137036
0.00665898919
0.00747829132
0.000978247652
0.00104366456
0.00105197833
0.00104983929
0.00672052398
0.00752736468
0.0075204309
0.00102954894
0.00106243154
0.0059796273
0.00698934301
0.00737708204
0.00737675153
0.000937133116
0.00109361729
0.00101410318
0.00663064492
0.00781673341
0.00759559103
0.000998465792
0.00104573197
0.00681701153
0.00718731164
0.00100082585
0.00108214494
0.00665833918
0.00688132261
0.000989593686
0.00111560639
0.00345714771
0.00678947439
0.00695602544
0.0071716629
0.00717383126
0.00101111855
0.0010738038
0.00639144439
0.00702320443
0.00104069164
0.00107032367
0.00528296911
0.00733568054
0.00733195104
0.000999273561
0.00106975952
0.00108875753
0.00108943085
0.00543391973
0.00718539902
0.00701925721
0.00768057222
0.00767426843
0.000940113356
0.00104835348
0.00104642308
0.00715437627
0.00769886758
0.000971639946
0.000995007274
0.00663270445
0.00813443117
0.00790218115
0.000925506138
0.00102109242
0.00100453883
0.00104376934
0.00717398479
0.0072015533
0.000889532039
0.00681401615
0.00821841444
0.000893081095
0.000991089601
0.000971154987
0.00101226469
0.00751816764
0.00751983309
0.000882539805
0.00663841225
0.00756945007
0.000936480522
0.00108980876
0.00271210234
0.00679367259
0.00778272755
0.00776686099
0.000934809679
0.000982497275
0.00102720868
0.000996610593
0.0067797509
0.00794750927
0.00722893651
0.000950523144
0.00580940896
0.0075116253
0.00102146983
0.00104255876
0.00579724267
0.00742529046
0.00685672698
0.000985501407
0.00109358556
0.00106193602
0.00716564276
0.00754204274
0.000922777935
0.0010511927
0.00711411222
0.00711734112
0.000937140335
0.00112161154
0.00106530051
0.00484884968
0.00697097101
0.00730245503
0.00728610147
0.000945840256
0.00650222699
0.0076900224
0.000961060731
0.00102841459
0.00709420982
0.00750452418
0.000907135035
0.00103891956
0.00103783299
0.00104159093
0.00645918292
0.00732433507
0.00741002041
0.0075259272
0.000957257389
0.00103021425
0.00551832703
0.00766463687
0.00751735789
0.000875389433
0.00105110751
0.00085098314
0.00745384986
0.00777635777
0.000905308932
0.00105410341
0.00692070834
0.00707424023
0.000947212025
0.00108954894
0.00695232405
0.0069507353
0.000912628244
0.00113283991
0.00102415389
0.00517613879
0.00775948822
0.00733009204
0.000934231894
0.00674538002
0.00753682309
0.000880403782
0.00109296647
0.00099036271
0.00635828067
0.00750628311
0.000996452196
0.00103782772
0.005738457
0.00739189988
0.00738136561
0.00100499757
0.00108450137
0.00459087155
0.00678489998
0.00717804367
0.00716156028
0.000972081905
0.00608956823
0.00740194156
0.000958676296
0.00106338916
0.00702816883
0.00708323449
0.000885891563
0.00111400939
0.0010180381
0.00443711148
0.00753655368
0.00753253032
0.00097437724
0.00103690069
0.00583752527
0.00738719555
0.00737920777
0.000995541273
0.00105017782
0.00509300881
0.00739622172
0.00738921122
0.000973920136
0.00104710055
0.00657302771
0.00732442565
0.000989155689
0.00102623435
0.00602790534
0.00788406456
0.00775749877
0.000908737498
0.00104388148
0.000996570633
0.00716000726
0.00787265869
0.000862457874
0.00101923497
0.00757105899
0.00759919385
0.000818786106
0.00106868891
0.000982499278
0.00683843034
0.00771523688
0.000922426003
0.00102558156
0.00685708985
0.00748331937
0.000961547996
0.00103425187
0.00565148948
0.00752941253
0.00751745184
0.000962007708
0.00104185666
0.0067746056
0.00732010478
0.000924491859
0.00105144901
0.00346157558
0.00750706541
0.00750052055
0.000907526721
0.00106059121
0.00700458348
0.00700538593
0.000869274966
0.00112773668
0.00222557615
0.00642614912
0.0075491822
0.00719425497
0.000960660685
0.00647669008
0.00721731233
0.000910587656
0.0011169232
0.00102937088
0.00519997849
0.00769502727
0.00722789906
0.000931204717
0.00588895135
0.0075295805
0.000960977017
0.00105296376
0.00669666127
0.00705492899
0.000949667111
0.00109527747
0.00676083327
0.00677821092
0.000923013328
0.001137578
0.00315493523
0.00647062715
0.00735743028
0.00717842018
0.000971517299
0.00495982933
0.0072826836
0.000968597996
0.00106987572
0.00658050846
0.00694249767
0.000984541213
0.00110239175
0.00557552793
0.00679845636
0.00723116433
0.00723317889
0.000933219297
0.00107716477
0.00691260241
0.00692516258
0.000912248924
0.00418427753
0.00745980608
0.000940456499
0.00106016224
0.00668121382
0.00696823447
0.00097672518
0.00110831925
0.00517318238
0.00671927826
0.0072593104
0.00726418568
0.000924691278
0.00106049951
0.00710268318
0.00737635264
0.000855030221
0.000999169943
0.000966278597
0.000976147143
0.00732991874
0.00788919222
0.000914482936
0.00101511941
)
;

boundaryField
{
    closed
    {
        type            calculated;
        value           nonuniform List<scalar> 0();
    }
    open
    {
        type            calculated;
        value           nonuniform List<scalar> 0();
    }
    sides
    {
        type            empty;
    }
    procBoundary2to1
    {
        type            processor;
        value           uniform 0.00699038427;
    }
    procBoundary2to3
    {
        type            processor;
        value           uniform 0.00615585402;
    }
}


// ************************************************************************* //
