/*--------------------------------*- C++ -*----------------------------------*\
| =========                 |                                                 |
| \\      /  F ield         | OpenFOAM: The Open Source CFD Toolbox           |
|  \\    /   O peration     | Version:  2306                                  |
|   \\  /    A nd           | Website:  www.openfoam.com                      |
|    \\/     M anipulation  |                                                 |
\*---------------------------------------------------------------------------*/
FoamFile
{
    version     2.0;
    format      ascii;
    arch        "LSB;label=32;scalar=64";
    class       volScalarField;
    location    "0.00192";
    object      prefDZ_H2O;
}
// * * * * * * * * * * * * * * * * * * * * * * * * * * * * * * * * * * * * * //

dimensions      [1 -1 -1 0 0 0 0];

internalField   nonuniform List<scalar> 
531
(
-7.75631344e-07
-7.4188011e-07
-7.30297753e-07
-7.31011524e-07
-7.76322968e-07
-7.75215872e-07
-7.74634858e-07
-7.74782611e-07
-7.45012141e-07
-7.35830199e-07
-7.3290159e-07
-7.32819809e-07
-7.76888743e-07
-7.74926009e-07
-7.33791711e-07
-7.33789223e-07
-7.76809624e-07
-7.73855845e-07
-7.75597496e-07
-7.4324913e-07
-7.30769068e-07
-7.32511107e-07
-7.76283981e-07
-7.74057979e-07
-7.74699001e-07
-7.4063312e-07
-7.35551172e-07
-7.32437336e-07
-7.32508095e-07
-7.7634132e-07
-7.7512661e-07
-7.36577685e-07
-7.32525569e-07
-7.52096538e-07
-7.74752156e-07
-7.72995574e-07
-7.73467514e-07
-7.38903771e-07
-7.3617621e-07
-7.74653777e-07
-7.74075033e-07
-7.40660841e-07
-7.36272009e-07
-7.32572796e-07
-7.32881209e-07
-7.76841776e-07
-7.74087055e-07
-7.75617529e-07
-7.40079205e-07
-7.34940657e-07
-7.75364608e-07
-7.74170392e-07
-7.3737327e-07
-7.3761083e-07
-7.7584312e-07
-7.42138836e-07
-7.33774191e-07
-7.76073439e-07
-7.74489475e-07
-7.75074306e-07
-7.59100044e-07
-7.36254298e-07
-7.3325324e-07
-7.33265059e-07
-7.76222182e-07
-7.73955469e-07
-7.74963897e-07
-7.44694209e-07
-7.33738117e-07
-7.33739175e-07
-7.75081494e-07
-7.75056512e-07
-7.47865592e-07
-7.32787855e-07
-7.34971557e-07
-7.76292383e-07
-7.42614327e-07
-7.31768694e-07
-7.75023854e-07
-7.74887996e-07
-7.40641401e-07
-7.34718089e-07
-7.33665316e-07
-7.38068582e-07
-7.76000895e-07
-7.73543207e-07
-7.75251318e-07
-7.73990059e-07
-7.35143836e-07
-7.3406874e-07
-7.77333451e-07
-7.73733009e-07
-7.75515453e-07
-7.44956386e-07
-7.33616844e-07
-7.33563397e-07
-7.75205094e-07
-7.75121446e-07
-7.49368238e-07
-7.33404823e-07
-7.35152756e-07
-7.76412245e-07
-7.44109349e-07
-7.32229256e-07
-7.75105121e-07
-7.75415311e-07
-7.41649327e-07
-7.3131575e-07
-7.32078596e-07
-7.76332166e-07
-7.73795093e-07
-7.74523248e-07
-7.4083002e-07
-7.35055674e-07
-7.36336221e-07
-7.32839033e-07
-7.36004053e-07
-7.75551359e-07
-7.73601511e-07
-7.74105321e-07
-7.36899841e-07
-7.34839973e-07
-7.72698879e-07
-7.7402639e-07
-7.76023887e-07
-7.73447929e-07
-7.74626473e-07
-7.44575101e-07
-7.33190635e-07
-7.32995746e-07
-7.75977323e-07
-7.75618081e-07
-7.39502174e-07
-7.28770943e-07
-7.29718536e-07
-7.77514747e-07
-7.75135296e-07
-7.76059274e-07
-7.35973732e-07
-7.32088612e-07
-7.77208997e-07
-7.75297266e-07
-7.75048064e-07
-7.74918195e-07
-7.43056637e-07
-7.35633976e-07
-7.31800709e-07
-7.31946422e-07
-7.77413029e-07
-7.74135284e-07
-7.75780287e-07
-7.42479758e-07
-7.33912843e-07
-7.33509174e-07
-7.35045495e-07
-7.75543577e-07
-7.74084149e-07
-7.74182243e-07
-7.73904155e-07
-7.51567819e-07
-7.36091038e-07
-7.36379678e-07
-7.33309787e-07
-7.36229309e-07
-7.75616832e-07
-7.73451221e-07
-7.74146332e-07
-7.73554812e-07
-7.469973e-07
-7.36494409e-07
-7.31678455e-07
-7.31631222e-07
-7.77596023e-07
-7.75161206e-07
-7.75186832e-07
-7.74846052e-07
-7.4370737e-07
-7.35909666e-07
-7.32006021e-07
-7.32003576e-07
-7.7767393e-07
-7.75126479e-07
-7.75234153e-07
-7.74656477e-07
-7.46200974e-07
-7.36808745e-07
-7.33861268e-07
-7.33737825e-07
-7.77090379e-07
-7.74885198e-07
-7.3623476e-07
-7.34180256e-07
-7.76612824e-07
-7.75000967e-07
-7.3720195e-07
-7.33588579e-07
-7.75973546e-07
-7.75764044e-07
-7.40571381e-07
-7.29396537e-07
-7.30122903e-07
-7.77456695e-07
-7.74977686e-07
-7.75779325e-07
-7.73993731e-07
-7.74108756e-07
-7.4572135e-07
-7.377728e-07
-7.3410288e-07
-7.34024516e-07
-7.76989159e-07
-7.74580743e-07
-7.35550605e-07
-7.3536522e-07
-7.77112502e-07
-7.7345231e-07
-7.74891765e-07
-7.43579475e-07
-7.34870446e-07
-7.35934513e-07
-7.32308499e-07
-7.38171213e-07
-7.76592849e-07
-7.72511923e-07
-7.75328566e-07
-7.45230709e-07
-7.2929397e-07
-7.29035753e-07
-7.77697905e-07
-7.75215436e-07
-7.75720884e-07
-7.74553073e-07
-7.38182865e-07
-7.37410483e-07
-7.76960155e-07
-7.40654368e-07
-7.33142767e-07
-7.77215519e-07
-7.74175037e-07
-7.75565436e-07
-7.44752398e-07
-7.34917744e-07
-7.3123405e-07
-7.31278451e-07
-7.78364639e-07
-7.75515103e-07
-7.75594933e-07
-7.75089218e-07
-7.42968371e-07
-7.35565948e-07
-7.3163649e-07
-7.31571747e-07
-7.77823617e-07
-7.74087296e-07
-7.75409952e-07
-7.425434e-07
-7.33591074e-07
-7.38002982e-07
-7.759653e-07
-7.73265419e-07
-7.74307506e-07
-7.73503386e-07
-7.48794084e-07
-7.36672892e-07
-7.3208421e-07
-7.31928079e-07
-7.77798252e-07
-7.75210485e-07
-7.34469603e-07
-7.3216421e-07
-7.76853688e-07
-7.75167339e-07
-7.39834137e-07
-7.34125785e-07
-7.37420945e-07
-7.75149066e-07
-7.73742957e-07
-7.53690246e-07
-7.35285795e-07
-7.37722001e-07
-7.75360946e-07
-7.73230971e-07
-7.74172648e-07
-7.73323827e-07
-7.52486597e-07
-7.37099443e-07
-7.32312842e-07
-7.32131335e-07
-7.77391274e-07
-7.74865851e-07
-7.34306505e-07
-7.3422471e-07
-7.77562318e-07
-7.74086825e-07
-7.75256217e-07
-7.55150512e-07
-7.35701038e-07
-7.35645951e-07
-7.35478741e-07
-7.32337518e-07
-7.33873345e-07
-7.76131061e-07
-7.73847812e-07
-7.74388061e-07
-7.3869975e-07
-7.33699351e-07
-7.75371787e-07
-7.75783063e-07
-7.4191839e-07
-7.7654349e-07
-7.73149857e-07
-7.39123989e-07
-7.37200112e-07
-7.31966177e-07
-7.31953477e-07
-7.77443358e-07
-7.74599121e-07
-7.7559692e-07
-7.37779443e-07
-7.36557042e-07
-7.76979321e-07
-7.39969321e-07
-7.32089598e-07
-7.77244489e-07
-7.74331172e-07
-7.75675516e-07
-7.39662592e-07
-7.33923354e-07
-7.7555327e-07
-7.75205197e-07
-7.4525811e-07
-7.32751985e-07
-7.32576944e-07
-7.76065201e-07
-7.74933596e-07
-7.38383666e-07
-7.34775537e-07
-7.75676296e-07
-7.75094513e-07
-7.45098033e-07
-7.32730406e-07
-7.32505995e-07
-7.76446937e-07
-7.74662075e-07
-7.37455677e-07
-7.35262987e-07
-7.7678726e-07
-7.74229958e-07
-7.36190419e-07
-7.36049021e-07
-7.7721147e-07
-7.73800744e-07
-7.75539365e-07
-7.54743881e-07
-7.32917901e-07
-7.32839299e-07
-7.76020166e-07
-7.75347512e-07
-7.43868258e-07
-7.32141928e-07
-7.31933973e-07
-7.76371948e-07
-7.74762391e-07
-7.37474333e-07
-7.34817944e-07
-7.7668989e-07
-7.7423446e-07
-7.37134515e-07
-7.35820057e-07
-7.76706056e-07
-7.73987765e-07
-7.37011279e-07
-7.36801231e-07
-7.76839481e-07
-7.52617106e-07
-7.31760863e-07
-7.75902838e-07
-7.75765911e-07
-7.42730485e-07
-7.30570909e-07
-7.31178605e-07
-7.77145971e-07
-7.74600909e-07
-7.75322542e-07
-7.38166162e-07
-7.35976149e-07
-7.77075168e-07
-7.73707717e-07
-7.75294423e-07
-7.50320087e-07
-7.33126254e-07
-7.33074001e-07
-7.76029388e-07
-7.7516352e-07
-7.44009986e-07
-7.3277095e-07
-7.32688218e-07
-7.76072751e-07
-7.75270181e-07
-7.43207013e-07
-7.32151755e-07
-7.32043296e-07
-7.76193651e-07
-7.75694477e-07
-7.41567753e-07
-7.2976922e-07
-7.29631273e-07
-7.77139428e-07
-7.75206961e-07
-7.75047691e-07
-7.74517514e-07
-7.42002981e-07
-7.36698176e-07
-7.75639682e-07
-7.7361158e-07
-7.39635862e-07
-7.38237614e-07
-7.75484205e-07
-7.73193247e-07
-7.49812612e-07
-7.39253529e-07
-7.35715088e-07
-7.35485032e-07
-7.76221727e-07
-7.74001381e-07
-7.39028606e-07
-7.37028551e-07
-7.75771476e-07
-7.73802451e-07
-7.43199987e-07
-7.37590865e-07
-7.33522099e-07
-7.3332096e-07
-7.77676366e-07
-7.74779227e-07
-7.34306461e-07
-7.33203255e-07
-7.78575233e-07
-7.74537865e-07
-7.76185271e-07
-7.74132182e-07
-7.37557289e-07
-7.37129523e-07
-7.77229302e-07
-7.3957343e-07
-7.32247387e-07
-7.77427282e-07
-7.74184742e-07
-7.75641645e-07
-7.46103823e-07
-7.31555506e-07
-7.3331109e-07
-7.7678452e-07
-7.38318794e-07
-7.3353197e-07
-7.77547242e-07
-7.74033197e-07
-7.75572201e-07
-7.46911588e-07
-7.31742303e-07
-7.33093983e-07
-7.76884239e-07
-7.37648187e-07
-7.32703807e-07
-7.77996895e-07
-7.74232716e-07
-7.76080481e-07
-7.40032973e-07
-7.33921903e-07
-7.76486195e-07
-7.7449718e-07
-7.36454519e-07
-7.36479242e-07
-7.77118902e-07
-7.73485617e-07
-7.74758952e-07
-7.47250607e-07
-7.36373336e-07
-7.32981724e-07
-7.32918104e-07
-7.77451949e-07
-7.74740883e-07
-7.34713609e-07
-7.34622515e-07
-7.77750359e-07
-7.73844185e-07
-7.75513705e-07
-7.39127264e-07
-7.34712241e-07
-7.76047097e-07
-7.74306442e-07
-7.38318929e-07
-7.36404455e-07
-7.757544e-07
-7.73910058e-07
-7.4299392e-07
-7.37298469e-07
-7.33976286e-07
-7.33787885e-07
-7.76941824e-07
-7.74447884e-07
-7.37033502e-07
-7.35205254e-07
-7.76697847e-07
-7.74104284e-07
-7.37719518e-07
-7.36127152e-07
-7.76315751e-07
-7.73897429e-07
-7.38608681e-07
-7.37106486e-07
-7.75705385e-07
-7.73758043e-07
-7.43940729e-07
-7.37917348e-07
-7.34480254e-07
-7.34428115e-07
-7.76779977e-07
-7.74760005e-07
-7.37830306e-07
-7.34613846e-07
-7.7596386e-07
-7.75302116e-07
-7.4300394e-07
-7.31743677e-07
-7.31488724e-07
-7.76989738e-07
-7.74926449e-07
-7.35061088e-07
-7.34054759e-07
-7.78235971e-07
)
;

boundaryField
{
    closed
    {
        type            calculated;
        value           nonuniform List<scalar> 0();
    }
    open
    {
        type            calculated;
        value           nonuniform List<scalar> 0();
    }
    sides
    {
        type            empty;
    }
    procBoundary3to2
    {
        type            processor;
        value           uniform -7.73818368e-07;
    }
    procBoundary3to4
    {
        type            processor;
        value           uniform -7.74179973e-07;
    }
}


// ************************************************************************* //
