/*--------------------------------*- C++ -*----------------------------------*\
| =========                 |                                                 |
| \\      /  F ield         | OpenFOAM: The Open Source CFD Toolbox           |
|  \\    /   O peration     | Version:  2306                                  |
|   \\  /    A nd           | Website:  www.openfoam.com                      |
|    \\/     M anipulation  |                                                 |
\*---------------------------------------------------------------------------*/
FoamFile
{
    version     2.0;
    format      ascii;
    arch        "LSB;label=32;scalar=64";
    class       volScalarField;
    location    "0.0009";
    object      prefDZ_H2;
}
// * * * * * * * * * * * * * * * * * * * * * * * * * * * * * * * * * * * * * //

dimensions      [1 -1 -1 0 0 0 0];

internalField   nonuniform List<scalar> 
530
(
6.38344574e-05
6.25516501e-05
6.23335051e-05
6.23307658e-05
6.23304678e-05
6.23304603e-05
6.23304598e-05
6.23304597e-05
6.23304597e-05
6.23304597e-05
6.23304597e-05
6.23304597e-05
6.23304597e-05
6.23304597e-05
6.23304597e-05
6.23304597e-05
6.23304597e-05
6.23304597e-05
6.23304597e-05
6.23304597e-05
6.23304597e-05
6.23304597e-05
6.23304597e-05
6.23304597e-05
6.23304597e-05
6.23304597e-05
6.23304597e-05
6.23304597e-05
6.23304597e-05
6.23304597e-05
6.23304597e-05
6.23304597e-05
6.23304597e-05
6.23304597e-05
6.23304597e-05
6.23304597e-05
6.23304597e-05
6.23304597e-05
6.23304597e-05
6.23304597e-05
6.23304597e-05
6.23304597e-05
6.23304597e-05
6.23304597e-05
6.23304597e-05
6.23304597e-05
6.23304597e-05
6.23304597e-05
6.23304597e-05
6.23304597e-05
6.23304597e-05
6.23304597e-05
6.23304597e-05
6.23304597e-05
6.23304597e-05
6.23304597e-05
6.23304597e-05
6.23304597e-05
6.23304597e-05
6.23304597e-05
6.23304597e-05
6.23304597e-05
6.23304597e-05
6.23304597e-05
6.23304597e-05
6.23304598e-05
6.23304598e-05
6.23304598e-05
6.23304599e-05
6.23304602e-05
6.23304607e-05
6.23304629e-05
6.23304662e-05
6.23304773e-05
6.23304929e-05
6.23305399e-05
6.23306073e-05
6.23307529e-05
6.23310034e-05
6.23315875e-05
6.23316355e-05
6.2332007e-05
6.23359272e-05
6.23484322e-05
6.23335327e-05
6.23050684e-05
6.23351605e-05
6.24962092e-05
6.23809176e-05
6.21178661e-05
6.22735081e-05
6.36144205e-05
6.36155053e-05
6.22681255e-05
6.138885e-05
6.20513297e-05
6.35860149e-05
6.36104526e-05
6.36166582e-05
6.22051144e-05
6.17121638e-05
6.16532744e-05
6.16537908e-05
6.35870295e-05
6.35972731e-05
6.36106507e-05
6.36134145e-05
6.22890894e-05
6.19204162e-05
6.18926379e-05
6.18931775e-05
6.360471e-05
6.35998528e-05
6.22775903e-05
6.19786169e-05
6.21972145e-05
6.18962501e-05
6.21066678e-05
6.35919244e-05
6.36157448e-05
6.36048955e-05
6.36202471e-05
6.22889132e-05
6.16080216e-05
6.17390837e-05
6.36157984e-05
6.35870852e-05
6.21630238e-05
6.15529141e-05
6.15720606e-05
6.35636395e-05
6.36145641e-05
6.19938964e-05
6.17585065e-05
6.3557959e-05
6.36115928e-05
6.19228709e-05
6.17609583e-05
6.35597281e-05
6.35962474e-05
6.19468828e-05
6.17654323e-05
6.35844963e-05
6.35714643e-05
6.21366058e-05
6.15178033e-05
6.1573002e-05
6.35478227e-05
6.36082539e-05
6.20579951e-05
6.18365325e-05
6.35567926e-05
6.36024988e-05
6.20519738e-05
6.18519719e-05
6.35840757e-05
6.35796573e-05
6.22251524e-05
6.16295675e-05
6.1660572e-05
6.35546116e-05
6.3609633e-05
6.21589839e-05
6.1935565e-05
6.35611784e-05
6.36007883e-05
6.21448381e-05
6.19401662e-05
6.35850759e-05
6.35774272e-05
6.23020685e-05
6.16920291e-05
6.17296504e-05
6.35661343e-05
6.36062993e-05
6.23105487e-05
6.19039145e-05
6.17583388e-05
6.176283e-05
6.3528084e-05
6.36034845e-05
6.21415903e-05
6.19347152e-05
6.35477546e-05
6.35948422e-05
6.2117179e-05
6.19131247e-05
6.35753385e-05
6.35709578e-05
6.22809378e-05
6.16537166e-05
6.16662397e-05
6.35451196e-05
6.35881587e-05
6.22118526e-05
6.19287204e-05
6.35585621e-05
6.3574796e-05
6.23356546e-05
6.16712444e-05
6.16748117e-05
6.35588857e-05
6.35487184e-05
6.22974138e-05
6.15667288e-05
6.1580302e-05
6.35138829e-05
6.35927648e-05
6.20555034e-05
6.17703319e-05
6.35129999e-05
6.35983848e-05
6.19484967e-05
6.17157983e-05
6.35035548e-05
6.3597757e-05
6.18927903e-05
6.16669703e-05
6.3501182e-05
6.35948449e-05
6.18582469e-05
6.16390898e-05
6.35004813e-05
6.35926994e-05
6.18484479e-05
6.16358016e-05
6.35006817e-05
6.3590624e-05
6.18614263e-05
6.16593069e-05
6.35034956e-05
6.3585369e-05
6.18949721e-05
6.17095575e-05
6.35162916e-05
6.35721665e-05
6.19398194e-05
6.17095699e-05
6.35508105e-05
6.35513793e-05
6.21733312e-05
6.14050282e-05
6.14332506e-05
6.35211846e-05
6.35892584e-05
6.20904997e-05
6.18136287e-05
6.35265134e-05
6.35904969e-05
6.2090017e-05
6.1845155e-05
6.35588971e-05
6.35697064e-05
6.23087667e-05
6.15859945e-05
6.15965503e-05
6.35456143e-05
6.35836409e-05
6.22167083e-05
6.19112466e-05
6.3576435e-05
6.35719122e-05
6.22997328e-05
6.16740971e-05
6.16850813e-05
6.35352529e-05
6.36106053e-05
6.22605796e-05
6.1976009e-05
6.35657859e-05
6.36176074e-05
6.23249025e-05
6.19527671e-05
6.17989769e-05
6.17995056e-05
6.35474776e-05
6.36033544e-05
6.22932323e-05
6.20222547e-05
6.3580021e-05
6.35922117e-05
6.22912425e-05
6.17621979e-05
6.18863146e-05
6.35936106e-05
6.36085205e-05
6.36136347e-05
6.22917581e-05
6.20083061e-05
6.18454216e-05
6.1845536e-05
6.35761118e-05
6.35866392e-05
6.22938685e-05
6.18081661e-05
6.18084345e-05
6.35702195e-05
6.35869326e-05
6.22944099e-05
6.18781654e-05
6.18775371e-05
6.35685943e-05
6.35821705e-05
6.22955226e-05
6.18334761e-05
6.18357021e-05
6.35615217e-05
6.35735487e-05
6.22974565e-05
6.17274623e-05
6.17335279e-05
6.35418156e-05
6.35873809e-05
6.22176109e-05
6.18877234e-05
6.35740806e-05
6.35647546e-05
6.22928088e-05
6.15075305e-05
6.15221538e-05
6.35086854e-05
6.35925345e-05
6.20168072e-05
6.17733057e-05
6.35042653e-05
6.35917448e-05
6.35381648e-05
6.3602005e-05
6.2313098e-05
6.16108062e-05
6.14674602e-05
6.14736342e-05
6.35016209e-05
6.35882474e-05
6.20067517e-05
6.17410644e-05
6.35165333e-05
6.35834523e-05
6.20360059e-05
6.17752633e-05
6.35548475e-05
6.35633522e-05
6.22763527e-05
6.15192899e-05
6.15332982e-05
6.35094963e-05
6.3606449e-05
6.22237154e-05
6.19157129e-05
6.35282879e-05
6.36087563e-05
6.22536575e-05
6.19980731e-05
6.35521218e-05
6.35858479e-05
6.23069631e-05
6.18356579e-05
6.18374543e-05
6.35524287e-05
6.35816331e-05
6.229375e-05
6.19192505e-05
6.2061968e-05
6.17194773e-05
6.17241312e-05
6.35240827e-05
6.3571609e-05
6.35708318e-05
6.35809026e-05
6.22956092e-05
6.16946653e-05
6.16986862e-05
6.35860348e-05
6.35745834e-05
6.22899642e-05
6.1726265e-05
6.18711175e-05
6.14816834e-05
6.1494046e-05
6.34989834e-05
6.3574764e-05
6.35471819e-05
6.35887688e-05
6.2264822e-05
6.17672473e-05
6.35600959e-05
6.35686886e-05
6.22985184e-05
6.15239548e-05
6.15371509e-05
6.35052905e-05
6.35714826e-05
6.22055271e-05
6.18336074e-05
6.35402505e-05
6.35547261e-05
6.23225707e-05
6.15219661e-05
6.15334538e-05
6.3521338e-05
6.35766321e-05
6.20404108e-05
6.19029638e-05
6.35028128e-05
6.22324157e-05
6.15484516e-05
6.3515123e-05
6.35523949e-05
6.35465237e-05
6.2168242e-05
6.16670647e-05
6.35241016e-05
6.35949228e-05
6.35615659e-05
6.23027037e-05
6.16071827e-05
6.18269912e-05
6.14760902e-05
6.14819529e-05
6.34743499e-05
6.35670323e-05
6.21249087e-05
6.19083433e-05
6.34994968e-05
6.35676937e-05
6.35610805e-05
6.21959892e-05
6.17150094e-05
6.3530143e-05
6.35451888e-05
6.23164792e-05
6.14077661e-05
6.14250711e-05
6.34707682e-05
6.35796471e-05
6.20862709e-05
6.18278966e-05
6.3484631e-05
6.35946001e-05
6.35460326e-05
6.23134112e-05
6.1489889e-05
6.14911589e-05
6.3504186e-05
6.35503438e-05
6.2320528e-05
6.16629198e-05
6.16699399e-05
6.34971184e-05
6.35459614e-05
6.23214894e-05
6.17507554e-05
6.17505589e-05
6.34996552e-05
6.35500172e-05
6.23252678e-05
6.17048773e-05
6.17030268e-05
6.35051614e-05
6.35489933e-05
6.23263094e-05
6.15337119e-05
6.15369007e-05
6.34779837e-05
6.35552872e-05
6.35414538e-05
6.35620296e-05
6.23048889e-05
6.14810955e-05
6.14844829e-05
6.35091307e-05
6.35452508e-05
6.23056517e-05
6.14349609e-05
6.14467498e-05
6.34629236e-05
6.35866154e-05
6.213678e-05
6.17470199e-05
6.34524529e-05
6.35887034e-05
6.20924981e-05
6.1778447e-05
6.3453341e-05
6.35767488e-05
6.21180142e-05
6.17753998e-05
6.34909871e-05
6.35435477e-05
6.23180287e-05
6.14929402e-05
6.15167384e-05
6.3434174e-05
6.35875259e-05
6.22463241e-05
6.18425365e-05
6.3450713e-05
6.358622e-05
6.22101313e-05
6.1834238e-05
6.34886868e-05
6.35543375e-05
6.23088921e-05
6.15172493e-05
6.15286425e-05
6.34486917e-05
6.36045548e-05
6.22762636e-05
6.18587181e-05
6.34547667e-05
6.36092114e-05
6.22689314e-05
6.18934601e-05
6.34893388e-05
6.35792926e-05
6.23019851e-05
6.16726001e-05
6.16635929e-05
6.35037624e-05
6.35903606e-05
6.23064408e-05
6.17105808e-05
6.20964825e-05
6.35422347e-05
6.23065405e-05
6.18385488e-05
6.34861914e-05
6.35991414e-05
6.23536346e-05
6.1982969e-05
)
;

boundaryField
{
    closed
    {
        type            calculated;
        value           uniform 8.14287576e-05;
    }
    open
    {
        type            calculated;
        value           nonuniform List<scalar> 0();
    }
    sides
    {
        type            empty;
    }
    procBoundary0to1
    {
        type            processor;
        value           uniform 6.35002431e-05;
    }
}


// ************************************************************************* //
