/*--------------------------------*- C++ -*----------------------------------*\
| =========                 |                                                 |
| \\      /  F ield         | OpenFOAM: The Open Source CFD Toolbox           |
|  \\    /   O peration     | Version:  2306                                  |
|   \\  /    A nd           | Website:  www.openfoam.com                      |
|    \\/     M anipulation  |                                                 |
\*---------------------------------------------------------------------------*/
FoamFile
{
    version     2.0;
    format      ascii;
    arch        "LSB;label=32;scalar=64";
    class       volScalarField;
    location    "0.0009";
    object      prefDPV_T;
}
// * * * * * * * * * * * * * * * * * * * * * * * * * * * * * * * * * * * * * //

dimensions      [1 -1 -1 -1 0 0 0];

internalField   nonuniform List<scalar> 
530
(
6.03244059e-10
5.97935221e-10
5.97546494e-10
5.97549617e-10
5.97549777e-10
5.97549775e-10
5.97549775e-10
5.97549775e-10
5.97549775e-10
5.97549775e-10
5.97549775e-10
5.97549775e-10
5.97549775e-10
5.97549775e-10
5.97549775e-10
5.97549775e-10
5.97549775e-10
5.97549775e-10
5.97549775e-10
5.97549775e-10
5.97549775e-10
5.97549775e-10
5.97549775e-10
5.97549775e-10
5.97549775e-10
5.97549775e-10
5.97549775e-10
5.97549775e-10
5.97549775e-10
5.97549775e-10
5.97549775e-10
5.97549775e-10
5.97549775e-10
5.97549775e-10
5.97549775e-10
5.97549775e-10
5.97549775e-10
5.97549775e-10
5.97549775e-10
5.97549775e-10
5.97549775e-10
5.97549775e-10
5.97549775e-10
5.97549775e-10
5.97549775e-10
5.97549775e-10
5.97549775e-10
5.97549775e-10
5.97549775e-10
5.97549775e-10
5.97549775e-10
5.97549775e-10
5.97549775e-10
5.97549775e-10
5.97549775e-10
5.97549775e-10
5.97549775e-10
5.97549775e-10
5.97549775e-10
5.97549775e-10
5.97549775e-10
5.97549775e-10
5.97549775e-10
5.97549775e-10
5.97549775e-10
5.97549775e-10
5.97549775e-10
5.97549775e-10
5.97549775e-10
5.97549775e-10
5.97549775e-10
5.97549776e-10
5.9754978e-10
5.97549782e-10
5.97549776e-10
5.97549838e-10
5.97549899e-10
5.97549668e-10
5.97550751e-10
5.97553831e-10
5.97540707e-10
5.97510036e-10
5.97607231e-10
5.97867231e-10
5.97434217e-10
5.95996446e-10
5.97363247e-10
6.01075851e-10
5.98580201e-10
5.90590237e-10
5.90918239e-10
6.08586514e-10
6.08451802e-10
5.90980454e-10
5.88952106e-10
5.90387543e-10
6.09421538e-10
6.08093024e-10
6.0854804e-10
5.90696684e-10
5.89638407e-10
5.89487957e-10
5.8951069e-10
6.09114518e-10
6.08500126e-10
6.08411102e-10
6.08373884e-10
5.91174165e-10
5.90121245e-10
5.90017735e-10
5.90041523e-10
6.08868267e-10
6.08337642e-10
5.91637569e-10
5.90331833e-10
5.9066362e-10
5.90150637e-10
5.90498145e-10
6.08794482e-10
6.08181316e-10
6.08261535e-10
6.08377674e-10
5.92033493e-10
5.89378569e-10
5.89694092e-10
6.08777209e-10
6.08646269e-10
5.90548418e-10
5.89388068e-10
5.89222299e-10
6.0910028e-10
6.08503009e-10
5.90371307e-10
5.89691806e-10
6.09446222e-10
6.08440056e-10
5.90222684e-10
5.89724854e-10
6.09470831e-10
6.08494142e-10
5.90231256e-10
5.89816575e-10
6.09258871e-10
6.08738955e-10
5.90548123e-10
5.8936806e-10
5.8925974e-10
6.0917831e-10
6.08485875e-10
5.90558474e-10
5.89902026e-10
6.09402323e-10
6.08395812e-10
5.90491083e-10
5.89997629e-10
6.09192172e-10
6.08621842e-10
5.90756822e-10
5.89610905e-10
5.89465867e-10
6.09069393e-10
6.08395594e-10
5.90780307e-10
5.90143451e-10
6.09310553e-10
6.08315998e-10
5.90702957e-10
5.90222434e-10
6.09116485e-10
6.08566275e-10
5.91015028e-10
5.89757585e-10
5.89641418e-10
6.0895579e-10
6.08402852e-10
5.91083616e-10
5.90097257e-10
5.89906744e-10
5.89731344e-10
6.09519099e-10
6.08387457e-10
5.90802667e-10
5.90163712e-10
6.09442666e-10
6.08352528e-10
5.9066881e-10
5.90174184e-10
6.0925745e-10
6.08622682e-10
5.90923008e-10
5.89706279e-10
5.89538506e-10
6.09123602e-10
6.08475963e-10
5.90921754e-10
5.90218166e-10
6.09299193e-10
6.08572317e-10
5.91174195e-10
5.89698531e-10
5.89668143e-10
6.0915296e-10
6.08826179e-10
5.90959556e-10
5.89571218e-10
5.89323336e-10
6.09466619e-10
6.0857845e-10
5.90649744e-10
5.89781761e-10
6.09837862e-10
6.0851184e-10
5.90434601e-10
5.89637576e-10
6.0997114e-10
6.08563091e-10
5.90316133e-10
5.89527552e-10
6.100483e-10
6.08609884e-10
5.90235403e-10
5.89469193e-10
6.10091955e-10
6.08633374e-10
5.90211767e-10
5.8946792e-10
6.10103785e-10
6.0863337e-10
5.90238837e-10
5.89536221e-10
6.10077926e-10
6.0862021e-10
5.90297689e-10
5.89689947e-10
6.0999127e-10
6.08643184e-10
5.90323879e-10
5.8975868e-10
6.09703613e-10
6.08911734e-10
5.90701308e-10
5.89182036e-10
5.89007437e-10
6.09494131e-10
6.08633924e-10
5.90710622e-10
5.89898569e-10
6.09805669e-10
6.08469163e-10
5.90661798e-10
5.90018948e-10
6.09548222e-10
6.08695509e-10
5.91018022e-10
5.89536705e-10
5.8940059e-10
6.09303076e-10
6.08541571e-10
5.90874297e-10
5.90185211e-10
6.09393093e-10
6.08617395e-10
5.91351973e-10
5.897474e-10
5.89534993e-10
6.09340299e-10
6.08370926e-10
5.91013204e-10
5.90212861e-10
6.09446247e-10
6.08260097e-10
5.91409548e-10
5.90193133e-10
5.89965749e-10
5.89821824e-10
6.09537571e-10
6.08339148e-10
5.91065429e-10
5.90388757e-10
6.09303609e-10
6.08422432e-10
5.92228499e-10
5.89835152e-10
5.90035417e-10
6.09061872e-10
6.08054196e-10
6.08126797e-10
5.91926014e-10
5.90334481e-10
5.89970188e-10
5.89960562e-10
6.09371644e-10
6.08503719e-10
5.92034177e-10
5.89978191e-10
5.89870657e-10
6.09044607e-10
6.08437489e-10
5.92582298e-10
5.90130548e-10
5.90049887e-10
6.09033131e-10
6.08453343e-10
5.92510431e-10
5.90043561e-10
5.89956986e-10
6.09157645e-10
6.08576858e-10
5.91884982e-10
5.89858604e-10
5.89687733e-10
6.09342868e-10
6.08483369e-10
5.90876093e-10
5.90141068e-10
6.09414602e-10
6.08734429e-10
5.90928622e-10
5.89400739e-10
5.89182681e-10
6.096228e-10
6.08597121e-10
5.90563172e-10
5.89792227e-10
6.10314004e-10
6.08599931e-10
6.09135349e-10
6.08650965e-10
5.91111286e-10
5.894351e-10
5.89257887e-10
5.89093559e-10
6.10161496e-10
6.08683036e-10
5.90538712e-10
5.89743418e-10
6.10024118e-10
6.08567527e-10
5.90520236e-10
5.89873846e-10
6.09715699e-10
6.08798456e-10
5.90895704e-10
5.89432474e-10
5.89182303e-10
6.09652595e-10
6.08496766e-10
5.91001763e-10
5.90086562e-10
6.09775442e-10
6.08291469e-10
5.91030029e-10
5.90326748e-10
6.0955307e-10
6.08414662e-10
5.92201007e-10
5.90060186e-10
5.89971775e-10
6.09240334e-10
6.08441935e-10
5.92595065e-10
5.9023487e-10
5.90468488e-10
5.89808773e-10
5.89729648e-10
6.09718604e-10
6.08565325e-10
6.08584534e-10
6.08539094e-10
5.9315165e-10
5.89681722e-10
5.89671105e-10
6.09016685e-10
6.08641574e-10
5.91541191e-10
5.89834921e-10
5.89991021e-10
5.89308215e-10
5.89168116e-10
6.10057633e-10
6.08703123e-10
6.08910415e-10
6.08596337e-10
5.90972273e-10
5.89835594e-10
6.09636207e-10
6.08780959e-10
5.90972992e-10
5.89430277e-10
5.89270994e-10
6.09714405e-10
6.08662879e-10
5.90917186e-10
5.90053297e-10
6.09731597e-10
6.0878985e-10
5.91244494e-10
5.89448325e-10
5.89295668e-10
6.09583159e-10
6.08595809e-10
5.90579334e-10
5.90150229e-10
6.10331883e-10
5.9087673e-10
5.89494329e-10
6.10538516e-10
6.08586513e-10
6.0933543e-10
5.90768832e-10
5.89622451e-10
6.10327211e-10
6.08330193e-10
6.08699949e-10
5.90985454e-10
5.89615298e-10
5.8991859e-10
5.89371506e-10
5.89182003e-10
6.10047443e-10
6.08654467e-10
5.90840461e-10
5.90200356e-10
6.10390038e-10
6.08351026e-10
6.08620049e-10
5.90865389e-10
5.8980594e-10
6.09999837e-10
6.08961615e-10
5.91039547e-10
5.8924028e-10
5.89009739e-10
6.1011728e-10
6.08683133e-10
5.90739074e-10
5.89944407e-10
6.10594296e-10
6.08255065e-10
6.0872407e-10
5.9110964e-10
5.89363733e-10
5.89207221e-10
6.0990671e-10
6.08847213e-10
5.91884766e-10
5.89797905e-10
5.89649879e-10
6.09883993e-10
6.08741182e-10
5.92415132e-10
5.90023643e-10
5.89846409e-10
6.09817161e-10
6.08704269e-10
5.92293797e-10
5.89900269e-10
5.89736736e-10
6.09885478e-10
6.08820621e-10
5.9188099e-10
5.89523287e-10
5.89341311e-10
6.10274362e-10
6.08840659e-10
6.08879491e-10
6.08850441e-10
5.92441325e-10
5.89293669e-10
5.89200975e-10
6.09944457e-10
6.08988201e-10
5.91257417e-10
5.8932386e-10
5.89028681e-10
6.10277891e-10
6.08696979e-10
5.90907916e-10
5.89750305e-10
6.10677323e-10
6.08570788e-10
5.90821997e-10
5.89839599e-10
6.10709558e-10
6.08604371e-10
5.90815781e-10
5.89909173e-10
6.1048903e-10
6.08867792e-10
5.91279777e-10
5.89493684e-10
5.89199817e-10
6.1054423e-10
6.08632717e-10
5.91183665e-10
5.89978888e-10
6.10714764e-10
6.08519918e-10
5.9102915e-10
5.90012096e-10
6.10550309e-10
6.08792819e-10
5.9153329e-10
5.89518449e-10
5.89193806e-10
6.10544021e-10
6.08560317e-10
5.91222726e-10
5.89947261e-10
6.10780551e-10
6.08409102e-10
5.91142685e-10
5.90068043e-10
6.10599529e-10
6.08598481e-10
5.9204183e-10
5.89775714e-10
5.89529043e-10
6.10232421e-10
6.08613792e-10
5.94027272e-10
5.89753249e-10
5.90634105e-10
6.09698629e-10
5.93990279e-10
5.89978559e-10
6.10491324e-10
6.08409883e-10
5.91581375e-10
5.90299047e-10
)
;

boundaryField
{
    closed
    {
        type            calculated;
        value           uniform 7.28172648e-10;
    }
    open
    {
        type            calculated;
        value           nonuniform List<scalar> 0();
    }
    sides
    {
        type            empty;
    }
    procBoundary0to1
    {
        type            processor;
        value           uniform 6.10443847e-10;
    }
}


// ************************************************************************* //
