/*--------------------------------*- C++ -*----------------------------------*\
| =========                 |                                                 |
| \\      /  F ield         | OpenFOAM: The Open Source CFD Toolbox           |
|  \\    /   O peration     | Version:  2306                                  |
|   \\  /    A nd           | Website:  www.openfoam.com                      |
|    \\/     M anipulation  |                                                 |
\*---------------------------------------------------------------------------*/
FoamFile
{
    version     2.0;
    format      ascii;
    arch        "LSB;label=32;scalar=64";
    class       volScalarField;
    location    "0.0011";
    object      prefDZ_H;
}
// * * * * * * * * * * * * * * * * * * * * * * * * * * * * * * * * * * * * * //

dimensions      [1 -1 -1 0 0 0 0];

internalField   nonuniform List<scalar> 
530
(
0.000111858119
0.000108429657
0.000107851314
0.000107841087
0.000107840128
0.000107840097
0.000107840095
0.000107840095
0.000107840095
0.000107840095
0.000107840095
0.000107840095
0.000107840095
0.000107840095
0.000107840095
0.000107840095
0.000107840095
0.000107840095
0.000107840095
0.000107840095
0.000107840095
0.000107840095
0.000107840095
0.000107840095
0.000107840095
0.000107840095
0.000107840095
0.000107840095
0.000107840095
0.000107840095
0.000107840095
0.000107840095
0.000107840095
0.000107840095
0.000107840095
0.000107840095
0.000107840095
0.000107840095
0.000107840095
0.000107840095
0.000107840095
0.000107840095
0.000107840095
0.000107840095
0.000107840095
0.000107840095
0.000107840095
0.000107840095
0.000107840095
0.000107840095
0.000107840095
0.000107840095
0.000107840095
0.000107840095
0.000107840095
0.000107840095
0.000107840095
0.000107840095
0.000107840095
0.000107840095
0.000107840095
0.000107840095
0.000107840095
0.000107840095
0.000107840095
0.000107840096
0.000107840096
0.000107840097
0.0001078401
0.00010784011
0.000107840123
0.000107840174
0.000107840229
0.000107840436
0.000107840651
0.000107841432
0.000107841459
0.000107843287
0.00010784576
0.000107856461
0.000107844426
0.000107836064
0.000107848976
0.000107981259
0.000107958843
0.000107716623
0.00010765561
0.000110473574
0.000110390546
0.000107758088
0.000106221081
0.000107194417
0.000110432283
0.000110301935
0.000107750257
0.000105735049
0.000106525914
0.000110269411
0.000110404998
0.000110259193
0.000107835269
0.000106618284
0.000107114084
0.000106052025
0.000106843817
0.000110302957
0.000110359544
0.0001103096
0.000110347155
0.000106230277
0.000106126691
0.000110372822
0.000110300947
0.000107784261
0.000106824506
0.000106884219
0.00010672347
0.000105827812
0.000106445458
0.000110265282
0.000110284376
0.00011025193
0.000110313088
0.000110194659
0.000106248449
0.000105943405
0.000110383834
0.000110172197
0.000107713352
0.000105737151
0.000107531406
0.000110230978
0.000107786072
0.000106461503
0.000110390259
0.000110134858
0.000106818657
0.000106936466
0.000110361114
0.000110079131
0.000106325085
0.000107104915
0.000110343529
0.00011035835
0.000110169442
0.000107733404
0.000105200386
0.000107695809
0.000110136808
0.000107849518
0.000106568227
0.000110341341
0.000109827059
0.00010613664
0.000106867171
0.000110291338
0.000110218992
0.000110085
0.000106021209
0.000105915767
0.000110306882
0.000109782966
0.000106342785
0.00010695748
0.000110358737
0.000110015324
0.000107106897
0.000106810828
0.000107864469
0.000110261864
0.000109903631
0.000107080022
0.000107465879
0.000110326081
0.000110031607
0.00010672393
0.000106611169
0.000106295505
0.000107319455
0.000110312681
0.000109634212
0.000106672826
0.000107529271
0.000110349529
0.000109828224
0.000106880796
0.000106965701
0.000108036389
0.000110118155
0.000109564148
0.000106402708
0.000107107665
0.000110219288
0.000109297862
0.000105722742
0.000107074573
0.000110171658
0.000110230226
0.000109338681
0.000106306814
0.000107170826
0.000110332741
0.000109893245
0.000107158152
0.000106922796
0.000106845936
0.00010772452
0.000109878702
0.000107725125
0.000107757807
0.000110370943
0.000109541743
0.000106963695
0.000107869997
0.000110415975
0.000109549352
0.000107045468
0.000107838381
0.00011047454
0.000109956279
0.000107381561
0.000106744242
0.000107737279
0.000110335173
0.000109593745
0.00010706208
0.000107747436
0.000109891376
0.000107717553
0.000107812209
0.000110428375
0.000109506883
0.000106953269
0.000107871896
0.000110430488
0.000109501581
0.000107034583
0.000107826076
0.000110483211
0.000110039088
0.000107733593
0.000106926891
0.000106679032
0.000107716029
0.000109777466
0.000107521716
0.000107890918
0.000110296424
0.000109123367
0.00010643637
0.000107796234
0.000110239233
0.00011025896
0.000108783412
0.000106007074
0.000107369751
0.000110314427
0.00010935803
0.000106212648
0.000106345859
0.000108119781
0.000110167682
0.000109183799
0.000106562292
0.000107869154
0.000110287069
0.000109208777
0.000106850287
0.000107937327
0.000110273416
0.000109759212
0.000106806048
0.000106829576
0.000106778869
0.00010781078
0.000110232544
0.000109065903
0.000106509226
0.000107513822
0.000110051286
0.000110233064
0.00010956223
0.000106526946
0.000106128276
0.000107774634
0.000110262006
0.000110316759
0.000109975468
0.000106719653
0.000106628631
0.000107199696
0.000107919224
0.000110316814
0.000109914674
0.000106222394
0.000106172271
0.000107817505
0.000110190856
0.000108830625
0.000106601518
0.000107917222
0.000110291792
0.000109895607
0.000106736412
0.000105322213
0.000107755182
0.000110248559
0.000110154456
0.000107871779
0.000105377594
0.000107695809
0.00011009131
0.000108249909
0.000105808755
0.000107760803
0.000110233986
0.000110204314
0.00010818304
0.00010602036
0.000107769108
0.00011020512
0.000109824029
0.00010573257
0.000105674304
0.000107814753
0.000110150803
0.000110064513
0.000110157864
0.000109859599
0.000106261292
0.000105309384
0.000107769651
0.000110158439
0.000108814617
0.00010635929
0.000107824818
0.000110268589
0.000108729814
0.000106548457
0.000107858763
0.000110459325
0.000110047163
0.000107709653
0.00010575821
0.000107712208
0.000110166221
0.000108805688
0.000106394121
0.000107849192
0.000110195039
0.000108702288
0.000106396783
0.000107799581
0.000110276967
0.000110267293
0.000108328152
0.000106554071
0.000107845645
0.000110305644
0.000110009841
0.000106630596
0.000106625765
0.000107092547
0.000107022964
0.000106929487
0.000107862151
0.000110332207
0.000110114671
0.000110326709
0.000109356144
0.000107355272
0.000107921395
0.000110384353
0.000110115085
0.000106907378
0.000106693716
0.000106981115
0.000106746734
0.000106502227
0.000107764525
0.000110315089
0.000110317518
0.00010897595
0.00010720085
0.000107822244
0.000110362217
0.00011025936
0.000108120805
0.000106204863
0.000107728863
0.00011034667
0.000108757049
0.000106531762
0.000107835115
0.000110349731
0.000110179126
0.000107126812
0.000106657716
0.000106595992
0.000107895855
0.000110014562
0.000107465232
0.000107973734
0.000110397723
0.000109106697
0.000106882774
0.000107975187
0.000110396883
0.000109749602
0.000107001004
0.000107920884
0.000110353278
0.000110108661
0.00011026903
0.000110016237
0.000105809626
0.000105775926
0.000106619582
0.000105699866
0.000107772068
0.000109682027
0.000107418963
0.00010789569
0.000110301711
0.000110323005
0.000108915873
0.000107490926
0.000107860767
0.000110428131
0.000110213623
0.000107829954
0.000106545325
0.000106809635
0.000107814356
0.000110308714
0.000109057611
0.000106594843
0.000107809635
0.000110344843
0.000110296819
0.000108108266
0.000106651969
0.000107837404
0.000110283861
0.000110188227
0.000105703375
0.000105663852
0.000107824233
0.000110179876
0.000110260202
0.000106286226
0.000105978278
0.000107837853
0.000110213978
0.000110250213
0.00010634917
0.000106122028
0.000107840592
0.000110174561
0.000110212995
0.000106462343
0.000106376216
0.000106741731
0.000107814281
0.000110298309
0.000110304073
0.000110252635
0.00010856462
0.00010670545
0.000107902588
0.00011025871
0.000110180038
0.000105396234
0.00010525731
0.000107834508
0.000110181746
0.000109237473
0.000106541416
0.00010792192
0.000110294449
0.000109046496
0.000106738218
0.000107968903
0.000110341762
0.000109474102
0.00010690897
0.000107984423
0.000110318903
0.00011018525
0.000106231993
0.000105733831
0.00010785567
0.00011022587
0.000109753723
0.000106602077
0.000107874688
0.000110348313
0.000109787301
0.000106859943
0.000108026328
0.000110329673
0.000110210264
0.000106449054
0.000105818033
0.000107879668
0.000110229812
0.000110197399
0.000106632311
0.000107606853
0.000110345836
0.000110073925
0.00010688864
0.000108069245
0.00011032889
0.000110203308
0.000106376129
0.000105645238
0.000107885939
0.000110216332
0.000110255532
0.000106425584
0.000107294311
0.0001103184
0.000109898702
0.000106603057
0.000107491574
0.00011036123
0.000110268764
0.000106942944
0.000107947834
)
;

boundaryField
{
    closed
    {
        type            calculated;
        value           uniform 0.000143896741;
    }
    open
    {
        type            calculated;
        value           nonuniform List<scalar> 0();
    }
    sides
    {
        type            empty;
    }
    procBoundary0to1
    {
        type            processor;
        value           uniform 0.00011033001;
    }
}


// ************************************************************************* //
