/*--------------------------------*- C++ -*----------------------------------*\
| =========                 |                                                 |
| \\      /  F ield         | OpenFOAM: The Open Source CFD Toolbox           |
|  \\    /   O peration     | Version:  2306                                  |
|   \\  /    A nd           | Website:  www.openfoam.com                      |
|    \\/     M anipulation  |                                                 |
\*---------------------------------------------------------------------------*/
FoamFile
{
    version     2.0;
    format      ascii;
    arch        "LSB;label=32;scalar=64";
    class       volScalarField;
    location    "0.00066";
    object      h;
}
// * * * * * * * * * * * * * * * * * * * * * * * * * * * * * * * * * * * * * //

dimensions      [0 2 -2 0 0 0 0];

internalField   nonuniform List<scalar> 
530
(
-3382.07447
-4404.53993
3628.30805
9631.14233
6308.6073
-3423.65921
-4403.74017
3643.3208
9739.38216
6930.04154
-2054.843
-4938.51016
-1910.22429
8447.76563
10257.4981
10227.5855
4422.29316
-2164.0734
-4915.30999
-4921.4604
8069.03848
9791.32522
3584.87444
-4416.01497
-4515.91866
5807.16059
9946.1525
6193.1863
-1361.79899
-4826.86467
-4825.76002
7511.44562
9686.04036
2924.82453
-4482.81099
-3709.80534
7384.765
10214.069
10216.283
3838.78278
-2471.16199
-5049.31165
-5093.96019
5788.00764
9467.96276
2011.63835
-3577.46406
9.18374809
4347.00382
161.987987
-2443.895
5599.91761
9389.268
715.224372
-3136.34821
5056.33034
9570.18545
3733.22191
-4055.81087
-4096.33314
7787.23936
9696.58425
1746.1703
-4426.96493
702.266999
8787.19528
5381.83588
-3997.50334
-4190.63758
7241.17537
9621.98656
1380.66003
-3920.11459
2368.99817
6617.12181
-107.702244
-3089.4024
5459.83693
9573.44615
3414.46738
-4154.8896
-3913.18495
7949.69522
9577.4105
915.326463
-4409.49303
2454.47595
9074.10569
3834.96951
-4213.08809
-3702.59838
8004.52349
9419.68924
-8.03604078
-4209.41688
4528.19907
8029.15206
-726.80946
-3526.66347
5619.65399
9744.44185
4330.85052
-4300.73377
-4650.60044
6318.33483
9669.44797
3738.23584
-4859.81024
-4730.9704
7711.23185
8629.12644
-1499.01967
-3342.19213
6191.73043
9745.7971
3755.10956
-4390.95504
-4493.02333
7217.36816
9720.37767
3321.28664
-4554.49149
-4613.18408
7468.91484
9744.37542
3202.23201
-4546.03433
-4553.01864
7744.41466
9831.79886
3252.49784
-4389.72228
-4310.45072
7906.20673
9815.77214
2858.96573
-4808.9045
-3074.53401
8316.65826
8317.0633
-2258.92824
-2862.74634
7448.97351
9836.67811
2845.8373
-4585.89792
-4164.29377
7988.52678
9689.39239
2103.99555
-5182.0592
-2794.94204
8314.91211
7676.73992
-2572.2268
-2851.00531
7918.58611
9778.19784
2246.60411
-4725.7989
-3889.60883
8110.54557
9712.02844
1747.3053
-5060.94924
-2067.77162
8500.50825
7222.12919
-2500.06011
-2484.24556
8493.0056
9670.29005
1420.70743
-4855.24935
-3325.87015
8319.46841
9469.00319
521.535475
-5465.38513
-2084.49264
8377.55754
6300.9999
-3613.21826
-1206.68191
8578.05149
6108.92224
-3818.48764
-1418.57365
8508.21014
5819.22011
-3800.01546
-987.410528
8699.74572
5945.01404
-3223.47755
-1987.32199
8742.21869
9188.95325
-978.810868
-5610.67959
-740.119002
8737.25595
4885.13625
-3786.70784
444.261579
9089.36939
4916.32623
-3321.1321
-828.609985
9114.51188
9084.28052
-1956.02623
-5727.99711
979.334982
9121.83813
3232.87568
-4160.75607
2074.6874
9437.56688
3179.42415
-3671.05275
1132.05943
9523.1972
8129.86812
-3750.01643
-5615.92214
3610.9908
9612.14573
1523.30403
-3902.37739
2683.13071
9730.48937
6861.76163
-4680.81346
-5400.68617
5800.59586
9861.07088
65.2035846
-3863.7879
4015.01438
9957.29798
6258.30109
-4905.32651
-5157.99379
7720.10276
10020.7252
3298.86256
-5506.08064
-5553.01521
8565.19058
10044.3468
-1377.27175
-3778.45852
5907.79666
10146.711
4954.87643
-5145.54066
-5130.75168
8780.77346
10080.954
3304.94859
-5299.0471
-4828.19262
8897.02533
10080.1921
2992.92729
-5356.89122
-4739.39441
8958.71084
10083.0852
2968.42408
-5254.08091
-4556.15998
9287.03969
10055.5658
2215.73301
-5305.55972
-4803.68798
9707.22357
9902.32277
-2560.886
-4125.04887
6407.78428
10138.2075
4034.82395
-5333.43627
-4572.71616
8516.07796
10084.5287
2960.50503
-5302.81903
-4239.39623
8937.18605
10048.8226
2386.89935
-5314.19047
-4075.50396
9202.92437
10036.9921
2231.94792
-5019.22128
-4192.55301
7592.25484
10035.6788
3470.08561
-5002.61533
-3864.60998
9755.42238
9963.76589
841.663171
-3775.28433
-1880.59726
6613.86345
6635.39302
-507.59748
-1044.4823
2430.65882
3797.84888
2744.35276
1596.14792
1893.09642
2518.85391
2511.3937
2273.78225
2221.65032
2260.70128
2290.73971
2297.65006
2295.83956
2273.84342
2246.82472
2264.39228
2317.45791
2312.00214
2216.5608
2210.89691
2328.18215
2369.79062
2246.32623
2145.99044
2250.63695
2423.6116
2367.41011
2125.00733
2131.26519
2392.27188
2422.3081
2207.73648
2166.9082
2368.53986
2359.49496
2031.50091
2115.77094
2991.11435
2814.38227
753.796132
908.215667
4657.9657
4571.45618
-1655.66052
-2325.81299
6907.9422
8223.68762
-1768.09386
-4430.50516
3514.10161
9704.0825
4335.33317
-4809.21347
-2108.03933
9460.59066
8284.63385
-4739.74888
-4324.22146
9239.94601
8971.539
-4114.89562
-4006.91198
9051.91882
8905.38763
-4121.86919
-3963.83813
9030.85356
8743.02266
-4060.11672
-3690.84756
9228.46467
9020.25337
-3598.48982
-3668.18686
8355.19034
9594.18931
409.911181
-5661.06892
-3187.91835
9046.0596
8435.39216
-4168.99791
-3174.47557
9241.81078
7841.08144
-4201.45396
-2582.28961
9308.98655
7811.69611
-3893.4512
-2969.1177
9341.03892
9559.42784
-529.883357
-5690.42719
-1844.87495
9082.26919
6612.76394
-4158.39863
-1334.47324
9225.87273
5938.51379
-4144.11583
-1058.35766
9281.25328
5872.00817
-4060.79091
-1481.68702
9426.86983
9758.81508
-496.830197
-3987.0335
1650.35939
5253.51163
-181.123523
-2703.76144
4147.89369
10133.031
9150.59919
-2634.81536
-5348.89694
2734.7546
7337.27648
-139.07058
-3485.09743
3840.56155
9987.42133
8882.15462
-2790.61301
-5282.85679
3407.49212
8099.96071
14.0050947
-3685.12874
3686.12059
9928.7821
8620.39606
-1962.99284
-5158.15789
-462.25366
9096.35041
9430.90723
-846.989562
-4927.28883
-457.340407
9021.06099
9306.29511
-1044.79585
-4940.20285
-313.402761
8978.49925
9208.51389
-1405.40337
-5120.63649
-349.063744
8886.1496
9010.25004
-1860.92474
-5107.05579
986.122627
8659.25568
3286.64665
-3918.89999
584.978672
9068.51116
9034.8984
-2233.07997
-4870.66331
2739.39305
8022.57707
254.653743
-3475.5194
4772.87963
8215.04321
92.7358159
-3668.50799
3391.12511
9392.87282
4910.44502
-3619.79293
-3580.05738
7226.51126
9752.78056
5267.6357
-3569.07615
-4157.79043
5213.46996
9663.41689
5552.72111
-3905.40035
-5951.31134
636.751796
8818.04729
7153.63124
-2628.79966
-4156.16234
3067.51409
9586.83105
9763.89575
141.433179
-4873.93006
-1391.92055
8110.60125
6299.28002
-2965.03479
-3594.74806
5784.22723
9722.30247
4241.25555
-3865.11819
-4110.73891
6074.64702
9755.37959
4022.45758
)
;

boundaryField
{
    closed
    {
        type            lookUpEnthalpy;
        h0              nonuniform List<scalar> 0();
        value           nonuniform List<scalar> 0();
    }
    open
    {
        type            zeroGradient;
    }
    sides
    {
        type            empty;
    }
    procBoundary2to1
    {
        type            processor;
        value           uniform 6285.80672;
    }
    procBoundary2to3
    {
        type            processor;
        value           uniform -3846.26837;
    }
}


// ************************************************************************* //
