/*--------------------------------*- C++ -*----------------------------------*\
| =========                 |                                                 |
| \\      /  F ield         | OpenFOAM: The Open Source CFD Toolbox           |
|  \\    /   O peration     | Version:  2306                                  |
|   \\  /    A nd           | Website:  www.openfoam.com                      |
|    \\/     M anipulation  |                                                 |
\*---------------------------------------------------------------------------*/
FoamFile
{
    version     2.0;
    format      ascii;
    arch        "LSB;label=32;scalar=64";
    class       volScalarField;
    location    "0.00066";
    object      H2;
}
// * * * * * * * * * * * * * * * * * * * * * * * * * * * * * * * * * * * * * //

dimensions      [0 0 0 0 0 0 0];

internalField   nonuniform List<scalar> 
530
(
0.0106806396
0.0106720664
0.0108533608
0.0110246711
0.0109692664
0.010679848
0.0106707939
0.0108540005
0.0110191094
0.0109983453
0.0106930085
0.0106694997
0.0106964244
0.0110590995
0.011004008
0.0110099307
0.0108740729
0.0106947773
0.0106682234
0.0106666487
0.0110703063
0.0110211516
0.0108393898
0.0106725854
0.0106685612
0.0109609439
0.0110150404
0.0109439045
0.0107096963
0.0106721216
0.0106672293
0.0110769146
0.0110237824
0.0108194813
0.010674107
0.0106781149
0.0110580858
0.0110080045
0.0110124313
0.0108493505
0.0106923345
0.0106649652
0.0106632508
0.0109705943
0.0110280355
0.0107925433
0.0106790728
0.0107380584
0.0108771154
0.0107420127
0.010691996
0.0109549512
0.0110266753
0.01075563
0.0106857904
0.0109268842
0.0110281865
0.0108471007
0.0106799204
0.0106776275
0.0110677982
0.01102262
0.010783551
0.0106723784
0.0107564819
0.0110547142
0.0109229686
0.0106809218
0.0106760093
0.0110326719
0.0110237559
0.0107732873
0.0106775768
0.0108090493
0.0109950659
0.0107352823
0.010688117
0.0109452142
0.0110274408
0.0108365975
0.0106780328
0.0106797752
0.0110658725
0.0110256174
0.0107607351
0.0106723822
0.0108156064
0.0110454364
0.0108553891
0.0106782939
0.0106825442
0.0110622175
0.0110305041
0.0107381572
0.0106785768
0.0108977444
0.0110788835
0.0107215679
0.010685767
0.0109450652
0.0110245094
0.0108663656
0.0106736457
0.0106692459
0.0109877275
0.0110249794
0.0108465098
0.0106672511
0.0106711716
0.0110573284
0.0110568083
0.010707942
0.0106868958
0.0109726123
0.0110222367
0.0108473101
0.0106727548
0.0106712434
0.011030555
0.0110221218
0.0108314444
0.0106712155
0.010670109
0.0110443818
0.0110210995
0.0108276985
0.0106711221
0.0106705564
0.0110589616
0.0110183698
0.0108286864
0.0106726233
0.0106736957
0.0110703343
0.0110183395
0.0108178288
0.0106663572
0.0106865751
0.0110714992
0.0110698999
0.0106973037
0.0106913243
0.0110360583
0.0110168619
0.0108171284
0.0106697681
0.0106751883
0.0110728962
0.0110211228
0.0107952626
0.0106622082
0.010687574
0.0110717113
0.0110470805
0.0106944214
0.0106911946
0.0110585577
0.0110177974
0.0107988095
0.0106685549
0.0106784397
0.0110729251
0.011020694
0.0107844298
0.0106640279
0.0106954036
0.0110670616
0.011014158
0.0106954088
0.0106966258
0.0110686282
0.0110217753
0.0107746986
0.0106686228
0.0106872255
0.0110740365
0.0110298495
0.0107508955
0.010661958
0.0106951538
0.0110722282
0.0109684386
0.0106833188
0.0107116688
0.0110647427
0.0109607735
0.0106798284
0.0107070944
0.011066446
0.0109468289
0.0106792713
0.0107155683
0.0110605196
0.0109474281
0.0106859151
0.0107009025
0.0110603439
0.0110382713
0.0107142984
0.0106588674
0.0107204477
0.0110597078
0.0108995522
0.0106777504
0.0107491545
0.0110467492
0.0108998406
0.0106830509
0.0107206825
0.0110476452
0.0110412723
0.0106931822
0.0106562064
0.0107643628
0.0110456927
0.0108333276
0.0106718595
0.0108003766
0.0110341136
0.0108313187
0.0106781717
0.010767217
0.0110347276
0.0110691896
0.010673653
0.0106557553
0.0108596224
0.0110279682
0.0107772015
0.0106757628
0.0108175323
0.0110283884
0.0109931041
0.0106670169
0.0106565037
0.0109693539
0.0110183331
0.0107403195
0.0106759519
0.0108694482
0.0110216334
0.0109584526
0.0106664157
0.0106620931
0.0110817247
0.0110184591
0.0108276524
0.0106582169
0.0106545483
0.0110555028
0.0110113014
0.0107118831
0.010676369
0.0109619154
0.0110149356
0.0108950528
0.01066221
0.0106623152
0.0110461492
0.0110162844
0.0108295866
0.0106608937
0.0106653599
0.0110421044
0.011016044
0.0108195197
0.0106603124
0.0106660472
0.0110400506
0.0110157876
0.0108186205
0.0106606058
0.0106681401
0.0110293167
0.0110154755
0.0107959068
0.0106583044
0.0106633956
0.0110186464
0.0110151665
0.0106923136
0.01067303
0.0109843137
0.0110143462
0.0108603659
0.010662307
0.0106665939
0.0110559755
0.011015812
0.0108182453
0.0106621859
0.0106706752
0.0110402274
0.0110169065
0.0108006358
0.0106613798
0.0106717965
0.0110313063
0.0110163586
0.0107964052
0.0106656493
0.0106705313
0.0110549064
0.0110160443
0.0108382798
0.0106614717
0.0106732302
0.0110128646
0.0110158608
0.0107588928
0.0106794988
0.0107007818
0.0109913184
0.0109951986
0.0107275938
0.0107171237
0.010805698
0.0108555835
0.0108176252
0.0107803503
0.0107898169
0.0108107678
0.010810773
0.0108028558
0.0108012273
0.0108026697
0.0108037785
0.0108040835
0.0108040709
0.0108033588
0.0108024676
0.0108030829
0.010804915
0.0108047357
0.0108014932
0.0108013042
0.0108053107
0.010806747
0.0108025143
0.010799126
0.0108026604
0.0108086153
0.0108066621
0.0107984117
0.0107986166
0.0108074833
0.0108085159
0.0108011005
0.010799709
0.0108064288
0.0108061025
0.0107948054
0.0107976027
0.0108274084
0.0108211656
0.010756681
0.0107607902
0.0108911357
0.0108867709
0.0107064225
0.0106989981
0.0110144126
0.0110720634
0.0107026502
0.0106766595
0.0108441393
0.0110259275
0.010881463
0.0106684897
0.0106976179
0.0110298549
0.0110669669
0.0106708341
0.0106770892
0.0110352787
0.0110475093
0.0106807296
0.0106797482
0.0110407772
0.0110492619
0.0106806438
0.0106799686
0.0110408021
0.0110539538
0.0106802669
0.010682384
0.0110341352
0.0110448862
0.0106874597
0.0106830273
0.0110649466
0.011030632
0.0107482376
0.0106599873
0.0106840176
0.0110417734
0.0110624755
0.0106790297
0.0106913561
0.01103512
0.0110703354
0.010677201
0.0106966645
0.0110338328
0.0110684709
0.0106810202
0.0106915617
0.0110288634
0.0110295421
0.0107264671
0.0106594297
0.0106991877
0.0110416821
0.0109993887
0.0106777683
0.0107102174
0.0110358883
0.0109624517
0.0106768405
0.0107148838
0.0110349084
0.0109584573
0.0106771805
0.0107056584
0.011027688
0.0110167763
0.010726483
0.0106761738
0.0107839075
0.0109199938
0.0107335318
0.0106888492
0.0108709626
0.0110093655
0.011042373
0.0106827956
0.0106651267
0.0108250189
0.0110413195
0.0107342805
0.0106838084
0.0108578118
0.0110161206
0.0110538512
0.0106825912
0.0106673251
0.0108502955
0.0110746115
0.0107380718
0.0106826344
0.0108508228
0.0110180101
0.011065854
0.0106944892
0.0106666367
0.0107266754
0.0110441726
0.0110309417
0.0107185666
0.0106686497
0.0107270529
0.0110477515
0.011036487
0.0107145801
0.0106692322
0.0107304407
0.011050103
0.0110413635
0.0107070766
0.0106673264
0.0107294028
0.0110537351
0.0110496506
0.0106987909
0.0106682607
0.0107640645
0.0110580062
0.0108417821
0.010679381
0.0107527693
0.0110495783
0.0110501502
0.0106923207
0.0106721225
0.0108211625
0.0110775377
0.0107441636
0.0106880802
0.0109021552
0.0110748066
0.0107401215
0.0106830619
0.0108435086
0.0110353374
0.0108974376
0.0106802657
0.0106799704
0.0110182059
0.0110208767
0.0109061441
0.01068002
0.0106755494
0.0109149844
0.0110286487
0.0109100938
0.0106718347
0.010651974
0.0107558581
0.0110561687
0.0110003701
0.0106891137
0.0106756156
0.0108314924
0.0110322942
0.0110241004
0.0107412602
0.0106672621
0.0107044008
0.011070778
0.0109660333
0.0106882217
0.0106807663
0.0109481705
0.0110229171
0.010867108
0.0106749998
0.0106740887
0.0109644616
0.0110224772
0.0108579158
)
;

boundaryField
{
    closed
    {
        type            calculated;
        value           nonuniform List<scalar> 0();
    }
    open
    {
        type            calculated;
        value           nonuniform List<scalar> 0();
    }
    sides
    {
        type            empty;
    }
    procBoundary2to1
    {
        type            processor;
        value           uniform 0.0109672857;
    }
    procBoundary2to3
    {
        type            processor;
        value           uniform 0.0106765081;
    }
}


// ************************************************************************* //
