/*--------------------------------*- C++ -*----------------------------------*\
| =========                 |                                                 |
| \\      /  F ield         | OpenFOAM: The Open Source CFD Toolbox           |
|  \\    /   O peration     | Version:  2306                                  |
|   \\  /    A nd           | Website:  www.openfoam.com                      |
|    \\/     M anipulation  |                                                 |
\*---------------------------------------------------------------------------*/
FoamFile
{
    version     2.0;
    format      ascii;
    arch        "LSB;label=32;scalar=64";
    class       volScalarField;
    location    "0.0012";
    object      alpha;
}
// * * * * * * * * * * * * * * * * * * * * * * * * * * * * * * * * * * * * * //

dimensions      [1 -1 -1 0 0 0 0];

internalField   nonuniform List<scalar> 
531
(
3.57673364e-05
3.54151268e-05
3.68136999e-05
3.67904364e-05
3.58519507e-05
3.50433092e-05
3.50402426e-05
3.6807603e-05
3.67761566e-05
3.58728776e-05
3.5186229e-05
3.51821286e-05
3.63238525e-05
3.6805055e-05
3.57738686e-05
3.54737939e-05
3.68156658e-05
3.68187385e-05
3.58418457e-05
3.54771021e-05
3.54542827e-05
3.5260627e-05
3.50804926e-05
3.57225731e-05
3.67743278e-05
3.68401099e-05
3.67971378e-05
3.68126325e-05
3.57131493e-05
3.51300495e-05
3.62394443e-05
3.67933205e-05
3.58546141e-05
3.51944044e-05
3.50627938e-05
3.57903982e-05
3.68069001e-05
3.57537889e-05
3.52197356e-05
3.61840586e-05
3.68077523e-05
3.57722113e-05
3.51927062e-05
3.57088849e-05
3.68242792e-05
3.68629582e-05
3.68426622e-05
3.57226824e-05
3.52145788e-05
3.68476589e-05
3.68306538e-05
3.57733124e-05
3.51164967e-05
3.50294236e-05
3.58108295e-05
3.68048022e-05
3.57691439e-05
3.53549612e-05
3.67641507e-05
3.68176052e-05
3.58060403e-05
3.54712742e-05
3.67853844e-05
3.68102009e-05
3.58271579e-05
3.56380055e-05
3.50271535e-05
3.50288051e-05
3.67921724e-05
3.67820285e-05
3.58343311e-05
3.51305328e-05
3.51136686e-05
3.60902491e-05
3.68069251e-05
3.57570316e-05
3.53174359e-05
3.68201468e-05
3.6820495e-05
3.57440133e-05
3.52843028e-05
3.577312e-05
3.68200037e-05
3.68539893e-05
3.68437869e-05
3.57469427e-05
3.53774193e-05
3.68339399e-05
3.68215418e-05
3.58074822e-05
3.53364529e-05
3.53286899e-05
3.49099496e-05
3.48933336e-05
3.61090554e-05
3.67838151e-05
3.67988617e-05
3.57696689e-05
3.53830794e-05
3.68048603e-05
3.67738209e-05
3.58406543e-05
3.49849158e-05
3.49944011e-05
3.67738977e-05
3.67972758e-05
3.57896317e-05
3.53584609e-05
3.67925146e-05
3.67740246e-05
3.58302032e-05
3.49343973e-05
3.49530939e-05
3.66164704e-05
3.68099268e-05
3.57007526e-05
3.52585229e-05
3.68142478e-05
3.68176965e-05
3.57430108e-05
3.52227924e-05
3.57219528e-05
3.68236369e-05
3.68554212e-05
3.6839673e-05
3.57283139e-05
3.5264818e-05
3.68325005e-05
3.68079191e-05
3.57915227e-05
3.47686339e-05
3.47740218e-05
3.67976972e-05
3.67741286e-05
3.58064586e-05
3.48158156e-05
3.48400415e-05
3.67641329e-05
3.68164271e-05
3.57203703e-05
3.53363121e-05
3.67694205e-05
3.68267321e-05
3.57532548e-05
3.54251783e-05
3.67797922e-05
3.68210361e-05
3.57854482e-05
3.54568468e-05
3.67972462e-05
3.6790698e-05
3.5879425e-05
3.51192679e-05
3.51261796e-05
3.67928964e-05
3.68133962e-05
3.58265472e-05
3.56287143e-05
3.50529294e-05
3.50569728e-05
3.67834445e-05
3.68166243e-05
3.57874341e-05
3.56589734e-05
3.67709767e-05
3.58933583e-05
3.51739633e-05
3.68008589e-05
3.67994323e-05
3.57739152e-05
3.54547871e-05
3.67975043e-05
3.67913347e-05
3.58807268e-05
3.51008254e-05
3.51014022e-05
3.68031572e-05
3.67835108e-05
3.5871118e-05
3.50614573e-05
3.50742777e-05
3.67859218e-05
3.68135429e-05
3.57728614e-05
3.54288429e-05
3.68036664e-05
3.67925222e-05
3.58718636e-05
3.50906043e-05
3.50921394e-05
3.67920629e-05
3.68187393e-05
3.57771237e-05
3.54437126e-05
3.67968387e-05
3.67993772e-05
3.58820722e-05
3.51312776e-05
3.5131909e-05
3.68036887e-05
3.67824677e-05
3.58894883e-05
3.5119286e-05
3.51248598e-05
3.67826924e-05
3.68266027e-05
3.5786362e-05
3.55303332e-05
3.67905741e-05
3.68305894e-05
3.5838861e-05
3.56867428e-05
3.51236169e-05
3.5134262e-05
3.67810949e-05
3.68191003e-05
3.57817013e-05
3.5464782e-05
3.67909674e-05
3.67920983e-05
3.5885892e-05
3.51593e-05
3.51577278e-05
3.67924448e-05
3.67857752e-05
3.58799055e-05
3.51147025e-05
3.51208744e-05
3.67910749e-05
3.67805158e-05
3.58612415e-05
3.50630363e-05
3.50655078e-05
3.67819932e-05
3.68127558e-05
3.57840122e-05
3.54150275e-05
3.67885535e-05
3.67936533e-05
3.58533488e-05
3.50739073e-05
3.50775265e-05
3.67952944e-05
3.67809355e-05
3.58263701e-05
3.49506791e-05
3.49651648e-05
3.67678902e-05
3.68281275e-05
3.57274355e-05
3.53254453e-05
3.6769016e-05
3.6837574e-05
3.57124582e-05
3.53627982e-05
3.67724379e-05
3.68409089e-05
3.57176131e-05
3.54241836e-05
3.67740133e-05
3.68325959e-05
3.57158612e-05
3.56506975e-05
3.67725446e-05
3.57884126e-05
3.50813167e-05
3.6798055e-05
3.67991928e-05
3.67685997e-05
3.58141288e-05
3.48862907e-05
3.49011065e-05
3.67825108e-05
3.67990324e-05
3.58622626e-05
3.50805199e-05
3.50842262e-05
3.67847644e-05
3.58380436e-05
3.51762195e-05
3.6791236e-05
3.68201277e-05
3.57704008e-05
3.54748769e-05
3.67888747e-05
3.68168192e-05
3.58898932e-05
3.5733607e-05
3.50714049e-05
3.50751639e-05
3.67987311e-05
3.68023671e-05
3.67985396e-05
3.56574753e-05
3.52693164e-05
3.6801574e-05
3.68083396e-05
3.67856993e-05
3.59342613e-05
3.55224921e-05
3.4966053e-05
3.49620764e-05
3.67924358e-05
3.6776913e-05
3.58376796e-05
3.50512591e-05
3.50565495e-05
3.67664064e-05
3.68083477e-05
3.57859076e-05
3.52808832e-05
3.67796049e-05
3.67903391e-05
3.59002173e-05
3.50470015e-05
3.50506682e-05
3.67802579e-05
3.67794695e-05
3.59105592e-05
3.51232002e-05
3.51242018e-05
3.67656676e-05
3.68008074e-05
3.57949511e-05
3.53545751e-05
3.67698817e-05
3.67700836e-05
3.59273211e-05
3.50014411e-05
3.49975135e-05
3.65098447e-05
3.67623883e-05
3.67447599e-05
3.51049429e-05
3.49330618e-05
3.67424927e-05
3.67487076e-05
3.60756987e-05
3.50599298e-05
3.50555939e-05
3.6756649e-05
3.6760622e-05
3.60728404e-05
3.5069453e-05
3.5031202e-05
3.62771931e-05
3.67659847e-05
3.67856596e-05
3.51855466e-05
3.48652825e-05
3.63326289e-05
3.67777599e-05
3.6785135e-05
3.5790441e-05
3.48607017e-05
3.48699554e-05
3.67615837e-05
3.67745672e-05
3.59202966e-05
3.51273087e-05
3.5125859e-05
3.67764272e-05
3.67749825e-05
3.58959755e-05
3.51285767e-05
3.51332468e-05
3.67807472e-05
3.67702056e-05
3.58829241e-05
3.50504545e-05
3.50627674e-05
3.67548508e-05
3.68102578e-05
3.5665628e-05
3.52808797e-05
3.67566111e-05
3.68120118e-05
3.53944632e-05
3.50867951e-05
3.67421219e-05
3.68091144e-05
3.67611202e-05
3.68014612e-05
3.59812799e-05
3.53384042e-05
3.53240723e-05
3.46810166e-05
3.46961811e-05
3.67963247e-05
3.67874489e-05
3.67859531e-05
3.57670493e-05
3.53018844e-05
3.67900298e-05
3.68019946e-05
3.57565052e-05
3.53521217e-05
3.68010072e-05
3.67869423e-05
3.58393379e-05
3.5008441e-05
3.50146077e-05
3.67938765e-05
3.68162834e-05
3.57197338e-05
3.52889206e-05
3.6806235e-05
3.67895119e-05
3.58335987e-05
3.50023049e-05
3.50145844e-05
3.67870325e-05
3.68234623e-05
3.56920498e-05
3.53092221e-05
3.67887319e-05
3.68145943e-05
3.56940912e-05
3.5353362e-05
3.6797267e-05
3.67869198e-05
3.59053022e-05
3.50592616e-05
3.50616235e-05
3.68028883e-05
3.67934679e-05
3.57893554e-05
3.46636838e-05
3.46760879e-05
3.68090154e-05
3.67843185e-05
3.67849941e-05
3.56818605e-05
3.52803135e-05
3.67860196e-05
3.67737738e-05
3.60326122e-05
3.50511619e-05
3.49923919e-05
3.6183173e-05
3.6789641e-05
3.68148639e-05
3.67981376e-05
3.57737948e-05
3.4733864e-05
3.47430265e-05
3.67880907e-05
3.67758818e-05
3.58514128e-05
3.49270916e-05
3.49336306e-05
3.67989963e-05
3.67745339e-05
3.59841996e-05
3.4980035e-05
3.49862742e-05
3.6795966e-05
3.6803688e-05
3.56014515e-05
3.52653508e-05
3.67950989e-05
3.67785727e-05
3.60648554e-05
3.50427071e-05
3.50474403e-05
3.67973114e-05
3.68041362e-05
3.55495573e-05
3.52628139e-05
3.67922201e-05
3.67762125e-05
3.61918671e-05
3.50402955e-05
3.50462316e-05
3.6792207e-05
3.68175738e-05
3.55577232e-05
3.53674363e-05
3.67855041e-05
3.6817783e-05
3.55440216e-05
3.54840464e-05
3.67936471e-05
3.68055897e-05
3.67580138e-05
3.58786498e-05
3.52753142e-05
3.53292357e-05
3.48196809e-05
3.48383889e-05
3.67910064e-05
3.68183568e-05
3.55498298e-05
3.53232808e-05
3.68036136e-05
3.6827499e-05
3.60168409e-05
3.56972992e-05
3.51997776e-05
3.53727774e-05
3.68312967e-05
3.68236705e-05
3.68175968e-05
3.5713325e-05
3.52991327e-05
3.68586303e-05
3.68088685e-05
3.58511267e-05
3.48996087e-05
3.49132652e-05
3.68088524e-05
3.68191124e-05
3.54625136e-05
3.53684141e-05
3.67709026e-05
3.68023522e-05
3.6764796e-05
3.57321379e-05
3.51836107e-05
3.48260366e-05
3.48495518e-05
3.68463175e-05
3.67989439e-05
3.57226038e-05
3.51423764e-05
3.5699453e-05
3.68287958e-05
3.68250411e-05
3.68240488e-05
3.5757654e-05
3.54952213e-05
)
;

boundaryField
{
    closed
    {
        type            calculated;
        value           nonuniform List<scalar> 0();
    }
    open
    {
        type            calculated;
        value           nonuniform List<scalar> 0();
    }
    sides
    {
        type            empty;
    }
    procBoundary1to0
    {
        type            processor;
        value           uniform 3.68192571e-05;
    }
    procBoundary1to2
    {
        type            processor;
        value           uniform 3.67797392e-05;
    }
}


// ************************************************************************* //
