/*--------------------------------*- C++ -*----------------------------------*\
| =========                 |                                                 |
| \\      /  F ield         | OpenFOAM: The Open Source CFD Toolbox           |
|  \\    /   O peration     | Version:  2306                                  |
|   \\  /    A nd           | Website:  www.openfoam.com                      |
|    \\/     M anipulation  |                                                 |
\*---------------------------------------------------------------------------*/
FoamFile
{
    version     2.0;
    format      ascii;
    arch        "LSB;label=32;scalar=64";
    class       surfaceScalarField;
    location    "0.00076";
    object      phi;
}
// * * * * * * * * * * * * * * * * * * * * * * * * * * * * * * * * * * * * * //

dimensions      [1 0 -1 0 0 0 0];

oriented        oriented;

internalField   nonuniform List<scalar> 
529
(
-3.33811839e-08
1.88306188e-07
6.75595596e-07
7.25982271e-07
7.71628542e-07
1.05496077e-06
1.32743526e-06
1.30188072e-06
1.32027485e-06
1.60327912e-06
2.0326717e-06
2.30349012e-06
2.67985446e-06
3.66870277e-06
4.99640048e-06
5.47747107e-06
4.34363998e-06
1.79158521e-06
-5.8746502e-07
-2.13293085e-06
-1.99568196e-06
-1.24532649e-06
-2.48978841e-07
1.02499734e-06
2.88519063e-06
5.46918757e-06
8.17163072e-06
9.65209981e-06
8.97514267e-06
6.39530064e-06
3.43604182e-06
1.45621446e-06
4.98082175e-07
3.34453623e-07
5.51043159e-07
8.76456075e-07
1.17798704e-06
1.48756325e-06
1.89401922e-06
2.48770964e-06
3.35154259e-06
4.53859234e-06
6.02759392e-06
7.6854639e-06
9.26829714e-06
1.04861981e-05
1.1105812e-05
1.10278019e-05
1.03094372e-05
9.12618903e-06
7.69782832e-06
6.21917488e-06
4.82287692e-06
3.57649917e-06
2.49952953e-06
1.58467317e-06
8.1323593e-07
1.63711439e-07
-3.8439352e-07
-8.51110364e-07
-1.24897728e-06
-1.590929e-06
-1.88739218e-06
-2.14715486e-06
-2.37657444e-06
-2.5809273e-06
-2.76447415e-06
-2.93043815e-06
-3.08122565e-06
-3.21867502e-06
-3.34422539e-06
-3.45900562e-06
-3.56387688e-06
-3.65946059e-06
-3.74617158e-06
-3.82426438e-06
-3.89389153e-06
-3.95516423e-06
-4.00820862e-06
-4.05320848e-06
-4.09042851e-06
-4.12025033e-06
-4.14308148e-06
-4.15949021e-06
-4.17019937e-06
-4.17620393e-06
-4.17646946e-06
-4.16924402e-06
-4.16340735e-06
-4.16681021e-06
-4.15630688e-06
-4.11520614e-06
-4.087677e-06
-4.15012451e-06
-4.17016421e-06
-4.06692341e-06
-3.89914669e-06
-3.87885654e-06
-3.89547866e-06
-3.88212346e-06
-3.92460905e-06
-3.82724131e-06
-3.77627244e-06
-3.76597607e-06
-3.74139537e-06
-3.72110718e-06
-3.71395049e-06
-3.88621601e-06
-3.90246458e-06
-3.79621292e-06
-3.70909009e-06
-3.72877471e-06
-3.72383059e-06
-3.78000902e-06
-3.90228885e-06
-3.87686251e-06
-3.78866557e-06
-3.71748682e-06
-3.70095924e-06
-3.68887839e-06
-3.67096381e-06
-3.63465142e-06
-3.76897216e-06
-3.74601124e-06
-3.68631465e-06
-3.67900793e-06
-3.75882491e-06
-3.70498372e-06
-3.68251347e-06
-3.61285344e-06
-3.59333635e-06
-3.68316327e-06
-3.67217932e-06
-3.64508628e-06
-3.63659029e-06
-3.683569e-06
-3.62256069e-06
-3.60592005e-06
-3.49674182e-06
-3.47426934e-06
-3.57454227e-06
-3.56237235e-06
-3.47156059e-06
-3.44963454e-06
-3.5307136e-06
-3.51426774e-06
-3.48424188e-06
-3.46961183e-06
-3.47957977e-06
-3.44817113e-06
-3.45709196e-06
-3.29468709e-06
-3.27181475e-06
-3.33866296e-06
-3.32724248e-06
-3.15228517e-06
-3.12542533e-06
-3.17504164e-06
-3.16028315e-06
-3.07584663e-06
-3.06092278e-06
-3.18398677e-06
-3.21705041e-06
-3.1485082e-06
-2.81780528e-06
-2.77537841e-06
-2.77428571e-06
-2.76606164e-06
-2.58202168e-06
-2.56043657e-06
-2.65743272e-06
-2.67928565e-06
-2.4924201e-06
-2.35009277e-06
-2.28561015e-06
-2.28102958e-06
-2.26336234e-06
-2.24735356e-06
-2.18515005e-06
-1.86616414e-06
-1.79109667e-06
-1.68416948e-06
-1.66144787e-06
-1.35070496e-06
-1.2767428e-06
-1.54390244e-06
-1.51823706e-06
-1.10523051e-06
-1.04019426e-06
-9.90035337e-07
-9.65953479e-07
-8.67492138e-07
-7.96874626e-07
-7.07266638e-07
-7.73503839e-07
-7.55399709e-07
-6.61555121e-07
-5.90110318e-07
-5.6340562e-07
-5.29277164e-07
-4.79314749e-07
-4.31093579e-07
-3.58232124e-07
-3.32337223e-07
-3.13815326e-07
-2.89763262e-07
-2.36946451e-07
-1.47463306e-07
-1.94696128e-07
-2.18632688e-07
-1.72376437e-07
-9.12111535e-08
-1.3550098e-07
-1.60490187e-07
-1.14428255e-07
-3.48670254e-08
-7.9927342e-08
-1.07129594e-07
-6.27247252e-08
1.4765493e-08
-2.65471761e-08
-5.64739519e-08
-1.55474768e-08
5.94422717e-08
2.55580968e-08
-7.60077821e-09
3.19399114e-08
1.0366964e-07
7.83057635e-08
4.28555771e-08
8.03993603e-08
1.503776e-07
1.37099801e-07
1.00397262e-07
1.33283323e-07
2.03507014e-07
2.02267261e-07
1.63217866e-07
1.86330445e-07
2.40098783e-07
2.41782094e-07
2.80362032e-07
2.7207116e-07
2.91953308e-07
3.47603563e-07
3.74282478e-07
3.40304288e-07
3.63006611e-07
4.21451609e-07
4.46700722e-07
4.07033677e-07
4.21677338e-07
4.69516294e-07
4.92608536e-07
5.39383248e-07
5.17138479e-07
5.35169992e-07
5.69875635e-07
6.23877859e-07
5.84194906e-07
5.95649291e-07
6.39541249e-07
6.61324744e-07
7.11720881e-07
6.80516244e-07
6.95551425e-07
7.20057683e-07
7.77614934e-07
7.38787174e-07
7.49775983e-07
7.66798201e-07
7.83132406e-07
8.26664007e-07
8.69196555e-07
8.23013579e-07
8.42475093e-07
8.61049919e-07
9.25107391e-07
9.15751983e-07
9.10892119e-07
9.22918636e-07
9.4913586e-07
9.7180803e-07
9.82092514e-07
1.01306132e-06
1.0323495e-06
1.04420011e-06
1.06006415e-06
1.10532214e-06
1.14230643e-06
1.06648635e-06
1.0848913e-06
1.09105654e-06
1.16428829e-06
1.20126667e-06
1.12372446e-06
1.14295054e-06
1.15324561e-06
1.17468789e-06
1.19774265e-06
1.2006546e-06
1.22183413e-06
1.23039936e-06
1.25206689e-06
1.28102024e-06
1.19736013e-06
1.22556309e-06
1.2330565e-06
1.25495846e-06
1.27628637e-06
1.20286412e-06
1.23260361e-06
1.23933601e-06
1.25953484e-06
1.22519332e-06
1.26961206e-06
1.27230959e-06
1.32820409e-06
1.34267824e-06
1.26039736e-06
1.29107009e-06
1.29256136e-06
1.30365873e-06
1.27115423e-06
1.30943253e-06
1.32780525e-06
1.32545707e-06
1.3324615e-06
1.38210937e-06
1.3967459e-06
1.40284275e-06
1.3025961e-06
1.32688534e-06
1.32137297e-06
1.32754543e-06
1.28503276e-06
1.33425051e-06
1.33236082e-06
1.31907612e-06
1.26437919e-06
1.2982375e-06
1.28541515e-06
1.32214961e-06
1.31326457e-06
1.21248677e-06
1.22871074e-06
1.2166261e-06
1.20173221e-06
1.14249189e-06
1.18279529e-06
1.17143558e-06
1.14168193e-06
1.07547424e-06
1.10701022e-06
1.08509559e-06
1.10539952e-06
1.08796568e-06
1.04513667e-06
1.04563023e-06
1.02842148e-06
1.01441784e-06
9.90149401e-07
9.60678188e-07
9.31030669e-07
8.81283088e-07
8.3347873e-07
8.32089291e-07
8.09822464e-07
7.6821557e-07
7.42080703e-07
7.24746915e-07
6.82837543e-07
6.74718855e-07
6.4292235e-07
6.13231247e-07
5.80759674e-07
5.44119532e-07
5.1263439e-07
4.46871315e-07
3.96883209e-07
4.02712104e-07
3.68629339e-07
3.23564639e-07
2.66831668e-07
1.73585971e-07
1.9203139e-07
1.47087805e-07
7.67505633e-08
3.95130301e-08
-2.9899157e-08
-4.4460735e-08
-9.92821212e-08
-1.82612284e-07
-2.49485685e-07
-2.68286492e-07
-3.19279049e-07
-3.84172443e-07
-4.17840532e-07
-4.767265e-07
-4.90601411e-07
-5.73626815e-07
-6.38669039e-07
-6.85711433e-07
-7.39065743e-07
-7.95971183e-07
-8.47116842e-07
-8.81403084e-07
-9.26881467e-07
-1.02319561e-06
-1.14325727e-06
-1.14646514e-06
-1.0573436e-06
-1.09319136e-06
-1.15735405e-06
-1.2520703e-06
-1.32132575e-06
-1.37794905e-06
-1.42247348e-06
-1.44825917e-06
-1.49322707e-06
-1.58088718e-06
-1.66288202e-06
-1.68697968e-06
-1.63222097e-06
-1.65740173e-06
-1.71611562e-06
-1.73361577e-06
-1.69745976e-06
-1.7344702e-06
-1.77591967e-06
-1.83792748e-06
-1.86004693e-06
-1.87729308e-06
-1.91455872e-06
-1.97007515e-06
-2.03425258e-06
-2.06298983e-06
-2.01694566e-06
-2.04617317e-06
-2.10106652e-06
-2.20466331e-06
-2.31128878e-06
-2.29778551e-06
-2.00426985e-06
-2.02761952e-06
-2.12886109e-06
-2.12343404e-06
-2.01050452e-06
-2.03894354e-06
-2.04573477e-06
-2.08023046e-06
-2.08087255e-06
-2.0914842e-06
-2.12375579e-06
-2.13756411e-06
-2.30674486e-06
-2.3080841e-06
-2.31119572e-06
-2.34754333e-06
-2.37368584e-06
-2.55296623e-06
-2.62648186e-06
-2.5647518e-06
-2.42610506e-06
-2.45336869e-06
-2.47374043e-06
-2.49543664e-06
-2.70873248e-06
-2.70986769e-06
-2.6992032e-06
-2.73220319e-06
-2.74547482e-06
-2.90951281e-06
-2.90758104e-06
-2.89586401e-06
-2.91292478e-06
-2.91896429e-06
-2.94388892e-06
-2.89854379e-06
-2.92141786e-06
-2.9373615e-06
-2.9937581e-06
-2.91543201e-06
-2.87723365e-06
-2.87633213e-06
-2.91967759e-06
-2.85667411e-06
-2.88506465e-06
-2.88889112e-06
-3.02528599e-06
-3.02671067e-06
-3.00676877e-06
-3.01265798e-06
-2.99570354e-06
-3.00643634e-06
-2.96199354e-06
-2.97022831e-06
-2.95136313e-06
-2.94989149e-06
-2.92919743e-06
-2.94082947e-06
-2.93753543e-06
-3.05716439e-06
-3.06162193e-06
-3.03996193e-06
-3.04246662e-06
-3.01360131e-06
-3.01685036e-06
-2.98720102e-06
-2.99182738e-06
-2.96360995e-06
-2.95656342e-06
-2.93680726e-06
-2.94437701e-06
-2.93523887e-06
-3.04267672e-06
-3.04177368e-06
-3.01668e-06
-3.03058447e-06
-3.01758239e-06
-3.16718578e-06
-3.17922078e-06
-3.11439327e-06
-3.11140158e-06
-3.11855692e-06
-3.0725407e-06
-3.07482738e-06
-3.03254021e-06
-3.01511549e-06
)
;

boundaryField
{
    closed
    {
        type            calculated;
        value           uniform 0;
    }
    open
    {
        type            calculated;
        value           nonuniform List<scalar> 0();
    }
    sides
    {
        type            empty;
        value           nonuniform List<scalar> 0();
    }
    procBoundary0to1
    {
        type            processor;
        value           uniform -2.99836613e-06;
    }
}


// ************************************************************************* //
