/*--------------------------------*- C++ -*----------------------------------*\
| =========                 |                                                 |
| \\      /  F ield         | OpenFOAM: The Open Source CFD Toolbox           |
|  \\    /   O peration     | Version:  2306                                  |
|   \\  /    A nd           | Website:  www.openfoam.com                      |
|    \\/     M anipulation  |                                                 |
\*---------------------------------------------------------------------------*/
FoamFile
{
    version     2.0;
    format      ascii;
    arch        "LSB;label=32;scalar=64";
    class       volScalarField;
    location    "0.00076";
    object      prefDPV_H2;
}
// * * * * * * * * * * * * * * * * * * * * * * * * * * * * * * * * * * * * * //

dimensions      [1 -1 -1 0 0 0 0];

internalField   nonuniform List<scalar> 
530
(
-3.15016665e-05
-3.10069684e-05
-3.09200158e-05
-3.09189166e-05
-3.09188097e-05
-3.09188071e-05
-3.0918807e-05
-3.0918807e-05
-3.0918807e-05
-3.0918807e-05
-3.0918807e-05
-3.0918807e-05
-3.0918807e-05
-3.0918807e-05
-3.0918807e-05
-3.0918807e-05
-3.0918807e-05
-3.0918807e-05
-3.0918807e-05
-3.0918807e-05
-3.0918807e-05
-3.0918807e-05
-3.0918807e-05
-3.0918807e-05
-3.0918807e-05
-3.0918807e-05
-3.0918807e-05
-3.0918807e-05
-3.0918807e-05
-3.0918807e-05
-3.0918807e-05
-3.0918807e-05
-3.0918807e-05
-3.0918807e-05
-3.0918807e-05
-3.0918807e-05
-3.0918807e-05
-3.0918807e-05
-3.0918807e-05
-3.0918807e-05
-3.0918807e-05
-3.0918807e-05
-3.0918807e-05
-3.0918807e-05
-3.0918807e-05
-3.0918807e-05
-3.0918807e-05
-3.0918807e-05
-3.0918807e-05
-3.0918807e-05
-3.0918807e-05
-3.0918807e-05
-3.0918807e-05
-3.0918807e-05
-3.0918807e-05
-3.0918807e-05
-3.0918807e-05
-3.0918807e-05
-3.0918807e-05
-3.0918807e-05
-3.0918807e-05
-3.0918807e-05
-3.0918807e-05
-3.0918807e-05
-3.0918807e-05
-3.0918807e-05
-3.0918807e-05
-3.0918807e-05
-3.0918807e-05
-3.0918807e-05
-3.0918807e-05
-3.09188071e-05
-3.09188071e-05
-3.09188075e-05
-3.09188078e-05
-3.091881e-05
-3.09188125e-05
-3.09188213e-05
-3.09188257e-05
-3.091887e-05
-3.09189006e-05
-3.09190209e-05
-3.09191053e-05
-3.09194959e-05
-3.09195316e-05
-3.09192209e-05
-3.09193751e-05
-3.0926881e-05
-3.09320365e-05
-3.09122282e-05
-3.09004607e-05
-3.09243994e-05
-3.10215267e-05
-3.09521618e-05
-3.08485522e-05
-3.08551718e-05
-3.10653633e-05
-3.15595672e-05
-3.14732519e-05
-3.09211438e-05
-3.05465228e-05
-3.04550292e-05
-3.08947614e-05
-3.15374978e-05
-3.14974595e-05
-3.14999522e-05
-3.12875689e-05
-3.05423664e-05
-3.04860504e-05
-3.06123648e-05
-3.09180364e-05
-3.15260456e-05
-3.15278196e-05
-3.1117921e-05
-3.0587158e-05
-3.05329097e-05
-3.0569906e-05
-3.09169327e-05
-3.15378127e-05
-3.14945431e-05
-3.15200662e-05
-3.14420909e-05
-3.04891794e-05
-3.04199738e-05
-3.0928e-05
-3.15059114e-05
-3.14663223e-05
-3.04473129e-05
-3.04484293e-05
-3.09362712e-05
-3.15009901e-05
-3.11040714e-05
-3.07400428e-05
-3.0925984e-05
-3.15325458e-05
-3.14450741e-05
-3.04212354e-05
-3.04200259e-05
-3.09563944e-05
-3.14894029e-05
-3.09818638e-05
-3.07195633e-05
-3.09329077e-05
-3.15134643e-05
-3.09550496e-05
-3.07204485e-05
-3.09238945e-05
-3.15360118e-05
-3.14036148e-05
-3.03997894e-05
-3.03918189e-05
-3.10097877e-05
-3.14801901e-05
-3.09042278e-05
-3.07275683e-05
-3.10058896e-05
-3.15082413e-05
-3.09032395e-05
-3.07523044e-05
-3.09557915e-05
-3.15218234e-05
-3.11027152e-05
-3.04879016e-05
-3.05865552e-05
-3.12094911e-05
-3.14819713e-05
-3.09063672e-05
-3.08335492e-05
-3.1064319e-05
-3.14978373e-05
-3.09813386e-05
-3.05229338e-05
-3.07399746e-05
-3.14939808e-05
-3.14862501e-05
-3.09063335e-05
-3.06432616e-05
-3.06403995e-05
-3.07408154e-05
-3.12255186e-05
-3.15074911e-05
-3.09460514e-05
-3.07407492e-05
-3.14310352e-05
-3.1508595e-05
-3.09030341e-05
-3.07385437e-05
-3.14168459e-05
-3.14955311e-05
-3.0900531e-05
-3.04476398e-05
-3.07720852e-05
-3.15152057e-05
-3.15101853e-05
-3.08357409e-05
-3.08271463e-05
-3.15370529e-05
-3.14932023e-05
-3.09131697e-05
-3.04755625e-05
-3.08541115e-05
-3.15501571e-05
-3.1509266e-05
-3.09176879e-05
-3.0419761e-05
-3.07539151e-05
-3.15176608e-05
-3.15183658e-05
-3.07017317e-05
-3.06992292e-05
-3.15254891e-05
-3.15104209e-05
-3.06728763e-05
-3.06690029e-05
-3.15280101e-05
-3.15121221e-05
-3.06479972e-05
-3.06450123e-05
-3.15277386e-05
-3.15124034e-05
-3.06299245e-05
-3.06268647e-05
-3.15287576e-05
-3.15125417e-05
-3.06167417e-05
-3.06149e-05
-3.15293615e-05
-3.1514156e-05
-3.06095954e-05
-3.06180805e-05
-3.15315881e-05
-3.15152031e-05
-3.06270983e-05
-3.06468962e-05
-3.15401726e-05
-3.1516614e-05
-3.06524022e-05
-3.06870212e-05
-3.15654395e-05
-3.15104588e-05
-3.08281558e-05
-3.03507151e-05
-3.07202226e-05
-3.15231904e-05
-3.15469331e-05
-3.06598314e-05
-3.06822845e-05
-3.15452707e-05
-3.15362261e-05
-3.06926646e-05
-3.07311309e-05
-3.1570741e-05
-3.15259241e-05
-3.08603461e-05
-3.04130844e-05
-3.07942471e-05
-3.15331015e-05
-3.15635947e-05
-3.07155002e-05
-3.0753028e-05
-3.15708059e-05
-3.15360832e-05
-3.08979212e-05
-3.04651223e-05
-3.08379194e-05
-3.15329646e-05
-3.15792927e-05
-3.07982723e-05
-3.08134406e-05
-3.15535033e-05
-3.15555965e-05
-3.0918294e-05
-3.06418646e-05
-3.05937054e-05
-3.07303083e-05
-3.15475815e-05
-3.15660513e-05
-3.07120543e-05
-3.07397279e-05
-3.15673454e-05
-3.15470149e-05
-3.0880986e-05
-3.05956203e-05
-3.08851393e-05
-3.15183796e-05
-3.15624558e-05
-3.15594639e-05
-3.09000967e-05
-3.05711566e-05
-3.0570444e-05
-3.07436142e-05
-3.15551484e-05
-3.15464421e-05
-3.0869034e-05
-3.04551975e-05
-3.08851295e-05
-3.15294491e-05
-3.155859e-05
-3.08986359e-05
-3.06485681e-05
-3.09044513e-05
-3.15362222e-05
-3.15601908e-05
-3.08965255e-05
-3.05310391e-05
-3.08811574e-05
-3.15241203e-05
-3.1555104e-05
-3.0904517e-05
-3.04759547e-05
-3.07847763e-05
-3.1509053e-05
-3.15717172e-05
-3.08364212e-05
-3.078336e-05
-3.15034629e-05
-3.15325462e-05
-3.08816029e-05
-3.04284963e-05
-3.07273745e-05
-3.14859926e-05
-3.15634133e-05
-3.06966903e-05
-3.06315979e-05
-3.14682202e-05
-3.15077304e-05
-3.15017979e-05
-3.15204122e-05
-3.08896491e-05
-3.04784926e-05
-3.04700697e-05
-3.0578016e-05
-3.14961914e-05
-3.15437598e-05
-3.06744857e-05
-3.05877658e-05
-3.14702463e-05
-3.15424866e-05
-3.07636692e-05
-3.07354031e-05
-3.148669e-05
-3.15228342e-05
-3.08776322e-05
-3.04718885e-05
-3.07606118e-05
-3.14905116e-05
-3.15665403e-05
-3.07993652e-05
-3.07037527e-05
-3.1485989e-05
-3.15628609e-05
-3.08123741e-05
-3.07842208e-05
-3.15102175e-05
-3.15515656e-05
-3.0887388e-05
-3.05956581e-05
-3.08822466e-05
-3.15225204e-05
-3.15807109e-05
-3.08985234e-05
-3.07995535e-05
-3.08840968e-05
-3.08236084e-05
-3.08053712e-05
-3.0926031e-05
-3.1534495e-05
-3.15774851e-05
-3.15739514e-05
-3.08689319e-05
-3.04823796e-05
-3.08675676e-05
-3.15357331e-05
-3.15933351e-05
-3.08990425e-05
-3.07769519e-05
-3.08418309e-05
-3.08279766e-05
-3.07204732e-05
-3.08963844e-05
-3.15114657e-05
-3.1563231e-05
-3.15607642e-05
-3.07479239e-05
-3.06924606e-05
-3.15370582e-05
-3.15293001e-05
-3.08155847e-05
-3.0429325e-05
-3.08053276e-05
-3.15186174e-05
-3.15901855e-05
-3.07173599e-05
-3.07768488e-05
-3.15416136e-05
-3.15364127e-05
-3.0744972e-05
-3.04575456e-05
-3.08836789e-05
-3.15188147e-05
-3.16167637e-05
-3.05921065e-05
-3.08876095e-05
-3.15388933e-05
-3.09048773e-05
-3.06113914e-05
-3.09323833e-05
-3.14968795e-05
-3.1573093e-05
-3.03836863e-05
-3.04651863e-05
-3.14486886e-05
-3.15162835e-05
-3.14757388e-05
-3.07384958e-05
-3.06405237e-05
-3.08885047e-05
-3.08302116e-05
-3.09176729e-05
-3.15151449e-05
-3.15434801e-05
-3.06338223e-05
-3.06343542e-05
-3.11759789e-05
-3.15146996e-05
-3.14720251e-05
-3.04446962e-05
-3.04942409e-05
-3.15753465e-05
-3.14884717e-05
-3.08796168e-05
-3.05443581e-05
-3.08878113e-05
-3.15231172e-05
-3.15161724e-05
-3.07178968e-05
-3.0736083e-05
-3.10716616e-05
-3.1508008e-05
-3.14862769e-05
-3.04537177e-05
-3.03698269e-05
-3.08025941e-05
-3.12803038e-05
-3.14990083e-05
-3.09191465e-05
-3.04713348e-05
-3.0860267e-05
-3.15623029e-05
-3.15034833e-05
-3.08991323e-05
-3.05034614e-05
-3.08993094e-05
-3.1549585e-05
-3.15126562e-05
-3.08870484e-05
-3.05047437e-05
-3.09007082e-05
-3.15453018e-05
-3.14979404e-05
-3.0767182e-05
-3.03760884e-05
-3.08368405e-05
-3.14639227e-05
-3.15119251e-05
-3.14779199e-05
-3.14839746e-05
-3.08282578e-05
-3.03419885e-05
-3.08988241e-05
-3.15330399e-05
-3.14994954e-05
-3.06145557e-05
-3.03852758e-05
-3.09160463e-05
-3.15186825e-05
-3.14510739e-05
-3.06320932e-05
-3.08543515e-05
-3.15202384e-05
-3.14246878e-05
-3.05412943e-05
-3.06471403e-05
-3.1505984e-05
-3.14252576e-05
-3.0651611e-05
-3.09345089e-05
-3.15413679e-05
-3.14749927e-05
-3.069228e-05
-3.0517571e-05
-3.0909836e-05
-3.15098186e-05
-3.14434195e-05
-3.05830875e-05
-3.08006677e-05
-3.15462798e-05
-3.1434589e-05
-3.06466365e-05
-3.09488251e-05
-3.15389564e-05
-3.14732035e-05
-3.06061772e-05
-3.05087355e-05
-3.09136149e-05
-3.15173187e-05
-3.14415327e-05
-3.05837427e-05
-3.08212373e-05
-3.1548881e-05
-3.1436458e-05
-3.06502241e-05
-3.09470053e-05
-3.1542039e-05
-3.14828513e-05
-3.06119361e-05
-3.05790195e-05
-3.090481e-05
-3.15353981e-05
-3.14923401e-05
-3.07097844e-05
-3.05154515e-05
-3.08995264e-05
-3.14995553e-05
-3.08834298e-05
-3.09258057e-05
-3.15812845e-05
-3.14498771e-05
-3.06693747e-05
-3.09446452e-05
)
;

boundaryField
{
    closed
    {
        type            calculated;
        value           uniform -4.03718814e-05;
    }
    open
    {
        type            calculated;
        value           nonuniform List<scalar> 0();
    }
    sides
    {
        type            empty;
    }
    procBoundary0to1
    {
        type            processor;
        value           uniform -3.15576779e-05;
    }
}


// ************************************************************************* //
