/*--------------------------------*- C++ -*----------------------------------*\
| =========                 |                                                 |
| \\      /  F ield         | OpenFOAM: The Open Source CFD Toolbox           |
|  \\    /   O peration     | Version:  2306                                  |
|   \\  /    A nd           | Website:  www.openfoam.com                      |
|    \\/     M anipulation  |                                                 |
\*---------------------------------------------------------------------------*/
FoamFile
{
    version     2.0;
    format      ascii;
    arch        "LSB;label=32;scalar=64";
    class       volScalarField;
    location    "0.00136";
    object      sourcePV;
}
// * * * * * * * * * * * * * * * * * * * * * * * * * * * * * * * * * * * * * //

dimensions      [1 -3 -1 0 0 0 0];

internalField   nonuniform List<scalar> 
530
(
0.241572851
0.345297048
2.07751017e-08
2.08811219e-08
0.235887085
0.27485474
2.12453057e-08
2.1339124e-08
0.230454444
0.216999367
2.16759101e-08
2.17489017e-08
0.234536096
0.17166786
2.2080946e-08
2.21681656e-08
0.230876366
0.148665846
2.2537094e-08
2.25987813e-08
0.20807987
0.139045036
2.30642413e-08
2.30978309e-08
0.188971843
0.129974172
2.35952375e-08
2.36101678e-08
0.17534537
0.119812304
2.41203271e-08
2.41368078e-08
0.165484735
0.110319069
2.46597917e-08
2.46721192e-08
0.154042581
0.105420052
0.000150724199
2.52147625e-08
0.144329447
0.0984597822
0.00124466979
2.57757747e-08
0.134581498
0.094356336
0.000929244248
2.64285412e-08
0.125194357
0.0927720737
2.70168598e-08
2.70682035e-08
0.120685866
0.0887370108
2.76363796e-08
2.76894044e-08
0.116550441
0.0878702153
2.82586556e-08
2.83071735e-08
0.112506117
0.0875747557
2.88815407e-08
2.89234447e-08
0.108541794
0.0865596873
2.95077147e-08
2.95428018e-08
0.10495601
0.0850991137
3.01367064e-08
3.01781435e-08
0.101657614
0.0831294709
3.08806509e-08
3.09214462e-08
0.0986630053
0.0811265078
3.16355881e-08
3.16655719e-08
0.0964886275
0.0790373584
3.24012507e-08
3.24289576e-08
0.092848107
0.0769058304
3.31706899e-08
3.31974905e-08
0.0890669775
0.0733507678
3.3939062e-08
3.39704358e-08
0.0866628543
0.0691285513
3.47088484e-08
3.47388747e-08
0.0835266674
0.06726052
3.54710215e-08
3.54978862e-08
0.0800389963
0.0655325169
3.63779696e-08
3.64050717e-08
0.0775369861
0.0639950346
3.72848735e-08
3.73322322e-08
0.0757992061
0.0603931771
3.81921424e-08
3.82596563e-08
0.0752831548
0.0576349515
3.90987239e-08
3.91759566e-08
0.0731479197
0.0558532137
4.00036574e-08
4.00853882e-08
0.0716979949
0.0536885766
4.09055118e-08
4.09910542e-08
0.0701702056
0.0517082047
4.18023666e-08
4.18870987e-08
0.0679358306
0.0503735419
4.28574046e-08
4.29597451e-08
0.0651785615
0.0488873021
4.39625753e-08
4.40532877e-08
0.0625181222
0.0469755551
4.50575824e-08
4.51497765e-08
0.0605081518
0.0446455997
4.61695738e-08
4.62447612e-08
0.0583198858
0.0428910455
4.72645895e-08
4.73377997e-08
0.0568614074
0.0412366362
4.83443024e-08
4.84202084e-08
0.0547010567
0.0398165682
4.9412617e-08
4.94971276e-08
0.0522284835
0.0387812493
5.07525554e-08
5.08436692e-08
0.0492515437
0.0374437073
5.20865814e-08
5.2171169e-08
0.0468721658
0.0360366501
5.33998493e-08
5.3470552e-08
0.0442816155
0.0349895212
5.46477148e-08
5.47243564e-08
0.042272584
0.0338377672
5.58240168e-08
5.58912597e-08
0.0411594619
0.0333331391
5.69491031e-08
5.70188262e-08
0.0402652162
0.0327346641
5.80322777e-08
5.81067029e-08
0.0394603178
0.03192362
5.93410646e-08
5.94577434e-08
0.0386662434
0.0309553462
6.06717627e-08
6.07993036e-08
0.0378723453
0.0299007806
6.19526816e-08
6.20860244e-08
0.0371201938
0.0287940031
6.31807216e-08
6.33211286e-08
0.0364103287
0.0276750563
6.43673547e-08
6.45035168e-08
0.0357550877
0.0267276744
6.55327524e-08
6.5654981e-08
0.0343662423
0.025723024
6.66625561e-08
6.67719031e-08
0.0329372962
0.0244225119
6.77457845e-08
6.78429946e-08
0.0315169124
0.023159205
6.88704743e-08
6.90005877e-08
0.0301351622
0.0219226002
7.02353718e-08
7.03605186e-08
0.0287590026
0.0206868742
7.15311463e-08
7.16521387e-08
0.0274726094
0.0195416049
7.27563873e-08
7.28872337e-08
0.0265818882
0.0182924046
7.39113986e-08
7.40630841e-08
0.0260700829
0.0170722652
7.4999199e-08
7.52000896e-08
0.0259423011
0.0165820821
7.60549641e-08
7.62628272e-08
0.026387248
0.0155580317
7.70351803e-08
7.72990645e-08
0.0265150207
0.0144146556
7.79724787e-08
7.82708775e-08
0.0261500459
0.0138743125
7.88816563e-08
7.91803747e-08
0.0250925967
0.0136621774
7.97649661e-08
8.00393883e-08
0.0233320679
0.0132665817
8.06288827e-08
8.11954798e-08
0.0206525408
0.0129075144
8.22979123e-08
8.2755237e-08
0.0180621668
0.012476944
8.38826392e-08
8.42296382e-08
0.0157929739
0.0121198211
8.53344207e-08
8.55876632e-08
0.0147195859
0.011788589
8.66334587e-08
8.68563438e-08
0.014168165
0.0114457553
8.78243428e-08
8.80411538e-08
0.0137106011
0.0110896299
8.89248559e-08
8.91251554e-08
0.0132928858
0.0107562468
8.9945195e-08
9.01288683e-08
0.0128892263
0.0104557787
9.08908648e-08
9.10556014e-08
0.0125090064
0.0101443075
9.17630188e-08
9.19117987e-08
0.0121705701
0.00979112852
9.25628548e-08
9.2704049e-08
0.0118640836
0.00937846308
9.32945804e-08
9.34369598e-08
0.0115509732
0.0089409267
9.39573548e-08
9.41054648e-08
0.0111057276
0.00854054335
9.45632829e-08
9.47075958e-08
0.0105376316
0.00818514511
9.51267595e-08
9.52536249e-08
0.00990328844
0.00782780391
9.56399563e-08
9.5751484e-08
0.00927892315
0.00743352087
9.6101386e-08
9.62057635e-08
0.0086965186
0.00700195861
9.65157887e-08
9.66152985e-08
0.00815758864
0.00658636373
9.68854682e-08
9.6979078e-08
0.00764418189
0.0061747343
9.72145305e-08
9.73023256e-08
0.00716792153
0.00578634328
9.75053027e-08
9.75883446e-08
0.006727792
0.00541514735
9.77602777e-08
9.78381141e-08
0.00631747769
0.00506863817
9.79817248e-08
9.80600585e-08
0.00594118116
0.00472716189
9.82731001e-08
9.83662371e-08
0.00557934729
0.00440121229
9.85488206e-08
9.86403701e-08
0.00522869806
0.00409846613
9.87965681e-08
9.88843208e-08
0.00488619616
0.00382042207
9.90179918e-08
9.91001559e-08
0.00455365102
0.00356404484
9.92144892e-08
9.92899545e-08
0.0042352917
0.00332428248
9.93873433e-08
9.9456144e-08
0.00393586487
0.00309656933
9.95374453e-08
9.96011396e-08
0.00365749567
0.00288046523
9.96663491e-08
9.97258605e-08
0.00339737406
0.00267852881
9.9776712e-08
9.98313147e-08
0.00315244575
0.00248998359
9.98702003e-08
9.9919854e-08
0.00292422696
0.00231064185
9.99474412e-08
9.99936159e-08
0.00271503363
0.00213853538
1.00009605e-07
1.00053734e-07
0.00252355891
0.00197562591
1.00058642e-07
1.00100893e-07
0.00234570944
0.00182345961
1.00096414e-07
1.00136531e-07
0.00217959481
0.00168065863
1.00123706e-07
1.00162311e-07
0.00202423969
0.00154885272
1.00141882e-07
1.00178649e-07
0.0018747895
0.00143018056
1.00152637e-07
1.00186471e-07
0.00172969763
0.00132181004
1.00156786e-07
1.0018724e-07
0.00159279917
0.001218637
1.001545e-07
1.00182473e-07
0.00146820868
0.00111924411
1.0014635e-07
1.00172647e-07
0.00135357389
0.00102673434
1.00133709e-07
1.00158041e-07
0.00124511335
0.000941001342
1.00117473e-07
1.00139482e-07
0.00114203963
0.000862850933
1.00098303e-07
1.00117081e-07
0.00103873695
0.000792887874
1.00079864e-07
1.0009386e-07
0.000903697496
0.000707188441
1.00072528e-07
1.00077094e-07
0.000729033275
0.000562360622
0.00022654351
0.000153992497
0.000401486862
0.000311241559
0.000324287762
0.000248892484
0.000310779646
0.000242007967
0.000288522837
0.000221860457
0.000266948673
0.000200869146
0.000243101976
0.000179782507
0.000217117522
0.000159204423
0.000189294265
0.000139478712
0.000160311061
0.000120728574
0.0001312217
0.000102867692
0.000103395181
8.56665379e-05
7.82798466e-05
6.89234679e-05
5.69736899e-05
5.27067978e-05
3.98092941e-05
3.74647631e-05
2.62916313e-05
2.38334916e-05
1.5499196e-05
1.22837624e-05
6.56515353e-06
3.01883136e-06
9.94636363e-08
9.94587561e-08
9.9456068e-08
9.94539263e-08
9.94527295e-08
9.94520309e-08
9.94516991e-08
9.94515424e-08
9.94514802e-08
9.94514578e-08
9.94514513e-08
9.945145e-08
9.945145e-08
9.94514501e-08
9.94514502e-08
9.94514503e-08
9.94514503e-08
9.94514503e-08
9.94514503e-08
9.94514503e-08
9.94514503e-08
9.94514503e-08
9.94514503e-08
9.94514503e-08
9.94514503e-08
9.94514503e-08
9.94514503e-08
9.94514503e-08
9.94514503e-08
9.94514503e-08
9.94514503e-08
9.94514503e-08
9.94514503e-08
9.94514503e-08
9.94514503e-08
9.94514503e-08
9.94514503e-08
9.94514503e-08
9.94514503e-08
9.94514503e-08
)
;

boundaryField
{
    closed
    {
        type            calculated;
        value           nonuniform List<scalar> 0();
    }
    open
    {
        type            calculated;
        value           uniform 0;
    }
    sides
    {
        type            empty;
    }
    procBoundary5to4
    {
        type            processor;
        value           uniform 0;
    }
}


// ************************************************************************* //
