/*--------------------------------*- C++ -*----------------------------------*\
| =========                 |                                                 |
| \\      /  F ield         | OpenFOAM: The Open Source CFD Toolbox           |
|  \\    /   O peration     | Version:  2306                                  |
|   \\  /    A nd           | Website:  www.openfoam.com                      |
|    \\/     M anipulation  |                                                 |
\*---------------------------------------------------------------------------*/
FoamFile
{
    version     2.0;
    format      ascii;
    arch        "LSB;label=32;scalar=64";
    class       surfaceScalarField;
    location    "0.00046";
    object      phi;
}
// * * * * * * * * * * * * * * * * * * * * * * * * * * * * * * * * * * * * * //

dimensions      [1 0 -1 0 0 0 0];

oriented        oriented;

internalField   nonuniform List<scalar> 
529
(
3.49335105e-06
3.55246074e-06
3.60830334e-06
3.66055705e-06
3.70915892e-06
3.75377358e-06
3.79429168e-06
3.83039345e-06
3.86189945e-06
3.88854655e-06
3.91015416e-06
3.92649319e-06
3.93740908e-06
3.94273217e-06
3.9423668e-06
3.93622976e-06
3.92431378e-06
3.90664489e-06
3.88332837e-06
3.85453835e-06
3.82047851e-06
3.78141197e-06
3.73767915e-06
3.68966217e-06
3.63779981e-06
3.58256118e-06
3.52445411e-06
3.46400212e-06
3.40174471e-06
3.33822262e-06
3.27396884e-06
3.20950391e-06
3.14531936e-06
3.08188309e-06
3.01961723e-06
2.95891289e-06
2.90010568e-06
2.84349468e-06
2.78932548e-06
2.73779885e-06
2.68906462e-06
2.64324489e-06
2.60041638e-06
2.56063016e-06
2.52389915e-06
2.49023126e-06
2.4595993e-06
2.43198489e-06
2.40734551e-06
2.38565568e-06
2.36687717e-06
2.35099397e-06
2.33798638e-06
2.32785871e-06
2.32061817e-06
2.31629365e-06
2.31494699e-06
2.31660331e-06
2.32132572e-06
2.32917946e-06
2.34024606e-06
2.35459441e-06
2.37231226e-06
2.39346089e-06
2.41811856e-06
2.44632969e-06
2.47814519e-06
2.51358456e-06
2.55265728e-06
2.59534928e-06
2.64161797e-06
2.69145718e-06
2.74471688e-06
2.80155001e-06
2.86155701e-06
2.92453927e-06
2.99058408e-06
3.05920893e-06
3.13030145e-06
3.20383303e-06
3.27949207e-06
3.35697551e-06
3.43606562e-06
3.51647346e-06
3.59794885e-06
3.68023168e-06
3.76304959e-06
3.84612867e-06
3.92921442e-06
4.012038e-06
4.0943601e-06
4.17592808e-06
4.25652139e-06
4.33591223e-06
4.41390301e-06
4.49029628e-06
4.5649222e-06
4.63761737e-06
4.70824421e-06
4.77667621e-06
4.84281174e-06
4.90656332e-06
4.96795271e-06
5.02684455e-06
5.08321475e-06
5.13705687e-06
5.18838573e-06
5.23723394e-06
5.28365325e-06
5.32771192e-06
5.36949359e-06
5.40909822e-06
5.44663202e-06
5.48222008e-06
5.51601845e-06
5.54813619e-06
5.57869943e-06
5.60784489e-06
5.63569884e-06
5.6623803e-06
5.68799821e-06
5.71264352e-06
5.73639223e-06
5.75929464e-06
5.78138068e-06
5.80264798e-06
5.82306943e-06
5.84258057e-06
5.86108916e-06
5.87846264e-06
5.89453948e-06
5.90911728e-06
5.92196558e-06
5.93281507e-06
5.94137177e-06
5.94730743e-06
5.95027492e-06
5.94989996e-06
5.94579747e-06
5.93756454e-06
5.92479753e-06
5.90708618e-06
5.88403102e-06
5.85523843e-06
5.82033807e-06
5.77897851e-06
5.73084431e-06
5.6756519e-06
5.6131658e-06
5.5431945e-06
5.46560534e-06
5.38032002e-06
5.28732776e-06
5.18668007e-06
5.07850183e-06
4.96298512e-06
4.84039789e-06
4.71107656e-06
4.5754322e-06
4.43394183e-06
4.28715196e-06
4.13566871e-06
3.98015862e-06
3.82133802e-06
3.65997106e-06
3.49685875e-06
3.33283476e-06
3.16875353e-06
3.00548731e-06
2.84390992e-06
2.68489434e-06
2.52929875e-06
2.37796377e-06
2.23169659e-06
2.09131064e-06
1.95748914e-06
1.83091105e-06
1.71219443e-06
1.60189716e-06
1.50050873e-06
1.40844805e-06
1.32606242e-06
1.25362114e-06
1.19132197e-06
1.13928358e-06
1.09755126e-06
1.06610125e-06
1.04483562e-06
1.03359084e-06
1.03214263e-06
1.04020582e-06
1.05744368e-06
1.08347106e-06
1.11785961e-06
1.16014546e-06
1.20983266e-06
1.26640137e-06
1.32931216e-06
1.39801278e-06
1.47194356e-06
1.5505426e-06
1.63325166e-06
1.71952e-06
1.80881015e-06
1.90060062e-06
1.99439111e-06
2.08970416e-06
2.18608965e-06
2.28312535e-06
2.3804206e-06
2.47761583e-06
2.57438546e-06
2.67043628e-06
2.76550975e-06
2.85937928e-06
2.95185199e-06
3.04276503e-06
3.13198691e-06
3.21941299e-06
3.30496655e-06
3.38859358e-06
3.47026372e-06
3.54996457e-06
3.62770263e-06
3.70349732e-06
3.77738202e-06
3.849398e-06
3.91959567e-06
3.9880286e-06
4.05475508e-06
4.11983234e-06
4.18331846e-06
4.24526696e-06
4.30572911e-06
4.36474893e-06
4.42236588e-06
4.47861038e-06
4.53350684e-06
4.58706973e-06
4.63930682e-06
4.69021598e-06
4.73978839e-06
4.78800607e-06
4.83484508e-06
4.88027366e-06
4.92425529e-06
4.9667475e-06
5.0077046e-06
5.04707719e-06
5.08481435e-06
5.12086389e-06
5.1551739e-06
5.18769361e-06
5.21837433e-06
5.24717083e-06
5.27404155e-06
5.29895051e-06
5.32186676e-06
5.34276674e-06
5.36163297e-06
5.37845679e-06
5.39323631e-06
5.40597951e-06
5.41670143e-06
5.42542759e-06
5.43219058e-06
5.43703354e-06
5.44000637e-06
5.44116923e-06
5.44058839e-06
5.4383397e-06
5.43450425e-06
5.42917164e-06
5.42243569e-06
5.41439739e-06
5.40516072e-06
5.39483533e-06
5.38353254e-06
5.37136769e-06
5.35845643e-06
5.3449167e-06
5.33086543e-06
5.31642009e-06
5.30169585e-06
5.28680677e-06
5.27186339e-06
5.2569736e-06
5.24224066e-06
5.2277638e-06
5.21363666e-06
5.19994767e-06
5.18677881e-06
5.17420594e-06
5.16229778e-06
5.15111614e-06
5.1407153e-06
5.131142e-06
5.1224352e-06
5.11462598e-06
5.10773745e-06
5.10178482e-06
5.09677521e-06
5.09270798e-06
5.08957458e-06
5.08735875e-06
5.08603694e-06
5.08557767e-06
5.08594339e-06
5.08708813e-06
5.08896095e-06
5.09150339e-06
5.09465041e-06
5.09833474e-06
5.10247658e-06
5.10700173e-06
5.11181963e-06
5.11684523e-06
5.12198246e-06
5.12713613e-06
5.13220535e-06
5.13708783e-06
5.14167815e-06
5.14586939e-06
5.14955283e-06
5.15261875e-06
5.15495679e-06
5.15645618e-06
5.15700659e-06
5.15649798e-06
5.15482181e-06
5.15187063e-06
5.14753941e-06
5.14172519e-06
5.13432832e-06
5.12525221e-06
5.11440448e-06
5.10169681e-06
5.08704603e-06
5.07037402e-06
5.05160872e-06
5.03068416e-06
5.00754129e-06
4.98212814e-06
4.95440055e-06
4.92432236e-06
4.89186604e-06
4.85701289e-06
4.81975364e-06
4.78008856e-06
4.73802799e-06
4.69359244e-06
4.64681297e-06
4.59773129e-06
4.54639996e-06
4.49288245e-06
4.43725321e-06
4.37959759e-06
4.32001185e-06
4.25860292e-06
4.19548823e-06
4.1307954e-06
4.06466194e-06
3.99723472e-06
3.9286696e-06
3.85913075e-06
3.7887901e-06
3.71782658e-06
3.64642542e-06
3.57477725e-06
3.5030773e-06
3.43152446e-06
3.36032028e-06
3.28966801e-06
3.21977153e-06
3.15083435e-06
3.0830585e-06
3.01664347e-06
2.95178515e-06
2.88867477e-06
2.82749783e-06
2.76843314e-06
2.71165181e-06
2.65731631e-06
2.60557961e-06
2.55658431e-06
2.51046194e-06
2.46733219e-06
2.42730235e-06
2.3904667e-06
2.35690611e-06
2.32668761e-06
2.2998641e-06
2.27647417e-06
2.25654191e-06
2.24007695e-06
2.22707445e-06
2.21751522e-06
2.21136599e-06
2.20857961e-06
2.20909549e-06
2.21283997e-06
2.21972682e-06
2.22965784e-06
2.2425234e-06
2.25820315e-06
2.27656671e-06
2.29747439e-06
2.32077802e-06
2.3463217e-06
2.37394266e-06
2.40347212e-06
2.43473613e-06
2.46755644e-06
2.50175141e-06
2.53713685e-06
2.57352689e-06
2.61073488e-06
2.6485742e-06
2.68685913e-06
2.72540562e-06
2.76403217e-06
2.80256048e-06
2.84081634e-06
2.8786302e-06
2.91583797e-06
2.95228165e-06
2.98780986e-06
3.02227862e-06
3.05555158e-06
3.08750102e-06
3.11800769e-06
3.1469646e-06
3.17426882e-06
3.19982976e-06
3.22356764e-06
3.24541293e-06
3.26530702e-06
3.28320216e-06
3.29906167e-06
3.31286004e-06
3.3245829e-06
3.33422708e-06
3.34180051e-06
3.34732213e-06
3.35082174e-06
3.35233982e-06
3.35192724e-06
3.34964504e-06
3.34556404e-06
3.33976449e-06
3.33233561e-06
3.32337515e-06
3.31296556e-06
3.30035295e-06
3.28533038e-06
3.26771838e-06
3.24738657e-06
3.22428202e-06
3.19846636e-06
3.17016253e-06
3.13981274e-06
3.10814724e-06
3.07626329e-06
3.04571052e-06
3.01857518e-06
2.99755077e-06
2.98597533e-06
2.98780615e-06
3.00749303e-06
3.04970254e-06
3.11884148e-06
3.21833654e-06
3.34965502e-06
3.5111147e-06
3.69662975e-06
3.89468632e-06
4.08820206e-06
4.2559436e-06
4.37625439e-06
4.43346844e-06
4.42620548e-06
4.37494855e-06
4.324753e-06
4.33478244e-06
4.45375679e-06
4.68839324e-06
4.96815475e-06
5.1421639e-06
5.03737349e-06
4.55105976e-06
3.71801255e-06
2.68780183e-06
1.688845e-06
1.13473327e-06
1.27945221e-06
2.09983132e-06
3.43341702e-06
4.71070223e-06
5.56285867e-06
5.96651661e-06
5.78736727e-06
5.36784841e-06
4.77839437e-06
4.34817792e-06
4.38331397e-06
4.25571179e-06
3.70204776e-06
3.36209355e-06
3.56863949e-06
3.92325092e-06
4.14617055e-06
4.65853025e-06
5.32136082e-06
5.29408114e-06
4.60775432e-06
4.0081374e-06
3.96738039e-06
4.31272037e-06
4.86127656e-06
5.20701468e-06
5.41882991e-06
5.67074869e-06
5.62205776e-06
5.41032502e-06
5.48362332e-06
5.725203e-06
5.89817064e-06
6.03221324e-06
5.8950838e-06
)
;

boundaryField
{
    closed
    {
        type            calculated;
        value           nonuniform List<scalar> 0();
    }
    open
    {
        type            calculated;
        value           uniform 5.53437694e-06;
    }
    sides
    {
        type            empty;
        value           nonuniform List<scalar> 0();
    }
    procBoundary5to4
    {
        type            processor;
        value           uniform -3.43106841e-06;
    }
}


// ************************************************************************* //
