/*--------------------------------*- C++ -*----------------------------------*\
| =========                 |                                                 |
| \\      /  F ield         | OpenFOAM: The Open Source CFD Toolbox           |
|  \\    /   O peration     | Version:  2306                                  |
|   \\  /    A nd           | Website:  www.openfoam.com                      |
|    \\/     M anipulation  |                                                 |
\*---------------------------------------------------------------------------*/
FoamFile
{
    version     2.0;
    format      ascii;
    arch        "LSB;label=32;scalar=64";
    class       volScalarField;
    location    "0.00046";
    object      prefDPV_H2;
}
// * * * * * * * * * * * * * * * * * * * * * * * * * * * * * * * * * * * * * //

dimensions      [1 -1 -1 0 0 0 0];

internalField   nonuniform List<scalar> 
530
(
-9.50808535e-05
-9.51038472e-05
-9.5152409e-05
-9.51720137e-05
-9.52147032e-05
-9.52318135e-05
-9.52693217e-05
-9.52853435e-05
-9.53193642e-05
-9.5334429e-05
-9.5365508e-05
-9.53794694e-05
-9.54079205e-05
-9.54206876e-05
-9.54467748e-05
-9.54583013e-05
-9.54822529e-05
-9.54925303e-05
-9.55145468e-05
-9.55233183e-05
-9.55409262e-05
-9.55465947e-05
-9.55625359e-05
-9.55668862e-05
-9.55812644e-05
-9.55843326e-05
-9.5597243e-05
-9.55990719e-05
-9.56106029e-05
-9.56112443e-05
-9.5621477e-05
-9.56209903e-05
-9.56299995e-05
-9.56284506e-05
-9.56363065e-05
-9.56337666e-05
-9.5640536e-05
-9.563708e-05
-9.56428312e-05
-9.56385327e-05
-9.56431943e-05
-9.56365997e-05
-9.56389418e-05
-9.56314786e-05
-9.56328798e-05
-9.56246004e-05
-9.56250894e-05
-9.56160545e-05
-9.56156596e-05
-9.56059291e-05
-9.56046816e-05
-9.55943119e-05
-9.55922453e-05
-9.55812898e-05
-9.55784402e-05
-9.55669494e-05
-9.55633572e-05
-9.55514313e-05
-9.55471727e-05
-9.55348133e-05
-9.55299118e-05
-9.55171572e-05
-9.55116716e-05
-9.54985538e-05
-9.54925487e-05
-9.54790958e-05
-9.54726362e-05
-9.5458878e-05
-9.5452017e-05
-9.5437983e-05
-9.54302534e-05
-9.54146373e-05
-9.54060117e-05
-9.53901552e-05
-9.53809261e-05
-9.53668711e-05
-9.53564277e-05
-9.53424895e-05
-9.53324357e-05
-9.53170471e-05
-9.53060177e-05
-9.52910526e-05
-9.52792829e-05
-9.52646147e-05
-9.52522385e-05
-9.52377598e-05
-9.52247144e-05
-9.52102355e-05
-9.51966379e-05
-9.51821948e-05
-9.51681349e-05
-9.51536993e-05
-9.51392583e-05
-9.51248071e-05
-9.51100542e-05
-9.50955739e-05
-9.5080568e-05
-9.50660545e-05
-9.50508469e-05
-9.50363035e-05
-9.50209399e-05
-9.50063752e-05
-9.49908791e-05
-9.49761373e-05
-9.49605005e-05
-9.49458986e-05
-9.49303536e-05
-9.49159028e-05
-9.49004764e-05
-9.48861899e-05
-9.48709073e-05
-9.48568008e-05
-9.4841684e-05
-9.4827779e-05
-9.48126915e-05
-9.47985113e-05
-9.47833555e-05
-9.47693106e-05
-9.47543289e-05
-9.47404318e-05
-9.47256273e-05
-9.47118823e-05
-9.46972606e-05
-9.46836697e-05
-9.46692366e-05
-9.46558014e-05
-9.46415625e-05
-9.4628284e-05
-9.46142448e-05
-9.46011242e-05
-9.45872898e-05
-9.45743285e-05
-9.45607036e-05
-9.45479033e-05
-9.45344921e-05
-9.4521855e-05
-9.45086611e-05
-9.44961896e-05
-9.44832164e-05
-9.44709133e-05
-9.44581639e-05
-9.44460322e-05
-9.44335092e-05
-9.44215524e-05
-9.44092583e-05
-9.43974798e-05
-9.43854172e-05
-9.43738206e-05
-9.43619917e-05
-9.43505809e-05
-9.43389878e-05
-9.43277668e-05
-9.43164117e-05
-9.43053843e-05
-9.42942694e-05
-9.42834397e-05
-9.4272567e-05
-9.4261939e-05
-9.42513106e-05
-9.42408882e-05
-9.42305061e-05
-9.42202933e-05
-9.42101594e-05
-9.42001604e-05
-9.41902765e-05
-9.41804954e-05
-9.41708629e-05
-9.4161326e-05
-9.415211e-05
-9.41429416e-05
-9.41339491e-05
-9.41249891e-05
-9.41162265e-05
-9.41074797e-05
-9.40985504e-05
-9.40895718e-05
-9.4080868e-05
-9.4072147e-05
-9.40637234e-05
-9.40552617e-05
-9.40471209e-05
-9.40389228e-05
-9.40310647e-05
-9.40231378e-05
-9.40155596e-05
-9.40079114e-05
-9.40008052e-05
-9.39937849e-05
-9.39870721e-05
-9.39803137e-05
-9.39738632e-05
-9.39673656e-05
-9.39611705e-05
-9.39549291e-05
-9.39489855e-05
-9.39429944e-05
-9.3937299e-05
-9.39315528e-05
-9.39261016e-05
-9.39205956e-05
-9.39153837e-05
-9.39101136e-05
-9.39051358e-05
-9.39000975e-05
-9.3895348e-05
-9.38905374e-05
-9.38860107e-05
-9.38814236e-05
-9.38771139e-05
-9.38727459e-05
-9.38686475e-05
-9.3864494e-05
-9.38606012e-05
-9.38566577e-05
-9.38529646e-05
-9.38492263e-05
-9.3845727e-05
-9.38421891e-05
-9.38388778e-05
-9.38355353e-05
-9.38324061e-05
-9.38292539e-05
-9.38263007e-05
-9.38233337e-05
-9.38205506e-05
-9.38177635e-05
-9.38151444e-05
-9.38125319e-05
-9.38100709e-05
-9.38076275e-05
-9.38053187e-05
-9.38030388e-05
-9.38008763e-05
-9.37987543e-05
-9.37967323e-05
-9.37947625e-05
-9.37928752e-05
-9.37910518e-05
-9.37892937e-05
-9.37876108e-05
-9.37859764e-05
-9.37844282e-05
-9.3782912e-05
-9.37814925e-05
-9.37800893e-05
-9.37787925e-05
-9.37774974e-05
-9.37763173e-05
-9.37751252e-05
-9.37740557e-05
-9.37729621e-05
-9.37719972e-05
-9.37709974e-05
-9.3770131e-05
-9.37692208e-05
-9.37684469e-05
-9.3767622e-05
-9.37669346e-05
-9.3766191e-05
-9.37655845e-05
-9.37649181e-05
-9.37643867e-05
-9.37637939e-05
-9.3763332e-05
-9.37628089e-05
-9.37624113e-05
-9.37619542e-05
-9.37616159e-05
-9.37612211e-05
-9.37609374e-05
-9.37606012e-05
-9.37603675e-05
-9.37600862e-05
-9.37598984e-05
-9.37596684e-05
-9.37595227e-05
-9.37593402e-05
-9.37592332e-05
-9.37590944e-05
-9.37590228e-05
-9.37589241e-05
-9.37588852e-05
-9.37588227e-05
-9.37588139e-05
-9.37587841e-05
-9.3758803e-05
-9.37588024e-05
-9.37588467e-05
-9.3758872e-05
-9.37589398e-05
-9.37589876e-05
-9.37590769e-05
-9.37591444e-05
-9.37592534e-05
-9.37593376e-05
-9.37594647e-05
-9.3759563e-05
-9.37597065e-05
-9.37598164e-05
-9.37599747e-05
-9.37600941e-05
-9.37602656e-05
-9.37603926e-05
-9.37605756e-05
-9.37607087e-05
-9.37609016e-05
-9.37610389e-05
-9.37612409e-05
-9.37613803e-05
-9.37615915e-05
-9.37617301e-05
-9.37619508e-05
-9.3762087e-05
-9.37623133e-05
-9.37624506e-05
-9.37626829e-05
-9.37628137e-05
-9.37630472e-05
-9.37631804e-05
-9.37634088e-05
-9.37635472e-05
-9.37637682e-05
-9.37639121e-05
-9.3764125e-05
-9.37642737e-05
-9.37644782e-05
-9.37646306e-05
-9.37648269e-05
-9.37649817e-05
-9.37651702e-05
-9.3765326e-05
-9.37655072e-05
-9.37656628e-05
-9.37658371e-05
-9.37659915e-05
-9.37661592e-05
-9.37663115e-05
-9.3766473e-05
-9.37666224e-05
-9.3766778e-05
-9.37669239e-05
-9.37670737e-05
-9.37672158e-05
-9.376736e-05
-9.37674978e-05
-9.37676365e-05
-9.37677698e-05
-9.37679031e-05
-9.37680318e-05
-9.37681597e-05
-9.37682836e-05
-9.37684063e-05
-9.37685254e-05
-9.3768643e-05
-9.37687572e-05
-9.37688697e-05
-9.37689792e-05
-9.37690867e-05
-9.37691914e-05
-9.3769294e-05
-9.3769394e-05
-9.37694919e-05
-9.37695872e-05
-9.37696805e-05
-9.37697713e-05
-9.37698601e-05
-9.37699465e-05
-9.37700309e-05
-9.3770113e-05
-9.37701932e-05
-9.37702712e-05
-9.37703472e-05
-9.37704212e-05
-9.37704932e-05
-9.37705633e-05
-9.37706315e-05
-9.37706979e-05
-9.37707625e-05
-9.37708252e-05
-9.37708863e-05
-9.37709456e-05
-9.37710032e-05
-9.37710593e-05
-9.37711137e-05
-9.37711665e-05
-9.37712178e-05
-9.37712677e-05
-9.3771316e-05
-9.3771363e-05
-9.37714086e-05
-9.37714528e-05
-9.37714956e-05
-9.37715373e-05
-9.37715776e-05
-9.37716167e-05
-9.37716546e-05
-9.37716914e-05
-9.37717271e-05
-9.37717616e-05
-9.37717951e-05
-9.37718275e-05
-9.37718589e-05
-9.37718894e-05
-9.37719189e-05
-9.37719475e-05
-9.37719751e-05
-9.37720019e-05
-9.37720278e-05
-9.3772053e-05
-9.37720772e-05
-9.37721008e-05
-9.37721236e-05
-9.37721457e-05
-9.3772167e-05
-9.37721877e-05
-9.37722077e-05
-9.37722271e-05
-9.37722458e-05
-9.3772264e-05
-9.37722815e-05
-9.37722986e-05
-9.3772315e-05
-9.3772331e-05
-9.37723463e-05
-9.37723614e-05
-9.37723757e-05
-9.37723899e-05
-9.37724033e-05
-9.37724165e-05
-9.37724292e-05
-9.37724412e-05
-9.37724411e-05
-9.37724246e-05
-9.3772409e-05
-9.37723944e-05
-9.37723811e-05
-9.37723685e-05
-9.3772357e-05
-9.37723462e-05
-9.37723363e-05
-9.3772327e-05
-9.37723184e-05
-9.37723105e-05
-9.37723031e-05
-9.37722963e-05
-9.377229e-05
-9.37722841e-05
-9.37722787e-05
-9.37722737e-05
-9.37722691e-05
-9.37722648e-05
-9.37722609e-05
-9.37722572e-05
-9.37722537e-05
-9.37722503e-05
-9.3772247e-05
-9.37722437e-05
-9.37722406e-05
-9.37722376e-05
-9.37722348e-05
-9.37722321e-05
-9.37722297e-05
-9.37722274e-05
-9.37722254e-05
-9.37722236e-05
-9.3772222e-05
-9.37722206e-05
-9.37722194e-05
-9.37722184e-05
-9.37722176e-05
-9.3772217e-05
-9.37722165e-05
-9.37722161e-05
-9.37722159e-05
-9.37722156e-05
-9.37722155e-05
-9.37722154e-05
-9.37722153e-05
-9.37722153e-05
-9.37722153e-05
-9.37722152e-05
-9.37722152e-05
-9.37722152e-05
-9.37722152e-05
-9.37722152e-05
-9.37722152e-05
-9.37722152e-05
-9.37722152e-05
-9.37722152e-05
-9.37722152e-05
-9.37722152e-05
-9.37722152e-05
-9.37722152e-05
-9.37722152e-05
-9.37722152e-05
-9.37722152e-05
-9.37722152e-05
-9.37722152e-05
-9.37722152e-05
-9.37722152e-05
-9.37722152e-05
-9.37722152e-05
-9.37722152e-05
-9.37722152e-05
-9.37722152e-05
-9.37722152e-05
-9.37722152e-05
-9.37722152e-05
-9.37722152e-05
-9.37722152e-05
-9.37722152e-05
-9.37722152e-05
-9.37722152e-05
-9.37722152e-05
-9.37722152e-05
-9.37722152e-05
-9.37722152e-05
-9.37722152e-05
-9.37722152e-05
-9.37722152e-05
-9.37722152e-05
-9.37722152e-05
-9.37722152e-05
-9.37722152e-05
-9.37722152e-05
-9.37722152e-05
-9.37722152e-05
-9.37722152e-05
-9.37722152e-05
-9.37722152e-05
)
;

boundaryField
{
    closed
    {
        type            calculated;
        value           nonuniform List<scalar> 0();
    }
    open
    {
        type            calculated;
        value           uniform -9.37722152e-05;
    }
    sides
    {
        type            empty;
    }
    procBoundary5to4
    {
        type            processor;
        value           uniform -9.50307135e-05;
    }
}


// ************************************************************************* //
