/*--------------------------------*- C++ -*----------------------------------*\
| =========                 |                                                 |
| \\      /  F ield         | OpenFOAM: The Open Source CFD Toolbox           |
|  \\    /   O peration     | Version:  2306                                  |
|   \\  /    A nd           | Website:  www.openfoam.com                      |
|    \\/     M anipulation  |                                                 |
\*---------------------------------------------------------------------------*/
FoamFile
{
    version     2.0;
    format      ascii;
    arch        "LSB;label=32;scalar=64";
    class       volScalarField;
    location    "0.00038";
    object      h;
}
// * * * * * * * * * * * * * * * * * * * * * * * * * * * * * * * * * * * * * //

dimensions      [0 2 -2 0 0 0 0];

internalField   nonuniform List<scalar> 
531
(
10035.3267
-4348.7012
-5044.99824
9303.18278
9969.41487
-4388.51513
-5025.94464
9286.95685
9902.81644
-4394.76441
-4954.82013
9297.55119
9855.537
-4313.20432
-4719.6143
9361.48366
9867.08956
-3815.45565
-3677.78769
9491.63286
10452.2977
2105.62688
-2163.88943
-1800.7382
-4052.44218
-3271.8348
9522.25922
10316.3936
3436.18791
-4625.88503
-3690.62046
9336.92647
10513.3214
4648.79996
-2269.24068
-2313.85955
-4112.53754
-3476.82055
9656.45231
10131.1121
-3258.24766
-4008.3566
9469.86054
9899.06479
-4361.72341
-4793.10432
9329.98373
9904.04939
-3902.2395
-4407.16801
9520.36142
9992.27324
299.693549
-5457.59475
-4520.24897
9583.36434
10008.5489
-3579.9559
-4271.26342
9549.17849
10072.9011
759.166595
-5265.08946
-4512.34051
9723.67856
10149.8464
-3272.74549
-3737.15526
9509.83407
10519.001
3270.9883
-2434.07166
-2656.8157
-4372.54639
-3943.65975
9734.88824
10314.2026
-2317.56292
-3675.45091
9744.82458
10274.9343
1186.21172
-5247.6379
-4803.71394
9526.8917
10145.0523
-3660.82645
-5145.68033
9280.56384
10114.3813
-3803.22024
-4967.50109
9212.40566
10119.0693
-3975.97461
-5196.85258
8859.15755
10082.6395
-4098.36454
-5174.37334
8995.38266
10160.45
-3722.59049
-4383.23831
9208.34576
10506.6529
2629.23297
-2400.3179
-4849.81909
-4842.57178
9277.956
10155.7589
2812.29773
-5366.37465
-5401.41662
9153.70619
10138.1922
-2719.47092
-4544.81552
8920.28337
10216.2666
-2882.2086
-4443.42368
9001.90631
10167.6808
1626.45655
-5310.15717
-5314.25042
8891.47918
10117.4705
2934.89118
-5097.05215
-5160.55991
8823.8263
10140.9827
2184.04402
-4884.17774
-4926.85833
8860.17055
10159.5425
-2082.33047
-4691.66582
8678.45974
10120.1857
2391.41851
-5245.57611
-5272.07547
8512.95124
10073.4451
3300.43735
-5358.8269
-5447.38751
8407.65268
10117.577
-2022.86925
-4211.90158
8606.03502
10174.3311
2502.16134
-5179.28866
-5235.09883
8447.7565
10088.9799
3393.61014
-5079.22983
-5128.65484
8461.043
10105.7141
3533.18577
-5019.21687
-5043.06731
8488.7767
10084.7924
3312.95225
-5240.39397
-5330.54224
8581.79627
10111.4765
-2315.05174
-4057.14528
8575.29234
10103.4037
1918.09909
-5560.75556
-5568.9448
8748.61838
10047.6083
-2378.07081
-3960.63238
8654.54677
10145.6614
2018.67375
-5250.94666
-5254.48831
9040.50066
10087.6433
2992.38294
-5122.20462
-5115.48283
9137.48674
10117.9698
3008.91872
-5041.5322
-5030.96282
9288.56087
10110.7888
2621.07403
-5201.01899
-5157.84785
9454.60983
10125.7309
2864.88593
-5052.72538
-5013.91974
9585.91387
10129.1583
918.506237
-4794.69984
-4323.5321
9670.57508
10180.2251
-3186.90046
-3967.76138
8659.72574
10577.439
6798.81604
-1291.27897
-4109.7178
-2787.42592
5592.51402
6411.47218
-442.894457
-4998.50994
-3944.5045
9703.00974
10342.6297
3783.93537
-4620.09567
-4612.35511
9730.52657
10169.1084
-3452.97373
-4480.41787
9516.75041
10114.8449
-444.605545
-4948.20956
-3656.45087
9818.02981
10256.2676
-3695.7963
-4762.96226
9492.89009
10063.375
636.503017
-5161.36289
-4306.5212
9928.45756
10171.9593
209.899029
-4917.07371
-3950.17783
9892.96215
10209.6779
-3430.49843
-4521.38962
9559.83609
10052.8538
-293.813135
-5159.25483
-4434.27658
9818.00551
10109.276
-3802.14773
-4769.91112
9249.49395
9910.98392
-4226.04361
-4852.41603
9144.41062
9918.12637
-4002.05028
-4467.70626
9408.62698
9988.72881
-1044.07213
-5305.21461
-2651.81011
9647.49268
9921.39122
-4319.8218
-5122.46687
9156.50808
9876.90967
-3836.14105
-4284.22932
9380.40322
10017.8628
-475.669533
-5301.96183
-2717.84585
9624.04711
9929.88901
-4419.04662
-5221.04588
9041.23403
9884.29482
-3684.35205
-4346.38907
9324.4312
10001.044
-553.011006
-5262.09179
-3029.06133
9639.99601
9819.04138
-4246.97183
-4784.21833
9421.89903
10012.1824
-479.36269
-5290.77976
-1485.63651
9717.5432
9886.84889
-4501.77523
-5108.95785
9366.79568
10045.8887
674.917262
-5053.06924
-4255.86485
9862.33772
10159.1847
1000.61705
-5075.95612
-4495.20284
9834.24414
10119.9694
-3626.5268
-4667.29585
9577.07481
10091.4683
486.69189
-4944.66243
-4288.94298
9916.13485
10114.0737
-3703.27326
-4970.03803
9523.49655
10016.8569
-4373.37257
-4408.84639
9715.83968
10278.4297
1596.35003
-3636.80944
-3989.47997
5247.71491
9728.73614
1151.46267
-1513.56737
-3434.31026
-2970.53007
9965.0098
10234.6314
-3657.6684
-3757.23964
9770.35424
10462.8314
1710.57942
-1557.4755
-766.217482
-259.659527
-3143.80183
-2982.98404
10039.1585
10228.8474
-3267.31834
-4057.31987
9715.66106
9970.57125
-3985.61943
-4251.45096
9632.51596
9954.66062
1108.91909
-6591.58753
-5762.17897
9139.09451
9788.28232
3843.08352
-6769.79847
-5718.43147
8866.95772
-2092.49803
-8080.69078
7160.21976
8001.32183
7267.74079
7200.95026
-5683.67808
-6615.47511
5864.62441
6468.81162
5562.32402
5856.77385
5451.82
5460.97129
5284.84312
5269.87421
5334.79246
5634.25143
6333.09293
7515.84765
7604.48908
7608.95952
7542.4858
7328.3678
6905.28035
6360.77122
5579.24187
5336.81942
6440.28471
6079.08619
5941.74333
3944.33782
674.883089
-1239.85785
-2799.63138
-4263.41961
-7315.09313
-8962.05736
-8486.35236
-10281.9311
-11703.1926
-11025.8332
-12224.3076
-15928.0262
-20639.7061
-25533.4658
-29094.4617
-31048.3484
-33383.8389
-36183.8457
-39030.3219
-42572.4734
-46067.5032
-50448.6056
-53674.954
-58397.8517
-62247.4938
-67248.3031
-71273.9163
-75509.2897
-79624.6397
-83115.0872
-87538.0405
-90606.8497
-95699.5669
-95536.4533
-104426.047
-107202.86
-114978.74
-96031.9629
-120630.256
-144684.7
-136336.153
-66356.4803
-133629.852
-203266.549
-162567.154
-60024.4288
-164595.249
-257455.841
-177403.781
-89818.7175
-196328.616
-267787.598
-193423.881
-106287.161
-204498.106
-263132.265
-213182.437
-128644.434
-188197.35
-257922.754
-234688.781
-144258.233
-187652.653
-248924.239
-233677.161
-148712.125
-181259.071
-233836.544
-222256.652
-150513.63
-173803.691
-220591.724
-211454.755
-149986.615
-166260.877
-201665.875
-203115.629
-153439.383
-158177.596
-174066.733
-195778.7
-180807.259
-153490.712
-163622.725
-189706.76
-187908.771
-149888.587
-159425.535
-183944.673
-181904.395
-146205.976
-156317.868
-178419.368
-176025.344
-142872.103
-152535.558
-172796.748
-170330.096
-139574.694
-148264.922
-167035.124
-164428.662
-136217.506
)
;

boundaryField
{
    closed
    {
        type            lookUpEnthalpy;
        h0              nonuniform List<scalar> 0();
        value           nonuniform List<scalar> 0();
    }
    open
    {
        type            zeroGradient;
    }
    sides
    {
        type            empty;
    }
    procBoundary4to3
    {
        type            processor;
        value           uniform 9295.68639;
    }
    procBoundary4to5
    {
        type            processor;
        value           uniform -143351.528;
    }
}


// ************************************************************************* //
