/*--------------------------------*- C++ -*----------------------------------*\
| =========                 |                                                 |
| \\      /  F ield         | OpenFOAM: The Open Source CFD Toolbox           |
|  \\    /   O peration     | Version:  2306                                  |
|   \\  /    A nd           | Website:  www.openfoam.com                      |
|    \\/     M anipulation  |                                                 |
\*---------------------------------------------------------------------------*/
FoamFile
{
    version     2.0;
    format      ascii;
    arch        "LSB;label=32;scalar=64";
    class       volScalarField;
    location    "0.00038";
    object      sourcePV;
}
// * * * * * * * * * * * * * * * * * * * * * * * * * * * * * * * * * * * * * //

dimensions      [1 -3 -1 0 0 0 0];

internalField   nonuniform List<scalar> 
531
(
0.00562774787
0.153924014
0.160106649
0.00479069597
0.00553708796
0.154447641
0.15978295
0.00476994647
0.00544148776
0.154402365
0.158850146
0.00483475996
0.00538737808
0.153136185
0.156046904
0.0050249617
0.00539551741
0.14696931
0.144210989
0.00534774504
0.00615116625
0.0857629474
0.127861492
0.124529299
0.149436512
0.139935627
0.00530578934
0.00585774287
0.0699753018
0.156054814
0.144748381
0.00501245637
0.00613682547
0.0549795275
0.129380537
0.12990261
0.150488431
0.142294348
0.00531655933
0.00574035471
0.141252574
0.148201508
0.00508724943
0.00542803903
0.153697574
0.15706489
0.00494353233
0.00543124038
0.148284157
0.153121489
0.00533832674
0.00539452466
0.104856639
0.1659724
0.15404732
0.00519440252
0.00557804105
0.144403256
0.151479046
0.0054416245
0.00557093071
0.0998925265
0.163417434
0.153710519
0.00543240387
0.00587705368
0.1407302
0.144953031
0.00537473945
0.00626583652
0.0723359138
0.130973193
0.133493921
0.153118843
0.147627548
0.00550650113
0.00603612233
0.129541003
0.144815425
0.00569933909
0.00585728098
0.0953734561
0.163400421
0.157172055
0.00501076954
0.00586061955
0.145695669
0.161139513
0.00474533462
0.00581774682
0.147423047
0.15922103
0.00455148302
0.00580513663
0.149788193
0.161794882
0.00400555462
0.00576150833
0.151128437
0.161546685
0.00424667189
0.00585631695
0.146201803
0.152736646
0.00459748422
0.0061919869
0.0813055405
0.130650651
0.158880559
0.158461638
0.00457941889
0.00561935559
0.0786299757
0.164735473
0.164291718
0.00438260436
0.00583874239
0.134320696
0.154329824
0.00410626016
0.00595565262
0.135812531
0.153361006
0.00418542596
0.00579182404
0.0915433971
0.163700091
0.163415068
0.00388040503
0.00566558089
0.0774722569
0.161357642
0.161758992
0.00379252472
0.00569347982
0.0854491994
0.159108216
0.158755775
0.00375301825
0.00582460663
0.127035772
0.156319808
0.0035920791
0.00571587234
0.083425651
0.163107401
0.162956232
0.00320054286
0.00558267931
0.0732021731
0.164522515
0.164653803
0.00305166132
0.00575560773
0.12660288
0.150990554
0.00341327011
0.00576897984
0.082298588
0.16235465
0.162434551
0.00308072904
0.00563373679
0.0724281643
0.161328617
0.161381973
0.00309054807
0.00564172636
0.0709970018
0.1606294
0.160537249
0.00316954885
0.00559313069
0.0730116079
0.163194021
0.163444189
0.00335247738
0.00576474111
0.129711055
0.149302734
0.00344250789
0.0056653045
0.0884460841
0.166793165
0.166061074
0.00366161789
0.00573349695
0.130424264
0.148117664
0.00358930946
0.00575034673
0.0877013218
0.163054343
0.16290249
0.00414337589
0.00565541615
0.0765569418
0.161541605
0.161371292
0.00431243477
0.00569131822
0.0762702868
0.160542048
0.16041308
0.00458369481
0.00569358855
0.0804432098
0.162228933
0.16176041
0.0049146664
0.00575702358
0.0772280312
0.160215168
0.160008562
0.00518829036
0.00576789134
0.0977625525
0.157843172
0.151484923
0.00511431175
0.00610756311
0.139606449
0.147205427
0.0036687832
0.00645884311
0.0241359149
0.119524416
0.151342914
0.135306284
0.0430208443
0.030122393
0.112273011
0.160794493
0.148108584
0.00519465267
0.00597752975
0.0658756862
0.155382362
0.155276997
0.00538604928
0.0059480941
0.141500194
0.153626996
0.0051775882
0.0057958426
0.111291561
0.15953469
0.144051845
0.00535775104
0.0060789837
0.144463677
0.156695571
0.00508074601
0.00575170093
0.100815937
0.161487177
0.151835798
0.00560642294
0.0058003306
0.105184849
0.159185943
0.147588584
0.00543219074
0.00596699576
0.141424682
0.154276468
0.00506543814
0.00563084447
0.110115736
0.162319438
0.153196501
0.00515890193
0.00579157568
0.14657404
0.157182682
0.00438095069
0.00549921913
0.151264749
0.158250956
0.00427473375
0.00549752007
0.148257437
0.154070776
0.00474023744
0.005505155
0.117293249
0.164267247
0.133057542
0.0049300256
0.00570828513
0.152349261
0.16126912
0.00419740129
0.00541893824
0.146496382
0.152205385
0.0046923004
0.00550542139
0.111846538
0.164278234
0.133638338
0.00489249859
0.0057220006
0.153449121
0.162157735
0.00411082512
0.00546667652
0.144837945
0.1527626
0.00465075714
0.00552322151
0.112797325
0.163718848
0.137520636
0.00498447366
0.00558629577
0.151093677
0.157641856
0.00480006437
0.00550849915
0.111931152
0.1639637
0.1212615
0.00509966097
0.00578660564
0.154054219
0.161067951
0.00479513726
0.00557671282
0.101085033
0.160753065
0.151508953
0.00553858608
0.00575272345
0.0972820202
0.161027715
0.153741178
0.00541368481
0.0058567352
0.143841924
0.155948168
0.00540866427
0.00569988879
0.102339942
0.159766856
0.151430339
0.00547503027
0.00584034081
0.145355511
0.159106742
0.00521494031
0.00575063173
0.152506123
0.152826191
0.00555008878
0.0059387584
0.0916786265
0.144801085
0.148748424
0.0467401752
0.00542323091
0.0967466873
0.1221708
0.142213453
0.136643548
0.00585167604
0.00603086194
0.144072156
0.14473186
0.00576673401
0.00638027903
0.0895240836
0.121789251
0.115094436
0.109446175
0.138696809
0.135787989
0.00601773287
0.00621536855
0.139614664
0.147698201
0.00577110417
0.00588990004
0.147194409
0.149965559
0.0058707453
0.00583196082
0.0933056726
0.176172545
0.165773576
0.00539485258
0.00617652396
0.0525005516
0.174750904
0.162629154
0.00644401117
0.119181155
0.184162524
0.0147401493
0.0140967396
0.0172984733
0.0191571162
0.147075417
0.154134418
0.0296502552
0.0322269207
0.0352100834
0.039032963
0.0414929938
0.0453952376
0.0477135364
0.0503717649
0.0513196093
0.0503428294
0.0453595459
0.037462511
0.0393532864
0.0420052725
0.0449959888
0.0487404917
0.0531873581
0.0580427883
0.0644674148
0.0665056604
0.0549638253
0.0514413026
0.053430466
0.0542495877
0.0790720105
0.0958483558
0.146865104
0.059707172
0.326382598
0.221050282
0.324203307
0.153934
0.170340882
0.147453583
0.0873405611
0.183027538
0.32283945
0.767190668
1.01790529
1.12011745
1.19717585
1.21421386
1.26286508
1.58280319
2.0983308
2.69772525
3.40537643
4.19035181
5.31831096
6.17217495
7.15479878
7.58276129
8.21084779
8.54352551
8.92439551
9.28090668
9.53422922
10.7139131
10.6426641
11.2014996
11.2227121
16.7025646
12.618989
9.35074939
11.7542925
29.626917
13.9574199
3.10533367
8.91221625
35.8724076
9.27172491
0.00310919382
7.71306359
27.4179133
5.20861079
1.27086641e-08
5.57663421
22.4207559
3.76596507
1.52947633e-08
2.42305761
13.497082
4.13204065
1.66442975e-08
0.14960598
8.6635296
2.70857721
1.83777244e-08
2.10821803e-08
5.79924465
1.87038842
2.09262223e-08
2.28685518e-08
3.58229375
1.4067107
2.30548229e-08
2.45886558e-08
2.55861142
1.19351125
2.62769964e-08
2.59735014e-08
1.50561014
1.16393985
0.33311509
2.72908655e-08
0.125133958
1.05210956
0.585567884
2.83856564e-08
2.87127995e-08
0.918759312
0.505513739
2.94344047e-08
2.98098324e-08
0.820917714
0.409283634
3.05369987e-08
3.10521367e-08
0.717023251
0.346952643
3.17387485e-08
3.22631045e-08
0.613979275
0.306066407
3.29733177e-08
3.35173897e-08
0.519934201
)
;

boundaryField
{
    closed
    {
        type            calculated;
        value           nonuniform List<scalar> 0();
    }
    open
    {
        type            calculated;
        value           nonuniform List<scalar> 0();
    }
    sides
    {
        type            empty;
    }
    procBoundary4to3
    {
        type            processor;
        value           uniform 0;
    }
    procBoundary4to5
    {
        type            processor;
        value           uniform 0;
    }
}


// ************************************************************************* //
