/*--------------------------------*- C++ -*----------------------------------*\
| =========                 |                                                 |
| \\      /  F ield         | OpenFOAM: The Open Source CFD Toolbox           |
|  \\    /   O peration     | Version:  2306                                  |
|   \\  /    A nd           | Website:  www.openfoam.com                      |
|    \\/     M anipulation  |                                                 |
\*---------------------------------------------------------------------------*/
FoamFile
{
    version     2.0;
    format      ascii;
    arch        "LSB;label=32;scalar=64";
    class       volScalarField;
    location    "0.00184";
    object      alpha;
}
// * * * * * * * * * * * * * * * * * * * * * * * * * * * * * * * * * * * * * //

dimensions      [1 -1 -1 0 0 0 0];

internalField   nonuniform List<scalar> 
531
(
3.57425066e-05
3.52259217e-05
3.52566845e-05
3.47350839e-05
3.47527468e-05
3.6574144e-05
3.68183725e-05
3.67767419e-05
3.68227059e-05
3.68069684e-05
3.57074205e-05
3.51241037e-05
3.67381863e-05
3.68036357e-05
3.5724923e-05
3.47140458e-05
3.47340894e-05
3.66382795e-05
3.68113093e-05
3.67775539e-05
3.68133054e-05
3.6808354e-05
3.57490056e-05
3.53986882e-05
3.51096764e-05
3.51144094e-05
3.67160224e-05
3.68089353e-05
3.54994166e-05
3.51648847e-05
3.67043784e-05
3.68102142e-05
3.5413072e-05
3.51768978e-05
3.67004527e-05
3.68121684e-05
3.68059259e-05
3.56669091e-05
3.51161957e-05
3.6740092e-05
3.68042834e-05
3.67746985e-05
3.68066885e-05
3.57932174e-05
3.53522117e-05
3.52970217e-05
3.51510839e-05
3.46320273e-05
3.46440352e-05
3.67224605e-05
3.68167891e-05
3.6779134e-05
3.68248148e-05
3.68042172e-05
3.57119651e-05
3.51774539e-05
3.51822928e-05
3.67551159e-05
3.68239779e-05
3.57717178e-05
3.54546429e-05
3.67698841e-05
3.68109813e-05
3.5764931e-05
3.55151886e-05
3.52650524e-05
3.52661277e-05
3.67837009e-05
3.68080949e-05
3.67987527e-05
3.5742843e-05
3.51836325e-05
3.52788746e-05
3.47521097e-05
3.4769141e-05
3.67606511e-05
3.68214074e-05
3.67793004e-05
3.68245218e-05
3.55687138e-05
3.53791918e-05
3.67889276e-05
3.68091404e-05
3.68010171e-05
3.57339588e-05
3.51003589e-05
3.51040511e-05
3.67804833e-05
3.68039924e-05
3.57385557e-05
3.49784636e-05
3.4985936e-05
3.67775342e-05
3.68061455e-05
3.54183683e-05
3.51256966e-05
3.67899402e-05
3.67991231e-05
3.6794936e-05
3.67956282e-05
3.57418528e-05
3.49058145e-05
3.52268546e-05
3.67923358e-05
3.57257528e-05
3.48081621e-05
3.67996014e-05
3.67796818e-05
3.56093882e-05
3.4685775e-05
3.47029835e-05
3.67818275e-05
3.68039944e-05
3.67911177e-05
3.68048867e-05
3.56612387e-05
3.50709393e-05
3.68017875e-05
3.67891016e-05
3.56272223e-05
3.48175194e-05
3.48348604e-05
3.67795922e-05
3.68200133e-05
3.52422727e-05
3.51630963e-05
3.67937114e-05
3.68131952e-05
3.67981553e-05
3.68133846e-05
3.6802296e-05
3.57270107e-05
3.54176167e-05
3.52312369e-05
3.51932214e-05
3.6808235e-05
3.67912215e-05
3.57192899e-05
3.4861389e-05
3.52520847e-05
3.67830493e-05
3.5719166e-05
3.48042756e-05
3.67965651e-05
3.67736406e-05
3.55130284e-05
3.44638765e-05
3.45766108e-05
3.67658737e-05
3.68070252e-05
3.67805926e-05
3.68085924e-05
3.67832849e-05
3.68110708e-05
3.54236617e-05
3.52492519e-05
3.67936784e-05
3.67966284e-05
3.68053645e-05
3.57346923e-05
3.50707223e-05
3.49618909e-05
3.49579757e-05
3.67968993e-05
3.67949248e-05
3.5273986e-05
3.50215259e-05
3.67964666e-05
3.67947027e-05
3.55637726e-05
3.47444229e-05
3.48918299e-05
3.6789329e-05
3.6810884e-05
3.67976904e-05
3.68084158e-05
3.67998544e-05
3.57577376e-05
3.54882009e-05
3.52623919e-05
3.52431824e-05
3.68159376e-05
3.68140166e-05
3.55401355e-05
3.47554659e-05
3.48291339e-05
3.68147505e-05
3.68270261e-05
3.68200424e-05
3.6828851e-05
3.5701754e-05
3.53463238e-05
3.68197793e-05
3.6815388e-05
3.5718058e-05
3.53365757e-05
3.5083564e-05
3.5093013e-05
3.68352369e-05
3.68124111e-05
3.68243818e-05
3.68133455e-05
3.58459913e-05
3.54862161e-05
3.53044001e-05
3.5298927e-05
3.68204639e-05
3.68242901e-05
3.56682345e-05
3.53040738e-05
3.5086522e-05
3.50870088e-05
3.68321483e-05
3.68266858e-05
3.52430068e-05
3.52001808e-05
3.68325224e-05
3.68274126e-05
3.5228929e-05
3.53035376e-05
3.68475282e-05
3.681807e-05
3.68274011e-05
3.55680074e-05
3.52650609e-05
3.6858957e-05
3.68087404e-05
3.56888792e-05
3.50927465e-05
3.52256643e-05
3.68227096e-05
3.68330291e-05
3.55666547e-05
3.54500931e-05
3.68398412e-05
3.68089403e-05
3.5719834e-05
3.5482366e-05
3.52289876e-05
3.53633271e-05
3.68492908e-05
3.56522958e-05
3.50246708e-05
3.68387216e-05
3.68130068e-05
3.52939348e-05
3.52247071e-05
3.68427354e-05
3.68115691e-05
3.51405123e-05
3.52962297e-05
3.68538529e-05
3.68061026e-05
3.68343338e-05
3.55160744e-05
3.51604337e-05
3.68483923e-05
3.68084501e-05
3.52197291e-05
3.53686081e-05
3.68503428e-05
3.68068207e-05
3.68224298e-05
3.57294389e-05
3.50913607e-05
3.49056225e-05
3.49593942e-05
3.68538613e-05
3.67990216e-05
3.68306536e-05
3.53072881e-05
3.50598086e-05
3.68582505e-05
3.68002752e-05
3.68394223e-05
3.67967417e-05
3.58521168e-05
3.54007251e-05
3.54499897e-05
3.51946868e-05
3.51732912e-05
3.47079603e-05
3.48457265e-05
3.68386653e-05
3.68166643e-05
3.68188364e-05
3.68126506e-05
3.67968949e-05
3.5628687e-05
3.53986063e-05
3.68592503e-05
3.67993354e-05
3.57074696e-05
3.50985027e-05
3.52764395e-05
3.68301523e-05
3.68170405e-05
3.68069384e-05
3.57441004e-05
3.53535606e-05
3.52932762e-05
3.51269926e-05
3.45797374e-05
3.46867217e-05
3.68410909e-05
3.68246219e-05
3.68157594e-05
3.68231341e-05
3.67911085e-05
3.56280771e-05
3.49301741e-05
3.50500284e-05
3.68293008e-05
3.68311023e-05
3.52915816e-05
3.5335216e-05
3.68598232e-05
3.6827453e-05
3.68297918e-05
3.55431626e-05
3.52536713e-05
3.68830654e-05
3.68246664e-05
3.56715553e-05
3.49936909e-05
3.51709281e-05
3.68648093e-05
3.68631277e-05
3.68509078e-05
3.56692738e-05
3.51060022e-05
3.51705606e-05
3.69103402e-05
3.68976271e-05
3.56291186e-05
3.50069975e-05
3.50710608e-05
3.69530721e-05
3.6948919e-05
3.54006669e-05
3.51468352e-05
3.7020048e-05
3.70006377e-05
3.55179989e-05
3.48804915e-05
3.49292207e-05
3.71045618e-05
3.70956261e-05
3.51762009e-05
3.4870118e-05
3.71313281e-05
3.71170401e-05
3.5232876e-05
3.43853636e-05
3.45685731e-05
3.69554269e-05
3.69780433e-05
3.68958933e-05
3.69394081e-05
3.67921707e-05
3.68929787e-05
3.66295989e-05
3.45782758e-05
3.65427027e-05
3.67690019e-05
3.66079401e-05
3.67195427e-05
3.66322055e-05
3.66852559e-05
3.66305817e-05
3.66622701e-05
3.66261912e-05
3.66557957e-05
3.66407499e-05
3.66848313e-05
3.67112515e-05
3.68015399e-05
3.69423996e-05
3.72346485e-05
3.71318205e-05
3.69427229e-05
3.67469002e-05
3.65735165e-05
3.64005917e-05
3.62531452e-05
3.61053743e-05
3.59929313e-05
3.58757862e-05
3.57498299e-05
3.55811006e-05
3.55210114e-05
3.55135108e-05
3.54040889e-05
3.52319348e-05
3.51498678e-05
3.50008758e-05
3.49479599e-05
3.48234087e-05
3.4693393e-05
3.4354926e-05
3.41306906e-05
3.38023718e-05
3.35530552e-05
3.35939221e-05
3.59233038e-05
3.55379406e-05
3.51356461e-05
3.4643515e-05
3.42257848e-05
3.37199912e-05
3.32778933e-05
3.27605657e-05
3.22860264e-05
3.17475993e-05
3.13565572e-05
3.12685856e-05
3.20990541e-05
3.15108022e-05
3.10208246e-05
3.10662534e-05
3.27049025e-05
3.42454135e-05
3.42765253e-05
3.52747081e-05
3.53076998e-05
4.10375006e-05
4.13924209e-05
4.26408451e-05
4.34660115e-05
4.48425313e-05
4.64411961e-05
4.85400013e-05
5.0782964e-05
5.45324413e-05
5.65625275e-05
5.82395506e-05
5.96304229e-05
6.1498913e-05
6.29418657e-05
6.42835818e-05
6.52238023e-05
6.64185253e-05
6.72393171e-05
6.83485978e-05
6.91685892e-05
7.02133611e-05
7.09401285e-05
7.17925254e-05
7.22666017e-05
7.29222469e-05
7.33481895e-05
7.39508963e-05
7.43375559e-05
7.49046302e-05
7.52613168e-05
7.57951642e-05
7.61017173e-05
7.6575676e-05
7.68303214e-05
7.72624121e-05
7.74772445e-05
7.78812646e-05
7.80812243e-05
7.84568249e-05
7.86511236e-05
7.90218589e-05
7.92398567e-05
7.96371113e-05
7.97790029e-05
8.00041774e-05
8.01269746e-05
8.03250019e-05
8.04376583e-05
8.06133643e-05
8.07131431e-05
8.08673193e-05
8.0982125e-05
8.11622013e-05
8.12821749e-05
8.14622744e-05
8.15806057e-05
8.1744305e-05
8.18517892e-05
8.19941191e-05
8.20902474e-05
8.22169714e-05
8.23068751e-05
8.24230838e-05
8.25093463e-05
8.26185911e-05
8.27024061e-05
8.27976313e-05
8.28708608e-05
8.29601638e-05
8.30308691e-05
8.31210144e-05
8.3212013e-05
8.33126098e-05
8.33960639e-05
8.34864041e-05
8.35628862e-05
8.36450028e-05
8.37141656e-05
8.37818633e-05
8.38411664e-05
8.39054182e-05
8.39624802e-05
8.40236559e-05
8.40787045e-05
8.41371671e-05
8.41907385e-05
8.42472782e-05
8.42998181e-05
8.43547069e-05
8.44063333e-05
8.44597458e-05
8.4510579e-05
8.45626866e-05
8.46128492e-05
8.46594465e-05
8.47033589e-05
8.47490985e-05
8.47951373e-05
8.48401777e-05
8.48846625e-05
8.49277788e-05
8.49708205e-05
8.50121771e-05
8.5053879e-05
8.50936329e-05
8.51340922e-05
)
;

boundaryField
{
    closed
    {
        type            calculated;
        value           nonuniform List<scalar> 0();
    }
    open
    {
        type            calculated;
        value           nonuniform List<scalar> 0();
    }
    sides
    {
        type            empty;
    }
    procBoundary4to3
    {
        type            processor;
        value           uniform 3.67973109e-05;
    }
    procBoundary4to5
    {
        type            processor;
        value           uniform 8.51721884e-05;
    }
}


// ************************************************************************* //
