/*--------------------------------*- C++ -*----------------------------------*\
| =========                 |                                                 |
| \\      /  F ield         | OpenFOAM: The Open Source CFD Toolbox           |
|  \\    /   O peration     | Version:  2306                                  |
|   \\  /    A nd           | Website:  www.openfoam.com                      |
|    \\/     M anipulation  |                                                 |
\*---------------------------------------------------------------------------*/
FoamFile
{
    version     2.0;
    format      ascii;
    arch        "LSB;label=32;scalar=64";
    class       volScalarField;
    location    "0.00184";
    object      H2;
}
// * * * * * * * * * * * * * * * * * * * * * * * * * * * * * * * * * * * * * //

dimensions      [0 0 0 0 0 0 0];

internalField   nonuniform List<scalar> 
531
(
0.0107360575
0.0106632329
0.0106620556
0.0106315397
0.010626839
0.0110377304
0.0110209766
0.0110369639
0.0110119408
0.0110139999
0.0106933116
0.0106551223
0.0110769942
0.0110235873
0.0107085674
0.0106308036
0.0106260831
0.0110561245
0.0110176537
0.0110305175
0.0110070523
0.0110077279
0.010733903
0.0106745606
0.010657746
0.010654379
0.0110772468
0.0110161715
0.0106851362
0.0106573665
0.0110738481
0.0110153682
0.0106787077
0.0106577587
0.0110718923
0.0110096709
0.0110177483
0.0106926286
0.0106546965
0.0110782381
0.0110161619
0.0110225685
0.0110120712
0.0107682539
0.010670987
0.0106663066
0.0106566491
0.0106229282
0.0106204056
0.0110776257
0.0110187391
0.0110348775
0.0110071677
0.0110098582
0.010712771
0.0106627988
0.0106561419
0.0110486604
0.0110084684
0.01070784
0.010677018
0.0110436076
0.0110052751
0.0107331711
0.0106823972
0.0106670353
0.0106645755
0.0110489654
0.0110028313
0.0110101064
0.0107297464
0.0106610415
0.0106640516
0.0106326356
0.0106281819
0.0110652948
0.0110186248
0.0110282701
0.011012758
0.0106871424
0.0106715286
0.0110497648
0.0110014679
0.0110144291
0.0107159697
0.0106562436
0.010652898
0.0110366092
0.0110180215
0.0107030542
0.0106484924
0.010645113
0.0110392779
0.0110168754
0.0106776603
0.0106559891
0.0110474053
0.0110166941
0.0110173884
0.0110173735
0.0107233259
0.010643516
0.0106610033
0.0110403428
0.010700493
0.0106374026
0.011031538
0.0110269442
0.0106882471
0.0106292007
0.0106254561
0.011039839
0.0110234581
0.0110191418
0.0110207587
0.0106925625
0.0106537343
0.0110282303
0.0110219
0.010688462
0.0106378776
0.010633045
0.0110349099
0.0110162912
0.0106657926
0.0106562834
0.0110468524
0.0110079459
0.0110247826
0.0110019609
0.0110060844
0.0107065379
0.0106782321
0.010661584
0.0106619789
0.0110288321
0.0110209847
0.0107004843
0.0106417731
0.0106621053
0.0110391816
0.0106986894
0.0106381456
0.0110268629
0.0110268268
0.0106813486
0.0106149456
0.0106163918
0.0110480181
0.011026102
0.0110337444
0.0110226824
0.0110218679
0.0110176298
0.0106775404
0.0106642251
0.0110398831
0.0110053563
0.011023513
0.010698308
0.010654421
0.0106438167
0.0106452792
0.0110395308
0.0110208044
0.0106646219
0.0106503269
0.0110301444
0.0110233698
0.0106843794
0.0106319568
0.0106378908
0.0110351363
0.0110123449
0.0110204835
0.011003222
0.0110065545
0.0107401576
0.0106823463
0.0106634018
0.0106637682
0.0110257471
0.0110190557
0.010681057
0.010629832
0.0106318444
0.0110289494
0.0110178164
0.0110124357
0.0110136573
0.0106931065
0.0106698747
0.0110132265
0.0110089025
0.0106963414
0.0106704034
0.0106505636
0.0106524769
0.0110244041
0.0110119549
0.0110119139
0.0110075793
0.0107973989
0.0106790179
0.0106672604
0.0106652909
0.0110142808
0.0110093272
0.010692007
0.0106670723
0.0106515607
0.0106508062
0.0110202131
0.0110127912
0.0106616567
0.0106583139
0.0110207566
0.0110102357
0.0106601133
0.0106657607
0.0110191999
0.0110034922
0.0110163558
0.0106821442
0.0106657085
0.0110025882
0.0110134104
0.0106936376
0.0106541047
0.01065762
0.0110125589
0.0110073348
0.0106843176
0.0106768874
0.0110030061
0.0110058401
0.0107046437
0.0106809645
0.0106605528
0.0106715439
0.0110182352
0.0106909454
0.0106473362
0.0110080728
0.0110147543
0.0106646091
0.0106618669
0.0110146914
0.0110124395
0.0106541361
0.0106661893
0.0110211457
0.0110057042
0.0110217397
0.0106807626
0.0106577394
0.0110083921
0.011013694
0.0106590634
0.010671197
0.0110188322
0.0110012387
0.011022307
0.0106999832
0.0106547303
0.0106372981
0.0106440197
0.011025049
0.0110149193
0.0110254779
0.0106670664
0.0106508764
0.0110149624
0.0110146576
0.0110112068
0.0110117514
0.0108028168
0.0106755948
0.0106774603
0.0106611605
0.0106580014
0.0106258748
0.0106336739
0.0110276462
0.0110148544
0.0110243629
0.0110063477
0.0110176654
0.010687988
0.0106758356
0.010998152
0.0110150167
0.0107096303
0.0106541487
0.0106618449
0.0110139488
0.0110012354
0.0110138655
0.0107256181
0.0106721787
0.0106662479
0.0106552787
0.0106157824
0.0106222164
0.011032216
0.011016944
0.0110308705
0.0110064607
0.0110266624
0.0106873879
0.0106435147
0.0106453445
0.011015226
0.0110144469
0.0106652979
0.0106663401
0.0110169365
0.0110021223
0.0110172348
0.0106796897
0.0106626081
0.0109989667
0.0110155285
0.0106958731
0.0106435185
0.0106501737
0.0110139014
0.0109985559
0.0110128028
0.0107031358
0.0106466822
0.0106480572
0.0110007941
0.0110068933
0.0106989153
0.0106339588
0.0106357001
0.010998683
0.0109993681
0.0106547994
0.0106367962
0.0109875855
0.0109946434
0.0106881324
0.0106085053
0.0106100593
0.0109840828
0.0109859135
0.0106170882
0.0105966693
0.0109613756
0.010979718
0.0106325514
0.0105512366
0.0105479658
0.0109776233
0.0109197292
0.0109732925
0.0108930753
0.0109608964
0.0108633521
0.01093671
0.0105162634
0.0108981796
0.0107924511
0.0108436947
0.0107527356
0.010780923
0.0107102563
0.0107181409
0.010664964
0.010658412
0.0106176519
0.0106021244
0.0105700278
0.0105504441
0.0105264366
0.0105108927
0.0105073926
0.0104768471
0.0104399622
0.0103979722
0.0103563824
0.0103098935
0.0102647002
0.0102119388
0.0101649434
0.0101037032
0.0100581751
0.00999665304
0.00996677546
0.00994093244
0.00990448502
0.00982918277
0.00978238543
0.00968625414
0.00962849798
0.00951764142
0.00943719517
0.00929888503
0.00920225884
0.00906532645
0.00895578231
0.00886972879
0.00903294736
0.00888566367
0.00874812321
0.00858290668
0.00843984882
0.0082678779
0.00811621685
0.00793845649
0.00777593636
0.0075909296
0.00742949486
0.00728487119
0.00722825969
0.00703389145
0.00686348069
0.00682007238
0.00649418301
0.00640666143
0.00633889208
0.00605057132
0.00599315331
0.0052821386
0.00521751092
0.00490179092
0.0048186022
0.0045391543
0.00441948002
0.00415135458
0.00400177664
0.00365803166
0.00351336178
0.00328779638
0.0031609012
0.00291266761
0.00276196513
0.00255919374
0.00244359868
0.00225410073
0.00214147249
0.00195792009
0.00183619847
0.00165939662
0.00154658442
0.00139973192
0.00132212449
0.00120881178
0.00114048043
0.00104306799
0.000984365366
0.000902164691
0.000853253746
0.000786521527
0.000747220416
0.000692203882
0.000659597605
0.000612828216
0.000586237208
0.00054660855
0.000523873552
0.000490675119
0.000471335727
0.000442979592
0.000424622864
0.00039873791
0.000387554642
0.000373276526
0.000364236413
0.000352901158
0.000345290477
0.000335959128
0.000329408152
0.000321632649
0.000314995651
0.000306925921
0.000300340521
0.000292421061
0.000286587612
0.000280124498
0.000274987723
0.000269362109
0.000264778766
0.00025977216
0.000255533802
0.00025088391
0.000246843092
0.000242508802
0.000238676221
0.000234638748
0.00023101453
0.000227225396
0.000223776103
0.000220054176
0.000216030283
0.000212004011
0.000208314723
0.00020469221
0.000201322077
0.000198035223
0.000194939799
0.000191924142
0.000189015888
0.000186182006
0.00018342952
0.000180760878
0.000178154399
0.000175590174
0.000172892496
0.000170276266
0.000167684934
0.00016517512
0.000162685703
0.000160275407
0.000157883487
0.000155566406
0.000153267535
0.00015103894
0.000148829449
0.000146627961
0.000144390716
0.000142244862
0.00014012011
0.00013807612
0.000136057708
0.000134109055
0.000132191063
0.00013033177
0.000128508502
)
;

boundaryField
{
    closed
    {
        type            calculated;
        value           nonuniform List<scalar> 0();
    }
    open
    {
        type            calculated;
        value           nonuniform List<scalar> 0();
    }
    sides
    {
        type            empty;
    }
    procBoundary4to3
    {
        type            processor;
        value           uniform 0.0110068884;
    }
    procBoundary4to5
    {
        type            processor;
        value           uniform 0.000126731955;
    }
}


// ************************************************************************* //
