/*--------------------------------*- C++ -*----------------------------------*\
| =========                 |                                                 |
| \\      /  F ield         | OpenFOAM: The Open Source CFD Toolbox           |
|  \\    /   O peration     | Version:  2306                                  |
|   \\  /    A nd           | Website:  www.openfoam.com                      |
|    \\/     M anipulation  |                                                 |
\*---------------------------------------------------------------------------*/
FoamFile
{
    version     2.0;
    format      ascii;
    arch        "LSB;label=32;scalar=64";
    class       volScalarField;
    location    "0.00184";
    object      prefDPV_H2O;
}
// * * * * * * * * * * * * * * * * * * * * * * * * * * * * * * * * * * * * * //

dimensions      [1 -1 -1 0 0 0 0];

internalField   nonuniform List<scalar> 
531
(
-3.69186805e-07
-3.6467466e-07
-3.647036e-07
-3.62721629e-07
-3.62595012e-07
-3.84970177e-07
-3.8450246e-07
-3.85190841e-07
-3.84113923e-07
-3.8420304e-07
-3.66612679e-07
-3.64217589e-07
-3.86915411e-07
-3.84615155e-07
-3.67532114e-07
-3.62660246e-07
-3.62535958e-07
-3.85880484e-07
-3.84359864e-07
-3.84913509e-07
-3.83904469e-07
-3.839337e-07
-3.69027377e-07
-3.65379142e-07
-3.64270957e-07
-3.64174979e-07
-3.86911619e-07
-3.84296258e-07
-3.65906584e-07
-3.64369748e-07
-3.86742721e-07
-3.84261697e-07
-3.65531889e-07
-3.64406455e-07
-3.8663593e-07
-3.8401693e-07
-3.84364108e-07
-3.66497674e-07
-3.64188444e-07
-3.86969284e-07
-3.84296004e-07
-3.84571867e-07
-3.84120225e-07
-3.71012191e-07
-3.65173512e-07
-3.64916437e-07
-3.64319483e-07
-3.62250305e-07
-3.62184394e-07
-3.86912605e-07
-3.84406318e-07
-3.85101064e-07
-3.83908824e-07
-3.84025315e-07
-3.67843937e-07
-3.64562965e-07
-3.64368404e-07
-3.85694057e-07
-3.83964718e-07
-3.67310825e-07
-3.65573751e-07
-3.85476782e-07
-3.83828319e-07
-3.68921527e-07
-3.65863136e-07
-3.64871111e-07
-3.64799138e-07
-3.85707846e-07
-3.83723625e-07
-3.84036181e-07
-3.68790352e-07
-3.64521015e-07
-3.64810514e-07
-3.62788424e-07
-3.62669613e-07
-3.86411517e-07
-3.84401229e-07
-3.84816866e-07
-3.84148943e-07
-3.66118426e-07
-3.65248029e-07
-3.85742381e-07
-3.83665097e-07
-3.84221686e-07
-3.67961406e-07
-3.64205392e-07
-3.64108072e-07
-3.8517559e-07
-3.84375911e-07
-3.67135924e-07
-3.63723714e-07
-3.63629378e-07
-3.85290451e-07
-3.84326595e-07
-3.65512547e-07
-3.64247728e-07
-3.85640671e-07
-3.84319028e-07
-3.84348971e-07
-3.84348312e-07
-3.68392135e-07
-3.6342649e-07
-3.64608953e-07
-3.8533637e-07
-3.67023753e-07
-3.63047522e-07
-3.84957245e-07
-3.84759861e-07
-3.66242729e-07
-3.62557152e-07
-3.62459361e-07
-3.85314637e-07
-3.84609595e-07
-3.84424389e-07
-3.84493519e-07
-3.66482544e-07
-3.64068629e-07
-3.84814888e-07
-3.84542939e-07
-3.66290326e-07
-3.63080035e-07
-3.62951546e-07
-3.85102459e-07
-3.84300973e-07
-3.64786333e-07
-3.64332854e-07
-3.85616874e-07
-3.8394283e-07
-3.84666674e-07
-3.83686011e-07
-3.83863451e-07
-3.67397271e-07
-3.65527677e-07
-3.64635684e-07
-3.64569337e-07
-3.84840658e-07
-3.84503568e-07
-3.67047478e-07
-3.63288247e-07
-3.64695315e-07
-3.85286339e-07
-3.66935639e-07
-3.63065591e-07
-3.84756162e-07
-3.84754854e-07
-3.65828529e-07
-3.61696642e-07
-3.61930608e-07
-3.85666678e-07
-3.84723227e-07
-3.85052314e-07
-3.84576121e-07
-3.84541658e-07
-3.84358844e-07
-3.65520535e-07
-3.64753183e-07
-3.85316569e-07
-3.83832464e-07
-3.84611918e-07
-3.66853489e-07
-3.64089941e-07
-3.63541522e-07
-3.6358119e-07
-3.85301392e-07
-3.84495736e-07
-3.64817143e-07
-3.63864592e-07
-3.8489732e-07
-3.84606003e-07
-3.66029704e-07
-3.62752033e-07
-3.63216705e-07
-3.85112195e-07
-3.84131808e-07
-3.84481882e-07
-3.83740367e-07
-3.83883724e-07
-3.693861e-07
-3.65801414e-07
-3.64756028e-07
-3.64726704e-07
-3.84707731e-07
-3.84420026e-07
-3.65882458e-07
-3.62699975e-07
-3.62901472e-07
-3.84845561e-07
-3.84366238e-07
-3.84135308e-07
-3.84187376e-07
-3.66593532e-07
-3.6512801e-07
-3.84169292e-07
-3.83983791e-07
-3.66792889e-07
-3.6512268e-07
-3.63994148e-07
-3.64072782e-07
-3.84649286e-07
-3.84114992e-07
-3.84112686e-07
-3.83927087e-07
-3.72639459e-07
-3.65701763e-07
-3.64960579e-07
-3.64890336e-07
-3.8421456e-07
-3.84001581e-07
-3.66483859e-07
-3.64954283e-07
-3.64031181e-07
-3.64008643e-07
-3.84469087e-07
-3.84150264e-07
-3.64662633e-07
-3.64471709e-07
-3.84492449e-07
-3.84040439e-07
-3.64586475e-07
-3.64914179e-07
-3.84424769e-07
-3.83751442e-07
-3.84303428e-07
-3.65977577e-07
-3.64831008e-07
-3.83709897e-07
-3.84177655e-07
-3.6673327e-07
-3.64123181e-07
-3.64504751e-07
-3.84140475e-07
-3.83915531e-07
-3.66034636e-07
-3.65559848e-07
-3.83729232e-07
-3.83852658e-07
-3.67305705e-07
-3.65748759e-07
-3.64599837e-07
-3.65213923e-07
-3.84383169e-07
-3.6641729e-07
-3.63775628e-07
-3.83946889e-07
-3.84235215e-07
-3.64859379e-07
-3.64630619e-07
-3.84231104e-07
-3.8413584e-07
-3.64220518e-07
-3.64911255e-07
-3.84508179e-07
-3.83846965e-07
-3.84534667e-07
-3.65818902e-07
-3.64372127e-07
-3.83959996e-07
-3.84189846e-07
-3.64535435e-07
-3.65215213e-07
-3.84408803e-07
-3.83655394e-07
-3.84559536e-07
-3.66978017e-07
-3.64140091e-07
-3.63223743e-07
-3.63543272e-07
-3.84676231e-07
-3.84242806e-07
-3.84695675e-07
-3.64960973e-07
-3.63956587e-07
-3.84241852e-07
-3.84231523e-07
-3.84081502e-07
-3.84106864e-07
-3.72956226e-07
-3.65413828e-07
-3.65576094e-07
-3.64547173e-07
-3.64406466e-07
-3.62482309e-07
-3.62992463e-07
-3.84788727e-07
-3.84239369e-07
-3.84648093e-07
-3.8387426e-07
-3.84360817e-07
-3.66280802e-07
-3.65416303e-07
-3.83519378e-07
-3.84246976e-07
-3.67664259e-07
-3.64135985e-07
-3.64739727e-07
-3.8419984e-07
-3.83654682e-07
-3.84197271e-07
-3.68527163e-07
-3.65211624e-07
-3.64906706e-07
-3.64228269e-07
-3.61914839e-07
-3.62321046e-07
-3.84985473e-07
-3.84328839e-07
-3.84928233e-07
-3.83878561e-07
-3.84747622e-07
-3.66262978e-07
-3.63471651e-07
-3.63763848e-07
-3.84254775e-07
-3.84221203e-07
-3.64874789e-07
-3.65000071e-07
-3.84326688e-07
-3.83692104e-07
-3.8434111e-07
-3.65851558e-07
-3.64713758e-07
-3.83552256e-07
-3.8426799e-07
-3.66938248e-07
-3.63593797e-07
-3.64164504e-07
-3.84195788e-07
-3.83536394e-07
-3.84149427e-07
-3.67401417e-07
-3.63920773e-07
-3.64100693e-07
-3.83628091e-07
-3.83891696e-07
-3.67288296e-07
-3.63323402e-07
-3.63514654e-07
-3.83532297e-07
-3.83562314e-07
-3.64829285e-07
-3.63718312e-07
-3.83044454e-07
-3.83351651e-07
-3.6703164e-07
-3.62277275e-07
-3.62436323e-07
-3.82877361e-07
-3.82958221e-07
-3.63256082e-07
-3.61908759e-07
-3.81874747e-07
-3.82674435e-07
-3.64623341e-07
-3.593937e-07
-3.59761572e-07
-3.82565089e-07
-3.80043047e-07
-3.82367833e-07
-3.78877567e-07
-3.81810788e-07
-3.7757858e-07
-3.80726501e-07
-3.59796951e-07
-3.79030269e-07
-3.74482942e-07
-3.76674703e-07
-3.72756014e-07
-3.73957459e-07
-3.70916885e-07
-3.71244651e-07
-3.68965602e-07
-3.68676018e-07
-3.66941913e-07
-3.66277145e-07
-3.64931858e-07
-3.64118171e-07
-3.63154937e-07
-3.62586839e-07
-3.62639132e-07
-3.61611776e-07
-3.60252982e-07
-3.5867641e-07
-3.57083022e-07
-3.55269914e-07
-3.53475594e-07
-3.51343423e-07
-3.49414977e-07
-3.46856982e-07
-3.44951561e-07
-3.42449136e-07
-3.41353714e-07
-3.40916445e-07
-3.39572965e-07
-3.36641918e-07
-3.34753505e-07
-3.30781457e-07
-3.28336839e-07
-3.23610945e-07
-3.20201762e-07
-3.14457965e-07
-3.10442086e-07
-3.04785972e-07
-3.00248835e-07
-2.97024199e-07
-3.06330332e-07
-3.00396719e-07
-2.94748183e-07
-2.88024633e-07
-2.82155277e-07
-2.75161114e-07
-2.68944692e-07
-2.61705606e-07
-2.55039518e-07
-2.47483456e-07
-2.40927069e-07
-2.35428614e-07
-2.33580192e-07
-2.26020965e-07
-2.19945561e-07
-2.22636993e-07
-1.91157695e-07
-1.80530661e-07
-1.80446069e-07
-1.55035512e-07
-1.53364647e-07
-6.3133437e-08
-5.71960132e-08
-2.67849127e-08
-1.38971367e-08
1.92277401e-08
4.53882986e-08
9.16896987e-08
1.33238472e-07
2.20738035e-07
2.68166233e-07
3.20882895e-07
3.58466651e-07
4.16726229e-07
4.55301471e-07
4.95644121e-07
5.19189867e-07
5.53987732e-07
5.75305302e-07
6.07759015e-07
6.29379684e-07
6.59766151e-07
6.79314128e-07
7.04346353e-07
7.17606361e-07
7.37104564e-07
7.49055648e-07
7.66393245e-07
7.77088251e-07
7.9240194e-07
8.01771324e-07
8.14879455e-07
8.22953057e-07
8.34759366e-07
8.42110456e-07
8.53245734e-07
8.59945974e-07
8.7060491e-07
8.77050721e-07
8.87182129e-07
8.93478569e-07
9.03531175e-07
9.10256107e-07
9.20987035e-07
9.25826485e-07
9.32396715e-07
9.36630205e-07
9.42418713e-07
9.46390807e-07
9.51657833e-07
9.55323408e-07
9.60098766e-07
9.64166912e-07
9.69637606e-07
9.73774002e-07
9.79203432e-07
9.83069834e-07
9.87817559e-07
9.91330607e-07
9.95618256e-07
9.98883238e-07
1.00276259e-06
1.00581356e-06
1.00942356e-06
1.01236293e-06
1.01576369e-06
1.01859768e-06
1.0216895e-06
1.02429872e-06
1.02721507e-06
1.02972725e-06
1.03262668e-06
1.03553698e-06
1.03858394e-06
1.04126041e-06
1.04401782e-06
1.04648347e-06
1.04900393e-06
1.05126357e-06
1.05344997e-06
1.05547417e-06
1.05753727e-06
1.0594672e-06
1.06141986e-06
1.06326322e-06
1.06512293e-06
1.06692301e-06
1.06873358e-06
1.07048215e-06
1.07223228e-06
1.07393234e-06
1.07562686e-06
1.0772815e-06
1.07892497e-06
1.08053738e-06
1.08199762e-06
1.08339679e-06
1.0848145e-06
1.08624411e-06
1.0876293e-06
1.08899715e-06
1.0903194e-06
1.09162934e-06
1.09289337e-06
1.09414905e-06
1.09535925e-06
1.09656413e-06
)
;

boundaryField
{
    closed
    {
        type            calculated;
        value           nonuniform List<scalar> 0();
    }
    open
    {
        type            calculated;
        value           nonuniform List<scalar> 0();
    }
    sides
    {
        type            empty;
    }
    procBoundary4to3
    {
        type            processor;
        value           uniform -3.83898156e-07;
    }
    procBoundary4to5
    {
        type            processor;
        value           uniform 1.09772219e-06;
    }
}


// ************************************************************************* //
