/*--------------------------------*- C++ -*----------------------------------*\
| =========                 |                                                 |
| \\      /  F ield         | OpenFOAM: The Open Source CFD Toolbox           |
|  \\    /   O peration     | Version:  2306                                  |
|   \\  /    A nd           | Website:  www.openfoam.com                      |
|    \\/     M anipulation  |                                                 |
\*---------------------------------------------------------------------------*/
FoamFile
{
    version     2.0;
    format      ascii;
    arch        "LSB;label=32;scalar=64";
    class       volScalarField;
    location    "0.00184";
    object      Z;
}
// * * * * * * * * * * * * * * * * * * * * * * * * * * * * * * * * * * * * * //

dimensions      [0 0 0 0 0 0 0];

internalField   nonuniform List<scalar> 
531
(
0.014596412
0.0148187157
0.0148053349
0.014932411
0.0149200652
0.0141922412
0.0140871484
0.0141071024
0.0140786008
0.0140826132
0.0146981017
0.0148401542
0.0141472159
0.014091523
0.0146612175
0.0149379805
0.0149250133
0.0141731623
0.0140852268
0.0141013647
0.0140755659
0.0140768529
0.0146050084
0.0147774086
0.0148497478
0.0148422453
0.0141538438
0.014084255
0.0147612554
0.0148297504
0.0141574953
0.0140833667
0.0147803786
0.014826177
0.0141613313
0.0140780513
0.014086069
0.0147127871
0.0148421789
0.0141479531
0.0140849017
0.0140947963
0.0140809445
0.014534561
0.014787558
0.0147987437
0.014833356
0.0149528735
0.0149457729
0.0141566177
0.0140854103
0.014104935
0.014074085
0.0140793248
0.0146441687
0.0148350664
0.0148212398
0.0141204775
0.0140753534
0.0146845621
0.0147613325
0.0141138795
0.0140743026
0.0146141162
0.0147495241
0.0148117578
0.0148067157
0.0141164085
0.014072515
0.0140803102
0.0146132107
0.0148297563
0.0148010391
0.0149285764
0.0149166997
0.0141338174
0.0140846626
0.0140991413
0.0140790707
0.0147390955
0.014778577
0.0141163081
0.0140711492
0.0140838302
0.0146456717
0.0148503798
0.014843269
0.0141062404
0.0140865831
0.0146821207
0.0148788785
0.0148708636
0.0141089915
0.0140852686
0.0147763198
0.0148411287
0.01411414
0.0140861012
0.0140873092
0.0140871976
0.0146297489
0.0148951044
0.0148142127
0.0141077195
0.0146830815
0.0149175716
0.0140990383
0.0140979227
0.0147256589
0.0149445856
0.0149340871
0.0141088391
0.0140913587
0.0140894028
0.0140888642
0.0147148882
0.0148562188
0.0140958442
0.014092124
0.0147190912
0.0149152711
0.0149024153
0.0141048955
0.0140828085
0.0148176053
0.0148284127
0.0141131054
0.0140763762
0.0140933544
0.0140710093
0.0140762278
0.0146675654
0.0147777476
0.0148137186
0.0148280599
0.0140954416
0.0140910134
0.0146801466
0.0149069059
0.0148071164
0.0141080895
0.0146848698
0.014919872
0.0140954032
0.0140987026
0.0147481132
0.0149933696
0.0149614546
0.014118286
0.0140932368
0.0141037338
0.0140900247
0.0140929339
0.0140852393
0.0147741036
0.0148121745
0.0141071254
0.0140763648
0.0140912113
0.0146930042
0.0148574546
0.0148769062
0.0148805855
0.0141063482
0.0140903241
0.0148039353
0.0148673745
0.0140982803
0.0140926114
0.0147349848
0.0149300519
0.0148909877
0.0141036597
0.0140806007
0.0140896467
0.0140728207
0.0140769876
0.0145924349
0.0147597059
0.0148058326
0.0148135075
0.0140916573
0.014086078
0.01473693
0.0149235297
0.0149024703
0.0140946107
0.0140831696
0.0140794068
0.0140792644
0.0146999153
0.0147875346
0.0140801414
0.0140769229
0.0146906183
0.0147921854
0.0148463564
0.0148464006
0.0140877687
0.0140800424
0.0140783453
0.0140760294
0.0144820803
0.0147534622
0.0147978861
0.0147960572
0.014080976
0.0140760712
0.0147108384
0.0147976401
0.0148470688
0.0148455721
0.0140845521
0.0140788008
0.0148095759
0.0148188246
0.0140849741
0.0140764453
0.0148117732
0.014795273
0.0140815396
0.0140717372
0.0140818366
0.0147283499
0.0148092566
0.0140654221
0.0140818434
0.014684459
0.0148493271
0.0148081935
0.0140791459
0.0140731104
0.0147337203
0.0147627932
0.0140683488
0.0140750886
0.0146693271
0.0147590367
0.0148125862
0.0147845381
0.0140804575
0.0147147646
0.0148612963
0.0140729882
0.0140824337
0.0147965672
0.0148166103
0.0140782616
0.0140805888
0.014832569
0.014798807
0.0140823601
0.01407536
0.0140855784
0.0147456739
0.014832008
0.0140719591
0.0140821349
0.0148131342
0.0147818732
0.0140808329
0.014071262
0.0140877401
0.0146861284
0.0148508862
0.0148854052
0.0148780795
0.0140857361
0.0140845459
0.0140893435
0.0147964453
0.0148551843
0.0140763827
0.0140841371
0.0140756558
0.0140820566
0.0144708621
0.0147787328
0.0147640257
0.014826054
0.0148279103
0.0149330908
0.0148997781
0.0140900963
0.0140820109
0.0140900403
0.0140750288
0.0140872754
0.0147174324
0.0147800037
0.014061451
0.0140845877
0.0146504539
0.0148474027
0.0147976259
0.0140793411
0.01406986
0.0140824986
0.0146246959
0.0147894137
0.0148000056
0.0148394154
0.014959701
0.014934731
0.0140936929
0.0140827394
0.0140961321
0.0140736875
0.0140960159
0.0147163077
0.0148870617
0.0148489875
0.0140805812
0.0140796478
0.0147987832
0.0147846077
0.0140778884
0.0140692364
0.0140822754
0.0147327033
0.0148074994
0.0140590585
0.0140814899
0.0146706125
0.0148655393
0.0148140722
0.0140745705
0.0140612994
0.0140754922
0.014650327
0.0148313231
0.0148100906
0.014057151
0.0140641135
0.0146433157
0.0148439612
0.0148234245
0.0140499432
0.0140510513
0.0147335953
0.014796428
0.0140323484
0.0140406943
0.0146217931
0.0148434345
0.0148273485
0.0140198999
0.0140224204
0.0147389058
0.0148234018
0.0140046065
0.0140197193
0.0146397798
0.0149305376
0.0148467546
0.0140562742
0.0140133748
0.0140676071
0.0140050113
0.0140843843
0.0139963548
0.0141079582
0.0146515866
0.0141039334
0.013978334
0.0140519022
0.0139630458
0.0140036541
0.0139417251
0.0139606673
0.0139149791
0.013919149
0.0138816381
0.0138736322
0.0138374025
0.0138146731
0.0137704227
0.013717753
0.0136294632
0.0135776331
0.0135472735
0.0135138145
0.0134826078
0.0134492843
0.0134186361
0.0133849375
0.0133564162
0.0133219534
0.0132941154
0.013237134
0.0131797329
0.0130107951
0.0129493609
0.0128499329
0.0127995116
0.0127158908
0.0126714204
0.012601641
0.0125806539
0.0125574708
0.0125536632
0.0125274822
0.0125231592
0.0123964484
0.0117334384
0.0116920784
0.0116904693
0.0116635368
0.0116616207
0.0116371127
0.0116349715
0.011617551
0.0116181802
0.0116096459
0.0115932914
0.011478103
0.0111799327
0.0111693728
0.0111016758
0.0107157713
0.010940439
0.0106471959
0.0104378977
0.0104195967
0.0102417284
0.0111063393
0.0111639676
0.0112281942
0.0113454094
0.011395801
0.0115733059
0.0116696288
0.0118897232
0.0121655022
0.0123858493
0.0124914049
0.0126608391
0.0128249188
0.0130179168
0.0131488175
0.0132786863
0.0134110349
0.0135317698
0.0136715075
0.0138000744
0.0139455343
0.014063335
0.0141860636
0.0142614627
0.0143541855
0.0144187818
0.0145020591
0.0145549813
0.0146274266
0.0146673614
0.0147262988
0.0147547283
0.0148087613
0.0148318459
0.0148850639
0.0149024447
0.0149528975
0.0149688768
0.0150166455
0.0150315121
0.0150778267
0.0150961892
0.0151448722
0.0151530962
0.0151813291
0.0151870268
0.0152108301
0.0152152057
0.0152361489
0.015239559
0.0152582701
0.0152648416
0.0152876731
0.015295978
0.0153192605
0.0153265491
0.0153454528
0.01535179
0.0153686323
0.0153742574
0.0153895522
0.0153950509
0.0154092762
0.0154148691
0.0154284715
0.015434286
0.0154466586
0.0154519554
0.0154637481
0.0154691546
0.0154809833
0.0154885226
0.01550116
0.0155081776
0.0155197237
0.0155262609
0.0155369261
0.0155429302
0.015552134
0.0155573665
0.0155661948
0.0155713764
0.0155798691
0.0155850069
0.0155932113
0.0155983989
0.0156064497
0.0156116934
0.0156195823
0.0156248831
0.0156326262
0.0156379865
0.0156455986
0.0156510217
0.0156580425
0.0156629189
0.0156698693
0.0156751263
0.0156820116
0.0156872082
0.0156938789
0.0156990203
0.0157054909
0.0157105817
0.0157168658
0.0157219103
)
;

boundaryField
{
    closed
    {
        type            zeroGradient;
    }
    open
    {
        type            zeroGradient;
    }
    sides
    {
        type            empty;
    }
    procBoundary4to3
    {
        type            processor;
        value           uniform 0.0140776408;
    }
    procBoundary4to5
    {
        type            processor;
        value           uniform 0.0157279959;
    }
}


// ************************************************************************* //
