/*--------------------------------*- C++ -*----------------------------------*\
| =========                 |                                                 |
| \\      /  F ield         | OpenFOAM: The Open Source CFD Toolbox           |
|  \\    /   O peration     | Version:  2306                                  |
|   \\  /    A nd           | Website:  www.openfoam.com                      |
|    \\/     M anipulation  |                                                 |
\*---------------------------------------------------------------------------*/
FoamFile
{
    version     2.0;
    format      ascii;
    arch        "LSB;label=32;scalar=64";
    class       volScalarField;
    location    "8e-05";
    object      prefDZ_T;
}
// * * * * * * * * * * * * * * * * * * * * * * * * * * * * * * * * * * * * * //

dimensions      [1 -1 -1 -1 0 0 0];

internalField   nonuniform List<scalar> 
530
(
-8.44596788e-11
-8.32041054e-11
-8.32343161e-11
-8.88772112e-11
-8.53953113e-11
-8.3768665e-11
-8.37916826e-11
-8.83443097e-11
-8.60969316e-11
-8.43309938e-11
-8.43587421e-11
-8.78933555e-11
-8.63858547e-11
-8.48143047e-11
-8.488108e-11
-8.81243358e-11
-8.6718862e-11
-8.52688474e-11
-8.53497182e-11
-8.82253496e-11
-8.69849038e-11
-8.56874615e-11
-8.57788975e-11
-8.82963409e-11
-8.71314676e-11
-8.60759919e-11
-8.61730587e-11
-8.82902479e-11
-8.7250716e-11
-8.64376468e-11
-8.65270049e-11
-8.82884127e-11
-8.73742042e-11
-8.67603866e-11
-8.68366742e-11
-8.8265219e-11
-8.75726791e-11
-8.70367326e-11
-8.71027445e-11
-8.82435853e-11
-8.7740815e-11
-8.72723291e-11
-8.73195514e-11
-8.8231278e-11
-8.78856424e-11
-8.74719003e-11
-8.75056592e-11
-8.82598181e-11
-8.80408987e-11
-8.76378264e-11
-8.76665221e-11
-8.81974021e-11
-8.81469636e-11
-8.77744861e-11
-8.77963473e-11
-8.81904381e-11
-8.81940306e-11
-8.78894773e-11
-8.79054019e-11
-8.81811061e-11
-8.82123646e-11
-8.79823814e-11
-8.79939972e-11
-8.81771368e-11
-8.82123035e-11
-8.80565719e-11
-8.80656104e-11
-8.81744116e-11
-8.82091028e-11
-8.81146758e-11
-8.81220637e-11
-8.81750188e-11
-8.82038072e-11
-8.81591248e-11
-8.81654228e-11
-8.81808902e-11
-8.82002249e-11
-8.81914111e-11
-8.81974137e-11
-8.82039579e-11
-8.820973e-11
-8.82146631e-11
-8.82192513e-11
-8.8223886e-11
-8.8227818e-11
-8.8231811e-11
-8.82350658e-11
-8.82385793e-11
-8.82412694e-11
-8.82443516e-11
-8.82464945e-11
-8.82491392e-11
-8.82509983e-11
-8.82531801e-11
-8.82547725e-11
-8.8256573e-11
-8.82579246e-11
-8.82594074e-11
-8.82605458e-11
-8.82617631e-11
-8.82627163e-11
-8.82637118e-11
-8.82645056e-11
-8.82653162e-11
-8.82659741e-11
-8.82666311e-11
-8.82671736e-11
-8.82677038e-11
-8.82681491e-11
-8.8268575e-11
-8.82689387e-11
-8.82692794e-11
-8.82695748e-11
-8.82698461e-11
-8.82700849e-11
-8.82703e-11
-8.8270492e-11
-8.82706619e-11
-8.82708154e-11
-8.82709489e-11
-8.8271071e-11
-8.82711755e-11
-8.8271272e-11
-8.82713534e-11
-8.82714293e-11
-8.82714924e-11
-8.82715518e-11
-8.82716005e-11
-8.82716466e-11
-8.8271684e-11
-8.82717197e-11
-8.82717482e-11
-8.82717756e-11
-8.82717972e-11
-8.82718181e-11
-8.82718344e-11
-8.82718502e-11
-8.82718624e-11
-8.82718744e-11
-8.82718834e-11
-8.82718923e-11
-8.8271899e-11
-8.82719056e-11
-8.82719105e-11
-8.82719153e-11
-8.82719188e-11
-8.82719223e-11
-8.82719249e-11
-8.82719274e-11
-8.82719291e-11
-8.82719309e-11
-8.82719321e-11
-8.82719334e-11
-8.82719342e-11
-8.82719351e-11
-8.82719356e-11
-8.82719362e-11
-8.82719365e-11
-8.82719369e-11
-8.82719371e-11
-8.82719373e-11
-8.82719374e-11
-8.82719376e-11
-8.82719376e-11
-8.82719377e-11
-8.82719377e-11
-8.82719377e-11
-8.82719377e-11
-8.82719377e-11
-8.82719377e-11
-8.82719376e-11
-8.82719376e-11
-8.82719376e-11
-8.82719375e-11
-8.82719375e-11
-8.82719375e-11
-8.82719374e-11
-8.82719374e-11
-8.82719374e-11
-8.82719374e-11
-8.82719373e-11
-8.82719373e-11
-8.82719373e-11
-8.82719373e-11
-8.82719372e-11
-8.82719372e-11
-8.82719372e-11
-8.82719372e-11
-8.82719372e-11
-8.82719372e-11
-8.82719372e-11
-8.82719372e-11
-8.82719372e-11
-8.82719371e-11
-8.82719371e-11
-8.82719371e-11
-8.82719371e-11
-8.82719371e-11
-8.82719371e-11
-8.82719371e-11
-8.82719371e-11
-8.82719371e-11
-8.82719371e-11
-8.82719371e-11
-8.82719371e-11
-8.82719371e-11
-8.82719371e-11
-8.82719371e-11
-8.82719371e-11
-8.82719371e-11
-8.82719371e-11
-8.82719371e-11
-8.82719371e-11
-8.82719371e-11
-8.82719371e-11
-8.82719371e-11
-8.82719371e-11
-8.82719371e-11
-8.82719371e-11
-8.82719371e-11
-8.82719371e-11
-8.82719371e-11
-8.82719371e-11
-8.82719371e-11
-8.82719371e-11
-8.82719371e-11
-8.82719371e-11
-8.82719371e-11
-8.82719371e-11
-8.82719371e-11
-8.82719371e-11
-8.82719371e-11
-8.82719371e-11
-8.82719371e-11
-8.82719371e-11
-8.82719371e-11
-8.82719371e-11
-8.82719371e-11
-8.82719371e-11
-8.82719371e-11
-8.82719371e-11
-8.82719371e-11
-8.82719371e-11
-8.82719371e-11
-8.82719371e-11
-8.82719371e-11
-8.82719371e-11
-8.82719371e-11
-8.82719371e-11
-8.82719371e-11
-8.82719371e-11
-8.82719371e-11
-8.82719371e-11
-8.82719371e-11
-8.82719371e-11
-8.82719371e-11
-8.82719371e-11
-8.82719371e-11
-8.82719371e-11
-8.82719371e-11
-8.82719371e-11
-8.82719371e-11
-8.82719371e-11
-8.82719371e-11
-8.82719371e-11
-8.82719371e-11
-8.82719371e-11
-8.82719371e-11
-8.82719371e-11
-8.82719371e-11
-8.82719371e-11
-8.82719371e-11
-8.82719371e-11
-8.82719371e-11
-8.82719371e-11
-8.82719371e-11
-8.82719371e-11
-8.82719371e-11
-8.82719371e-11
-8.82719371e-11
-8.82719371e-11
-8.82719371e-11
-8.82719371e-11
-8.82719371e-11
-8.82719371e-11
-8.82719371e-11
-8.82719371e-11
-8.82719371e-11
-8.82719371e-11
-8.82719371e-11
-8.82719371e-11
-8.82719371e-11
-8.82719371e-11
-8.82719371e-11
-8.82719371e-11
-8.82719371e-11
-8.82719371e-11
-8.82719371e-11
-8.82719371e-11
-8.82719371e-11
-8.82719371e-11
-8.82719371e-11
-8.82719371e-11
-8.82719371e-11
-8.82719371e-11
-8.82719371e-11
-8.82719371e-11
-8.82719371e-11
-8.82719371e-11
-8.82719371e-11
-8.82719371e-11
-8.82719371e-11
-8.82719371e-11
-8.82719371e-11
-8.82719371e-11
-8.82719371e-11
-8.82719371e-11
-8.82719371e-11
-8.82719371e-11
-8.82719371e-11
-8.82719371e-11
-8.82719371e-11
-8.82719371e-11
-8.82719371e-11
-8.82719371e-11
-8.82719371e-11
-8.82719371e-11
-8.82719371e-11
-8.82719371e-11
-8.82719371e-11
-8.82719371e-11
-8.82719371e-11
-8.82719371e-11
-8.82719371e-11
-8.82719371e-11
-8.82719371e-11
-8.82719371e-11
-8.82719371e-11
-8.82719371e-11
-8.82719371e-11
-8.82719371e-11
-8.82719371e-11
-8.82719371e-11
-8.82719371e-11
-8.82719371e-11
-8.82719371e-11
-8.82719371e-11
-8.82719371e-11
-8.82719371e-11
-8.82719371e-11
-8.82719371e-11
-8.82719371e-11
-8.82719371e-11
-8.82719371e-11
-8.82719371e-11
-8.82719371e-11
-8.82719371e-11
-8.82719371e-11
-8.82719371e-11
-8.82719371e-11
-8.82719371e-11
-8.82719371e-11
-8.82719371e-11
-8.82719371e-11
-8.82719371e-11
-8.82719371e-11
-8.82719371e-11
-8.82719371e-11
-8.82719371e-11
-8.82719371e-11
-8.82719371e-11
-8.82719371e-11
-8.82719371e-11
-8.82719371e-11
-8.82719371e-11
-8.82719371e-11
-8.82719371e-11
-8.82719371e-11
-8.82719371e-11
-8.82719371e-11
-8.82719371e-11
-8.82719371e-11
-8.82719371e-11
-8.82719371e-11
-8.82719371e-11
-8.82719371e-11
-8.82719371e-11
-8.82719371e-11
-8.82719371e-11
-8.82719371e-11
-8.82719371e-11
-8.82719371e-11
-8.82719371e-11
-8.82719371e-11
-8.82719371e-11
-8.82719371e-11
-8.82719371e-11
-8.82719371e-11
-8.82719371e-11
-8.82719371e-11
-8.82719371e-11
-8.82719371e-11
-8.82719371e-11
-8.82719371e-11
-8.82719371e-11
-8.82719371e-11
-8.82719371e-11
-8.82719371e-11
-8.82719371e-11
-8.82719371e-11
-8.82719371e-11
-8.82719371e-11
-8.82719371e-11
-8.82719371e-11
-8.82719371e-11
-8.82719371e-11
-8.82719371e-11
-8.82719371e-11
-8.82719371e-11
-8.82719371e-11
-8.82719371e-11
-8.82719371e-11
-8.82719371e-11
-8.82719371e-11
-8.82719371e-11
-8.82719371e-11
-8.82719371e-11
-8.82719371e-11
-8.82719371e-11
-8.82719371e-11
-8.82719371e-11
-8.82719371e-11
-8.82719371e-11
-8.82719371e-11
-8.82719371e-11
-8.82719371e-11
-8.82719371e-11
-8.82719371e-11
-8.82719371e-11
-8.82719371e-11
-8.82719371e-11
-8.82719371e-11
-8.82719371e-11
-8.82719371e-11
-8.82719371e-11
-8.82719371e-11
-8.82719371e-11
-8.82719371e-11
-8.82719371e-11
-8.82719371e-11
-8.82719371e-11
-8.82719371e-11
-8.82719371e-11
-8.82719371e-11
-8.82719371e-11
-8.82719371e-11
-8.82719371e-11
-8.82719371e-11
-8.82719371e-11
-8.82719371e-11
-8.82719371e-11
-8.82719371e-11
-8.82719371e-11
-8.82719371e-11
-8.82719371e-11
-8.82719371e-11
-8.82719371e-11
-8.82719371e-11
-8.82719371e-11
-8.82719371e-11
-8.82719371e-11
-8.82719371e-11
-8.82719371e-11
-8.82719371e-11
-8.82719371e-11
-8.82719371e-11
-8.82719371e-11
-8.82719371e-11
-8.82719371e-11
-8.82719371e-11
-8.82719371e-11
-8.82719371e-11
-8.82719371e-11
-8.82719371e-11
-8.82719371e-11
-8.82719371e-11
-8.82719371e-11
-8.82719371e-11
-8.82719371e-11
-8.82719371e-11
-8.82719371e-11
-8.82719371e-11
-8.82719371e-11
-8.82719371e-11
-8.82719371e-11
-8.82719371e-11
-8.82719371e-11
-8.82719371e-11
-8.82719371e-11
-8.82719371e-11
-8.82719371e-11
-8.82719371e-11
-8.82719371e-11
-8.82719371e-11
-8.82719371e-11
-8.82719371e-11
-8.82719371e-11
-8.82719371e-11
-8.82719371e-11
-8.82719371e-11
-8.82719371e-11
-8.82719371e-11
-8.82719371e-11
-8.82719371e-11
-8.82719371e-11
-8.82719371e-11
-8.82719371e-11
-8.82719371e-11
-8.82719371e-11
-8.82719371e-11
-8.82719371e-11
-8.82719371e-11
-8.82719371e-11
-8.82719371e-11
-8.82719371e-11
-8.82719371e-11
-8.82719371e-11
-8.82719371e-11
-8.82719371e-11
-8.82719371e-11
)
;

boundaryField
{
    closed
    {
        type            calculated;
        value           nonuniform List<scalar> 0();
    }
    open
    {
        type            calculated;
        value           uniform -8.82719371e-11;
    }
    sides
    {
        type            empty;
    }
    procBoundary5to4
    {
        type            processor;
        value           uniform -8.98222451e-11;
    }
}


// ************************************************************************* //
