/*--------------------------------*- C++ -*----------------------------------*\
| =========                 |                                                 |
| \\      /  F ield         | OpenFOAM: The Open Source CFD Toolbox           |
|  \\    /   O peration     | Version:  2306                                  |
|   \\  /    A nd           | Website:  www.openfoam.com                      |
|    \\/     M anipulation  |                                                 |
\*---------------------------------------------------------------------------*/
FoamFile
{
    version     2.0;
    format      ascii;
    arch        "LSB;label=32;scalar=64";
    class       volScalarField;
    location    "0.00026";
    object      prefDZ_H2;
}
// * * * * * * * * * * * * * * * * * * * * * * * * * * * * * * * * * * * * * //

dimensions      [1 -1 -1 0 0 0 0];

internalField   nonuniform List<scalar> 
531
(
6.35458139e-05
6.23205306e-05
6.20260195e-05
6.24517758e-05
6.28732956e-05
6.23267385e-05
6.23110603e-05
6.23062274e-05
6.24784575e-05
6.23714631e-05
6.2289156e-05
6.23073212e-05
6.23602133e-05
6.23456024e-05
6.23208694e-05
6.2325163e-05
6.23346189e-05
6.23309628e-05
6.2327377e-05
6.23320403e-05
6.23344064e-05
6.23291471e-05
6.23263146e-05
6.23304167e-05
6.23342455e-05
6.23317978e-05
6.2327904e-05
6.23288138e-05
6.23316951e-05
6.23313845e-05
6.23301626e-05
6.2330772e-05
6.23309186e-05
6.23287485e-05
6.23288186e-05
6.23333839e-05
6.2333905e-05
6.23274111e-05
6.23251557e-05
6.23324545e-05
6.23380531e-05
6.23310653e-05
6.23220082e-05
6.23258556e-05
6.23402377e-05
6.2339384e-05
6.23227804e-05
6.23202999e-05
6.23342335e-05
6.23422836e-05
6.23317756e-05
6.23207195e-05
6.23246409e-05
6.23384747e-05
6.23380099e-05
6.23271668e-05
6.23251795e-05
6.23294601e-05
6.2332316e-05
6.23322271e-05
6.23330512e-05
6.2331459e-05
6.23248937e-05
6.2325245e-05
6.23370486e-05
6.23395097e-05
6.23264431e-05
6.23203118e-05
6.23306637e-05
6.23417263e-05
6.23341592e-05
6.23214625e-05
6.23242824e-05
6.23378911e-05
6.23373106e-05
6.23261253e-05
6.23254878e-05
6.23323929e-05
6.23336151e-05
6.23296608e-05
6.23290533e-05
6.23312534e-05
6.23309946e-05
6.23288557e-05
6.23299754e-05
6.23331237e-05
6.23316284e-05
6.23271473e-05
6.23282035e-05
6.23341205e-05
6.23337873e-05
6.2327236e-05
6.2326974e-05
6.23327386e-05
6.23338756e-05
6.23292105e-05
6.23275652e-05
6.23309815e-05
6.23329275e-05
6.23303631e-05
6.23283928e-05
6.23303094e-05
6.2332412e-05
6.23308649e-05
6.23285268e-05
6.23296698e-05
6.23324803e-05
6.23318387e-05
6.2328464e-05
6.23286004e-05
6.23321807e-05
6.23326309e-05
6.23294757e-05
6.23281584e-05
6.23304833e-05
6.23328377e-05
6.233169e-05
6.23281829e-05
6.23283073e-05
6.23321739e-05
6.23332138e-05
6.23298758e-05
6.23273754e-05
6.23297032e-05
6.23339096e-05
6.23328192e-05
6.23268974e-05
6.23270147e-05
6.23336295e-05
6.23349439e-05
6.23285115e-05
6.23253082e-05
6.23306391e-05
6.23365813e-05
6.23328453e-05
6.23243017e-05
6.2325297e-05
6.23365634e-05
6.233749e-05
6.23270063e-05
6.23231005e-05
6.23307052e-05
6.23381933e-05
6.23336567e-05
6.23240317e-05
6.23249962e-05
6.23354897e-05
6.23364548e-05
6.23283938e-05
6.23253086e-05
6.23301536e-05
6.23349369e-05
6.23325353e-05
6.23268096e-05
6.23273325e-05
6.23336244e-05
6.23342562e-05
6.23283726e-05
6.23259678e-05
6.2331144e-05
6.23362194e-05
6.23320917e-05
6.23241504e-05
6.23255586e-05
6.23374916e-05
6.23377661e-05
6.23260078e-05
6.23224698e-05
6.23313635e-05
6.23391274e-05
6.23336714e-05
6.23232764e-05
6.23244193e-05
6.23359921e-05
6.23373028e-05
6.23284832e-05
6.23245611e-05
6.23295034e-05
6.23355614e-05
6.23336978e-05
6.23265261e-05
6.23266767e-05
6.23327716e-05
6.2334247e-05
6.23299993e-05
6.23271952e-05
6.23292947e-05
6.23331114e-05
6.23326878e-05
6.23289187e-05
6.23283293e-05
6.2330503e-05
6.23321115e-05
6.23315327e-05
6.23293446e-05
6.23292106e-05
6.23309845e-05
6.23317198e-05
6.23301547e-05
6.23289202e-05
6.23306999e-05
6.23328299e-05
6.2330626e-05
6.23269826e-05
6.23291016e-05
6.23353296e-05
6.23339643e-05
6.23249174e-05
6.23251479e-05
6.23358879e-05
6.23375002e-05
6.23268832e-05
6.23230415e-05
6.2331707e-05
6.23385104e-05
6.23318419e-05
6.23234271e-05
6.23266595e-05
6.23369164e-05
6.23360615e-05
6.23258516e-05
6.23250441e-05
6.23326763e-05
6.23356603e-05
6.23305674e-05
6.23261911e-05
6.23284171e-05
6.2334041e-05
6.23336199e-05
6.23281433e-05
6.2327311e-05
6.23312904e-05
6.23333984e-05
6.23308011e-05
6.23280908e-05
6.23294801e-05
6.23322553e-05
6.23315108e-05
6.23292496e-05
6.23297329e-05
6.23314208e-05
6.23308192e-05
6.23292795e-05
6.23302782e-05
6.23322585e-05
6.23308179e-05
6.23279927e-05
6.23295505e-05
6.2333589e-05
6.23321374e-05
6.23270609e-05
6.23280223e-05
6.23342086e-05
6.23337178e-05
6.23265787e-05
6.2326655e-05
6.2334647e-05
6.23352848e-05
6.23264289e-05
6.23245495e-05
6.2334089e-05
6.2338488e-05
6.232845e-05
6.23213224e-05
6.2329569e-05
6.23418164e-05
6.23357178e-05
6.23196571e-05
6.2321171e-05
6.23411788e-05
6.23430893e-05
6.23246425e-05
6.23181436e-05
6.23307467e-05
6.23439857e-05
6.23363093e-05
6.23194874e-05
6.23207971e-05
6.23393433e-05
6.23423795e-05
6.23269366e-05
6.23197627e-05
6.2329228e-05
6.23411374e-05
6.23355834e-05
6.23220236e-05
6.23233736e-05
6.23376927e-05
6.23380889e-05
6.23260714e-05
6.23237877e-05
6.23328677e-05
6.23369371e-05
6.2329708e-05
6.23246639e-05
6.23296553e-05
6.23363618e-05
6.23331699e-05
6.23250473e-05
6.23258848e-05
6.23353079e-05
6.23362773e-05
6.23280753e-05
6.23244911e-05
6.23297856e-05
6.2336558e-05
6.23345268e-05
6.23253209e-05
6.23251296e-05
6.23332322e-05
6.23364673e-05
6.23306568e-05
6.23249774e-05
6.23276193e-05
6.2335515e-05
6.23350144e-05
6.23268743e-05
6.2325796e-05
6.23322121e-05
6.23351067e-05
6.23304206e-05
6.23264157e-05
6.23291217e-05
6.23340754e-05
6.23328602e-05
6.23275826e-05
6.23277278e-05
6.23324061e-05
6.23331319e-05
6.23296632e-05
6.2328148e-05
6.23303218e-05
6.23324133e-05
6.23312684e-05
6.2328916e-05
6.23292419e-05
6.23317339e-05
6.23317493e-05
6.23295657e-05
6.23291273e-05
6.23310884e-05
6.23319653e-05
6.23300746e-05
6.23287381e-05
6.23305424e-05
6.23324615e-05
6.23307834e-05
6.23283042e-05
6.23296577e-05
6.23327328e-05
6.23317518e-05
6.23282933e-05
6.23287834e-05
6.23324817e-05
6.23323715e-05
6.23287728e-05
6.2328635e-05
6.23317429e-05
6.23321714e-05
6.23295277e-05
6.23289279e-05
6.23311637e-05
6.23318852e-05
6.23299105e-05
6.23291178e-05
6.23308982e-05
6.23317992e-05
6.23301285e-05
6.23291226e-05
6.23306833e-05
6.23318573e-05
6.23303543e-05
6.23289763e-05
6.23303953e-05
6.23321543e-05
6.23308418e-05
6.23285302e-05
6.2329533e-05
6.23326522e-05
6.23322761e-05
6.23281912e-05
6.2328057e-05
6.23321634e-05
6.23334131e-05
6.23298775e-05
6.23273462e-05
6.2329572e-05
6.23335068e-05
6.23328385e-05
6.23281066e-05
6.23276924e-05
6.23312216e-05
6.23330944e-05
6.23314065e-05
6.2328562e-05
6.2328738e-05
6.23310592e-05
6.23318189e-05
6.23312736e-05
6.23301608e-05
6.2329396e-05
6.23293662e-05
6.2330633e-05
6.23323183e-05
6.23320849e-05
6.23287506e-05
6.23274843e-05
6.23304167e-05
6.23342976e-05
6.23333525e-05
6.23269823e-05
6.23258473e-05
6.23313374e-05
6.23361141e-05
6.23338573e-05
6.23252975e-05
6.23246329e-05
6.23324504e-05
6.23378444e-05
6.23335294e-05
6.23234915e-05
6.23238913e-05
6.23353655e-05
6.23391276e-05
6.23298728e-05
6.2322084e-05
6.23268505e-05
6.23386661e-05
6.23373894e-05
6.23243569e-05
6.23233589e-05
6.23337345e-05
6.23376745e-05
6.23299448e-05
6.23243116e-05
6.23288212e-05
6.23361579e-05
6.23339535e-05
6.23257011e-05
6.23259915e-05
6.2334094e-05
6.23356595e-05
6.23289574e-05
6.23251169e-05
6.23294185e-05
6.23360951e-05
6.23344412e-05
6.23255067e-05
6.23253589e-05
6.23332745e-05
6.23361362e-05
6.2330477e-05
6.23254843e-05
6.23280228e-05
6.23345e-05
6.23340835e-05
6.23282597e-05
6.23273357e-05
6.23307027e-05
6.23326865e-05
6.23314231e-05
6.23293496e-05
6.23294438e-05
6.23304188e-05
6.23309393e-05
6.23310997e-05
6.23307993e-05
6.23296947e-05
6.23296024e-05
6.23309637e-05
6.23315335e-05
6.23303671e-05
6.23294053e-05
6.23301726e-05
6.23313495e-05
6.23309891e-05
6.23298977e-05
6.23299772e-05
6.23306366e-05
6.23306325e-05
6.23305671e-05
6.23307949e-05
6.23307619e-05
6.23304574e-05
6.23301829e-05
6.23286851e-05
6.2330389e-05
6.23410838e-05
6.23418114e-05
6.23109176e-05
6.23070251e-05
6.23854296e-05
6.24356189e-05
6.2294864e-05
6.23367197e-05
6.23563285e-05
6.31357481e-05
6.23772404e-05
6.18327145e-05
6.22760569e-05
6.36044762e-05
6.36242429e-05
6.18595262e-05
6.1702306e-05
6.23175753e-05
6.35550421e-05
6.36075578e-05
6.16518941e-05
6.15822984e-05
6.23468662e-05
6.35258574e-05
6.36022247e-05
6.15207242e-05
6.14863085e-05
6.25571169e-05
6.35123307e-05
6.35632655e-05
6.1422177e-05
6.13364737e-05
6.24290264e-05
6.35133976e-05
6.35871946e-05
6.16016684e-05
6.19077524e-05
6.35545478e-05
6.35648497e-05
6.15352609e-05
6.18477147e-05
6.35638493e-05
6.35477376e-05
6.15223177e-05
)
;

boundaryField
{
    closed
    {
        type            calculated;
        value           nonuniform List<scalar> 0();
    }
    open
    {
        type            calculated;
        value           nonuniform List<scalar> 0();
    }
    sides
    {
        type            empty;
    }
    procBoundary3to2
    {
        type            processor;
        value           uniform 6.35965536e-05;
    }
    procBoundary3to4
    {
        type            processor;
        value           uniform 6.18305044e-05;
    }
}


// ************************************************************************* //
