/*--------------------------------*- C++ -*----------------------------------*\
| =========                 |                                                 |
| \\      /  F ield         | OpenFOAM: The Open Source CFD Toolbox           |
|  \\    /   O peration     | Version:  2306                                  |
|   \\  /    A nd           | Website:  www.openfoam.com                      |
|    \\/     M anipulation  |                                                 |
\*---------------------------------------------------------------------------*/
FoamFile
{
    version     2.0;
    format      ascii;
    arch        "LSB;label=32;scalar=64";
    class       volScalarField;
    location    "0.00026";
    object      prefDPV_H2;
}
// * * * * * * * * * * * * * * * * * * * * * * * * * * * * * * * * * * * * * //

dimensions      [1 -1 -1 0 0 0 0];

internalField   nonuniform List<scalar> 
531
(
-3.15216792e-05
-3.09138816e-05
-3.07677905e-05
-3.09789854e-05
-3.11880788e-05
-3.09169611e-05
-3.09091839e-05
-3.09067866e-05
-3.09922207e-05
-3.09391465e-05
-3.08983184e-05
-3.09073292e-05
-3.09335661e-05
-3.09263184e-05
-3.09140497e-05
-3.09161796e-05
-3.09208701e-05
-3.09190565e-05
-3.09172778e-05
-3.0919591e-05
-3.09207647e-05
-3.09181558e-05
-3.09167508e-05
-3.09187856e-05
-3.09206849e-05
-3.09194707e-05
-3.09175392e-05
-3.09179905e-05
-3.09194198e-05
-3.09192657e-05
-3.09186596e-05
-3.09189619e-05
-3.09190346e-05
-3.09179581e-05
-3.09179929e-05
-3.09202575e-05
-3.0920516e-05
-3.09172947e-05
-3.09161759e-05
-3.09197965e-05
-3.09225736e-05
-3.09191074e-05
-3.09146146e-05
-3.09165231e-05
-3.09236573e-05
-3.09232338e-05
-3.09149977e-05
-3.09137672e-05
-3.09206789e-05
-3.09246722e-05
-3.09194597e-05
-3.09139754e-05
-3.09159206e-05
-3.09227828e-05
-3.09225522e-05
-3.09171735e-05
-3.09161877e-05
-3.09183111e-05
-3.09197277e-05
-3.09196837e-05
-3.09200925e-05
-3.09193027e-05
-3.0916046e-05
-3.09162202e-05
-3.09220754e-05
-3.09232962e-05
-3.09168145e-05
-3.09137731e-05
-3.09189081e-05
-3.09243957e-05
-3.09206421e-05
-3.09143439e-05
-3.09157427e-05
-3.09224933e-05
-3.09222053e-05
-3.09166569e-05
-3.09163407e-05
-3.09197659e-05
-3.09203722e-05
-3.09184107e-05
-3.09181093e-05
-3.09192007e-05
-3.09190723e-05
-3.09180113e-05
-3.09185667e-05
-3.09201284e-05
-3.09193867e-05
-3.09171638e-05
-3.09176878e-05
-3.09206229e-05
-3.09204576e-05
-3.09172079e-05
-3.09170779e-05
-3.09199374e-05
-3.09205014e-05
-3.09181873e-05
-3.09173711e-05
-3.09190658e-05
-3.09200311e-05
-3.0918759e-05
-3.09177817e-05
-3.09187324e-05
-3.09197754e-05
-3.0919008e-05
-3.09178481e-05
-3.09184151e-05
-3.09198093e-05
-3.0919491e-05
-3.0917817e-05
-3.09178847e-05
-3.09196606e-05
-3.0919884e-05
-3.09183189e-05
-3.09176654e-05
-3.09188187e-05
-3.09199866e-05
-3.09194172e-05
-3.09176776e-05
-3.09177393e-05
-3.09196573e-05
-3.09201731e-05
-3.09185173e-05
-3.0917277e-05
-3.09184317e-05
-3.09205183e-05
-3.09199774e-05
-3.09170399e-05
-3.09170981e-05
-3.09203793e-05
-3.09210313e-05
-3.09178406e-05
-3.09162516e-05
-3.09188959e-05
-3.09218435e-05
-3.09199903e-05
-3.09157523e-05
-3.0916246e-05
-3.09218347e-05
-3.09222943e-05
-3.09170939e-05
-3.09151565e-05
-3.09189288e-05
-3.09226432e-05
-3.09203928e-05
-3.09156184e-05
-3.09160968e-05
-3.09213021e-05
-3.09217808e-05
-3.09177822e-05
-3.09162518e-05
-3.09186551e-05
-3.09210278e-05
-3.09198365e-05
-3.09169963e-05
-3.09172557e-05
-3.09203768e-05
-3.09206902e-05
-3.09177717e-05
-3.09165788e-05
-3.09191464e-05
-3.09216641e-05
-3.09196165e-05
-3.09156773e-05
-3.09163758e-05
-3.09222951e-05
-3.09224313e-05
-3.09165986e-05
-3.09148436e-05
-3.09192553e-05
-3.09231065e-05
-3.09204001e-05
-3.09152437e-05
-3.09158107e-05
-3.09215513e-05
-3.09222015e-05
-3.09178265e-05
-3.0915881e-05
-3.09183326e-05
-3.09213377e-05
-3.09204132e-05
-3.09168557e-05
-3.09169304e-05
-3.09199538e-05
-3.09206856e-05
-3.09185786e-05
-3.09171876e-05
-3.09182291e-05
-3.09201223e-05
-3.09199122e-05
-3.09180425e-05
-3.09177502e-05
-3.09188284e-05
-3.09196263e-05
-3.09193392e-05
-3.09182538e-05
-3.09181873e-05
-3.09190673e-05
-3.0919432e-05
-3.09186557e-05
-3.09180433e-05
-3.09189261e-05
-3.09199827e-05
-3.09188894e-05
-3.09170822e-05
-3.09181333e-05
-3.09212227e-05
-3.09205454e-05
-3.09160577e-05
-3.09161721e-05
-3.09214996e-05
-3.09222994e-05
-3.09170329e-05
-3.09151272e-05
-3.09194257e-05
-3.09228005e-05
-3.09194926e-05
-3.09153185e-05
-3.09169219e-05
-3.09220098e-05
-3.09215857e-05
-3.09165211e-05
-3.09161206e-05
-3.09199065e-05
-3.09213867e-05
-3.09188604e-05
-3.09166895e-05
-3.09177937e-05
-3.09205834e-05
-3.09203746e-05
-3.09176579e-05
-3.0917245e-05
-3.0919219e-05
-3.09202647e-05
-3.09189763e-05
-3.09176319e-05
-3.0918321e-05
-3.09196977e-05
-3.09193284e-05
-3.09182067e-05
-3.09184464e-05
-3.09192837e-05
-3.09189853e-05
-3.09182215e-05
-3.09187169e-05
-3.09196992e-05
-3.09189846e-05
-3.09175832e-05
-3.0918356e-05
-3.09203592e-05
-3.09196392e-05
-3.0917121e-05
-3.09175979e-05
-3.09206666e-05
-3.09204231e-05
-3.09168818e-05
-3.09169196e-05
-3.0920884e-05
-3.09212004e-05
-3.09168075e-05
-3.09158752e-05
-3.09206073e-05
-3.09227893e-05
-3.09178101e-05
-3.09142744e-05
-3.09183652e-05
-3.09244404e-05
-3.09214152e-05
-3.09134484e-05
-3.09141993e-05
-3.09241241e-05
-3.09250718e-05
-3.09159214e-05
-3.09126976e-05
-3.09189493e-05
-3.09255165e-05
-3.09217086e-05
-3.09133642e-05
-3.09140139e-05
-3.09232136e-05
-3.09247197e-05
-3.09170593e-05
-3.09135007e-05
-3.0918196e-05
-3.09241036e-05
-3.09213486e-05
-3.09146222e-05
-3.09152919e-05
-3.09223949e-05
-3.09225914e-05
-3.09166301e-05
-3.09154974e-05
-3.09200014e-05
-3.09220201e-05
-3.09184341e-05
-3.0915932e-05
-3.09184079e-05
-3.09217347e-05
-3.09201514e-05
-3.09161221e-05
-3.09165376e-05
-3.09212119e-05
-3.09216928e-05
-3.09176242e-05
-3.09158463e-05
-3.09184726e-05
-3.0921832e-05
-3.09208244e-05
-3.09162579e-05
-3.0916163e-05
-3.09201822e-05
-3.0921787e-05
-3.09189047e-05
-3.09160875e-05
-3.0917398e-05
-3.09213146e-05
-3.09210663e-05
-3.09170284e-05
-3.09164936e-05
-3.09196762e-05
-3.09211121e-05
-3.09187876e-05
-3.0916801e-05
-3.09181432e-05
-3.09206005e-05
-3.09199977e-05
-3.09173798e-05
-3.09174518e-05
-3.09197725e-05
-3.09201325e-05
-3.09184119e-05
-3.09176602e-05
-3.09187385e-05
-3.0919776e-05
-3.09192081e-05
-3.09180412e-05
-3.09182029e-05
-3.0919439e-05
-3.09194467e-05
-3.09183635e-05
-3.0918146e-05
-3.09191188e-05
-3.09195538e-05
-3.09186159e-05
-3.0917953e-05
-3.0918848e-05
-3.09197999e-05
-3.09189675e-05
-3.09177377e-05
-3.09184091e-05
-3.09199345e-05
-3.09194479e-05
-3.09177323e-05
-3.09179754e-05
-3.091981e-05
-3.09197553e-05
-3.09179702e-05
-3.09179018e-05
-3.09194435e-05
-3.0919656e-05
-3.09183446e-05
-3.09180471e-05
-3.09191562e-05
-3.09195141e-05
-3.09185345e-05
-3.09181413e-05
-3.09190245e-05
-3.09194714e-05
-3.09186427e-05
-3.09181437e-05
-3.09189179e-05
-3.09195002e-05
-3.09187547e-05
-3.09180711e-05
-3.0918775e-05
-3.09196476e-05
-3.09189965e-05
-3.09178498e-05
-3.09183473e-05
-3.09198945e-05
-3.0919708e-05
-3.09176817e-05
-3.09176151e-05
-3.09196521e-05
-3.0920272e-05
-3.09185182e-05
-3.09172625e-05
-3.09183666e-05
-3.09203185e-05
-3.09199869e-05
-3.09176397e-05
-3.09174342e-05
-3.09191849e-05
-3.09201139e-05
-3.09192766e-05
-3.09178656e-05
-3.09179529e-05
-3.09191043e-05
-3.09194812e-05
-3.09192107e-05
-3.09186587e-05
-3.09182793e-05
-3.09182646e-05
-3.09188929e-05
-3.09197289e-05
-3.09196131e-05
-3.09179592e-05
-3.0917331e-05
-3.09187856e-05
-3.09207107e-05
-3.09202419e-05
-3.0917082e-05
-3.0916519e-05
-3.09192423e-05
-3.09216118e-05
-3.09204923e-05
-3.09162463e-05
-3.09159166e-05
-3.09197945e-05
-3.09224701e-05
-3.09203297e-05
-3.09153504e-05
-3.09155487e-05
-3.09212405e-05
-3.09231067e-05
-3.09185158e-05
-3.09146522e-05
-3.09170166e-05
-3.09228777e-05
-3.09222444e-05
-3.09157797e-05
-3.09152846e-05
-3.09204314e-05
-3.09223858e-05
-3.09185516e-05
-3.09157572e-05
-3.09179942e-05
-3.09216336e-05
-3.092054e-05
-3.09164465e-05
-3.09165905e-05
-3.09206097e-05
-3.09213863e-05
-3.09180618e-05
-3.09161567e-05
-3.09182905e-05
-3.09216024e-05
-3.0920782e-05
-3.09163501e-05
-3.09162767e-05
-3.09202032e-05
-3.09216228e-05
-3.09188156e-05
-3.09163389e-05
-3.09175982e-05
-3.09208111e-05
-3.09206045e-05
-3.09177157e-05
-3.09172573e-05
-3.09189275e-05
-3.09199116e-05
-3.09192849e-05
-3.09182563e-05
-3.0918303e-05
-3.09187867e-05
-3.09190449e-05
-3.09191244e-05
-3.09189754e-05
-3.09184275e-05
-3.09183817e-05
-3.0919057e-05
-3.09193396e-05
-3.0918761e-05
-3.09182839e-05
-3.09186646e-05
-3.09192484e-05
-3.09190696e-05
-3.09185282e-05
-3.09185676e-05
-3.09188947e-05
-3.09188927e-05
-3.09188602e-05
-3.09189732e-05
-3.09189569e-05
-3.09188058e-05
-3.09186696e-05
-3.09179267e-05
-3.09187719e-05
-3.0924077e-05
-3.09244379e-05
-3.09091132e-05
-3.09071823e-05
-3.09460746e-05
-3.09709708e-05
-3.09011498e-05
-3.09219122e-05
-3.09316391e-05
-3.13182675e-05
-3.09420124e-05
-3.06719022e-05
-3.08918206e-05
-3.15507784e-05
-3.15605836e-05
-3.0685202e-05
-3.06072135e-05
-3.09124157e-05
-3.15262568e-05
-3.1552307e-05
-3.05822069e-05
-3.05476842e-05
-3.09269453e-05
-3.15117798e-05
-3.15496616e-05
-3.05171405e-05
-3.05000687e-05
-3.10312395e-05
-3.150507e-05
-3.1530336e-05
-3.04682565e-05
-3.04257437e-05
-3.09677006e-05
-3.15055992e-05
-3.15422059e-05
-3.05572926e-05
-3.07091245e-05
-3.15260116e-05
-3.15311218e-05
-3.05243514e-05
-3.0679343e-05
-3.15306255e-05
-3.15226334e-05
-3.05179309e-05
)
;

boundaryField
{
    closed
    {
        type            calculated;
        value           nonuniform List<scalar> 0();
    }
    open
    {
        type            calculated;
        value           nonuniform List<scalar> 0();
    }
    sides
    {
        type            empty;
    }
    procBoundary3to2
    {
        type            processor;
        value           uniform -3.15468484e-05;
    }
    procBoundary3to4
    {
        type            processor;
        value           uniform -3.06708059e-05;
    }
}


// ************************************************************************* //
