/*--------------------------------*- C++ -*----------------------------------*\
| =========                 |                                                 |
| \\      /  F ield         | OpenFOAM: The Open Source CFD Toolbox           |
|  \\    /   O peration     | Version:  2306                                  |
|   \\  /    A nd           | Website:  www.openfoam.com                      |
|    \\/     M anipulation  |                                                 |
\*---------------------------------------------------------------------------*/
FoamFile
{
    version     2.0;
    format      ascii;
    arch        "LSB;label=32;scalar=64";
    class       volScalarField;
    location    "0.00192";
    object      prefDZ_H;
}
// * * * * * * * * * * * * * * * * * * * * * * * * * * * * * * * * * * * * * //

dimensions      [1 -1 -1 0 0 0 0];

internalField   nonuniform List<scalar> 
531
(
0.000107904359
0.000106408535
0.000106584286
0.000106090481
0.000105343
0.000107666568
0.000110305661
0.000110514122
0.000110389067
0.000110468003
0.000107742445
0.000106441261
0.000110438874
0.000110451381
0.000107725833
0.000105915175
0.000105865753
0.000107701497
0.000110304856
0.000110473427
0.000110314117
0.00011039493
0.000107920259
0.000107119594
0.000105692911
0.000106093751
0.00011014461
0.000110301492
0.000106374435
0.000106221199
0.000110269676
0.000110302809
0.000106658844
0.000106410073
0.000108770025
0.000110265778
0.000110248441
0.000107691017
0.00010617026
0.000109296506
0.000110257861
0.000109969898
0.000110264938
0.000108963481
0.000107282626
0.000106154629
0.000106375349
0.000105921108
0.000105054219
0.000107704358
0.00011031749
0.000110428479
0.000110333547
0.000110306077
0.000107910119
0.000105669284
0.000106280221
0.000110325311
0.000110321019
0.000107239744
0.000107108735
0.000110351066
0.000110262069
0.000107872666
0.00010733867
0.000105983995
0.000106345242
0.000110279459
0.000110248238
0.000110212011
0.000107933639
0.000106464628
0.000106614147
0.000106061628
0.000105340916
0.000107716692
0.000110349469
0.00011043577
0.00011034143
0.000107336994
0.000107052103
0.000110386129
0.000110302378
0.000110183238
0.000107861405
0.000105431166
0.00010599137
0.000110361632
0.000110132354
0.000107859369
0.000104984878
0.000105763846
0.000110254343
0.000110202076
0.000106750322
0.000105968787
0.000109020353
0.000110111934
0.000110142746
0.000110085461
0.000108105415
0.000105402783
0.000106203199
0.000110225685
0.00010783044
0.000104874004
0.000110541004
0.000110162233
0.000107817194
0.000105276882
0.000105339294
0.000107863261
0.000110290873
0.000110425404
0.000110213939
0.000107798692
0.000106296408
0.000110531829
0.000110103459
0.000107809589
0.000104779327
0.000105411944
0.000110254419
0.000110226873
0.000106617445
0.000106102702
0.000108828817
0.000110236065
0.000110183715
0.000110248627
0.00011014581
0.000107925562
0.000107369432
0.000106088347
0.000106185894
0.000110400085
0.000110106221
0.000107848584
0.000105123092
0.000106027939
0.000110219871
0.000107846346
0.000105000884
0.000110526311
0.000110192761
0.000107838508
0.00010624549
0.000105448287
0.00010623775
0.000110338477
0.000110273773
0.000110266518
0.000110317546
0.000110251416
0.000107850426
0.000107368815
0.000110463688
0.000110307922
0.000110219378
0.000107857569
0.000106738103
0.000105338205
0.000105458482
0.000110312232
0.000110152205
0.000106558551
0.000105701271
0.00011037247
0.000110053451
0.00010794496
0.000104037083
0.000104652068
0.000110073303
0.000110142151
0.000109953071
0.000110159487
0.000109990368
0.000108087427
0.000107446434
0.000105945922
0.000106080013
0.000110348026
0.000110071258
0.000107891116
0.000104428839
0.000104876157
0.000110196237
0.000110214274
0.000110099387
0.000110232344
0.0001079883
0.000106930098
0.000110338893
0.000110240661
0.000107928376
0.000107061122
0.000105580131
0.000105661433
0.000108930812
0.000110245026
0.000110168036
0.000110294307
0.00011008107
0.00010785127
0.000105387754
0.000105621119
0.000110220428
0.000110243527
0.000107990819
0.000106832856
0.000105564486
0.00010566354
0.000110217691
0.000110265578
0.000106674761
0.000106263494
0.000110257814
0.000110289399
0.000106613186
0.00010667404
0.000110294406
0.000110279699
0.000110128942
0.000107584744
0.00010664696
0.000110433779
0.000110152927
0.000107807261
0.000105791218
0.000106017598
0.000110269383
0.00011028585
0.000107677457
0.000107070881
0.00011034437
0.000110254661
0.000107887088
0.000107406402
0.000106147308
0.000106335334
0.000110266186
0.000107915408
0.000105437793
0.000110313482
0.000110200282
0.000106864183
0.000106279793
0.000110242908
0.000110256555
0.000106469639
0.000106496992
0.000110280274
0.000110230796
0.000110177864
0.000107630104
0.000106336519
0.000110281818
0.000110265048
0.000106838915
0.000106790522
0.000110235361
0.00011028566
0.000110150139
0.000107842105
0.000106554691
0.000105142439
0.000105171043
0.000110278464
0.000110342372
0.000110194661
0.000107715232
0.000105833985
0.00010768153
0.000110196008
0.000110477383
0.000110256626
0.000110404023
0.000107944736
0.000106803653
0.000106751257
0.000106165124
0.000106303392
0.000105356635
0.000106144559
0.000110168958
0.000110324827
0.000110199641
0.000110347068
0.000107861313
0.000106981455
0.000110236736
0.000110262966
0.000107843459
0.000105972433
0.000105989391
0.000110171946
0.000110279751
0.000110216168
0.000107924351
0.000107254095
0.000106887297
0.000106455565
0.000106162439
0.000105298536
0.000107665349
0.000110213661
0.000110494868
0.000110313563
0.000110368051
0.000107789526
0.000105630178
0.000105665987
0.000110090168
0.000110371903
0.000107171112
0.000106639199
0.000110111161
0.000110362309
0.000110321027
0.000107794849
0.000106507894
0.000110189082
0.000110306526
0.000107759734
0.000105638026
0.00010567693
0.00011014435
0.00011045541
0.000110349754
0.000107744339
0.000105948545
0.000105975717
0.000110280341
0.000110542415
0.000107689006
0.000105651897
0.000105683103
0.000110379097
0.000110793646
0.000107203845
0.00010610089
0.000110312849
0.000110940449
0.000108973945
0.000105380834
0.000105082368
0.000110848324
0.000111316228
0.000106597169
0.00010524063
0.000110737722
0.000111242788
0.000107394999
0.000103920049
0.000103950904
0.00010994901
0.000110798784
0.000110497789
0.00011073418
0.000110615586
0.000110697108
0.000110638733
0.000110672112
0.000110638254
0.000110663472
0.000110660995
0.000110696037
0.000110725192
0.000110785415
0.000110851235
0.000110950007
0.000111068943
0.000111236577
0.000111448706
0.000111760225
0.000112236948
0.000113091863
0.000113401413
0.000112785749
0.000112376228
0.000111833658
0.000111493353
0.000111067344
0.000110823751
0.000110532428
0.00011040496
0.000110134423
0.000109865261
0.000109667512
0.000109934384
0.000109487895
0.00010930019
0.000109064167
0.000108956808
0.000108916216
0.000108913034
0.000109042365
0.000108390799
0.00010819661
0.000107412223
0.00010738777
0.000106799134
0.000112453198
0.000114201132
0.000113882122
0.000112329028
0.000111688509
0.0001104035
0.000109558799
0.000108431519
0.000107445254
0.000106415793
0.000105290441
0.00010494767
0.000105419311
0.000107283339
0.000106458745
0.000105823009
0.000106038014
0.000112669459
0.00011999042
0.000122027471
0.00012550326
0.000124462852
0.00015175144
0.000152993108
0.000159985256
0.000163304777
0.000171003096
0.000177605262
0.000188039474
0.000198178975
0.000216005246
0.000226793493
0.000235224285
0.00024263709
0.000251138753
0.000259956689
0.000266153293
0.000271516019
0.000277047241
0.000281848723
0.00028686562
0.00029174266
0.000296262622
0.000300821703
0.000304681983
0.000307848102
0.000310911792
0.00031350831
0.000316333236
0.000318646874
0.000321263155
0.000323353224
0.000325816631
0.000327578377
0.000329787451
0.000331269583
0.000333326624
0.000334587342
0.000336524999
0.000337732659
0.000339514498
0.00034070423
0.000342414504
0.000343734662
0.000345493484
0.00034666579
0.000347785937
0.000348588098
0.00034957507
0.000350303103
0.000351179991
0.000351835662
0.000352602251
0.000353330593
0.000354191947
0.000354935125
0.000355783111
0.000356472532
0.00035726182
0.000357971613
0.000358664846
0.000359302615
0.000359924603
0.000360511494
0.000361083257
0.000361639207
0.000362178199
0.00036270233
0.0003631778
0.000363654466
0.000364103851
0.000364559696
0.000365011942
0.000365541414
0.000366062282
0.000366574389
0.00036704513
0.000367510179
0.000367940089
0.000368344542
0.000368701057
0.000369062754
0.000369401862
0.000369745911
0.000370069414
0.000370397592
0.000370706752
0.000371021136
0.000371320625
0.000371625401
0.000371917011
0.000372213056
0.000372497559
0.000372785705
0.000373063881
0.000373338451
0.000373584174
0.000373830069
0.000374068214
0.000374305932
0.000374544064
0.000374785316
0.000375024686
0.000375255978
0.000375486218
0.00037570833
0.000375930129
0.000376143802
0.000376349297
)
;

boundaryField
{
    closed
    {
        type            calculated;
        value           nonuniform List<scalar> 0();
    }
    open
    {
        type            calculated;
        value           nonuniform List<scalar> 0();
    }
    sides
    {
        type            empty;
    }
    procBoundary4to3
    {
        type            processor;
        value           uniform 0.000110171111;
    }
    procBoundary4to5
    {
        type            processor;
        value           uniform 0.000376543564;
    }
}


// ************************************************************************* //
