/*--------------------------------*- C++ -*----------------------------------*\
| =========                 |                                                 |
| \\      /  F ield         | OpenFOAM: The Open Source CFD Toolbox           |
|  \\    /   O peration     | Version:  2306                                  |
|   \\  /    A nd           | Website:  www.openfoam.com                      |
|    \\/     M anipulation  |                                                 |
\*---------------------------------------------------------------------------*/
FoamFile
{
    version     2.0;
    format      ascii;
    arch        "LSB;label=32;scalar=64";
    class       volScalarField;
    location    "0.00066";
    object      p;
}
// * * * * * * * * * * * * * * * * * * * * * * * * * * * * * * * * * * * * * //

dimensions      [1 -1 -2 0 0 0 0];

internalField   nonuniform List<scalar> 
531
(
102179.536
102185.924
102192.352
102197.865
102202.809
102206.193
102209.057
102211.123
102215.348
102219.972
102226.094
102231.328
102234.518
102233.247
102231.111
102232.448
102229.58
102227.175
102227.238
102228.438
102229.338
102229.792
102229.181
102227.597
102226.121
102224.82
102226.037
102229.023
102232.897
102236.825
102240.303
102242.414
102243.239
102243.676
102242.167
102239.433
102236.003
102232.522
102227.984
102220.994
102213.742
102205.875
102198.548
102191.51
102185.735
102179.439
102172.857
102166.918
102161.2
102156.595
102151.815
102146.976
102142.478
102137.668
102132.605
102127.199
102121.849
102115.539
102108.718
102101.848
102094.667
102087.842
102081.104
102075.702
102067.038
102060.193
102053.466
102046.805
102040.641
102033.972
102027.625
102021.148
102014.22
102007.043
101998.677
101989.232
101979.085
101968.091
101956.487
101944.765
101932.214
101919.166
101905.771
101892.264
101878.917
101864.104
101848.928
101833.742
101818.284
101801.611
101783.977
101765.985
101747.592
101729.156
101710.985
101690.686
101670.479
101651.038
101632.006
101612.402
101592.579
101572.978
101553.802
101534.944
101516.359
101498.193
101480.597
101463.523
101446.965
101430.975
101415.581
101400.795
101386.632
101373.112
101360.257
101348.075
101336.562
101325.716
101315.526
101305.962
101296.995
101288.58
101280.71
101273.398
101266.608
101260.305
101254.529
101249.31
101244.639
101240.472
101236.885
101233.854
101231.485
101229.69
101228.431
101227.76
101227.649
101228.08
101228.991
101230.464
101232.411
101234.842
101237.702
101240.981
101244.662
101248.681
101253.015
101257.646
101262.543
101267.658
101272.941
101278.36
101283.887
101289.482
101295.099
101300.702
101306.256
101311.733
101317.1
101322.328
101327.391
101332.27
101336.945
101341.404
101345.635
101349.631
101353.388
101356.901
101360.172
101363.201
101365.988
101368.532
101370.837
101372.906
101374.742
101376.346
101377.722
101378.874
101379.805
101380.517
101381.014
101381.295
101381.364
101381.221
101380.867
101380.301
101379.521
101378.527
101377.316
101375.885
101374.228
101372.341
101370.217
101367.849
101365.23
101362.351
101359.202
101355.776
101352.062
101348.051
101343.736
101339.108
101334.161
101328.89
101323.291
101317.361
101311.101
101304.512
101297.599
101290.368
101282.829
101274.992
101266.871
101258.483
101249.847
101240.984
101231.917
101222.672
101213.277
101203.762
101194.159
101184.501
101174.824
101165.165
101155.561
101146.054
101136.684
101127.493
101118.525
101109.825
101101.437
101093.41
101085.789
101078.624
101071.962
101065.852
101060.343
101055.484
101051.321
101047.9
101045.266
101043.46
101042.52
101042.48
101043.368
101045.207
101048.015
101051.8
101056.563
101062.298
101068.987
101076.606
101085.119
101094.483
101104.646
101115.546
101127.115
101139.277
101151.953
101165.056
101178.498
101192.189
101206.037
101219.954
101233.851
101247.644
101261.251
101274.598
101287.617
101300.245
101312.428
101324.118
101335.278
101345.877
101355.891
101365.305
101374.113
101382.315
101389.915
101396.925
101403.362
101409.246
101414.604
101419.463
101423.851
101427.8
101431.344
101434.516
101437.348
101439.874
101442.125
101444.136
101445.938
101447.564
101449.046
101450.419
101451.718
101452.979
101454.243
101455.55
101456.945
101458.477
101460.194
101462.147
101464.387
101466.967
101469.936
101473.338
101477.214
101481.598
101486.514
101491.98
101498
101504.572
101511.683
101519.313
101527.431
101536.003
101544.989
101554.346
101564.03
101573.995
101584.196
101594.587
101605.124
101615.764
101626.464
101637.182
101647.877
101658.509
101669.037
101679.424
101689.633
101699.63
101709.383
101718.864
101728.05
101736.92
101745.459
101753.652
101761.492
101768.972
101776.088
101782.837
101789.217
101795.229
101800.875
101806.157
101811.085
101815.674
101819.947
101823.937
101827.69
101831.264
101834.729
101838.164
101841.652
101845.277
101849.113
101853.223
101857.65
101862.417
101867.526
101872.967
101878.717
101884.753
101891.058
101897.631
101904.484
101911.65
101919.171
101927.098
101935.476
101944.333
101953.674
101963.474
101973.69
101984.256
101995.106
102006.178
102017.429
102028.829
102040.351
102051.95
102063.567
102075.144
102086.634
102098.021
102109.36
102120.793
102132.475
102144.457
102156.807
102169.649
102182.999
102196.698
102210.252
102223.639
102236.702
102249.35
102260.639
102270.995
102280.382
102289.702
102298.142
102305.801
102312.157
102318.682
102324.281
102328.886
102333.545
102338.083
102342.856
102347.425
102352.152
102356.591
102361.974
102367.165
102371.934
102376.853
102381.031
102384.493
102386.865
102388.609
102390.48
102392.041
102393.395
102394.695
102395.846
102396.792
102397.024
102396.975
102397.143
102396.687
102396.061
102394.217
102392.016
102388.882
102385.26
102380.202
102374.75
102368.174
102360.334
102349.066
102334.484
102316.899
102300.346
102289.705
102277.981
102271.278
102265.379
102257.908
102247.056
102234.316
102220.794
102207.703
102193.673
102179.684
102165.953
102153.175
102139.705
102126.551
102113.624
102101.795
102089.54
102077.703
102066.41
102056.38
102046.268
102036.891
102028.201
102020.405
102013.983
102007.695
102001.668
101995.951
101990.701
101986.403
101982.005
101977.686
101973.463
101969.352
101965.399
101961.899
101958.194
101954.363
101950.759
101947.219
101944.112
101940.879
101938.031
101934.81
101931.332
101927.563
101923.477
101919.471
101914.87
101909.817
101904.363
101898.526
101892.667
101886.222
101879.34
101872.176
101864.917
101857.962
101850.876
101843.767
101836.73
101829.835
101823.346
101816.739
101810.052
101803.345
101796.757
101790.566
101784.228
101777.892
101771.743
101765.884
101760.328
101755.256
101750.491
101745.921
101741.707
101737.76
101734.427
101730.957
101727.485
101724.012
101720.852
)
;

boundaryField
{
    closed
    {
        type            zeroGradient;
    }
    open
    {
        type            waveTransmissive;
        gamma           1.25;
        fieldInf        101325;
        lInf            1;
        value           nonuniform List<scalar> 0();
    }
    sides
    {
        type            empty;
    }
    procBoundary3to2
    {
        type            processor;
        value           uniform 102173.068;
    }
    procBoundary3to4
    {
        type            processor;
        value           uniform 101717.258;
    }
}


// ************************************************************************* //
