/*--------------------------------*- C++ -*----------------------------------*\
| =========                 |                                                 |
| \\      /  F ield         | OpenFOAM: The Open Source CFD Toolbox           |
|  \\    /   O peration     | Version:  2306                                  |
|   \\  /    A nd           | Website:  www.openfoam.com                      |
|    \\/     M anipulation  |                                                 |
\*---------------------------------------------------------------------------*/
FoamFile
{
    version     2.0;
    format      ascii;
    arch        "LSB;label=32;scalar=64";
    class       surfaceScalarField;
    location    "0.00066";
    object      phi;
}
// * * * * * * * * * * * * * * * * * * * * * * * * * * * * * * * * * * * * * //

dimensions      [1 0 -1 0 0 0 0];

oriented        oriented;

internalField   nonuniform List<scalar> 
530
(
1.89278943e-05
1.91071245e-05
1.81216099e-05
1.82049493e-05
1.88592345e-05
1.93282626e-05
1.93233925e-05
1.9258184e-05
1.98857144e-05
2.02715208e-05
1.96454125e-05
1.96258994e-05
2.04380125e-05
2.09916721e-05
2.10721158e-05
1.97373913e-05
1.96636125e-05
2.02211908e-05
2.07218646e-05
2.08141459e-05
1.931781e-05
1.92338592e-05
1.9181924e-05
1.90884792e-05
1.97947989e-05
1.97169818e-05
1.96290253e-05
1.95193962e-05
1.94689767e-05
1.92880509e-05
1.9017282e-05
1.86071022e-05
1.83940853e-05
1.86883961e-05
1.87842995e-05
1.78137542e-05
1.69200941e-05
1.66062797e-05
1.72505297e-05
1.70613663e-05
1.67936942e-05
1.57186151e-05
1.49855102e-05
1.4603058e-05
1.45395155e-05
1.43979627e-05
1.3431848e-05
1.30057244e-05
1.27075072e-05
1.26689177e-05
1.2572022e-05
1.17459054e-05
1.13873913e-05
1.11438762e-05
1.08775599e-05
1.06635618e-05
1.06487564e-05
1.05937114e-05
1.0430181e-05
1.02920266e-05
9.61745861e-06
9.40940327e-06
9.24048839e-06
9.13355423e-06
9.08395214e-06
9.12293157e-06
8.94797741e-06
8.82551335e-06
9.2923785e-06
9.43185031e-06
9.43473688e-06
9.31385899e-06
9.30260974e-06
9.43120252e-06
9.57841899e-06
9.56992937e-06
9.55790274e-06
9.39974678e-06
9.36478069e-06
9.4278712e-06
9.50295143e-06
9.45213194e-06
9.31230668e-06
9.38112495e-06
9.97123453e-06
9.88547899e-06
9.46043372e-06
9.40924376e-06
9.5602182e-06
9.71948325e-06
9.68555326e-06
9.57895061e-06
9.36332988e-06
9.29745049e-06
9.92333246e-06
9.8744473e-06
9.37889765e-06
9.29615587e-06
9.29881032e-06
9.26315579e-06
9.14107672e-06
9.02354727e-06
8.98969888e-06
8.94928883e-06
8.87374564e-06
8.77807358e-06
8.72517168e-06
8.68235629e-06
8.62918695e-06
8.57671482e-06
8.53151942e-06
8.49049006e-06
8.45031339e-06
8.41119273e-06
8.37636358e-06
8.34602411e-06
8.31160918e-06
8.27093257e-06
8.23625915e-06
8.20411703e-06
8.17099695e-06
8.11853986e-06
8.04778372e-06
8.00026801e-06
7.96169226e-06
7.88239313e-06
7.76523095e-06
7.68606766e-06
7.66170249e-06
7.55830769e-06
7.43410721e-06
7.24493924e-06
7.17840987e-06
7.10385892e-06
6.96075337e-06
6.7642265e-06
6.6457846e-06
6.63153221e-06
6.47154119e-06
6.29741053e-06
6.06421436e-06
5.94958287e-06
5.82906195e-06
5.6449526e-06
5.43762038e-06
5.26418151e-06
5.11611787e-06
4.94895449e-06
4.75895513e-06
4.56523665e-06
4.3975029e-06
4.23610103e-06
4.06064777e-06
3.8839314e-06
3.71757039e-06
3.5579868e-06
3.40028118e-06
3.24342353e-06
3.09090939e-06
2.94392863e-06
2.8012816e-06
2.66310352e-06
2.52995119e-06
2.40134049e-06
2.27634659e-06
2.15630653e-06
2.04340425e-06
1.93585651e-06
1.83057242e-06
1.72963468e-06
1.63536614e-06
1.54763138e-06
1.46297562e-06
1.38043695e-06
1.30269911e-06
1.23185718e-06
1.16507644e-06
1.0994955e-06
1.03703706e-06
9.79562546e-07
9.26648115e-07
8.76252563e-07
8.27911564e-07
7.83042421e-07
7.42503354e-07
7.05392393e-07
6.71135246e-07
6.40226536e-07
6.13398157e-07
5.90865039e-07
5.72528103e-07
5.58543701e-07
5.49427665e-07
5.45617868e-07
5.47385205e-07
5.55002172e-07
5.68832075e-07
5.89269409e-07
6.1666857e-07
6.51336607e-07
6.93572879e-07
7.43667151e-07
8.01878617e-07
8.68424946e-07
9.43482117e-07
1.02718458e-06
1.11962142e-06
1.22083086e-06
1.33079782e-06
1.44945277e-06
1.57667059e-06
1.71226978e-06
1.85601222e-06
2.00760348e-06
2.16669387e-06
2.33287965e-06
2.50570467e-06
2.68466235e-06
2.86919783e-06
3.05871035e-06
3.2525558e-06
3.45004935e-06
3.65046816e-06
3.85305423e-06
4.05701731e-06
4.26153784e-06
4.46576997e-06
4.66884468e-06
4.86987307e-06
5.06794987e-06
5.26215714e-06
5.4515684e-06
5.63525314e-06
5.81228194e-06
5.98173217e-06
6.14269453e-06
6.29428041e-06
6.43563015e-06
6.5659224e-06
6.68438435e-06
6.79030288e-06
6.88303644e-06
6.96202804e-06
7.02681793e-06
7.07705687e-06
7.11251798e-06
7.13310831e-06
7.13888109e-06
7.13004543e-06
7.10696675e-06
7.07016621e-06
7.02033469e-06
6.95834002e-06
6.88518815e-06
6.80199132e-06
6.7100408e-06
6.61073743e-06
6.50561483e-06
6.39619803e-06
6.2839975e-06
6.17068943e-06
6.05809189e-06
5.94775626e-06
5.84091541e-06
5.73911217e-06
5.64423865e-06
5.55739644e-06
5.47961974e-06
5.41154869e-06
5.35443585e-06
5.30965954e-06
5.27747613e-06
5.25744371e-06
5.25016328e-06
5.25686692e-06
5.27715412e-06
5.31063946e-06
5.35644049e-06
5.41479211e-06
5.48609991e-06
5.56947278e-06
5.66347435e-06
5.76776073e-06
5.88241654e-06
6.00667414e-06
6.1396617e-06
6.2802533e-06
6.42798903e-06
6.5826253e-06
6.7433172e-06
6.90936166e-06
7.07983978e-06
7.25425718e-06
7.43225695e-06
7.61311404e-06
7.79579993e-06
7.97970648e-06
8.16409096e-06
8.34851128e-06
8.53198037e-06
8.71309152e-06
8.89096434e-06
9.06524659e-06
9.23489244e-06
9.39815501e-06
9.55417261e-06
9.70198129e-06
9.84143387e-06
9.97152852e-06
1.00909248e-05
1.01992976e-05
1.02969989e-05
1.03838766e-05
1.04595501e-05
1.05242658e-05
1.05784629e-05
1.06229788e-05
1.06583251e-05
1.06849598e-05
1.07036509e-05
1.07152763e-05
1.07205826e-05
1.07202994e-05
1.07151016e-05
1.07057332e-05
1.06929343e-05
1.06773929e-05
1.06597818e-05
1.06407836e-05
1.0621074e-05
1.06013184e-05
1.05821564e-05
1.05641998e-05
1.05480253e-05
1.05341623e-05
1.05230838e-05
1.05152022e-05
1.05108675e-05
1.05103714e-05
1.05139514e-05
1.05218014e-05
1.05340811e-05
1.05509304e-05
1.05724811e-05
1.05988504e-05
1.06301288e-05
1.06663891e-05
1.07076825e-05
1.07539534e-05
1.08049562e-05
1.08603171e-05
1.09195874e-05
1.09820255e-05
1.10464681e-05
1.11117216e-05
1.11764428e-05
1.12396447e-05
1.13000779e-05
1.1356143e-05
1.1407079e-05
1.14533904e-05
1.14952683e-05
1.15320562e-05
1.1564567e-05
1.15934064e-05
1.16207192e-05
1.16467115e-05
1.1669914e-05
1.16903296e-05
1.17093581e-05
1.17264119e-05
1.17391765e-05
1.17472624e-05
1.1750455e-05
1.17509989e-05
1.17494691e-05
1.17450271e-05
1.17388408e-05
1.17342788e-05
1.17325249e-05
1.17346058e-05
1.17367648e-05
1.1738921e-05
1.1750583e-05
1.17746732e-05
1.1794761e-05
1.18047862e-05
1.18386524e-05
1.19115783e-05
1.19492547e-05
1.19418812e-05
1.19505076e-05
1.20061644e-05
1.20352099e-05
1.20388287e-05
1.17722136e-05
1.1852871e-05
1.19249823e-05
1.19116617e-05
1.16200762e-05
1.15986055e-05
1.213034e-05
1.2331761e-05
1.24667816e-05
1.23966982e-05
1.32063718e-05
1.34491112e-05
1.36073926e-05
1.36116933e-05
1.38112864e-05
1.39600235e-05
1.40281727e-05
1.39525604e-05
1.38541761e-05
1.45100077e-05
1.46820855e-05
1.45879656e-05
1.44434179e-05
1.45318304e-05
1.45289328e-05
1.44799176e-05
1.42970933e-05
1.41079642e-05
1.41699999e-05
1.42543201e-05
1.42534372e-05
1.35860179e-05
1.32319762e-05
1.31956017e-05
1.34951691e-05
1.38349087e-05
1.38354509e-05
1.34357185e-05
1.33407364e-05
1.37930633e-05
1.39901283e-05
1.37791731e-05
1.36464531e-05
1.41645617e-05
1.43518053e-05
1.41789517e-05
1.40182768e-05
1.46001697e-05
1.48545457e-05
1.49043645e-05
1.47850516e-05
1.47970052e-05
1.45898784e-05
1.45421091e-05
1.39176687e-05
1.3730941e-05
1.39096159e-05
1.39106422e-05
1.33507827e-05
1.30136898e-05
1.32011313e-05
1.31609813e-05
1.27474261e-05
1.2376478e-05
1.27461656e-05
1.27506956e-05
1.2487963e-05
1.20967063e-05
1.23812679e-05
1.23517535e-05
1.19005156e-05
1.15434355e-05
1.17651125e-05
1.1699279e-05
1.14275185e-05
1.10441502e-05
1.08084111e-05
1.06768805e-05
1.05173638e-05
1.02616853e-05
9.91695913e-06
9.68719678e-06
9.6299516e-06
9.53867478e-06
9.32488352e-06
9.09335191e-06
8.92312363e-06
8.81733901e-06
8.77726365e-06
8.78218488e-06
8.66048602e-06
8.57270491e-06
7.9753235e-06
7.7514019e-06
7.60500037e-06
7.55275471e-06
7.50054448e-06
7.35674868e-06
7.17467993e-06
7.06984794e-06
7.04539277e-06
7.02134507e-06
6.88798326e-06
6.73165734e-06
6.65137487e-06
6.61994511e-06
6.6057553e-06
6.49431609e-06
6.34345677e-06
6.27397197e-06
6.23037766e-06
6.21632847e-06
6.11245733e-06
5.96383039e-06
5.89383273e-06
5.83916253e-06
5.80344855e-06
5.68979019e-06
5.50219313e-06
5.38308572e-06
5.3155244e-06
5.2114656e-06
5.02822147e-06
4.84656064e-06
4.68426637e-06
4.60690095e-06
4.43896951e-06
4.3309524e-06
4.16515501e-06
3.95392766e-06
3.72497868e-06
3.75904615e-06
3.63296872e-06
3.40742135e-06
3.19609271e-06
)
;

boundaryField
{
    closed
    {
        type            calculated;
        value           nonuniform List<scalar> 0();
    }
    open
    {
        type            calculated;
        value           nonuniform List<scalar> 0();
    }
    sides
    {
        type            empty;
        value           nonuniform List<scalar> 0();
    }
    procBoundary3to2
    {
        type            processor;
        value           uniform -1.83426512e-05;
    }
    procBoundary3to4
    {
        type            processor;
        value           uniform 3.23005606e-06;
    }
}


// ************************************************************************* //
