/*--------------------------------*- C++ -*----------------------------------*\
| =========                 |                                                 |
| \\      /  F ield         | OpenFOAM: The Open Source CFD Toolbox           |
|  \\    /   O peration     | Version:  2306                                  |
|   \\  /    A nd           | Website:  www.openfoam.com                      |
|    \\/     M anipulation  |                                                 |
\*---------------------------------------------------------------------------*/
FoamFile
{
    version     2.0;
    format      ascii;
    arch        "LSB;label=32;scalar=64";
    class       volScalarField;
    location    "0.00066";
    object      prefDZ_T;
}
// * * * * * * * * * * * * * * * * * * * * * * * * * * * * * * * * * * * * * //

dimensions      [1 -1 -1 -1 0 0 0];

internalField   nonuniform List<scalar> 
531
(
-1.18907382e-09
-1.1890366e-09
-1.22383074e-09
-1.22845543e-09
-1.20521369e-09
-1.18782418e-09
-1.19427688e-09
-1.23414528e-09
-1.20673297e-09
-1.18902162e-09
-1.20700122e-09
-1.23068436e-09
-1.21159881e-09
-1.18942298e-09
-1.1893852e-09
-1.22873243e-09
-1.22783011e-09
-1.2048774e-09
-1.18709026e-09
-1.18701381e-09
-1.22465401e-09
-1.22751972e-09
-1.22783316e-09
-1.22633788e-09
-1.21792277e-09
-1.19238524e-09
-1.19047358e-09
-1.19034601e-09
-1.18999359e-09
-1.18964018e-09
-1.19486017e-09
-1.23172187e-09
-1.22669294e-09
-1.20447268e-09
-1.18847347e-09
-1.18911522e-09
-1.23005162e-09
-1.22613659e-09
-1.23318047e-09
-1.19277762e-09
-1.1877096e-09
-1.18854025e-09
-1.23341047e-09
-1.22744326e-09
-1.19893957e-09
-1.18755442e-09
-1.18923168e-09
-1.23351316e-09
-1.22749752e-09
-1.19749104e-09
-1.18701494e-09
-1.18888321e-09
-1.2338998e-09
-1.22711612e-09
-1.22745123e-09
-1.22715037e-09
-1.198911e-09
-1.18895303e-09
-1.18832121e-09
-1.18717456e-09
-1.18918034e-09
-1.23379471e-09
-1.22566043e-09
-1.22596816e-09
-1.19270186e-09
-1.18666208e-09
-1.19576448e-09
-1.23074707e-09
-1.21929146e-09
-1.18951054e-09
-1.19172866e-09
-1.22976027e-09
-1.226233e-09
-1.19859873e-09
-1.18906047e-09
-1.18867883e-09
-1.1911074e-09
-1.22945478e-09
-1.22672727e-09
-1.19363212e-09
-1.18753642e-09
-1.19275922e-09
-1.22983254e-09
-1.2304068e-09
-1.18919618e-09
-1.18931297e-09
-1.23129028e-09
-1.22645834e-09
-1.20343368e-09
-1.18924006e-09
-1.1885268e-09
-1.19356015e-09
-1.22905837e-09
-1.22711095e-09
-1.1890319e-09
-1.18758816e-09
-1.23174304e-09
-1.22706654e-09
-1.19524432e-09
-1.18992509e-09
-1.19627269e-09
-1.21059314e-09
-1.21102746e-09
-1.20024887e-09
-1.19964769e-09
-1.204873e-09
-1.20605197e-09
-1.2042518e-09
-1.20338623e-09
-1.20381442e-09
-1.20418067e-09
-1.20407267e-09
-1.20391939e-09
-1.2040616e-09
-1.20433286e-09
-1.20411712e-09
-1.20342709e-09
-1.20357781e-09
-1.2050596e-09
-1.20512295e-09
-1.20275773e-09
-1.20215758e-09
-1.20518351e-09
-1.20716304e-09
-1.20379522e-09
-1.19995897e-09
-1.20235059e-09
-1.21008251e-09
-1.20881838e-09
-1.19842055e-09
-1.19774204e-09
-1.20916368e-09
-1.21463884e-09
-1.20297845e-09
-1.19553904e-09
-1.20026136e-09
-1.21585143e-09
-1.213368e-09
-1.19717428e-09
-1.19622315e-09
-1.20723354e-09
-1.21462564e-09
-1.20506669e-09
-1.19761654e-09
-1.20008468e-09
-1.20913709e-09
-1.20952472e-09
-1.20191561e-09
-1.20038272e-09
-1.20373813e-09
-1.20665686e-09
-1.20525045e-09
-1.20265715e-09
-1.20280224e-09
-1.20456628e-09
-1.20479515e-09
-1.20406982e-09
-1.20369493e-09
-1.20389111e-09
-1.20408918e-09
-1.20407704e-09
-1.20410697e-09
-1.20414662e-09
-1.20396709e-09
-1.20378018e-09
-1.20397749e-09
-1.20437436e-09
-1.20427467e-09
-1.20367935e-09
-1.20364383e-09
-1.20428487e-09
-1.2044946e-09
-1.20399517e-09
-1.20357743e-09
-1.20385773e-09
-1.2044283e-09
-1.20436299e-09
-1.20376465e-09
-1.20370018e-09
-1.20411019e-09
-1.20431371e-09
-1.20409718e-09
-1.20384057e-09
-1.20390525e-09
-1.20414043e-09
-1.20415227e-09
-1.2040033e-09
-1.20395422e-09
-1.20401672e-09
-1.20407653e-09
-1.20406035e-09
-1.20401429e-09
-1.20401264e-09
-1.20403685e-09
-1.20404408e-09
-1.20403593e-09
-1.20402853e-09
-1.20403012e-09
-1.20403471e-09
-1.20403493e-09
-1.20403305e-09
-1.20403245e-09
-1.20403295e-09
-1.20403342e-09
-1.20403335e-09
-1.20403312e-09
-1.20403311e-09
-1.20403318e-09
-1.2040332e-09
-1.20403319e-09
-1.20403317e-09
-1.20403317e-09
-1.20403318e-09
-1.20403318e-09
-1.20403318e-09
-1.20403318e-09
-1.20403318e-09
-1.20403318e-09
-1.20403318e-09
-1.20403318e-09
-1.20403318e-09
-1.20403318e-09
-1.20403318e-09
-1.20403318e-09
-1.20403318e-09
-1.20403318e-09
-1.20403318e-09
-1.20403318e-09
-1.20403318e-09
-1.20403318e-09
-1.20403318e-09
-1.20403318e-09
-1.20403318e-09
-1.20403318e-09
-1.20403318e-09
-1.20403318e-09
-1.20403318e-09
-1.20403318e-09
-1.20403318e-09
-1.20403318e-09
-1.20403318e-09
-1.20403317e-09
-1.20403317e-09
-1.20403321e-09
-1.20403322e-09
-1.20403311e-09
-1.20403307e-09
-1.20403329e-09
-1.20403347e-09
-1.20403308e-09
-1.20403248e-09
-1.20403307e-09
-1.20403468e-09
-1.20403412e-09
-1.20403023e-09
-1.20403017e-09
-1.20403816e-09
-1.20403939e-09
-1.20402733e-09
-1.20402148e-09
-1.20403731e-09
-1.20405299e-09
-1.20403619e-09
-1.20400314e-09
-1.20401447e-09
-1.20407354e-09
-1.20407508e-09
-1.2039902e-09
-1.20397259e-09
-1.2040556e-09
-1.20411083e-09
-1.20404584e-09
-1.20394681e-09
-1.2039777e-09
-1.20411581e-09
-1.2041217e-09
-1.20397869e-09
-1.20393964e-09
-1.20403551e-09
-1.20411756e-09
-1.20407262e-09
-1.20396976e-09
-1.2039721e-09
-1.2040706e-09
-1.20408682e-09
-1.2040322e-09
-1.2039931e-09
-1.20401303e-09
-1.20405929e-09
-1.2040603e-09
-1.20402002e-09
-1.20400898e-09
-1.20403123e-09
-1.20405542e-09
-1.20404612e-09
-1.20401121e-09
-1.20401032e-09
-1.20405355e-09
-1.20406321e-09
-1.20402351e-09
-1.20399628e-09
-1.20402647e-09
-1.20407397e-09
-1.20405958e-09
-1.2039944e-09
-1.20399194e-09
-1.20405902e-09
-1.2040766e-09
-1.20403107e-09
-1.20399517e-09
-1.20401674e-09
-1.20406086e-09
-1.20405809e-09
-1.20401742e-09
-1.20401217e-09
-1.20403484e-09
-1.20404758e-09
-1.2040387e-09
-1.20402529e-09
-1.20402652e-09
-1.2040364e-09
-1.20403754e-09
-1.20403315e-09
-1.2040309e-09
-1.20403224e-09
-1.20403411e-09
-1.20403398e-09
-1.20403292e-09
-1.2040328e-09
-1.20403314e-09
-1.20403332e-09
-1.20403325e-09
-1.20403314e-09
-1.20403314e-09
-1.20403319e-09
-1.20403319e-09
-1.20403316e-09
-1.20403317e-09
-1.20403323e-09
-1.20403323e-09
-1.20403305e-09
-1.20403303e-09
-1.20403342e-09
-1.20403356e-09
-1.20403281e-09
-1.20403228e-09
-1.20403354e-09
-1.2040351e-09
-1.20403334e-09
-1.2040294e-09
-1.20403117e-09
-1.20403987e-09
-1.20403968e-09
-1.20402265e-09
-1.2040207e-09
-1.20404445e-09
-1.20405463e-09
-1.20402631e-09
-1.20399998e-09
-1.20402737e-09
-1.20407886e-09
-1.204062e-09
-1.20397881e-09
-1.20397625e-09
-1.20408316e-09
-1.20410766e-09
-1.20401412e-09
-1.20394832e-09
-1.20401137e-09
-1.20411766e-09
-1.20409664e-09
-1.20396266e-09
-1.2039487e-09
-1.20406202e-09
-1.20412443e-09
-1.20406039e-09
-1.20393649e-09
-1.2039442e-09
-1.20414614e-09
-1.20417676e-09
-1.20391477e-09
-1.20377263e-09
-1.20416627e-09
-1.20456805e-09
-1.20393665e-09
-1.20292926e-09
-1.20381977e-09
-1.20619912e-09
-1.20514678e-09
-1.20024647e-09
-1.20084915e-09
-1.21031616e-09
-1.21074965e-09
-1.19627803e-09
-1.19455959e-09
-1.21402647e-09
-1.22262384e-09
-1.1972733e-09
-1.19016659e-09
-1.20479738e-09
-1.2315517e-09
-1.21427156e-09
-1.18921568e-09
-1.19084159e-09
-1.23316659e-09
-1.22605684e-09
-1.1903707e-09
-1.19169966e-09
-1.23411727e-09
-1.23161666e-09
-1.19464841e-09
-1.1884336e-09
-1.1949995e-09
-1.23298855e-09
-1.21979247e-09
-1.19013949e-09
-1.19469099e-09
-1.23268285e-09
-1.23138038e-09
-1.19320653e-09
-1.18844648e-09
-1.19522628e-09
-1.23223574e-09
-1.23086321e-09
-1.19666549e-09
-1.18934443e-09
-1.19009129e-09
-1.2315225e-09
-1.22860272e-09
-1.20876229e-09
-1.18912362e-09
-1.18788867e-09
-1.20352603e-09
-1.23068561e-09
-1.21098359e-09
-1.18942364e-09
-1.19857684e-09
-1.23159867e-09
-1.21316252e-09
-1.18907391e-09
-1.1962664e-09
-1.23196885e-09
-1.21499707e-09
-1.18943506e-09
-1.19282281e-09
-1.23256784e-09
-1.23048274e-09
-1.19092562e-09
-1.18735642e-09
-1.20715994e-09
-1.23011878e-09
-1.20433539e-09
-1.18888748e-09
-1.20300536e-09
-1.23041867e-09
-1.20867237e-09
-1.18874488e-09
-1.1973562e-09
-1.23114962e-09
-1.2175627e-09
-1.18847246e-09
-1.19273132e-09
-1.23192679e-09
-1.21409278e-09
-1.18826288e-09
-1.19824603e-09
-1.23047714e-09
-1.21267052e-09
-1.1890476e-09
-1.19254425e-09
-1.23048712e-09
-1.22819369e-09
-1.19518428e-09
-1.18781623e-09
-1.19174668e-09
-1.23069832e-09
-1.22712857e-09
-1.19748549e-09
-1.18749001e-09
-1.19274054e-09
-1.2320967e-09
-1.22541355e-09
-1.22554178e-09
-1.20023226e-09
-1.18899894e-09
-1.18870941e-09
-1.18749154e-09
-1.18981553e-09
-1.23050284e-09
-1.22706188e-09
-1.19454368e-09
-1.18774815e-09
-1.19275254e-09
-1.22942403e-09
-1.22656104e-09
-1.19559212e-09
-1.18817721e-09
-1.19434159e-09
-1.22878162e-09
-1.22692911e-09
-1.19369322e-09
-1.18748422e-09
-1.19303034e-09
-1.22888259e-09
-1.22724399e-09
-1.19193234e-09
-1.18706006e-09
-1.19274985e-09
-1.22867912e-09
-1.22703073e-09
-1.19189868e-09
-1.18717127e-09
-1.19208966e-09
-1.22811561e-09
-1.22652934e-09
-1.19513545e-09
-1.18776241e-09
-1.19491032e-09
-1.23053695e-09
-1.22513527e-09
-1.22832723e-09
-1.19408824e-09
-1.188009e-09
-1.18702675e-09
-1.19523228e-09
-1.22901695e-09
-1.21274963e-09
-1.1873443e-09
-1.19637307e-09
-1.22850675e-09
-1.21379923e-09
)
;

boundaryField
{
    closed
    {
        type            calculated;
        value           nonuniform List<scalar> 0();
    }
    open
    {
        type            calculated;
        value           nonuniform List<scalar> 0();
    }
    sides
    {
        type            empty;
    }
    procBoundary3to2
    {
        type            processor;
        value           uniform -1.2101346e-09;
    }
    procBoundary3to4
    {
        type            processor;
        value           uniform -1.18824785e-09;
    }
}


// ************************************************************************* //
