/*--------------------------------*- C++ -*----------------------------------*\
| =========                 |                                                 |
| \\      /  F ield         | OpenFOAM: The Open Source CFD Toolbox           |
|  \\    /   O peration     | Version:  2306                                  |
|   \\  /    A nd           | Website:  www.openfoam.com                      |
|    \\/     M anipulation  |                                                 |
\*---------------------------------------------------------------------------*/
FoamFile
{
    version     2.0;
    format      ascii;
    arch        "LSB;label=32;scalar=64";
    class       volScalarField;
    location    "0.00036";
    object      rho;
}
// * * * * * * * * * * * * * * * * * * * * * * * * * * * * * * * * * * * * * //

dimensions      [1 -3 0 0 0 0 0];

internalField   nonuniform List<scalar> 
531
(
0.905411122
0.908336762
0.958337274
0.944830336
0.905642534
0.909627221
0.959790103
0.945884701
0.905727575
0.909869987
0.966627407
0.931893878
0.908087218
0.948413813
0.93983927
0.906397243
0.938073239
0.955441719
0.93957797
0.904760701
0.906631074
0.956981541
0.937666184
0.905861718
0.939683891
0.949711805
0.927937383
0.917512783
0.937867681
0.939106473
0.93518724
0.931823674
0.935860143
0.937314605
0.935949172
0.935110099
0.935722545
0.936049721
0.935861554
0.935732379
0.935799968
0.935860706
0.935862313
0.93586854
0.935899209
0.935935316
0.935968779
0.936005111
0.936046141
0.93608996
0.93613519
0.93618178
0.936229372
0.936277307
0.936324938
0.936371751
0.936417234
0.936460886
0.936502251
0.936540929
0.936576575
0.936608905
0.936637699
0.936662806
0.936684148
0.936701717
0.936715579
0.936725872
0.936732802
0.936736638
0.936737712
0.936736404
0.936733138
0.936728365
0.936722559
0.936716211
0.936709807
0.936703798
0.936698621
0.93669471
0.936692456
0.936692146
0.936693994
0.936698237
0.936705099
0.936714643
0.936726732
0.936741294
0.936758414
0.936777917
0.936799357
0.936822405
0.936846881
0.936872453
0.936898569
0.936924698
0.936950439
0.936975366
0.936998921
0.937020538
0.93703975
0.937056118
0.937069165
0.937078409
0.937083467
0.937084105
0.937080127
0.937070981
0.937056264
0.937036516
0.937012426
0.936983089
0.936946745
0.936904359
0.936860606
0.93681701
0.93676352
0.936696429
0.936634183
0.936586256
0.936529871
0.936445114
0.936356275
0.936303237
0.936270973
0.936192335
0.936061892
0.935991904
0.935989182
0.935933243
0.935799536
0.935697317
0.935679318
0.93565674
0.935552292
0.93542487
0.935370426
0.935354941
0.93527681
0.935151186
0.935073231
0.935028244
0.93495377
0.934851941
0.934761739
0.934688298
0.934609412
0.93451913
0.934430464
0.934349615
0.934270898
0.934191579
0.934116056
0.934047596
0.933985593
0.933929986
0.933882971
0.933846506
0.933821157
0.933807537
0.933807042
0.933820904
0.933849655
0.933893666
0.933953457
0.934029335
0.934121176
0.934228589
0.934351039
0.934487739
0.934637595
0.934799258
0.934971177
0.935151514
0.935338493
0.935530085
0.935724196
0.935918698
0.93611143
0.936300284
0.936483266
0.936658526
0.936824391
0.936979357
0.937122117
0.937251679
0.937367428
0.937468928
0.937555526
0.937626945
0.937684139
0.937728085
0.937758322
0.93777396
0.937776412
0.937769913
0.93775676
0.937730092
0.937688861
0.937641835
0.937594936
0.93754873
0.937486916
0.937410308
0.937328981
0.93725582
0.937203185
0.937147042
0.937053056
0.936889986
0.936808555
0.936864406
0.936844226
0.936589168
0.936321982
0.936419605
0.936730091
0.936590147
0.935824678
0.935754493
0.936500179
0.936665395
0.935828455
0.935189899
0.935854325
0.936636169
0.936198433
0.934975299
0.935057618
0.936339128
0.936314506
0.935215621
0.934876764
0.935640179
0.93599738
0.935463476
0.934874841
0.935080041
0.935526232
0.935378012
0.934815477
0.934740611
0.934989497
0.934965483
0.934703966
0.934532698
0.934508119
0.934458478
0.934366467
0.93437283
0.934347763
0.934042041
0.933777964
0.934064661
0.934549105
0.934293898
0.933163028
0.933235561
0.934810536
0.935163979
0.933629854
0.932503073
0.934294387
0.936095915
0.935493279
0.932808911
0.933286299
0.936696559
0.937015888
0.93477586
0.93408736
0.936555857
0.937941205
0.936953538
0.93493144
0.935903423
0.938933159
0.939063722
0.935847426
0.93440352
0.93816029
0.940416087
0.939123409
0.932554505
0.933240693
0.940350628
0.940841137
0.936391648
0.929871958
0.935793564
0.940636518
0.940274312
0.932422133
0.930078356
0.937736514
0.940045487
0.939112258
0.932105915
0.931211885
0.937340857
0.939374375
0.938649007
0.933069768
0.931537599
0.936583312
0.938938961
0.938415643
0.934084388
0.932556365
0.935747315
0.938463652
0.938431808
0.936051922
0.933504445
0.93471163
0.938661366
0.938966463
0.936207083
0.933806335
0.936636407
0.939350648
0.938650271
0.934821583
0.935157616
0.939082299
0.93929916
0.936355886
0.93508282
0.937857706
0.939139279
0.937663656
0.935374136
0.936361942
0.938332468
0.93808403
0.936212835
0.936135479
0.937133051
0.937270123
0.936860089
0.936745025
0.936807739
0.936601936
0.936360313
0.936730499
0.937404501
0.937305982
0.935658603
0.935184397
0.937285015
0.938874103
0.937519271
0.931927048
0.933239848
0.940048556
0.940040836
0.929814369
0.9260336
0.939814241
0.939953416
0.928994818
0.925001634
0.941728325
0.942539198
0.90274421
0.903958843
0.947415759
0.952406225
0.933027523
0.902104417
0.902714356
0.956850712
0.957513569
0.942869838
0.933120897
0.898974538
0.899415405
0.9628809
0.962908554
0.897801841
0.896050396
0.901227148
0.97002387
0.967072634
0.898847649
0.899372531
0.909565899
0.973807177
0.958000402
0.90408754
0.905319673
0.905984438
0.906224997
0.906655101
0.906036625
0.905105766
0.902674853
0.898234261
0.88888406
0.888878266
0.899538701
0.909965764
0.918437105
0.925717508
0.930182665
0.936904322
0.938644572
0.953611183
0.960098275
0.965422102
0.968266723
0.975720094
0.990071636
0.972089384
1.0214803
0.924154962
0.835240127
0.820069519
0.780903325
0.819737686
0.786903881
0.808729367
0.725247733
0.714036954
0.66943176
0.621875926
0.567541951
0.497376706
0.440909429
0.411628388
0.386105857
0.364031321
0.345087936
0.331022976
0.318470116
0.307769303
0.297710529
0.288827431
0.280486811
0.273170296
0.266275187
0.260273796
0.254501424
0.249615228
0.245212776
0.241474788
0.23799411
0.235088656
0.23247797
0.230165676
0.227947392
0.225683626
0.22358785
0.221523741
0.219796587
0.217973298
0.216361468
0.214740707
0.213302195
0.212014007
0.210650847
0.209381477
0.208228949
0.207300805
0.206334196
0.205548553
0.204661182
0.20393385
0.203060376
0.202337676
0.201505844
0.200832455
0.20001788
0.199388965
0.198631533
0.198092559
0.197454779
0.197036283
0.196492387
0.196120045
0.195621929
0.195260352
0.194782767
0.194438592
0.194010635
0.193644147
0.193174476
0.192830995
0.192392252
0.192056309
0.191654928
0.191348175
0.190992259
0.190712684
0.190412448
0.190192679
0.189949576
0.189746299
0.189526361
0.189339553
0.189140746
0.188979155
0.188812749
0.188671186
0.188525381
0.18840269
0.188275381
0.188170063
0.188063825
0.187984729
0.187898348
0.187825049
0.187750524
0.18768796
0.187626815
0.187570821
0.187518211
0.187470124
0.18743036
0.18739936
0.187375133
0.187349749
0.187332235
0.187311735
0.187300203
0.187284049
0.187277846
0.187265634
0.187264181
0.187255596
0.187258641
)
;

boundaryField
{
    closed
    {
        type            calculated;
        value           nonuniform List<scalar> 0();
    }
    open
    {
        type            calculated;
        value           nonuniform List<scalar> 0();
    }
    sides
    {
        type            empty;
    }
    procBoundary4to3
    {
        type            processor;
        value           uniform 0.941225676;
    }
    procBoundary4to5
    {
        type            processor;
        value           uniform 0.187262219;
    }
}


// ************************************************************************* //
