/*--------------------------------*- C++ -*----------------------------------*\
| =========                 |                                                 |
| \\      /  F ield         | OpenFOAM: The Open Source CFD Toolbox           |
|  \\    /   O peration     | Version:  2306                                  |
|   \\  /    A nd           | Website:  www.openfoam.com                      |
|    \\/     M anipulation  |                                                 |
\*---------------------------------------------------------------------------*/
FoamFile
{
    version     2.0;
    format      ascii;
    arch        "LSB;label=32;scalar=64";
    class       volScalarField;
    location    "0.00094";
    object      prefDPV_H2O;
}
// * * * * * * * * * * * * * * * * * * * * * * * * * * * * * * * * * * * * * //

dimensions      [1 -1 -1 0 0 0 0];

internalField   nonuniform List<scalar> 
531
(
-3.84619166e-07
-3.68957252e-07
-3.64548885e-07
-3.64809322e-07
-3.8027246e-07
-3.85549762e-07
-3.70820908e-07
-3.67164758e-07
-3.78290213e-07
-3.8576692e-07
-3.70708739e-07
-3.67342344e-07
-3.79242762e-07
-3.86156913e-07
-3.70416549e-07
-3.65054672e-07
-3.656698e-07
-3.83030082e-07
-3.86716782e-07
-3.70598662e-07
-3.67753058e-07
-3.81176811e-07
-3.86650534e-07
-3.69743567e-07
-3.65174933e-07
-3.66205248e-07
-3.84888764e-07
-3.86207246e-07
-3.70227791e-07
-3.68094669e-07
-3.83102884e-07
-3.86168917e-07
-3.68873538e-07
-3.65307496e-07
-3.67210846e-07
-3.86321693e-07
-3.86335672e-07
-3.67685222e-07
-3.65017569e-07
-3.64965183e-07
-3.68822981e-07
-3.8659414e-07
-3.84131868e-07
-3.84706057e-07
-3.84253557e-07
-3.86785898e-07
-3.65451743e-07
-3.64370725e-07
-3.64840882e-07
-3.65108544e-07
-3.69703946e-07
-3.86214258e-07
-3.84108799e-07
-3.85437064e-07
-3.65606712e-07
-3.64910412e-07
-3.70902427e-07
-3.85876242e-07
-3.84927243e-07
-3.6584938e-07
-3.65226456e-07
-3.72020998e-07
-3.85791703e-07
-3.83150032e-07
-3.65513608e-07
-3.64675975e-07
-3.65271354e-07
-3.74856338e-07
-3.85105626e-07
-3.84489476e-07
-3.84641104e-07
-3.84670231e-07
-3.78721066e-07
-3.64927554e-07
-3.64494233e-07
-3.65259692e-07
-3.75727906e-07
-3.85501731e-07
-3.78533251e-07
-3.65636789e-07
-3.65638236e-07
-3.761476e-07
-3.85382813e-07
-3.78406292e-07
-3.65872785e-07
-3.66003429e-07
-3.7741167e-07
-3.85251987e-07
-3.77925356e-07
-3.65907958e-07
-3.66174867e-07
-3.7789875e-07
-3.85362126e-07
-3.7787788e-07
-3.65005476e-07
-3.64703765e-07
-3.66140899e-07
-3.79121813e-07
-3.85834436e-07
-3.73933271e-07
-3.67109656e-07
-3.74013499e-07
-3.86711471e-07
-3.75056417e-07
-3.66962845e-07
-3.73234494e-07
-3.86979757e-07
-3.76220981e-07
-3.65026687e-07
-3.65427527e-07
-3.77442899e-07
-3.85901151e-07
-3.76196262e-07
-3.68356903e-07
-3.7381188e-07
-3.85727604e-07
-3.83729529e-07
-3.67029683e-07
-3.65592005e-07
-3.66986644e-07
-3.80362169e-07
-3.8524822e-07
-3.79011605e-07
-3.65385398e-07
-3.64974244e-07
-3.66132546e-07
-3.78535772e-07
-3.86849569e-07
-3.70988577e-07
-3.66018613e-07
-3.73789637e-07
-3.86795839e-07
-3.74311384e-07
-3.66542119e-07
-3.72714477e-07
-3.86373003e-07
-3.74607943e-07
-3.6662308e-07
-3.73230924e-07
-3.86456354e-07
-3.75492046e-07
-3.66286937e-07
-3.70679821e-07
-3.86096185e-07
-3.837473e-07
-3.65840951e-07
-3.64890142e-07
-3.72363002e-07
-3.85324265e-07
-3.78983546e-07
-3.6616648e-07
-3.6936885e-07
-3.85241454e-07
-3.86348494e-07
-3.66891134e-07
-3.64481923e-07
-3.67887253e-07
-3.84628123e-07
-3.8600898e-07
-3.67404712e-07
-3.64283241e-07
-3.66478287e-07
-3.84414299e-07
-3.85176316e-07
-3.67285463e-07
-3.66620942e-07
-3.85116271e-07
-3.84664137e-07
-3.68542812e-07
-3.64612359e-07
-3.66749881e-07
-3.84184539e-07
-3.84122057e-07
-3.68834415e-07
-3.64578882e-07
-3.67723162e-07
-3.84172213e-07
-3.83739084e-07
-3.6803639e-07
-3.64978247e-07
-3.64629269e-07
-3.66590683e-07
-3.85797914e-07
-3.83389039e-07
-3.8623037e-07
-3.66902551e-07
-3.66559252e-07
-3.85443239e-07
-3.83968796e-07
-3.68941783e-07
-3.64670474e-07
-3.64390896e-07
-3.70812508e-07
-3.85574001e-07
-3.83511439e-07
-3.84029766e-07
-3.67600312e-07
-3.64955056e-07
-3.65268503e-07
-3.64696562e-07
-3.66722753e-07
-3.8544109e-07
-3.84900873e-07
-3.6627044e-07
-3.65223642e-07
-3.86085898e-07
-3.84547778e-07
-3.66694406e-07
-3.65465922e-07
-3.86137716e-07
-3.85190432e-07
-3.66553603e-07
-3.65833794e-07
-3.86646051e-07
-3.84282234e-07
-3.67684781e-07
-3.65559006e-07
-3.81078355e-07
-3.84403281e-07
-3.78691898e-07
-3.65522849e-07
-3.64907918e-07
-3.75899735e-07
-3.84867896e-07
-3.78143635e-07
-3.65128338e-07
-3.64647558e-07
-3.78143891e-07
-3.84780509e-07
-3.76346633e-07
-3.65024245e-07
-3.64540694e-07
-3.77015286e-07
-3.84643644e-07
-3.72769956e-07
-3.66137135e-07
-3.77830392e-07
-3.84781661e-07
-3.75006171e-07
-3.64352423e-07
-3.64042122e-07
-3.8343163e-07
-3.84397157e-07
-3.6970356e-07
-3.6558e-07
-3.80617307e-07
-3.84398334e-07
-3.69103586e-07
-3.65622052e-07
-3.85560803e-07
-3.84448601e-07
-3.72317816e-07
-3.64206778e-07
-3.63984861e-07
-3.85499916e-07
-3.84165505e-07
-3.68664647e-07
-3.66092634e-07
-3.86446307e-07
-3.84105186e-07
-3.72915721e-07
-3.64720727e-07
-3.64625078e-07
-3.86776254e-07
-3.84248208e-07
-3.74208104e-07
-3.64893348e-07
-3.64705252e-07
-3.86649292e-07
-3.84000541e-07
-3.72567471e-07
-3.65661048e-07
-3.64242106e-07
-3.64184513e-07
-3.86805377e-07
-3.84687249e-07
-3.85054949e-07
-3.85118452e-07
-3.84281296e-07
-3.85077765e-07
-3.66659448e-07
-3.6535998e-07
-3.66082128e-07
-3.6600248e-07
-3.66037274e-07
-3.65253933e-07
-3.65270592e-07
-3.84614502e-07
-3.84064363e-07
-3.72609194e-07
-3.64632966e-07
-3.64662054e-07
-3.84288453e-07
-3.83944538e-07
-3.66411585e-07
-3.65675596e-07
-3.84431343e-07
-3.83955034e-07
-3.66117171e-07
-3.65944988e-07
-3.84504567e-07
-3.84311369e-07
-3.68319062e-07
-3.63988068e-07
-3.64710519e-07
-3.84372192e-07
-3.842539e-07
-3.66499663e-07
-3.66261455e-07
-3.84549672e-07
-3.84224559e-07
-3.69500482e-07
-3.64406867e-07
-3.65305206e-07
-3.84422773e-07
-3.84344532e-07
-3.70741494e-07
-3.6452735e-07
-3.65417195e-07
-3.84473347e-07
-3.84323036e-07
-3.71078432e-07
-3.64566203e-07
-3.65447572e-07
-3.84538244e-07
-3.84339818e-07
-3.71253502e-07
-3.64551292e-07
-3.65444913e-07
-3.8457461e-07
-3.84352682e-07
-3.71360155e-07
-3.64535191e-07
-3.6543328e-07
-3.84554349e-07
-3.84370252e-07
-3.71468341e-07
-3.6449172e-07
-3.65372545e-07
-3.84498693e-07
-3.84398815e-07
-3.71280651e-07
-3.64337322e-07
-3.65229262e-07
-3.84413603e-07
-3.84432769e-07
-3.70633901e-07
-3.64143619e-07
-3.64997337e-07
-3.84365699e-07
-3.84147646e-07
-3.67250061e-07
-3.65925141e-07
-3.86910332e-07
-3.8423451e-07
-3.73046574e-07
-3.64088866e-07
-3.64638173e-07
-3.8457309e-07
-3.84383603e-07
-3.72112569e-07
-3.64017146e-07
-3.64704807e-07
-3.84711342e-07
-3.84359532e-07
-3.7383933e-07
-3.63687726e-07
-3.64119256e-07
-3.85482483e-07
-3.84215329e-07
-3.84902923e-07
-3.7841481e-07
-3.62858407e-07
-3.62961992e-07
-3.848728e-07
-3.84163474e-07
-3.74127245e-07
-3.61865097e-07
-3.62175772e-07
-3.8449903e-07
-3.83720697e-07
-3.73976282e-07
-3.60373456e-07
-3.60413115e-07
-3.83993673e-07
-3.81698778e-07
-3.82973942e-07
-3.80400658e-07
-3.823354e-07
-3.78760579e-07
-3.770475e-07
-3.58077496e-07
-3.78221456e-07
-3.75181769e-07
-3.76885977e-07
-3.73234809e-07
-3.73501476e-07
-3.70866238e-07
-3.70303524e-07
-3.68225445e-07
-3.67239305e-07
-3.65511345e-07
-3.6441655e-07
-3.63076328e-07
-3.6250824e-07
-3.62012749e-07
-3.60213296e-07
-3.58234324e-07
-3.56025173e-07
-3.53593582e-07
-3.51059486e-07
-3.48115807e-07
-3.45339511e-07
-3.4236799e-07
-3.41047977e-07
-3.39987379e-07
-3.37090091e-07
-3.34105395e-07
-3.2967069e-07
-3.25596342e-07
-3.20015642e-07
-3.14279566e-07
-3.07996196e-07
-3.01961747e-07
-2.99460953e-07
-3.05582138e-07
-2.98608584e-07
-2.90411942e-07
-2.83212593e-07
-2.73811245e-07
-2.67204491e-07
-2.56245856e-07
-2.50606256e-07
-2.39646162e-07
-2.41198417e-07
-2.1758801e-07
-2.18947259e-07
-1.82308496e-07
-1.63198026e-07
-1.38770712e-07
-1.31080777e-07
-7.71032724e-08
-6.07906519e-08
-3.30730593e-08
7.58543153e-10
5.24195243e-08
1.18660506e-07
1.82393799e-07
2.29913749e-07
2.92952719e-07
3.63192166e-07
4.09930384e-07
4.46734514e-07
4.79772784e-07
5.15772508e-07
5.48554122e-07
5.79489992e-07
6.06591996e-07
6.32851889e-07
6.55843616e-07
6.78293012e-07
6.98029292e-07
7.1741061e-07
7.34406522e-07
7.50989627e-07
7.65394339e-07
7.79020002e-07
7.90280549e-07
8.00524366e-07
8.10370606e-07
8.20456841e-07
8.30293163e-07
8.39910032e-07
8.4922485e-07
8.58646936e-07
8.67338327e-07
8.75884999e-07
8.83439704e-07
8.91237827e-07
8.98257531e-07
9.0555005e-07
9.13336283e-07
9.22556603e-07
9.30327942e-07
9.37480416e-07
9.42281646e-07
9.47749479e-07
9.52366461e-07
9.57245461e-07
9.61383257e-07
9.65894354e-07
9.69806532e-07
9.74058714e-07
9.77757743e-07
9.81799293e-07
9.8574689e-07
9.90088462e-07
9.94000105e-07
9.98899099e-07
1.00284722e-06
1.00674825e-06
1.01015783e-06
1.01378554e-06
1.01701822e-06
1.02053323e-06
1.02362327e-06
1.02696267e-06
1.02990988e-06
1.03292762e-06
1.03557187e-06
1.03843379e-06
1.04097519e-06
1.04372341e-06
1.04629823e-06
1.04928631e-06
1.05193411e-06
1.05472299e-06
1.05719789e-06
1.05980334e-06
1.06211869e-06
1.06453385e-06
1.06653173e-06
1.0686462e-06
1.07054476e-06
1.07255408e-06
1.07436057e-06
1.07627254e-06
1.07799356e-06
1.07981558e-06
1.08140642e-06
1.08308491e-06
)
;

boundaryField
{
    closed
    {
        type            calculated;
        value           nonuniform List<scalar> 0();
    }
    open
    {
        type            calculated;
        value           nonuniform List<scalar> 0();
    }
    sides
    {
        type            empty;
    }
    procBoundary4to3
    {
        type            processor;
        value           uniform -3.84556642e-07;
    }
    procBoundary4to5
    {
        type            processor;
        value           uniform 1.0845983e-06;
    }
}


// ************************************************************************* //
