/*--------------------------------*- C++ -*----------------------------------*\
| =========                 |                                                 |
| \\      /  F ield         | OpenFOAM: The Open Source CFD Toolbox           |
|  \\    /   O peration     | Version:  2306                                  |
|   \\  /    A nd           | Website:  www.openfoam.com                      |
|    \\/     M anipulation  |                                                 |
\*---------------------------------------------------------------------------*/
FoamFile
{
    version     2.0;
    format      ascii;
    arch        "LSB;label=32;scalar=64";
    class       volScalarField;
    location    "0.00094";
    object      prefDh_T;
}
// * * * * * * * * * * * * * * * * * * * * * * * * * * * * * * * * * * * * * //

dimensions      [1 1 -3 -1 0 0 0];

internalField   nonuniform List<scalar> 
531
(
-0.000743379631
-0.000581149147
-0.000505933797
-0.000514408115
-0.000641975907
-0.000698680525
-0.000586860567
-0.000605858905
-0.000624187443
-0.000701268719
-0.000586652446
-0.000605874487
-0.000632412187
-0.000705231428
-0.000582433885
-0.00052542218
-0.000553559154
-0.000669907906
-0.000721038297
-0.000589160498
-0.000607011054
-0.000650708565
-0.000718570215
-0.000582665353
-0.00052938832
-0.000579286055
-0.000690014276
-0.00072768049
-0.000590047289
-0.000605276773
-0.000670089723
-0.000723759774
-0.000582928064
-0.000535304432
-0.000600008318
-0.000705599958
-0.000724076486
-0.000587206488
-0.000528937663
-0.000524824716
-0.000588794847
-0.000709019343
-0.000743393361
-0.000734237895
-0.000744299378
-0.000712770449
-0.00055832161
-0.000498126786
-0.000523692158
-0.000530793276
-0.000587622087
-0.000712816103
-0.000743625527
-0.000695437394
-0.000563243271
-0.000520896826
-0.00058839315
-0.000723202813
-0.000690292968
-0.000569002271
-0.000534409271
-0.000590295471
-0.00072607564
-0.000670910416
-0.000550745213
-0.000511897499
-0.000537010341
-0.000602105493
-0.000731617958
-0.000738886893
-0.00073940559
-0.000739922534
-0.000628270384
-0.000523147756
-0.000504399806
-0.000537530608
-0.000606873135
-0.00073407455
-0.000626923044
-0.000553108653
-0.000553394625
-0.000609078009
-0.000734559478
-0.000625734876
-0.000562127132
-0.000570343058
-0.000618200276
-0.000735369268
-0.000622032862
-0.000562970944
-0.000578451408
-0.000621832286
-0.000733743451
-0.000621428496
-0.000519420562
-0.000511477395
-0.000578792032
-0.000631788721
-0.000729438763
-0.000597280033
-0.000613337777
-0.000596326978
-0.000719323966
-0.000601731745
-0.000609713282
-0.000592505628
-0.000715459152
-0.000608349435
-0.000523954968
-0.000549503225
-0.000617418264
-0.000728381311
-0.000609476599
-0.000601219994
-0.000597261756
-0.000726999557
-0.000676067871
-0.000603431244
-0.000549479572
-0.000594712258
-0.00064281145
-0.000733863525
-0.000631013016
-0.000537406787
-0.000525932632
-0.000582218623
-0.000626476815
-0.00071348554
-0.000583902048
-0.000570460996
-0.000592544298
-0.000713054676
-0.000597595388
-0.000592960163
-0.000587518224
-0.000708242235
-0.000599285756
-0.000596511229
-0.000590715806
-0.000723308371
-0.000604551017
-0.000580286465
-0.000583349416
-0.000728772422
-0.000676345419
-0.000562061015
-0.000520394461
-0.000589321406
-0.000734490801
-0.000630175291
-0.00057497994
-0.00058457628
-0.000741354509
-0.000704078895
-0.000606224345
-0.000501495994
-0.000582861315
-0.000749383827
-0.000718595346
-0.000597845666
-0.000492747234
-0.000586788997
-0.000747996627
-0.00073081426
-0.000610654305
-0.000594087741
-0.000750376283
-0.000737547752
-0.000596098023
-0.000509147936
-0.000595672604
-0.000751543443
-0.00074626906
-0.000590023153
-0.000509649258
-0.000589141499
-0.000748817311
-0.000755520178
-0.000599135771
-0.000532890223
-0.000506651892
-0.000599335448
-0.000726618067
-0.00074739082
-0.000704557079
-0.000601122284
-0.000590894999
-0.00073592248
-0.000746831344
-0.000597027965
-0.000517858201
-0.000496480769
-0.000586628943
-0.000729279562
-0.000750843151
-0.000746680351
-0.000590799983
-0.000519532457
-0.000543509859
-0.00050708581
-0.000604240112
-0.000728260594
-0.000745760377
-0.000583510424
-0.000533583897
-0.000704819324
-0.000745317042
-0.000601728725
-0.000543749838
-0.000705284579
-0.000741315388
-0.000595061626
-0.000560853238
-0.000710315663
-0.000746249499
-0.000604346368
-0.000551621812
-0.000649950988
-0.000737774831
-0.000629016373
-0.000552271091
-0.000520737322
-0.000605814055
-0.000734382062
-0.000624407387
-0.000532395701
-0.000510352837
-0.00062261907
-0.000736022225
-0.000612315218
-0.000528313795
-0.000508052333
-0.00061354406
-0.000739919193
-0.000595683872
-0.000578094216
-0.000619939569
-0.000735010049
-0.000604289878
-0.000492894972
-0.000487165786
-0.000675552681
-0.00074560105
-0.000599167903
-0.000556027568
-0.000645360014
-0.000743622932
-0.000599460871
-0.000556235609
-0.00070090498
-0.000741334772
-0.000596308936
-0.000488963631
-0.000484813238
-0.000697962734
-0.000746342242
-0.000599147248
-0.000578379523
-0.0007096329
-0.000743957164
-0.000597986369
-0.000514823395
-0.000511253384
-0.000712759733
-0.000741023199
-0.00060133146
-0.000521946274
-0.000516799414
-0.000716665142
-0.000744158475
-0.000598097545
-0.000558871929
-0.000490007258
-0.000490614137
-0.000713909551
-0.000732986362
-0.000733256815
-0.00072984915
-0.000738571614
-0.000740049245
-0.000600998191
-0.000535253694
-0.000575779861
-0.000567792396
-0.000572909228
-0.000537238496
-0.000539057632
-0.00074192009
-0.000741073284
-0.000593560576
-0.000513218438
-0.000518663947
-0.00074843001
-0.00075018276
-0.00059323888
-0.000564402746
-0.000751307859
-0.00074903353
-0.000580445022
-0.000574651939
-0.000750609948
-0.000743576534
-0.000591649388
-0.000483981415
-0.000521102885
-0.000746409973
-0.00074510101
-0.000596597696
-0.000586853504
-0.000747022393
-0.00074241765
-0.000591701047
-0.000502595091
-0.00054417107
-0.000746091074
-0.000740765053
-0.000591185972
-0.000507090984
-0.000548701362
-0.000745513641
-0.000740840312
-0.000591420784
-0.000508562905
-0.000549835826
-0.00074537332
-0.000740933085
-0.00059152705
-0.000507570724
-0.000549712267
-0.00074566633
-0.000740919982
-0.000591741841
-0.000506477859
-0.000549213884
-0.000746590507
-0.000740622597
-0.000592002691
-0.000504408416
-0.000546607679
-0.000747911823
-0.000740542203
-0.00059169882
-0.000497950534
-0.000540638985
-0.000750547493
-0.000741336007
-0.00058940127
-0.000489606616
-0.000533307425
-0.000748594664
-0.000746748721
-0.00060757896
-0.000570648216
-0.000716206397
-0.000742224863
-0.000596564336
-0.000489446731
-0.00051450452
-0.000751063512
-0.000743107858
-0.000590779885
-0.000486327739
-0.000518635776
-0.000751018047
-0.000742787041
-0.000595064918
-0.000469708035
-0.000495619173
-0.000746993672
-0.000750451694
-0.000745279547
-0.000624426677
-0.000442376827
-0.000450216563
-0.000764824291
-0.000765255566
-0.000587623537
-0.000418766149
-0.000433373081
-0.000788817608
-0.000792090426
-0.000575917377
-0.00037845688
-0.000389751006
-0.000780945911
-0.000791411426
-0.000773581452
-0.000778854529
-0.000758336265
-0.000772636567
-0.00060543914
-0.000363981111
-0.000640516569
-0.00074976898
-0.000719681847
-0.000740770339
-0.000730001982
-0.000740109828
-0.000736271418
-0.000744296534
-0.00074562158
-0.000757189617
-0.000767914616
-0.000795405975
-0.000836298664
-0.000868789206
-0.000819852209
-0.0007744647
-0.000732292852
-0.000695149602
-0.000664953819
-0.000638919267
-0.000617511459
-0.000585121945
-0.000574930755
-0.000560669062
-0.000531177966
-0.000511214922
-0.000486356765
-0.000475169789
-0.000449285403
-0.000402378746
-0.00035004224
-0.000306026027
-0.000360825996
-0.000673332057
-0.000601854715
-0.000515314801
-0.000438122764
-0.000340026054
-0.000273703051
-0.000163284812
-0.000109145406
-3.86225833e-05
-0.000227953823
-0.0001813934
-0.000551502974
-0.000569220246
-0.0006758814
-0.000757305915
-0.000765522743
-0.000935843554
-0.000988119428
-0.000952369474
-0.000952379723
-0.000905259308
-0.000847114567
-0.000752822279
-0.000692275323
-0.00065995646
-0.000692172157
-0.000742235953
-0.000768237606
-0.00081078503
-0.000884544169
-0.000976069573
-0.00104427213
-0.00112246496
-0.00117364937
-0.00122069303
-0.00123365146
-0.00124994564
-0.0012344074
-0.00121880614
-0.00117532049
-0.00114085043
-0.00109190803
-0.00106037786
-0.00100648417
-0.000945084
-0.000840324165
-0.000723705048
-0.0005740849
-0.000415656486
-0.000235283333
-5.36372758e-05
0.000142875956
0.000324870106
0.00051771592
0.000702426981
0.000896721492
0.00111157524
0.00136811972
0.00158953958
0.00180622492
0.00195751447
0.00213173994
0.00227676323
0.00243677096
0.00256981735
0.00272145025
0.00284830681
0.00299246904
0.00311322332
0.00325220961
0.00337730223
0.00352096401
0.0036442092
0.00380059359
0.00392154093
0.00404761197
0.00415298972
0.00427107593
0.00436969929
0.00448072609
0.0045748818
0.00468128086
0.00477224003
0.0048651833
0.00494333777
0.0050307854
0.0051061648
0.00518996727
0.00526496296
0.00535228369
0.00542803048
0.00550918535
0.00558000766
0.00565552422
0.00572178998
0.0057912781
0.00584631801
0.00590502281
0.00595752239
0.00601323573
0.00606335502
0.00611631853
0.00616420884
0.00621463789
0.00625738403
0.0063019834
)
;

boundaryField
{
    closed
    {
        type            calculated;
        value           nonuniform List<scalar> 0();
    }
    open
    {
        type            calculated;
        value           nonuniform List<scalar> 0();
    }
    sides
    {
        type            empty;
    }
    procBoundary4to3
    {
        type            processor;
        value           uniform -0.000743297295;
    }
    procBoundary4to5
    {
        type            processor;
        value           uniform 0.00634269897;
    }
}


// ************************************************************************* //
