/*--------------------------------*- C++ -*----------------------------------*\
| =========                 |                                                 |
| \\      /  F ield         | OpenFOAM: The Open Source CFD Toolbox           |
|  \\    /   O peration     | Version:  2306                                  |
|   \\  /    A nd           | Website:  www.openfoam.com                      |
|    \\/     M anipulation  |                                                 |
\*---------------------------------------------------------------------------*/
FoamFile
{
    version     2.0;
    format      ascii;
    arch        "LSB;label=32;scalar=64";
    class       volScalarField;
    location    "0.00172";
    object      H2;
}
// * * * * * * * * * * * * * * * * * * * * * * * * * * * * * * * * * * * * * //

dimensions      [0 0 0 0 0 0 0];

internalField   nonuniform List<scalar> 
530
(
0.000133408053
0.00013161707
0.000129762724
0.000128060657
0.000126269067
0.000124628552
0.000122909475
0.00012134106
0.000119691186
0.000118190714
0.000116606849
0.000115170441
0.00011364952
0.000112273533
0.000110812629
0.000109493624
0.000108089942
0.000106824665
0.000105475529
0.000104260903
0.000102954557
0.000101752285
0.000100467412
9.93101833e-05
9.8072379e-05
9.69579661e-05
9.57654033e-05
9.46916794e-05
9.35426009e-05
9.2507545e-05
9.14002529e-05
9.04019476e-05
8.93347973e-05
8.83714229e-05
8.73428187e-05
8.64126472e-05
8.54210395e-05
8.4522428e-05
8.35663097e-05
8.26976946e-05
8.17755991e-05
8.09354892e-05
8.00459888e-05
7.92329593e-05
7.83746655e-05
7.75653722e-05
7.67127241e-05
7.59256266e-05
7.51011355e-05
7.43364747e-05
7.35392651e-05
7.27962568e-05
7.20228035e-05
7.1266647e-05
7.04980521e-05
6.97642711e-05
6.90215818e-05
6.8309279e-05
6.75915718e-05
6.68998877e-05
6.62062664e-05
6.55343757e-05
6.48639708e-05
6.42110807e-05
6.35630471e-05
6.29283962e-05
6.23019121e-05
6.16847687e-05
6.10790339e-05
6.04786949e-05
5.98929297e-05
5.93087185e-05
5.87421634e-05
5.8173428e-05
5.7625343e-05
5.70714534e-05
5.6541118e-05
5.60014643e-05
5.54881775e-05
5.49621667e-05
5.44652475e-05
5.39523013e-05
5.34710883e-05
5.29706414e-05
5.25044926e-05
5.20159903e-05
5.15642825e-05
5.10871808e-05
5.06480417e-05
5.0179645e-05
4.97524869e-05
4.92940737e-05
4.88788055e-05
4.8430098e-05
4.80263782e-05
4.75871092e-05
4.71946041e-05
4.67645165e-05
4.63829004e-05
4.59617464e-05
4.55907023e-05
4.51782419e-05
4.48174618e-05
4.44134616e-05
4.40626481e-05
4.36668799e-05
4.33257464e-05
4.29379859e-05
4.26062578e-05
4.22262833e-05
4.19036986e-05
4.15312898e-05
4.12175998e-05
4.08525368e-05
4.05475065e-05
4.01895689e-05
3.98929769e-05
3.95419438e-05
3.9253582e-05
3.89092318e-05
3.86289037e-05
3.82910159e-05
3.80185345e-05
3.76868921e-05
3.74220754e-05
3.70964693e-05
3.68391345e-05
3.65193698e-05
3.62693262e-05
3.59552301e-05
3.57122694e-05
3.54037012e-05
3.51675885e-05
3.4864449e-05
3.46349141e-05
3.43371545e-05
3.41138853e-05
3.38215133e-05
3.36041541e-05
3.33172334e-05
3.31053887e-05
3.28240332e-05
3.26172774e-05
3.23416355e-05
3.213953e-05
3.18743451e-05
3.16734134e-05
3.14158234e-05
3.12126175e-05
3.09671222e-05
3.07614909e-05
3.05279487e-05
3.03198278e-05
3.00980187e-05
2.98874185e-05
2.96770546e-05
2.94640406e-05
2.92647812e-05
2.90494575e-05
2.88609229e-05
2.86434227e-05
2.84652023e-05
2.82497657e-05
2.80733579e-05
2.78639971e-05
2.76892654e-05
2.7485826e-05
2.73127184e-05
2.71149923e-05
2.69435084e-05
2.67512646e-05
2.65814265e-05
2.63944337e-05
2.62262645e-05
2.60443033e-05
2.58778161e-05
2.57006838e-05
2.55358777e-05
2.5363388e-05
2.52002477e-05
2.50322285e-05
2.4870727e-05
2.47070184e-05
2.45471186e-05
2.43875715e-05
2.4229227e-05
2.40737028e-05
2.39168586e-05
2.37652289e-05
2.36098211e-05
2.34659364e-05
2.33245537e-05
2.31916365e-05
2.30507989e-05
2.29200078e-05
2.277971e-05
2.2651013e-05
2.25112563e-05
2.23846163e-05
2.22454068e-05
2.21207834e-05
2.19821306e-05
2.1859482e-05
2.17213969e-05
2.16006814e-05
2.14631756e-05
2.1344352e-05
2.12074373e-05
2.10904657e-05
2.09541535e-05
2.0838995e-05
2.07032964e-05
2.05899132e-05
2.04548386e-05
2.03431943e-05
2.02087529e-05
2.00988122e-05
1.99650112e-05
1.9856742e-05
1.97235825e-05
1.96169601e-05
1.94844342e-05
1.93794451e-05
1.92475367e-05
1.9144177e-05
1.90128787e-05
1.89111322e-05
1.8780499e-05
1.86802821e-05
1.85505738e-05
1.84515076e-05
1.8323984e-05
1.82260503e-05
1.80988843e-05
1.80012307e-05
1.78760019e-05
1.77783459e-05
1.76551679e-05
1.75576159e-05
1.74363695e-05
1.73390774e-05
1.7219616e-05
1.71227052e-05
1.70049175e-05
1.69084593e-05
1.67922748e-05
1.66963041e-05
1.65816793e-05
1.64862131e-05
1.63731177e-05
1.62781673e-05
1.61665751e-05
1.60721521e-05
1.59620367e-05
1.5868155e-05
1.57594889e-05
1.56661642e-05
1.55589189e-05
1.54661682e-05
1.5360315e-05
1.52681555e-05
1.51636663e-05
1.5072115e-05
1.49689627e-05
1.48780357e-05
1.47761944e-05
1.46859069e-05
1.45853525e-05
1.44957181e-05
1.43964283e-05
1.4307459e-05
1.42094138e-05
1.41211197e-05
1.40243013e-05
1.39366906e-05
1.38410837e-05
1.37541627e-05
1.36597541e-05
1.35735282e-05
1.34803062e-05
1.33947802e-05
1.3301868e-05
1.32155079e-05
1.3122946e-05
1.30372993e-05
1.29458053e-05
1.28608702e-05
1.27704332e-05
1.26862089e-05
1.25968176e-05
1.25133045e-05
1.24249466e-05
1.23421465e-05
1.22548091e-05
1.21727246e-05
1.20863944e-05
1.20050285e-05
1.19196923e-05
1.18390482e-05
1.17546929e-05
1.16747733e-05
1.15913866e-05
1.1512194e-05
1.14297643e-05
1.13513002e-05
1.1269817e-05
1.11920822e-05
1.11115361e-05
1.10345306e-05
1.09549128e-05
1.0878636e-05
1.07999388e-05
1.07243898e-05
1.06466051e-05
1.05717835e-05
1.04949023e-05
1.04208092e-05
1.03448196e-05
1.02714591e-05
1.01963453e-05
1.01237261e-05
1.00494672e-05
9.9776028e-06
9.9041751e-06
9.83145225e-06
9.75686882e-06
9.68459994e-06
9.6111785e-06
9.53992237e-06
9.46763009e-06
9.39738815e-06
9.32619953e-06
9.25696752e-06
9.18686286e-06
9.11863211e-06
9.04959536e-06
8.98235467e-06
8.91437165e-06
8.8481088e-06
8.78116605e-06
8.71586882e-06
8.64995306e-06
8.58560968e-06
8.52070764e-06
8.45730686e-06
8.39340527e-06
8.33093645e-06
8.26802207e-06
8.20647503e-06
8.1445347e-06
8.08389977e-06
8.02292039e-06
7.96318838e-06
7.90315692e-06
7.84431912e-06
7.78522257e-06
7.72727085e-06
7.66909617e-06
7.61202294e-06
7.55475714e-06
7.4985552e-06
7.44218553e-06
7.38684773e-06
7.33136208e-06
7.27688064e-06
7.22226832e-06
7.1686338e-06
7.1148866e-06
7.06208673e-06
7.00920001e-06
6.95721886e-06
6.90519243e-06
6.85401053e-06
6.80284854e-06
6.75244455e-06
6.70087569e-06
6.64920384e-06
6.59753578e-06
6.5465373e-06
6.49551501e-06
6.44517215e-06
6.39480524e-06
6.34510608e-06
6.29539924e-06
6.24633677e-06
6.19729051e-06
6.14886107e-06
6.10047301e-06
6.05267473e-06
6.00494095e-06
5.95777254e-06
5.91068853e-06
5.86414867e-06
5.81770987e-06
5.77179685e-06
5.72599889e-06
5.68071062e-06
5.63554934e-06
5.59088331e-06
5.54635474e-06
5.50230818e-06
5.45840839e-06
5.4149783e-06
5.37170339e-06
5.32888665e-06
5.28623263e-06
5.24402601e-06
5.20198879e-06
5.16038904e-06
5.11896441e-06
5.07796819e-06
5.03715184e-06
4.99675572e-06
4.95654332e-06
4.91674368e-06
4.87713094e-06
4.83792389e-06
4.79890676e-06
4.76028793e-06
4.72186273e-06
4.68382717e-06
4.64599082e-06
4.60853276e-06
4.57128301e-06
4.53439581e-06
4.49773131e-06
4.46140742e-06
4.42532778e-06
4.38955896e-06
4.35406441e-06
4.3188422e-06
4.28393224e-06
4.24924948e-06
4.21491704e-06
4.18077363e-06
4.14698728e-06
4.11180173e-06
4.07693501e-06
4.04231213e-06
4.00807726e-06
3.97411178e-06
3.9404934e-06
3.90717213e-06
3.87416151e-06
3.8414662e-06
3.80905514e-06
3.77696816e-06
3.74514781e-06
3.71365313e-06
3.68241385e-06
3.65149702e-06
3.62082856e-06
3.59044446e-06
3.55919943e-06
3.52609445e-06
3.49096623e-06
3.45379721e-06
3.41442056e-06
3.37282028e-06
3.32883102e-06
3.28243951e-06
3.23348771e-06
3.18196717e-06
3.12773462e-06
3.07078866e-06
3.01101132e-06
2.94841e-06
2.882905e-06
2.8145173e-06
2.743214e-06
2.6690505e-06
2.59202235e-06
2.51228981e-06
2.43018144e-06
2.34597013e-06
2.25924774e-06
2.17029089e-06
2.07932324e-06
1.98667267e-06
1.89266694e-06
1.79775128e-06
1.70235302e-06
1.60702986e-06
1.51231744e-06
1.41886547e-06
1.32730371e-06
1.23833913e-06
1.15265634e-06
1.07095873e-06
9.9392379e-07
9.22158178e-07
8.56253933e-07
7.96595159e-07
7.43612269e-07
6.9731208e-07
6.57929327e-07
6.24923971e-07
5.98369813e-07
5.77149729e-07
5.60950275e-07
5.49018455e-07
5.3925494e-07
5.35586407e-07
5.35547585e-07
5.35529282e-07
5.35521035e-07
5.35518101e-07
5.35517035e-07
5.35516548e-07
5.35516413e-07
5.35516375e-07
5.35516366e-07
5.35516364e-07
5.35516363e-07
5.35516363e-07
5.35516363e-07
5.35516363e-07
5.35516363e-07
5.35516363e-07
5.35516363e-07
5.35516363e-07
5.35516363e-07
5.35516363e-07
5.35516363e-07
5.35516363e-07
5.35516363e-07
5.35516363e-07
5.35516363e-07
5.35516363e-07
5.35516363e-07
)
;

boundaryField
{
    closed
    {
        type            calculated;
        value           nonuniform List<scalar> 0();
    }
    open
    {
        type            calculated;
        value           uniform 5.35516363e-07;
    }
    sides
    {
        type            empty;
    }
    procBoundary5to4
    {
        type            processor;
        value           uniform 0.000135341021;
    }
}


// ************************************************************************* //
