/*--------------------------------*- C++ -*----------------------------------*\
| =========                 |                                                 |
| \\      /  F ield         | OpenFOAM: The Open Source CFD Toolbox           |
|  \\    /   O peration     | Version:  2306                                  |
|   \\  /    A nd           | Website:  www.openfoam.com                      |
|    \\/     M anipulation  |                                                 |
\*---------------------------------------------------------------------------*/
FoamFile
{
    version     2.0;
    format      ascii;
    arch        "LSB;label=32;scalar=64";
    class       volScalarField;
    location    "0.00182";
    object      p;
}
// * * * * * * * * * * * * * * * * * * * * * * * * * * * * * * * * * * * * * //

dimensions      [1 -1 -2 0 0 0 0];

internalField   nonuniform List<scalar> 
531
(
100744.344
100769.974
100797.001
100827.059
100856.808
100886.167
100915.28
100944.259
100973.088
101001.674
101028.895
101055.756
101082.73
101109.94
101137.411
101163.465
101189.003
101214.488
101240.125
101266.054
101290.428
101314.128
101337.706
101361.576
101385.962
101408.672
101430.29
101451.066
101471.447
101491.703
101509.92
101526.951
101543.046
101559.252
101577.314
101593.984
101608.058
101622.206
101637.056
101651.367
101665.184
101678.72
101692.053
101705.195
101718.327
101731.595
101744.449
101756.527
101767.94
101779.645
101791.794
101803.509
101814.512
101825.909
101837.578
101849.636
101861.01
101871.6
101882.526
101893.781
101904.757
101914.745
101924.838
101934.871
101944.935
101954.123
101962.021
101969.572
101976.696
101983.102
101988.09
101992.489
101996.212
101999.334
102001.658
102003.226
102003.802
102003.087
102001.475
101998.206
101993.425
101987.232
101979.683
101970.607
101960.143
101949.027
101938.055
101927.069
101915.339
101901.979
101887.588
101872.385
101856.688
101841.714
101827.299
101812.237
101795.726
101778.282
101760.397
101741.736
101721.302
101699.05
101676.075
101653.127
101629.957
101606.206
101582.102
101555.021
101526.236
101496.578
101468.353
101440.356
101411.475
101381.369
101349.999
101319.477
101289.671
101259.783
101229.212
101198.19
101168.823
101140.662
101112.677
101084.539
101056.862
101031.391
101006.553
100981.662
100956.782
100933.756
100912.242
100891.502
100870.843
100850.427
100831.911
100815.122
100799.528
100784.606
100770.509
100758.491
100748.551
100740.456
100734.006
100729.319
100727.115
100726.51
100726.19
100725.578
100727.325
100728.494
100731.595
100736.802
100743.6
100751.574
100760.827
100771.413
100783.375
100796.3
100809.902
100824.835
100841.006
100858.17
100875.631
100894.214
100914.077
100935.226
100957.154
100978.964
101002.054
101026.388
101051.516
101076.091
101101.694
101128.603
101156.695
101185.601
101215.286
101245.694
101274.174
101301.902
101332.35
101361.932
101390.178
101419.519
101449.344
101478.961
101507.253
101533.788
101561.59
101589.494
101616.832
101642.03
101668.147
101694.252
101719.984
101744.167
101765.688
101787.281
101807.482
101826.01
101840.538
101853.574
101864.186
101873.233
101881.378
101887.333
101893.063
101897.238
101900.106
101901.783
101902.165
101901.631
101901.043
101899.444
101896.651
101891.731
101884.861
101876.765
101867.861
101858.015
101846.816
101834.77
101821.994
101808.93
101796.358
101783.324
101769.305
101754.829
101740.462
101726.917
101713.037
101698.307
101683.232
101668.302
101654.323
101639.967
101624.675
101608.899
101593.043
101578.048
101562.428
101545.605
101528.149
101510.366
101493.665
101476.719
101457.546
101437.616
101417.408
101397.49
101377.082
101356.24
101334.612
101314.11
101293.527
101272.516
101251.378
101229.873
101209.835
101189.855
101169.635
101149.312
101128.661
101109.742
101091.044
101072.753
101054.418
101036.842
101019.449
101002.819
100988.838
100975.801
100964.083
100952.346
100941.572
100931.779
100923.008
100914.916
100907.597
100901.211
100895.94
100891.542
100888.199
100886.727
100886.137
100886.859
100888.266
100890.177
100892.791
100895.575
100899.423
100903.827
100908.871
100914.128
100920.401
100927.019
100933.97
100940.689
100947.978
100955.427
100963.045
100970.428
100977.515
100985.032
100992.689
101000.491
101007.942
101015.048
101022.48
101029.949
101037.447
101044.606
101051.382
101058.466
101065.778
101073.311
101080.614
101088.074
101095.89
101103.96
101111.417
101119.255
101127.456
101135.91
101143.998
101152.015
101160.349
101168.781
101176.516
101184.421
101192.403
101200.427
101208.325
101215.547
101222.261
101228.721
101234.763
101241.32
101247.506
101253.049
101258.067
101262.283
101266.322
101270.153
101273.785
101277.321
101280.448
101284.137
101286.695
101289.689
101292.577
101295.344
101297.828
101300.501
101303.402
101305.119
101307.137
101309.027
101310.816
101312.095
101313.272
101314.178
101314.739
101314.944
101314.823
101314.366
101313.695
101312.807
101311.546
101310.239
101308.823
101307.347
101305.706
101304.098
101302.288
101299.599
101298.96
101296.384
101294.483
101292.737
101291.076
101289.362
101287.713
101286.059
101284.512
101283.758
101280.746
101279.629
101278.047
101276.154
101274.049
101271.929
101269.817
101267.655
101265.611
101263.509
101261.362
101259.435
101257.433
101255.631
101253.921
101252.325
101250.738
101249.425
101248.183
101247.017
101245.996
101245.097
101244.445
101244.031
101243.656
101243.667
101243.686
101243.992
101244.41
101245.076
101245.972
101246.771
101247.858
101249.035
101250.226
101250.863
101253.534
101254.263
101255.599
101256.99
101258.418
101259.766
101261.235
101262.687
101263.93
101265.205
101266.491
101267.797
101268.787
101269.908
101270.932
101271.836
101272.614
101273.196
101273.681
101274.04
101275.388
101274.044
101274.754
101274.76
101274.53
101273.792
101274.745
101274.074
101273.822
101273.598
101272.951
101273.223
101272.557
101272.388
101272.218
101271.479
101272.42
101271.769
101271.634
101271.406
101270.958
101271.931
101271.553
101271.292
101271.019
101270.272
101271.471
101270.92
101270.802
101270.776
101270.832
101270.77
101270.851
101271.033
101271.88
101270.842
101271.404
101271.63
101271.909
101272.225
101272.491
101271.774
101274.325
101273.894
101274.331
101274.908
101275.549
101276.251
101276.931
101277.812
101278.861
101279.823
101280.999
101282.296
101283.685
101285.174
101286.67
101288.134
101289.72
101291.403
101292.861
101294.441
101296.013
101297.594
101298.955
101300.354
101301.724
101303.271
101305.445
101304.894
101306.353
101307.478
101308.388
101309.94
101309.444
101310.507
101311.142
101311.553
101310.927
101313.31
101312.797
101313.035
101313.299
101313.479
101313.668
101313.673
101313.787
101313.8
101313.803
)
;

boundaryField
{
    closed
    {
        type            zeroGradient;
    }
    open
    {
        type            waveTransmissive;
        gamma           1.25;
        fieldInf        101325;
        lInf            1;
        value           nonuniform List<scalar> 0();
    }
    sides
    {
        type            empty;
    }
    procBoundary1to0
    {
        type            processor;
        value           uniform 100721.797;
    }
    procBoundary1to2
    {
        type            processor;
        value           uniform 101313.654;
    }
}


// ************************************************************************* //
