/*--------------------------------*- C++ -*----------------------------------*\
| =========                 |                                                 |
| \\      /  F ield         | OpenFOAM: The Open Source CFD Toolbox           |
|  \\    /   O peration     | Version:  2306                                  |
|   \\  /    A nd           | Website:  www.openfoam.com                      |
|    \\/     M anipulation  |                                                 |
\*---------------------------------------------------------------------------*/
FoamFile
{
    version     2.0;
    format      ascii;
    arch        "LSB;label=32;scalar=64";
    class       volScalarField;
    location    "0.00182";
    object      prefDh_H2O;
}
// * * * * * * * * * * * * * * * * * * * * * * * * * * * * * * * * * * * * * //

dimensions      [1 1 -3 0 0 0 0];

internalField   nonuniform List<scalar> 
531
(
91.9808922
88.2374585
87.9889261
89.7938182
92.6953585
91.8519369
88.3819249
87.9720242
87.9468479
89.5889633
92.7126979
92.1908309
88.2939866
88.0275064
89.6836358
92.677883
92.3598753
88.3249678
88.024323
89.6364767
92.6624605
92.4506127
88.3288723
88.0234492
89.6074717
92.6449291
92.4532364
88.3145945
88.0186053
89.5929437
92.6222201
92.5183439
88.3325677
88.0270008
89.6140919
92.6232168
92.1658368
88.1480005
87.890191
89.4213853
92.7539844
92.4171298
92.4611326
91.748615
88.0983672
87.7648193
87.7230681
89.0404181
92.6804523
91.1395587
88.2584637
89.5744196
92.5752515
91.3696233
88.0555321
87.8543001
89.6643402
92.5626698
91.0341851
88.3881508
90.0242472
92.4794583
91.4640682
88.092448
87.9569263
90.2504961
92.4982592
90.7843756
88.540161
90.5357529
92.4164875
91.2872677
88.1782124
88.1023269
88.0188958
88.0350328
90.5247767
92.3589172
92.9620287
88.3330859
88.0435374
88.0908621
90.9063909
92.4750657
90.4145204
88.6836085
90.8231523
92.2923866
92.8292016
88.2155978
88.030262
87.956325
88.0327678
90.9842379
92.5217798
91.0310221
88.0583796
88.1074814
91.4847292
92.5644136
90.4380801
87.9775799
88.0625027
91.1898682
92.4064067
92.3549962
92.7891162
88.0845657
87.9083368
88.0443304
91.112277
92.5923573
90.1140975
87.9538197
88.0403936
91.5336111
92.5813636
90.1622148
87.9960573
88.0544663
91.5406681
92.5584836
89.7219877
88.4751493
91.5504449
92.535341
89.9066436
87.9939592
88.0543918
91.7120215
92.5630387
90.0392982
87.9700846
88.0114286
91.6692138
92.5824389
89.8698956
87.9078501
87.9078105
91.282135
92.5648351
89.5294828
88.2063252
91.1720909
92.5737507
89.7021411
87.887271
87.8638681
91.1487752
92.5498589
89.6482895
88.2486995
91.2412584
92.5480714
89.8618815
87.9508229
87.9123001
91.2613044
92.5146489
89.7008034
88.3077165
91.4198775
92.5152961
89.9842634
88.0080153
87.9619892
91.4819435
92.4754529
89.7036002
88.4176939
91.7584507
92.4594435
89.9398582
88.0856434
88.0344647
87.9262368
87.9053846
91.2353949
92.4964264
89.5466164
88.256416
91.6688646
92.4969652
89.7513264
87.9450775
87.9105847
91.8339356
92.4633077
89.3179088
88.2695246
92.1897375
92.4936013
89.5117952
87.9171
87.9126585
92.3764541
92.4852273
89.0433253
88.2530261
92.6963831
92.5247991
89.2367847
87.8825335
87.9204031
93.0871764
92.513873
88.8017336
88.2863554
92.9505688
92.5368957
89.1002016
87.9033425
88.0556985
92.6299459
92.5626641
89.2957891
87.9749886
88.1324061
92.5419446
92.5161163
89.4207348
88.0168804
87.9160063
88.1140612
92.5807395
92.6287159
88.9538969
87.9016165
88.1476672
92.5476232
92.6083909
89.0203856
87.931101
88.1923319
92.5181784
92.5980335
89.0035374
87.9264336
88.199341
92.5102366
92.6060655
88.8786233
87.887833
88.1384958
92.5011349
92.6698607
88.5195673
88.555578
92.5000794
92.5509367
88.6932243
87.8941743
88.1795295
92.4738077
92.5463006
88.92586
87.9038494
88.1869673
92.4833783
92.5620456
88.8259784
87.7874646
88.0058779
92.5735506
92.2450074
92.6150271
88.5979998
87.74344
87.6714599
87.8020289
92.7367048
92.5647677
88.3260891
88.1717462
92.8523943
92.5077701
88.4128022
88.2694046
92.7655022
92.4682853
88.8388038
87.8340232
87.9776279
92.6616472
92.4896805
89.0984541
87.8246275
87.8906197
92.7247225
92.416686
88.6058571
88.213051
92.9880644
92.4097172
88.6012783
88.2572147
92.9776922
92.418121
89.1150007
87.8610895
87.8995634
92.7769554
92.4456139
89.4658486
87.8828114
87.8924313
92.7896589
92.4389212
89.4672431
87.8690639
87.8703857
92.8037839
92.442909
89.722638
87.857557
88.0743144
92.8343833
89.733173
88.2442254
93.105181
92.3612845
90.3540749
87.9439079
88.01457
92.81225
89.7295998
88.1855054
93.1127535
92.2943268
89.7695753
88.1715649
87.9249433
88.0292835
92.7964975
89.8665626
88.1600949
93.1108542
92.322193
88.7432626
88.2986138
93.0459254
92.2660849
90.6297414
88.2224843
88.1478006
87.9407324
87.9073917
92.9751788
92.3319348
88.5668951
88.2538
93.0277904
89.4332952
87.8959793
93.1438656
92.382858
88.4753795
88.132152
92.9916677
92.2733917
89.5523211
88.1487182
87.9317747
88.2326461
92.6559877
89.5363543
88.0707603
92.9620335
92.3063339
88.5037282
88.1505074
92.9207779
92.3627404
89.5607786
87.8263156
87.7880526
92.9083426
92.3237275
88.6735485
88.20778
92.8734897
92.2630997
89.6310616
88.1896037
87.8948403
87.8582909
92.9240214
92.3416281
90.6768499
88.0733388
87.9273072
88.8122892
92.4848821
92.2759676
89.5478253
87.8146607
87.8029783
92.6840289
92.3336463
88.4542605
87.9717341
93.0187176
92.3376544
89.6577207
88.1216526
88.136784
87.8819795
87.8927167
92.7788099
92.2937469
92.3970213
88.4788082
88.1769112
92.9202551
89.4675585
87.8697253
93.0175237
92.3356209
90.1388774
88.2354409
87.905974
87.8484544
92.9072351
92.3217786
88.4072738
88.1819406
92.9645912
90.0964577
87.7716254
91.949479
92.4304419
88.4148116
87.993483
92.9502625
92.3070609
88.7502491
88.1169767
90.122965
92.3265552
92.3792539
89.2300111
87.7284737
87.7003187
92.8281271
92.4087439
90.2115887
87.9018763
87.8816081
92.8425255
92.3905039
90.0321298
87.880595
87.8602437
92.832981
92.399518
89.8898357
87.8321992
87.8112236
92.8293828
92.4108343
89.7472346
87.7926597
87.7741726
92.8193449
92.4170729
89.7135811
87.813793
87.7806025
92.8190432
92.3456565
88.3784232
88.0478041
92.8183947
92.3586192
89.8172439
87.8072962
87.8038453
92.7047625
92.2713919
92.2873244
89.4264111
88.1103639
87.7780836
87.7764607
92.8267602
92.4197979
89.7263672
87.7707619
87.8794698
92.6300128
90.0406468
88.0854415
92.7981639
92.2196082
89.9344532
88.2865761
87.9360158
88.0547162
92.561281
90.1599533
88.0804015
92.7906814
92.2239733
88.4479759
88.1681011
92.7786229
92.1915279
90.3115105
88.3716403
87.9711476
87.9343577
92.7375579
92.3535509
90.0662859
87.8759072
87.8654443
92.7594075
92.3760493
89.711763
87.8496666
87.8456247
92.6875586
92.3934835
89.3213088
87.848423
88.1856246
92.6071201
92.3165151
88.0810715
87.7295694
92.8836063
)
;

boundaryField
{
    closed
    {
        type            calculated;
        value           nonuniform List<scalar> 0();
    }
    open
    {
        type            calculated;
        value           nonuniform List<scalar> 0();
    }
    sides
    {
        type            empty;
    }
    procBoundary1to0
    {
        type            processor;
        value           uniform 92.3252195;
    }
    procBoundary1to2
    {
        type            processor;
        value           uniform 92.4468791;
    }
}


// ************************************************************************* //
