/*--------------------------------*- C++ -*----------------------------------*\
| =========                 |                                                 |
| \\      /  F ield         | OpenFOAM: The Open Source CFD Toolbox           |
|  \\    /   O peration     | Version:  2306                                  |
|   \\  /    A nd           | Website:  www.openfoam.com                      |
|    \\/     M anipulation  |                                                 |
\*---------------------------------------------------------------------------*/
FoamFile
{
    version     2.0;
    format      ascii;
    arch        "LSB;label=32;scalar=64";
    class       volScalarField;
    location    "0.00182";
    object      PV;
}
// * * * * * * * * * * * * * * * * * * * * * * * * * * * * * * * * * * * * * //

dimensions      [0 0 0 0 0 0 0];

internalField   nonuniform List<scalar> 
531
(
-0.00694281756
-0.00709047771
-0.00712233092
-0.00701654507
-0.00690035662
-0.00694646859
-0.00708406186
-0.00711954623
-0.00712481374
-0.00702410068
-0.0069015838
-0.00693630359
-0.00708899728
-0.00712094774
-0.00702158328
-0.00690109826
-0.00693218432
-0.0070879289
-0.0071223932
-0.00702419433
-0.0069009968
-0.00693004459
-0.00708810967
-0.00712318257
-0.00702595337
-0.00690073584
-0.00693034275
-0.00708953857
-0.0071246087
-0.00702741708
-0.00690060547
-0.00692894729
-0.00708954973
-0.00712584253
-0.00702685525
-0.00690045662
-0.00693921648
-0.00710165084
-0.00713820256
-0.00703355389
-0.00690384084
-0.00689541945
-0.0068969417
-0.0069513772
-0.00710736841
-0.00713549585
-0.00714420015
-0.00704928004
-0.00689890848
-0.00696849668
-0.00710107517
-0.00702829404
-0.00689780405
-0.00696280131
-0.00711344203
-0.00713466611
-0.00702414444
-0.00689701113
-0.00697356304
-0.00709030166
-0.00701113547
-0.00689578635
-0.00696014439
-0.00711068904
-0.0071247165
-0.00700131894
-0.00689548722
-0.00698231752
-0.00708007214
-0.00699145386
-0.00689362545
-0.00696495815
-0.00710305292
-0.00711088272
-0.00711419253
-0.00711237937
-0.00699228664
-0.00689143894
-0.0069090292
-0.00708993211
-0.007123377
-0.00710464018
-0.00697844404
-0.00689464688
-0.0069955447
-0.00707146947
-0.00698167804
-0.00688921548
-0.00690524461
-0.00709750261
-0.00711996414
-0.00711726129
-0.0071141233
-0.00697476973
-0.00689679045
-0.00697248178
-0.00711713329
-0.0071111734
-0.00695886369
-0.00689889545
-0.00699400644
-0.00712296233
-0.00711440584
-0.00696791553
-0.00689809537
-0.00689400937
-0.00692011255
-0.0071131404
-0.00713491886
-0.00711042998
-0.00697096573
-0.0068976163
-0.00700560164
-0.0071260647
-0.00711381999
-0.00695731919
-0.00689877057
-0.00700467071
-0.00712388062
-0.00711332618
-0.0069574569
-0.0068974979
-0.00702439486
-0.00708604291
-0.00695674843
-0.00689769113
-0.00701555417
-0.00712414576
-0.00711372463
-0.00695147154
-0.00689793375
-0.00701012537
-0.00712569189
-0.00711810036
-0.00695201487
-0.00689766209
-0.00701635873
-0.00712882306
-0.00712453869
-0.00696400309
-0.00689546114
-0.00703083412
-0.00710243627
-0.00696658924
-0.00689677044
-0.00702270151
-0.00712987488
-0.00712742604
-0.00696851785
-0.00689552702
-0.00702703351
-0.00709925883
-0.00696474788
-0.00689724073
-0.00701741399
-0.00712638114
-0.00712473735
-0.00696505034
-0.00689537044
-0.00702638095
-0.00709467972
-0.00695919788
-0.0068970099
-0.00701338084
-0.00712332359
-0.00712170654
-0.00695776998
-0.00689436496
-0.0070273504
-0.00708799788
-0.00694808384
-0.00689409408
-0.00701506344
-0.00711205515
-0.00711311955
-0.00712610362
-0.00712582879
-0.00696415144
-0.00689373128
-0.00703243909
-0.00709849716
-0.00695030644
-0.00689564023
-0.00702279502
-0.00712942834
-0.00712500056
-0.00694677438
-0.00689402389
-0.00704561876
-0.00709720993
-0.00693579815
-0.00689683088
-0.00703438792
-0.00713360078
-0.0071240347
-0.00693143373
-0.00689553025
-0.00706047242
-0.00709738936
-0.0069218359
-0.00689857194
-0.00704730374
-0.00713825378
-0.00712127
-0.00691206782
-0.00689688934
-0.00707524317
-0.00709367343
-0.00690411573
-0.00689945594
-0.00705505146
-0.00713439956
-0.00710928478
-0.00689441369
-0.00690059722
-0.00704425683
-0.00712780074
-0.00710018494
-0.00689246508
-0.0068977369
-0.00704006258
-0.00711785552
-0.00713045345
-0.00710102018
-0.00689156546
-0.00690154487
-0.00705941706
-0.00713307715
-0.00709678004
-0.006891827
-0.0069010898
-0.00705647703
-0.00713055045
-0.00709373972
-0.00689165575
-0.00690111736
-0.00705736435
-0.00713125683
-0.0070936112
-0.00689146335
-0.00690147919
-0.00706313547
-0.00713611079
-0.00709790524
-0.00689219911
-0.00690204659
-0.00708747393
-0.00707964977
-0.00689013638
-0.00689969322
-0.00707429525
-0.00713426723
-0.00709838401
-0.00689152088
-0.0068990932
-0.00706190196
-0.00713343349
-0.00709989908
-0.00689162248
-0.00689946586
-0.00706527361
-0.00714427511
-0.00711062246
-0.00689456583
-0.00688992504
-0.00689877284
-0.00707653065
-0.00714515576
-0.0071466153
-0.00713513796
-0.00689771663
-0.0068960936
-0.00709788713
-0.00710637649
-0.00690402362
-0.00689597357
-0.00709121696
-0.00709862171
-0.00690122444
-0.0068965991
-0.0070662498
-0.00713852684
-0.00712348464
-0.0068996908
-0.00689732041
-0.00705262787
-0.00714035078
-0.00712783783
-0.00690352553
-0.00689302976
-0.00708076083
-0.00710100308
-0.00691085783
-0.00689349112
-0.00708062068
-0.00709886065
-0.00690983261
-0.00689539299
-0.00705323656
-0.00713537171
-0.00713115507
-0.00690362522
-0.00689574004
-0.00703646357
-0.00713300857
-0.00713102444
-0.00690356547
-0.00689498109
-0.00703611515
-0.00713335398
-0.00713286922
-0.00690318209
-0.00689516391
-0.00702438228
-0.00713563702
-0.00711388342
-0.00690304202
-0.00702432978
-0.0070988513
-0.00691046401
-0.0068933935
-0.00699998279
-0.00712479677
-0.00711991872
-0.00690080736
-0.00702468875
-0.00710012045
-0.00690966845
-0.00689007512
-0.00702485582
-0.00710084131
-0.00712863644
-0.00711919197
-0.00690128513
-0.00702042705
-0.00710428444
-0.00691061459
-0.00689038933
-0.00707571615
-0.00709312395
-0.00690977768
-0.00689205471
-0.00699101343
-0.0070998104
-0.0071074749
-0.0071306312
-0.0071255825
-0.00690954518
-0.00689044251
-0.00708468363
-0.00709514907
-0.00690518716
-0.00703775659
-0.00713082051
-0.00690927499
-0.00689246398
-0.0070902655
-0.00710606951
-0.00690575353
-0.00689065465
-0.00703545689
-0.00710194087
-0.0071277671
-0.00709903489
-0.00689783031
-0.00703481945
-0.00711200524
-0.00690358216
-0.00689096553
-0.00708917116
-0.007106296
-0.00690300459
-0.00689522591
-0.00703441831
-0.00714144917
-0.0071348316
-0.0069052109
-0.00689172908
-0.00708215403
-0.00710004924
-0.00690315763
-0.00689181889
-0.00703381572
-0.00710336098
-0.00713753354
-0.00713173045
-0.00690405746
-0.00689304892
-0.00698883277
-0.0071059001
-0.00712720843
-0.00706226087
-0.0068949779
-0.00688973246
-0.00703136721
-0.00713650344
-0.00713246113
-0.00689927431
-0.00689051751
-0.00709075908
-0.00711729939
-0.00690152689
-0.00689143037
-0.00702917104
-0.00711085694
-0.00710946235
-0.00713464323
-0.00713175779
-0.00689852407
-0.00689484272
-0.00689482852
-0.00708670772
-0.00710430649
-0.00689928883
-0.0070365056
-0.00713336088
-0.00690179001
-0.00689374738
-0.00701139725
-0.00709864169
-0.00713890349
-0.00713020547
-0.00690525935
-0.00689151333
-0.00709767334
-0.00710316967
-0.00690327906
-0.00700980699
-0.00714312702
-0.00694246244
-0.00689554208
-0.00709416734
-0.00711977708
-0.00690283377
-0.00689280754
-0.00707438157
-0.00710974715
-0.00700670375
-0.0068947018
-0.00689391102
-0.00704736553
-0.00714985482
-0.00714452596
-0.00690468221
-0.00689818182
-0.00700837958
-0.00713557848
-0.00713199872
-0.00690145648
-0.00689697075
-0.00701492685
-0.00713636161
-0.00713267281
-0.00690041195
-0.0068963517
-0.00702029943
-0.00713945098
-0.00713565586
-0.00689948805
-0.00689577471
-0.00702590271
-0.00714174618
-0.00713825838
-0.00689884076
-0.00689584376
-0.0070267276
-0.00714107358
-0.00713535582
-0.0069014771
-0.00689210024
-0.00709556855
-0.00711486767
-0.00689881918
-0.00689432546
-0.00702268249
-0.0071370097
-0.00713577611
-0.00689708968
-0.00689292987
-0.00689391223
-0.00703777752
-0.00711036272
-0.00713856642
-0.00713782021
-0.00689829561
-0.00689519447
-0.00702557794
-0.00713987181
-0.00713030789
-0.00689544385
-0.00701184145
-0.00710851448
-0.00689662903
-0.0068897317
-0.00701707537
-0.00709273236
-0.00712652367
-0.00711639291
-0.00689498379
-0.0070086777
-0.00710769651
-0.0068990607
-0.00688895785
-0.00709104841
-0.00709975275
-0.00689951815
-0.00689025557
-0.00700411592
-0.00708879342
-0.00712978043
-0.00712423066
-0.00690027588
-0.00689543091
-0.00701260201
-0.00713311941
-0.00713093873
-0.00689928472
-0.00689510275
-0.0070271325
-0.00713392848
-0.00713267081
-0.00689777976
-0.00689572644
-0.00704212805
-0.00713745169
-0.00710016934
-0.00689944087
-0.00688904005
-0.0071170584
-0.00714067339
-0.00689848019
)
;

boundaryField
{
    closed
    {
        type            zeroGradient;
    }
    open
    {
        type            zeroGradient;
    }
    sides
    {
        type            empty;
    }
    procBoundary1to0
    {
        type            processor;
        value           uniform -0.00689025956;
    }
    procBoundary1to2
    {
        type            processor;
        value           uniform -0.00689787923;
    }
}


// ************************************************************************* //
