/*--------------------------------*- C++ -*----------------------------------*\
| =========                 |                                                 |
| \\      /  F ield         | OpenFOAM: The Open Source CFD Toolbox           |
|  \\    /   O peration     | Version:  2306                                  |
|   \\  /    A nd           | Website:  www.openfoam.com                      |
|    \\/     M anipulation  |                                                 |
\*---------------------------------------------------------------------------*/
FoamFile
{
    version     2.0;
    format      ascii;
    arch        "LSB;label=32;scalar=64";
    class       volScalarField;
    location    "0.0014";
    object      H2O;
}
// * * * * * * * * * * * * * * * * * * * * * * * * * * * * * * * * * * * * * //

dimensions      [0 0 0 0 0 0 0];

internalField   nonuniform List<scalar> 
530
(
0.0030882689
0.00101003194
0.00256372757
0.0070850573
0.00708102346
0.00308508365
0.00101021036
0.00247367328
0.00708290427
0.00707556193
0.00307616134
0.00101222882
0.00236738996
0.00707531122
0.00706765519
0.00312797627
0.00101949992
0.00203724104
0.00703371471
0.00703253443
0.00317140321
0.00104245074
0.00159244279
0.0067275661
0.00695379773
0.007119132
0.007055962
0.00336994584
0.00104599721
0.0010672948
0.00102762139
0.00459795199
0.00650962438
0.00173955678
0.00103692458
0.00429488185
0.00693162355
0.0072087909
0.00717277999
0.00308925966
0.000989373332
0.0038998351
0.00717521104
0.00714830643
0.00256759822
0.00102983003
0.0038256641
0.00676127561
0.00715489184
0.00705203239
0.00230679628
0.00103331723
0.00101837589
0.00103743608
0.00314623627
0.007211254
0.00727668534
0.00258099146
0.00101461883
0.00425352813
0.00692558049
0.00721890316
0.00722075781
0.00256906794
0.00101456382
0.00390393861
0.00718556021
0.00718937006
0.00141740498
0.00103961262
0.00374897036
0.00711128319
0.00711251456
0.000754854814
0.0010674942
0.00565524867
0.00638828366
0.000716693603
0.00109738965
0.00321371112
0.00662368386
0.00684213268
0.00752657022
0.00752193899
0.00141510445
0.00104843713
0.00104593153
0.00358057712
0.00717424381
0.0072370278
0.00122516793
0.00103019695
0.00594489544
0.00688215794
0.00106811743
0.00103003607
0.00458436085
0.00725727991
0.00731190496
0.00137146725
0.000997956674
0.00604422186
0.00674605877
0.00120366761
0.00100206076
0.0060777339
0.00686586019
0.0014274595
0.00104389654
0.00429647267
0.00713175471
0.00720103901
0.00153910251
0.00101954294
0.00439463654
0.00723444701
0.00730471674
0.00168493466
0.00101254361
0.00434874413
0.00720342351
0.00727687016
0.00165646864
0.00101944497
0.00550914129
0.00674027839
0.00197413417
0.00102350848
0.00404321272
0.00703404947
0.00716144494
0.00224106441
0.00101017584
0.00376244401
0.00702235273
0.00719367697
0.00249685043
0.000997754755
0.003638457
0.00700890185
0.00721685452
0.00277703659
0.000984641271
0.00353813437
0.00700512826
0.0072557177
0.00310401053
0.000982350018
0.00469842412
0.00660172584
0.00298912553
0.000975886944
0.00345843551
0.00695477678
0.00725259573
0.00355373017
0.000969905744
0.00435472451
0.00649811247
0.00320454682
0.000973034031
0.00324694911
0.0068723212
0.00720967716
0.00368240954
0.000954011947
0.00294146438
0.00687806047
0.00728148561
0.00392945061
0.00095908956
0.00406951729
0.00642804123
0.0033920342
0.000976090895
0.0030282456
0.00679012398
0.00715455565
0.00378761142
0.000970507727
0.00244431164
0.00666658587
0.00708391411
0.00379462164
0.000979632427
0.00221117146
0.00657468908
0.0069909429
0.00370453663
0.000997788635
0.00226425605
0.00639426282
0.00678847588
0.00720116517
0.00733130135
0.00435692988
0.00093142101
0.0042398138
0.00672425042
0.00381624598
0.000965829022
0.00437813044
0.00663895201
0.0035272857
0.000973061402
0.00345325471
0.00706285261
0.00742854339
0.00388679873
0.000955047215
0.00466923285
0.00689398959
0.00356607325
0.000965818703
0.00497229161
0.00698294207
0.0034367887
0.000965424958
0.00517126352
0.00701385518
0.00320798786
0.000967228126
0.00534803363
0.00697372835
0.00283670053
0.000973762839
0.00551090087
0.00685659593
0.00225062386
0.000973876108
0.00473037261
0.00739201712
0.00734379276
0.00197070434
0.000957897344
0.00581198766
0.00667809233
0.00131374421
0.000977502811
0.00493742932
0.00726651294
0.00707624049
0.00108739515
0.000945953086
0.00607588426
0.00655133452
0.000781614026
0.000966506448
0.0052747282
0.0072768824
0.00691571727
0.00081392098
0.000940091282
0.00535749143
0.00733083064
0.00689970557
0.000829812806
0.000873527853
0.00628484769
0.00624610017
0.000862615423
0.000952737007
0.00556578502
0.00720361786
0.00657551373
0.000879786425
0.000963136911
0.00510952852
0.00707928358
0.00642208005
0.000913785819
0.00098045336
0.00492954764
0.00699409933
0.00723777902
0.00644843906
0.000895495845
0.000924643422
0.00569468104
0.00731690984
0.00654466305
0.00089092648
0.000795761089
0.00636391072
0.00595097922
0.000929481816
0.00093091684
0.00596954651
0.00724460357
0.00627163447
0.000918712789
0.00093720657
0.00565991477
0.00720492799
0.00621668752
0.000933122942
0.000940944536
0.00569098902
0.00721293819
0.00621903994
0.00093470264
0.000940951223
0.00576285223
0.00724016915
0.00625141165
0.000939740622
0.000947414243
0.00576256513
0.00723743904
0.00627879905
0.000946415064
0.000957837369
0.00570986762
0.00722048332
0.00630263084
0.000949171482
0.00096651282
0.00567366537
0.0072087214
0.00635619011
0.000948174545
0.00096990761
0.00566909745
0.00723517569
0.00646383096
0.000938605052
0.000958780789
0.00586537516
0.00736768621
0.00660913076
0.000919529343
0.000941658684
0.00614884806
0.00761948613
0.00694882363
0.000804083192
0.00107323059
0.00080619698
0.00678824209
0.00673715829
0.000906962073
0.00095174559
0.00617850056
0.00748597689
0.00673877586
0.000926269986
0.000973348838
0.00580938209
0.00735438784
0.00674919552
0.000936374638
0.000968647184
0.00627031516
0.00630043447
0.000969038902
0.00101449568
0.00568131188
0.00722634945
0.00665447378
0.0009592029
0.00101234032
0.00543612577
0.0071938629
0.00739104691
0.00717810633
0.000890596424
0.00096072503
0.00663609931
0.00678532642
0.000882203259
0.000981378131
0.00615433562
0.00766865016
0.00719146518
0.000916160058
0.000986188775
0.00666986041
0.00696349412
0.000841902381
0.0010089389
0.00664294503
0.00695761738
0.000850040957
0.00101499133
0.00666316668
0.0069894067
0.000844157797
0.00101817367
0.00666530274
0.00700525066
0.000840977288
0.00102230477
0.00666090444
0.00698933192
0.00085237116
0.00103026015
0.00665537489
0.00693881329
0.000881235281
0.00100921136
0.00609592213
0.00777931472
0.00747963862
0.000902643947
0.00100096764
0.00667417505
0.00711332837
0.000780384999
0.00102529267
0.00663533404
0.00701600562
0.000848782841
0.00104098563
0.0066192455
0.00691028675
0.000887359471
0.00102368535
0.00598294752
0.00770617788
0.00752678126
0.000928042202
0.00101370473
0.00661734627
0.00703775226
0.000847703801
0.00104341711
0.00660130789
0.00691378782
0.000877699075
0.00106236727
0.00651354156
0.00673014134
0.00091219696
0.00105626147
0.00557075
0.00744408562
0.00716621896
0.000905718956
0.00109464676
0.00106032539
0.00391603496
0.00672721647
0.00689827277
0.00692226405
0.0074482042
0.00742838647
0.000925023234
0.00104681094
0.0063061154
0.0066154675
0.000929325909
0.00107559862
0.00525647051
0.0072211546
0.00717292909
0.000981067138
0.00106816268
0.00614761002
0.00653526328
0.000951777939
0.00107844547
0.00533240979
0.00724842478
0.00714563141
0.000979796535
0.00104354227
0.00517121258
0.00732249707
0.0072159975
0.000984107734
0.00103257445
0.00537087072
0.00744197899
0.00733770856
0.000978830999
0.00104783048
0.0064487624
0.00673559795
0.000971079273
0.00105783063
0.00572279398
0.00743818214
0.00729008868
0.000986663232
0.00102032876
0.00561097401
0.0075504001
0.00736801414
0.000974892413
0.00103296054
0.00655441124
0.00678699478
0.000974802795
0.0010418322
0.00589872928
0.00755232966
0.00734795079
0.000978563212
0.00102130757
0.00661498046
0.0068286108
0.000982769079
0.0010552111
0.00658697957
0.00663352689
0.000994089465
0.00104871947
0.00573309684
0.00736784817
0.00696345321
0.00099791679
0.00102657806
0.00556708401
0.00736510199
0.00690943529
0.00100091844
0.00102700361
0.00556626238
0.00734368287
0.00685636766
0.00100377208
0.00102704882
0.00555229093
0.00732813342
0.00681927416
0.00100652489
0.00102654807
0.00555610691
0.00732390177
0.00679920194
)
;

boundaryField
{
    closed
    {
        type            calculated;
        value           nonuniform List<scalar> 0();
    }
    open
    {
        type            calculated;
        value           nonuniform List<scalar> 0();
    }
    sides
    {
        type            empty;
    }
    procBoundary2to1
    {
        type            processor;
        value           uniform 0.00708434288;
    }
    procBoundary2to3
    {
        type            processor;
        value           uniform 0.00100849766;
    }
}


// ************************************************************************* //
