/*--------------------------------*- C++ -*----------------------------------*\
| =========                 |                                                 |
| \\      /  F ield         | OpenFOAM: The Open Source CFD Toolbox           |
|  \\    /   O peration     | Version:  2306                                  |
|   \\  /    A nd           | Website:  www.openfoam.com                      |
|    \\/     M anipulation  |                                                 |
\*---------------------------------------------------------------------------*/
FoamFile
{
    version     2.0;
    format      ascii;
    arch        "LSB;label=32;scalar=64";
    class       volScalarField;
    location    "0.0014";
    object      mu;
}
// * * * * * * * * * * * * * * * * * * * * * * * * * * * * * * * * * * * * * //

dimensions      [1 -1 -1 0 0 0 0];

internalField   nonuniform List<scalar> 
530
(
1.99204935e-05
2.02762396e-05
1.99770336e-05
1.9558861e-05
1.95602085e-05
1.99210557e-05
2.02770938e-05
1.99872188e-05
1.9559596e-05
1.95620751e-05
1.99221316e-05
2.0278198e-05
1.99995298e-05
1.95621978e-05
1.95647782e-05
1.99171613e-05
2.02801245e-05
2.00394019e-05
1.95764324e-05
1.95768007e-05
1.99133036e-05
2.02845677e-05
2.0096291e-05
1.96806312e-05
1.9603738e-05
1.95474391e-05
1.95689136e-05
1.9891087e-05
2.0300218e-05
2.03034394e-05
2.02887899e-05
1.980467e-05
1.97523656e-05
2.00784779e-05
2.02998276e-05
1.98221794e-05
1.96111517e-05
1.95168223e-05
1.95291169e-05
1.99191212e-05
2.02850836e-05
1.98472019e-05
1.95279115e-05
1.9537482e-05
1.99764494e-05
2.02903075e-05
1.98577047e-05
1.96688676e-05
1.95348142e-05
1.95702516e-05
2.00069521e-05
2.02878628e-05
2.02744459e-05
2.02840612e-05
1.99164214e-05
1.95157951e-05
1.94935001e-05
1.99745533e-05
2.02888951e-05
1.98265767e-05
1.96132332e-05
1.95130719e-05
1.95125601e-05
1.99759807e-05
2.02783567e-05
1.98514232e-05
1.95238735e-05
1.95232077e-05
2.01225533e-05
2.02773068e-05
1.9865527e-05
1.95493309e-05
1.95495938e-05
2.02161654e-05
2.02992791e-05
1.98018196e-05
1.9762519e-05
2.02219438e-05
2.02980893e-05
1.99126814e-05
1.97151899e-05
1.96418029e-05
1.94052041e-05
1.94082327e-05
2.01251197e-05
2.02835431e-05
2.02662627e-05
1.98771991e-05
1.9527487e-05
1.95070888e-05
2.01489539e-05
2.02988513e-05
1.97866578e-05
1.96278966e-05
2.01734745e-05
2.02913274e-05
1.98143407e-05
1.9499355e-05
1.94812607e-05
2.01279713e-05
2.03027307e-05
1.97717828e-05
1.96741336e-05
2.01487905e-05
2.03056587e-05
1.97723573e-05
1.96336476e-05
2.01209751e-05
2.02814524e-05
1.98301614e-05
1.95427445e-05
1.95193146e-05
2.01058401e-05
2.02870804e-05
1.98214538e-05
1.95075239e-05
1.948375e-05
2.00865754e-05
2.02824863e-05
1.98242344e-05
1.95179663e-05
1.94932759e-05
2.00889539e-05
2.02991703e-05
1.97786779e-05
1.96758462e-05
2.00492537e-05
2.02813232e-05
1.98468148e-05
1.95762741e-05
1.95327203e-05
2.00151732e-05
2.0276897e-05
1.98661291e-05
1.95803318e-05
1.95217361e-05
1.99843418e-05
2.02753443e-05
1.98757185e-05
1.95849399e-05
1.95137541e-05
1.99516762e-05
2.02704178e-05
1.98833542e-05
1.95862267e-05
1.95005724e-05
1.99159136e-05
2.02790025e-05
1.98036582e-05
1.9722395e-05
1.99275776e-05
2.0271688e-05
1.98900955e-05
1.96033981e-05
1.95016081e-05
1.98702687e-05
2.02720903e-05
1.98228963e-05
1.97569484e-05
1.99049806e-05
2.02718601e-05
1.99092347e-05
1.96312998e-05
1.95160766e-05
1.985803e-05
2.02580113e-05
1.99381239e-05
1.96293428e-05
1.94916537e-05
1.98354959e-05
2.02688649e-05
1.98401447e-05
1.97634635e-05
1.98864059e-05
2.02734958e-05
1.99296007e-05
1.96589463e-05
1.95349969e-05
1.98499786e-05
2.02622721e-05
1.99903451e-05
1.97003684e-05
1.95591953e-05
1.98499235e-05
2.02642633e-05
2.00166568e-05
1.97310872e-05
1.95910564e-05
1.9859015e-05
2.02669151e-05
2.00105666e-05
1.9761384e-05
1.96600137e-05
1.95192504e-05
1.94743013e-05
1.98030921e-05
2.02667998e-05
1.98239872e-05
1.96814367e-05
1.98462201e-05
2.02776428e-05
1.98156838e-05
1.97105645e-05
1.98742956e-05
2.02687003e-05
1.98899616e-05
1.95665038e-05
1.94404507e-05
1.98422798e-05
2.02752915e-05
1.97977475e-05
1.96240574e-05
1.98691982e-05
2.02857339e-05
1.97798578e-05
1.95937869e-05
1.98815664e-05
2.02862765e-05
1.97707757e-05
1.9583252e-05
1.99047897e-05
2.02858093e-05
1.97656182e-05
1.95968993e-05
1.99450822e-05
2.02822596e-05
1.97642077e-05
1.96367105e-05
2.00140935e-05
2.02698346e-05
1.97976644e-05
1.9452843e-05
1.94707488e-05
2.00482073e-05
2.02656213e-05
1.97723329e-05
1.96966187e-05
2.01359361e-05
2.02602897e-05
1.97898127e-05
1.94960436e-05
1.95620138e-05
2.01644975e-05
2.02517642e-05
1.97861797e-05
1.97386034e-05
2.02467267e-05
2.02520401e-05
1.97820275e-05
1.94923103e-05
1.96162129e-05
2.02507097e-05
2.02413852e-05
1.97756285e-05
1.94734337e-05
1.96210898e-05
2.02524833e-05
2.02219179e-05
1.97914479e-05
1.97477064e-05
2.02896374e-05
2.024494e-05
1.97736338e-05
1.95176009e-05
1.97287302e-05
2.02786051e-05
2.02439437e-05
1.97825451e-05
1.9560509e-05
1.97363737e-05
2.02855806e-05
2.02523684e-05
1.97983747e-05
1.95899866e-05
1.95058347e-05
1.97354399e-05
2.02871858e-05
2.0239057e-05
1.97654017e-05
1.94780865e-05
1.97302508e-05
2.02841877e-05
2.0205052e-05
1.97848519e-05
1.97541742e-05
2.03159463e-05
2.02454489e-05
1.97640611e-05
1.9503371e-05
1.97376312e-05
2.02974249e-05
2.02471005e-05
1.97668252e-05
1.95170299e-05
1.97400456e-05
2.0300077e-05
2.0249233e-05
1.97659195e-05
1.95142377e-05
1.97411119e-05
2.03017015e-05
2.02529086e-05
1.9764548e-05
1.95048022e-05
1.97419622e-05
2.0303817e-05
2.02581029e-05
1.97641274e-05
1.95057411e-05
1.97442992e-05
2.03049154e-05
2.02631947e-05
1.97649018e-05
1.9511591e-05
1.97477247e-05
2.03033774e-05
2.02667375e-05
1.97665123e-05
1.95156079e-05
1.97517958e-05
2.0299818e-05
2.02688831e-05
1.97677407e-05
1.95063222e-05
1.97558596e-05
2.02944296e-05
2.02702493e-05
1.97674898e-05
1.94600532e-05
1.9719708e-05
2.02920831e-05
2.0270658e-05
1.97636772e-05
1.93699763e-05
1.9605089e-05
2.02298408e-05
2.02934328e-05
2.02039984e-05
1.96599766e-05
1.96781332e-05
2.02961475e-05
2.02666777e-05
1.97621894e-05
1.94181688e-05
1.96764539e-05
2.02854339e-05
2.02774043e-05
1.9768648e-05
1.94644481e-05
1.96729897e-05
2.02789292e-05
2.02962356e-05
1.97775179e-05
1.97832503e-05
2.02994517e-05
2.02791047e-05
1.97672577e-05
1.9509415e-05
1.97048979e-05
2.02852332e-05
2.02894934e-05
1.97872814e-05
1.95212743e-05
1.94525094e-05
1.95268264e-05
2.02755226e-05
2.02910426e-05
1.97122033e-05
1.9661415e-05
2.0281771e-05
2.02765375e-05
1.97692268e-05
1.9354117e-05
1.95226371e-05
2.02744867e-05
2.03016654e-05
1.97011352e-05
1.96004451e-05
2.02606606e-05
2.02981193e-05
1.97105098e-05
1.9602441e-05
2.02673688e-05
2.03005668e-05
1.97035333e-05
1.95915915e-05
2.02685753e-05
2.03018478e-05
1.97028423e-05
1.95861867e-05
2.02695485e-05
2.03028569e-05
1.97043239e-05
1.9591608e-05
2.02758219e-05
2.03016408e-05
1.97059235e-05
1.96088814e-05
2.0295236e-05
2.02825348e-05
1.97710386e-05
1.93159781e-05
1.94237174e-05
2.02821415e-05
2.03056187e-05
1.96997804e-05
1.95493354e-05
2.02506154e-05
2.03034286e-05
1.97132815e-05
1.95825156e-05
2.02819898e-05
2.0303339e-05
1.97182183e-05
1.96185862e-05
2.02987749e-05
2.02847135e-05
1.97722583e-05
1.93424793e-05
1.94073681e-05
2.02830872e-05
2.03067954e-05
1.97187274e-05
1.95751065e-05
2.02810134e-05
2.03095945e-05
1.97244088e-05
1.96171068e-05
2.02854187e-05
2.03113457e-05
1.97532286e-05
1.96794369e-05
2.02998607e-05
2.02911336e-05
1.97699692e-05
1.94345576e-05
1.95312801e-05
2.0283115e-05
2.02905218e-05
2.02821698e-05
1.98512304e-05
1.96808912e-05
1.96227419e-05
1.96145503e-05
1.94333337e-05
1.94408835e-05
2.02838368e-05
2.03023643e-05
1.97715407e-05
1.97180988e-05
2.02948449e-05
2.02901454e-05
1.97825627e-05
1.95121277e-05
1.95290064e-05
2.02955963e-05
2.03062052e-05
1.97695889e-05
1.97445447e-05
2.02998381e-05
2.02947776e-05
1.97809311e-05
1.95029569e-05
1.95381933e-05
2.03008788e-05
2.02884783e-05
1.97831513e-05
1.94774416e-05
1.95140756e-05
2.03037987e-05
2.02866486e-05
1.97745605e-05
1.94358114e-05
1.94727718e-05
2.03011297e-05
2.0307161e-05
1.97699501e-05
1.9677524e-05
2.03132879e-05
2.02938053e-05
1.97717193e-05
1.94374599e-05
1.94885679e-05
2.03084479e-05
2.02862038e-05
1.97692543e-05
1.93978482e-05
1.94623317e-05
2.03006648e-05
2.03070419e-05
1.97388549e-05
1.96603518e-05
2.03189087e-05
2.02880233e-05
1.97672102e-05
1.93969497e-05
1.9469145e-05
2.03006284e-05
2.03089436e-05
1.97189118e-05
1.96459829e-05
2.03146424e-05
2.03083254e-05
1.97282072e-05
1.97120306e-05
2.03217541e-05
2.0288101e-05
1.97705298e-05
1.9461462e-05
1.9600396e-05
2.03148191e-05
2.02862145e-05
1.97707804e-05
1.94624328e-05
1.96186877e-05
2.03149242e-05
2.02854175e-05
1.97706937e-05
1.94698351e-05
1.963662e-05
2.03152658e-05
2.02850611e-05
1.97704073e-05
1.94752385e-05
1.96491055e-05
2.03156012e-05
2.02847535e-05
1.97698551e-05
1.94767291e-05
1.96558387e-05
)
;

boundaryField
{
    closed
    {
        type            calculated;
        value           nonuniform List<scalar> 0();
    }
    open
    {
        type            calculated;
        value           nonuniform List<scalar> 0();
    }
    sides
    {
        type            empty;
    }
    procBoundary2to1
    {
        type            processor;
        value           uniform 1.95590685e-05;
    }
    procBoundary2to3
    {
        type            processor;
        value           uniform 2.03160069e-05;
    }
}


// ************************************************************************* //
