/*--------------------------------*- C++ -*----------------------------------*\
| =========                 |                                                 |
| \\      /  F ield         | OpenFOAM: The Open Source CFD Toolbox           |
|  \\    /   O peration     | Version:  2306                                  |
|   \\  /    A nd           | Website:  www.openfoam.com                      |
|    \\/     M anipulation  |                                                 |
\*---------------------------------------------------------------------------*/
FoamFile
{
    version     2.0;
    format      ascii;
    arch        "LSB;label=32;scalar=64";
    class       volScalarField;
    location    "0.0014";
    object      p;
}
// * * * * * * * * * * * * * * * * * * * * * * * * * * * * * * * * * * * * * //

dimensions      [1 -1 -2 0 0 0 0];

internalField   nonuniform List<scalar> 
530
(
101742.37
101728.567
101714.7
101699.206
101684.149
101669.1
101654.216
101639.075
101623.032
101607.139
101592.019
101577.681
101563.298
101547.89
101532.378
101517.479
101503.271
101489.336
101474.011
101458.719
101444.168
101430.494
101419.256
101404.944
101390.447
101376.429
101362.755
101349.837
101337.555
101325.679
101314.411
101303.536
101293.118
101283.148
101274.232
101265.985
101258.148
101250.498
101243.062
101236.21
101229.885
101223.746
101217.631
101211.573
101206.119
101201.119
101196.332
101191.623
101187.005
101182.581
101178.618
101174.998
101171.501
101168.196
101165.144
101162.008
101158.99
101156.144
101153.899
101151.913
101150.067
101148.336
101146.705
101144.957
101143.548
101142.152
101140.666
101139.185
101137.605
101136.465
101135.395
101134.339
101133.642
101133.259
101133.129
101133.56
101134.386
101135.267
101135.854
101136.302
101136.51
101136.907
101138.4
101140.375
101137.316
101139.307
101140.651
101140.873
101140.696
101140.569
101140.335
101140.137
101139.747
101139.051
101137.858
101136.437
101134.524
101131.911
101128.491
101124.242
101119.839
101114.75
101109.071
101102.659
101096.152
101088.933
101081.1
101072.377
101063.722
101054.146
101043.418
101031.603
101018.961
101006.883
100993.853
100979.549
100964.031
100947.72
100932.248
100915.695
100897.657
100878.384
100858.416
100839.655
100820.103
100799.798
100778.742
100759.139
100738.968
100717.705
100695.92
100674.671
100655.577
100636.818
100617.779
100599.469
100583.04
100569.457
100557.52
100546.568
100537.712
100531.795
100528.575
100527.63
100528.186
100531.177
100536.884
100543.819
100552.896
100562.951
100574.606
100587.144
100601.132
100616.026
100632.597
100650.698
100668.524
100687.887
100707.735
100728.618
100749.199
100770.522
100792.23
100814.708
100837.303
100858.442
100879.444
100900.135
100920.921
100941.117
100959.352
100977.162
100993.964
101009.92
101024.38
101038.243
101051.459
101064.474
101077.003
101088.426
101099.43
101109.919
101120.486
101130.865
101140.564
101150.181
101159.676
101169.778
101180.237
101190.514
101201.145
101212.087
101223.828
101236.38
101249.608
101263.57
101277.533
101292.452
101308.511
101325.871
101343.347
101361.922
101381.922
101403.404
101424.972
101447.593
101472.212
101498.986
101527.389
101555.1
101583.026
101612.61
101646.756
101676.855
101709.221
101742.044
101774.661
101806.47
101840.752
101876.056
101910.355
101942.492
101975.77
102008.544
102039.601
102067.991
102097.012
102124.778
102150.269
102171.939
102192.467
102210.849
102227.002
102240.224
102249.704
102257.268
102262.084
102264.904
102263.66
102259.709
102252.32
102242.561
102231.717
102219.099
102205.951
102193.144
102181.5
102171.299
102161.345
102150.973
102138.866
102127.979
102115.518
102104.555
102093.911
102083.145
102072.73
102062.335
102051.197
102038.926
102026.066
102012.349
101997.287
101981.576
101966.519
101953.235
101940.717
101927.959
101914.839
101902.173
101890.475
101880.105
101870.451
101861.851
101854.547
101848.473
101842.889
101836.693
101828.508
101818.925
101810.932
101805.749
101802.3
101797.581
101791.348
101783.817
101775.313
101765.301
101754.458
101743.125
101731.375
101719.026
101705.498
101691.317
101676.868
101662.275
101646.99
101630.887
101614.404
101597.995
101581.791
101565.479
101548.476
101531.508
101514.866
101498.694
101483.21
101467.31
101451.325
101435.571
101420.88
101407.235
101394.521
101382.786
101371.63
101361.29
101351.916
101343.328
101335.7
101328.894
101323.047
101318.098
101313.924
101310.465
101307.497
101304.991
101302.828
101301.102
101299.764
101298.559
101298.004
101297.735
101297.972
101298.573
101299.205
101300.077
101301.107
101302.689
101304.14
101306.151
101308.424
101310.766
101313.482
101316.236
101318.894
101321.671
101324.644
101328.054
101331.685
101335.279
101338.584
101341.573
101344.427
101346.929
101349.068
101350.782
101352.312
101353.538
101354.418
101355.092
101355.581
101356.078
101356.582
101357.032
101357.382
101357.666
101357.671
101357.536
101357.181
101356.638
101355.805
101354.796
101353.581
101352.08
101350.504
101348.63
101346.591
101344.191
101341.719
101339.168
101336.659
101333.918
101331.276
101328.754
101326.427
101323.983
101321.719
101319.629
101317.805
101315.92
101314.236
101312.724
101311.505
101310.254
101309.147
101308.113
101307.28
101306.28
101305.288
101304.218
101303.168
101301.953
101300.468
101298.942
101297.206
101295.403
101293.108
101290.653
101288.067
101285.483
101282.383
101279.091
101275.844
101272.645
101269.055
101265.466
101262.162
101259.098
101256.268
101253.64
101251.525
101249.874
101248.829
101248.24
101248.253
101248.872
101250.319
101252.622
101255.646
101259.174
101263.614
101269.23
101275.556
101282.021
101289.514
101297.738
101307.235
101315.794
101324.38
101333.634
101343.463
101353.597
101364.006
101374.4
101384.93
101395.315
101404.894
101414.118
101423.618
101433.422
101439.744
101448.001
101455.624
101462.792
101469.533
101475.529
101481.056
101486.437
101492.077
101494.304
101498.581
101501.977
101504.805
101507.14
101508.723
101509.784
101510.28
101510.359
101510.091
101509.549
101508.618
101507.308
101505.812
101504.222
101502.691
101501.097
101499.793
101498.522
101497.46
101496.642
101496.238
101496.268
101496.668
101497.519
101498.699
101500.355
101502.518
101505.168
101508.119
101511.431
101515.249
101519.726
101524.545
101529.397
101534.558
101539.885
101545.468
101550.757
101555.977
101561.398
101567.036
101571.846
101576.57
101581.255
101585.879
101589.728
101593.452
101596.982
101600.184
101603.063
101605.186
101607.119
101608.725
101609.978
101610.942
101611.381
101611.655
101611.608
101611.279
101610.763
101609.956
101609.02
101607.772
101606.273
101604.597
101602.724
101600.615
101598.04
101595.071
101591.782
)
;

boundaryField
{
    closed
    {
        type            zeroGradient;
    }
    open
    {
        type            waveTransmissive;
        gamma           1.25;
        fieldInf        101325;
        lInf            1;
        value           nonuniform List<scalar> 0();
    }
    sides
    {
        type            empty;
    }
    procBoundary2to1
    {
        type            processor;
        value           uniform 101756.876;
    }
    procBoundary2to3
    {
        type            processor;
        value           uniform 101588.341;
    }
}


// ************************************************************************* //
