/*--------------------------------*- C++ -*----------------------------------*\
| =========                 |                                                 |
| \\      /  F ield         | OpenFOAM: The Open Source CFD Toolbox           |
|  \\    /   O peration     | Version:  2306                                  |
|   \\  /    A nd           | Website:  www.openfoam.com                      |
|    \\/     M anipulation  |                                                 |
\*---------------------------------------------------------------------------*/
FoamFile
{
    version     2.0;
    format      ascii;
    arch        "LSB;label=32;scalar=64";
    class       volScalarField;
    location    "0.0007";
    object      PV;
}
// * * * * * * * * * * * * * * * * * * * * * * * * * * * * * * * * * * * * * //

dimensions      [0 0 0 0 0 0 0];

internalField   nonuniform List<scalar> 
531
(
-0.00698546755
-0.0069937303
-0.00712236493
-0.00723756733
-0.00721408618
-0.0069905057
-0.00698804797
-0.00699239713
-0.00715131209
-0.00722511559
-0.00720497402
-0.00723479444
-0.00722657167
-0.00699072215
-0.00698727637
-0.00720164513
-0.00721344502
-0.00698717907
-0.00698662759
-0.00720573561
-0.00721630626
-0.00698210107
-0.00698777451
-0.00716436469
-0.00721944446
-0.0071566676
-0.0069894688
-0.00698337099
-0.0072174301
-0.00722949156
-0.00698538951
-0.00699185544
-0.00713999037
-0.00722228769
-0.00721142833
-0.0069868804
-0.00699168253
-0.00711777052
-0.00723852534
-0.00722576947
-0.0069876447
-0.00698951163
-0.00699103244
-0.00714420546
-0.00721526008
-0.00722535713
-0.00722737181
-0.00698556594
-0.00699451157
-0.00716133719
-0.00725645054
-0.0072265617
-0.00700014456
-0.0069879742
-0.00701119332
-0.00718558693
-0.00725670752
-0.00720851756
-0.00699529698
-0.00698658299
-0.00723005894
-0.00723229557
-0.00699177829
-0.00698920215
-0.00722441471
-0.00722517788
-0.00699068427
-0.00698960959
-0.00721866008
-0.0072297646
-0.00698786986
-0.00699028585
-0.00721299024
-0.00722778186
-0.007018739
-0.00699137981
-0.00711836481
-0.00722842848
-0.00722597167
-0.00698697061
-0.00699121742
-0.00712922015
-0.00722855782
-0.00722603126
-0.00698735699
-0.00699289061
-0.00710459484
-0.00724036916
-0.00722784906
-0.00698810642
-0.0069902234
-0.00699009957
-0.00710641978
-0.00720508512
-0.00720986575
-0.00720878274
-0.00723009871
-0.00721912693
-0.00698941231
-0.00698789802
-0.0072025989
-0.0072149934
-0.00698865939
-0.00698731564
-0.00721144437
-0.00722113692
-0.00698849442
-0.00698760017
-0.00721577561
-0.00722192148
-0.00698904149
-0.00698853404
-0.00721375685
-0.00722271244
-0.0069867387
-0.00699032847
-0.00714246492
-0.00722636479
-0.00721832814
-0.0069889889
-0.00699073112
-0.00711723448
-0.00722211305
-0.00722228852
-0.00698894616
-0.0069926107
-0.00713950598
-0.00724167737
-0.00723528637
-0.00699228748
-0.00698820696
-0.00722051949
-0.00723138537
-0.00699281363
-0.00698850239
-0.00721791623
-0.00721884753
-0.00699078671
-0.00698921518
-0.00710790173
-0.00719921004
-0.00722007565
-0.007212522
-0.00698846539
-0.00699031354
-0.00714665755
-0.00723006865
-0.00721589442
-0.00699215441
-0.00698743377
-0.00721338924
-0.00722367048
-0.00698986592
-0.00699075296
-0.00713146782
-0.00723019636
-0.0072209089
-0.00699458605
-0.00698757187
-0.00721733274
-0.00722034861
-0.00699229964
-0.0069884965
-0.007108353
-0.00720407365
-0.00722765574
-0.00718098622
-0.00699294657
-0.00698419561
-0.00721420906
-0.00723494662
-0.00699506373
-0.00699180241
-0.00713432631
-0.00722661188
-0.00721639184
-0.0069908553
-0.0069882026
-0.00713579328
-0.0072233415
-0.00721829786
-0.00698943518
-0.00698809629
-0.00713834062
-0.00722742779
-0.00721988785
-0.00699012265
-0.0069918503
-0.00713470698
-0.00724751422
-0.00723214695
-0.00699742121
-0.00699161265
-0.00699670239
-0.00699222469
-0.00718418935
-0.00723383897
-0.00721337607
-0.00725033308
-0.0072359562
-0.00704566874
-0.00699061844
-0.00699611251
-0.00698916569
-0.00698943009
-0.00718898054
-0.00723554589
-0.00722732394
-0.00722723473
-0.00699345259
-0.0069915396
-0.00710335828
-0.00721611467
-0.00721625706
-0.00699016755
-0.00698889232
-0.0071358411
-0.00722634579
-0.00722077449
-0.00698935644
-0.00698938229
-0.00714801099
-0.0072358283
-0.00722127568
-0.0069923938
-0.00698624099
-0.00720924112
-0.00722030102
-0.00699328011
-0.00698927161
-0.00713890275
-0.00722759422
-0.00721755312
-0.00698921317
-0.00698823727
-0.00714309767
-0.00722986885
-0.00721509181
-0.00698896713
-0.00698530609
-0.00712575643
-0.00720507095
-0.00721735231
-0.00716253788
-0.00699290507
-0.00698520716
-0.00721158338
-0.0072228521
-0.0070192045
-0.00699459852
-0.00699729619
-0.00699316437
-0.00718515592
-0.00723453241
-0.00721250135
-0.0072408497
-0.00722754134
-0.00699116384
-0.00698782475
-0.00718165054
-0.0072262861
-0.00715539896
-0.00699221563
-0.0069810448
-0.00720443857
-0.0072109993
-0.00699602125
-0.00698706125
-0.00706442578
-0.00719407985
-0.00723088353
-0.00719263798
-0.00698847417
-0.00698642815
-0.00716471447
-0.00722900237
-0.00715092319
-0.0070001033
-0.00698466318
-0.00699633025
-0.00718001669
-0.00723848037
-0.00721208024
-0.00725373149
-0.00723210965
-0.00699354691
-0.00699215353
-0.00699160335
-0.00699240663
-0.00714974947
-0.00724834419
-0.00723819774
-0.00698685064
-0.00699364344
-0.00714914684
-0.00725382706
-0.00721028585
-0.00699721131
-0.00698503773
-0.00699930083
-0.00716649635
-0.00726450897
-0.00720280962
-0.00699622481
-0.00698604498
-0.00699345688
-0.0071587664
-0.00722507867
-0.00722771883
-0.00721672094
-0.0069867436
-0.00698719123
-0.00710894398
-0.0072037725
-0.00722652031
-0.00713915211
-0.00698934338
-0.00698410426
-0.00699042397
-0.00711327495
-0.00720859121
-0.0072085598
-0.00723716936
-0.00719914209
-0.00698847518
-0.00699679395
-0.00721758076
-0.00725552402
-0.00715339656
-0.00699173252
-0.00698671826
-0.00699082246
-0.00698800286
-0.00718748587
-0.00722798401
-0.00723370802
-0.00721447242
-0.00699007807
-0.00698850619
-0.0072303174
-0.00722713152
-0.00698859687
-0.00698916568
-0.00707407025
-0.00720009633
-0.00722950582
-0.00716134263
-0.0069856353
-0.00698856167
-0.00717061377
-0.00724005913
-0.00718049901
-0.00698805932
-0.00698395979
-0.00699215621
-0.00712729303
-0.00720865051
-0.00720920679
-0.00721304095
-0.00723908183
-0.00717073982
-0.00698845994
-0.00699132853
-0.00699038287
-0.00704468879
-0.00720793362
-0.0072552393
-0.00721009535
-0.00698894
-0.00698816802
-0.00706534072
-0.00721215256
-0.00722792104
-0.00707621318
-0.00699165307
-0.00707274115
-0.0072290655
-0.00720470366
-0.00698310848
-0.00698382377
-0.00709730014
-0.00720291947
-0.00722648754
-0.00717775454
-0.00697797265
-0.00698122625
-0.00717920883
-0.00724323528
-0.00722102871
-0.00702730037
-0.00697079915
-0.00697873547
-0.00696593617
-0.0069705994
-0.00717041101
-0.00722585171
-0.00722721767
-0.0072029069
-0.00693235099
-0.00693645799
-0.00712776968
-0.00720327001
-0.00713573064
-0.00690999388
-0.00690634233
-0.00689440972
-0.00689891401
-0.00711775928
-0.00704049368
-0.00685520103
-0.00685058901
-0.00683282739
-0.00682239949
-0.00680238234
-0.00678609441
-0.00676350425
-0.00674111235
-0.00671567124
-0.00668631275
-0.00665667613
-0.00662020125
-0.00658209097
-0.00653553666
-0.00647034919
-0.00641527687
-0.00635847796
-0.00631735681
-0.00624919071
-0.00620095458
-0.00612557339
-0.0060646511
-0.0059841963
-0.00588842311
-0.00576876217
-0.00564584283
-0.00555060768
-0.00542339528
-0.00530863005
-0.00518989444
-0.00509013053
-0.00497771878
-0.00487634137
-0.0047208442
-0.00444790349
-0.0043686083
-0.00414091593
-0.00401740613
-0.00390515443
-0.00374794887
-0.00359909429
-0.00338263497
-0.00321929818
-0.00291460498
-0.00258396922
-0.00222586855
-0.00200125436
-0.00178498927
-0.00160805963
-0.00165448388
-0.00153346717
-0.00124312151
-0.00105802932
-0.000749287309
-0.000540792912
-0.000218376438
2.21129483e-05
0.000352433973
0.000596309775
0.000923431627
0.00114750855
0.00143300851
0.00164081379
0.0019180234
0.00211718569
0.00238905068
0.00258123699
0.00284718985
0.00302391738
0.00327935261
0.00346274275
0.00370034083
0.00381283299
0.00398835558
0.00419467899
0.00437876942
0.00435686773
0.00451760284
0.00483038196
0.00499108284
0.00497411893
0.0051174798
0.00538287255
0.00547370768
0.00547419014
0.00556218329
0.00574211629
0.005772563
0.00583532802
0.00591634026
0.0060128087
0.00617037193
0.00615438225
0.00603115771
0.00627947016
0.00656175875
0.00630376975
0.00619436232
0.00654509854
0.00680887266
0.00637441942
0.0063763445
0.00678684509
0.00683450868
0.00651965748
0.00654585667
0.00683750533
0.00684686334
0.00660229417
0.00661644958
0.00684977922
0.00684834141
0.00666578708
0.00665585127
0.00684917967
0.00684705716
0.00669305646
0.00667842514
0.00684274294
0.00684392057
0.00670687293
0.00669552019
)
;

boundaryField
{
    closed
    {
        type            zeroGradient;
    }
    open
    {
        type            zeroGradient;
    }
    sides
    {
        type            empty;
    }
    procBoundary4to3
    {
        type            processor;
        value           uniform -0.00723531898;
    }
    procBoundary4to5
    {
        type            processor;
        value           uniform 0.00683924622;
    }
}


// ************************************************************************* //
