/*--------------------------------*- C++ -*----------------------------------*\
| =========                 |                                                 |
| \\      /  F ield         | OpenFOAM: The Open Source CFD Toolbox           |
|  \\    /   O peration     | Version:  2306                                  |
|   \\  /    A nd           | Website:  www.openfoam.com                      |
|    \\/     M anipulation  |                                                 |
\*---------------------------------------------------------------------------*/
FoamFile
{
    version     2.0;
    format      ascii;
    arch        "LSB;label=32;scalar=64";
    class       volScalarField;
    location    "0.00132";
    object      alpha;
}
// * * * * * * * * * * * * * * * * * * * * * * * * * * * * * * * * * * * * * //

dimensions      [1 -1 -1 0 0 0 0];

internalField   nonuniform List<scalar> 
531
(
3.68315076e-05
3.5498218e-05
3.53779638e-05
3.68366189e-05
3.68338666e-05
3.56831941e-05
3.53498584e-05
3.53769385e-05
3.68323552e-05
3.68464094e-05
3.56575825e-05
3.52274002e-05
3.5391166e-05
3.68338431e-05
3.68407799e-05
3.5536109e-05
3.54737394e-05
3.68371985e-05
3.68225145e-05
3.57137204e-05
3.54814607e-05
3.54427783e-05
3.5343472e-05
3.51737617e-05
3.51831807e-05
3.68466295e-05
3.68417796e-05
3.6842367e-05
3.68467654e-05
3.56226877e-05
3.54547427e-05
3.6845323e-05
3.68425961e-05
3.56859716e-05
3.55155913e-05
3.54385275e-05
3.55228305e-05
3.68636654e-05
3.56933117e-05
3.52814702e-05
3.68603109e-05
3.68463955e-05
3.57637757e-05
3.53399349e-05
3.54277442e-05
3.68330829e-05
3.68582975e-05
3.55709759e-05
3.55663599e-05
3.68147019e-05
3.68337924e-05
3.62823353e-05
3.55028596e-05
3.50883435e-05
3.53206027e-05
3.68307128e-05
3.68488578e-05
3.54241082e-05
3.55060415e-05
3.68514442e-05
3.57013575e-05
3.53926273e-05
3.68379754e-05
3.68347396e-05
3.68390708e-05
3.55554274e-05
3.51675518e-05
3.53693965e-05
3.51688582e-05
3.68266647e-05
3.68140889e-05
3.56398145e-05
3.50707069e-05
3.52472854e-05
3.67955004e-05
3.66390216e-05
3.50703293e-05
3.54040011e-05
3.68229253e-05
3.68102844e-05
3.52637384e-05
3.53507884e-05
3.68393668e-05
3.68209429e-05
3.68414264e-05
3.54663224e-05
3.5347818e-05
3.68213399e-05
3.68226969e-05
3.6819449e-05
3.57795494e-05
3.51067914e-05
3.53263594e-05
3.49532123e-05
3.50168261e-05
3.6811922e-05
3.68157375e-05
3.51210427e-05
3.50934492e-05
3.68075224e-05
3.67913527e-05
3.68076198e-05
3.62260157e-05
3.50055932e-05
3.53091083e-05
3.68309105e-05
3.56977871e-05
3.52978101e-05
3.68249136e-05
3.68050516e-05
3.57687076e-05
3.55064562e-05
3.53670758e-05
3.54445326e-05
3.68437759e-05
3.55187859e-05
3.51136162e-05
3.68143314e-05
3.68240236e-05
3.68202452e-05
3.50815349e-05
3.50493275e-05
3.68194012e-05
3.68175339e-05
3.68202667e-05
3.54741706e-05
3.51469488e-05
3.68195579e-05
3.6809145e-05
3.58842497e-05
3.51503276e-05
3.51516287e-05
3.6816895e-05
3.6827327e-05
3.54005127e-05
3.49227656e-05
3.5103057e-05
3.68127009e-05
3.68330668e-05
3.52208366e-05
3.51412578e-05
3.6808828e-05
3.68283514e-05
3.52656486e-05
3.52278842e-05
3.68180953e-05
3.68212516e-05
3.52441145e-05
3.52662049e-05
3.68272434e-05
3.68219362e-05
3.68346678e-05
3.55668699e-05
3.52385887e-05
3.68310151e-05
3.68221716e-05
3.56910927e-05
3.52973445e-05
3.56584522e-05
3.52449609e-05
3.57015389e-05
3.68245656e-05
3.56970838e-05
3.5353312e-05
3.68370534e-05
3.68146315e-05
3.55490197e-05
3.55941766e-05
3.68464277e-05
3.56595543e-05
3.53019601e-05
3.68219025e-05
3.68378579e-05
3.68352103e-05
3.5306309e-05
3.50077605e-05
3.68299566e-05
3.68389753e-05
3.55984371e-05
3.51488066e-05
3.53080474e-05
3.68269873e-05
3.68410444e-05
3.57049777e-05
3.54223559e-05
3.56527265e-05
3.68313503e-05
3.68275775e-05
3.57344519e-05
3.53037452e-05
3.57073773e-05
3.68266599e-05
3.56403876e-05
3.5169927e-05
3.68216007e-05
3.67930027e-05
3.68214286e-05
3.49916716e-05
3.49245789e-05
3.67987085e-05
3.68160606e-05
3.68097635e-05
3.50362264e-05
3.47376563e-05
3.67949339e-05
3.67864456e-05
3.54234515e-05
3.53138583e-05
3.67951222e-05
3.67902532e-05
3.56354778e-05
3.5424187e-05
3.53314099e-05
3.53333539e-05
3.68079663e-05
3.68025963e-05
3.52241636e-05
3.52285287e-05
3.68101204e-05
3.68082316e-05
3.68194127e-05
3.54122e-05
3.49900201e-05
3.68042394e-05
3.68233496e-05
3.56156604e-05
3.5176569e-05
3.52372144e-05
3.68136566e-05
3.68260113e-05
3.57210706e-05
3.51149665e-05
3.53164811e-05
3.68283799e-05
3.6837516e-05
3.54501945e-05
3.52800554e-05
3.68334465e-05
3.68352529e-05
3.57256183e-05
3.53051212e-05
3.53972029e-05
3.68382225e-05
3.68518147e-05
3.57011376e-05
3.55561056e-05
3.54739676e-05
3.55637475e-05
3.68577245e-05
3.57147924e-05
3.52987786e-05
3.68246176e-05
3.68496054e-05
3.55182971e-05
3.53316479e-05
3.68227491e-05
3.6841488e-05
3.54322239e-05
3.5337096e-05
3.68151581e-05
3.68380459e-05
3.53689066e-05
3.53042072e-05
3.68130915e-05
3.6831834e-05
3.52928365e-05
3.52931565e-05
3.68308547e-05
3.68335194e-05
3.6830969e-05
3.56301918e-05
3.50458389e-05
3.53301042e-05
3.68171373e-05
3.68464729e-05
3.52334323e-05
3.53307786e-05
3.68316784e-05
3.56626441e-05
3.50856483e-05
3.68337348e-05
3.68128912e-05
3.5569517e-05
3.53665043e-05
3.68363839e-05
3.6794827e-05
3.57912187e-05
3.54182301e-05
3.55663108e-05
3.52568933e-05
3.53927748e-05
3.68094356e-05
3.68248473e-05
3.68183555e-05
3.53326435e-05
3.50019767e-05
3.68016687e-05
3.68093679e-05
3.68070013e-05
3.68035989e-05
3.5388062e-05
3.48084447e-05
3.50092098e-05
3.67938264e-05
3.68235307e-05
3.5110723e-05
3.49728607e-05
3.67903589e-05
3.68262634e-05
3.53894796e-05
3.51282082e-05
3.67975599e-05
3.68214155e-05
3.57261364e-05
3.52518253e-05
3.52914694e-05
3.68182296e-05
3.68292568e-05
3.57365356e-05
3.51777447e-05
3.5315501e-05
3.68298215e-05
3.68362619e-05
3.55493558e-05
3.54343816e-05
3.68284302e-05
3.68258942e-05
3.5742164e-05
3.55130878e-05
3.55113545e-05
3.54471313e-05
3.68240377e-05
3.68293895e-05
3.57215858e-05
3.5464174e-05
3.54708936e-05
3.68264162e-05
3.68011572e-05
3.57221808e-05
3.51831625e-05
3.53619373e-05
3.67827546e-05
3.68273607e-05
3.68181863e-05
3.53022116e-05
3.47765412e-05
3.68118527e-05
3.67756022e-05
3.56781268e-05
3.49025593e-05
3.5208923e-05
3.67998252e-05
3.68220003e-05
3.68151711e-05
3.53033624e-05
3.4939056e-05
3.6805494e-05
3.68077201e-05
3.56854644e-05
3.5202169e-05
3.52249511e-05
3.67983395e-05
3.68262132e-05
3.57342431e-05
3.52768488e-05
3.52785577e-05
3.68106048e-05
3.68281053e-05
3.57123615e-05
3.51406561e-05
3.51953654e-05
3.6823335e-05
3.68391402e-05
3.55266903e-05
3.51843088e-05
3.68196666e-05
3.68315604e-05
3.57062546e-05
3.51814111e-05
3.53304325e-05
3.68275081e-05
3.68305924e-05
3.68315627e-05
3.68322507e-05
3.58244139e-05
3.53586259e-05
3.54058901e-05
3.52140565e-05
3.5212351e-05
3.6820836e-05
3.68464259e-05
3.55964763e-05
3.53250095e-05
3.6820695e-05
3.68352916e-05
3.56298098e-05
3.53175922e-05
3.68259248e-05
3.68267587e-05
3.57126173e-05
3.52118075e-05
3.52167828e-05
3.68244464e-05
3.68402718e-05
3.55800711e-05
3.52223187e-05
3.68215187e-05
3.6822846e-05
3.5710197e-05
3.51479245e-05
3.51988261e-05
3.68124031e-05
3.68341831e-05
3.54877612e-05
3.5246641e-05
3.68125017e-05
3.68219286e-05
3.55656814e-05
3.52922139e-05
3.68174629e-05
3.68047839e-05
3.57397611e-05
3.52153191e-05
3.52200084e-05
3.67957378e-05
3.68312916e-05
3.56039673e-05
3.47949994e-05
3.50030193e-05
3.68073491e-05
3.68025483e-05
3.68031398e-05
3.53789866e-05
3.51915529e-05
3.67982999e-05
3.67830863e-05
3.68021585e-05
3.56583716e-05
3.46744616e-05
3.48677121e-05
3.67762455e-05
3.67817569e-05
3.67809119e-05
3.67830258e-05
3.52289992e-05
3.47391851e-05
3.67757136e-05
3.67674913e-05
3.55115168e-05
3.46717229e-05
3.49320314e-05
3.67773265e-05
3.67990028e-05
3.67925442e-05
3.51534914e-05
3.47837606e-05
3.67964141e-05
3.67803418e-05
3.56389377e-05
3.51214795e-05
3.52397148e-05
3.67718689e-05
3.68156863e-05
3.54498743e-05
3.52513006e-05
3.67875099e-05
3.68160967e-05
3.51574425e-05
3.5126823e-05
3.67969283e-05
3.68093673e-05
3.68084721e-05
3.5471203e-05
3.49405641e-05
3.67886271e-05
3.68006471e-05
3.5285321e-05
3.50618155e-05
3.6783823e-05
3.67949086e-05
3.51673688e-05
3.50462471e-05
3.67849594e-05
3.67935631e-05
3.67918125e-05
3.67992344e-05
3.55845169e-05
3.51300681e-05
3.50390999e-05
3.50429207e-05
3.67961367e-05
3.68005703e-05
3.54037477e-05
3.52489051e-05
3.67980357e-05
3.67970129e-05
3.5737788e-05
3.54519805e-05
3.52881026e-05
3.52997609e-05
3.68041786e-05
3.67959711e-05
3.68098866e-05
3.5657623e-05
3.5151334e-05
3.67892197e-05
3.67917723e-05
3.61482597e-05
3.50450161e-05
3.50444983e-05
3.67891066e-05
3.68214619e-05
3.52892888e-05
3.52782812e-05
3.68064467e-05
3.68148188e-05
3.68164198e-05
3.57297762e-05
3.52082482e-05
3.52729728e-05
3.51081503e-05
3.68051495e-05
3.68145646e-05
3.5568147e-05
3.48832304e-05
3.50255784e-05
3.68062122e-05
3.68031335e-05
3.68079785e-05
3.55285229e-05
3.53987524e-05
)
;

boundaryField
{
    closed
    {
        type            calculated;
        value           nonuniform List<scalar> 0();
    }
    open
    {
        type            calculated;
        value           nonuniform List<scalar> 0();
    }
    sides
    {
        type            empty;
    }
    procBoundary1to0
    {
        type            processor;
        value           uniform 3.68323604e-05;
    }
    procBoundary1to2
    {
        type            processor;
        value           uniform 3.68007535e-05;
    }
}


// ************************************************************************* //
