/*--------------------------------*- C++ -*----------------------------------*\
| =========                 |                                                 |
| \\      /  F ield         | OpenFOAM: The Open Source CFD Toolbox           |
|  \\    /   O peration     | Version:  2306                                  |
|   \\  /    A nd           | Website:  www.openfoam.com                      |
|    \\/     M anipulation  |                                                 |
\*---------------------------------------------------------------------------*/
FoamFile
{
    version     2.0;
    format      ascii;
    arch        "LSB;label=32;scalar=64";
    class       volScalarField;
    location    "0.00132";
    object      prefDh_H2O;
}
// * * * * * * * * * * * * * * * * * * * * * * * * * * * * * * * * * * * * * //

dimensions      [1 1 -3 0 0 0 0];

internalField   nonuniform List<scalar> 
531
(
92.285444
88.0679923
87.9708465
92.2637206
92.2655922
88.2250325
87.9504539
87.9536143
92.2664645
92.2884281
88.2048013
87.8406761
87.9678837
92.3121821
92.246981
88.1036791
88.0549029
92.2471753
92.255082
88.7383272
88.0699715
88.0108287
87.94311
87.7765779
87.7943939
92.3519425
92.3033884
92.2589391
92.2677507
88.171039
88.0284417
92.2299172
92.2230072
88.371138
88.0794892
88.0029742
88.0788788
92.2831284
88.586598
87.8664172
92.2040282
92.249224
89.3973293
87.9299771
87.9795551
92.2892347
92.19305
88.1462455
88.1230809
92.4272648
92.1952605
91.6741013
88.0576706
87.7388039
87.8976545
92.3540687
92.2334492
88.0023139
88.0740696
92.29
88.2839812
87.9758547
92.3177865
92.2394629
92.3179539
88.1146288
87.795535
87.9569622
87.7997837
92.316642
92.3573871
88.2056138
87.7435705
87.890822
92.4461757
92.8200081
87.723037
88.0343576
92.410643
92.2732541
87.8733019
87.9523853
92.3609086
92.2812222
92.3163081
88.0538411
87.9421094
92.4004256
92.2228477
92.3488209
89.2804381
87.7501605
87.9277686
87.6207788
87.6638019
92.4552493
92.3877184
87.7649575
87.7460043
92.5040957
92.4398583
92.4376063
91.4775077
87.6556009
87.934002
92.4123933
88.2595773
87.918408
92.2658969
92.2914812
89.2559062
88.1019043
87.9550643
88.0471931
92.3596937
88.1079667
87.7434707
92.4257919
92.379065
92.3859792
87.717478
87.6915207
92.5093917
92.3345261
92.4225802
88.0610604
87.7875248
92.3591593
92.3645115
90.0148489
87.7868526
87.7724763
92.4091507
92.3867484
87.9894221
87.5951012
87.7281462
92.455825
92.3451612
87.8513175
87.7632175
92.4736526
92.3366387
87.8885719
87.8447602
92.4587387
92.3244735
87.8579152
87.8806336
92.4347599
92.2794018
92.3576856
88.1327111
87.8532922
92.3143427
92.3196905
88.2971823
87.9178774
88.1994585
87.8716104
88.5860907
92.3754671
88.4286095
87.962552
92.3051045
92.2732777
88.109635
88.1766731
92.3629529
88.2296023
87.8969926
92.4123052
92.2926494
92.3377787
87.8975741
87.6419075
92.3978896
92.3713825
88.1538038
87.780011
87.8975081
92.3303719
92.2723243
88.330513
88.0140457
88.210254
92.2654246
92.2417945
88.8713422
87.9161971
88.3073982
92.4047856
88.1986179
87.816017
92.4457023
92.4250655
92.4050911
87.6759043
87.5822147
92.7034874
92.4179396
92.5557934
87.6862572
87.4588784
92.5441486
92.4409793
88.0400524
87.95593
92.4366718
92.3421474
88.2157392
88.0474932
87.9554635
87.9590809
92.4784181
92.3398506
87.8532892
87.8605409
92.5492959
92.3360548
92.4446406
88.0125017
87.6435601
92.4547797
92.3898451
88.1879288
87.8166759
87.8552403
92.346582
92.3504901
88.5581009
87.7553234
87.9125023
92.4033293
92.2901627
88.029521
87.8799447
92.3733998
92.299849
88.9054403
87.9062844
87.9661865
92.303717
92.2127549
88.5518518
88.1156504
88.040037
88.128203
92.325061
88.5256836
87.8835855
92.3778305
92.2710422
88.0944015
87.9178899
92.4447186
92.2740865
88.0255628
87.9267014
92.483706
92.2818948
87.9770514
87.8995689
92.5186009
92.2880305
87.9044862
87.896332
92.4294809
92.2364048
92.3207992
88.173202
87.705228
87.9098566
92.4839994
92.2453864
87.8521098
87.9132605
92.4640059
88.2024077
87.731662
92.4031247
92.3543976
88.1268506
87.9874112
92.3825065
92.3248214
89.4854916
88.0378949
88.1234018
87.8999127
87.9790087
92.457835
92.2802079
92.3207926
87.9374627
87.6630792
92.5785687
92.4202915
92.4067258
92.4128663
87.9786728
87.5185786
87.6555057
92.5711575
92.3874999
87.7688469
87.6216746
92.6178729
92.3864748
88.0064508
87.7623692
92.4907366
92.3583535
88.4474492
87.8791837
87.8987794
92.3517377
92.3228673
88.8844616
87.8031743
87.9092832
92.4011824
92.268995
88.1169694
88.0198377
92.4055433
92.2540623
88.9986443
88.0912879
88.0868131
88.0285599
92.4116676
92.2591402
88.6500169
88.0538528
88.0602054
92.3049293
92.3215876
88.7539188
87.8578218
87.9507255
92.6769289
92.282763
92.5687746
87.8956126
87.5129916
92.5098671
92.5050035
88.2349344
87.6186439
87.8261835
92.5513091
92.3238343
92.3614133
87.9117033
87.6085239
92.5215587
92.4154084
88.2460511
87.8551204
87.8418831
92.3933402
92.3254805
88.593441
87.8973748
87.8869939
92.4103333
92.3389812
88.4606014
87.7768344
87.805794
92.420608
92.3253622
88.1017558
87.7998163
92.450091
92.3468644
88.321988
87.8131709
87.9261076
92.4238889
92.2735325
92.2795713
92.2663604
89.6930245
87.9494449
87.9786672
87.8333598
87.808459
92.4665018
92.2937132
88.1670276
87.9188656
92.4426427
92.2956033
88.1912831
87.9204725
92.4038411
92.3227797
88.6222964
87.8369606
87.8200173
92.4003095
92.3161528
88.1471685
87.8369609
92.4321796
92.3555314
88.4656636
87.7929653
87.8093055
92.4460916
92.3197262
88.0777911
87.8595442
92.5030482
92.3316198
88.1431633
87.9146243
92.4334422
92.3573165
88.9106078
87.8638963
87.8275521
92.5129679
92.3965789
88.1824581
87.491477
87.6650571
92.5916523
92.3751172
92.4544029
87.9945895
87.8423948
92.6718311
92.3316407
92.4839202
88.2494787
87.4236887
87.5738067
92.6585967
92.4976462
92.5134791
92.5070981
87.8762692
87.4801158
92.6391638
92.5589187
88.117311
87.4443577
87.6166891
92.6515458
92.4177443
92.4338565
87.7951478
87.5031843
92.5962103
92.4882086
88.2104872
87.8162167
87.8635614
92.5152592
92.3310088
88.0742893
87.8725017
92.622742
92.3510956
87.8125793
87.7632696
92.724388
92.3391634
92.5026538
88.070025
87.622532
92.6181584
92.4313716
87.9256979
87.7280643
92.6679364
92.4196023
87.8263299
87.716095
92.7064171
92.4275172
92.4542071
92.4161869
88.1665515
87.7931813
87.7038107
87.7092091
92.6329018
92.394608
88.0167612
87.8883861
92.5269406
92.3466863
88.4509429
88.0725348
87.9176134
87.933335
92.5911238
92.29901
92.4403521
88.2376089
87.8064825
92.6085023
92.4071617
91.1866641
87.7137149
87.6947679
92.6781297
92.3581352
87.9239389
87.8905398
92.6449339
92.2515209
92.3704156
88.5403447
87.8438122
87.8980122
87.751299
92.5773259
92.4246199
88.146475
87.5755954
87.6819813
92.5629168
92.3464825
92.3868314
88.125038
88.0109643
)
;

boundaryField
{
    closed
    {
        type            calculated;
        value           nonuniform List<scalar> 0();
    }
    open
    {
        type            calculated;
        value           nonuniform List<scalar> 0();
    }
    sides
    {
        type            empty;
    }
    procBoundary1to0
    {
        type            processor;
        value           uniform 92.3268834;
    }
    procBoundary1to2
    {
        type            processor;
        value           uniform 92.6216029;
    }
}


// ************************************************************************* //
