/*--------------------------------*- C++ -*----------------------------------*\
| =========                 |                                                 |
| \\      /  F ield         | OpenFOAM: The Open Source CFD Toolbox           |
|  \\    /   O peration     | Version:  2306                                  |
|   \\  /    A nd           | Website:  www.openfoam.com                      |
|    \\/     M anipulation  |                                                 |
\*---------------------------------------------------------------------------*/
FoamFile
{
    version     2.0;
    format      ascii;
    arch        "LSB;label=32;scalar=64";
    class       volScalarField;
    location    "0.00132";
    object      prefDPV_H2;
}
// * * * * * * * * * * * * * * * * * * * * * * * * * * * * * * * * * * * * * //

dimensions      [1 -1 -1 0 0 0 0];

internalField   nonuniform List<scalar> 
531
(
-3.15434175e-05
-3.07654642e-05
-3.06775452e-05
-3.15490805e-05
-3.15467611e-05
-3.09001436e-05
-3.06568018e-05
-3.067827e-05
-3.15454989e-05
-3.15550013e-05
-3.08813452e-05
-3.05683215e-05
-3.06884204e-05
-3.15432816e-05
-3.15536203e-05
-3.07927168e-05
-3.07469539e-05
-3.15507688e-05
-3.15385489e-05
-3.08925431e-05
-3.07517988e-05
-3.07260449e-05
-3.06523305e-05
-3.05309824e-05
-3.05369639e-05
-3.15504592e-05
-3.15502224e-05
-3.15539892e-05
-3.1556819e-05
-3.08563167e-05
-3.07340721e-05
-3.15584868e-05
-3.15568401e-05
-3.08936071e-05
-3.07784049e-05
-3.07233383e-05
-3.07842946e-05
-3.15690649e-05
-3.0886223e-05
-3.06094016e-05
-3.15722819e-05
-3.15579021e-05
-3.0890995e-05
-3.06506636e-05
-3.07167919e-05
-3.15443838e-05
-3.15715026e-05
-3.08169031e-05
-3.08153146e-05
-3.15195678e-05
-3.15519283e-05
-3.11478789e-05
-3.07701487e-05
-3.04659334e-05
-3.06380313e-05
-3.15376904e-05
-3.15610244e-05
-3.07117976e-05
-3.07712089e-05
-3.15588732e-05
-3.09104755e-05
-3.06888766e-05
-3.15461391e-05
-3.1549394e-05
-3.15469946e-05
-3.08072793e-05
-3.05243523e-05
-3.06719085e-05
-3.05250276e-05
-3.15372631e-05
-3.15242724e-05
-3.08669264e-05
-3.045144e-05
-3.05798504e-05
-3.15029469e-05
-3.1350207e-05
-3.04528993e-05
-3.06927786e-05
-3.15273186e-05
-3.15275096e-05
-3.05945681e-05
-3.06573759e-05
-3.15440392e-05
-3.15353614e-05
-3.1548983e-05
-3.07410843e-05
-3.06559087e-05
-3.15268211e-05
-3.15410889e-05
-3.15291557e-05
-3.0909822e-05
-3.04796959e-05
-3.06399636e-05
-3.03681633e-05
-3.0415255e-05
-3.15152868e-05
-3.15233256e-05
-3.04898085e-05
-3.04693925e-05
-3.1508173e-05
-3.15001292e-05
-3.15131877e-05
-3.11167723e-05
-3.0406989e-05
-3.06255765e-05
-3.15335161e-05
-3.09086983e-05
-3.0617897e-05
-3.15396459e-05
-3.15220092e-05
-3.09031107e-05
-3.07690099e-05
-3.06702145e-05
-3.0724169e-05
-3.15476228e-05
-3.07783783e-05
-3.04857315e-05
-3.15193837e-05
-3.1530534e-05
-3.15270266e-05
-3.04623317e-05
-3.04388329e-05
-3.15171942e-05
-3.15287003e-05
-3.15243254e-05
-3.07467426e-05
-3.05085672e-05
-3.1528474e-05
-3.15198258e-05
-3.0945164e-05
-3.05113278e-05
-3.05136198e-05
-3.1522651e-05
-3.15325808e-05
-3.06939927e-05
-3.03460649e-05
-3.0478616e-05
-3.15158613e-05
-3.15402171e-05
-3.05621315e-05
-3.05061274e-05
-3.15114682e-05
-3.15371141e-05
-3.05947529e-05
-3.05683503e-05
-3.15199198e-05
-3.15323926e-05
-3.05801969e-05
-3.0595898e-05
-3.15289495e-05
-3.15362837e-05
-3.15405555e-05
-3.08148379e-05
-3.05761761e-05
-3.15408806e-05
-3.15334768e-05
-3.09019216e-05
-3.06175706e-05
-3.08825482e-05
-3.05796712e-05
-3.08924677e-05
-3.15312306e-05
-3.08985531e-05
-3.06584956e-05
-3.15463506e-05
-3.15309517e-05
-3.08025739e-05
-3.08328034e-05
-3.15494819e-05
-3.08806281e-05
-3.06231231e-05
-3.15263847e-05
-3.15479131e-05
-3.15424637e-05
-3.06265614e-05
-3.04098935e-05
-3.15338372e-05
-3.15429513e-05
-3.08383459e-05
-3.05107056e-05
-3.06279627e-05
-3.15364988e-05
-3.15519472e-05
-3.09104145e-05
-3.07093304e-05
-3.08769151e-05
-3.15447802e-05
-3.15435471e-05
-3.09002309e-05
-3.06228507e-05
-3.09136186e-05
-3.15307128e-05
-3.0868038e-05
-3.05244713e-05
-3.15236656e-05
-3.15025357e-05
-3.15265449e-05
-3.03941523e-05
-3.03486026e-05
-3.14863872e-05
-3.15213371e-05
-3.15061113e-05
-3.04288211e-05
-3.02101348e-05
-3.14952217e-05
-3.14961571e-05
-3.07078789e-05
-3.06274516e-05
-3.15033532e-05
-3.15065186e-05
-3.08624942e-05
-3.07078055e-05
-3.06415577e-05
-3.06427964e-05
-3.15104315e-05
-3.15164692e-05
-3.05646227e-05
-3.05674829e-05
-3.15068765e-05
-3.15212163e-05
-3.15220106e-05
-3.07013096e-05
-3.03955878e-05
-3.15092334e-05
-3.15291993e-05
-3.08490817e-05
-3.05297266e-05
-3.05749037e-05
-3.15247325e-05
-3.15342312e-05
-3.09089035e-05
-3.04857845e-05
-3.06333954e-05
-3.15321838e-05
-3.1547827e-05
-3.07303151e-05
-3.06070641e-05
-3.15384209e-05
-3.15453146e-05
-3.0891524e-05
-3.06248333e-05
-3.06934281e-05
-3.15473799e-05
-3.15649039e-05
-3.08942183e-05
-3.0807732e-05
-3.07484903e-05
-3.08127361e-05
-3.15612452e-05
-3.09061058e-05
-3.06217642e-05
-3.15310963e-05
-3.15588243e-05
-3.077922e-05
-3.06450902e-05
-3.15246487e-05
-3.15521678e-05
-3.0716224e-05
-3.06486769e-05
-3.15157384e-05
-3.15488609e-05
-3.06697187e-05
-3.06246971e-05
-3.15115099e-05
-3.15434839e-05
-3.06151401e-05
-3.06161189e-05
-3.15322031e-05
-3.15486546e-05
-3.15403645e-05
-3.08621748e-05
-3.04348703e-05
-3.06445697e-05
-3.15172851e-05
-3.15582485e-05
-3.05721491e-05
-3.06448065e-05
-3.15302929e-05
-3.08856592e-05
-3.04643953e-05
-3.15364422e-05
-3.15235455e-05
-3.08175124e-05
-3.06668698e-05
-3.15400721e-05
-3.15114303e-05
-3.09064301e-05
-3.07038804e-05
-3.08152454e-05
-3.05867466e-05
-3.06887113e-05
-3.15131244e-05
-3.153853e-05
-3.15303715e-05
-3.06441435e-05
-3.04034636e-05
-3.14980046e-05
-3.15158589e-05
-3.15149912e-05
-3.15118389e-05
-3.06849548e-05
-3.02614602e-05
-3.04098846e-05
-3.14923386e-05
-3.1529517e-05
-3.04812259e-05
-3.03837617e-05
-3.14861219e-05
-3.15317584e-05
-3.06836097e-05
-3.0495762e-05
-3.15012694e-05
-3.15300057e-05
-3.09193799e-05
-3.05845045e-05
-3.0614549e-05
-3.15279728e-05
-3.15388543e-05
-3.09010187e-05
-3.05318436e-05
-3.06328956e-05
-3.15334856e-05
-3.15484058e-05
-3.08021703e-05
-3.07184746e-05
-3.15320593e-05
-3.15413021e-05
-3.08984386e-05
-3.07753103e-05
-3.0774323e-05
-3.07279384e-05
-3.15281239e-05
-3.15436937e-05
-3.09037767e-05
-3.07393556e-05
-3.07441845e-05
-3.15379363e-05
-3.15166862e-05
-3.08979975e-05
-3.05314348e-05
-3.0666476e-05
-3.14757099e-05
-3.15403314e-05
-3.15118238e-05
-3.06234478e-05
-3.02365593e-05
-3.15111765e-05
-3.14828067e-05
-3.08951223e-05
-3.0327988e-05
-3.05547932e-05
-3.1498567e-05
-3.15330332e-05
-3.15248307e-05
-3.06229417e-05
-3.0357915e-05
-3.15052688e-05
-3.15149158e-05
-3.09000101e-05
-3.05468624e-05
-3.05662534e-05
-3.15091218e-05
-3.15362488e-05
-3.09167353e-05
-3.06029524e-05
-3.06052387e-05
-3.15175787e-05
-3.15367451e-05
-3.09081776e-05
-3.05044622e-05
-3.0545723e-05
-3.15269033e-05
-3.15464994e-05
-3.07853065e-05
-3.05373922e-05
-3.15218071e-05
-3.15388971e-05
-3.09118925e-05
-3.05339058e-05
-3.06433804e-05
-3.15299664e-05
-3.15435773e-05
-3.15438974e-05
-3.15454239e-05
-3.09191334e-05
-3.06639312e-05
-3.06992855e-05
-3.05582752e-05
-3.05590992e-05
-3.15215154e-05
-3.15546218e-05
-3.08355428e-05
-3.06396734e-05
-3.15231751e-05
-3.15456605e-05
-3.08601832e-05
-3.06335779e-05
-3.15302004e-05
-3.15368816e-05
-3.08986646e-05
-3.05561588e-05
-3.05616322e-05
-3.15292912e-05
-3.15480798e-05
-3.08241478e-05
-3.05645771e-05
-3.15246047e-05
-3.15313488e-05
-3.09062376e-05
-3.05088757e-05
-3.05481869e-05
-3.15163481e-05
-3.15429906e-05
-3.0756158e-05
-3.0582078e-05
-3.15121971e-05
-3.15323981e-05
-3.08129205e-05
-3.06137455e-05
-3.1521297e-05
-3.15169048e-05
-3.09018889e-05
-3.05566183e-05
-3.05635535e-05
-3.14981743e-05
-3.15349922e-05
-3.08401606e-05
-3.02530232e-05
-3.04041268e-05
-3.1501536e-05
-3.15138108e-05
-3.15083899e-05
-3.06762458e-05
-3.0539477e-05
-3.14884122e-05
-3.15016207e-05
-3.15054201e-05
-3.08778408e-05
-3.0162843e-05
-3.03040062e-05
-3.14719103e-05
-3.14882313e-05
-3.14863855e-05
-3.1488535e-05
-3.0566486e-05
-3.02095955e-05
-3.14729314e-05
-3.14723726e-05
-3.0771686e-05
-3.01589782e-05
-3.03516248e-05
-3.14732908e-05
-3.15078344e-05
-3.15015193e-05
-3.05131381e-05
-3.02431105e-05
-3.14925299e-05
-3.14878109e-05
-3.08657682e-05
-3.04857507e-05
-3.05761758e-05
-3.14790858e-05
-3.15274977e-05
-3.07260319e-05
-3.05846712e-05
-3.1483502e-05
-3.15263306e-05
-3.05147872e-05
-3.04945762e-05
-3.14834251e-05
-3.15218852e-05
-3.15090328e-05
-3.07435464e-05
-3.03579312e-05
-3.14847279e-05
-3.15081251e-05
-3.06072496e-05
-3.04456695e-05
-3.14772244e-05
-3.1504452e-05
-3.05215326e-05
-3.04342663e-05
-3.14752693e-05
-3.15027977e-05
-3.14994276e-05
-3.15081336e-05
-3.08259498e-05
-3.04945853e-05
-3.04296119e-05
-3.04322e-05
-3.14895865e-05
-3.15107954e-05
-3.06941417e-05
-3.05813598e-05
-3.1498958e-05
-3.15115373e-05
-3.09279783e-05
-3.07278794e-05
-3.06101878e-05
-3.06181449e-05
-3.14990621e-05
-3.15142553e-05
-3.15147801e-05
-3.08783304e-05
-3.05104316e-05
-3.14859145e-05
-3.15028909e-05
-3.10751668e-05
-3.04334873e-05
-3.04346966e-05
-3.14806566e-05
-3.15300587e-05
-3.06105819e-05
-3.06047036e-05
-3.14968665e-05
-3.1532717e-05
-3.15251514e-05
-3.09165487e-05
-3.05527106e-05
-3.05997906e-05
-3.04806838e-05
-3.15008559e-05
-3.15196555e-05
-3.08146032e-05
-3.0316211e-05
-3.04206859e-05
-3.15027677e-05
-3.15164021e-05
-3.15172433e-05
-3.07846621e-05
-3.06906494e-05
)
;

boundaryField
{
    closed
    {
        type            calculated;
        value           nonuniform List<scalar> 0();
    }
    open
    {
        type            calculated;
        value           nonuniform List<scalar> 0();
    }
    sides
    {
        type            empty;
    }
    procBoundary1to0
    {
        type            processor;
        value           uniform -3.15410149e-05;
    }
    procBoundary1to2
    {
        type            processor;
        value           uniform -3.14940849e-05;
    }
}


// ************************************************************************* //
