/*--------------------------------*- C++ -*----------------------------------*\
| =========                 |                                                 |
| \\      /  F ield         | OpenFOAM: The Open Source CFD Toolbox           |
|  \\    /   O peration     | Version:  2306                                  |
|   \\  /    A nd           | Website:  www.openfoam.com                      |
|    \\/     M anipulation  |                                                 |
\*---------------------------------------------------------------------------*/
FoamFile
{
    version     2.0;
    format      ascii;
    arch        "LSB;label=32;scalar=64";
    class       volScalarField;
    location    "0.00032";
    object      h;
}
// * * * * * * * * * * * * * * * * * * * * * * * * * * * * * * * * * * * * * //

dimensions      [0 2 -2 0 0 0 0];

internalField   nonuniform List<scalar> 
530
(
3323.7189
-4715.91248
1511.76694
9521.96259
3018.47518
-4780.33558
1401.38777
9639.19962
3919.32232
-5228.55325
-1186.04017
9720.93812
7969.91578
-4715.90748
-4074.10645
8871.11804
9169.90299
-1856.94906
-3123.05015
4164.47342
5545.25071
1008.82188
542.501908
3173.28119
2181.76709
199.873572
3651.68052
5427.92838
-610.208121
-2934.59117
5611.26718
9472.32176
233.733171
-4673.21297
936.126539
9947.05863
7145.25683
-4904.22578
-1943.6438
10017.3475
8477.76202
-4680.60199
-4623.1978
2500.46487
10047.416
7632.26994
-5123.97241
-2701.70272
10085.4864
9266.43667
-3868.14016
-4669.07396
239.170354
10111.4753
9458.86946
-3461.28172
-4494.67032
1353.96181
10156.0641
8948.59143
-4609.05915
-4606.47024
1783.31882
10078.4366
8145.9172
-5067.42522
-3066.58595
9827.37986
7397.77066
-5021.99626
-3157.95517
9870.33755
8269.85059
-5021.54996
-3350.85504
9982.33299
9305.65236
-4032.49047
-4773.53555
1308.24847
10108.5177
8423.58649
-4878.35169
-2884.21771
10072.7407
8240.69982
-5651.9068
-4316.41936
9461.99193
9633.79915
-1118.32363
-4798.89002
-460.977104
10079.3027
8704.40321
-5075.25844
-2898.64401
10109.0073
9002.26142
-5121.80986
-4739.67658
7575.91067
9747.6013
91.6292526
-1388.99648
1415.37219
-1392.71822
-849.377217
10173.5969
8994.5289
-5139.62521
-3955.29256
9989.4971
9639.11727
-2924.26409
-4881.52753
167.671497
10119.4517
9198.53662
-4953.1049
-2831.1917
10159.1918
9398.38442
-4989.48582
-4971.69168
776.498037
10146.2673
9243.87416
-4984.03691
-3627.58251
10123.3785
8997.32377
-5242.0077
-3983.99362
10106.4594
9008.42177
-5340.58127
-4247.08899
10013.9641
9052.34982
-5226.80774
-4126.73158
10137.4004
9660.75484
-3613.43498
-4856.4943
1680.43859
10107.7499
7499.10193
-5072.7523
-3649.02746
10125.9645
9460.2243
-4413.1063
-2323.31704
7791.12847
3823.70801
-4383.57346
624.778053
10044.0892
4897.94065
-5104.7848
-2376.80162
10080.2815
9488.26927
-5307.50726
-4016.33354
10320.829
9840.97547
-2799.91055
-4718.73599
80.9716109
10232.5869
9992.58147
-4737.27958
-4742.37552
781.946385
10133.2357
9614.76759
-5487.5319
-4365.58713
10344.0609
9839.41694
-2553.71217
-4984.91718
-858.921391
10104.2352
9746.12787
-5366.91105
-4224.53469
10336.9178
9880.28518
-3118.72186
-4962.36854
-622.472177
10142.1289
9850.12437
-5165.33835
-4151.77775
10124.8065
9602.21146
-5343.53078
-4433.32718
10100.9507
9607.76567
-5441.25443
-4719.58598
10312.3007
9901.14061
-2983.10179
-5010.90684
-511.313367
10136.9701
10019.4016
-5154.73936
-3853.09178
10230.4783
10024.4988
-4307.04797
-4971.71737
684.152793
10161.7785
10019.7564
-5081.16004
-3116.28236
10217.5552
5755.12916
-3687.66158
799.563512
5021.00789
-2416.07015
-2833.21006
10353.9265
9985.17622
-4934.10322
-4516.67914
10355.807
10046.2449
-3287.63474
-4890.04721
-734.261314
10218.6262
10225.3147
-5050.43944
-4307.38429
10129.5144
9952.52926
-5275.66743
-4808.95191
10184.8293
10001.8865
-5240.50006
-5134.48421
9285.25927
10206.8311
-2670.00994
-2858.95782
5461.33986
4026.90084
-3474.13415
-1926.22134
10292.357
9971.57008
-4934.9799
-5001.8675
10402.406
10111.6897
-2788.95045
-4893.07307
-871.367975
10153.0466
10358.508
-5203.90665
-5173.32719
10287.3761
10039.2558
-2405.16858
-5123.63731
402.303785
10156.3902
8152.01568
-5117.31949
-4581.71264
10054.5388
10179.0331
-4943.86123
-5137.10877
10015.7121
10048.3568
-4526.45602
-5126.21566
9012.07304
9698.10743
-3612.16335
-4729.42336
8226.80005
9164.17158
-3415.49023
-4546.39786
8426.48048
9527.74579
-1557.47997
-3661.90473
3805.10762
7002.62724
2180.43687
39.076663
1178.29383
487.543356
3473.87649
6308.16049
2148.60254
-3739.70704
28.9154473
10009.2729
6621.77062
-4947.46536
-4159.77752
9933.56697
10199.5727
-4490.07209
-5107.79113
9702.20533
10149.932
-4630.45073
-5113.49816
9656.77514
10098.5912
-1393.38748
-5163.73235
2310.74148
9854.48033
2430.93372
-5133.77024
3279.43295
9650.80763
1195.37263
-5072.1024
872.372617
10134.0492
7059.50558
-4745.11086
-4754.19497
10166.5272
10242.5739
-1952.86777
-4814.29911
-1905.56466
9995.0027
10436.0451
-4279.86537
-5017.24497
9909.84155
10114.0164
-1816.21661
-5038.92365
-2131.04471
9952.66003
10421.0502
-4337.12381
-5098.11335
9862.37104
10135.478
-1161.40609
-4663.01801
-3312.56831
10199.5308
10381.5942
-1136.76919
-4426.01665
-2792.26584
10202.8641
10398.9736
-1900.45762
-4746.30858
-1997.1896
10005.6795
10436.3844
-4149.34649
-4759.56859
9891.96611
10129.2587
-2360.01012
-5034.81778
-2006.75047
9972.95099
10419.9061
-4179.80572
-4838.06092
9854.46899
10120.2763
-2085.9365
-4907.07776
-1649.55816
10170.1178
10414.9116
-2165.22419
-4838.47989
-1016.0632
10159.9184
10153.8914
-1843.64947
-4709.56961
-3110.98361
10168.7049
10358.5975
-1381.32991
-4764.55622
-2400.89911
9994.51145
10431.7113
-3968.4704
-4437.98301
9869.59833
10144.1754
-2555.4619
-5045.03941
-2260.7091
9984.02282
10401.6981
-3953.82786
-4447.725
9720.79428
10102.6133
-4830.46805
-5169.63166
7653.67231
10200.2802
1508.23274
-4559.51595
-3821.91278
7623.64006
10229.602
1833.85058
-4668.25795
-3567.45786
9821.18506
10029.9004
-3331.7997
-5013.8751
7587.17689
9903.35188
-864.646278
-5080.09096
2065.66253
10092.4928
5136.83698
-4907.87919
-3909.89438
9945.39025
10330.2255
-4769.01544
-4968.78201
9198.30603
10156.2419
-42.0848419
-4931.6614
-3110.01137
9945.88108
10367.6807
-4402.74192
-5033.42179
9937.16374
10115.4952
-1565.93076
-5068.50326
-2179.77066
9958.00124
10447.5086
-4374.67808
-4966.18986
9972.91612
10134.0598
-1868.00192
-5021.5644
-2097.08248
9928.47002
10470.7212
-4854.38753
-5045.30953
9788.61242
10126.4036
-923.490994
-5007.35273
-2503.45984
9962.71028
10467.7802
-4441.29803
-4922.32985
9759.29417
9984.51083
-4927.34034
-2930.62093
9925.56241
4482.40223
-5165.08776
-2574.78152
10091.3748
10441.8727
-3232.71204
-4887.75051
-1395.78301
10073.3106
10563.051
-3919.58777
-4107.17949
9984.02856
10202.5242
-3591.83808
-5351.49398
-34.1761514
10080.9912
10413.3209
-3536.4247
-5303.91461
-708.874722
10023.1651
10581.9632
-3934.20728
-4089.24186
9921.12477
10181.738
-3817.7363
-5705.29531
-1274.4064
9914.36327
10531.8412
-4279.23814
-4508.978
9747.18093
)
;

boundaryField
{
    closed
    {
        type            lookUpEnthalpy;
        h0              nonuniform List<scalar> 0();
        value           nonuniform List<scalar> 0();
    }
    open
    {
        type            zeroGradient;
    }
    sides
    {
        type            empty;
    }
    procBoundary2to1
    {
        type            processor;
        value           uniform 9569.37791;
    }
    procBoundary2to3
    {
        type            processor;
        value           uniform 10202.2369;
    }
}


// ************************************************************************* //
