/*--------------------------------*- C++ -*----------------------------------*\
| =========                 |                                                 |
| \\      /  F ield         | OpenFOAM: The Open Source CFD Toolbox           |
|  \\    /   O peration     | Version:  2306                                  |
|   \\  /    A nd           | Website:  www.openfoam.com                      |
|    \\/     M anipulation  |                                                 |
\*---------------------------------------------------------------------------*/
FoamFile
{
    version     2.0;
    format      ascii;
    arch        "LSB;label=32;scalar=64";
    class       volScalarField;
    location    "0.00034";
    object      prefDh_H2O;
}
// * * * * * * * * * * * * * * * * * * * * * * * * * * * * * * * * * * * * * //

dimensions      [1 1 -3 0 0 0 0];

internalField   nonuniform List<scalar> 
530
(
-200.611237
-200.773824
-200.923442
-201.07312
-201.216131
-201.359805
-201.498448
-201.636544
-201.77085
-201.903769
-202.033778
-202.161896
-202.287662
-202.411334
-202.532922
-202.652482
-202.769969
-202.885734
-202.995585
-203.103368
-203.208541
-203.313326
-203.414844
-203.516433
-203.614265
-203.712881
-203.807114
-203.902955
-203.993684
-204.086935
-204.17426
-204.265094
-204.349121
-204.437699
-204.518537
-204.605015
-204.682778
-204.767301
-204.840359
-204.919277
-204.987925
-205.065206
-205.131192
-205.206797
-205.269878
-205.343548
-205.403761
-205.475608
-205.53303
-205.603132
-205.657836
-205.726276
-205.778331
-205.845194
-205.89467
-205.960042
-206.007008
-206.070972
-206.115501
-206.178144
-206.220304
-206.28172
-206.320198
-206.3782
-206.414791
-206.471977
-206.504851
-206.557978
-206.590316
-206.641875
-206.673811
-206.723779
-206.755335
-206.803751
-206.834931
-206.881841
-206.912654
-206.958099
-206.988557
-207.03258
-207.062691
-207.105338
-207.135105
-207.176427
-207.205852
-207.2459
-207.274983
-207.31381
-207.342554
-207.38021
-207.408618
-207.445154
-207.473231
-207.508696
-207.536451
-207.570892
-207.598335
-207.6318
-207.658942
-207.691479
-207.718334
-207.749988
-207.776572
-207.80739
-207.833319
-207.862495
-207.887776
-207.916173
-207.941172
-207.968804
-207.993511
-208.020398
-208.044802
-208.070963
-208.095054
-208.120512
-208.144278
-208.169056
-208.192488
-208.216612
-208.239699
-208.263195
-208.285928
-208.308825
-208.331193
-208.353522
-208.375514
-208.397289
-208.416552
-208.435643
-208.454916
-208.473903
-208.493069
-208.51161
-208.530497
-208.548621
-208.567227
-208.584965
-208.603289
-208.620666
-208.638712
-208.655753
-208.673525
-208.690251
-208.707754
-208.724188
-208.741428
-208.757593
-208.774575
-208.790493
-208.807221
-208.822916
-208.839392
-208.854892
-208.871115
-208.886447
-208.902419
-208.917612
-208.933334
-208.948412
-208.963894
-208.980085
-208.997492
-209.01438
-209.031575
-209.048321
-209.065274
-209.08188
-209.09856
-209.115027
-209.131406
-209.147734
-209.163789
-209.179973
-209.195686
-209.211718
-209.227076
-209.242946
-209.257937
-209.273633
-209.288249
-209.30376
-209.317991
-209.333306
-209.347145
-209.362254
-209.375695
-209.390587
-209.403626
-209.41829
-209.430923
-209.445351
-209.457574
-209.471756
-209.483568
-209.497497
-209.508896
-209.522564
-209.533551
-209.54695
-209.557526
-209.570649
-209.580818
-209.593658
-209.603421
-209.615974
-209.625336
-209.637596
-209.646562
-209.658523
-209.667099
-209.67876
-209.686951
-209.698308
-209.706122
-209.717174
-209.724621
-209.735363
-209.742457
-209.752883
-209.759638
-209.769721
-209.776156
-209.785766
-209.791922
-209.801156
-209.8073
-209.815972
-209.822033
-209.83018
-209.836136
-209.843792
-209.849622
-209.856821
-209.862507
-209.869281
-209.874806
-209.881185
-209.886534
-209.892547
-209.89771
-209.90338
-209.908349
-209.913698
-209.918468
-209.923516
-209.928084
-209.932849
-209.937215
-209.941711
-209.945876
-209.950119
-209.954084
-209.958088
-209.961857
-209.965634
-209.969211
-209.972772
-209.976162
-209.979519
-209.982727
-209.985889
-209.988922
-209.991898
-209.994761
-209.997561
-210.000261
-210.002894
-210.005438
-210.007912
-210.010305
-210.012628
-210.014877
-210.017057
-210.019169
-210.021212
-210.023193
-210.025108
-210.026965
-210.028757
-210.030495
-210.032172
-210.033798
-210.035365
-210.036885
-210.038348
-210.039767
-210.041133
-210.042456
-210.04373
-210.044964
-210.04615
-210.047299
-210.048404
-210.049473
-210.0505
-210.051494
-210.052449
-210.053372
-210.054259
-210.055116
-210.055939
-210.056734
-210.057497
-210.058234
-210.058941
-210.059623
-210.060278
-210.060909
-210.061514
-210.062098
-210.062657
-210.063197
-210.063714
-210.064211
-210.064688
-210.065147
-210.065587
-210.066011
-210.066416
-210.066806
-210.06718
-210.067538
-210.067882
-210.068212
-210.068528
-210.068832
-210.069122
-210.069401
-210.069668
-210.069924
-210.070169
-210.070404
-210.070629
-210.070844
-210.07105
-210.071248
-210.071436
-210.071617
-210.07179
-210.071956
-210.072114
-210.072266
-210.072411
-210.072549
-210.072682
-210.072809
-210.07293
-210.073046
-210.073157
-210.073263
-210.073364
-210.073461
-210.073552
-210.073644
-210.073725
-210.073795
-210.073781
-210.073767
-210.073755
-210.073743
-210.073733
-210.073724
-210.073715
-210.073707
-210.0737
-210.073694
-210.073688
-210.073682
-210.073678
-210.073673
-210.073669
-210.073666
-210.073662
-210.073659
-210.073657
-210.073654
-210.073652
-210.07365
-210.073648
-210.073646
-210.073645
-210.073644
-210.073642
-210.073641
-210.07364
-210.073639
-210.073639
-210.073638
-210.073637
-210.073637
-210.073636
-210.073636
-210.073635
-210.073635
-210.073635
-210.073634
-210.073634
-210.073634
-210.073633
-210.073633
-210.073633
-210.073633
-210.073633
-210.073633
-210.073633
-210.073632
-210.073632
-210.073632
-210.073632
-210.073632
-210.073632
-210.073632
-210.073632
-210.073632
-210.073632
-210.073632
-210.073632
-210.073632
-210.073632
-210.073632
-210.073632
-210.073632
-210.073632
-210.073632
-210.073632
-210.073632
-210.073632
-210.073632
-210.073632
-210.073632
-210.073632
-210.073632
-210.073632
-210.073632
-210.073632
-210.073632
-210.073632
-210.073632
-210.073632
-210.073632
-210.073632
-210.073632
-210.073632
-210.073632
-210.073632
-210.073632
-210.073632
-210.073632
-210.073632
-210.073632
-210.073632
-210.073632
-210.073632
-210.073632
-210.073632
-210.073632
-210.073632
-210.073632
-210.073632
-210.073632
-210.073632
-210.073632
-210.073632
-210.073632
-210.073632
-210.073632
-210.073632
-210.073632
-210.073632
-210.073632
-210.073632
-210.073632
-210.073632
-210.073632
-210.073632
-210.073632
-210.073632
-210.073632
-210.073632
-210.073632
-210.073632
-210.073632
-210.073632
-210.073632
-210.073632
-210.073632
-210.073632
-210.073632
-210.073632
-210.073632
-210.073632
-210.073632
-210.073632
-210.073632
-210.073632
-210.073632
-210.073632
-210.073632
-210.073632
-210.073632
-210.073632
-210.073632
-210.073632
-210.073632
-210.073632
-210.073632
-210.073632
-210.073632
-210.073632
-210.073632
-210.073632
-210.073632
-210.073632
-210.073632
-210.073632
-210.073632
-210.073632
-210.073632
-210.073632
-210.073632
-210.073632
-210.073632
-210.073632
-210.073632
-210.073632
-210.073632
-210.073632
-210.073632
-210.073632
)
;

boundaryField
{
    closed
    {
        type            calculated;
        value           nonuniform List<scalar> 0();
    }
    open
    {
        type            calculated;
        value           uniform -210.073632;
    }
    sides
    {
        type            empty;
    }
    procBoundary5to4
    {
        type            processor;
        value           uniform -200.45319;
    }
}


// ************************************************************************* //
