/*--------------------------------*- C++ -*----------------------------------*\
| =========                 |                                                 |
| \\      /  F ield         | OpenFOAM: The Open Source CFD Toolbox           |
|  \\    /   O peration     | Version:  2306                                  |
|   \\  /    A nd           | Website:  www.openfoam.com                      |
|    \\/     M anipulation  |                                                 |
\*---------------------------------------------------------------------------*/
FoamFile
{
    version     2.0;
    format      ascii;
    arch        "LSB;label=32;scalar=64";
    class       volScalarField;
    location    "0.00034";
    object      prefDh_H;
}
// * * * * * * * * * * * * * * * * * * * * * * * * * * * * * * * * * * * * * //

dimensions      [1 1 -3 0 0 0 0];

internalField   nonuniform List<scalar> 
530
(
92864.4684
92881.0142
92896.9942
92908.1715
92920.8594
92930.0346
92940.7354
92948.0228
92956.8961
92962.4047
92969.6115
92973.4525
92979.151
92981.4394
92985.7854
92986.6424
92989.7875
92989.353
92989.525
92985.3655
92984.1528
92979.8876
92978.1811
92972.7249
92970.0108
92963.4423
92959.8359
92952.2371
92947.848
92939.3029
92934.2376
92924.8308
92919.1939
92909.0096
92902.9058
92892.027
92885.5616
92874.0712
92866.4257
92852.3435
92843.4484
92828.7951
92819.6072
92804.4108
92794.9346
92779.0651
92769.2872
92752.7648
92742.7552
92725.6176
92715.4446
92697.7287
92687.4618
92669.2003
92658.915
92640.1314
92629.9146
92610.6185
92600.5715
92580.7565
92570.9938
92550.6401
92541.1592
92520.1122
92511.3099
92489.7388
92480.6487
92457.9089
92447.6622
92426.2007
92415.0087
92394.648
92382.7005
92363.2955
92350.7384
92332.1755
92319.1332
92301.3184
92287.8966
92270.7538
92257.0407
92240.5096
92226.5782
92210.6117
92196.5231
92181.0842
92166.8908
92151.9501
92137.6981
92123.2315
92108.9628
92094.9505
92080.7038
92067.1295
92052.9414
92039.7916
92025.6971
92012.9611
91998.9942
91986.6637
91972.8579
91960.9266
91947.3155
91935.7817
91922.0675
91910.2017
91896.3319
91884.77
91871.0633
91859.7896
91846.2614
91835.2616
91821.9252
91811.1876
91798.0549
91787.57
91774.6519
91764.4119
91751.7186
91741.7174
91729.2583
91719.4913
91707.2754
91697.7394
91685.7751
91676.468
91664.7636
91655.6787
91643.5089
91633.9804
91622.3009
91613.2454
91601.9876
91593.1726
91582.2364
91573.6625
91563.0554
91554.7235
91544.4529
91536.364
91526.4371
91518.5926
91509.0162
91501.4175
91492.198
91484.8473
91475.9902
91468.8901
91460.4002
91453.5541
91445.4351
91438.8468
91431.1022
91424.7754
91417.4089
91411.3466
91404.3634
91398.5666
91391.9738
91386.4414
91380.2453
91375.2245
91369.8411
91365.2567
91360.233
91355.9038
91351.2348
91347.151
91342.8272
91338.9827
91334.9912
91331.382
91327.7084
91324.3309
91320.9607
91317.8107
91314.73
91311.8026
91308.9974
91306.2872
91303.7439
91301.2451
91298.95
91296.6564
91294.596
91292.5011
91290.6619
91288.7591
91287.1278
91285.4101
91283.9735
91282.4338
91281.1791
91279.8102
91278.7247
91277.5191
91276.5906
91275.5407
91274.7574
91273.8552
91273.2058
91272.4435
91271.9171
91271.2866
91270.8727
91270.366
91270.0547
91269.6636
91269.4456
91269.1622
91269.0283
91268.8449
91268.7866
91268.6957
91268.7053
91268.6989
91268.7696
91268.839
91268.9643
91269.1002
91269.2723
91269.4665
91269.6762
91269.973
91270.1987
91270.5333
91270.7607
91271.1603
91271.4015
91271.8456
91272.1086
91272.5804
91272.8696
91273.3572
91273.6734
91274.169
91274.5104
91275.0088
91275.3724
91275.87
91276.2521
91276.7462
91277.1429
91277.6316
91278.0389
91278.5206
91278.935
91279.4085
91279.8265
91280.2907
91280.7094
91281.1634
91281.5801
91282.023
91282.4355
91282.8667
91283.2729
91283.6918
91284.09
91284.496
91284.8849
91285.2777
91285.656
91286.0351
91286.402
91286.7673
91287.122
91287.4732
91287.8151
91288.1522
91288.4809
91288.8038
91289.1191
91289.4279
91289.7297
91290.0244
91290.3125
91290.5933
91290.868
91291.1351
91291.3963
91291.65
91291.898
91292.1386
91292.3737
91292.6014
91292.8238
91293.0392
91293.2493
91293.4526
91293.6508
91293.8424
91294.0291
91294.2095
91294.3851
91294.5546
91294.7196
91294.8788
91295.0335
91295.1828
91295.3278
91295.4676
91295.6033
91295.734
91295.8608
91295.983
91296.1014
91296.2154
91296.3258
91296.4321
91296.535
91296.6339
91296.7297
91296.8217
91296.9107
91296.9963
91297.079
91297.1584
91297.2351
91297.3088
91297.3799
91297.4483
91297.5141
91297.5774
91297.6384
91297.6969
91297.7533
91297.8074
91297.8595
91297.9095
91297.9577
91298.0038
91298.0483
91298.0909
91298.1319
91298.1711
91298.2089
91298.2452
91298.28
91298.3134
91298.3454
91298.3762
91298.4057
91298.434
91298.4612
91298.4873
91298.5123
91298.5364
91298.5593
91298.5815
91298.6027
91298.623
91298.6426
91298.6611
91298.6796
91298.6961
91298.7064
91298.6828
91298.6595
91298.6389
91298.6198
91298.6025
91298.5866
91298.5721
91298.5589
91298.5468
91298.5358
91298.5259
91298.5167
91298.5084
91298.5009
91298.494
91298.4877
91298.4821
91298.4769
91298.4722
91298.468
91298.4641
91298.4606
91298.4574
91298.4545
91298.4519
91298.4496
91298.4474
91298.4455
91298.4438
91298.4422
91298.4407
91298.4394
91298.4383
91298.4372
91298.4363
91298.4354
91298.4346
91298.4339
91298.4333
91298.4327
91298.4322
91298.4318
91298.4314
91298.431
91298.4307
91298.4304
91298.4301
91298.4298
91298.4296
91298.4294
91298.4293
91298.4291
91298.429
91298.4288
91298.4287
91298.4286
91298.4285
91298.4285
91298.4284
91298.4283
91298.4283
91298.4282
91298.4282
91298.4281
91298.4281
91298.4281
91298.428
91298.428
91298.428
91298.428
91298.4279
91298.4279
91298.4279
91298.4279
91298.4279
91298.4279
91298.4279
91298.4279
91298.4279
91298.4279
91298.4278
91298.4278
91298.4278
91298.4278
91298.4278
91298.4278
91298.4278
91298.4278
91298.4278
91298.4278
91298.4278
91298.4278
91298.4278
91298.4278
91298.4278
91298.4278
91298.4278
91298.4278
91298.4278
91298.4278
91298.4278
91298.4278
91298.4278
91298.4278
91298.4278
91298.4278
91298.4278
91298.4278
91298.4278
91298.4278
91298.4278
91298.4278
91298.4278
91298.4278
91298.4278
91298.4278
91298.4278
91298.4278
91298.4278
91298.4278
91298.4278
91298.4278
91298.4278
91298.4278
91298.4278
91298.4278
91298.4278
91298.4278
91298.4278
91298.4278
91298.4278
91298.4278
91298.4278
91298.4278
91298.4278
91298.4278
91298.4278
91298.4278
91298.4278
91298.4278
91298.4278
91298.4278
91298.4278
91298.4278
91298.4278
91298.4278
91298.4278
91298.4278
91298.4278
91298.4278
91298.4278
91298.4278
91298.4278
91298.4278
91298.4278
91298.4278
91298.4278
91298.4278
91298.4278
91298.4278
91298.4278
91298.4278
91298.4278
91298.4278
91298.4278
91298.4278
91298.4278
91298.4278
91298.4278
91298.4278
91298.4278
91298.4278
91298.4278
)
;

boundaryField
{
    closed
    {
        type            calculated;
        value           nonuniform List<scalar> 0();
    }
    open
    {
        type            calculated;
        value           uniform 91298.4278;
    }
    sides
    {
        type            empty;
    }
    procBoundary5to4
    {
        type            processor;
        value           uniform 92844.4736;
    }
}


// ************************************************************************* //
