/*--------------------------------*- C++ -*----------------------------------*\
| =========                 |                                                 |
| \\      /  F ield         | OpenFOAM: The Open Source CFD Toolbox           |
|  \\    /   O peration     | Version:  2306                                  |
|   \\  /    A nd           | Website:  www.openfoam.com                      |
|    \\/     M anipulation  |                                                 |
\*---------------------------------------------------------------------------*/
FoamFile
{
    version     2.0;
    format      ascii;
    arch        "LSB;label=32;scalar=64";
    class       volScalarField;
    location    "0.00034";
    object      prefDZ_H2O;
}
// * * * * * * * * * * * * * * * * * * * * * * * * * * * * * * * * * * * * * //

dimensions      [1 -1 -1 0 0 0 0];

internalField   nonuniform List<scalar> 
530
(
2.19798333e-06
2.1998576e-06
2.20159952e-06
2.2032719e-06
2.20489997e-06
2.20647867e-06
2.20803088e-06
2.20952208e-06
2.21100111e-06
2.21241062e-06
2.21381932e-06
2.21515275e-06
2.21649405e-06
2.21775685e-06
2.21903378e-06
2.22023125e-06
2.2214469e-06
2.22258446e-06
2.22368355e-06
2.22469134e-06
2.22572541e-06
2.22670943e-06
2.22770321e-06
2.22863504e-06
2.22957478e-06
2.23045796e-06
2.23134634e-06
2.23218423e-06
2.23302393e-06
2.23381974e-06
2.23461347e-06
2.2353703e-06
2.23612079e-06
2.23684161e-06
2.23755164e-06
2.23823933e-06
2.23891172e-06
2.23956908e-06
2.24017891e-06
2.24074756e-06
2.2412966e-06
2.24183878e-06
2.24235558e-06
2.24287243e-06
2.24335628e-06
2.24384311e-06
2.24429274e-06
2.2447503e-06
2.24516764e-06
2.24559735e-06
2.24598428e-06
2.24638757e-06
2.24674595e-06
2.24712422e-06
2.24745598e-06
2.24781046e-06
2.24811774e-06
2.24844945e-06
2.24873462e-06
2.24904434e-06
2.24930991e-06
2.2495983e-06
2.24983712e-06
2.25009104e-06
2.25032089e-06
2.25055846e-06
2.2507511e-06
2.25093682e-06
2.25110621e-06
2.25129496e-06
2.25144565e-06
2.25163458e-06
2.25176969e-06
2.25195706e-06
2.25207884e-06
2.25226346e-06
2.25237389e-06
2.25255482e-06
2.25265565e-06
2.25283219e-06
2.25292487e-06
2.25309662e-06
2.2531823e-06
2.2533491e-06
2.25342874e-06
2.25359058e-06
2.25366501e-06
2.25382201e-06
2.25389196e-06
2.25404429e-06
2.25411046e-06
2.25425835e-06
2.2543214e-06
2.25446511e-06
2.25452569e-06
2.25466554e-06
2.25472428e-06
2.2548606e-06
2.25491815e-06
2.25505131e-06
2.25510832e-06
2.25523869e-06
2.25529584e-06
2.25542386e-06
2.25547392e-06
2.25558289e-06
2.25562522e-06
2.25573116e-06
2.25577325e-06
2.25587608e-06
2.25591806e-06
2.25601777e-06
2.25605974e-06
2.25615636e-06
2.2561984e-06
2.25629201e-06
2.25633419e-06
2.25642492e-06
2.25646728e-06
2.25655529e-06
2.25659788e-06
2.25668337e-06
2.25672622e-06
2.25680943e-06
2.25685257e-06
2.25693376e-06
2.25697721e-06
2.25705646e-06
2.25707045e-06
2.25712066e-06
2.257143e-06
2.25720047e-06
2.25722862e-06
2.25728529e-06
2.25731547e-06
2.25737165e-06
2.25740394e-06
2.25745993e-06
2.25749442e-06
2.25755049e-06
2.2575873e-06
2.25764369e-06
2.25768295e-06
2.25773991e-06
2.25778175e-06
2.25783952e-06
2.25788408e-06
2.25794291e-06
2.25799029e-06
2.25805044e-06
2.25810073e-06
2.25816251e-06
2.25821575e-06
2.25827946e-06
2.25833572e-06
2.25840168e-06
2.25846101e-06
2.25852951e-06
2.25859204e-06
2.25866331e-06
2.25872921e-06
2.25881782e-06
2.25891256e-06
2.25901365e-06
2.2591115e-06
2.2592149e-06
2.25931549e-06
2.25942108e-06
2.25952394e-06
2.25963164e-06
2.25973632e-06
2.25984606e-06
2.25995212e-06
2.26006379e-06
2.26017084e-06
2.26028429e-06
2.260392e-06
2.26050706e-06
2.26061511e-06
2.26073158e-06
2.26083968e-06
2.26095737e-06
2.26106523e-06
2.26118394e-06
2.2612913e-06
2.26141082e-06
2.26151743e-06
2.26163756e-06
2.26174317e-06
2.26186372e-06
2.26196811e-06
2.26208887e-06
2.26219182e-06
2.26231261e-06
2.26241392e-06
2.26253455e-06
2.26263403e-06
2.2627543e-06
2.2628518e-06
2.26297153e-06
2.26306689e-06
2.2631859e-06
2.26327899e-06
2.26339709e-06
2.26348779e-06
2.26360482e-06
2.26369303e-06
2.26380881e-06
2.26389444e-06
2.26400882e-06
2.2640918e-06
2.26420464e-06
2.2642849e-06
2.26439607e-06
2.26447358e-06
2.26458293e-06
2.26465769e-06
2.26476506e-06
2.26483711e-06
2.26494232e-06
2.26501169e-06
2.26511434e-06
2.26518109e-06
2.26528053e-06
2.26534475e-06
2.26544101e-06
2.26550513e-06
2.26559677e-06
2.26566027e-06
2.26574736e-06
2.26581013e-06
2.26589276e-06
2.26595467e-06
2.266033e-06
2.26609387e-06
2.26616811e-06
2.26622775e-06
2.26629812e-06
2.26635635e-06
2.26642308e-06
2.26647973e-06
2.26654302e-06
2.26659796e-06
2.266658e-06
2.26671113e-06
2.26676809e-06
2.26681932e-06
2.26687335e-06
2.26692263e-06
2.26697388e-06
2.26702118e-06
2.26706977e-06
2.26711507e-06
2.26716114e-06
2.26720443e-06
2.26724808e-06
2.26728939e-06
2.26733072e-06
2.26737006e-06
2.26740918e-06
2.2674466e-06
2.2674836e-06
2.26751912e-06
2.26755409e-06
2.26758776e-06
2.26762079e-06
2.26765268e-06
2.26768385e-06
2.26771399e-06
2.26774339e-06
2.26777186e-06
2.26779955e-06
2.2678264e-06
2.26785247e-06
2.26787777e-06
2.26790229e-06
2.26792609e-06
2.26794913e-06
2.26797151e-06
2.26799314e-06
2.26801415e-06
2.26803445e-06
2.26805415e-06
2.26807317e-06
2.26809164e-06
2.26810944e-06
2.26812673e-06
2.26814339e-06
2.26815955e-06
2.26817512e-06
2.26819022e-06
2.26820476e-06
2.26821886e-06
2.26823242e-06
2.26824557e-06
2.26825821e-06
2.26827046e-06
2.26828223e-06
2.26829363e-06
2.26830459e-06
2.26831519e-06
2.26832538e-06
2.26833522e-06
2.26834469e-06
2.26835383e-06
2.26836261e-06
2.26837109e-06
2.26837924e-06
2.2683871e-06
2.26839464e-06
2.26840192e-06
2.26840891e-06
2.26841565e-06
2.26842211e-06
2.26842833e-06
2.26843431e-06
2.26844006e-06
2.26844558e-06
2.26845089e-06
2.26845598e-06
2.26846088e-06
2.26846558e-06
2.26847009e-06
2.26847442e-06
2.26847858e-06
2.26848257e-06
2.2684864e-06
2.26849006e-06
2.26849359e-06
2.26849696e-06
2.2685002e-06
2.2685033e-06
2.26850627e-06
2.26850912e-06
2.26851186e-06
2.26851447e-06
2.26851698e-06
2.26851938e-06
2.26852168e-06
2.26852388e-06
2.26852599e-06
2.268528e-06
2.26852994e-06
2.26853179e-06
2.26853356e-06
2.26853525e-06
2.26853687e-06
2.26853843e-06
2.26853991e-06
2.26854133e-06
2.26854269e-06
2.26854399e-06
2.26854524e-06
2.26854642e-06
2.26854759e-06
2.26854863e-06
2.26854948e-06
2.26854899e-06
2.26854852e-06
2.2685481e-06
2.26854771e-06
2.26854735e-06
2.26854703e-06
2.26854673e-06
2.26854646e-06
2.26854621e-06
2.26854599e-06
2.26854578e-06
2.2685456e-06
2.26854543e-06
2.26854527e-06
2.26854513e-06
2.268545e-06
2.26854489e-06
2.26854478e-06
2.26854469e-06
2.2685446e-06
2.26854452e-06
2.26854445e-06
2.26854438e-06
2.26854432e-06
2.26854427e-06
2.26854422e-06
2.26854418e-06
2.26854414e-06
2.2685441e-06
2.26854407e-06
2.26854404e-06
2.26854401e-06
2.26854399e-06
2.26854397e-06
2.26854395e-06
2.26854393e-06
2.26854392e-06
2.2685439e-06
2.26854389e-06
2.26854388e-06
2.26854387e-06
2.26854386e-06
2.26854385e-06
2.26854384e-06
2.26854383e-06
2.26854383e-06
2.26854382e-06
2.26854382e-06
2.26854381e-06
2.26854381e-06
2.26854381e-06
2.2685438e-06
2.2685438e-06
2.2685438e-06
2.26854379e-06
2.26854379e-06
2.26854379e-06
2.26854379e-06
2.26854379e-06
2.26854379e-06
2.26854379e-06
2.26854378e-06
2.26854378e-06
2.26854378e-06
2.26854378e-06
2.26854378e-06
2.26854378e-06
2.26854378e-06
2.26854378e-06
2.26854378e-06
2.26854378e-06
2.26854378e-06
2.26854378e-06
2.26854378e-06
2.26854378e-06
2.26854378e-06
2.26854378e-06
2.26854378e-06
2.26854378e-06
2.26854378e-06
2.26854378e-06
2.26854378e-06
2.26854378e-06
2.26854378e-06
2.26854378e-06
2.26854378e-06
2.26854378e-06
2.26854378e-06
2.26854378e-06
2.26854378e-06
2.26854378e-06
2.26854378e-06
2.26854378e-06
2.26854378e-06
2.26854378e-06
2.26854378e-06
2.26854378e-06
2.26854378e-06
2.26854378e-06
2.26854378e-06
2.26854378e-06
2.26854378e-06
2.26854378e-06
2.26854378e-06
2.26854378e-06
2.26854378e-06
2.26854378e-06
2.26854378e-06
2.26854378e-06
2.26854378e-06
2.26854378e-06
2.26854378e-06
2.26854378e-06
2.26854378e-06
2.26854378e-06
2.26854378e-06
2.26854378e-06
2.26854378e-06
2.26854378e-06
2.26854378e-06
2.26854378e-06
2.26854378e-06
2.26854378e-06
2.26854378e-06
2.26854378e-06
2.26854378e-06
2.26854378e-06
2.26854378e-06
2.26854378e-06
2.26854378e-06
2.26854378e-06
2.26854378e-06
2.26854378e-06
2.26854378e-06
2.26854378e-06
2.26854378e-06
2.26854378e-06
2.26854378e-06
2.26854378e-06
2.26854378e-06
2.26854378e-06
2.26854378e-06
2.26854378e-06
2.26854378e-06
2.26854378e-06
2.26854378e-06
2.26854378e-06
2.26854378e-06
2.26854378e-06
2.26854378e-06
2.26854378e-06
2.26854378e-06
2.26854378e-06
2.26854378e-06
2.26854378e-06
2.26854378e-06
2.26854378e-06
2.26854378e-06
2.26854378e-06
2.26854378e-06
2.26854378e-06
2.26854378e-06
2.26854378e-06
2.26854378e-06
2.26854378e-06
2.26854378e-06
2.26854378e-06
2.26854378e-06
2.26854378e-06
2.26854378e-06
2.26854378e-06
2.26854378e-06
2.26854378e-06
)
;

boundaryField
{
    closed
    {
        type            calculated;
        value           nonuniform List<scalar> 0();
    }
    open
    {
        type            calculated;
        value           uniform 2.26854378e-06;
    }
    sides
    {
        type            empty;
    }
    procBoundary5to4
    {
        type            processor;
        value           uniform 2.19610154e-06;
    }
}


// ************************************************************************* //
