/*--------------------------------*- C++ -*----------------------------------*\
| =========                 |                                                 |
| \\      /  F ield         | OpenFOAM: The Open Source CFD Toolbox           |
|  \\    /   O peration     | Version:  2306                                  |
|   \\  /    A nd           | Website:  www.openfoam.com                      |
|    \\/     M anipulation  |                                                 |
\*---------------------------------------------------------------------------*/
FoamFile
{
    version     2.0;
    format      ascii;
    arch        "LSB;label=32;scalar=64";
    class       volScalarField;
    location    "0.00174";
    object      prefDPV_T;
}
// * * * * * * * * * * * * * * * * * * * * * * * * * * * * * * * * * * * * * //

dimensions      [1 -1 -1 -1 0 0 0];

internalField   nonuniform List<scalar> 
531
(
6.09595536e-10
6.08923816e-10
5.89976537e-10
5.90029556e-10
6.10088688e-10
6.08268015e-10
6.09230686e-10
5.9482877e-10
5.89161616e-10
5.89092247e-10
6.09291033e-10
6.09197477e-10
5.94021777e-10
5.88733876e-10
5.89320074e-10
6.09937639e-10
5.9066663e-10
5.88632309e-10
6.103599e-10
6.08913562e-10
6.09627195e-10
6.08414608e-10
6.08841709e-10
5.93989076e-10
5.90067112e-10
5.90050634e-10
5.88540962e-10
5.88391323e-10
6.10217581e-10
6.09105016e-10
5.89797309e-10
5.89768508e-10
6.1013489e-10
6.08447501e-10
6.09322376e-10
5.95462134e-10
5.9010505e-10
5.89351538e-10
5.89232924e-10
6.10211359e-10
6.09008062e-10
5.89966057e-10
5.89298843e-10
6.10192577e-10
6.08946313e-10
5.8979725e-10
5.89188163e-10
6.1031454e-10
6.0894931e-10
5.89203586e-10
5.88925559e-10
6.10586403e-10
6.08938151e-10
6.09513367e-10
6.0879868e-10
5.90898592e-10
5.89877968e-10
6.09548042e-10
6.08545326e-10
5.90370626e-10
5.90382392e-10
6.09583579e-10
5.91699701e-10
5.89230198e-10
6.09738937e-10
6.08504621e-10
6.09173548e-10
5.95467019e-10
5.89819716e-10
5.89293061e-10
5.89113428e-10
6.0977603e-10
6.09409907e-10
5.90751663e-10
5.88099757e-10
5.87938842e-10
6.09871897e-10
6.09268503e-10
5.89916851e-10
5.88968453e-10
6.10117872e-10
6.09035198e-10
5.89257262e-10
5.89225827e-10
6.10322963e-10
6.08822594e-10
6.09661792e-10
5.90193611e-10
5.89034205e-10
6.09920074e-10
6.08973879e-10
6.09026253e-10
6.08692466e-10
5.97441261e-10
5.90543435e-10
5.89700891e-10
5.89654615e-10
6.09402705e-10
6.09059537e-10
5.92592897e-10
5.88893717e-10
5.897104e-10
6.09749249e-10
5.91504435e-10
5.88975258e-10
6.09424687e-10
6.08930019e-10
5.89970062e-10
5.90113839e-10
6.09920014e-10
6.08299023e-10
6.09248217e-10
5.94206169e-10
5.89710372e-10
5.89105245e-10
5.89088277e-10
6.09968286e-10
6.08913461e-10
5.8964133e-10
5.89735682e-10
6.09788851e-10
5.90719449e-10
5.88591162e-10
6.099648e-10
6.08810357e-10
6.09429185e-10
5.90764976e-10
5.89517527e-10
6.09771745e-10
6.08389994e-10
6.09254017e-10
5.92812284e-10
5.89748042e-10
6.0882918e-10
6.0877027e-10
5.92628316e-10
5.9043071e-10
5.89438597e-10
5.89688453e-10
6.09788898e-10
5.9070845e-10
5.88584416e-10
6.10106109e-10
6.09074332e-10
6.09622673e-10
5.8998524e-10
5.8910864e-10
6.10142098e-10
5.90168031e-10
5.8803592e-10
6.10291832e-10
6.09054832e-10
6.09755531e-10
5.90560408e-10
5.88922333e-10
6.09904934e-10
6.08802416e-10
6.09331948e-10
6.0833113e-10
6.08735302e-10
5.93977461e-10
5.89933531e-10
5.90108633e-10
5.88668886e-10
5.88868673e-10
6.09908391e-10
5.90754065e-10
5.88342991e-10
6.09275073e-10
6.09399509e-10
5.90586474e-10
5.89346009e-10
6.09108338e-10
6.09325586e-10
5.91801764e-10
5.88677297e-10
5.88638464e-10
6.09960115e-10
6.09402317e-10
6.09328195e-10
6.09423076e-10
5.90269649e-10
5.8859376e-10
6.094956e-10
6.09578051e-10
5.90855587e-10
5.88247606e-10
5.88276902e-10
6.09745994e-10
6.09246063e-10
6.08856791e-10
6.09037578e-10
5.93002841e-10
5.89737353e-10
5.89198121e-10
5.89080427e-10
6.10030098e-10
6.08948974e-10
5.89787241e-10
5.89374052e-10
6.09856449e-10
6.08836704e-10
5.89975004e-10
5.89688014e-10
6.09842063e-10
6.08821819e-10
5.895462e-10
5.89491703e-10
6.09974746e-10
6.08619012e-10
6.09314129e-10
6.08297782e-10
6.08690544e-10
5.91885927e-10
5.9020034e-10
5.89758381e-10
5.89483704e-10
5.87723001e-10
5.87904147e-10
6.10216484e-10
6.09149497e-10
6.09595906e-10
5.9026961e-10
5.89180429e-10
6.0997565e-10
6.0854004e-10
6.09455236e-10
5.9112219e-10
5.89049448e-10
6.0891896e-10
6.09021403e-10
5.91029366e-10
5.88975062e-10
5.88784335e-10
6.09273033e-10
6.08926483e-10
5.90755712e-10
5.89436851e-10
6.08976687e-10
6.08923843e-10
5.91831317e-10
5.89344759e-10
5.89241651e-10
6.08980185e-10
6.08947558e-10
5.91998302e-10
5.89136354e-10
5.89111083e-10
6.0922481e-10
6.0860971e-10
5.90390808e-10
5.90369245e-10
6.09436933e-10
5.93793486e-10
5.88819063e-10
6.09019577e-10
6.08912225e-10
5.90484734e-10
5.89661536e-10
6.09146431e-10
6.08698194e-10
5.90640484e-10
5.90095973e-10
6.08961258e-10
6.08658134e-10
5.91203591e-10
5.90190068e-10
5.8909898e-10
5.89266069e-10
6.09823508e-10
6.08466043e-10
6.09360224e-10
5.92261984e-10
5.89195276e-10
6.09111962e-10
6.08858982e-10
5.90357233e-10
5.89627691e-10
6.09426267e-10
6.0871116e-10
5.89938199e-10
5.89625028e-10
6.09577266e-10
6.08651858e-10
5.8968621e-10
5.89696115e-10
6.09706245e-10
6.08282936e-10
6.09112836e-10
5.91458209e-10
5.89478103e-10
5.88767156e-10
5.88934195e-10
6.09968028e-10
6.08652651e-10
6.093582e-10
5.91047047e-10
5.88190374e-10
5.88855609e-10
6.09708941e-10
6.08739638e-10
6.08990874e-10
5.90797909e-10
5.903256e-10
6.09493077e-10
5.99503631e-10
5.89232527e-10
6.09318939e-10
6.08836423e-10
5.90767895e-10
5.8997094e-10
6.09136791e-10
6.08806761e-10
5.9104214e-10
5.90090653e-10
5.88888454e-10
5.89055433e-10
6.09999012e-10
6.08930098e-10
6.09404224e-10
5.90229211e-10
5.89406488e-10
6.10107687e-10
5.90370166e-10
5.87481523e-10
6.09752713e-10
6.09352383e-10
6.08871689e-10
6.08871528e-10
5.91128549e-10
5.89266003e-10
5.89144295e-10
6.09286906e-10
6.09083847e-10
5.91320813e-10
5.8913616e-10
5.89032283e-10
6.09295197e-10
6.09224626e-10
5.91237933e-10
5.88504349e-10
5.89069444e-10
6.09716372e-10
6.08622199e-10
6.09027596e-10
5.90919595e-10
5.89434778e-10
6.09059011e-10
6.09084977e-10
5.91339871e-10
5.88811397e-10
5.89081743e-10
6.0953982e-10
6.08594946e-10
6.08762434e-10
5.90739418e-10
5.89667109e-10
6.09025541e-10
6.08925878e-10
5.91682078e-10
5.89413815e-10
5.89234453e-10
6.09165167e-10
6.08897392e-10
5.91751976e-10
5.8928387e-10
5.89222334e-10
6.09061342e-10
6.08991553e-10
5.91587321e-10
5.89173281e-10
5.89014117e-10
6.09272693e-10
6.08828158e-10
5.90816264e-10
5.89678486e-10
6.0921379e-10
6.08792594e-10
5.90872725e-10
5.89698516e-10
5.88658833e-10
5.88664295e-10
6.10073191e-10
6.08800647e-10
6.09429886e-10
6.08368086e-10
6.08786629e-10
5.91402307e-10
5.89331132e-10
5.89137757e-10
6.09309459e-10
6.08777215e-10
5.90549941e-10
5.89530201e-10
6.093252e-10
6.0878519e-10
5.90575407e-10
5.89577845e-10
6.09085463e-10
6.08959631e-10
5.91352465e-10
5.89270586e-10
5.89071615e-10
6.09287706e-10
6.08858266e-10
5.90891731e-10
5.89461265e-10
6.09127316e-10
6.08984487e-10
5.91346734e-10
5.89098039e-10
5.89005171e-10
6.09297579e-10
6.09238454e-10
5.90983119e-10
6.09580737e-10
6.08379726e-10
5.91037233e-10
5.89699836e-10
5.89632291e-10
6.09203713e-10
6.08920281e-10
5.91286843e-10
5.89174372e-10
5.890227e-10
6.09364659e-10
6.09208432e-10
5.91016499e-10
5.88117684e-10
5.886561e-10
6.09875531e-10
6.08755873e-10
6.09162384e-10
5.9038801e-10
5.89743109e-10
6.09801753e-10
6.08278268e-10
6.09114641e-10
5.93311924e-10
5.88447199e-10
5.89237534e-10
6.09668e-10
6.0833104e-10
6.08995691e-10
5.92431015e-10
5.89836817e-10
6.08856869e-10
6.08576277e-10
5.92827289e-10
5.90307876e-10
5.89773828e-10
5.89757455e-10
6.0951704e-10
6.08637969e-10
5.90578525e-10
5.89963619e-10
6.09217607e-10
6.08652152e-10
5.91181853e-10
5.90086332e-10
5.8932527e-10
5.89292715e-10
6.09871495e-10
6.08898099e-10
5.89716372e-10
5.89341484e-10
6.09978564e-10
6.08865055e-10
5.89444395e-10
5.89411772e-10
6.10185285e-10
6.08552387e-10
6.09451071e-10
5.90886442e-10
5.89041372e-10
6.09411351e-10
6.09224428e-10
5.90488507e-10
5.89003499e-10
6.0947002e-10
6.09542832e-10
5.9065983e-10
5.8767009e-10
5.87909355e-10
6.10285164e-10
6.09232767e-10
6.09598551e-10
6.08929352e-10
6.08950919e-10
5.9017164e-10
5.90155326e-10
6.09903849e-10
5.90860973e-10
5.88904827e-10
6.09807531e-10
6.08570716e-10
6.09005954e-10
5.92860721e-10
5.89439948e-10
5.89985769e-10
5.88571275e-10
5.88444064e-10
6.10036182e-10
6.09110189e-10
5.89504027e-10
5.89418736e-10
6.10332097e-10
6.08574327e-10
6.09561109e-10
5.91166635e-10
5.89418051e-10
6.09508257e-10
6.08823915e-10
5.90273318e-10
5.90302128e-10
6.09842083e-10
6.08247051e-10
6.09045465e-10
5.95154488e-10
5.89807409e-10
5.89706209e-10
5.89230881e-10
6.09601474e-10
6.09286452e-10
5.90624952e-10
5.88188259e-10
5.88639777e-10
6.09918229e-10
6.08488366e-10
6.09133788e-10
5.91521625e-10
)
;

boundaryField
{
    closed
    {
        type            calculated;
        value           nonuniform List<scalar> 0();
    }
    open
    {
        type            calculated;
        value           nonuniform List<scalar> 0();
    }
    sides
    {
        type            empty;
    }
    procBoundary1to0
    {
        type            processor;
        value           uniform 5.88691785e-10;
    }
    procBoundary1to2
    {
        type            processor;
        value           uniform 5.8889824e-10;
    }
}


// ************************************************************************* //
