/*--------------------------------*- C++ -*----------------------------------*\
| =========                 |                                                 |
| \\      /  F ield         | OpenFOAM: The Open Source CFD Toolbox           |
|  \\    /   O peration     | Version:  2306                                  |
|   \\  /    A nd           | Website:  www.openfoam.com                      |
|    \\/     M anipulation  |                                                 |
\*---------------------------------------------------------------------------*/
FoamFile
{
    version     2.0;
    format      ascii;
    arch        "LSB;label=32;scalar=64";
    class       volScalarField;
    location    "0.00174";
    object      sourcePV;
}
// * * * * * * * * * * * * * * * * * * * * * * * * * * * * * * * * * * * * * //

dimensions      [1 -3 -1 0 0 0 0];

internalField   nonuniform List<scalar> 
531
(
0.00502982443
0.00567879084
0.152152843
0.15195223
0.00455431083
0.00629918909
0.00538900952
0.100518063
0.16954872
0.169056829
0.00533090579
0.00542245228
0.106476565
0.177428063
0.165100636
0.00470655086
0.140093032
0.178445785
0.00429615798
0.0056922619
0.00501418434
0.00616077157
0.00576793244
0.106596562
0.155870819
0.151429442
0.182478408
0.181446799
0.00445035251
0.00551094404
0.158774875
0.158709601
0.00452166536
0.00613763963
0.00530966552
0.0964455972
0.153486536
0.167836497
0.167515347
0.0044576378
0.00560172866
0.157049769
0.165416085
0.00447634408
0.00565795175
0.159955911
0.16655928
0.00435549677
0.00565307117
0.169747628
0.170273918
0.00408228456
0.00566096792
0.00512453544
0.00579172295
0.137549028
0.1534934
0.00508356861
0.00603566761
0.145671135
0.145223698
0.00504243802
0.124112828
0.167022664
0.00489347842
0.00607797463
0.00544202691
0.0960424027
0.157384347
0.165747814
0.169732489
0.00486234876
0.00522094233
0.137602767
0.18966062
0.188532092
0.00478476937
0.00534962916
0.156302531
0.17139093
0.00453897313
0.00557607429
0.167351015
0.167103304
0.00433348319
0.00577818337
0.00497764585
0.147903557
0.171658967
0.00471785399
0.00563660966
0.00558019933
0.00590161692
0.0826451734
0.142990307
0.158648967
0.158858122
0.00522053785
0.00555215429
0.117041725
0.174657341
0.156450073
0.00488822181
0.125543846
0.172595341
0.00519779944
0.00567648954
0.152426404
0.15113037
0.00472058732
0.00627100791
0.00537105041
0.105072989
0.159150021
0.169015657
0.169129008
0.00467596809
0.00569010905
0.15866181
0.157700953
0.0048430751
0.13802251
0.178247912
0.00467370306
0.00578843674
0.00519103081
0.137246993
0.161237627
0.00486178117
0.00618341882
0.00536262676
0.115210736
0.158436979
0.00576397117
0.00583039402
0.116573578
0.147853332
0.162234114
0.160533536
0.00484769884
0.140820412
0.179441524
0.00454708326
0.00554284517
0.00501330663
0.152933486
0.170163591
0.0045070633
0.149883403
0.189167645
0.00436426648
0.00556225749
0.00488287369
0.142390439
0.173351783
0.0047373923
0.00579794752
0.00529158472
0.00623893898
0.00586129309
0.106549334
0.155939052
0.148936864
0.178185269
0.171367082
0.00473752028
0.136103466
0.18503946
0.00534164242
0.00523887844
0.140208687
0.169042599
0.00550445782
0.00531473971
0.123755335
0.181833434
0.17820524
0.00470559227
0.00523295179
0.00530551452
0.00521230056
0.14863355
0.181021391
0.00513964453
0.00506815688
0.137139249
0.187904279
0.183860102
0.00490579324
0.00537627334
0.00575019766
0.00557310871
0.11453466
0.158500005
0.168997302
0.168752318
0.00462801271
0.00565455676
0.158949785
0.163566299
0.00479791191
0.00576263704
0.155691799
0.158483668
0.00480870223
0.0057782561
0.162185727
0.161919632
0.0046741798
0.00596926906
0.00531047304
0.00627010178
0.00590444681
0.122672055
0.152676523
0.156324244
0.165293947
0.192798617
0.191778095
0.00443722097
0.0054719748
0.00503540012
0.147751206
0.167800739
0.00466870242
0.0060431313
0.00516927053
0.129023763
0.170825003
0.00567866059
0.00558736581
0.129747253
0.172616207
0.171552272
0.00534874202
0.00567051528
0.137163172
0.162155553
0.00562506262
0.00567716842
0.122660533
0.164856535
0.164341151
0.00562288787
0.00565344405
0.1212761
0.168974694
0.165800992
0.00539257588
0.00597131107
0.14421661
0.143829109
0.00518177702
0.107651703
0.172398709
0.00558173722
0.00568570303
0.140148716
0.15802477
0.00546013966
0.00589119041
0.137665496
0.150933175
0.00563773072
0.00593142425
0.127592004
0.150524006
0.1672233
0.16580513
0.00481035107
0.00611140747
0.00525677571
0.119438584
0.166693251
0.00549626705
0.00573829257
0.14375559
0.158404893
0.00519412493
0.0058773283
0.151644368
0.157584786
0.00504828807
0.00593252518
0.156341041
0.155970316
0.00492338066
0.00628078363
0.00549483361
0.125376135
0.162852935
0.172426699
0.171756587
0.00466794476
0.0059373618
0.00525764412
0.132177928
0.185676544
0.172720814
0.00492762497
0.00585614692
0.00561492075
0.137779782
0.14751949
0.00513569709
0.0696917248
0.165363773
0.00530580104
0.00576140538
0.137996808
0.154331298
0.00547752171
0.00579572108
0.132013557
0.154217607
0.172364082
0.171543531
0.00464496086
0.00567937322
0.00521741061
0.148376857
0.162809399
0.00454056383
0.143634826
0.197929915
0.00488560379
0.00527148538
0.00572807066
0.00572774248
0.130326716
0.167743841
0.167071148
0.00534038372
0.00552601906
0.127447153
0.170164587
0.169506562
0.00533254795
0.00539284394
0.128828805
0.181305846
0.168716586
0.00492275628
0.00596551198
0.00558004099
0.134357474
0.163750004
0.00554957393
0.00552850891
0.126696121
0.175737184
0.16730675
0.00509082216
0.00598871142
0.00582961566
0.137098884
0.158868471
0.00557880236
0.00567772345
0.123694915
0.164702156
0.163689338
0.00545226397
0.00569879996
0.123623956
0.165494963
0.16525689
0.00554610847
0.00561231876
0.124533606
0.168662063
0.167708779
0.00535009141
0.00576446692
0.136659516
0.157678953
0.00540170684
0.00580251426
0.134435937
0.15873876
0.175905078
0.175984897
0.00457129826
0.00579354105
0.00519379831
0.006200563
0.00580676293
0.125853971
0.165949503
0.165023479
0.00531344386
0.00581160436
0.141143146
0.159458927
0.00529228201
0.00580723234
0.139137697
0.159973397
0.00551949627
0.0056445288
0.126144941
0.167390633
0.166382659
0.00533589491
0.00573562581
0.13515955
0.161718329
0.00548414746
0.00561948499
0.126671132
0.169655767
0.169023238
0.00532212258
0.00537868783
0.130508407
0.00505149136
0.00618900567
0.131719132
0.157991325
0.157852229
0.00541008398
0.00567996281
0.127041701
0.16876889
0.168049044
0.00526080772
0.00540261374
0.131871857
0.186780169
0.175169093
0.00476433914
0.00583596896
0.00544767059
0.143085301
0.156351031
0.00482971981
0.00628709353
0.00549105134
0.111292648
0.17996609
0.163576102
0.00496004498
0.00623501031
0.00560551372
0.117867664
0.154523822
0.00573713807
0.00600596498
0.114863425
0.14632711
0.155372914
0.155278827
0.00510935143
0.00594638519
0.140558954
0.152379773
0.00539711455
0.00593514408
0.129079277
0.151703904
0.164998414
0.164938911
0.00477330724
0.00570252176
0.158136636
0.163891952
0.00467054203
0.00573444357
0.163071423
0.162648413
0.00446806937
0.00603115851
0.00517682573
0.134632228
0.17178564
0.00521408269
0.00539974646
0.142611725
0.173271062
0.00515905223
0.00509867576
0.139104783
0.197310717
0.189213379
0.00438516216
0.00538612651
0.00504217377
0.00567510405
0.00565596484
0.148966511
0.150237087
0.00473561703
0.135894792
0.1732107
0.00483287591
0.00601734931
0.00560307745
0.115355649
0.165499711
0.152896166
0.18123447
0.180572156
0.00462728371
0.00550452523
0.163982995
0.163729614
0.00432998807
0.00601430738
0.00507535675
0.130918294
0.16529047
0.00512543345
0.00577922145
0.148439843
0.148134096
0.00480063146
0.00632041259
0.00556589582
0.0982005192
0.157147072
0.157671161
0.166826917
0.00502870921
0.00533525191
0.138088343
0.187094808
0.174505177
0.00473103042
0.006087231
0.00548270447
0.124941087
)
;

boundaryField
{
    closed
    {
        type            calculated;
        value           nonuniform List<scalar> 0();
    }
    open
    {
        type            calculated;
        value           nonuniform List<scalar> 0();
    }
    sides
    {
        type            empty;
    }
    procBoundary1to0
    {
        type            processor;
        value           uniform 0;
    }
    procBoundary1to2
    {
        type            processor;
        value           uniform 0;
    }
}


// ************************************************************************* //
