/*--------------------------------*- C++ -*----------------------------------*\
| =========                 |                                                 |
| \\      /  F ield         | OpenFOAM: The Open Source CFD Toolbox           |
|  \\    /   O peration     | Version:  2306                                  |
|   \\  /    A nd           | Website:  www.openfoam.com                      |
|    \\/     M anipulation  |                                                 |
\*---------------------------------------------------------------------------*/
FoamFile
{
    version     2.0;
    format      ascii;
    arch        "LSB;label=32;scalar=64";
    class       volScalarField;
    location    "0.0008";
    object      H2O;
}
// * * * * * * * * * * * * * * * * * * * * * * * * * * * * * * * * * * * * * //

dimensions      [0 0 0 0 0 0 0];

internalField   nonuniform List<scalar> 
531
(
0.000958973209
0.000800119457
0.00673006127
0.00713338683
0.00513140404
0.000956840547
0.000785148655
0.00687325675
0.00727815428
0.00534061364
0.000915576263
0.00205891342
0.00672971008
0.0056404687
0.000916497364
0.00227138636
0.00677454651
0.00563384836
0.000949477752
0.00074957925
0.00720453862
0.00735330971
0.00520070573
0.000951256451
0.000730140955
0.00732869674
0.00750329079
0.00552375771
0.00104692515
0.00105255824
0.00098469996
0.00105082561
0.00086692733
0.00557474434
0.00709262589
0.00697291579
0.00698922826
0.00709135427
0.00521423163
0.00100185101
0.000827045921
0.00686574565
0.00715313952
0.00540797743
0.00109170277
0.00109013056
0.000728470402
0.00705114448
0.00747520882
0.00539468723
0.000992870194
0.00111106003
0.00686868463
0.00598599055
0.00103434086
0.000852228884
0.00700250635
0.00736592771
0.0072589417
0.00631489468
0.00104320808
0.00105935916
0.000941094629
0.00105999199
0.000769620073
0.00720964124
0.0075691273
0.00733725195
0.00596073545
0.00104035997
0.000953309709
0.00632649867
0.0071168561
0.00539087591
0.00106450154
0.000954474776
0.00673350425
0.00701214394
0.00526297639
0.00108598107
0.000951024762
0.00675899236
0.00744368961
0.00589938784
0.0010506758
0.000967260924
0.00666769497
0.00736836428
0.00585109594
0.00106498148
0.000998290583
0.00638532886
0.00730820432
0.00586536636
0.00106855883
0.0010148581
0.00624659316
0.00732381921
0.0060014975
0.00106570514
0.00102472043
0.00616293975
0.00732856184
0.0061003152
0.00106248501
0.00103805549
0.00581540729
0.0073325948
0.00621514859
0.00105567778
0.00102653786
0.00610591777
0.00754535075
0.00659199826
0.000964900921
0.00112017275
0.000900038124
0.00679731597
0.007389278
0.00721673009
0.00643444476
0.00105286484
0.00104623981
0.00547254781
0.00725735511
0.00645569321
0.00101402221
0.000924464946
0.00703806739
0.00676274931
0.00105556522
0.00100994594
0.00634656459
0.00727240912
0.00592685532
0.00104384139
0.0010104309
0.00680729132
0.00719988531
0.00559806009
0.00104208053
0.000936606235
0.00706191121
0.00693724695
0.00100597951
0.000986769191
0.00682458814
0.00715426705
0.00510417492
0.00107626199
0.00101579634
0.00661775736
0.00726066593
0.00564882828
0.00105662371
0.00102120193
0.00668665685
0.00724655225
0.00562447585
0.00106177276
0.00103548077
0.00661987183
0.0071728823
0.00555269256
0.00106978898
0.00104767025
0.00662734035
0.00706500181
0.00694554907
0.00562092576
0.00106552728
0.00104342476
0.00695823623
0.00706956608
0.00102157181
0.0010412572
0.00559044407
0.00724489257
0.00620520001
0.00104252059
0.00105709944
0.00660766695
0.00726865365
0.00595265294
0.00104838462
0.00105894544
0.00655061658
0.00729897061
0.0062844039
0.00101909366
0.00103474623
0.00688765042
0.00694154608
0.00100376508
0.00104607475
0.00633475732
0.00727013438
0.00607814661
0.0010411071
0.00105155968
0.00656113502
0.00726274235
0.00603458841
0.00104559075
0.00105254354
0.00654314001
0.00720283341
0.00595726693
0.00103439822
0.00103736589
0.00713246138
0.00724179206
0.0012627177
0.00104130036
0.0055087099
0.00670662847
0.00525917065
0.00326384151
0.00330115007
0.00523673912
0.00524775566
0.00427822351
0.00414902769
0.00452146073
0.00465993392
0.00455073226
0.00445492182
0.00447305234
0.00452371408
0.0045235084
0.00450459988
0.00449842237
0.00450664563
0.00451872573
0.00451070122
0.00448148876
0.00449047675
0.0045667535
0.0045658572
0.00438426448
0.00436341815
0.00471779854
0.00486851987
0.00419798128
0.00380223616
0.00482781731
0.00588337569
0.00454587285
0.00205066084
0.004149144
0.00691056915
0.00647345525
0.00101784806
0.000945198213
0.00724799292
0.00719688702
0.000995150464
0.000946463449
0.0071336123
0.00680456172
0.00105564067
0.00103419259
0.00676669173
0.00726994578
0.00625109676
0.00103793287
0.00095846468
0.00701543242
0.0068244967
0.0010523037
0.00102164889
0.00688405155
0.00728115789
0.00589237377
0.0010294275
0.000939907174
0.00707762883
0.00688037553
0.00104795832
0.0010202354
0.00664748736
0.00717912836
0.00587159235
0.00105315461
0.00101861739
0.00676078429
0.00723533018
0.00579143178
0.00101926639
0.00092218023
0.00715934001
0.00706753891
0.000990048076
0.00101541933
0.00627018427
0.00711433584
0.00580065165
0.00105213787
0.00101768788
0.00674297184
0.00734299939
0.00619841188
0.0010032475
0.000917808566
0.00695293839
0.0067268496
0.00104186478
0.0010229561
0.00672768191
0.00723005885
0.00576907025
0.00104239437
0.00101422338
0.00684396607
0.00727228734
0.00589646199
0.00102159564
0.000933761234
0.00701599799
0.00686631359
0.00105020465
0.00102517376
0.0063622825
0.00729330482
0.00609596247
0.0010600555
0.00103077103
0.00644008493
0.00720487332
0.00597316867
0.00106818267
0.00103595633
0.0066288468
0.0071466298
0.00605512547
0.00106664151
0.00100767017
0.0067774275
0.00684841699
0.00325368176
0.00232896741
0.00540490562
0.00590685264
0.00340373135
0.00339105056
0.00653701404
0.00655900782
0.000940939858
0.00098223797
0.00641895536
0.00729836219
0.00602575942
0.00103927581
0.000945918413
0.00724775853
0.00713076623
0.00103821719
0.000942859816
0.00706229871
0.00681690994
0.00107240723
0.0010216017
0.00675346014
0.00732880464
0.00652430769
0.00104753839
0.000990711228
0.00694814919
0.00680179942
0.00107870962
0.00103459261
0.00672500471
0.00734402237
0.00666472999
0.00105487651
0.00102503824
0.00686752179
0.00680753976
0.0010809527
0.00105653155
0.00663307981
0.00737073629
0.00682960457
0.00105133459
0.00106587777
0.00688409325
0.00692795163
0.00104715694
0.00106715006
0.00656748955
0.00737311883
0.00674460651
0.000999620774
0.00106987804
0.00708788576
0.00731492873
0.000910894984
0.00103654463
0.00696498511
0.00722591833
0.000889076471
0.0010546496
0.00671168954
0.0069757139
0.000901121558
0.00105706688
0.00622305942
0.00743636707
0.00715635085
0.000937940923
0.00106060282
0.00664671427
0.00710012753
0.00083094437
0.00105902169
0.00656257703
0.00690530177
0.000858059015
0.00105633366
0.00606618635
0.00737471255
0.00711654862
0.000948105999
0.0010564416
0.0064981331
0.00681692785
0.000889324124
0.00105186504
0.00580324017
0.00717976831
0.00672528234
0.00101125736
0.00108119032
0.00503606329
0.0067374292
0.00685004339
0.00589153671
0.00102737366
0.00102291324
0.00621745329
0.00748226013
0.007111486
0.000959950056
0.000935902763
0.0068221911
0.0069562406
0.000863024541
0.000891763747
0.00686207855
0.00687790058
0.000863778571
0.000885090582
0.00671821149
0.00662201838
0.000895308824
0.000962131247
0.00646003158
0.00741416201
0.00688943476
0.000972901812
0.000899494541
0.00680574874
0.00687401042
0.000872076513
0.000872671426
0.00693497119
0.00694552303
0.000860292411
0.000871653322
0.00693174277
0.00692246031
0.000866434485
0.000888390476
0.00677897004
0.00669355385
0.000909939842
0.000976696479
0.00630239385
0.00725151454
0.00663571223
0.00101030936
0.00100990193
0.00584076479
0.00715388685
0.00661419931
0.00101019123
0.00100951
0.00598877328
0.00741561132
0.00685726928
0.000969552197
0.00104522956
0.00104007397
0.000986043487
0.00626229516
0.007274555
0.00728469107
0.00703679371
0.000982328816
0.00100411259
0.0063366104
0.00736400237
0.0068021367
0.00101552664
0.00104446387
0.00585965551
0.00709139215
0.00659754544
0.00103127409
0.0010647263
0.00572828662
0.00705177345
0.00662748294
0.00102785575
0.00106155267
0.00586261658
0.0071235793
0.00674087465
0.0010211629
0.00105838513
0.00590203034
0.00715777154
0.00680338765
0.00101277003
0.00104093616
0.00597400675
0.00759560676
0.00715341885
0.000919528011
0.00102991459
0.0010232175
)
;

boundaryField
{
    closed
    {
        type            calculated;
        value           nonuniform List<scalar> 0();
    }
    open
    {
        type            calculated;
        value           nonuniform List<scalar> 0();
    }
    sides
    {
        type            empty;
    }
    procBoundary3to2
    {
        type            processor;
        value           uniform 0.00510058881;
    }
    procBoundary3to4
    {
        type            processor;
        value           uniform 0.000998270858;
    }
}


// ************************************************************************* //
