/*--------------------------------*- C++ -*----------------------------------*\
| =========                 |                                                 |
| \\      /  F ield         | OpenFOAM: The Open Source CFD Toolbox           |
|  \\    /   O peration     | Version:  2306                                  |
|   \\  /    A nd           | Website:  www.openfoam.com                      |
|    \\/     M anipulation  |                                                 |
\*---------------------------------------------------------------------------*/
FoamFile
{
    version     2.0;
    format      ascii;
    arch        "LSB;label=32;scalar=64";
    class       surfaceScalarField;
    location    "0.0008";
    object      phi;
}
// * * * * * * * * * * * * * * * * * * * * * * * * * * * * * * * * * * * * * //

dimensions      [1 0 -1 0 0 0 0];

oriented        oriented;

internalField   nonuniform List<scalar> 
530
(
-2.9203434e-06
-2.70310418e-06
-2.75570135e-06
-2.71024685e-06
-2.55889029e-06
-2.42548299e-06
-2.18608907e-06
-2.2239443e-06
-2.23426127e-06
-2.13435991e-06
-2.04713383e-06
-1.9298466e-06
-2.02833031e-06
-2.01431198e-06
-1.9829662e-06
-1.96495367e-06
-2.10866374e-06
-2.14640733e-06
-2.19482503e-06
-2.11515222e-06
-2.31653707e-06
-2.51125153e-06
-2.60076422e-06
-2.72162438e-06
-2.70601917e-06
-2.98064638e-06
-3.16715889e-06
-3.28032652e-06
-3.43610439e-06
-3.57767318e-06
-3.74420843e-06
-3.88910407e-06
-4.02672908e-06
-4.25697226e-06
-4.51376793e-06
-4.6939174e-06
-4.88463011e-06
-5.01338132e-06
-5.13655159e-06
-5.3181809e-06
-5.46632644e-06
-5.91241654e-06
-6.04645872e-06
-6.09361354e-06
-6.2888401e-06
-6.41851427e-06
-6.52924166e-06
-6.9468231e-06
-7.02596953e-06
-7.03707597e-06
-7.13109076e-06
-7.49496643e-06
-7.54908287e-06
-7.56358423e-06
-7.61211267e-06
-7.70955187e-06
-8.13997714e-06
-8.14692025e-06
-8.01903351e-06
-7.94374801e-06
-7.8840121e-06
-7.839322e-06
-7.7781252e-06
-7.73814168e-06
-7.78515053e-06
-8.1422649e-06
-8.09767582e-06
-7.88648738e-06
-7.77005384e-06
-7.70816191e-06
-7.7349904e-06
-7.65323761e-06
-7.46600369e-06
-7.25600608e-06
-7.16164027e-06
-7.16482056e-06
-7.37952776e-06
-7.17464826e-06
-6.95208991e-06
-6.83232285e-06
-6.81172474e-06
-7.03504038e-06
-6.77648255e-06
-6.55051814e-06
-6.38867062e-06
-6.32034331e-06
-6.48358579e-06
-6.18736197e-06
-5.92818184e-06
-5.72517684e-06
-5.6093081e-06
-5.39205357e-06
-5.09233995e-06
-4.83294909e-06
-4.62492946e-06
-4.4876816e-06
-4.28746718e-06
-4.01698287e-06
-3.7934711e-06
-3.6088639e-06
-3.47946788e-06
-3.31456511e-06
-3.09318129e-06
-2.91659199e-06
-2.76694964e-06
-2.65636242e-06
-2.54214036e-06
-2.3734039e-06
-2.24438111e-06
-2.13285243e-06
-2.05372625e-06
-1.96764521e-06
-1.86187544e-06
-1.69132941e-06
-1.57561754e-06
-1.50042839e-06
-1.42523372e-06
-1.45149606e-06
-1.39670476e-06
-1.31004782e-06
-1.22901457e-06
-1.18589265e-06
-1.15483392e-06
-1.15448462e-06
-1.14210004e-06
-1.13491714e-06
-1.12066418e-06
-1.09542343e-06
-1.12911194e-06
-1.13451351e-06
-1.14087438e-06
-1.14336306e-06
-1.16775777e-06
-1.18081136e-06
-1.18860593e-06
-1.20209034e-06
-1.20647951e-06
-1.28462297e-06
-1.29518046e-06
-1.29653054e-06
-1.2880563e-06
-1.27359647e-06
-1.30406594e-06
-1.26914537e-06
-1.24533759e-06
-1.21538173e-06
-1.27432788e-06
-1.25054877e-06
-1.21410956e-06
-1.18055393e-06
-1.14273189e-06
-1.17968283e-06
-1.13183274e-06
-1.08327586e-06
-1.03628201e-06
-9.88850221e-07
-1.00867459e-06
-9.55530036e-07
-9.07001425e-07
-8.56744378e-07
-8.13558708e-07
-8.31261749e-07
-7.86326852e-07
-7.49021334e-07
-7.08685519e-07
-6.81143906e-07
-7.22254564e-07
-6.75669405e-07
-6.43642973e-07
-6.40423277e-07
-6.19489585e-07
-6.31136853e-07
-6.94058584e-07
-6.61286313e-07
-6.5059008e-07
-6.71786741e-07
-7.08744709e-07
-7.30125303e-07
-7.63018336e-07
-7.53159115e-07
-8.06955947e-07
-9.10059115e-07
-9.35064948e-07
-9.84832725e-07
-9.76583966e-07
-1.05386358e-06
-1.19335219e-06
-1.23790413e-06
-1.30980463e-06
-1.28970059e-06
-1.38128324e-06
-1.55365377e-06
-1.57245652e-06
-1.50722069e-06
-1.59416557e-06
-1.63421697e-06
-1.65301752e-06
-1.68704892e-06
-1.63413776e-06
-1.69353446e-06
-1.82391972e-06
-1.80271566e-06
-1.79966248e-06
-1.70631218e-06
-1.72787671e-06
-1.81435891e-06
-1.75866528e-06
-1.7107016e-06
-1.58132625e-06
-1.57908907e-06
-1.65433058e-06
-1.5295978e-06
-1.06649361e-06
-9.76087982e-07
-8.73085247e-07
-7.91753949e-07
-6.59429388e-07
-4.76002959e-07
-2.80084318e-07
-1.47464169e-07
-1.38824106e-08
1.417138e-07
3.02795146e-07
4.47917618e-07
5.87427045e-07
7.2874062e-07
8.70718711e-07
1.00860119e-06
1.14079189e-06
1.26861805e-06
1.39229577e-06
1.51114379e-06
1.62445312e-06
1.73189339e-06
1.83413869e-06
1.93256918e-06
2.02634538e-06
2.11206596e-06
2.19233824e-06
2.27200325e-06
2.35008279e-06
2.41504064e-06
2.46786649e-06
2.52245824e-06
2.59717966e-06
2.65315211e-06
2.6942056e-06
2.69520899e-06
2.84069338e-06
2.9315977e-06
2.92327449e-06
2.92356919e-06
2.86426615e-06
2.89710331e-06
3.14094036e-06
3.06376519e-06
2.89053742e-06
2.89053253e-06
3.10174183e-06
2.85224171e-06
2.77373054e-06
2.82898599e-06
2.93160042e-06
2.91125306e-06
2.85569826e-06
2.77209995e-06
2.76408782e-06
2.93075766e-06
2.67218367e-06
2.58051359e-06
2.53710312e-06
2.72788332e-06
2.68276633e-06
2.60627751e-06
2.5393663e-06
2.54147e-06
2.69239018e-06
2.44611705e-06
2.37466369e-06
2.33576724e-06
2.48043365e-06
2.44541269e-06
2.38622458e-06
2.33846118e-06
2.33593653e-06
2.51430317e-06
2.4816653e-06
2.42424461e-06
2.40058157e-06
2.4405064e-06
2.5895022e-06
2.44173865e-06
2.363443e-06
2.36690879e-06
2.36204361e-06
2.35195796e-06
2.31718913e-06
2.29781677e-06
2.31760589e-06
2.51148198e-06
2.50481422e-06
2.47436398e-06
2.45533596e-06
2.50092142e-06
2.66007334e-06
2.4392258e-06
2.41969862e-06
2.42023462e-06
2.61413968e-06
2.6077736e-06
2.5703939e-06
2.54158677e-06
2.56388973e-06
2.78789394e-06
2.77267276e-06
2.72808524e-06
2.69250989e-06
2.73484922e-06
2.92108738e-06
2.69245833e-06
2.62956843e-06
2.67971786e-06
2.66213885e-06
2.66246897e-06
2.61375173e-06
2.5401521e-06
2.53685923e-06
2.51068212e-06
2.49970322e-06
2.44744387e-06
2.37435253e-06
2.36929173e-06
2.5205174e-06
2.48836284e-06
2.43002415e-06
2.34001397e-06
2.34769182e-06
2.46671151e-06
2.34642555e-06
2.27726267e-06
2.3526426e-06
2.31273486e-06
2.26887696e-06
2.2139632e-06
2.20407855e-06
2.15754402e-06
2.03120832e-06
1.9117863e-06
1.89430402e-06
1.80259303e-06
1.74366887e-06
1.68356395e-06
1.60285567e-06
1.6343412e-06
1.72399543e-06
1.50941261e-06
1.42647128e-06
1.5125656e-06
1.52819301e-06
1.34663728e-06
1.28877415e-06
1.35187507e-06
1.4120563e-06
1.43909824e-06
1.32312153e-06
1.32681059e-06
1.4778604e-06
1.55372575e-06
1.45911892e-06
1.46073794e-06
1.58555095e-06
1.7062209e-06
1.78890092e-06
1.73231036e-06
1.76065065e-06
1.89007344e-06
2.12510046e-06
2.08657917e-06
2.13002528e-06
2.31026576e-06
2.50273895e-06
2.64404483e-06
2.60456099e-06
2.63686779e-06
2.75019567e-06
3.07463242e-06
3.16498809e-06
3.11224505e-06
3.20506542e-06
3.53889924e-06
3.64737612e-06
3.50737536e-06
3.4913523e-06
3.51969371e-06
3.80262298e-06
3.80717751e-06
3.65422901e-06
3.59807405e-06
3.71355017e-06
3.58289824e-06
3.35175142e-06
3.15302373e-06
3.03392547e-06
2.72754675e-06
2.42027183e-06
2.06335939e-06
1.68793119e-06
1.22570406e-06
7.23619021e-07
3.09365893e-07
-2.13700977e-07
-9.40158947e-07
-1.47229667e-06
-1.74576083e-06
-2.36615249e-06
-3.25785916e-06
-3.716213e-06
-3.94341229e-06
-4.55838566e-06
-5.06401824e-06
-5.55279644e-06
-5.68447959e-06
-5.7917314e-06
-6.33315016e-06
-7.18642113e-06
-7.27906327e-06
-7.18979606e-06
-7.61331194e-06
-7.95437028e-06
-8.21564606e-06
-8.11580326e-06
-8.07899541e-06
-8.43541664e-06
-8.73746917e-06
-9.04432004e-06
-9.09156068e-06
-9.1283592e-06
-9.14424198e-06
-9.3530501e-06
-9.37500556e-06
-9.33536628e-06
-8.51294817e-06
-8.4484107e-06
-8.74719515e-06
-8.77332892e-06
-8.05896387e-06
-7.82516451e-06
-7.93092258e-06
-7.90029554e-06
-7.24257275e-06
-6.93451454e-06
-6.83063693e-06
-6.66807793e-06
-6.01103372e-06
-5.61835352e-06
-5.3595235e-06
-5.5151795e-06
-5.2517653e-06
-4.57833796e-06
-4.27616522e-06
-4.07048734e-06
-3.9509916e-06
-3.57606549e-06
-3.29503837e-06
-3.09176584e-06
-3.04755958e-06
-2.7787651e-06
-2.52930228e-06
-2.31631018e-06
-2.30752087e-06
-2.12078443e-06
-1.89992619e-06
-1.68067744e-06
-1.68819682e-06
-1.5531466e-06
-1.35697911e-06
-1.17808958e-06
-1.07521313e-06
-9.87568751e-07
-8.29115022e-07
-6.92898866e-07
-5.28743508e-07
-4.33727319e-07
-3.56555582e-07
-2.52889278e-07
-1.15254673e-07
5.7499026e-08
1.52893946e-07
2.40425612e-07
3.32405679e-07
4.38747907e-07
5.5347137e-07
6.8460329e-07
8.52200598e-07
9.69088621e-07
1.08310819e-06
1.20837129e-06
1.21659594e-06
1.31736228e-06
1.44803284e-06
1.52979964e-06
1.61507038e-06
1.59800796e-06
1.64795575e-06
1.73718181e-06
1.8041597e-06
1.86379126e-06
1.81213907e-06
1.84311836e-06
1.9096679e-06
1.97286861e-06
2.03157692e-06
1.97547723e-06
2.01478751e-06
2.08971276e-06
2.17162327e-06
2.25679861e-06
2.219296e-06
2.28024408e-06
2.37489016e-06
2.47958246e-06
2.58608249e-06
2.54461168e-06
2.61251872e-06
2.71341157e-06
2.82305768e-06
2.94071293e-06
2.88791636e-06
2.9420148e-06
3.03488576e-06
)
;

boundaryField
{
    closed
    {
        type            calculated;
        value           nonuniform List<scalar> 0();
    }
    open
    {
        type            calculated;
        value           nonuniform List<scalar> 0();
    }
    sides
    {
        type            empty;
        value           nonuniform List<scalar> 0();
    }
    procBoundary3to2
    {
        type            processor;
        value           uniform 3.03147187e-06;
    }
    procBoundary3to4
    {
        type            processor;
        value           uniform 3.11776797e-06;
    }
}


// ************************************************************************* //
