/*--------------------------------*- C++ -*----------------------------------*\
| =========                 |                                                 |
| \\      /  F ield         | OpenFOAM: The Open Source CFD Toolbox           |
|  \\    /   O peration     | Version:  2306                                  |
|   \\  /    A nd           | Website:  www.openfoam.com                      |
|    \\/     M anipulation  |                                                 |
\*---------------------------------------------------------------------------*/
FoamFile
{
    version     2.0;
    format      ascii;
    arch        "LSB;label=32;scalar=64";
    class       volScalarField;
    location    "0.0008";
    object      prefDPV_T;
}
// * * * * * * * * * * * * * * * * * * * * * * * * * * * * * * * * * * * * * //

dimensions      [1 -1 -1 -1 0 0 0];

internalField   nonuniform List<scalar> 
531
(
6.09624406e-10
6.11590644e-10
5.90794836e-10
5.90202713e-10
5.95461172e-10
6.09644666e-10
6.1174554e-10
5.90496914e-10
5.89929914e-10
5.94680873e-10
6.10113734e-10
6.06963498e-10
5.90872358e-10
5.93729631e-10
6.09911302e-10
6.06104108e-10
5.90698874e-10
5.93825016e-10
6.09566017e-10
6.1219151e-10
5.89861831e-10
5.89699764e-10
5.95221376e-10
6.09695179e-10
6.12302617e-10
5.89565376e-10
5.89293291e-10
5.94017171e-10
6.08691776e-10
6.0863593e-10
6.09750565e-10
6.08724927e-10
6.112402e-10
5.93908651e-10
5.90132767e-10
5.90116059e-10
5.90103289e-10
5.8989537e-10
5.95167485e-10
6.09033843e-10
6.11366145e-10
5.90429537e-10
5.90014018e-10
5.94444106e-10
6.086298e-10
6.0829994e-10
6.12386728e-10
5.9001219e-10
5.89454291e-10
5.94550844e-10
6.09364963e-10
6.10887607e-10
5.90383435e-10
5.92750789e-10
6.08808806e-10
6.1102257e-10
5.90333782e-10
5.89380153e-10
5.89621912e-10
5.91459643e-10
6.08734056e-10
6.08596115e-10
6.1018603e-10
6.08798342e-10
6.12041539e-10
5.89809306e-10
5.89111503e-10
5.89293338e-10
5.92755207e-10
6.08537995e-10
6.09933123e-10
5.91505316e-10
5.89927388e-10
5.9455387e-10
6.08553115e-10
6.09753266e-10
5.90669658e-10
5.9011138e-10
5.95051495e-10
6.08386275e-10
6.09821554e-10
5.90503167e-10
5.89199681e-10
5.92860115e-10
6.0860768e-10
6.09520757e-10
5.90699776e-10
5.89325252e-10
5.93048672e-10
6.08461774e-10
6.09263905e-10
5.91331375e-10
5.89443003e-10
5.92992879e-10
6.0840372e-10
6.09081111e-10
5.91752945e-10
5.8939499e-10
5.92548143e-10
6.08406695e-10
6.08971825e-10
5.92013621e-10
5.89391007e-10
5.92231914e-10
6.08435739e-10
6.0885532e-10
5.93134316e-10
5.89371205e-10
5.9189827e-10
6.08490048e-10
6.09094365e-10
5.92201448e-10
5.89186333e-10
5.90752221e-10
6.09708303e-10
6.08242521e-10
6.1036817e-10
5.90638636e-10
5.89569677e-10
5.89690657e-10
5.91476126e-10
6.08589021e-10
6.0911644e-10
5.94300861e-10
5.89754888e-10
5.91166012e-10
6.09111708e-10
6.09890238e-10
5.89965271e-10
5.90640542e-10
6.08449533e-10
6.09317734e-10
5.91433563e-10
5.89598083e-10
5.9276822e-10
6.0875272e-10
6.09041614e-10
5.90442816e-10
5.89695394e-10
5.93885734e-10
6.088766e-10
6.09709416e-10
5.89900496e-10
5.9008527e-10
6.08887873e-10
6.09365356e-10
5.90367181e-10
5.8976163e-10
5.95534291e-10
6.08480269e-10
6.0897472e-10
5.9075725e-10
5.89479207e-10
5.93668296e-10
6.08586835e-10
6.08858316e-10
5.90606008e-10
5.89502817e-10
5.93760966e-10
6.08560052e-10
6.08741526e-10
5.90748982e-10
5.8971137e-10
5.93995279e-10
6.08608615e-10
6.08563769e-10
5.90863239e-10
5.89882666e-10
5.90177191e-10
5.93828743e-10
6.08614874e-10
6.08522818e-10
5.90073917e-10
5.89907817e-10
6.08646515e-10
6.08867607e-10
5.938442e-10
5.89599202e-10
5.91866974e-10
6.08765237e-10
6.08445058e-10
5.90758073e-10
5.89488111e-10
5.92728044e-10
6.08778972e-10
6.08502126e-10
5.90860015e-10
5.89482104e-10
5.91635268e-10
6.09091511e-10
6.08470511e-10
5.90161374e-10
5.90107413e-10
6.09065868e-10
6.08707094e-10
5.91439202e-10
5.89520168e-10
5.92273795e-10
6.08853516e-10
6.0851668e-10
5.90816059e-10
5.89493914e-10
5.92441345e-10
6.08816575e-10
6.08539795e-10
5.90875537e-10
5.89676048e-10
5.92702778e-10
6.09115639e-10
6.08657218e-10
5.89959936e-10
5.89451461e-10
6.10230693e-10
6.08766924e-10
5.9424714e-10
5.90718326e-10
5.94998676e-10
6.02212414e-10
6.02052586e-10
5.95067558e-10
5.95004168e-10
5.98393763e-10
5.98858766e-10
5.97506318e-10
5.97011311e-10
5.97396771e-10
5.9773914e-10
5.97673046e-10
5.97491145e-10
5.97491565e-10
5.97559118e-10
5.97581167e-10
5.97551677e-10
5.97508418e-10
5.97537247e-10
5.97642033e-10
5.97610164e-10
5.97337595e-10
5.97342012e-10
5.97994061e-10
5.98072855e-10
5.96807343e-10
5.96292283e-10
5.98679056e-10
6.00161149e-10
5.96439089e-10
5.93036616e-10
5.97444451e-10
6.06993317e-10
5.98887456e-10
5.90481677e-10
5.91142217e-10
6.0919321e-10
6.09505616e-10
5.89530288e-10
5.8981715e-10
6.0935068e-10
6.09612073e-10
5.89692307e-10
5.90700645e-10
6.08741437e-10
6.08908231e-10
5.90453177e-10
5.89661983e-10
5.91825162e-10
6.09047978e-10
6.092846e-10
5.898919e-10
5.9054782e-10
6.08773358e-10
6.08956869e-10
5.90191018e-10
5.89620443e-10
5.92975907e-10
6.09139697e-10
6.09445787e-10
5.89715768e-10
5.903941e-10
6.08767918e-10
6.08895673e-10
5.90611291e-10
5.89756242e-10
5.92999675e-10
6.08939788e-10
6.08936686e-10
5.90467713e-10
5.89686603e-10
5.93327825e-10
6.09335186e-10
6.09702816e-10
5.89601469e-10
5.90018623e-10
6.0920141e-10
6.09024794e-10
5.91698183e-10
5.89923036e-10
5.93259525e-10
6.08986531e-10
6.08992128e-10
5.90517481e-10
5.89438787e-10
5.92014398e-10
6.09331547e-10
6.0961134e-10
5.89985252e-10
5.90786274e-10
6.08928187e-10
6.08970227e-10
5.90478217e-10
5.89672076e-10
5.93332983e-10
6.09039588e-10
6.08983733e-10
5.90305754e-10
5.89567337e-10
5.92981242e-10
6.09159841e-10
6.09577661e-10
5.89824269e-10
5.90450218e-10
6.08620874e-10
6.0885866e-10
5.91334784e-10
5.89464972e-10
5.92220409e-10
6.08638435e-10
6.08739367e-10
5.91122113e-10
5.89582425e-10
5.9263041e-10
6.08547791e-10
6.08718356e-10
5.90645392e-10
5.89708825e-10
5.92356403e-10
6.08573418e-10
6.08991205e-10
5.90455323e-10
5.90478635e-10
6.02248678e-10
6.05876328e-10
5.94555142e-10
5.93009009e-10
6.01688251e-10
6.01740432e-10
5.91186303e-10
5.91036132e-10
6.09486799e-10
6.09365627e-10
5.91376265e-10
5.89652627e-10
5.92558347e-10
6.09067534e-10
6.09710659e-10
5.89534793e-10
5.89779703e-10
6.08807717e-10
6.09847119e-10
5.89828012e-10
5.90525544e-10
6.08432646e-10
6.09227659e-10
5.90475544e-10
5.89494734e-10
5.9088672e-10
6.08799664e-10
6.09279907e-10
5.90089013e-10
5.90419856e-10
6.08366235e-10
6.09012702e-10
5.90525051e-10
5.89400253e-10
5.90582419e-10
6.08699555e-10
6.08929262e-10
5.90259656e-10
5.90408159e-10
6.08361491e-10
6.08775648e-10
5.90711201e-10
5.89349318e-10
5.90260165e-10
6.08763783e-10
6.08470161e-10
5.90274907e-10
5.90184502e-10
6.08838897e-10
6.08733956e-10
5.90876855e-10
5.89474876e-10
5.90556971e-10
6.09507513e-10
6.08465613e-10
5.89973534e-10
5.89294166e-10
6.10473812e-10
6.0882059e-10
5.90199811e-10
5.89549273e-10
6.10731746e-10
6.08717839e-10
5.90677922e-10
5.90168437e-10
6.10631828e-10
6.08873187e-10
5.9188013e-10
5.89318515e-10
5.89683203e-10
6.10180289e-10
6.08499702e-10
5.90842881e-10
5.89685049e-10
6.11319004e-10
6.08574567e-10
5.91040515e-10
5.90223683e-10
6.10967816e-10
6.08849331e-10
5.92393401e-10
5.89402552e-10
5.89717118e-10
6.09871581e-10
6.08607495e-10
5.91152816e-10
5.90291481e-10
6.10409798e-10
6.0886385e-10
5.9324124e-10
5.89749285e-10
5.90502756e-10
6.09082919e-10
6.08512671e-10
5.95815617e-10
5.90468843e-10
5.90410802e-10
5.92923234e-10
6.09012336e-10
6.09344693e-10
5.91933012e-10
5.89208846e-10
5.8969689e-10
6.09664684e-10
6.10242541e-10
5.90747966e-10
5.89994309e-10
6.10592767e-10
6.10878542e-10
5.90742277e-10
5.90188045e-10
6.10618795e-10
6.11082479e-10
5.91033441e-10
5.90775519e-10
6.10265015e-10
6.10251635e-10
5.91395384e-10
5.89496963e-10
5.90185626e-10
6.09586241e-10
6.10763404e-10
5.90806286e-10
5.90224772e-10
6.10494819e-10
6.11048877e-10
5.90588552e-10
5.90126645e-10
6.10640994e-10
6.11022137e-10
5.90568799e-10
5.90171151e-10
6.10514307e-10
6.10801031e-10
5.90846138e-10
5.90654711e-10
6.09965417e-10
6.09846838e-10
5.91745644e-10
5.89741461e-10
5.90686698e-10
6.09080162e-10
6.09387861e-10
5.93154573e-10
5.89857337e-10
5.90784371e-10
6.09023829e-10
6.09421508e-10
5.92659613e-10
5.89363487e-10
5.90248327e-10
6.09420482e-10
6.08919776e-10
6.08969946e-10
6.09475626e-10
5.91826621e-10
5.89578203e-10
5.89507994e-10
5.90028634e-10
6.09255484e-10
6.09381215e-10
5.91546467e-10
5.89442671e-10
5.90401751e-10
6.09022413e-10
6.0885983e-10
5.93043818e-10
5.89921864e-10
5.90822451e-10
6.08847297e-10
6.08616369e-10
5.934444e-10
5.89964611e-10
5.90749826e-10
6.08887999e-10
6.08621829e-10
5.93003615e-10
5.89822786e-10
5.90536007e-10
6.09027941e-10
6.08677378e-10
5.92919123e-10
5.89779495e-10
5.90518536e-10
6.09170435e-10
6.08981906e-10
5.92696545e-10
5.88941323e-10
5.89760646e-10
6.10115861e-10
6.0906777e-10
6.09100707e-10
)
;

boundaryField
{
    closed
    {
        type            calculated;
        value           nonuniform List<scalar> 0();
    }
    open
    {
        type            calculated;
        value           nonuniform List<scalar> 0();
    }
    sides
    {
        type            empty;
    }
    procBoundary3to2
    {
        type            processor;
        value           uniform 5.95560406e-10;
    }
    procBoundary3to4
    {
        type            processor;
        value           uniform 6.09292757e-10;
    }
}


// ************************************************************************* //
