/*--------------------------------*- C++ -*----------------------------------*\
| =========                 |                                                 |
| \\      /  F ield         | OpenFOAM: The Open Source CFD Toolbox           |
|  \\    /   O peration     | Version:  2306                                  |
|   \\  /    A nd           | Website:  www.openfoam.com                      |
|    \\/     M anipulation  |                                                 |
\*---------------------------------------------------------------------------*/
FoamFile
{
    version     2.0;
    format      ascii;
    arch        "LSB;label=32;scalar=64";
    class       volScalarField;
    location    "0.0008";
    object      Z;
}
// * * * * * * * * * * * * * * * * * * * * * * * * * * * * * * * * * * * * * //

dimensions      [0 0 0 0 0 0 0];

internalField   nonuniform List<scalar> 
531
(
0.0140911914
0.0141332979
0.0147415553
0.0148117399
0.0145314155
0.014091546
0.0141362099
0.0147632217
0.0148344712
0.0145521506
0.0141010396
0.0142486861
0.0147444727
0.0145887883
0.0140942511
0.0142647501
0.0147481588
0.014591089
0.0140876933
0.0141458492
0.0148152163
0.0148429926
0.0145390127
0.0140923871
0.0141464733
0.0148324504
0.0148619609
0.014571083
0.0140732174
0.0140721962
0.014099652
0.0140749546
0.0141321729
0.0145794944
0.0147998142
0.0147716491
0.0147749287
0.0147905476
0.0145402204
0.0140778101
0.0141299406
0.0147588966
0.0148091836
0.0145594057
0.0140781248
0.014066614
0.0141491371
0.0147857307
0.0148615026
0.0145603846
0.0140876907
0.014182385
0.0147578023
0.0146367099
0.0140752345
0.0141221435
0.0147867576
0.0148340475
0.0148186624
0.0146668474
0.0140740757
0.0140719013
0.0141076577
0.0140789009
0.0141439622
0.0148144159
0.0148701712
0.0148242718
0.0146302412
0.0140669893
0.0141008926
0.0146719969
0.0147976197
0.0145595552
0.0140712394
0.0140948912
0.014737499
0.0147805234
0.0145476547
0.0140689049
0.0140966845
0.0147369566
0.0148450459
0.0146187263
0.014070944
0.0140889611
0.014723335
0.0148325632
0.0146142612
0.014068212
0.014085091
0.0146799497
0.0148232266
0.0146155779
0.0140667976
0.0140814596
0.014661727
0.0148249997
0.0146319248
0.0140664576
0.0140792809
0.0146510625
0.014825934
0.0146441142
0.0140669438
0.0140773999
0.0146086632
0.0148261159
0.0146598242
0.0140677311
0.014083756
0.0146442539
0.0148675392
0.0147076768
0.0140950137
0.0140693296
0.0141072935
0.0147511086
0.0148463427
0.0148115888
0.0146993178
0.0140706505
0.0140876446
0.0145697736
0.0148232628
0.0146914228
0.0140823728
0.0140947985
0.0147809298
0.0147431658
0.014066343
0.0140887843
0.0146741486
0.0148208466
0.0146219269
0.0140748097
0.0140794173
0.0147458515
0.0148079099
0.0145844712
0.0140787581
0.0140905485
0.01478396
0.0147622079
0.0140735031
0.0140867375
0.0147469408
0.0147999439
0.014527629
0.0140705916
0.0140779805
0.0147139119
0.0148137079
0.0145883626
0.0140711602
0.0140748679
0.0147240936
0.0148113607
0.014586013
0.0140710507
0.0140731257
0.0147140819
0.0148023194
0.0145774804
0.0140739549
0.0140689893
0.0147203115
0.0147839934
0.0147676651
0.0145879336
0.014073502
0.0140669488
0.0147666357
0.0147860035
0.0140677586
0.0140783216
0.0145808129
0.0148146007
0.0146557824
0.0140750295
0.0140664281
0.014711581
0.0148158715
0.0146269358
0.014076415
0.0140686457
0.0147022224
0.0148225783
0.0146665616
0.0140824823
0.0140638528
0.0147536308
0.0147640571
0.0140791982
0.0140736057
0.0146712393
0.0148174121
0.0146401008
0.0140778171
0.0140679964
0.0147029544
0.0148147359
0.0146359637
0.0140772599
0.0140689313
0.0147010807
0.0148078575
0.0146270477
0.0140857318
0.0140705592
0.0148024243
0.0148083344
0.0141895596
0.0140748963
0.0145767159
0.0147331381
0.0145446313
0.0143455914
0.0143488987
0.0145418277
0.014542047
0.0144393821
0.0144265905
0.0144634065
0.0144775368
0.0144662275
0.0144565008
0.0144582965
0.0144634101
0.0144633792
0.0144614584
0.0144608307
0.014461662
0.0144628858
0.0144620757
0.0144591246
0.0144600436
0.0144677973
0.0144677451
0.0144494387
0.0144474664
0.0144835685
0.0144999416
0.0144313267
0.0143941132
0.0144957764
0.0146221703
0.014466705
0.0142456741
0.0144273595
0.0147712456
0.0146951457
0.0140857669
0.0140849639
0.0148127236
0.0148117965
0.0140875632
0.0140887874
0.0147925668
0.0147551738
0.0140762716
0.0140785987
0.0147368043
0.0148226693
0.0146661606
0.0140839702
0.0140795433
0.0147728917
0.0147539019
0.0140768379
0.0140782894
0.0147539411
0.0148236764
0.0146218961
0.0140857685
0.0140821053
0.0147805378
0.0147609192
0.0140759713
0.0140759861
0.0147151343
0.014805444
0.0146174925
0.0140826694
0.0140771278
0.0147359935
0.0148156896
0.0146107172
0.0140908715
0.0140880457
0.0147950448
0.0147897467
0.0140816603
0.0140796268
0.0146655775
0.0147968769
0.0146101872
0.0140841135
0.0140788696
0.0147337804
0.0148310051
0.0146605412
0.014088193
0.0140842564
0.0147619937
0.0147404782
0.0140804877
0.0140789495
0.0147286784
0.0148139405
0.0146051341
0.0140843897
0.014078041
0.0147490657
0.0148196697
0.0146231985
0.0140852171
0.0140856149
0.0147704258
0.0147598235
0.0140713187
0.0140754988
0.0146739188
0.0148206435
0.0146424577
0.0140734502
0.0140723204
0.0146852167
0.0148047971
0.0146280717
0.0140716315
0.0140724132
0.0147121074
0.0147961904
0.0146376542
0.0140722636
0.0140772705
0.014739389
0.0147567752
0.0143447128
0.0142676146
0.0145631155
0.0146271361
0.0143580073
0.0143568831
0.0147118861
0.0147111289
0.014083657
0.0140860302
0.0146910643
0.0148287912
0.0146387658
0.0140848543
0.0140920682
0.0148128392
0.0147952273
0.0140758031
0.0140962559
0.0147812844
0.0147512845
0.014068374
0.0140875453
0.014734591
0.0148298522
0.0146970989
0.0140769883
0.0140844409
0.0147648794
0.0147436839
0.0140670963
0.0140822327
0.0147298839
0.0148298051
0.0147180384
0.0140747234
0.01407788
0.0147527553
0.0147445653
0.0140672826
0.01407758
0.0147156888
0.0148339975
0.0147439548
0.0140763592
0.0140686353
0.0147571905
0.0147638731
0.014078268
0.0140778241
0.0147068454
0.0148391897
0.0147357
0.0140936634
0.0140691012
0.0147927138
0.0148191937
0.0141127117
0.0140759799
0.0147730228
0.0148083773
0.0141180939
0.0140753112
0.0147327431
0.0147742997
0.0141165979
0.0140810035
0.0146611253
0.0148477647
0.0147974559
0.0141069464
0.0140688201
0.0147240359
0.014784565
0.0141289437
0.0140711162
0.0147121353
0.0147601333
0.0141212003
0.0140800702
0.0146421992
0.0148368762
0.0147895772
0.0140979364
0.014071834
0.0147014773
0.0147422188
0.0141069957
0.0140798625
0.0146100768
0.0148053286
0.0147290774
0.0140809548
0.0140724643
0.0145219189
0.0147305886
0.0147545375
0.0146193999
0.0140810814
0.0140917827
0.0146619911
0.0148541251
0.0147876393
0.0140927264
0.0141087711
0.014761061
0.0147631093
0.0141090441
0.0141236497
0.0147700281
0.0147523966
0.0141100621
0.0141296747
0.014748026
0.0147156273
0.0141029806
0.0141133762
0.0147021197
0.0148492976
0.0147549832
0.0140921003
0.0141209101
0.0147595043
0.0147529135
0.0141071368
0.0141264351
0.014780922
0.014765718
0.0141102622
0.0141253332
0.0147794317
0.0147620872
0.0141068968
0.0141203909
0.0147548545
0.0147276094
0.0140950572
0.0141016883
0.0146763557
0.0148214321
0.014715342
0.0140807118
0.0140911883
0.014616125
0.0148034676
0.0147141453
0.0140787742
0.0140922842
0.0146334458
0.0148447172
0.0147499341
0.0140858995
0.0140807305
0.0140816344
0.0140903989
0.0146692275
0.0148205937
0.0148202842
0.0147830512
0.014082289
0.0140900358
0.0146765644
0.0148359277
0.0147430595
0.0140795625
0.0140785598
0.0146162814
0.0147915614
0.0147117441
0.0140760651
0.0140734279
0.014599332
0.0147840651
0.0147158966
0.0140769159
0.0140731183
0.0146153236
0.0147952069
0.0147340136
0.0140806366
0.0140745162
0.0146219644
0.014801423
0.0147478768
0.0140841829
0.0140821803
0.0146311721
0.0148699497
0.0147997119
0.0141017478
0.0140833792
0.0140834481
)
;

boundaryField
{
    closed
    {
        type            zeroGradient;
    }
    open
    {
        type            zeroGradient;
    }
    sides
    {
        type            empty;
    }
    procBoundary3to2
    {
        type            processor;
        value           uniform 0.0145277603;
    }
    procBoundary3to4
    {
        type            processor;
        value           uniform 0.0140860747;
    }
}


// ************************************************************************* //
