/*--------------------------------*- C++ -*----------------------------------*\
| =========                 |                                                 |
| \\      /  F ield         | OpenFOAM: The Open Source CFD Toolbox           |
|  \\    /   O peration     | Version:  2306                                  |
|   \\  /    A nd           | Website:  www.openfoam.com                      |
|    \\/     M anipulation  |                                                 |
\*---------------------------------------------------------------------------*/
FoamFile
{
    version     2.0;
    format      ascii;
    arch        "LSB;label=32;scalar=64";
    class       volScalarField;
    location    "0.0002";
    object      prefDPV_T;
}
// * * * * * * * * * * * * * * * * * * * * * * * * * * * * * * * * * * * * * //

dimensions      [1 -1 -1 -1 0 0 0];

internalField   nonuniform List<scalar> 
3810
(
5.90916999e-10
6.08680619e-10
6.09468545e-10
5.8988623e-10
5.90686418e-10
6.08677684e-10
6.09488384e-10
5.89725404e-10
5.90694351e-10
6.08820353e-10
6.09299302e-10
5.89217003e-10
5.91737965e-10
6.09369868e-10
6.08435289e-10
6.09853847e-10
5.89160782e-10
5.89118957e-10
5.89998451e-10
5.90914137e-10
6.08458623e-10
6.08391681e-10
6.09111743e-10
6.08718801e-10
6.09769577e-10
5.88743011e-10
5.88882363e-10
5.90021257e-10
5.89949967e-10
5.95584807e-10
6.08632427e-10
6.08764505e-10
5.90303817e-10
5.91079197e-10
6.08624079e-10
6.0882189e-10
5.89886319e-10
5.91480971e-10
6.08891079e-10
6.0867924e-10
6.0913455e-10
6.09363892e-10
6.09362535e-10
6.10012788e-10
5.87531492e-10
5.87614981e-10
5.89160879e-10
5.8872262e-10
5.90697897e-10
6.09037772e-10
6.09158629e-10
5.89315811e-10
5.89406647e-10
5.90352884e-10
5.90023364e-10
5.94096779e-10
6.08569221e-10
6.08529258e-10
5.89993379e-10
5.90037646e-10
5.91939357e-10
6.08569048e-10
6.08613239e-10
5.89916444e-10
5.90053501e-10
5.91630642e-10
6.08523824e-10
6.08455957e-10
5.90046992e-10
5.90981079e-10
6.08535781e-10
6.08690932e-10
5.89719064e-10
5.89946378e-10
5.90979589e-10
6.08533399e-10
6.08361436e-10
5.90076477e-10
5.9072092e-10
6.08519538e-10
6.08438462e-10
5.89740291e-10
5.90970458e-10
6.08928204e-10
6.08598392e-10
6.09135478e-10
6.0908118e-10
6.09317361e-10
6.09469631e-10
5.87765629e-10
5.87795152e-10
5.89304315e-10
5.88877962e-10
5.90515488e-10
6.08892389e-10
6.08542873e-10
5.89449442e-10
5.90529e-10
6.08856138e-10
6.08716291e-10
5.89323249e-10
5.89344145e-10
5.9054647e-10
6.08815424e-10
6.08736509e-10
5.89500014e-10
5.892171e-10
5.91211564e-10
6.08994621e-10
6.08388185e-10
6.08935308e-10
5.89699225e-10
5.90046232e-10
6.09061405e-10
6.08732428e-10
6.09354931e-10
5.8930502e-10
5.87951911e-10
5.90256219e-10
6.09449495e-10
6.08881467e-10
6.09471192e-10
6.09225398e-10
5.87788356e-10
5.87675717e-10
5.89132847e-10
6.0929967e-10
6.08867852e-10
5.88661946e-10
5.89538322e-10
5.88916953e-10
5.91059939e-10
6.09023326e-10
6.0838899e-10
6.08880202e-10
5.89640208e-10
5.89923129e-10
6.08708515e-10
6.08813359e-10
6.08711171e-10
5.890798e-10
5.89930674e-10
6.08782519e-10
5.89929624e-10
5.89747018e-10
5.90217017e-10
5.90643006e-10
6.08837428e-10
6.08552103e-10
6.090299e-10
6.08806156e-10
6.09175305e-10
6.09069489e-10
6.09208491e-10
5.88517234e-10
5.88405984e-10
5.88624228e-10
5.8985442e-10
6.09309755e-10
6.08926564e-10
6.09370068e-10
6.09150576e-10
5.88217723e-10
5.87900673e-10
5.89366472e-10
6.09197913e-10
6.09004604e-10
5.88922216e-10
5.89080316e-10
5.90044169e-10
5.89587951e-10
5.94271532e-10
6.09034655e-10
6.07989487e-10
6.09129163e-10
6.0820156e-10
5.88893666e-10
5.90183017e-10
6.09114051e-10
6.08721308e-10
6.09049445e-10
5.89318923e-10
5.89202937e-10
5.89327483e-10
5.90242338e-10
6.09096707e-10
6.08801826e-10
6.09274289e-10
6.09057123e-10
6.09429437e-10
6.09307677e-10
5.87688326e-10
5.87666637e-10
5.88863449e-10
5.88770199e-10
5.90167278e-10
5.89596204e-10
5.91704924e-10
6.08872187e-10
6.08194791e-10
6.08919717e-10
6.08605849e-10
5.89542315e-10
5.89585077e-10
5.89748216e-10
5.90342839e-10
6.0870977e-10
6.08708429e-10
5.89864509e-10
5.89821501e-10
5.90471145e-10
6.08692031e-10
6.08606147e-10
6.08943826e-10
6.08924005e-10
6.09103198e-10
6.09479291e-10
5.88691581e-10
5.88684717e-10
5.88893649e-10
5.89913946e-10
6.09105806e-10
6.08955821e-10
6.09132008e-10
6.09607663e-10
5.88743313e-10
5.88836418e-10
5.89893238e-10
5.89321169e-10
5.91123528e-10
6.08968407e-10
6.08444276e-10
6.09245198e-10
6.08738555e-10
6.09954016e-10
5.89149155e-10
5.90197498e-10
6.09305906e-10
6.08876491e-10
6.10116193e-10
5.89035239e-10
5.89003911e-10
5.89421927e-10
5.90534419e-10
6.08847583e-10
6.09801638e-10
5.89525524e-10
5.89716419e-10
5.90917003e-10
6.08852338e-10
6.09819402e-10
5.89695174e-10
5.91044471e-10
6.08754014e-10
6.09905471e-10
5.89456148e-10
5.89677026e-10
5.90991415e-10
6.08848862e-10
6.09981169e-10
5.89608067e-10
5.91076881e-10
6.08758632e-10
6.1002761e-10
5.8928488e-10
5.89555423e-10
5.9102347e-10
6.08965407e-10
6.09916751e-10
5.89420182e-10
5.91310383e-10
6.09062715e-10
6.08443924e-10
6.10628011e-10
5.89454732e-10
5.90534084e-10
6.09293196e-10
6.0874216e-10
6.10685846e-10
5.89007957e-10
5.89035209e-10
5.89397745e-10
5.91385943e-10
6.09036026e-10
6.0835345e-10
6.10712814e-10
5.8974963e-10
5.90128391e-10
6.08731124e-10
6.10496486e-10
5.89591462e-10
5.90278163e-10
6.08813513e-10
6.10241379e-10
5.8950265e-10
5.8961852e-10
5.90142608e-10
5.91768833e-10
6.08757789e-10
6.09487203e-10
5.89761523e-10
5.93251428e-10
6.09348115e-10
6.08353894e-10
6.10260349e-10
5.89995926e-10
5.90327616e-10
6.09033186e-10
6.08998413e-10
6.10031372e-10
6.09386677e-10
6.10757206e-10
5.8732643e-10
5.87431233e-10
5.88886724e-10
5.89125373e-10
5.90092037e-10
5.89841619e-10
5.92287096e-10
6.0889085e-10
6.08995129e-10
5.89717815e-10
5.89715428e-10
5.91117059e-10
6.08483784e-10
6.09754993e-10
5.90791355e-10
6.09599515e-10
6.09295254e-10
5.89247513e-10
5.8952333e-10
5.90021561e-10
5.92020155e-10
6.08939609e-10
6.08380156e-10
6.09522251e-10
6.08779471e-10
6.09870183e-10
5.89222966e-10
5.90047118e-10
6.09583748e-10
6.09136662e-10
6.1000374e-10
5.88219115e-10
5.87862825e-10
5.90492383e-10
6.09399363e-10
6.09184652e-10
5.88851641e-10
5.89983216e-10
6.09366865e-10
6.09204316e-10
5.88589736e-10
5.90608743e-10
6.09770962e-10
6.09010798e-10
6.1004297e-10
5.87977395e-10
5.87808788e-10
5.8932978e-10
5.89882554e-10
5.89821825e-10
5.94263802e-10
6.09038226e-10
6.08248981e-10
6.09302796e-10
5.90280915e-10
5.90823584e-10
6.0909477e-10
6.08625061e-10
6.09580747e-10
6.08959467e-10
6.10002082e-10
5.8882622e-10
5.89717156e-10
6.09579528e-10
6.09161227e-10
6.09968969e-10
5.88120908e-10
5.88097886e-10
5.89851876e-10
5.89349524e-10
5.92770777e-10
6.08787137e-10
6.08773289e-10
6.09022301e-10
6.09618892e-10
5.88728577e-10
5.88825509e-10
5.90151588e-10
5.89992167e-10
5.94157284e-10
6.08709861e-10
6.08661096e-10
5.90333147e-10
5.91924498e-10
6.08725559e-10
6.08378339e-10
6.09331835e-10
6.08796135e-10
6.09960487e-10
5.88902925e-10
5.88853077e-10
5.89766713e-10
5.90973211e-10
6.08800941e-10
6.09159662e-10
5.89586783e-10
5.90692561e-10
6.08850753e-10
6.09287794e-10
5.8892147e-10
5.89066764e-10
5.90985198e-10
6.0891898e-10
6.08890559e-10
6.0929135e-10
6.09780413e-10
6.09629312e-10
6.10742254e-10
5.86733482e-10
5.8675896e-10
5.88762389e-10
5.88885588e-10
5.89883103e-10
5.90214182e-10
5.90541396e-10
6.00623371e-10
6.0855859e-10
6.09025338e-10
6.08795187e-10
6.09657982e-10
6.08977106e-10
6.10499594e-10
5.89101086e-10
5.89124282e-10
5.90016826e-10
5.92469021e-10
6.08906587e-10
6.0906434e-10
6.09035321e-10
6.10326154e-10
5.89238176e-10
5.89183034e-10
5.90073811e-10
5.91578782e-10
6.09021494e-10
6.09595435e-10
5.89390651e-10
5.91711394e-10
6.09690527e-10
6.08860448e-10
6.10769661e-10
5.87853429e-10
5.87832504e-10
5.89267373e-10
5.89706473e-10
5.89805819e-10
5.92953663e-10
6.08979832e-10
6.09089922e-10
6.09025178e-10
6.10503943e-10
5.89591103e-10
5.90860617e-10
6.09152722e-10
6.09596062e-10
6.09292965e-10
6.10977249e-10
5.88941435e-10
5.90454274e-10
6.09622269e-10
6.09132839e-10
6.11092043e-10
5.88077749e-10
5.88219279e-10
5.89798688e-10
5.89570681e-10
5.92693671e-10
6.09058102e-10
6.09900654e-10
5.89800675e-10
5.91115371e-10
6.08949194e-10
6.10002164e-10
5.89595265e-10
5.91670269e-10
6.09226469e-10
6.09229472e-10
6.09521682e-10
6.10426845e-10
6.09736341e-10
6.11823805e-10
5.87003668e-10
5.87200099e-10
5.89253289e-10
5.89396008e-10
5.91616688e-10
6.08860749e-10
6.08645166e-10
6.09711386e-10
6.09216853e-10
6.10674813e-10
6.09646652e-10
6.11762437e-10
5.86786302e-10
5.86964299e-10
5.89164041e-10
5.88865311e-10
5.91895254e-10
6.09451834e-10
6.09823013e-10
5.88758662e-10
5.88834258e-10
5.91377582e-10
6.09255146e-10
6.10035089e-10
5.89096132e-10
5.8924425e-10
5.90407938e-10
5.90509011e-10
5.95126745e-10
6.08589924e-10
6.08400997e-10
6.09427574e-10
6.08886732e-10
6.1023143e-10
5.88429782e-10
5.88458829e-10
5.91589569e-10
6.09254763e-10
6.09508732e-10
5.89156541e-10
5.89302228e-10
5.92043134e-10
6.0892909e-10
6.08392246e-10
6.09750332e-10
6.08813264e-10
6.10472415e-10
5.8890698e-10
5.90342692e-10
6.09809615e-10
6.08891731e-10
6.10434305e-10
5.88979732e-10
5.90224544e-10
6.0976917e-10
6.09054431e-10
6.10353019e-10
5.88093557e-10
5.88082122e-10
5.89896051e-10
5.90229597e-10
5.90614057e-10
5.94376651e-10
6.08414433e-10
6.09047764e-10
5.90458148e-10
5.91483277e-10
6.08573848e-10
6.09132356e-10
5.89526431e-10
5.89661774e-10
5.93805176e-10
6.08800272e-10
6.09122361e-10
5.89727035e-10
5.89819281e-10
5.94339127e-10
6.08726602e-10
6.08255321e-10
6.09575638e-10
6.08644727e-10
6.10376926e-10
5.89301872e-10
5.90513609e-10
6.09671709e-10
6.08898916e-10
6.1040644e-10
5.88272426e-10
5.88330464e-10
5.89982862e-10
5.89771076e-10
5.9438773e-10
6.08806521e-10
6.09345703e-10
5.89585202e-10
5.89676166e-10
5.9347727e-10
6.08758781e-10
6.09441303e-10
5.90146793e-10
5.9104261e-10
6.08581404e-10
6.09794925e-10
5.899676e-10
5.9081884e-10
6.08608965e-10
6.09980992e-10
5.89638178e-10
5.90852052e-10
6.08846272e-10
6.09911252e-10
5.88617756e-10
5.88856265e-10
5.91386034e-10
6.09161307e-10
6.10003911e-10
5.89063531e-10
5.89126617e-10
5.90285206e-10
5.9011802e-10
5.95898708e-10
6.08627114e-10
6.09580702e-10
5.89553399e-10
5.89703164e-10
5.93536537e-10
6.08775555e-10
6.09554919e-10
5.8997214e-10
5.91589113e-10
6.08809676e-10
6.084697e-10
6.09913844e-10
5.88889819e-10
5.88949567e-10
5.92186759e-10
6.08944258e-10
6.09838209e-10
5.89658692e-10
5.90882552e-10
6.0868189e-10
6.10045985e-10
5.89690208e-10
5.89851055e-10
5.90606279e-10
5.97349214e-10
6.08437019e-10
6.09058479e-10
6.08630088e-10
6.10394246e-10
5.89834075e-10
5.91032734e-10
6.08943839e-10
6.08674745e-10
6.09960034e-10
6.09115576e-10
6.11305894e-10
5.878489e-10
5.88004388e-10
5.89644338e-10
5.89357274e-10
5.92979335e-10
6.08968508e-10
6.09915791e-10
5.89334246e-10
5.89514049e-10
5.9219445e-10
6.0890355e-10
6.10063381e-10
5.89818014e-10
5.90966664e-10
6.08746938e-10
6.10388088e-10
5.89756499e-10
5.9063794e-10
6.08772858e-10
6.10521806e-10
5.89514734e-10
5.89635566e-10
5.90019529e-10
5.94448014e-10
6.08982184e-10
6.08500958e-10
6.10309441e-10
5.88848983e-10
5.88654785e-10
5.9150014e-10
6.09242363e-10
6.10584291e-10
5.89041744e-10
5.89215852e-10
5.90098533e-10
5.90407988e-10
5.90778252e-10
6.02634799e-10
6.08557642e-10
6.0927319e-10
6.0886867e-10
6.10074159e-10
6.09057585e-10
6.11508345e-10
5.89133775e-10
5.90459381e-10
6.09273586e-10
6.09090711e-10
6.10454343e-10
6.09481082e-10
6.1197126e-10
5.8725385e-10
5.87411845e-10
5.8912149e-10
5.89448741e-10
5.90298254e-10
5.90390523e-10
5.94284526e-10
6.08572001e-10
6.0839965e-10
6.09514076e-10
6.08917011e-10
6.10773612e-10
5.88165517e-10
5.8834818e-10
5.91111537e-10
6.09277597e-10
6.10531099e-10
5.8933359e-10
5.89549122e-10
5.90077684e-10
5.92911941e-10
6.08730306e-10
6.09698351e-10
5.89497237e-10
5.89670855e-10
5.94151801e-10
6.0896067e-10
6.09284566e-10
6.08964621e-10
6.10776045e-10
5.89346095e-10
5.89980009e-10
6.08905892e-10
6.10399741e-10
5.89246426e-10
5.8937864e-10
5.89965717e-10
5.94053143e-10
6.08874307e-10
6.09049981e-10
6.09107176e-10
6.10086565e-10
5.88283794e-10
5.88444322e-10
5.91039454e-10
6.09251067e-10
6.09547149e-10
5.89333354e-10
5.90401127e-10
6.08862206e-10
6.09781785e-10
5.89551417e-10
5.89667582e-10
5.90268203e-10
5.95342371e-10
6.08730426e-10
6.08862938e-10
6.08980762e-10
6.09671774e-10
5.88639531e-10
5.88616467e-10
5.91273829e-10
6.09261385e-10
6.08475141e-10
6.09631953e-10
5.89547822e-10
5.90287959e-10
6.09426078e-10
6.0893629e-10
6.0982872e-10
5.88209574e-10
5.88158285e-10
5.89833613e-10
5.89388493e-10
5.95555603e-10
6.0905624e-10
6.08295899e-10
6.09150501e-10
5.89871941e-10
5.89683285e-10
6.08711979e-10
6.09183959e-10
5.89624629e-10
5.89676299e-10
6.08814547e-10
6.09215778e-10
5.89361931e-10
5.89445836e-10
5.89663474e-10
5.94018923e-10
6.09063725e-10
6.08267285e-10
6.0906796e-10
5.89994428e-10
5.8971298e-10
6.08906723e-10
6.09272577e-10
6.09188831e-10
6.09465992e-10
5.88320346e-10
5.88215607e-10
5.89096563e-10
5.90616374e-10
6.09308205e-10
6.08696578e-10
6.09365119e-10
5.89024866e-10
5.88362904e-10
5.90328347e-10
6.0917568e-10
6.0849155e-10
5.8961749e-10
5.89716487e-10
5.90272911e-10
5.91505449e-10
6.08661118e-10
6.07957281e-10
5.90260431e-10
5.90905012e-10
6.0876131e-10
6.08472711e-10
6.0882395e-10
6.08697479e-10
5.89463551e-10
5.89397182e-10
5.89917987e-10
5.91064857e-10
6.08872214e-10
6.08388584e-10
6.08845128e-10
6.08607909e-10
5.89468335e-10
5.89520942e-10
6.08938041e-10
6.08997766e-10
5.89257274e-10
5.88941789e-10
5.90243684e-10
6.09269394e-10
6.08342105e-10
5.89486963e-10
5.90120684e-10
6.09037785e-10
6.08761487e-10
5.89389071e-10
5.89084499e-10
5.90127754e-10
6.09234049e-10
6.08410605e-10
5.89469057e-10
5.89704915e-10
6.091515e-10
6.08611456e-10
5.89326264e-10
5.89313633e-10
6.09151047e-10
6.08847144e-10
5.89213969e-10
5.89039795e-10
5.89717242e-10
5.90228114e-10
5.90210523e-10
5.94065969e-10
6.08816836e-10
6.08136191e-10
6.08741641e-10
6.08435674e-10
5.89792293e-10
5.89514406e-10
6.09290318e-10
6.08959328e-10
5.89641503e-10
5.88870752e-10
5.89945254e-10
6.09517223e-10
6.08771704e-10
6.09290187e-10
6.08888288e-10
6.09151826e-10
5.89316512e-10
5.88688504e-10
5.89098074e-10
5.89511143e-10
6.09461192e-10
6.08866848e-10
6.09249859e-10
6.08882626e-10
6.09055708e-10
5.89170756e-10
5.87857093e-10
5.89292739e-10
6.09604734e-10
6.08746354e-10
5.89216971e-10
5.89496315e-10
6.09169735e-10
6.08778821e-10
5.8953907e-10
5.89569752e-10
6.09096426e-10
6.08994617e-10
5.89860759e-10
5.89126139e-10
5.89788569e-10
6.09159949e-10
6.08506898e-10
5.90020406e-10
5.89976603e-10
6.08866787e-10
6.08574533e-10
5.89970134e-10
5.89933369e-10
6.09146578e-10
6.08721737e-10
6.09220558e-10
6.08788843e-10
6.09332488e-10
5.8913548e-10
5.87687797e-10
5.88942282e-10
6.09319293e-10
6.09207082e-10
5.89017511e-10
5.89169213e-10
6.09001691e-10
6.09059539e-10
5.89779955e-10
5.895768e-10
5.89388651e-10
5.90037611e-10
6.09156108e-10
6.08734381e-10
6.09303736e-10
6.0878181e-10
6.09530825e-10
5.89429384e-10
5.88780276e-10
6.08850344e-10
6.09499231e-10
5.89293493e-10
5.88914464e-10
5.89262052e-10
5.89590447e-10
6.08849091e-10
6.09561472e-10
5.89891234e-10
5.90079844e-10
6.0874567e-10
6.09488245e-10
5.89628391e-10
5.89913261e-10
6.08731835e-10
6.09087812e-10
5.89707904e-10
5.89703814e-10
5.89680809e-10
5.90380545e-10
6.08660995e-10
6.09150089e-10
5.89871622e-10
5.90762444e-10
6.08830682e-10
6.08518135e-10
6.09189976e-10
5.8990649e-10
5.89716994e-10
6.08956753e-10
6.08603014e-10
6.09369032e-10
5.89589345e-10
5.88801071e-10
5.89980221e-10
5.8904274e-10
5.90693982e-10
6.09048893e-10
6.08306774e-10
6.09273411e-10
6.08510704e-10
6.09455617e-10
6.08695013e-10
6.09538147e-10
5.88958941e-10
5.88085845e-10
5.88729158e-10
5.88956452e-10
6.08735661e-10
6.08877668e-10
5.89904206e-10
5.89905733e-10
5.89874741e-10
5.90426362e-10
6.08615681e-10
6.08460382e-10
6.08656263e-10
6.08533746e-10
5.89771167e-10
5.89512615e-10
6.08637983e-10
6.08616456e-10
5.89745279e-10
5.89757705e-10
5.89563834e-10
5.90227817e-10
6.08780532e-10
6.08538234e-10
6.08761961e-10
6.08640987e-10
5.8962778e-10
5.89363462e-10
5.897668e-10
5.90190819e-10
5.90100516e-10
5.90968995e-10
6.08289227e-10
6.0837916e-10
5.90739074e-10
5.9021434e-10
5.90867756e-10
6.08761869e-10
6.08142784e-10
6.08798848e-10
6.08374113e-10
5.89802219e-10
5.89428824e-10
6.08909249e-10
6.08717259e-10
5.89409551e-10
5.89408535e-10
6.0903766e-10
6.08850067e-10
5.8882126e-10
5.89497227e-10
6.09169685e-10
6.09013221e-10
6.0924574e-10
5.89021992e-10
5.88195843e-10
5.89006058e-10
5.89285313e-10
5.89323447e-10
5.89995438e-10
6.09074522e-10
6.08614452e-10
6.09135084e-10
6.08649885e-10
6.09132378e-10
6.08742296e-10
5.88828253e-10
5.89490174e-10
6.09058943e-10
6.08805129e-10
6.09032551e-10
5.89557835e-10
5.89284082e-10
5.89388248e-10
5.90103929e-10
6.08885633e-10
6.08770661e-10
6.08871387e-10
6.08971514e-10
5.89255759e-10
5.88882314e-10
5.89712141e-10
6.08929245e-10
6.08651984e-10
5.89466504e-10
5.89712832e-10
6.08708757e-10
6.08670733e-10
5.89878452e-10
5.89864394e-10
5.90117194e-10
5.90420774e-10
6.08466605e-10
6.08409976e-10
5.90206053e-10
5.90310559e-10
6.08440595e-10
6.08518637e-10
5.89997371e-10
5.90051429e-10
6.0847682e-10
6.08652456e-10
5.89721232e-10
5.89832152e-10
6.08536251e-10
6.08755999e-10
5.89476173e-10
5.89692601e-10
6.08594563e-10
6.08805736e-10
5.89294321e-10
5.89767195e-10
6.08642992e-10
6.08857648e-10
5.89109884e-10
5.89299658e-10
5.90064294e-10
5.89892916e-10
5.91537739e-10
6.08476973e-10
6.0805909e-10
5.90288063e-10
5.9079028e-10
6.08414571e-10
6.08415405e-10
5.89915364e-10
5.89999862e-10
5.90971239e-10
6.08682414e-10
6.08306175e-10
6.08988166e-10
6.08683721e-10
6.09247386e-10
5.88666288e-10
5.88591855e-10
5.89665912e-10
5.89241114e-10
5.90751403e-10
6.08764196e-10
6.0866315e-10
5.89401319e-10
5.89486977e-10
5.90767606e-10
6.08813354e-10
6.083947e-10
6.09167596e-10
6.08677208e-10
6.09395027e-10
5.89329382e-10
5.90385367e-10
6.09357063e-10
6.08786231e-10
6.09723727e-10
5.89053227e-10
5.88914093e-10
5.89821742e-10
5.90627742e-10
6.08753769e-10
6.09243642e-10
5.89983345e-10
5.90441381e-10
6.08703986e-10
6.09567976e-10
5.89730566e-10
5.89773793e-10
5.90132683e-10
5.91438115e-10
6.08784418e-10
6.09210044e-10
5.89539126e-10
5.91567552e-10
6.09500292e-10
6.08587764e-10
6.1017822e-10
5.8860946e-10
5.88594704e-10
5.895856e-10
5.89926625e-10
5.89884999e-10
5.93283058e-10
6.08749199e-10
6.08911969e-10
6.08865957e-10
6.10077502e-10
5.89078489e-10
5.89237662e-10
5.9185564e-10
6.08929199e-10
6.09813938e-10
5.89601382e-10
5.89775448e-10
5.92775983e-10
6.08787706e-10
6.09865965e-10
5.90180706e-10
5.93201763e-10
6.08872988e-10
6.0822011e-10
6.10494831e-10
5.90428517e-10
5.91547289e-10
6.08713883e-10
6.0856051e-10
6.09514109e-10
6.09070197e-10
6.1058851e-10
6.09451744e-10
6.12133033e-10
5.87229241e-10
5.87384453e-10
5.88571907e-10
5.88755772e-10
5.89394655e-10
5.89579543e-10
5.90264782e-10
5.90341474e-10
5.98769051e-10
6.08658978e-10
6.0897888e-10
6.08925558e-10
6.10123862e-10
6.09132197e-10
6.11826044e-10
5.88765647e-10
5.88885275e-10
5.89669189e-10
5.92748919e-10
6.09153567e-10
6.09539418e-10
6.09379492e-10
6.1152259e-10
5.88057397e-10
5.88268233e-10
5.91499983e-10
6.09428441e-10
6.08781604e-10
6.11632924e-10
5.88475941e-10
5.88521507e-10
5.89562928e-10
5.91816727e-10
6.08786636e-10
6.08688826e-10
6.10242654e-10
6.09226126e-10
6.12120848e-10
5.87777139e-10
5.87979532e-10
5.89405983e-10
5.89270651e-10
5.92121925e-10
6.09114614e-10
6.10803678e-10
5.89373243e-10
5.89555889e-10
5.90547292e-10
5.90531819e-10
5.94952461e-10
6.08550611e-10
6.10207316e-10
5.90529376e-10
5.94024622e-10
6.08644715e-10
6.0878669e-10
6.08934483e-10
6.09842115e-10
6.09173473e-10
6.1130986e-10
5.88252104e-10
5.88494097e-10
5.92668565e-10
6.09483045e-10
6.09595879e-10
6.09432741e-10
6.11540993e-10
5.88677533e-10
5.88740617e-10
5.89924373e-10
5.91436782e-10
6.08818888e-10
6.10403086e-10
5.89930372e-10
5.90875737e-10
6.08738058e-10
6.10478811e-10
5.89860303e-10
5.90877853e-10
6.08870086e-10
6.10222204e-10
5.89430839e-10
5.91824282e-10
6.09657676e-10
6.086379e-10
6.10744496e-10
5.88832356e-10
5.88821117e-10
5.89876133e-10
5.91384188e-10
6.08875961e-10
6.096163e-10
5.89119345e-10
5.89244771e-10
5.92039466e-10
6.08944996e-10
6.09531452e-10
5.89422004e-10
5.89541951e-10
5.91928102e-10
6.08610711e-10
6.08403079e-10
6.09548993e-10
5.89172235e-10
5.89266066e-10
5.91864164e-10
6.0886236e-10
6.09370213e-10
5.89856382e-10
5.90635126e-10
6.08597734e-10
6.0963023e-10
5.89895134e-10
5.90488845e-10
6.08535481e-10
6.09723671e-10
5.89774803e-10
5.90390266e-10
6.08551993e-10
6.09754757e-10
5.89609402e-10
5.90324856e-10
6.0862471e-10
6.09663384e-10
5.89441591e-10
5.90795815e-10
6.08896649e-10
6.09309569e-10
6.0910947e-10
6.10297224e-10
5.8808982e-10
5.88294277e-10
5.89621134e-10
5.89457952e-10
5.9204993e-10
6.08965948e-10
6.09060572e-10
5.89655349e-10
5.91811457e-10
6.09148462e-10
6.08403794e-10
6.09947394e-10
5.89411175e-10
5.89405847e-10
5.90344939e-10
5.91433712e-10
6.08502786e-10
6.09404704e-10
5.90234923e-10
5.90826151e-10
6.08474185e-10
6.09640926e-10
5.90027513e-10
5.90979599e-10
6.08653239e-10
6.09669379e-10
5.89123956e-10
5.89418163e-10
5.9186248e-10
6.09045649e-10
6.09402026e-10
5.89588131e-10
5.91260725e-10
6.09171792e-10
6.08509211e-10
6.10323113e-10
5.89093415e-10
5.89078665e-10
5.89982293e-10
5.91205261e-10
6.08696905e-10
6.09695552e-10
5.89785854e-10
5.91055648e-10
6.08840415e-10
6.09409945e-10
6.0900392e-10
6.10849487e-10
5.88842212e-10
5.88901757e-10
5.89394698e-10
5.93374757e-10
6.09352411e-10
6.08447442e-10
6.10485039e-10
5.89195012e-10
5.89207535e-10
5.90176183e-10
5.91821197e-10
6.08613716e-10
6.09780973e-10
5.90001207e-10
5.91701815e-10
6.08814358e-10
6.09394188e-10
6.09034806e-10
6.10892945e-10
5.88455384e-10
5.88642468e-10
5.89637414e-10
5.89844272e-10
5.90472231e-10
5.90327593e-10
5.96234306e-10
6.08644638e-10
6.09246884e-10
6.087258e-10
6.10736284e-10
5.89775751e-10
5.90856369e-10
6.08850397e-10
6.10154752e-10
5.88960587e-10
5.89247596e-10
5.91769408e-10
6.09156945e-10
6.09957925e-10
5.89660686e-10
5.90950585e-10
6.09004219e-10
6.10065682e-10
5.89340774e-10
5.91312642e-10
6.09465888e-10
6.08636782e-10
6.10657538e-10
5.88802312e-10
5.88854187e-10
5.89718294e-10
5.91488379e-10
6.08836925e-10
6.09742442e-10
5.89339471e-10
5.89508752e-10
5.9252269e-10
6.0870525e-10
6.08654638e-10
6.09064975e-10
6.09509384e-10
6.09411692e-10
6.10441105e-10
6.0969666e-10
6.11432648e-10
5.86742873e-10
5.86849624e-10
5.88341438e-10
5.8861649e-10
5.89259094e-10
5.89465274e-10
5.90181526e-10
5.89963441e-10
5.93858205e-10
6.08725466e-10
6.08541698e-10
6.08904614e-10
6.09283696e-10
6.09041802e-10
6.0997457e-10
5.88714647e-10
5.88848206e-10
5.91419728e-10
6.08881007e-10
6.08638317e-10
6.09104922e-10
6.09296661e-10
6.09306047e-10
6.09932639e-10
6.09470175e-10
6.10486612e-10
5.87728062e-10
5.87845772e-10
5.8941939e-10
5.89030917e-10
5.91000098e-10
6.09100701e-10
6.09333816e-10
5.89151768e-10
5.8925424e-10
5.90248134e-10
5.89980948e-10
5.9430297e-10
6.08678338e-10
6.0853903e-10
6.08767834e-10
6.09221692e-10
5.89781544e-10
5.9021242e-10
6.08868338e-10
6.08925673e-10
5.89377644e-10
5.90955528e-10
6.09252229e-10
6.08598395e-10
6.09527148e-10
5.88777973e-10
5.88733529e-10
5.89674961e-10
5.89748331e-10
5.90516298e-10
5.90274347e-10
5.93417802e-10
6.08466426e-10
6.08288461e-10
5.90141005e-10
5.9091363e-10
6.08586128e-10
6.08564906e-10
6.08758947e-10
6.09047077e-10
5.89283772e-10
5.89273456e-10
5.89823679e-10
5.90554904e-10
6.08561803e-10
6.08584072e-10
5.8988177e-10
5.90024906e-10
6.08226832e-10
6.09212325e-10
5.90284636e-10
6.09311746e-10
6.08093213e-10
5.88305742e-10
5.90580999e-10
6.0952286e-10
5.90002907e-10
5.8847994e-10
5.90354315e-10
6.09144444e-10
6.08222712e-10
5.89506691e-10
5.89860437e-10
5.89939939e-10
5.90571236e-10
6.08782127e-10
6.08201551e-10
6.08851581e-10
5.89959714e-10
5.89318738e-10
5.9041189e-10
6.08837045e-10
6.08025676e-10
5.89867381e-10
5.90184195e-10
5.90191974e-10
5.91479177e-10
6.08549232e-10
6.07702807e-10
5.89932204e-10
5.91668379e-10
6.0849145e-10
6.08066297e-10
6.08403332e-10
5.90455174e-10
5.89799602e-10
6.08674164e-10
6.08324451e-10
5.89977479e-10
5.90280817e-10
6.09019767e-10
6.08672249e-10
6.09232356e-10
6.08969328e-10
6.09406085e-10
6.09234472e-10
6.09537241e-10
5.87843561e-10
5.87050424e-10
5.88324204e-10
5.88369277e-10
5.89272301e-10
5.8921186e-10
5.89835836e-10
5.89122472e-10
5.897238e-10
6.09495097e-10
6.08801064e-10
6.09386835e-10
6.0881751e-10
6.09201484e-10
6.08777357e-10
5.89545201e-10
5.89320451e-10
5.89751735e-10
5.90612203e-10
6.08952939e-10
6.08367e-10
6.08812398e-10
6.08468637e-10
6.08691944e-10
5.89818296e-10
5.89864217e-10
6.09007881e-10
6.08771029e-10
6.09019941e-10
5.8964627e-10
5.88670941e-10
5.89619114e-10
5.89766914e-10
5.89876819e-10
5.90383793e-10
6.08996237e-10
6.0852948e-10
5.89694223e-10
5.8950968e-10
5.89168189e-10
5.89426016e-10
6.09277818e-10
6.08810129e-10
6.09309224e-10
6.0882325e-10
6.09205347e-10
6.08956061e-10
5.8930154e-10
5.89469332e-10
6.09215633e-10
6.08967203e-10
6.09430793e-10
5.89186209e-10
5.88227815e-10
5.89309535e-10
5.8916007e-10
5.89910032e-10
5.89766966e-10
5.97357367e-10
6.08824424e-10
6.08360931e-10
6.08999869e-10
6.08964215e-10
5.89328453e-10
5.89599079e-10
6.09392173e-10
6.08919606e-10
6.09656232e-10
6.09053913e-10
6.0986658e-10
5.89039701e-10
5.88077154e-10
5.89403034e-10
5.90020154e-10
6.08993428e-10
6.09270176e-10
5.89498758e-10
5.9056836e-10
6.09171497e-10
6.08643274e-10
6.09560281e-10
5.89372622e-10
5.88771302e-10
5.90124879e-10
5.8958518e-10
5.91896849e-10
6.08738402e-10
6.08815702e-10
5.90098036e-10
5.90431083e-10
6.08598068e-10
6.09072695e-10
5.89945762e-10
5.90223592e-10
6.08546654e-10
6.08963177e-10
5.89779473e-10
5.90720938e-10
6.08552475e-10
6.08019184e-10
6.09005202e-10
6.08151033e-10
6.09551296e-10
5.89897301e-10
5.88402954e-10
5.89391583e-10
5.89446955e-10
5.89128131e-10
5.90842627e-10
6.08782006e-10
6.0944127e-10
5.89021688e-10
5.89265286e-10
5.90093822e-10
5.89778584e-10
5.93288252e-10
6.08775716e-10
6.08951774e-10
5.89546832e-10
5.89545786e-10
5.98359359e-10
6.08800911e-10
6.08794639e-10
6.08907143e-10
6.09459312e-10
5.88935461e-10
5.88881903e-10
5.91468801e-10
6.08815395e-10
6.08793522e-10
5.89849068e-10
5.92359617e-10
6.08893004e-10
6.08676118e-10
6.09110486e-10
6.09427891e-10
6.09341653e-10
6.10108857e-10
5.88025771e-10
5.8799793e-10
5.89781323e-10
5.90104089e-10
5.90586346e-10
5.93443573e-10
6.08893628e-10
6.09271389e-10
5.89588001e-10
5.89610391e-10
6.09307851e-10
6.09495688e-10
6.09977211e-10
6.10003864e-10
6.09604679e-10
6.10513701e-10
5.88537828e-10
5.88474654e-10
5.89368527e-10
5.91599727e-10
6.09275212e-10
6.09024102e-10
6.09571099e-10
6.09907736e-10
5.87185418e-10
5.87051211e-10
5.90053881e-10
6.09591265e-10
6.09703937e-10
5.88670103e-10
5.88784256e-10
5.89839779e-10
5.91184363e-10
6.08802764e-10
6.088807e-10
5.90135736e-10
5.91040288e-10
6.08771079e-10
6.08633541e-10
6.09613888e-10
6.09087666e-10
6.10361421e-10
6.09444936e-10
6.11056852e-10
5.87834962e-10
5.87815597e-10
5.89285339e-10
5.92665049e-10
6.09710684e-10
6.08726942e-10
6.10322075e-10
5.8897324e-10
5.88796069e-10
5.90141645e-10
5.91796343e-10
6.09065272e-10
6.09292207e-10
5.89453815e-10
5.91256008e-10
6.09765048e-10
6.0894316e-10
6.10584013e-10
5.87663699e-10
5.87682555e-10
5.89772746e-10
5.90031922e-10
5.90579624e-10
5.99246818e-10
6.08873599e-10
6.09618595e-10
6.09205744e-10
6.10785716e-10
5.88587728e-10
5.88555835e-10
5.90495883e-10
5.93210323e-10
6.08863408e-10
6.08659512e-10
6.09993035e-10
6.09270788e-10
6.10962637e-10
5.87481111e-10
5.87476511e-10
5.91638507e-10
6.09699127e-10
6.10249383e-10
5.89114528e-10
5.89072654e-10
5.90558084e-10
5.93871013e-10
6.08971804e-10
6.08588464e-10
6.10134324e-10
5.88817834e-10
5.8890454e-10
5.94322762e-10
6.0947478e-10
6.08681904e-10
6.10651086e-10
6.09329166e-10
6.11614202e-10
5.87371751e-10
5.87417392e-10
5.89713524e-10
5.91708727e-10
6.09196479e-10
6.09949044e-10
5.8871299e-10
5.97492493e-10
6.101988e-10
5.91134779e-10
5.9199889e-10
6.08785792e-10
6.08747466e-10
6.10292634e-10
6.09258315e-10
6.114634e-10
5.88056144e-10
5.88076179e-10
5.90271555e-10
5.94189603e-10
6.08679663e-10
6.08595491e-10
6.08948522e-10
6.09240408e-10
6.08730316e-10
6.09900396e-10
5.96200712e-10
5.88029006e-10
5.88270311e-10
5.89527455e-10
5.89591129e-10
5.90263552e-10
5.90700785e-10
5.90724701e-10
5.992218e-10
6.08858594e-10
6.09917668e-10
6.09163694e-10
6.11484395e-10
5.89141504e-10
5.90937037e-10
6.101792e-10
6.09201769e-10
6.11812737e-10
5.87884838e-10
5.87826374e-10
5.89837282e-10
5.92049059e-10
6.09077098e-10
6.10500337e-10
5.89247046e-10
5.91467116e-10
6.09371512e-10
6.09987703e-10
6.09611036e-10
6.11923477e-10
5.87879294e-10
5.87978096e-10
5.9025246e-10
5.90505796e-10
6.05697644e-10
6.09167784e-10
6.1010071e-10
6.09548707e-10
6.11083217e-10
6.09784359e-10
6.1251832e-10
5.87377285e-10
5.87510144e-10
5.89439639e-10
5.89622703e-10
5.90378734e-10
5.90503922e-10
6.00792622e-10
6.08804335e-10
6.09790247e-10
6.08958332e-10
6.11489152e-10
5.89783244e-10
5.91566178e-10
6.0959827e-10
6.08786492e-10
6.11455467e-10
5.88845639e-10
5.88810688e-10
5.90323879e-10
5.93168712e-10
6.08597044e-10
6.08436205e-10
6.09762338e-10
6.08870712e-10
6.11330604e-10
5.8876111e-10
5.88966976e-10
5.95947846e-10
6.09445641e-10
6.11023415e-10
5.88449473e-10
5.88364945e-10
5.89868569e-10
5.89937775e-10
5.90252977e-10
5.93720873e-10
6.08631601e-10
6.08464065e-10
6.09971417e-10
6.0898158e-10
6.11665727e-10
5.88617347e-10
5.88792538e-10
5.90193893e-10
5.90641321e-10
6.07048373e-10
6.09638576e-10
6.09203284e-10
6.11529968e-10
5.90130311e-10
5.90628761e-10
6.08710141e-10
6.11230142e-10
5.89579634e-10
5.90711827e-10
6.08943587e-10
6.11268816e-10
5.88585642e-10
5.88915005e-10
5.90098015e-10
5.90526982e-10
5.91891974e-10
6.02207179e-10
6.07937723e-10
6.10472142e-10
5.91125048e-10
5.95150491e-10
6.08474035e-10
6.09535289e-10
6.08914098e-10
6.11409524e-10
5.88576365e-10
5.88753953e-10
5.89911028e-10
5.90053993e-10
5.90420219e-10
5.90703612e-10
6.05568052e-10
6.09339825e-10
6.09087512e-10
6.10982234e-10
5.89848519e-10
5.91155264e-10
6.09192441e-10
6.08713034e-10
6.11003096e-10
5.88310314e-10
5.88447568e-10
5.95292558e-10
6.09421011e-10