/*--------------------------------*- C++ -*----------------------------------*\
| =========                 |                                                 |
| \\      /  F ield         | OpenFOAM: The Open Source CFD Toolbox           |
|  \\    /   O peration     | Version:  2306                                  |
|   \\  /    A nd           | Website:  www.openfoam.com                      |
|    \\/     M anipulation  |                                                 |
\*---------------------------------------------------------------------------*/
FoamFile
{
    version     2.0;
    format      ascii;
    arch        "LSB;label=32;scalar=64";
    class       volScalarField;
    location    "0.00012";
    object      p;
}
// * * * * * * * * * * * * * * * * * * * * * * * * * * * * * * * * * * * * * //

dimensions      [1 -1 -2 0 0 0 0];

internalField   nonuniform List<scalar> 
3810
(
101064.379
101062.605
101061.14
101060.183
101058.938
101058.264
101058.162
101057.749
101057.48
101057.607
101057.913
101058.429
101059.429
101060.892
101062.773
101064.67
101067.03
101069.898
101073.123
101076.631
101080.643
101085.12
101089.994
101095.364
101100.895
101106.929
101113.216
101119.577
101126.479
101133.699
101141.178
101148.516
101155.793
101166.221
101173.273
101182.021
101191.132
101200.145
101209.678
101219.514
101229.655
101240.007
101250.693
101261.971
101273.599
101285.638
101297.549
101308.701
101320.765
101332.947
101345.115
101358.04
101371.067
101383.119
101395.785
101408.275
101420.139
101431.927
101443.19
101452.799
101462.24
101475.794
101482.715
101490.719
101498.275
101506.433
101514.086
101521.813
101522.963
101529.537
101535.153
101539.361
101543.334
101547.156
101550.415
101554.11
101556.699
101558.649
101560.2
101561.805
101568.02
101566.705
101567.012
101567.592
101566.652
101563.313
101567.521
101569.012
101569.599
101570.258
101569.905
101569.451
101569.405
101569.546
101570.593
101570.713
101570.775
101572.072
101575.709
101571.113
101574.263
101575.985
101576.886
101577.143
101583.07
101581.226
101582.155
101583.429
101585.472
101586.457
101587.125
101587.911
101589.088
101589.505
101589.432
101594.044
101591.969
101591.49
101591.54
101591.371
101591.458
101591.46
101591.596
101590.931
101589.895
101589.188
101587.867
101590.892
101587.783
101587.093
101586.65
101586.284
101586.395
101585.638
101584.465
101583.806
101583.801
101582.838
101581.386
101580.473
101580.22
101578.967
101577.238
101575.491
101572.637
101576.596
101571.548
101569.769
101568.471
101566.662
101564.883
101563.211
101561.059
101559.187
101558.374
101551.892
101550.596
101548.003
101545.219
101542.814
101540.946
101537.703
101532.04
101534.359
101529.989
101526.902
101524.368
101522.015
101519.014
101516.027
101513.336
101510.633
101507.787
101505.081
101501.852
101501.854
101497.379
101494.71
101492.757
101491.075
101488.628
101486.47
101485.289
101483.765
101481.781
101479.504
101477.468
101475.547
101474.517
101472.83
101471.494
101470.136
101469.2
101469.394
101465.158
101465.422
101464.254
101462.845
101461.847
101461.144
101460.056
101458.935
101458.168
101457.64
101456.784
101455.98
101455.545
101455.391
101455.034
101454.739
101455.005
101455.324
101455.791
101456.442
101457.29
101458.422
101459.829
101461.374
101463.171
101465.037
101467.169
101469.552
101472.068
101474.699
101477.492
101480.44
101483.496
101486.816
101490.126
101493.456
101496.846
101500.026
101503.229
101506.642
101509.807
101513.044
101516.433
101519.723
101523.168
101526.518
101530.339
101534.501
101538.173
101542.24
101546.713
101550.867
101555.2
101559.28
101563.42
101568.314
101573.042
101577.685
101582.605
101588.258
101593.774
101599.369
101604.781
101610.339
101617.053
101623.378
101629.61
101636
101642.379
101649.586
101657.086
101664.038
101671.292
101679.452
101687.345
101695.043
101702.448
101709.991
101718.868
101727.056
101735.473
101744.026
101752.326
101760.676
101768.89
101777.035
101786.152
101795.146
101803.423
101811.87
101821.012
101829.75
101838.204
101845.855
101853.439
101861.71
101869.367
101876.397
101883.59
101891.085
101898.131
101905.157
101911.294
101917.221
101923.483
101930.529
101935.638
101940.787
101945.552
101950.716
101955.844
101959.032
101962.972
101966.185
101969.061
101971.305
101972.893
101974.08
101974.76
101975.093
101975.07
101974.417
101973.599
101972.593
101971.193
101968.837
101966.177
101963.551
101960.805
101957.421
101953.265
101949.225
101944.973
101939.493
101932.806
101926.269
101919.433
101911.596
101902.758
101893.776
101885.771
101878.011
101869.473
101860.25
101850.149
101839.421
101828.383
101817.262
101804.536
101791.205
101778.025
101764.858
101751.509
101736.675
101720.631
101705.687
101689.686
101679.821
101660.479
101643.641
101627.622
101611.897
101596.671
101581.261
101565.703
101550.615
101534.37
101516.653
101499.7
101483.75
101467.521
101455.758
101436.853
101420.557
101405.127
101390.03
101375.323
101361.667
101349.068
101335.437
101321.916
101309.465
101297.728
101286.028
101274.42
101263.192
101255.336
101243.253
101234.341
101223.644
101213.772
101204.624
101196.515
101189.449
101181.579
101173.842
101167.151
101161.142
101155.914
101152.005
101141.444
101137.911
101133.736
101129.11
101124.513
101120.686
101117.824
101114.264
101110.65
101108.317
101107.109
101105.096
101103.355
101103.709
101101.772
101101.199
101100.287
101097.793
101107.006
101102.355
101102.658
101104.408
101106.243
101108.166
101111.722
101113.13
101115.563
101118.858
101122.55
101127.218
101133.121
101132.157
101139.298
101145.636
101151.616
101157.305
101163.822
101170.023
101176.269
101182.865
101189.345
101199.087
101204.905
101213.246
101221.807
101230.194
101238.94
101248.373
101257.536
101266.417
101275.035
101284.439
101293.588
101302.408
101311.578
101320.777
101331.417
101339.336
101348.231
101357.458
101366.519
101375.945
101385.662
101395.271
101404.329
101411.718
101418.6
101430.253
101434.735
101441.647
101449.245
101456.156
101461.87
101467.797
101472.859
101478.168
101483.594
101488.352
101493.271
101498.066
101502.839
101507.015
101510.736
101514.35
101518.55
101521.965
101524.918
101527.907
101531.479
101534.273
101536.696
101539.29
101541.473
101545.638
101546.252
101548.469
101550.468
101551.898
101552.15
101554.561
101555.991
101556.924
101557.722
101558.401
101558.276
101557.984
101557.655
101557.107
101556.193
101555.356
101555.477
101552.644
101551.719
101549.639
101547.926
101546.45
101544.107
101541.49
101539.289
101537.297
101534.504
101531.495
101528.964
101526.429
101523.685
101520.881
101517.28
101512.881
101508.284
101505.835
101502.838
101499.266
101495.393
101491.156
101487.986
101484.514
101480.842
101477.367
101472.401
101468.873
101464.883
101460.662
101456.036
101451.121
101446.196
101441.219
101435.675
101429.889
101424.814
101419.688
101414.122
101408.822
101403.851
101398.854
101394.108
101389.476
101384.445
101379.338
101374.299
101370.369
101366.339
101362.596
101359.536
101355.999
101353.149
101350.991
101349.289
101347.822
101346.343
101345.689
101345.18
101344.804
101344.834
101345.295
101346.014
101347.015
101348.341
101349.813
101351.438
101353.319
101355.297
101357.17
101359.039
101361.396
101363.829
101365.845
101367.729
101371.263
101374.496
101377.617
101380.815
101384.14
101387.562
101391.046
101397.913
101400.833
101405.363
101410.149
101415.897
101421.812
101427.651
101433.542
101440.588
101447.802
101454.688
101460.927
101467.71
101479.364
101485.701
101494.185
101503.364
101512.779
101522.774
101532.91
101543.328
101554.307
101566.292
101571.868
101584.365
101596.136
101606.518
101617.36
101628.629
101639.405
101651.912
101663.138
101673.956
101684.203
101694.068
101703.379
101712.847
101723.176
101732.324
101740.451
101748.327
101757.155
101764.798
101771.427
101777.902
101785.397
101791.361
101796.147
101800.896
101806.628
101810.382
101812.77
101814.65
101814.845
101823.067
101818.431
101818.683
101818.966
101818.364
101816.646
101814.509
101812.42
101809.855
101807.231
101802.838
101797.716
101793.872
101791.048
101786.042
101780.097
101775.253
101771.298
101765.225
101758.568
101753.775
101751.528
101738.769
101734.619
101728.188
101721.411
101714.765
101708.069
101703.562
101692.955
101686.917
101678.933
101671.681
101665.223
101657.211
101649
101642.396
101636.633
101629.386
101621.792
101615.594
101610.018
101602.79
101595.02
101588.464
101582.77
101575.954
101568.526
101561.058
101554.786
101548.956
101541.836
101534.587
101528.206
101521.09
101518.648
101509.824
101503.331
101497.245
101491.481
101486.191
101481.036
101475.88
101470.422
101464.848
101462.538
101455.885
101449.883
101444.532
101439.4
101433.875
101428.529
101422.896
101416.638
101411.805
101406.499
101401.5
101395.185
101388.424
101385.561
101380.293
101375.485
101370.238
101364.9
101359.628
101354.501
101349.331
101343.996
101339.138
101333.207
101327.473
101321.873
101316.015
101310.249
101304.52
101298.866
101293.709
101287.9
101281.786
101276.839
101271.32
101266.232
101260.508
101255.276
101249.556
101244.262
101237.913
101232.313
101226.111
101219.406
101211.975
101207.69
101198.285
101189.217
101180.113
101170.327
101160.902
101150.085
101138.997
101125.644
101112.395
101097.051
101080.014
101066.98
101045.789
101024.326
101002.436
100979.515
100954.662
100927.977
100899.707
100869.624
100838.193
100801.704
100762.677
100720.936
100677.174
100626.991
100573.006
100515.055
100454.044
100382.108
100306.958
100233.338
100153.247
100068.42
99977.8731
99881.4794
99767.073
99650.1464
99539.5424
99392.5339
99271.5002
99142.8216
99008.9717
98875.3696
98755.4041
98635.3644
98523.8051
98424.2411
98339.4699
98266.2907
98204.0032
98165.4751
98144.799
98140.4331
98154.8118
98189.8452
98245.3647
98312.4694
98394.5761
98485.0164
98586.8908
98692.8645
98804.2131
98922.4894
99044.5832
99174.5395
99309.4704
99444.5236
99570.6435
99693.3367
99807.0663
99922.1234
100038.259
100152.273
100259.719
100361.959
100479.084
100594.069
100704.093
100805.854
100902.361
100984.893
101067.729
101139.891
101205.811
101246.503
101281.09
101342.318
101388.488
101425.502
101454.871
101475.603
101495.369
101507.74
101517.673
101524.955
101529.838
101532.87
101534.779
101529.797
101527.005
101526.193
101526.422
101529.296
101532.901
101536.568
101541.131
101546.767
101553.277
101560.477
101568.29
101579.282
101590.454
101604.956
101620.637
101639.49
101658.946
101679.22
101700.265
101721.613
101745.687
101773.339
101803.275
101834.864
101868.43
101903.667
101941.22
101980.916
102021.158
102060.646
102099.212
102146.554
102186.079
102223.429
102262.115
102307.317
102345.431
102380.948
102418.035
102456.198
102495.234
102532.592
102572.725
102615.411
102659.288
102701.407
102747.435
102795.35
102845.535
102899.71
102958.938
103017.778
103078.519
103141.619
103209.171
103275.356
103340.848
103405.909
103470.706
103532.012
103589.155
103641.994
103686.793
103718.883
103743.988
103761.505
103771.377
103778.572
103768.757
103756.289
103739.971
103723.901
103709.352
103687.607
103666.429
103645.102
103623.118
103596.574
103566.435
103536.368
103505.828
103473.564
103431.689
103397.85
103360.244
103313.627
103268.943
103222.139
103170.967
103117.206
103062.131
103007.761
102948.546
102888.331
102833.501
102779.762
102722.473
102664.952
102613.53
102564.414
102512.965
102462.063
102417.831
102377.244
102335.456
102294.673
102260.109
102229.866
102199.995
102171.35
102147.773
102126.927
102101.072
102075.32
102054.56
102036.103
102012.424
101988.806
101967.081
101947.441
101926.132
101904.409
101884.364
101863.974
101844.069
101823.578
101802.692
101783.129
101765.902
101746.536
101727.087
101708.415
101690.769
101674.542
101659.013
101640.983
101622.163
101603.83
101586.725
101570.562
101551.16
101531.567
101514.999
101495.462
101478.594
101459.586
101439.564
101420.68
101404.068
101389.417
101373.193
101357.61
101345.568
101335.699
101324.386
101313.391
101305.327
101298.537
101289.791
101282.514
101278.498
101277.977
101271.361
101264.176
101257.576
101251.171
101246.533
101243.123
101239.663
101235.276
101232.273
101222.726
101211.954
101202.69
101195.335
101188.439
101185.142
101176.803
101171.344
101165.217
101159.362
101154.763
101150.649
101147.101
101144.751
101143.533
101142.042
101146.278
101145.947
101150.992
101158.072
101166.692
101177.345
101190.385
101203.551
101218.88
101234.895
101252.183
101269.756
101287.012
101303.82
101319.345
101335.726
101350.38
101363.29
101374.281
101383.346
101390.622
101395.326
101397.191
101397.148
101395.34
101390.534
101383.558
101375.366
101365.539
101354.062
101341.075
101326.956
101313.206
101299.583
101284.259
101268.234
101254.132
101240.839
101226.285
101211.619
101199.215
101187.976
101175.755
101163.611
101153.59
101144.608
101134.575
101124.413
101115.957
101108.127
101098.945
101089.253
101080.876
101072.678
101062.774
101052.028
101042.431
101032.721
101021.077
101008.477
100997.139
100985.608
100972.059
100957.573
100944.51
100931.113
100915.472
100898.957
100884.187
100869.117
100852.389
100834.195
100815.309
100795.549
100775.716
100755.922
100735.671
100713.663
100687.557
100665.658
100642.278
100617.479
100588.667
100559.908
100528.885
100496.175
100458.081
100418.406
100376.318
100327.583
100275.945
100221.062
100163.792
100103.372
100040.882
99974.3049
99905.2621
99828.1652
99749.5402
99666.8746
99581.2219
99485.2649
99386.3025
99282.5408
99173.1996
99057.3227
98938.1671
98820.3965
98708.5375
98606.2287
98516.3132
98433.3914
98353.3449
98275.9404
98221.745
98201.8109
98203.3295
98222.1427
98267.0861
98297.0905
98364.9951
98445.4336
98534.8615
98630.3248
98735.6515
98847.7583
98966.0038
99086.1084
99212.8569
99350.6343
99500.0123
99659.0287
99822.1872
99984.7792
100139.486
100290.418
100439.097
100585.541
100723.7
100855.948
100984.553
101109.85
101230.464
101350.788
101470.643
101590.731
101707.547
101820.749
101931.829
102040.746
102141.132
102239.585
102337.618
102433.856
102527.457
102619.808
102710.968
102799.277
102884.201
102966.722
103049.268
103126.681
103199.275
103266.495
103323.834
103362.495
103408.509
103438.625
103456.13
103464.153
103467.316
103462.856
103450.721
103434.194
103409.352
103373.695
103335.39
103293.91
103254.039
103215.342
103164.992
103112.06
103059.994
103006.259
102948.604
102885.528
102822.25
102762.276
102707.786
102638.924
102546.451
102521.429
102478.463
102438.117
102391.29
102349.864
102309.575
102269.508
102233.808
102201.983
102167.568
102132.951
102098.673
102064.544
102029.492
101993.579
101956.178
101916.286
101874.411
101832.493
101790.523
101746.803
101704.567
101665.499
101628.64
101594.568
101562.858
101531.566
101497.851
101466.192
101440.925
101421.893
101403.672
101392.125
101389.714
101379.478
101380.597
101387.239
101394.33
101402.804
101410.132
101416.491
101423.53
101428.885
101433.047
101437.193
101441.097
101445.571
101450.384
101454.69
101460.604
101466.488
101473.5
101482.056
101490.987
101500.587
101510.034
101520.159
101531.979
101543.383
101555.113
101566.939
101578.084
101589.089
101600.534
101612.192
101623.8
101635.095
101645.462
101656.003
101667.377
101677.825
101686.3
101694.211
101701.866
101707.763
101711.324
101713.943
101715.37
101714.88
101712.71
101710.011
101705.936
101700.535
101694.647
101688.925
101682.191
101674.742
101667.476
101660.526
101654.099
101648.196
101643.058
101638.256
101634.173
101630.606
101629.151
101628.1
101627.004
101628.549
101630.613
101634.312
101639.451
101645.082
101652.918
101660.809
101668.019
101677.139
101690.475
101701.439
101712.855
101724.054
101735.36
101749.246
101762.73
101775.108
101787.428
101801.231
101814.435
101825.883
101836.76
101848.015
101857.708
101866.302
101873.55
101878.952
101882.957
101885.509
101887.072
101887.658
101886.883
101884.718
101882.293
101878.718
101874.151
101869.446
101864.434
101859.122
101853.81
101849.146
101844.281
101839.911
101836
101833.342
101831.071
101829.359
101828.399
101829.076
101829.882
101831.27
101833.22
101835.608
101838.256
101841.605
101844.568
101847.285
101849.439
101851.183
101852.045
101851.516
101850.977
101848.37
101844.978
101840.655
101834.982
101829.364
101820.928
101811.357
101800.901
101789.219
101777.507
101762.899
101748.871
101735.022
101722.431
101706.316
101689.782
101673.561
101658.196
101644.41
101628.798
101613.704
101599.159
101585.339
101572.357
101560.421
101548.636
101537.365
101526.977
101517.726
101509.211
101501.491
101494.719
101489.081
101483.838
101479.171
101475.836
101474.266
101473.663
101473.374
101473.809
101475.361
101477.837
101481.035
101484.948
101489.491
101493.897
101499.747
101504.285
101509.434
101514.679
101520.094
101526.883
101534.763
101533.808
101541.212
101546.517
101550.744
101554.481
101558.084
101560.795
101563.565
101567.307
101571.084
101573.659
101576.235
101579.812
101583.676
101586.905
101591.774
101601.164
101595.606
101606.763
101614.229
101620.913
101628.31
101636.537
101645.152
101654.238
101662.995
101671.548
101680.155
101689.642
101698.109
101705.75
101713.001
101720.642
101726.714
101731.417
101736.433
101743.921
101737.189
101743.392
101744.844
101744.337
101743.236
101741.731
101739.341
101736.547
101732.194
101726.499
101721.419
101719.221
101711.907
101707.159
101700.153
101694.447
101691.647
101679.982
101676.131
101670.236
101664.76
101660.236
101654.542
101648.553
101644.122
101641.139
101637.193
101633.002
101630.235
101628.897
101626.789
101625.268
101625.081
101623.726
101623.401
101623.064
101622.584
101623.141
101623.17
101627.123
101625.155
101626.328
101627.156
101627.783
101625.631
101634.796
101628.584
101627.067
101626.209
101623.764
101624.542
101618.934
101615.695
101611.967
101607.863
101601.828
101602.064
101592.594
101586.428
101576.625
101572.139
101564.82
101556.69
101548.812
101539.288
101528.741
101518.485
101508.616
101498.98
101489.929
101483.282
101465.476
101458.113
101448.714
101439.176
101429.901
101420.965
101412.92
101405.382
101397.87
101391.234
101385.236
101379.902
101375.791
101372.107
101364.307
101361.399
101359.691
101358.476
101358.342
101357.249
101356.508
101357.236
101359.418
101360.367
101363.554
101364.473
101369.622
101374.509
101372.852
101378.495
101382.667
101386.483
101390.134
101393.478
101397.064
101401.052
101404.27
101407.743
101411.976
101413.974
101416.046
101418.218
101420.139
101423.413
101423.842
101426.394
101427.585
101428.922
101430.08
101431.324
101432.936
101434.13
101434.939
101435.628
101436.021
101439.766
101438.997
101439.761
101441.017
101442.189
101442.882
101442.11
101449.077
101446.66
101447.027
101448.641
101450.276
101451.08
101452.242
101453.079
101453.517
101454.344
101455.81
101456.57
101457.075
101457.226
101457.438
101459.357
101460.538
101460.557
101464.554
101463.16
101463.737
101464.854
101466.027
101467.545
101468.338
101468.979
101470.05
101471.779
101472.869
101473.759
101474.662
101474.937
101480.665
101478.756
101478.509
101482.136
101482.967
101483.878
101484.832
101485.696
101487.75
101487.412
101488.844
101489.138
101489.591
101489.965
101490.403
101490.922
101490.879
101490.601
101490.086
101489.193
101487.353
101483.997
101477.058
101471.734
101472.786
101475.002
101475.996
101475.166
101473.17
101470.729
101468.489
101466.057
101463.384
101461.186
101459.279
101457.149
101454.942
101452.859
101450.842
101448.968
101447.323
101445.757
101444.204
101442.808
101441.367
101439.821
101438.332
101436.864
101435.425
101434.109
101432.869
101431.661
101430.076
101428.191
101427.134
101425.721
101424.247
101422.68
101421.176
101419.691
101417.84
101416.283
101413.382
101412.397
101410.669
101408.562
101406.903
101405.294
101403.443
101401.301
101399.079
101397.393
101395.5
101393.566
101391.701
101390
101387.926
101386.15
101384.299
101382.453
101380.752
101378.88
101377.074
101375.219
101373.455
101371.536
101369.578
101367.502
101365.542
101363.207
101360.783
101358.375
101355.954
101353.441
101350.985
101348.63
101346.2
101343.955
101341.404
101339.206
101336.994
101334.798
101332.845
101330.703
101328.668
101326.854
101325.532
101323.311
101320.841
101318.522
101316.27
101314.429
101312.467
101310.569
101308.738
101306.96
101305.152
101303.381
101301.698
101299.903
101297.967
101296.54
101295.06
101293.979
101293.111
101292.303
101291.332
101290.743
101290.13
101289.529
101289.469
101289.131
101288.405
101289.789
101289.551
101290.18
101290.846
101291.934
101293.431
101295.003
101296.749
101298.453
101300.685
101303.558
101306.662
101309.874
101313.827
101317.815
101322.465
101328.372
101334.699
101341.335
101348.351
101356.309
101365.86
101376.108
101386.997
101398.881
101410.74
101423.37
101438.13
101452.508
101467.742
101485.959
101503.525
101521.456
101540.42
101560.405
101582.595
101605.8
101629.506
101653.247
101676.722
101701.295
101725.749
101750.657
101776.611
101802.995
101829.388
101857.041
101884.813
101909.272
101934.359
101959.185
101984.331
102009.063
102031.199
102053.66
102075.429
102096.485
102117.223
102138.384
102159.495
102171.726
102189.14
102204.815
102218.468
102229.702
102240.513
102249.886
102257.334
102262.944
102268.122
102271.301
102272.558
102272.84
102273.061
102271.183
102267.713
102263.545
102257.684
102251.951
102244.879
102237.944
102228.469
102218.173
102208.356
102197.476
102185.32
102172.714
102159.494
102146.056
102132.481
102118.823
102105.466
102090.787
102075.847
102060.999
102046.292
102032.212
102018.775
101999.062
101985.105
101970.664
101955.785
101940.881
101926.31
101912.534
101899.176
101884.438
101870.693
101857.446
101843.194
101828.977
101816.383
101804.196
101790.438
101776.931
101764.411
101751.034
101737.235
101725.213
101713.338
101701.463
101690.023
101678.173
101665.526
101653.51
101642.245
101631.448
101620.303
101608.8
101597.607
101587.203
101577.205
101566.612
101556.197
101547.548
101539.093
101530.654
101521.658
101513.05
101505.318
101498.241
101491.207
101483.009
101477.661
101471.407
101465.355
101458.574
101452.298
101445.904
101438.685
101431.452
101424.028
101416.898
101409.004
101401.68
101395.23
101387.451
101380.697
101374.333
101367.673
101361.869
101354.602
101346.878
101340.689
101333.427
101326.673
101318.494
101309.398
101301.02
101292.596
101283.63
101274.567
101265.113
101255.596
101243.514
101231.66
101217.546
101201.836
101185.792
101165.414
101143.279
101120.774
101096.136
101068.822
101040.449
101007.748
100972.607
100934.657
100895.438
100848.705
100799.874
100746.62
100688.985
100629.382
100556.747
100478.635
100395.061
100310.737
100221.134
100123.397
100017.227
99904.661
99786.0377
99649.5195
99495.1503
99328.6493
99151.639
98968.5011
98778.753
98589.3802
98410.3183
98243.4217
98088.2673
97968.0899
97869.4514
97792.9936
97738.9257
97718.0385
97725.5212
97759.9668
97813.3159
97813.7579
97911.3929
98030.6707
98157.5991
98296.3157
98437.5537
98585.9512
98738.5474
98896.9323
99056.7918
99207.2013
99355.1746
99497.0896
99635.6646
99762.0705
99882.4136
99995.4612
100105.866
100208.127
100307.18
100401.895
100494.617
100578.951
100657.549
100731.952
100802.635
100866.617
100921.72
100969.867
101013.704
101058.784
101096.164
101128.711
101159.703
101188.72
101214.149
101236.049
101256.966
101275.984
101292.777
101309.137
101326.375
101342.88
101353.606
101365.057
101376.148
101389.48
101397.617
101408.869
101421.302
101440.717
101465.463
101475.509
101490.729
101506.579
101528.32
101553.572
101569.663
101590.024
101609.51
101635.252
101647.507
101664.802
101680.917
101703.313
101711.138
101723.151
101734.704
101747.539
101764.941
101786.157
101793.591
101802.978
101810.735
101823.017
101838.265
101838.408
101839.311
101837.756
101836.123
101837.095
101840.873
101836.56
101833.535
101826.649
101821.252
101812.708
101798.536
101781.817
101764.675
101748.775
101733.393
101721.292
101701.339
101681.151
101657.516
101632.533
101607.957
101585.589
101563.506
101540.267
101519.131
101497.066
101473.651
101452.452
101429.158
101407.361
101387.401
101368.492
101349.056
101328.56
101309.759
101291.336
101274.795
101259.567
101245.616
101231.493
101220.095
101210.458
101202.433
101194.607
101189.724
101186.886
101185.891
101184.92
101186.703
101190.004
101197.383
101204.35
101211.298
101217.43
101222.897
101230.249
101252.406
101261.687
101269.358
101279.871
101288.403
101305.555
101310.18
101322.026
101332.209
101341.205
101349.524
101355.172
101374.689
101374.92
101380.551
101388.382
101397.548
101403.922
101409.333
101414.348
101419.891
101424.192
101426.837
101429.212
101428.422
101437.201
101444.727
101449.032
101451.946
101455.505
101460.24
101463.254
101465.556
101468.82
101473.423
101476.383
101478.685
101482.853
101490.957
101485.121
101492.506
101496.812
101501.66
101505.122
101514.129
101514.838
101520.103
101528.608
101532.316
101539.981
101536.295
101548.002
101554.919
101561.651
101568.311
101574.542
101580.754
101587.95
101595.245
101602.597
101610.647
101617.191
101624.107
101631.192
101638.521
101646.039
101651.94
101656.353
101659.266
101666.39
101671.64
101675.657
101679.879
101684.388
101692.93
101700.489
101706.79
101711.282
101717.64
101724.217
101729.914
101735.333
101740.515
101745.4
101750.229
101754.842
101759.598
101763.96
101767.352
101770.296
101770.888
101772.573
101770.736
101770.565
101770.305
101769.728
101768.214
101766.82
101765.524
101764.214
101762.082
101759.364
101757.209
101755.527
101752.762
101749.379
101746.061
101743.151
101739.23
101741.018
101734.851
101731.027
101728.036
101725.366
101721.905
101718.33
101715.183
101711.692
101707.267
101702.497
101698.099
101693.785
101688.892
101683.374
101677.734
101671.255
101663.705
101655.991
101648.621
101641.569
101633.914
101625.39
101616.931
101608.939
101601.039
101593.317
101585.115
101576.928
101570.345
101563.992
101557.859
101552.261
101546.767
101541.301
101536.12
101531.506
101527.288
101523.58
101519.957
101516.314
101514.072
101511.752
101509.598
101507.706
101505.878
101504.386
101503.102
101502.051
101501.518
101500.697
101500.058
101499.629
101499.768
101500.186
101500.585
101501.371
101502.344
101503.62
101504.64
101506.242
101507.306
101508.398
101509.495
101510.122
101510.805
101511.257
101511.353
101510.83
101510.425
101509.448
101508.261
101507.084
101505.081
101502.788
101500.927
101498.519
101496.47
101493.759
101490.812
101487.974
101485.347
101482.839
101480.405
101478.175
101476.288
101474.647
101473.328
101472.529
101471.946
101471.607
101471.349
101471.769
101472.817
101474.226
101475.667
101477.775
101480.578
101483.529
101486.182
101489.284
101492.688
101496.096
101499.082
101502.465
101505.802
101508.911
101512.14
101515.417
101518.816
101522.172
101525.538
101528.997
101532.588
101536.317
101540.236
101544.968
101549.848
101554.808
101560.292
101565.813
101571.602
101577.864
101584.84
101591.673
101598.139
101605.524
101613.226
101621.284
101629.573
101637.187
101645.762
101654.582
101662.935
101670.76
101679.658
101688.661
101697.106
101704.979
101713.75
101722.058
101729.446
101736.612
101744.726
101753.46
101762.495
101773.752
101785.024
101795.254
101804.653
101815.22
101825.129
101834.09
101842.791
101853.205
101862.901
101871.605
101880.086
101890.206
101899.062
101906.787
101913.829
101922.119
101928.02
101932.976
101935.488
101944.4
101951.952
101956.89
101960.466
101963.046
101963.837
101984.123
101977.737
101976.965
101977.769
101979.618
101978.882
101976.906
101975.554
101975.532
101972.727
101969.437
101967.073
101963.422
101958.223
101954.143
101951.383
101946.091
101939.917
101935.254
101931.892
101926.073
101919.687
101913.656
101907.031
101907.383
101896.998
101889.948
101883.487
101877.849
101873.248
101866.982
101861.22
101856.767
101852.488
101848.448
101844.577
101840.854
101837.267
101834.689
101832.894
101830.237
101827.765
101826.274
101825.337
101823.574
101822.499
101821.544
101820.692
101819.999
101819.225
101818.442
101817.842
101816.6
101815.274
101814.491
101813.559
101811.925
101810.062
101808.823
101807.162
101805.392
101802.894
101800.627
101798.508
101795.995
101793.314
101790.207
101787.132
101783.391
101779.557
101774.871
101770.187
101765.328
101759.267
101753.006
101746.988
101740.715
101733.741
101727.355
101719.835
101712.465
101705.47
101697.354
101689.868
101683.304
101676.782
101669.912
101664.324
101657.996
101653.069
101647.415
101641.997
101636.757
101632.762
101627.076
101621.481
101617.544
101612.334
101608.371
101603.305
101598.414
101594.843
101590.176
101586.494
101582.799
101578.701
101573.531
101569.467
101565.863
101561.942
101557.107
101553.706
101551.117
101548.473
101545.002
101543.424
101541.877
101540.181
101539.55
101538.256
101536.151
101534.006
101531.79
101529.027
101527.343
101523.954
101520.513
101517.171
101514.618
101510.499
101506.065
101502.235
101498.446
101494.146
101488.535
101484.712
101477.85
101474.759
101468.971
101463.021
101457.453
101451.35
101444.096
101437.719
101430.92
101423.63
101415.341
101408.944
101401.819
101394.679
101388.502
101381.515
101373.531
101366.712
101360.191
101352.559
101343.717
101335.936
101327.84
101319.071
101309.487
101301.644
101292.441
101283.159
101273.892
101264.376
101255.06
101245.517
101236.745
101226.964
101217.446
101207.852
101198.168
101187.193
101174.034
101173.163
101156.428
101142.894
101133.351
101125.992
101120.375
101116.575
101112.347
101107.185
101101.537
101096.936
101092.218
101087.322
101082.81
101079.944
101076.935
101074.129
101072.028
101071.096
101070.423
101070.263
101071.339
101072.697
101074.731
101077.412
101081.009
101085.177
101089.908
101095.547
101102.63
101110.32
101118.788
101128.139
101138.488
101150.137
101160.9
101173.001
101188.663
101202.619
101216.082
101231.4
101248.175
101265.101
101281.055
101298.667
101317.473
101336.274
101356.118
101376.457
101395.211
101415.077
101435.193
101454.532
101474.506
101494.097
101511.943
101531.678
101549.123
101566.43
101583.425
101598.926
101614.359
101629.171
101643.307
101655.389
101665.671
101674.532
101690.857
101696.533
101706.464
101716.552
101728.36
101739.636
101750.906
101767.681
101758.301
101773.598
101781.619
101787.017
101791.655
101794.873
101797.878