/*--------------------------------*- C++ -*----------------------------------*\
| =========                 |                                                 |
| \\      /  F ield         | OpenFOAM: The Open Source CFD Toolbox           |
|  \\    /   O peration     | Version:  2306                                  |
|   \\  /    A nd           | Website:  www.openfoam.com                      |
|    \\/     M anipulation  |                                                 |
\*---------------------------------------------------------------------------*/
FoamFile
{
    version     2.0;
    format      ascii;
    arch        "LSB;label=32;scalar=64";
    class       volScalarField;
    location    "0.00012";
    object      prefDh_T;
}
// * * * * * * * * * * * * * * * * * * * * * * * * * * * * * * * * * * * * * //

dimensions      [1 1 -3 -1 0 0 0];

internalField   nonuniform List<scalar> 
3810
(
-0.000497083603
-0.00060037747
-0.00074458252
-0.000743932741
-0.000595059805
-0.000740626491
-0.000745016031
-0.000503373197
-0.000503495316
-0.000562978558
-0.00055075352
-0.000593461079
-0.000742539453
-0.000744142449
-0.000745043056
-0.000509436582
-0.000506934275
-0.000559734442
-0.000533656053
-0.000592261089
-0.000741663978
-0.000746401347
-0.000741871826
-0.00074567302
-0.000473871214
-0.000458433403
-0.000579086575
-0.000742809777
-0.000748637146
-0.00050398803
-0.000544582713
-0.000744631725
-0.000743646835
-0.000467517485
-0.000466667975
-0.000528708507
-0.000503553862
-0.000595722742
-0.000740168537
-0.000747977607
-0.000741078082
-0.000746752237
-0.000743911372
-0.000743625951
-0.000742545264
-0.000511026363
-0.000558741664
-0.00074362695
-0.000739370243
-0.00074130363
-0.000485845152
-0.000441793493
-0.00057209971
-0.000740476568
-0.000739637562
-0.000499384797
-0.000512500284
-0.000524214096
-0.000600676539
-0.000743025939
-0.000736432942
-0.00050544423
-0.000504948481
-0.000591701568
-0.000739927594
-0.000740511825
-0.000525292033
-0.00059443545
-0.000742705652
-0.000743079142
-0.0007392484
-0.000503415055
-0.00046776006
-0.000587918643
-0.000741374045
-0.00073750634
-0.000514161491
-0.000569330177
-0.000743994434
-0.000733863611
-0.000497267175
-0.000496465471
-0.000545694624
-0.000528382138
-0.000597040869
-0.00074478567
-0.000745990262
-0.000740554991
-0.000744891002
-0.000736005268
-0.000504125293
-0.000485302046
-0.000598551772
-0.000740583094
-0.000738890619
-0.00052107094
-0.000579257867
-0.000743585953
-0.000736709165
-0.000495031178
-0.000494630382
-0.000595983409
-0.000744047796
-0.000737413237
-0.000501563018
-0.000500936938
-0.000592205815
-0.000742297112
-0.000740863912
-0.000523327454
-0.000587315953
-0.00074484732
-0.000738851148
-0.000743537138
-0.000736358185
-0.000493283885
-0.000492943464
-0.000518311774
-0.000599669993
-0.000744718172
-0.000739412192
-0.00074335923
-0.000736263237
-0.000523375802
-0.00055007367
-0.000743556786
-0.000736821481
-0.000509869977
-0.000509830234
-0.000533946334
-0.000591996237
-0.000744286477
-0.000739136396
-0.000534496963
-0.00056346415
-0.000745784582
-0.000736969051
-0.000522981634
-0.000552919408
-0.000746916476
-0.00073670889
-0.000511748649
-0.000553013523
-0.000746901958
-0.000735339982
-0.00047822966
-0.00047678506
-0.000533211561
-0.000508476762
-0.000596906321
-0.000746110184
-0.00074639471
-0.000743946573
-0.000743429603
-0.000741588129
-0.000490638629
-0.000490449507
-0.000524208612
-0.000582933621
-0.000743786442
-0.000744162281
-0.000529960717
-0.000598314174
-0.000744778145
-0.000745238996
-0.000741605646
-0.000744202016
-0.00074000258
-0.000485939713
-0.000463518143
-0.000537560969
-0.000504387091
-0.000598760131
-0.000742530839
-0.00074426679
-0.000524881615
-0.000524642455
-0.000584656185
-0.00074752825
-0.000740912989
-0.000597904613
-0.000741559133
-0.000743799549
-0.000505931114
-0.00050583607
-0.000555254235
-0.000530858149
-0.000593624881
-0.000746229104
-0.00074601401
-0.000745813509
-0.000745209912
-0.000744133603
-0.000745362907
-0.000492504812
-0.000488465317
-0.000516423034
-0.000560213663
-0.000743149247
-0.000746159154
-0.000524474735
-0.000550931625
-0.000744623647
-0.000745851648
-0.000518539008
-0.000552467366
-0.00074658243
-0.000744247337
-0.000492568032
-0.000574776124
-0.000750760796
-0.000534512034
-0.000518481833
-0.0005405522
-0.000564840368
-0.000743718007
-0.000748541779
-0.000534041399
-0.00055475356
-0.000536761136
-0.000595002917
-0.000746708417
-0.000745539878
-0.000748491745
-0.000744710719
-0.000749290275
-0.000508920692
-0.000492336895
-0.00051398817
-0.000538070079
-0.00074434622
-0.00074768778
-0.000525303493
-0.000542741268
-0.000522916361
-0.000598729364
-0.00074760532
-0.000744806245
-0.000747282019
-0.000574282036
-0.000531637459
-0.000749796015
-0.000742735135
-0.000546891043
-0.000495146926
-0.000564840549
-0.000743360349
-0.000747081267
-0.000540325805
-0.000541181342
-0.000748092046
-0.000743777901
-0.000549135534
-0.000492071621
-0.000566207386
-0.000743285926
-0.000747486013
-0.000539089654
-0.000557786552
-0.000747014486
-0.000744024534
-0.000746631258
-0.000565658083
-0.000522448723
-0.000748859395
-0.000742362534
-0.000538646401
-0.000477540651
-0.000550837801
-0.000742970193
-0.000748340268
-0.000544187822
-0.000539775404
-0.000540544181
-0.000596406321
-0.000741523848
-0.000749662447
-0.00074128977
-0.000750193653
-0.000548122757
-0.00052307236
-0.000746669067
-0.000742000116
-0.000527006781
-0.000473504171
-0.000559825751
-0.0007411248
-0.000747684675
-0.000518745497
-0.000534833405
-0.000745977438
-0.000744642715
-0.000511387046
-0.000468230853
-0.000565332116
-0.000741807296
-0.000749287693
-0.000504218895
-0.00055876401
-0.000742129641
-0.000749531989
-0.000741609309
-0.000750751341
-0.000447910891
-0.000442381625
-0.000508385357
-0.00053562174
-0.000546715982
-0.000595983825
-0.000739247813
-0.000745042239
-0.000742668633
-0.000744681954
-0.000746577545
-0.000533649219
-0.000531295869
-0.000745756793
-0.000740460782
-0.00048903044
-0.000477168464
-0.000600317194
-0.000739538109
-0.000747976824
-0.00051696785
-0.000568726972
-0.000741635326
-0.000744132596
-0.000517645398
-0.000569760656
-0.000743538477
-0.000739805676
-0.00047029763
-0.000466443674
-0.000600720702
-0.000738910414
-0.000744039728
-0.000500125916
-0.000499616587
-0.000539582672
-0.000600098649
-0.000740647451
-0.00074425825
-0.000520673702
-0.000603926755
-0.000738681937
-0.000741438869
-0.000740263526
-0.000529938576
-0.000539420331
-0.000742423629
-0.000737976997
-0.000485375709
-0.000484668572
-0.000549900211
-0.000597614605
-0.00073844137
-0.000741231328
-0.000732722802
-0.000739590833
-0.000732308544
-0.000433627619
-0.000426391609
-0.00060366414
-0.000735935016
-0.000739379199
-0.000457161734
-0.000456700178
-0.000533080696
-0.000552731164
-0.000559791712
-0.000597300761
-0.000742320617
-0.000740949642
-0.000550891961
-0.000600941558
-0.000741773763
-0.000732490884
-0.000740914617
-0.000728067821
-0.00073975783
-0.000729827758
-0.000422229991
-0.000417782166
-0.000525523089
-0.000512924395
-0.000597225193
-0.00073852271
-0.00074067696
-0.000528358759
-0.000607409676
-0.000741774259
-0.00073275362
-0.000740983246
-0.000733206676
-0.000440046658
-0.000437091384
-0.000530209769
-0.000515382045
-0.000595719903
-0.00073936527
-0.000742852109
-0.000527832602
-0.000593944716
-0.000742312117
-0.000741648231
-0.000524004992
-0.000602393941
-0.000741637982
-0.000742448803
-0.000738683599
-0.000741241515
-0.000737431551
-0.000433065795
-0.000431926492
-0.000518301961
-0.000542824641
-0.000557996127
-0.000595242267
-0.000741693139
-0.000743465925
-0.000739956034
-0.000742886261
-0.000738102776
-0.000741015048
-0.000736099529
-0.000445620109
-0.000445342886
-0.000501987556
-0.000579968346
-0.000741925915
-0.000737616416
-0.000499075385
-0.000550451123
-0.000744313874
-0.000735227448
-0.000469911206
-0.000468612286
-0.000535568128
-0.000512991955
-0.000596343525
-0.000740196861
-0.000743478551
-0.000523361144
-0.000564591064
-0.000742292152
-0.000741565582
-0.000524199825
-0.00052580033
-0.00055281878
-0.000597809686
-0.000743174334
-0.000744271581
-0.000742694277
-0.000743937469
-0.000741408075
-0.000742695332
-0.00073641013
-0.000481124039
-0.000490200256
-0.000742244825
-0.000732932766
-0.000446339978
-0.000444341873
-0.000519904665
-0.000489148364
-0.0005957411
-0.000739766255
-0.000739856735
-0.000491560765
-0.000491191586
-0.000594853693
-0.000743194295
-0.000741105799
-0.000742171699
-0.000738135733
-0.000496503909
-0.000514427038
-0.000741090639
-0.000736968001
-0.000509418104
-0.00053082635
-0.000742427674
-0.000736324414
-0.00050158812
-0.000534812567
-0.000744911639
-0.00073659019
-0.000478469782
-0.000477648016
-0.000543434969
-0.000531052078
-0.000592042813
-0.000743500358
-0.000745146379
-0.000743350178
-0.000744052985
-0.000742745814
-0.00074240209
-0.000501535275
-0.000501080904
-0.000559648871
-0.000523706366
-0.000595539373
-0.000744893935
-0.000743598758
-0.000499511487
-0.000499227079
-0.000587079078
-0.000745223059
-0.000746466404
-0.000515232747
-0.000565124015
-0.000745112223
-0.000745906919
-0.000517080417
-0.000581374023
-0.000745913259
-0.000742941625
-0.000744785117
-0.00074234129
-0.000458035297
-0.000447342689
-0.000576158431
-0.000744593826
-0.000744446571
-0.000489782083
-0.00048896467
-0.000598463292
-0.000743450697
-0.000743755597
-0.000741631133
-0.00074559305
-0.000476131215
-0.000475241767
-0.000532303363
-0.000552455917
-0.000557770876
-0.000596636179
-0.00074127322
-0.000749246508
-0.000554899143
-0.000588338535
-0.000742255708
-0.000749042499
-0.000515818177
-0.000600128774
-0.000745201968
-0.000742669241
-0.000748189694
-0.000493481645
-0.000489047629
-0.000523625795
-0.000587676286
-0.000743765499
-0.000744442043
-0.000745779105
-0.000514281249
-0.000487163938
-0.000599045285
-0.000743451141
-0.000750504436
-0.000526763231
-0.00059903574
-0.000745151171
-0.000743847974
-0.000744722832
-0.000744830348
-0.00048467475
-0.000480642837
-0.000545772932
-0.00052432669
-0.000594771615
-0.000741379309
-0.000751154654
-0.000543212779
-0.000580685792
-0.000743162192
-0.000749440116
-0.000519873536
-0.000598759692
-0.000745122393
-0.000745719772
-0.000744837951
-0.000509694187
-0.000453054074
-0.000586279924
-0.000745898786
-0.000743936681
-0.00048891203
-0.000488535073
-0.000573473524
-0.000745124402
-0.000745702541
-0.000515946778
-0.000553015739
-0.000746133231
-0.000743605845
-0.000522540301
-0.000545052852
-0.000746677297
-0.000741896889
-0.000525798157
-0.000526201194
-0.000541071154
-0.000596784057
-0.000745264869
-0.000743335445
-0.000743577288
-0.000739565008
-0.000512478707
-0.00059901781
-0.000743619578
-0.000744254637
-0.000739489257
-0.000500750813
-0.000461737326
-0.000594834493
-0.000744141712
-0.000732744256
-0.000510627617
-0.000510176803
-0.000556783067
-0.000542252899
-0.000597759734
-0.000741123431
-0.000734081205
-0.000553747176
-0.000600428603
-0.000742893599
-0.000731348688
-0.000544236193
-0.000582053813
-0.000743778452
-0.000729129035
-0.000528333214
-0.000569026503
-0.000744213199
-0.000727495743
-0.000510010039
-0.000559663062
-0.000744073681
-0.000728765708
-0.000482221424
-0.000481337548
-0.000521297974
-0.000544858492
-0.000538305211
-0.000595953638
-0.000744151042
-0.000734129061
-0.000743769329
-0.000726289364
-0.00052292602
-0.000565656905
-0.00074582058
-0.00072885398
-0.000519844971
-0.00056643414
-0.000746663031
-0.000730358987
-0.000524906999
-0.000580498915
-0.000745706587
-0.00073193238
-0.000498947744
-0.000498420755
-0.000593429109
-0.000740462172
-0.000739080129
-0.000740404385
-0.000733404111
-0.000485815915
-0.000484722527
-0.000602255627
-0.000741352139
-0.000737236017
-0.000531117059
-0.000585166144
-0.000744568774
-0.000735021122
-0.000532444736
-0.000572793363
-0.000745903994
-0.000736126283
-0.000522796531
-0.000572785166
-0.00074539102
-0.000736755867
-0.000474173715
-0.000472503286
-0.000600335718
-0.000741011252
-0.000744356734
-0.00051543243
-0.000568594021
-0.000743899682
-0.000740734708
-0.000492003336
-0.000491034844
-0.000554092661
-0.000539109735
-0.00059202919
-0.000739309158
-0.000744302035
-0.000740667587
-0.000742217373
-0.000744385532
-0.000496077763
-0.000495848855
-0.000518200202
-0.000601330101
-0.000742496282
-0.000742303357
-0.00074860688
-0.000548455668
-0.000544875006
-0.000744057161
-0.000742571035
-0.000486788227
-0.000464003032
-0.00058290915
-0.000740792706
-0.000749358081
-0.000491139189
-0.000489707413
-0.000550339415
-0.000526516816
-0.000597707577
-0.000743230061
-0.000747238863
-0.00053507512
-0.000518898933
-0.000596224135
-0.000737407373
-0.00074563323
-0.000740805659
-0.000745884594
-0.000744636512
-0.000494705687
-0.000429751036
-0.00055478841
-0.000738464452
-0.00075208682
-0.000519599493
-0.000531786561
-0.000741188447
-0.000749535578
-0.000522199849
-0.000548889526
-0.000743865063
-0.000743612153
-0.000744586669
-0.000744591058
-0.000479994053
-0.000450664792
-0.000526998753
-0.000495505093
-0.000578957704
-0.000736898536
-0.000749539413
-0.000539631848
-0.000569937941
-0.000741768791
-0.000744698925
-0.000744204476
-0.000540978824
-0.000477881728
-0.000553187132
-0.000513802604
-0.000597705171
-0.000737398251
-0.000749210982
-0.000740536377
-0.000750526608
-0.000548399383
-0.000512602996
-0.000733337829
-0.000745498733
-0.00053843923
-0.000512521935
-0.00073267445
-0.000740647831
-0.000558638011
-0.000461949943
-0.000502383488
-0.000730762463
-0.000744913009
-0.000741174551
-0.000746564217
-0.00057772744
-0.000487758132
-0.000487201809
-0.000486037895
-0.000712359177
-0.000738017339
-0.000594541614
-0.000490531899
-0.000488097695
-0.000715311157
-0.000743162404
-0.000735996314
-0.00074690532
-0.00059311476
-0.000519922984
-0.00064458727
-0.00074227887
-0.000594330502
-0.000548040756
-0.000518210945
-0.000510871062
-0.000608702627
-0.000732859108
-0.000598940065
-0.000601222385
-0.000607512522
-0.000732163748
-0.000742293542
-0.000632524037
-0.000592525817
-0.000522414419
-0.000501471467
-0.00058023805
-0.000729161303
-0.000660621828
-0.00060375748
-0.000544322712
-0.000519233492
-0.000589254956
-0.000730669471
-0.000733564029
-0.000595165023
-0.000503615707
-0.000590843296
-0.000731206213
-0.000685105477
-0.000595776073
-0.000596244564
-0.000738673251
-0.000709398095
-0.000580727437
-0.000606463084
-0.000738499881
-0.000741645866
-0.000735057739
-0.000743328283
-0.000565480528
-0.000545249887
-0.000753373061
-0.000739113838
-0.000579542915
-0.00042601079
-0.000551740163
-0.000706587737
-0.000753606489
-0.000725037978
-0.000592864791
-0.000505162771
-0.000538068533
-0.000481549405
-0.000597423049
-0.000744322016
-0.000747723889
-0.000737065967
-0.000743941848
-0.000563003406
-0.000529842003
-0.000753268023
-0.000744957676
-0.000564828652
-0.000485411597
-0.000523585809
-0.00053032079
-0.000494850808
-0.000602144122
-0.000746472228
-0.000745012861
-0.000744067404
-0.00074244775
-0.000601313315
-0.000511632141
-0.000548610814
-0.000501941754
-0.000584677201
-0.000744426948
-0.000747488665
-0.000589708262
-0.000582397049
-0.000747009582
-0.00074345794
-0.000573181192
-0.000572162935
-0.000746547467
-0.000741120605
-0.000567552198
-0.000571377374
-0.000745171107
-0.000743093011
-0.000556722798
-0.000598422981
-0.000749963902
-0.000742890027
-0.000745738001
-0.000613274221
-0.000539224573
-0.000472409536
-0.000587398761
-0.000742339608
-0.000633281522
-0.000503566677
-0.00058774934
-0.000741080306
-0.000596017337
-0.000500000943
-0.000520959655
-0.000481323789
-0.000522159746
-0.000660150322
-0.000746617679
-0.000734621968
-0.000594895226
-0.000534997452
-0.000677904797
-0.000739252615
-0.000595976554
-0.000490859906
-0.000567287676
-0.000668937778
-0.000740733548
-0.00073810798
-0.00074142032
-0.000593415419
-0.00046163769
-0.000563847592
-0.00073940628
-0.000744852562
-0.000545131888
-0.000570586935
-0.000748827845
-0.00074275897
-0.000582449413
-0.000603369374
-0.000609338101
-0.000604548983
-0.000601272017
-0.000750436976
-0.000737198236
-0.000557544367
-0.000589007299
-0.000746458185
-0.000729323589
-0.00054745541
-0.00059267246
-0.000745937076
-0.000725742979
-0.000540292762
-0.000593920677
-0.000746078798
-0.000723623294
-0.000535440146
-0.000595455213
-0.000746123954
-0.000720945636
-0.000532204708
-0.00059854521
-0.000746264802
-0.000714912436
-0.000529254805
-0.000603304507
-0.000748350417
-0.000712183187
-0.000536088405
-0.000615714128
-0.000753509296
-0.000729522117
-0.000578340413
-0.000599441196
-0.000587569118
-0.00057757257
-0.000560586144
-0.000552958515
-0.00058937393
-0.000751794484
-0.000735443916
-0.000521831004
-0.000500762165
-0.000589505738
-0.000732986599
-0.00074371092
-0.000727332277
-0.000484421359
-0.000479962033
-0.000597497054
-0.000735627775
-0.000732618005
-0.000554038152
-0.000609718143
-0.000736434588
-0.00073679257
-0.000733350038
-0.000475846456
-0.000467131963
-0.00059905926
-0.000736005506
-0.000729551684
-0.000530860197
-0.000597960928
-0.000745881864
-0.000722957403
-0.000548841974
-0.000597743893
-0.000750545337
-0.000696748875
-0.000594073032
-0.000728112773
-0.000728747933
-0.000476959946
-0.000475485424
-0.000548999052
-0.000524383067
-0.000600125369
-0.000745848379
-0.000740696972
-0.000593215541
-0.000552959506
-0.000658449398
-0.000733557562
-0.000556363236
-0.000564618811
-0.000744385054
-0.000731606132
-0.000468344223
-0.000466882062
-0.000502741864
-0.000586262632
-0.000741434476
-0.000743051737
-0.0007287739
-0.000741767553
-0.000725515509
-0.000739129816
-0.000726286931
-0.000452670239
-0.000450540061
-0.000541425856
-0.000532862932
-0.000594607816
-0.000737177788
-0.000743471115
-0.000421441926
-0.000412894605
-0.000604625577
-0.000741175876
-0.000739355424
-0.000739803286
-0.000740292068
-0.000561841277
-0.000495264455
-0.000567887093
-0.000568471162
-0.000592155013
-0.000743027578
-0.000749737983
-0.000546887499
-0.000581523751
-0.000745310561
-0.00074954141
-0.000530442946
-0.000592124518
-0.000743870582
-0.000589628566
-0.000505608132
-0.000528749026
-0.000593986005
-0.000744623395
-0.000745207606
-0.000528022437
-0.000576039202
-0.000744523003
-0.00074099557
-0.000530920632
-0.000569454415
-0.000745942154
-0.000738599475
-0.000528841038
-0.000565619119
-0.00074664998
-0.000737728862
-0.000526340771
-0.000562476242
-0.000746704338
-0.000737639347
-0.00052423263
-0.000559305845
-0.000746483872
-0.000737824564
-0.000522242492
-0.000555853304
-0.00074613539
-0.000738117161
-0.000519844116
-0.00055164117
-0.000745475668
-0.000738451987
-0.000516190015
-0.000546423767
-0.000744120841
-0.000738813196
-0.000504343145
-0.000539173234
-0.000742900664
-0.000739791734
-0.000449856057
-0.000447491592
-0.000540426635
-0.000539807378
-0.000594106902
-0.000738866945
-0.000749990948
-0.000554107689
-0.000578196362
-0.000743481676
-0.000750512392
-0.000550083512
-0.000571863514
-0.000745259418
-0.000750745843
-0.000524149357
-0.000593366992
-0.000753477909
-0.000572792416
-0.000593331124
-0.000745644991
-0.000593723943
-0.000511442483
-0.000587301074
-0.000739968116
-0.000756092854
-0.000559143396
-0.000546533191
-0.000734672873
-0.000755636184
-0.000570136385
-0.000585720993
-0.000742644261
-0.000586765489
-0.000579052661
-0.000587917818
-0.00058986819
-0.000583272362
-0.000713945026
-0.000750198475
-0.000595801779
-0.000538427998
-0.000495858698
-0.000494507568
-0.000691617167
-0.00074096803
-0.000735729658
-0.000748026446
-0.000745528135
-0.000587130054
-0.000458905633
-0.000443094365
-0.00063678161
-0.000734876475
-0.000591097707
-0.000516049063
-0.000595387696
-0.000736126039
-0.000743451437
-0.000597207797
-0.000527718553
-0.000501004131
-0.000478446196
-0.000585466603
-0.000729258587
-0.000594676555
-0.000521923192
-0.000583283393
-0.000731778823
-0.00075089636
-0.000736475469
-0.000745476963
-0.000740782713
-0.000604243351
-0.000516993727
-0.000501195004
-0.000487709212
-0.0004940147
-0.00049809157
-0.000472198703
-0.000587011882
-0.000744231947
-0.000748581273
-0.000735697109
-0.000743178562
-0.000737534853
-0.000741154321
-0.000734149161
-0.000605961174
-0.000499168108
-0.000493621034
-0.000493549938
-0.000496442389
-0.000489900081
-0.000590279339
-0.000744649017
-0.000745250315
-0.000728370143
-0.000598878533
-0.000490922218
-0.000518089238
-0.00061235211
-0.000747020708
-0.000727620172
-0.000586958171
-0.000523678389
-0.000532429143
-0.000524929403
-0.000583218183
-0.000673600367
-0.000739275782
-0.000732038855
-0.000740480673
-0.000725799941
-0.00059158921
-0.000517461468
-0.000517718178
-0.000586511358
-0.000685542192
-0.000730704667
-0.000597871373
-0.000543502657
-0.000639366372
-0.000742927258
-0.000748109741
-0.000735245876
-0.000587775067
-0.000486717044
-0.000545357253
-0.000652243173
-0.000739018048
-0.000596424315
-0.000551560252
-0.000564474573
-0.00058709424
-0.00058178272
-0.000582299721
-0.000563330166
-0.000590900747
-0.000754237628
-0.000741370457
-0.000588439124
-0.000497847154
-0.000531942052
-0.000538902617
-0.000591424759
-0.000747465596
-0.000746890371
-0.000592818994
-0.000586184043
-0.000745807281
-0.00074839061
-0.00060407654
-0.000593008618
-0.000714552335
-0.000748545199
-0.000734078971
-0.000599908096
-0.000563240809
-0.00075202565
-0.000753118275
-0.000571332919
-0.000595564554
-0.000742496667
-0.000751999513
-0.000740578031
-0.000586287925
-0.000501812468
-0.000519448217
-0.000578385634
-0.000752535863
-0.000747643332
-0.000551400466
-0.000462028033
-0.000561757886
-0.00074223562
-0.000753660105
-0.000545863123
-0.000510120066
-0.000527143419
-0.000597244355
-0.000741357064
-0.000748305511
-0.000746615186
-0.000587950907
-0.000467909964
-0.000593364644
-0.000736976593
-0.000753760198
-0.000556337324
-0.000541582337
-0.000737121456
-0.000747816347
-0.000552617466
-0.000535501679
-0.000739151953
-0.000746485726
-0.000541124717
-0.000525149784
-0.000740491184
-0.000746813712
-0.000526465296
-0.000514956251
-0.000742171394
-0.000746703774
-0.000518725384
-0.000501966822
-0.000498771126
-0.000592771834
-0.000744645595
-0.000745393366
-0.000746180612
-0.000569581878
-0.000494061078
-0.00051983632
-0.000558013558
-0.000741987492
-0.000745689854
-0.000556711241
-0.000567461742
-0.00074534605
-0.000740903843
-0.000744025036
-0.00056972926
-0.000513224583
-0.000749602823
-0.000738105882
-0.000541700088
-0.000460166882
-0.000551953642
-0.000740469078
-0.000749772894
-0.000541527191
-0.000525142754
-0.000741336228
-0.000748548122
-0.00053375057
-0.000521143644
-0.000741974946
-0.000746503891
-0.000524558651
-0.000513423116
-0.000512056711
-0.000600409119
-0.000741426779
-0.000750118424
-0.000742018816
-0.000752745408
-0.000523154256
-0.000481979093
-0.000741569721
-0.000747276669
-0.000499830837
-0.000492591288
-0.000493611469
-0.000591529638
-0.000746233958
-0.000746032795
-0.00074876208
-0.000569281647
-0.000525052705
-0.000741866153
-0.000747342316
-0.000531348854
-0.000520630536
-0.000513672466
-0.000582250353
-0.00074228653
-0.000743643786
-0.000742662611
-0.000746375287
-0.000743361832
-0.00074708005
-0.000496965148
-0.0004642144
-0.000539420726
-0.000516861499
-0.000590600839
-0.000740431489
-0.000748953578
-0.000526654851
-0.000500036821
-0.000592374985
-0.000742876522
-0.000749175551
-0.000528579236
-0.000510448166
-0.000590081527
-0.000740822415
-0.000751546074
-0.000534989471
-0.00056095381
-0.000743162728
-0.00074428869
-0.000499904228
-0.000475919843
-0.000601127935
-0.000742293834
-0.000747764234
-0.00048334742
-0.000481517494
-0.000543322767
-0.000521236119
-0.000594366648
-0.000741563706
-0.000747351067
-0.000542045796
-0.000601121677
-0.000743215671
-0.000743286707
-0.000742125839
-0.000742058601
-0.000740419749
-0.000740631403
-0.000472440694
-0.000547661664
-0.000740928498
-0.000739382506
-0.000739427244
-0.000443430703
-0.000440049698
-0.00050623234
-0.000506694416
-0.00053694885
-0.000558155876
-0.000559174584
-0.000592219857
-0.000743880624
-0.000745414404
-0.00074283933
-0.000744757031
-0.000740442695
-0.00074292824
-0.000736401092
-0.000445164311
-0.000445077912
-0.00051061733
-0.000502732455
-0.000553990352
-0.000528750095
-0.000593180483
-0.000743184595
-0.000743294118
-0.00073748046
-0.000543548478
-0.000597844214
-0.000737386118
-0.00057538733
-0.000577824837
-0.000743155838
-0.000736910266
-0.000523340779
-0.000524027141
-0.000542437775
-0.000597995367
-0.000744787002
-0.000738674711
-0.000744087392
-0.000735022616
-0.000519722998
-0.000542908086
-0.000744846705
-0.000734888814
-0.00050884407
-0.000543830391
-0.000744774662
-0.000734786659
-0.000501568862
-0.00054182383
-0.000744000642
-0.000735574402
-0.000480027186
-0.000479537619
-0.000512414609
-0.000601667221
-0.000744351846
-0.000735666922
-0.000743052256
-0.000733523068
-0.00050941666
-0.000563835973
-0.000742808768
-0.000732697232
-0.000470426011
-0.000468347396
-0.00060049914
-0.000739191468
-0.000736970153
-0.000491154286
-0.000490459244
-0.000599894368
-0.000739475869
-0.000737124383
-0.00053674494
-0.000598568359
-0.000742531258
-0.000734182236
-0.00054326917
-0.000597410767
-0.000742742393
-0.000735027616
-0.000528285462
-0.000607719197
-0.000739675159
-0.000741018234
-0.000735647165
-0.000540786679
-0.00056173676
-0.000743356078
-0.000732577915
-0.000491823009
-0.000490818619
-0.000538137499
-0.000604069994
-0.000743835838
-0.000735756145
-0.000493045785
-0.000491610406
-0.000597879817
-0.000739645491
-0.000738728624
-0.000511018863
-0.000511144642
-0.000557097718
-0.000600754797
-0.000745644552
-0.000735996117
-0.000523664912
-0.000523468698
-0.000591829594
-0.000736434208
-0.000745043032
-0.00073446995
-0.000742766802
-0.000733356375
-0.000456965353
-0.000451659379
-0.000594872562
-0.000736563193
-0.000734985373
-0.000736945941
-0.000730891358
-0.00043461055
-0.000433879446
-0.000511468929
-0.000514668213
-0.000538558453
-0.000556003525
-0.000567980811
-0.000612431985
-0.000743021604
-0.00073577567
-0.000741739435
-0.000732454917
-0.000739976091
-0.000730170915
-0.000477360947
-0.000475683392
-0.000598947862
-0.00073756984
-0.000738641665
-0.000492509715
-0.000558765786
-0.000740631053
-0.00073968174
-0.000460154221
-0.000574622039
-0.000739072824
-0.000740239353
-0.000738867253
-0.00044963297
-0.000448866983
-0.000534639611
-0.000551217287
-0.000557068378
-0.000596688008
-0.000743451761
-0.000741623062
-0.000521025888
-0.000521608017
-0.000637575903
-0.000734562205
-0.00073812452
-0.000736170991
-0.00074100495
-0.000739438435
-0.000485704468
-0.00048486495
-0.000556219387
-0.000548634575
-0.000591159896
-0.000742846132
-0.00074766014
-0.000563341423
-0.000595296064
-0.000744945372
-0.000744637816
-0.000532279055
-0.00053253007
-0.00054585283
-0.000594056131
-0.000742270558
-0.000741814798
-0.000742366302
-0.000521341321
-0.000519624248
-0.00055650247
-0.00058134072
-0.000627738783
-0.000742629115
-0.000739919096
-0.000551719551
-0.000576988957
-0.000746359297
-0.00074152135
-0.000485863669
-0.000485045392
-0.000593908938
-0.000743667442
-0.000745237188
-0.000742785084
-0.000742585087
-0.000471634302
-0.000470071226
-0.000515716597
-0.000586799773
-0.000742784039
-0.000741828882
-0.00051914119
-0.000551982833
-0.000743933934
-0.000741205067
-0.000503134675
-0.000542036993
-0.000744931189
-0.000739062379
-0.000474799318
-0.000473678041
-0.000587163718
-0.000743338602
-0.000742103623
-0.000742689824
-0.000741038946
-0.000742125241
-0.000739206017
-0.000439054019
-0.000437680757
-0.000515374542
-0.000490092267
-0.000592577483
-0.000741080517
-0.000743548323
-0.000537146967
-0.000546224704
-0.000555577159
-0.000604945793
-0.000740727554
-0.000728728196
-0.000739460188
-0.000723540242
-0.000514212488
-0.000534285885
-0.000742184312
-0.000739205006
-0.000490845594
-0.000601860824
-0.000746508863
-0.000545359342
-0.000539728408
-0.000744189038
-0.000743435646
-0.000495950409
-0.000495565257
-0.000552841549
-0.000533778997
-0.00059247437
-0.000742304657
-0.000745682191
-0.000742639022
-0.000745822283
-0.000511202371
-0.000509044953
-0.00056219586
-0.000527555623
-0.000597970913
-0.000744802437
-0.000744355708
-0.000518159712
-0.000502818511
-0.000587924429
-0.000744931411
-0.000743101439
-0.000745825455
-0.00074259664
-0.000747039749
-0.000478269249
-0.00047442847
-0.000493301723
-0.000541353865
-0.000743440072
-0.000745897676
-0.000743229833
-0.000748824591
-0.000486939366
-0.000491391967
-0.00050271505
-0.000550577745
-0.000744987262
-0.000747784193
-0.000745878448
-0.00074977554
-0.000487315924
-0.000529889047
-0.000750186021
-0.000745419015
-0.000751043907
-0.000524075973
-0.000508001871
-0.000744924541
-0.00074859099
-0.000533747286
-0.000531601334
-0.000746613464
-0.000745326229
-0.000529255436
-0.000525507139
-0.000548667783
-0.00054858993
-0.000567496679
-0.000561532343
-0.000592733699
-0.000741847071
-0.00074832155
-0.000549590115
-0.000573977675
-0.000746502409
-0.000744089712
-0.000745970758
-0.000537025376
-0.000503161047
-0.00074448045
-0.000738686047
-0.000500245009
-0.000456344984
-0.000511289762
-0.00043217944
-0.000518334052
-0.000735289941
-0.000741048159
-0.000736022944
-0.000742652795
-0.000735869241
-0.000743710215
-0.000735678135
-0.000503597961
-0.000408782942
-0.000512315821
-0.000738390566
-0.000740399056
-0.000509792928
-0.000509437816
-0.000743191725
-0.000740623396
-0.000559483651
-0.000465737137
-0.000581345652
-0.000743792561
-0.000742739131
-0.000743030104
-0.000559878016
-0.000501760335
-0.000748362377
-0.000740372944
-0.000553978985
-0.00047018359
-0.000525389115
-0.000743010724
-0.00074756069
-0.000564294094
-0.000552642874
-0.000537025385
-0.000577521444
-0.0007480275
-0.000746897555
-0.000593137804
-0.000506969869
-0.000543301879
-0.00074918993
-0.000745844028
-0.000589665399
-0.000555722709
-0.00054734269
-0.000544941249
-0.000747010118
-0.000738952881
-0.000595691797
-0.000741678648
-0.000747816722
-0.000533711235
-0.00053751787
-0.000746536586
-0.000746982654
-0.000745670006
-0.00059382128
-0.000519111837
-0.00052120058
-0.000521395988
-0.000745377733
-0.000745186639
-0.00074339006
-0.000747144018
-0.000591220889
-0.000547561091
-0.000548092186
-0.000552728281
-0.000496853312
-0.000544283292
-0.00075073453
-0.000746165816