/*--------------------------------*- C++ -*----------------------------------*\
| =========                 |                                                 |
| \\      /  F ield         | OpenFOAM: The Open Source CFD Toolbox           |
|  \\    /   O peration     | Version:  2306                                  |
|   \\  /    A nd           | Website:  www.openfoam.com                      |
|    \\/     M anipulation  |                                                 |
\*---------------------------------------------------------------------------*/
FoamFile
{
    version     2.0;
    format      ascii;
    arch        "LSB;label=32;scalar=64";
    class       volScalarField;
    location    "0.00012";
    object      prefDZ_H2;
}
// * * * * * * * * * * * * * * * * * * * * * * * * * * * * * * * * * * * * * //

dimensions      [1 -1 -1 0 0 0 0];

internalField   nonuniform List<scalar> 
3810
(
6.15009351e-05
6.23285682e-05
6.35785302e-05
6.35517031e-05
6.22989854e-05
6.35304805e-05
6.35651602e-05
6.15513394e-05
6.15515532e-05
6.20218485e-05
6.1922484e-05
6.23074107e-05
6.35608513e-05
6.35768199e-05
6.35712309e-05
6.16021772e-05
6.15798898e-05
6.19983943e-05
6.17888111e-05
6.23011835e-05
6.35499776e-05
6.35893469e-05
6.35493996e-05
6.35734818e-05
6.13228425e-05
6.11997354e-05
6.21531029e-05
6.35557625e-05
6.36032237e-05
6.15579721e-05
6.18810983e-05
6.3571911e-05
6.35599824e-05
6.12750253e-05
6.12639959e-05
6.17568494e-05
6.15504503e-05
6.22960443e-05
6.35374691e-05
6.36091619e-05
6.35394609e-05
6.35952641e-05
6.35587383e-05
6.35674825e-05
6.35448446e-05
6.16128082e-05
6.19875179e-05
6.35602166e-05
6.3532344e-05
6.35350937e-05
6.14148205e-05
6.10683544e-05
6.20945595e-05
6.35359654e-05
6.35257479e-05
6.15199507e-05
6.16251093e-05
6.17137703e-05
6.23196652e-05
6.35610924e-05
6.35026446e-05
6.1571688e-05
6.15616605e-05
6.22524244e-05
6.35358903e-05
6.35357656e-05
6.17228407e-05
6.22721627e-05
6.3557798e-05
6.35663225e-05
6.35183551e-05
6.15544937e-05
6.12710573e-05
6.22210808e-05
6.35454197e-05
6.35049154e-05
6.16374542e-05
6.2070312e-05
6.35685607e-05
6.34715106e-05
6.15077399e-05
6.14947891e-05
6.18891717e-05
6.17471072e-05
6.23061266e-05
6.35828551e-05
6.35930452e-05
6.35383031e-05
6.35804153e-05
6.34894306e-05
6.15616079e-05
6.14065129e-05
6.23072603e-05
6.35396261e-05
6.35134883e-05
6.16912241e-05
6.21498409e-05
6.35653835e-05
6.34961749e-05
6.14893324e-05
6.14818209e-05
6.22845829e-05
6.3568024e-05
6.35017882e-05
6.15417528e-05
6.15301671e-05
6.22569105e-05
6.35548835e-05
6.35298318e-05
6.17104218e-05
6.22141164e-05
6.35761214e-05
6.35224951e-05
6.35644947e-05
6.3485062e-05
6.1475146e-05
6.14697505e-05
6.16706466e-05
6.2313465e-05
6.35753203e-05
6.35276877e-05
6.35646464e-05
6.34850425e-05
6.17111381e-05
6.19154699e-05
6.35663679e-05
6.34944627e-05
6.16047335e-05
6.16001401e-05
6.17929441e-05
6.22492969e-05
6.35736886e-05
6.35158055e-05
6.17994889e-05
6.20212113e-05
6.35858742e-05
6.3495661e-05
6.17104994e-05
6.19374403e-05
6.35940932e-05
6.3492794e-05
6.16227586e-05
6.19380309e-05
6.35918672e-05
6.34834655e-05
6.13599609e-05
6.13408265e-05
6.17925782e-05
6.15918376e-05
6.23018968e-05
6.3591473e-05
6.35954132e-05
6.35644591e-05
6.35668082e-05
6.35345312e-05
6.14531051e-05
6.14519096e-05
6.17159381e-05
6.21817761e-05
6.3568852e-05
6.35613982e-05
6.17625438e-05
6.23036539e-05
6.35744429e-05
6.35849107e-05
6.35420998e-05
6.3572549e-05
6.35213105e-05
6.14184362e-05
6.12379218e-05
6.18256259e-05
6.15580173e-05
6.23120673e-05
6.35568407e-05
6.35656515e-05
6.17227803e-05
6.17212158e-05
6.21936141e-05
6.36044709e-05
6.35334672e-05
6.23063984e-05
6.35443331e-05
6.35608413e-05
6.15749921e-05
6.15725772e-05
6.19645081e-05
6.17700744e-05
6.22961276e-05
6.35928013e-05
6.35913801e-05
6.35859345e-05
6.35770237e-05
6.35696956e-05
6.35701598e-05
6.14683796e-05
6.14387329e-05
6.16546878e-05
6.20044023e-05
6.35631559e-05
6.35842319e-05
6.17195222e-05
6.19303435e-05
6.35756692e-05
6.3582359e-05
6.16742941e-05
6.19419268e-05
6.35901475e-05
6.35718178e-05
6.14726336e-05
6.21158259e-05
6.36219471e-05
6.17981554e-05
6.16779011e-05
6.18447307e-05
6.20436061e-05
6.3569807e-05
6.36099772e-05
6.17950572e-05
6.19620772e-05
6.18159002e-05
6.22994504e-05
6.35917054e-05
6.35900399e-05
6.36046518e-05
6.35787317e-05
6.36105961e-05
6.15982095e-05
6.14714546e-05
6.16365693e-05
6.18309937e-05
6.35726605e-05
6.36034716e-05
6.17266119e-05
6.18669072e-05
6.17074737e-05
6.23166166e-05
6.35981811e-05
6.35859093e-05
6.35965863e-05
6.21143762e-05
6.17762287e-05
6.36195628e-05
6.35593111e-05
6.19017976e-05
6.14862914e-05
6.20423106e-05
6.3561973e-05
6.36007282e-05
6.18442097e-05
6.18527862e-05
6.36035867e-05
6.35681884e-05
6.19193109e-05
6.14626074e-05
6.20534689e-05
6.35603671e-05
6.36051296e-05
6.18336559e-05
6.19837029e-05
6.35912354e-05
6.35757128e-05
6.35893114e-05
6.2045446e-05
6.17036279e-05
6.36073267e-05
6.35546322e-05
6.18357512e-05
6.13482644e-05
6.19312943e-05
6.35566306e-05
6.360943e-05
6.18730528e-05
6.18440067e-05
6.18423736e-05
6.23015958e-05
6.35483137e-05
6.3622097e-05
6.35487632e-05
6.3622785e-05
6.19050618e-05
6.17101271e-05
6.35870867e-05
6.35515625e-05
6.17436003e-05
6.13156653e-05
6.20020491e-05
6.35401264e-05
6.36052164e-05
6.1672918e-05
6.18037716e-05
6.35828703e-05
6.35740846e-05
6.16213698e-05
6.12764285e-05
6.20465785e-05
6.35458095e-05
6.36201703e-05
6.15576173e-05
6.19944316e-05
6.35489039e-05
6.36140185e-05
6.35432395e-05
6.36196254e-05
6.1118308e-05
6.10793077e-05
6.1590336e-05
6.18094643e-05
6.18892973e-05
6.23083845e-05
6.35305087e-05
6.35871244e-05
6.35533294e-05
6.35807399e-05
6.35831031e-05
6.17930802e-05
6.17708563e-05
6.35839685e-05
6.35346997e-05
6.14442767e-05
6.13430678e-05
6.23211047e-05
6.35299641e-05
6.35994802e-05
6.16570511e-05
6.20677339e-05
6.35499743e-05
6.35622962e-05
6.16644671e-05
6.20719443e-05
6.35632972e-05
6.35249744e-05
6.12950668e-05
6.1258011e-05
6.23210219e-05
6.35228615e-05
6.35543567e-05
6.15250705e-05
6.15217422e-05
6.18337467e-05
6.23355366e-05
6.35424202e-05
6.35590858e-05
6.16859328e-05
6.23521195e-05
6.3521208e-05
6.35543389e-05
6.3511691e-05
6.17616242e-05
6.18298882e-05
6.35553226e-05
6.34955583e-05
6.14111216e-05
6.14017333e-05
6.19160809e-05
6.23327889e-05
6.35274126e-05
6.35508364e-05
6.34643516e-05
6.35305218e-05
6.34436271e-05
6.10048975e-05
6.09420549e-05
6.23529693e-05
6.3494544e-05
6.35066769e-05
6.11874284e-05
6.11823716e-05
6.17832205e-05
6.19367374e-05
6.19941453e-05
6.23365297e-05
6.35589668e-05
6.35266642e-05
6.19261236e-05
6.23562866e-05
6.35508965e-05
6.34731793e-05
6.35393571e-05
6.34199286e-05
6.35271482e-05
6.34156407e-05
6.09163666e-05
6.0874821e-05
6.17257743e-05
6.16202488e-05
6.23272816e-05
6.35236392e-05
6.35252411e-05
6.17465746e-05
6.23801924e-05
6.35482969e-05
6.3467894e-05
6.35391706e-05
6.34509776e-05
6.10566319e-05
6.10267987e-05
6.17643931e-05
6.1640535e-05
6.2312552e-05
6.35305955e-05
6.35455995e-05
6.17428313e-05
6.22649869e-05
6.35557815e-05
6.35357762e-05
6.17138697e-05
6.23422216e-05
6.3548474e-05
6.35601897e-05
6.35126104e-05
6.35439678e-05
6.34888538e-05
6.10016281e-05
6.09911143e-05
6.16687116e-05
6.18618288e-05
6.1980458e-05
6.23163069e-05
6.35568366e-05
6.35715764e-05
6.3533203e-05
6.3561054e-05
6.35083139e-05
6.35414902e-05
6.34798378e-05
6.10994676e-05
6.1095859e-05
6.15396007e-05
6.21541732e-05
6.35505393e-05
6.35052634e-05
6.15195492e-05
6.19206641e-05
6.35689978e-05
6.34836199e-05
6.12934214e-05
6.12764503e-05
6.18098038e-05
6.16237977e-05
6.23017894e-05
6.35378125e-05
6.35598742e-05
6.17082215e-05
6.2038409e-05
6.35560597e-05
6.35395755e-05
6.17162183e-05
6.17304908e-05
6.19393895e-05
6.23160646e-05
6.35673165e-05
6.35791196e-05
6.3555965e-05
6.35720982e-05
6.3539161e-05
6.35584952e-05
6.34882576e-05
6.13791474e-05
6.14478767e-05
6.35506309e-05
6.34641839e-05
6.11071264e-05
6.10864218e-05
6.1684006e-05
6.14366429e-05
6.22821044e-05
6.35327779e-05
6.3532518e-05
6.14596666e-05
6.14560473e-05
6.22743477e-05
6.35611376e-05
6.35453059e-05
6.35524384e-05
6.35074079e-05
6.14985158e-05
6.16393496e-05
6.35447924e-05
6.34987416e-05
6.15998997e-05
6.17664532e-05
6.35559997e-05
6.34944658e-05
6.1540037e-05
6.17975639e-05
6.35746962e-05
6.34962471e-05
6.13609173e-05
6.13492156e-05
6.18713289e-05
6.17695732e-05
6.23010767e-05
6.35715129e-05
6.35853573e-05
6.35674518e-05
6.35699001e-05
6.35602308e-05
6.3549169e-05
6.15396779e-05
6.1534306e-05
6.19980415e-05
6.17120566e-05
6.2305235e-05
6.35764503e-05
6.35630267e-05
6.15264956e-05
6.15206691e-05
6.22174797e-05
6.35783457e-05
6.35851535e-05
6.16478763e-05
6.20427329e-05
6.35788798e-05
6.35802844e-05
6.16623202e-05
6.21688485e-05
6.35831934e-05
6.35593145e-05
6.35719612e-05
6.35456463e-05
6.1200041e-05
6.11127028e-05
6.21277385e-05
6.35702712e-05
6.35693928e-05
6.14480952e-05
6.14383628e-05
6.2302873e-05
6.35636284e-05
6.35664068e-05
6.35468108e-05
6.35724983e-05
6.13386808e-05
6.13326159e-05
6.17782391e-05
6.19395804e-05
6.19776768e-05
6.23108049e-05
6.35513642e-05
6.36146775e-05
6.19561617e-05
6.22246289e-05
6.35570899e-05
6.36123443e-05
6.16498151e-05
6.23260796e-05
6.35725173e-05
6.35631213e-05
6.35937356e-05
6.14758522e-05
6.14425454e-05
6.17110942e-05
6.22181856e-05
6.35674757e-05
6.35779268e-05
6.35788749e-05
6.16426378e-05
6.14248108e-05
6.231307e-05
6.35643844e-05
6.3626581e-05
6.17366661e-05
6.23082332e-05
6.35784648e-05
6.35686954e-05
6.35737826e-05
6.35697469e-05
6.14095843e-05
6.13729661e-05
6.18907565e-05
6.17141908e-05
6.22915548e-05
6.35496123e-05
6.36308851e-05
6.18647486e-05
6.21681328e-05
6.35642447e-05
6.36153523e-05
6.16825007e-05
6.23119516e-05
6.35736847e-05
6.35891397e-05
6.35656795e-05
6.16065861e-05
6.1158764e-05
6.22099583e-05
6.35804365e-05
6.35644546e-05
6.14437916e-05
6.14372066e-05
6.21105157e-05
6.35772313e-05
6.35777216e-05
6.16539826e-05
6.19475329e-05
6.35879416e-05
6.35571739e-05
6.17070235e-05
6.18831395e-05
6.359313e-05
6.35409642e-05
6.17327109e-05
6.17337466e-05
6.1851041e-05
6.23084377e-05
6.35819091e-05
6.35667817e-05
6.35668522e-05
6.35216216e-05
6.16247663e-05
6.23100936e-05
6.35613398e-05
6.35760897e-05
6.35167356e-05
6.15335759e-05
6.12250575e-05
6.22746094e-05
6.35673475e-05
6.34601169e-05
6.16127023e-05
6.16018337e-05
6.19758409e-05
6.18548685e-05
6.2317861e-05
6.35487252e-05
6.347348e-05
6.19478197e-05
6.23141757e-05
6.35635786e-05
6.34462559e-05
6.18746396e-05
6.21672625e-05
6.35696318e-05
6.34238423e-05
6.1750476e-05
6.20631443e-05
6.35713592e-05
6.34069656e-05
6.16068972e-05
6.19891776e-05
6.3568088e-05
6.34171508e-05
6.13883939e-05
6.13758981e-05
6.16949796e-05
6.18791615e-05
6.18279642e-05
6.23150379e-05
6.35719348e-05
6.34838223e-05
6.35680771e-05
6.33916663e-05
6.17089519e-05
6.20347247e-05
6.35846994e-05
6.34151799e-05
6.16858974e-05
6.20411407e-05
6.35918561e-05
6.34292451e-05
6.17257212e-05
6.21534215e-05
6.35836662e-05
6.34511364e-05
6.15210094e-05
6.15090287e-05
6.2299364e-05
6.35392706e-05
6.35271673e-05
6.35383538e-05
6.34607623e-05
6.14145448e-05
6.14014909e-05
6.23427133e-05
6.35461057e-05
6.34933587e-05
6.1770976e-05
6.21898152e-05
6.35754873e-05
6.34741229e-05
6.17836175e-05
6.20914423e-05
6.35862994e-05
6.34838408e-05
6.17082218e-05
6.2092536e-05
6.35794233e-05
6.34950202e-05
6.13263603e-05
6.13057286e-05
6.23198604e-05
6.35416935e-05
6.355858e-05
6.16472293e-05
6.20636392e-05
6.35675345e-05
6.3529496e-05
6.14658221e-05
6.14527537e-05
6.19544939e-05
6.1830885e-05
6.23070818e-05
6.35350573e-05
6.35792184e-05
6.3535969e-05
6.35573104e-05
6.35581709e-05
6.14950437e-05
6.14925528e-05
6.1667151e-05
6.2338919e-05
6.35534595e-05
6.35634474e-05
6.35979803e-05
6.19075644e-05
6.18778383e-05
6.3570335e-05
6.35524079e-05
6.14254949e-05
6.12409968e-05
6.21818585e-05
6.35384481e-05
6.36121505e-05
6.14566946e-05
6.14463634e-05
6.19228473e-05
6.17331847e-05
6.23157862e-05
6.35642208e-05
6.35999178e-05
6.18053329e-05
6.1672742e-05
6.23071193e-05
6.35126566e-05
6.35899814e-05
6.35370601e-05
6.35868923e-05
6.35669017e-05
6.14900127e-05
6.09735638e-05
6.19625774e-05
6.35170726e-05
6.36383465e-05
6.16788306e-05
6.17819218e-05
6.35443291e-05
6.3616757e-05
6.17021853e-05
6.191156e-05
6.35639435e-05
6.35649189e-05
6.35703643e-05
6.35699819e-05
6.13734419e-05
6.11379137e-05
6.17417915e-05
6.1486028e-05
6.21521087e-05
6.35071643e-05
6.36225416e-05
6.18352974e-05
6.20795318e-05
6.35452276e-05
6.35802405e-05
6.35666474e-05
6.18541763e-05
6.13517909e-05
6.19488799e-05
6.16311666e-05
6.23086433e-05
6.35105051e-05
6.36182155e-05
6.35415378e-05
6.36250233e-05
6.19071193e-05
6.16300064e-05
6.34669162e-05
6.35816686e-05
6.18286233e-05
6.16252367e-05
6.34571738e-05
6.3539032e-05
6.19936671e-05
6.12242448e-05
6.1546451e-05
6.34412392e-05
6.35768489e-05
6.35423733e-05
6.35890977e-05
6.21473723e-05
6.14321625e-05
6.14237584e-05
6.14160831e-05
6.32713388e-05
6.35162746e-05
6.23067551e-05
6.14444786e-05
6.14300218e-05
6.32961687e-05
6.35618235e-05
6.35000399e-05
6.35933847e-05
6.23069191e-05
6.16878596e-05
6.27611128e-05
6.35474768e-05
6.23370509e-05
6.19058428e-05
6.16664985e-05
6.16098531e-05
6.24811256e-05
6.34695523e-05
6.23826593e-05
6.23216492e-05
6.24728523e-05
6.3463782e-05
6.35563229e-05
6.26652217e-05
6.22604418e-05
6.17046824e-05
6.15361076e-05
6.22246875e-05
6.34276692e-05
6.28827773e-05
6.23504225e-05
6.18734651e-05
6.16722272e-05
6.22711143e-05
6.34404983e-05
6.34634791e-05
6.22934475e-05
6.15432607e-05
6.22760883e-05
6.34461944e-05
6.30675039e-05
6.22765419e-05
6.2318471e-05
6.35150639e-05
6.32488418e-05
6.21556591e-05
6.23586452e-05
6.35014705e-05
6.3543983e-05
6.3487102e-05
6.35506316e-05
6.20391865e-05
6.18739558e-05
6.36304239e-05
6.35152477e-05
6.21598216e-05
6.09351491e-05
6.19447008e-05
6.32279957e-05
6.36548548e-05
6.33923953e-05
6.22728632e-05
6.15533684e-05
6.18330401e-05
6.13719844e-05
6.23024855e-05
6.35604629e-05
6.35998454e-05
6.35060961e-05
6.35624926e-05
6.20149929e-05
6.17605379e-05
6.36303882e-05
6.35653143e-05
6.20324442e-05
6.14087748e-05
6.17073392e-05
6.17627361e-05
6.14804886e-05
6.23383082e-05
6.35816066e-05
6.35782466e-05
6.35678212e-05
6.35505454e-05
6.23303911e-05
6.16117747e-05
6.19122934e-05
6.15353465e-05
6.21966886e-05
6.35720069e-05
6.3599119e-05
6.22271296e-05
6.21750341e-05
6.35920224e-05
6.35631043e-05
6.20978947e-05
6.2092434e-05
6.35874631e-05
6.35392467e-05
6.20537863e-05
6.20859799e-05
6.35751607e-05
6.35509541e-05
6.1971541e-05
6.23027546e-05
6.3614147e-05
6.35652913e-05
6.35829172e-05
6.25141586e-05
6.18444446e-05
6.13091524e-05
6.22541375e-05
6.35469856e-05
6.26738451e-05
6.15538912e-05
6.22704687e-05
6.35385832e-05
6.23719593e-05
6.15250966e-05
6.16970341e-05
6.13759511e-05
6.17077902e-05
6.2879084e-05
6.35977891e-05
6.34834046e-05
6.23131647e-05
6.1799063e-05
6.30131158e-05
6.35258178e-05
6.23078462e-05
6.14486e-05
6.20628079e-05
6.29456552e-05
6.35421489e-05
6.35198954e-05
6.35349966e-05
6.22651231e-05
6.12174199e-05
6.20327132e-05
6.3515893e-05
6.35603941e-05
6.18732462e-05
6.20757072e-05
6.36044185e-05
6.35376826e-05
6.21758294e-05
6.23575338e-05
6.24827309e-05
6.23480831e-05
6.23309465e-05
6.36183758e-05
6.34898575e-05
6.19754783e-05
6.22184494e-05
6.35821701e-05
6.34176291e-05
6.18949243e-05
6.22439697e-05
6.35785606e-05
6.33831161e-05
6.18395476e-05
6.2252469e-05
6.35797188e-05
6.33620211e-05
6.18020146e-05
6.2263848e-05
6.3580087e-05
6.33364902e-05
6.17771311e-05
6.22886035e-05
6.35813192e-05
6.32887555e-05
6.17550485e-05
6.23278436e-05
6.35990408e-05
6.32682467e-05
6.18128085e-05
6.24273745e-05
6.36464558e-05
6.34088297e-05
6.21507731e-05
6.22986739e-05
6.22756803e-05
6.21332696e-05
6.20111647e-05
6.19449013e-05
6.22843675e-05
6.36309326e-05
6.34766161e-05
6.16989261e-05
6.15233936e-05
6.22878935e-05
6.34767772e-05
6.35697904e-05
6.33922284e-05
6.13995411e-05
6.13570409e-05
6.23545106e-05
6.34964344e-05
6.34338896e-05
6.19445328e-05
6.23903863e-05
6.35064357e-05
6.3512119e-05
6.34458266e-05
6.13301957e-05
6.12588448e-05
6.23554564e-05
6.34982166e-05
6.34110978e-05
6.1764467e-05
6.22845475e-05
6.35816876e-05
6.33618455e-05
6.19118363e-05
6.22799664e-05
6.36249631e-05
6.31543309e-05
6.23102552e-05
6.34162729e-05
6.3405239e-05
6.13367893e-05
6.13205988e-05
6.19059889e-05
6.17042569e-05
6.23260426e-05
6.35715859e-05
6.35400716e-05
6.23091101e-05
6.19409994e-05
6.28661902e-05
6.34671683e-05
6.19623842e-05
6.20302491e-05
6.35664496e-05
6.34406507e-05
6.12730173e-05
6.12630363e-05
6.15387074e-05
6.22078574e-05
6.35417484e-05
6.35630769e-05
6.34276363e-05
6.35481758e-05
6.33960432e-05
6.35246865e-05
6.33916134e-05
6.11529685e-05
6.11312095e-05
6.18498244e-05
6.17772586e-05
6.23429705e-05
6.3508557e-05
6.35505988e-05
6.09085143e-05
6.08415271e-05
6.23577636e-05
6.35372054e-05
6.35303567e-05
6.35320567e-05
6.35269565e-05
6.20093245e-05
6.14854683e-05
6.20612765e-05
6.20622615e-05
6.23225413e-05
6.35656075e-05
6.36049079e-05
6.18958551e-05
6.21714457e-05
6.35820622e-05
6.3602101e-05
6.17663798e-05
6.22862353e-05
6.35627943e-05
6.23056589e-05
6.15718699e-05
6.17569125e-05
6.23375851e-05
6.35754269e-05
6.3564439e-05
6.17469927e-05
6.21231043e-05
6.357474e-05
6.35270954e-05
6.17711777e-05
6.20676571e-05
6.35867842e-05
6.35064693e-05
6.17560772e-05
6.20357833e-05
6.3592518e-05
6.34992089e-05
6.17368142e-05
6.20104162e-05
6.3592791e-05
6.3498746e-05
6.17201872e-05
6.19852819e-05
6.35908022e-05
6.35007087e-05
6.17043309e-05
6.19581346e-05
6.35877369e-05
6.35036481e-05
6.16851161e-05
6.19251549e-05
6.3582006e-05
6.35070203e-05
6.16555794e-05
6.18843182e-05
6.3570056e-05
6.35106151e-05
6.15612305e-05
6.18279097e-05
6.35564087e-05
6.35192564e-05
6.11339615e-05
6.11104458e-05
6.18438939e-05
6.18338217e-05
6.23394144e-05
6.35306927e-05
6.36167908e-05
6.19497378e-05
6.21436613e-05
6.35689612e-05
6.36213524e-05
6.1921367e-05
6.20938787e-05
6.35817956e-05
6.36270063e-05
6.17215744e-05
6.23155649e-05
6.3646795e-05
6.21012099e-05
6.22913654e-05
6.35800726e-05
6.22879826e-05
6.16162011e-05
6.22837371e-05
6.35341712e-05
6.3673254e-05
6.19950206e-05
6.19016201e-05
6.34810881e-05
6.36699854e-05
6.2087826e-05
6.22637623e-05
6.3553438e-05
6.2250298e-05
6.2148736e-05
6.2271129e-05
6.22298664e-05
6.21886711e-05
6.32926891e-05
6.36239963e-05
6.2303936e-05
6.18331024e-05
6.14892142e-05
6.1481075e-05
6.31159269e-05
6.35436539e-05
6.34930754e-05
6.3605211e-05
6.35857229e-05
6.22756744e-05
6.12005466e-05
6.10796555e-05
6.2701081e-05
6.34849363e-05
6.22907618e-05
6.16502512e-05
6.23743807e-05
6.34945402e-05
6.356226e-05
6.23728167e-05
6.17433221e-05
6.15380403e-05
6.13528945e-05
6.2284096e-05
6.34320398e-05
6.23568602e-05
6.16900076e-05
6.22555083e-05
6.34500831e-05
6.36235513e-05
6.34987783e-05
6.35803483e-05
6.35402936e-05
6.24383585e-05
6.16618399e-05
6.15365663e-05
6.14313099e-05
6.14767637e-05
6.15146058e-05
6.13026852e-05
6.22645996e-05
6.35634525e-05
6.36068263e-05
6.34915203e-05
6.35591676e-05
6.35106691e-05
6.3543243e-05
6.34793272e-05
6.24553812e-05
6.15178002e-05
6.14778274e-05
6.14755682e-05
6.15024637e-05
6.14461457e-05
6.23104528e-05
6.35708518e-05
6.35796951e-05
6.34219422e-05
6.2398105e-05
6.14523176e-05
6.16703226e-05
6.2504617e-05
6.35942808e-05
6.34148604e-05
6.22680472e-05
6.17105652e-05
6.17827683e-05
6.17202811e-05
6.21874317e-05
6.2981402e-05
6.35300308e-05
6.34648339e-05
6.35348677e-05
6.34038573e-05
6.23354498e-05
6.16569168e-05
6.16607663e-05
6.22074866e-05
6.30707893e-05
6.34320266e-05
6.22987975e-05
6.18674357e-05
6.27199304e-05
6.35551867e-05
6.35982138e-05
6.34785189e-05
6.23072967e-05
6.14163309e-05
6.18876472e-05
6.28187569e-05
6.35192177e-05
6.23769291e-05
6.19279034e-05
6.20320387e-05
6.22094037e-05
6.21657154e-05
6.21751989e-05
6.20219435e-05
6.2290184e-05
6.36505887e-05
6.35364253e-05
6.22557379e-05
6.15064249e-05
6.17852808e-05
6.183254e-05
6.23194393e-05
6.3601095e-05
6.35850663e-05
6.2252386e-05
6.22064949e-05
6.35684346e-05
6.36030024e-05
6.23312238e-05
6.22656229e-05
6.32871327e-05
6.36176709e-05
6.34727574e-05
6.23224167e-05
6.20229286e-05
6.36261605e-05
6.36473759e-05
6.20789518e-05
6.22882251e-05
6.35448829e-05
6.36467044e-05
6.3529295e-05
6.22616412e-05
6.15359685e-05
6.16861526e-05
6.2141155e-05
6.36376033e-05
6.35979511e-05
6.19382842e-05
6.12275802e-05
6.20188303e-05
6.35481727e-05
6.36494439e-05
6.18853099e-05
6.16115961e-05
6.1735516e-05
6.23070292e-05
6.35408005e-05
6.36151015e-05
6.35874204e-05
6.22283448e-05
6.12711608e-05
6.22772212e-05
6.35054649e-05
6.36555292e-05
6.19655176e-05
6.18591487e-05
6.35060747e-05
6.36029002e-05
6.19381854e-05
6.18078188e-05
6.35225479e-05
6.35910817e-05
6.18484788e-05
6.17266146e-05
6.35332203e-05
6.35929113e-05
6.17334138e-05
6.16468388e-05
6.35470441e-05
6.35906755e-05
6.16725635e-05
6.15450437e-05
6.15147218e-05
6.23017641e-05
6.35673396e-05
6.35903321e-05
6.35815922e-05
6.20758316e-05
6.14802014e-05
6.16810986e-05
6.19835498e-05
6.35517634e-05
6.3588741e-05
6.19677904e-05
6.20574028e-05
6.35704386e-05
6.35509022e-05
6.35604787e-05
6.20757349e-05
6.16264122e-05
6.3612022e-05
6.35178495e-05
6.18590872e-05
6.1209855e-05
6.19399376e-05
6.35339678e-05
6.36202374e-05
6.18492169e-05
6.17299648e-05
6.35405664e-05
6.36081522e-05
6.17891107e-05
6.1696461e-05
6.35446431e-05
6.35903504e-05
6.17193138e-05
6.16344445e-05
6.16191353e-05
6.23250668e-05
6.35431227e-05
6.36211069e-05
6.35512698e-05
6.36375914e-05
6.17092012e-05
6.13897076e-05
6.35393184e-05
6.35935134e-05
6.15263921e-05
6.14726886e-05
6.14770154e-05
6.22923588e-05
6.35817145e-05
6.35953307e-05
6.36057926e-05
6.20741611e-05
6.17267451e-05
6.35473965e-05
6.35969455e-05
6.17744183e-05
6.16900936e-05
6.16331589e-05
6.21730744e-05
6.35492284e-05
6.35684249e-05
6.35539744e-05
6.35845929e-05
6.3560284e-05
6.35878813e-05
6.15057865e-05
6.12461538e-05
6.18387054e-05
6.16572837e-05
6.23042275e-05
6.35384923e-05
6.36131494e-05
6.17391663e-05
6.15284121e-05
6.22962312e-05
6.3557615e-05
6.3614641e-05
6.17553348e-05
6.16093278e-05
6.22975599e-05
6.35428267e-05
6.36344117e-05
6.18014361e-05
6.20069018e-05
6.35611821e-05
6.35699774e-05
6.15289221e-05
6.13355353e-05
6.23287252e-05
6.35505581e-05
6.35975916e-05
6.13975326e-05
6.13813369e-05
6.18694224e-05
6.16914149e-05
6.23019984e-05
6.35511598e-05
6.35980435e-05
6.18554792e-05
6.23304395e-05
6.35632151e-05
6.35653954e-05
6.35521269e-05
6.35458893e-05
6.35366456e-05
6.35242395e-05
6.13087703e-05
6.19009739e-05
6.3534365e-05
6.35294373e-05
6.35150901e-05
6.1081187e-05
6.10561887e-05
6.15732499e-05
6.1579192e-05
6.18153083e-05
6.19851542e-05
6.19913046e-05
6.23117255e-05
6.35754512e-05
6.3588179e-05
6.3558781e-05
6.35776813e-05
6.35315824e-05
6.3558379e-05
6.348793e-05
6.10972161e-05
6.1093653e-05
6.16108749e-05
6.15453985e-05
6.19528911e-05
6.17506064e-05
6.23073683e-05
6.35653813e-05
6.35717313e-05
6.35013695e-05
6.18680123e-05
6.23241108e-05
6.35001446e-05
6.21190174e-05
6.21378914e-05
6.35661061e-05
6.34950608e-05
6.17105565e-05
6.17129799e-05
6.18603038e-05
6.23273725e-05
6.35772887e-05
6.35222183e-05
6.35708781e-05
6.34720984e-05
6.16833513e-05
6.18591121e-05
6.35764913e-05
6.34727473e-05
6.1598169e-05
6.18655845e-05
6.35748007e-05
6.34709455e-05
6.15405888e-05
6.18493923e-05
6.3566929e-05
6.34759421e-05
6.13709571e-05
6.1362101e-05
6.1624076e-05
6.23465627e-05
6.35704056e-05
6.34938362e-05
6.3559789e-05
6.34543213e-05
6.16007387e-05
6.20204822e-05
6.35568799e-05
6.3455714e-05
6.12949311e-05
6.12717457e-05
6.23352763e-05
6.35254919e-05
6.34924435e-05
6.14559424e-05
6.14457696e-05
6.2334923e-05
6.35311082e-05
6.3492351e-05
6.18132368e-05
6.22961452e-05
6.35590152e-05
6.34663059e-05
6.18658351e-05
6.22859186e-05
6.35601694e-05
6.34732028e-05
6.17470374e-05
6.2374997e-05
6.35314975e-05
6.35508529e-05
6.34701782e-05
6.18470744e-05
6.20040235e-05
6.35638384e-05
6.34483463e-05
6.14627491e-05
6.14478429e-05
6.18257859e-05
6.23623002e-05
6.35674669e-05
6.34815807e-05
6.14726812e-05
6.14543071e-05
6.23233717e-05
6.35313887e-05
6.35023619e-05
6.16122921e-05
6.16089547e-05
6.19757906e-05
6.23487367e-05
6.35851675e-05
6.34819612e-05
6.17157253e-05
6.1704098e-05
6.23169579e-05
6.35115064e-05
6.3583492e-05
6.34823873e-05
6.35592048e-05
6.34549576e-05
6.11889409e-05
6.11415039e-05
6.2321799e-05
6.35012875e-05
6.34854032e-05
6.35036225e-05
6.34237932e-05
6.10120515e-05
6.10038634e-05
6.16154926e-05
6.16393058e-05
6.18304653e-05
6.19646015e-05
6.20641947e-05
6.25037208e-05
6.35652846e-05
6.35019234e-05
6.35515061e-05
6.34652582e-05
6.35347434e-05
6.34303565e-05
6.13474187e-05
6.13277295e-05
6.23303007e-05
6.35118076e-05
6.35039957e-05
6.14648798e-05
6.19867864e-05
6.3536682e-05
6.35096594e-05
6.1211997e-05
6.21134925e-05
6.35177887e-05
6.35382658e-05
6.35020585e-05
6.11305132e-05
6.1122675e-05
6.17973853e-05
6.19262467e-05
6.19746613e-05
6.23258642e-05
6.35675885e-05
6.35359073e-05
6.16908364e-05
6.16929532e-05
6.27058108e-05
6.34900555e-05
6.35190868e-05
6.34960459e-05
6.35436413e-05
6.35137975e-05
6.14158727e-05
6.14051608e-05
6.19715389e-05
6.1907439e-05
6.23123586e-05
6.35645703e-05
6.35938226e-05
6.2024841e-05
6.22794768e-05
6.35807776e-05
6.35655913e-05
6.17819921e-05
6.17822845e-05
6.18873414e-05
6.23324505e-05
6.35526091e-05
6.35578995e-05
6.35447451e-05
6.16925575e-05
6.16804418e-05
6.19664125e-05
6.2168362e-05
6.26288516e-05
6.3565118e-05
6.3522614e-05
6.19344711e-05
6.21317187e-05
6.35894784e-05
6.35428313e-05
6.14195759e-05
6.14082905e-05
6.22948817e-05
6.35641734e-05
6.35772919e-05
6.35552455e-05
6.3539831e-05
6.13040548e-05
6.12926904e-05
6.164805e-05
6.22114514e-05
6.35593487e-05
6.35435637e-05
6.16772344e-05
6.19358505e-05
6.35687435e-05
6.35356158e-05
6.15526965e-05
6.18564565e-05
6.35745988e-05
6.35193353e-05
6.13312494e-05
6.13179685e-05
6.22140362e-05
6.3564137e-05
6.35549598e-05
6.35558139e-05
6.3538245e-05
6.35487288e-05
6.35147633e-05
6.10501963e-05
6.10361831e-05
6.16491664e-05
6.14454076e-05
6.22582376e-05
6.35447574e-05
6.3561568e-05
6.181676e-05
6.18888986e-05
6.1960041e-05
6.23630002e-05
6.35446009e-05
6.3434961e-05
6.35330658e-05
6.33603819e-05
6.16372855e-05
6.17865111e-05
6.35533908e-05
6.35290302e-05
6.14550805e-05
6.23422814e-05
6.3585286e-05
6.1882717e-05
6.18399371e-05
6.35720118e-05
6.35612375e-05
6.14973971e-05
6.14909034e-05
6.19449607e-05
6.17904908e-05
6.23006892e-05
6.35596474e-05
6.35888909e-05
6.35601711e-05
6.35839043e-05
6.16157671e-05
6.15978904e-05
6.20170914e-05
6.17426054e-05
6.23193757e-05
6.35779833e-05
6.35762613e-05
6.16720547e-05
6.15481214e-05
6.22204514e-05
6.35724164e-05
6.35670624e-05
6.35775987e-05
6.35583217e-05
6.35872892e-05
6.13566298e-05
6.13283923e-05
6.14734849e-05
6.1853621e-05
6.3563198e-05
6.35843595e-05
6.35607828e-05
6.36057474e-05
6.14253577e-05
6.14630994e-05
6.15485535e-05
6.19283338e-05
6.3577074e-05
6.36032427e-05
6.35835972e-05
6.36184639e-05
6.1431391e-05
6.17659706e-05
6.36175483e-05
6.35830987e-05
6.3625569e-05
6.17184463e-05
6.15952e-05
6.35786329e-05
6.36078395e-05
6.17950238e-05
6.17780211e-05
6.35924803e-05
6.35823457e-05
6.17619007e-05
6.1727578e-05
6.19144276e-05
6.19085167e-05
6.20630577e-05
6.20101492e-05
6.23383632e-05
6.35567173e-05
6.36133055e-05
6.19174848e-05
6.21112331e-05
6.35907693e-05
6.35755398e-05
6.35856705e-05
6.18199693e-05
6.15510315e-05
6.35718393e-05
6.35235971e-05
6.15315667e-05
6.11788205e-05
6.16165496e-05
6.09889561e-05
6.16706537e-05
6.34842271e-05
6.35455153e-05
6.34902623e-05
6.35575842e-05
6.34906444e-05
6.35659183e-05
6.34921647e-05
6.15574137e-05
6.08079543e-05
6.16237753e-05
6.35146688e-05
6.3540813e-05
6.16022604e-05
6.15988036e-05
6.35609611e-05
6.35397793e-05
6.19972502e-05
6.12554438e-05
6.21675205e-05
6.35595457e-05
6.35666061e-05
6.35583898e-05
6.20004363e-05
6.15388541e-05
6.36017683e-05
6.35363432e-05
6.19569867e-05
6.12899348e-05
6.17307318e-05
6.35563628e-05
6.3602401e-05
6.20330448e-05
6.19446573e-05
6.18181013e-05
6.21403221e-05
6.36031289e-05
6.35973336e-05
6.22655999e-05
6.15835133e-05
6.18708485e-05
6.36096902e-05
6.35890044e-05
6.22373381e-05
6.19649404e-05
6.19000853e-05
6.18785135e-05
6.35892537e-05
6.35223218e-05
6.22864852e-05
6.35360039e-05
6.36078746e-05
6.178991e-05
6.18250388e-05
6.35803233e-05
6.36004485e-05
6.35818952e-05
6.22709316e-05
6.16777687e-05
6.16953772e-05
6.16967817e-05
6.35724652e-05
6.35820034e-05
6.35668295e-05
6.35992104e-05
6.22983678e-05
6.19051281e-05
6.1909163e-05
6.19453999e-05
6.15056351e-05
6.18784979e-05
6.36178936e-05
6.35947994e-05
6.35982286e-05
6.23141032e-05
6.20032725e-05
6.36374762e-05
6.35615533e-05
6.36087188e-05
6.25006141e-05
6.19503641e-05
6.17128891e-05
6.21161361e-05
6.36101636e-05
6.36011922e-05
6.18913285e-05
6.19554121e-05
6.36121735e-05
6.35741153e-05
6.17520847e-05
6.18220096e-05
6.36056314e-05
6.35415714e-05
6.16014103e-05
6.17358586e-05
6.3613383e-05
6.35203104e-05
6.16222708e-05
6.16921507e-05
6.16026772e-05
6.22864957e-05
6.35872965e-05
6.36029001e-05
6.3524142e-05
6.18997428e-05
6.2245537e-05
6.3569141e-05
6.18912473e-05
6.16094513e-05
6.20296318e-05
6.17991714e-05
6.22697572e-05
6.25738089e-05
6.35987246e-05
6.34954285e-05
6.22276943e-05
6.23455336e-05
6.36118702e-05
6.35375732e-05
6.35926806e-05
6.35107694e-05
6.14617762e-05
6.14575884e-05
6.18465064e-05
6.19637729e-05
6.19991086e-05
6.23245162e-05
6.35890417e-05
6.34991247e-05
6.17856676e-05
6.26207344e-05
6.35362637e-05
6.18914289e-05
6.21367718e-05
6.35613425e-05
6.35493067e-05
6.15285659e-05
6.23142828e-05
6.35527214e-05
6.21410543e-05
6.22625993e-05
6.35981214e-05
6.35312126e-05
6.35812001e-05
6.35269832e-05
6.12417831e-05
6.11165538e-05
6.23243971e-05
6.35514167e-05
6.35833456e-05
6.14764411e-05
6.14631159e-05
6.23200479e-05
6.3548787e-05
6.36003523e-05
6.1691578e-05
6.21862541e-05
6.35785666e-05
6.35660504e-05
6.15358686e-05
6.14761656e-05
6.22939538e-05
6.35270611e-05
6.36452899e-05
6.16968141e-05
6.21187284e-05
6.35447999e-05
6.36428363e-05
6.13598988e-05
6.23229608e-05
6.36101604e-05
6.20848679e-05
6.19052323e-05
6.35447086e-05
6.36317186e-05
6.14957126e-05
6.23192948e-05
6.35810723e-05
6.18528164e-05
6.13370092e-05
6.22970819e-05
6.35390321e-05
6.36108965e-05
6.15421414e-05
6.12683267e-05
6.21916431e-05
6.35398036e-05
6.36416336e-05
6.16181982e-05
6.15446667e-05
6.18408445e-05
6.22950563e-05
6.35362171e-05
6.36391907e-05
6.35586852e-05
6.36518218e-05