/*--------------------------------*- C++ -*----------------------------------*\
| =========                 |                                                 |
| \\      /  F ield         | OpenFOAM: The Open Source CFD Toolbox           |
|  \\    /   O peration     | Version:  2306                                  |
|   \\  /    A nd           | Website:  www.openfoam.com                      |
|    \\/     M anipulation  |                                                 |
\*---------------------------------------------------------------------------*/
FoamFile
{
    version     2.0;
    format      ascii;
    arch        "LSB;label=32;scalar=64";
    class       volScalarField;
    location    "6e-05";
    object      PV;
}
// * * * * * * * * * * * * * * * * * * * * * * * * * * * * * * * * * * * * * //

dimensions      [0 0 0 0 0 0 0];

internalField   nonuniform List<scalar> 
531
(
-0.00716845116
-0.00716845116
-0.00716845112
-0.00716845114
-0.00716845115
-0.00716845115
-0.00716845115
-0.00716845115
-0.00716845116
-0.00716845116
-0.00716845116
-0.00716845116
-0.00716845116
-0.00716845117
-0.00716845117
-0.00716845117
-0.00716845117
-0.00716845117
-0.00716845118
-0.00716845118
-0.00716845118
-0.00716845119
-0.00716845119
-0.0071684512
-0.0071684512
-0.00716845121
-0.00716845121
-0.00716845122
-0.00716845122
-0.00716845123
-0.00716845123
-0.00716845124
-0.00716845125
-0.00716845125
-0.00716845126
-0.00716845127
-0.00716845128
-0.00716845128
-0.00716845129
-0.0071684513
-0.00716845131
-0.00716845132
-0.00716845133
-0.00716845133
-0.00716845134
-0.00716845135
-0.00716845136
-0.00716845137
-0.00716845138
-0.00716845139
-0.0071684514
-0.00716845141
-0.00716845142
-0.00716845144
-0.00716845145
-0.00716845146
-0.00716845147
-0.00716845148
-0.00716845149
-0.0071684515
-0.00716845152
-0.00716845153
-0.00716845154
-0.00716845155
-0.00716845156
-0.00716845157
-0.00716845158
-0.0071684516
-0.00716845161
-0.00716845162
-0.00716845164
-0.00716845165
-0.00716845166
-0.00716845167
-0.00716845169
-0.0071684517
-0.00716845171
-0.00716845173
-0.00716845174
-0.00716845176
-0.00716845177
-0.00716845178
-0.00716845179
-0.00716845181
-0.00716845182
-0.00716845183
-0.00716845185
-0.00716845186
-0.00716845188
-0.00716845189
-0.0071684519
-0.00716845192
-0.00716845193
-0.00716845195
-0.00716845196
-0.00716845198
-0.00716845199
-0.007168452
-0.00716845202
-0.00716845204
-0.00716845205
-0.00716845207
-0.00716845208
-0.0071684521
-0.00716845211
-0.00716845213
-0.00716845215
-0.00716845216
-0.00716845218
-0.00716845219
-0.00716845222
-0.00716845223
-0.00716845225
-0.00716845226
-0.00716845228
-0.0071684523
-0.00716845231
-0.00716845233
-0.00716845235
-0.00716845237
-0.00716845238
-0.0071684524
-0.00716845242
-0.00716845243
-0.00716845245
-0.00716845247
-0.00716845248
-0.0071684525
-0.00716845252
-0.00716845253
-0.00716845255
-0.00716845257
-0.00716845258
-0.0071684526
-0.00716845262
-0.00716845263
-0.00716845265
-0.00716845266
-0.00716845268
-0.00716845269
-0.00716845271
-0.00716845273
-0.00716845274
-0.00716845275
-0.00716845276
-0.00716845278
-0.00716845279
-0.0071684528
-0.00716845282
-0.00716845283
-0.00716845284
-0.00716845285
-0.00716845286
-0.00716845287
-0.00716845289
-0.0071684529
-0.00716845291
-0.00716845292
-0.00716845293
-0.00716845294
-0.00716845294
-0.00716845295
-0.00716845296
-0.00716845297
-0.00716845298
-0.00716845298
-0.00716845299
-0.007168453
-0.007168453
-0.00716845301
-0.00716845301
-0.00716845302
-0.00716845302
-0.00716845303
-0.00716845303
-0.00716845303
-0.00716845304
-0.00716845304
-0.00716845304
-0.00716845304
-0.00716845305
-0.00716845305
-0.00716845305
-0.00716845305
-0.00716845305
-0.00716845305
-0.00716845305
-0.00716845305
-0.00716845305
-0.00716845305
-0.00716845305
-0.00716845305
-0.00716845304
-0.00716845304
-0.00716845304
-0.00716845304
-0.00716845304
-0.00716845304
-0.00716845304
-0.00716845303
-0.00716845303
-0.00716845303
-0.00716845303
-0.00716845303
-0.00716845303
-0.00716845303
-0.00716845303
-0.00716845303
-0.00716845302
-0.00716845303
-0.00716845303
-0.00716845303
-0.00716845303
-0.00716845303
-0.00716845303
-0.00716845303
-0.00716845304
-0.00716845304
-0.00716845305
-0.00716845306
-0.00716845306
-0.00716845306
-0.00716845307
-0.00716845308
-0.00716845308
-0.00716845309
-0.0071684531
-0.00716845311
-0.00716845312
-0.00716845313
-0.00716845314
-0.00716845315
-0.00716845316
-0.00716845318
-0.00716845319
-0.0071684532
-0.00716845322
-0.00716845323
-0.00716845325
-0.00716845326
-0.00716845327
-0.00716845329
-0.00716845331
-0.00716845333
-0.00716845334
-0.00716845336
-0.00716845337
-0.00716845339
-0.00716845341
-0.00716845342
-0.00716845344
-0.00716845346
-0.00716845347
-0.0071684535
-0.00716845351
-0.00716845353
-0.00716845354
-0.00716845356
-0.00716845358
-0.00716845359
-0.00716845361
-0.00716845362
-0.00716845364
-0.00716845366
-0.00716845367
-0.00716845369
-0.0071684537
-0.00716845371
-0.00716845373
-0.00716845374
-0.00716845376
-0.00716845377
-0.00716845378
-0.00716845379
-0.0071684538
-0.00716845381
-0.00716845382
-0.00716845383
-0.00716845384
-0.00716845385
-0.00716845386
-0.00716845387
-0.00716845388
-0.00716845388
-0.00716845389
-0.0071684539
-0.00716845391
-0.00716845391
-0.00716845392
-0.00716845393
-0.00716845393
-0.00716845394
-0.00716845394
-0.00716845395
-0.00716845396
-0.00716845397
-0.00716845397
-0.00716845397
-0.00716845398
-0.00716845398
-0.00716845399
-0.007168454
-0.007168454
-0.00716845401
-0.00716845402
-0.00716845402
-0.00716845403
-0.00716845404
-0.00716845405
-0.00716845405
-0.00716845406
-0.00716845407
-0.00716845408
-0.00716845409
-0.00716845409
-0.0071684541
-0.00716845411
-0.00716845412
-0.00716845413
-0.00716845414
-0.00716845415
-0.00716845416
-0.00716845417
-0.00716845418
-0.00716845419
-0.0071684542
-0.00716845421
-0.00716845423
-0.00716845424
-0.00716845425
-0.00716845426
-0.00716845427
-0.00716845428
-0.00716845429
-0.0071684543
-0.00716845431
-0.00716845433
-0.00716845434
-0.00716845435
-0.00716845436
-0.00716845437
-0.00716845438
-0.0071684544
-0.0071684544
-0.00716845442
-0.00716845443
-0.00716845444
-0.00716845445
-0.00716845446
-0.00716845447
-0.00716845449
-0.0071684545
-0.00716845451
-0.00716845452
-0.00716845453
-0.00716845454
-0.00716845455
-0.00716845457
-0.00716845458
-0.00716845459
-0.0071684546
-0.00716845461
-0.00716845462
-0.00716845464
-0.00716845465
-0.00716845466
-0.00716845468
-0.00716845469
-0.0071684547
-0.00716845471
-0.00716845473
-0.00716845474
-0.00716845475
-0.00716845477
-0.00716845478
-0.00716845479
-0.00716845481
-0.00716845482
-0.00716845483
-0.00716845484
-0.00716845486
-0.00716845487
-0.00716845489
-0.0071684549
-0.00716845491
-0.00716845492
-0.00716845494
-0.00716845495
-0.00716845496
-0.00716845497
-0.00716845499
-0.007168455
-0.00716845501
-0.00716845502
-0.00716845504
-0.00716845504
-0.00716845506
-0.00716845506
-0.00716845508
-0.00716845509
-0.0071684551
-0.00716845511
-0.00716845512
-0.00716845512
-0.00716845513
-0.00716845514
-0.00716845515
-0.00716845515
-0.00716845516
-0.00716845517
-0.00716845518
-0.00716845518
-0.00716845519
-0.00716845519
-0.0071684552
-0.00716845521
-0.00716845521
-0.00716845522
-0.00716845522
-0.00716845522
-0.00716845523
-0.00716845523
-0.00716845523
-0.00716845524
-0.00716845524
-0.00716845524
-0.00716845525
-0.00716845524
-0.00716845525
-0.00716845525
-0.00716845525
-0.00716845525
-0.00716845525
-0.00716845525
-0.00716845525
-0.00716845525
-0.00716845525
-0.00716845524
-0.00716845524
-0.00716845524
-0.00716845524
-0.00716845524
-0.00716845523
-0.00716845523
-0.00716845522
-0.00716845522
-0.00716845522
-0.00716845521
-0.00716845521
-0.0071684552
-0.0071684552
-0.00716845519
-0.00716845519
-0.00716845518
-0.00716845518
-0.00716845517
-0.00716845517
-0.00716845517
-0.00716845516
-0.00716845516
-0.00716845515
-0.00716845515
-0.00716845515
-0.00716845515
-0.00716845515
-0.00716845515
-0.00716845515
-0.00716845515
-0.00716845516
-0.00716845516
-0.00716845517
-0.00716845517
-0.00716845518
-0.00716845519
-0.0071684552
-0.00716845521
-0.00716845522
-0.00716845523
-0.00716845524
-0.00716845525
-0.00716845527
-0.00716845528
-0.0071684553
-0.00716845532
-0.00716845534
-0.00716845535
-0.00716845538
-0.00716845539
-0.00716845541
-0.00716845544
-0.00716845545
-0.00716845548
-0.0071684555
-0.00716845552
-0.00716845554
-0.00716845556
-0.00716845558
-0.0071684556
-0.00716845562
-0.00716845564
-0.00716845566
-0.00716845568
-0.0071684557
-0.00716845572
-0.00716845574
-0.00716845575
-0.00716845577
-0.00716845579
-0.0071684558
-0.00716845582
-0.00716845583
-0.00716845584
-0.00716845586
-0.00716845587
-0.00716845588
-0.00716845589
-0.0071684559
-0.00716845591
-0.00716845592
-0.00716845592
-0.00716845592
-0.00716845591
-0.00716845592
-0.00716845596
-0.00716845596
-0.00716845594
-0.00716845582
-0.00716845576
-0.00716845576
-0.00716845589
-0.00716845588
)
;

boundaryField
{
    closed
    {
        type            zeroGradient;
    }
    open
    {
        type            zeroGradient;
    }
    sides
    {
        type            empty;
    }
    procBoundary3to2
    {
        type            processor;
        value           uniform -0.00716845101;
    }
    procBoundary3to4
    {
        type            processor;
        value           uniform -0.00716845592;
    }
}


// ************************************************************************* //
