/*--------------------------------*- C++ -*----------------------------------*\
| =========                 |                                                 |
| \\      /  F ield         | OpenFOAM: The Open Source CFD Toolbox           |
|  \\    /   O peration     | Version:  2306                                  |
|   \\  /    A nd           | Website:  www.openfoam.com                      |
|    \\/     M anipulation  |                                                 |
\*---------------------------------------------------------------------------*/
FoamFile
{
    version     2.0;
    format      ascii;
    arch        "LSB;label=32;scalar=64";
    class       volScalarField;
    location    "0.00122";
    object      rho;
}
// * * * * * * * * * * * * * * * * * * * * * * * * * * * * * * * * * * * * * //

dimensions      [1 -3 0 0 0 0 0];

internalField   nonuniform List<scalar> 
531
(
0.902036156
0.903715662
0.937802241
0.962062632
0.940165224
0.902728618
0.938701972
0.94778328
0.901108913
0.903260724
0.947550879
0.94331077
0.901414956
0.902588573
0.93435944
0.945676733
0.955026055
0.939013817
0.903046102
0.938823804
0.944191481
0.901530622
0.903684693
0.931461149
0.962885705
0.955554363
0.90276483
0.903852345
0.951848312
0.948003211
0.90281265
0.903935252
0.927974788
0.960498477
0.951248649
0.901891026
0.903847869
0.935480103
0.949038327
0.948360364
0.960749014
0.951434662
0.903352033
0.902614479
0.903955841
0.902621065
0.904118732
0.938049678
0.952069434
0.94950124
0.959035023
0.952832867
0.903321811
0.902513776
0.943334517
0.944877296
0.90278198
0.903291328
0.935380108
0.962523106
0.953422242
0.902722889
0.903958899
0.937621823
0.952038932
0.950197594
0.963691469
0.955747811
0.905301178
0.90411318
0.905300151
0.904362971
0.905023439
0.939665948
0.968148204
0.954612042
0.90494553
0.904422629
0.939315054
0.967449327
0.953844143
0.904669852
0.905646351
0.937973197
0.972757746
0.957298532
0.906437093
0.905419553
0.905157601
0.961541496
0.961996004
0.90552511
0.906215397
0.940352385
0.951718857
0.959457668
0.954710044
0.90490708
0.904825489
0.952746598
0.950830158
0.904674096
0.905296839
0.950455554
0.945731669
0.903983158
0.906253643
0.937040813
0.966805835
0.954096764
0.905352677
0.904742894
0.905246216
0.955194648
0.967608049
0.938499793
0.905700753
0.903893724
0.95195844
0.949320963
0.903115255
0.904509794
0.940516549
0.948748781
0.944849004
0.954872265
0.938289066
0.903662883
0.940658516
0.947502909
0.902238565
0.904048005
0.951213534
0.947363203
0.902377906
0.904043491
0.95050377
0.946342125
0.902224506
0.903733777
0.947835094
0.941911725
0.901868165
0.903151081
0.937534653
0.946482297
0.952035302
0.938979078
0.902277278
0.939366254
0.940941347
0.900934194
0.902801208
0.938321586
0.949378078
0.955012351
0.943812517
0.901827994
0.902940031
0.931244375
0.951328986
0.944966072
0.902466551
0.9027584
0.95459693
0.951131292
0.902294441
0.902435493
0.903297037
0.942055627
0.965243745
0.939383139
0.903081202
0.937757647
0.943034538
0.900761475
0.903129009
0.938988708
0.947559122
0.961493748
0.94864698
0.901434405
0.902267235
0.902027409
0.942630628
0.943344178
0.901318666
0.903294801
0.937021995
0.942745249
0.949783667
0.952089646
0.932762791
0.902729565
0.901439598
0.902892834
0.939021058
0.955663517
0.952290025
0.960808993
0.937157503
0.903492323
0.9009547
0.958672411
0.961648156
0.903191603
0.902431903
0.949167223
0.950020755
0.903281784
0.902634357
0.945178696
0.946681586
0.902934144
0.902301708
0.944619643
0.945647804
0.902630671
0.902712171
0.937207092
0.960652935
0.951311679
0.902594641
0.902497879
0.937951044
0.965195283
0.955064194
0.903495377
0.902239941
0.947398799
0.950364683
0.90380364
0.903599812
0.938235358
0.965242052
0.957016107
0.904362569
0.902340889
0.948697348
0.953351611
0.9051354
0.903071724
0.946958107
0.950226498
0.905107255
0.903296662
0.945637456
0.948259598
0.904964628
0.904001965
0.938150032
0.962621439
0.955459461
0.904991233
0.903433734
0.947177505
0.950109825
0.905811577
0.904877743
0.935839789
0.962543783
0.954614881
0.905277689
0.904802448
0.930894244
0.963886528
0.956398699
0.906144075
0.904748872
0.925178894
0.950133885
0.956209438
0.952614391
0.959143381
0.940688159
0.905445414
0.903708637
0.904423462
0.904038669
0.904454787
0.904220729
0.940195982
0.959517168
0.955151421
0.968062175
0.965458506
0.905069608
0.904373011
0.940509664
0.967697916
0.956343408
0.906030353
0.903948739
0.94909592
0.944294986
0.905286452
0.939094922
0.958875304
0.905156987
0.905546768
0.904236943
0.904604397
0.970942674
0.964934231
0.904690747
0.95358985
0.961307218
0.905207638
0.905443473
0.903758708
0.956301069
0.957181108
0.904609051
0.904292896
0.903595799
0.938863993
0.971042666
0.956347822
0.903957956
0.903552558
0.938597491
0.962814977
0.952066515
0.903266409
0.903415288
0.935508468
0.960029758
0.953327406
0.902798612
0.90327285
0.935913175
0.959460424
0.953148641
0.902563024
0.902767066
0.936156439
0.959946945
0.953639858
0.901858901
0.902685211
0.935837177
0.962175458
0.957727412
0.902434448
0.901760475
0.953263284
0.954555353
0.901880188
0.9016631
0.957845691
0.956072901
0.90090136
0.900932017
0.900468616
0.931149501
0.975068984
0.971765266
0.89932659
0.898291477
0.964610794
0.966002206
0.896919671
0.895028125
0.894625474
0.965458633
0.97700547
0.892157133
0.890873091
0.891834573
0.891702875
0.966135172
0.970632011
0.896501868
0.894865325
0.897212169
0.97201814
0.980660931
0.903247984
0.901713055
0.903957945
0.903067845
0.904767165
0.903991001
0.905055188
0.904343153
0.904879744
0.903961855
0.903914248
0.902329869
0.900849369
0.897519917
0.891559305
0.878363372
0.886685149
0.894294913
0.90073842
0.907535432
0.912194831
0.917578948
0.920299456
0.925078476
0.929746998
0.93355853
0.933573074
0.94139252
0.945297983
0.948988145
0.951470504
0.951047201
0.956504557
0.959482281
0.976036287
0.976270081
0.991829038
0.899623426
0.920826587
0.922990793
0.952843499
0.959738248
0.986527426
0.997857576
1.02193623
1.03688928
1.05767384
1.05946495
1.02701222
1.05047804
1.02823206
0.91912215
0.884197348
0.894585241
0.776970753
0.728983159
0.686565213
0.649860688
0.618661348
0.581369191
0.53553804
0.487332814
0.450362806
0.417049106
0.390167579
0.365590505
0.349035485
0.332530544
0.320443639
0.308588858
0.298699704
0.288235219
0.280791999
0.273606781
0.268189562
0.262831936
0.258361193
0.253887776
0.250140473
0.24648995
0.24331236
0.240210228
0.237450324
0.234890492
0.232473829
0.230331442
0.228038444
0.226185252
0.224085388
0.222450562
0.220583212
0.219099803
0.217458607
0.21616931
0.21497777
0.213994773
0.212890891
0.211888846
0.210856256
0.209870949
0.208907391
0.207762669
0.20663703
0.20587625
0.205196987
0.204535597
0.203918131
0.203329773
0.202793546
0.202228012
0.201681177
0.201132949
0.200602309
0.200111059
0.199661557
0.199212997
0.198770924
0.19822337
0.197730554
0.197233268
0.196782074
0.196327149
0.195923258
0.195539328
0.195182959
0.194820494
0.194481205
0.194141292
0.193830162
0.193513305
0.193211232
0.192904035
0.192609595
0.192310257
0.192048892
0.19176175
0.191485515
0.191207778
0.190945923
0.190682661
0.190433774
0.190183303
0.189949389
0.189716604
0.189497448
0.189277577
0.189070458
0.188861912
0.188665479
0.188466903
0.188279975
0.188090214
0.187916206
0.187748225
)
;

boundaryField
{
    closed
    {
        type            calculated;
        value           nonuniform List<scalar> 0();
    }
    open
    {
        type            calculated;
        value           nonuniform List<scalar> 0();
    }
    sides
    {
        type            empty;
    }
    procBoundary4to3
    {
        type            processor;
        value           uniform 0.902881464;
    }
    procBoundary4to5
    {
        type            processor;
        value           uniform 0.187590255;
    }
}


// ************************************************************************* //
