/*--------------------------------*- C++ -*----------------------------------*\
| =========                 |                                                 |
| \\      /  F ield         | OpenFOAM: The Open Source CFD Toolbox           |
|  \\    /   O peration     | Version:  2306                                  |
|   \\  /    A nd           | Website:  www.openfoam.com                      |
|    \\/     M anipulation  |                                                 |
\*---------------------------------------------------------------------------*/
FoamFile
{
    version     2.0;
    format      ascii;
    arch        "LSB;label=32;scalar=64";
    class       volVectorField;
    location    "0.00122";
    object      U;
}
// * * * * * * * * * * * * * * * * * * * * * * * * * * * * * * * * * * * * * //

dimensions      [0 1 -1 0 0 0 0];

internalField   nonuniform List<vector> 
531
(
(-0.5356247 0 0)
(-0.532187679 0 0)
(-0.521789855 0 0)
(-0.517178229 0 0)
(-0.525674472 0 0)
(-0.537206932 0 0)
(-0.52501435 0 0)
(-0.514065258 0 0)
(-0.515274438 0 0)
(-0.514229621 0 0)
(-0.505614083 0 0)
(-0.495555864 0 0)
(-0.489938628 0 0)
(-0.481767334 0 0)
(-0.472054099 0 0)
(-0.474235855 0 0)
(-0.469412832 0 0)
(-0.470651314 0 0)
(-0.474622349 0 0)
(-0.458039031 0 0)
(-0.451342088 0 0)
(-0.44683983 0 0)
(-0.435340894 0 0)
(-0.4338087 0 0)
(-0.429529576 0 0)
(-0.41234696 0 0)
(-0.407142589 0 0)
(-0.401336032 0 0)
(-0.392520093 0 0)
(-0.389354251 0 0)
(-0.382019254 0 0)
(-0.369216761 0 0)
(-0.363895415 0 0)
(-0.356406944 0 0)
(-0.341581479 0 0)
(-0.331848717 0 0)
(-0.317835932 0 0)
(-0.3066539 0 0)
(-0.304064122 0 0)
(-0.298073749 0 0)
(-0.285236934 0 0)
(-0.274207129 0 0)
(-0.264468305 0 0)
(-0.246643412 0 0)
(-0.235849731 0 0)
(-0.224014885 0 0)
(-0.213362067 0 0)
(-0.198442508 0 0)
(-0.19149958 0 0)
(-0.182349758 0 0)
(-0.166493779 0 0)
(-0.155052684 0 0)
(-0.14645848 0 0)
(-0.127320725 0 0)
(-0.119835576 0 0)
(-0.121954153 0 0)
(-0.110957048 0 0)
(-0.0938441128 0 0)
(-0.0867086121 0 0)
(-0.0766805611 0 0)
(-0.0633495704 0 0)
(-0.0529509055 0 0)
(-0.0377252231 0 0)
(-0.027789175 0 0)
(-0.0238049078 0 0)
(-0.0165145722 0 0)
(-0.00422931108 0 0)
(0.00628794942 0 0)
(0.0153214816 0 0)
(0.0290935359 0 0)
(0.0395466977 0 0)
(0.0497518283 0 0)
(0.0589070366 0 0)
(0.0670627954 0 0)
(0.0760182334 0 0)
(0.0870421216 0 0)
(0.095366956 0 0)
(0.104906044 0 0)
(0.111598204 0 0)
(0.120832509 0 0)
(0.131582237 0 0)
(0.139933596 0 0)
(0.148220642 0 0)
(0.150968514 0 0)
(0.155794876 0 0)
(0.166956413 0 0)
(0.178396258 0 0)
(0.186535409 0 0)
(0.194971872 0 0)
(0.205624893 0 0)
(0.216363655 0 0)
(0.223040286 0 0)
(0.226086235 0 0)
(0.225816092 0 0)
(0.227473341 0 0)
(0.235913674 0 0)
(0.240153282 0 0)
(0.240953795 0 0)
(0.246272393 0 0)
(0.250142697 0 0)
(0.247129891 0 0)
(0.243649251 0 0)
(0.25018168 0 0)
(0.254242717 0 0)
(0.244649062 0 0)
(0.242003423 0 0)
(0.244538563 0 0)
(0.23881449 0 0)
(0.234151057 0 0)
(0.238004871 0 0)
(0.237468476 0 0)
(0.226951318 0 0)
(0.233009202 0 0)
(0.232142673 0 0)
(0.233274679 0 0)
(0.230660875 0 0)
(0.223820542 0 0)
(0.226052338 0 0)
(0.225531516 0 0)
(0.214216315 0 0)
(0.204526417 0 0)
(0.200813267 0 0)
(0.191233407 0 0)
(0.178881519 0 0)
(0.173668097 0 0)
(0.166605774 0 0)
(0.157702304 0 0)
(0.159790107 0 0)
(0.148592384 0 0)
(0.130940404 0 0)
(0.114912166 0 0)
(0.117696007 0 0)
(0.117581644 0 0)
(0.0958037637 0 0)
(0.0786084702 0 0)
(0.0860855999 0 0)
(0.085360596 0 0)
(0.0632784834 0 0)
(0.0465296065 0 0)
(0.0556299923 0 0)
(0.0565110981 0 0)
(0.0362749736 0 0)
(0.0260542774 0 0)
(0.0262720452 0 0)
(0.0190595692 0 0)
(0.0127471749 0 0)
(0.00847507562 0 0)
(0.00183210698 0 0)
(0.00674493781 0 0)
(0.000724692031 0 0)
(-0.0113236111 0 0)
(-0.0175626806 0 0)
(-0.0179812427 0 0)
(-0.0241316154 0 0)
(-0.0311821938 0 0)
(-0.0348433132 0 0)
(-0.0389246924 0 0)
(-0.041253471 0 0)
(-0.0439342628 0 0)
(-0.0495096088 0 0)
(-0.0576066419 0 0)
(-0.0679030645 0 0)
(-0.0756287249 0 0)
(-0.0729962828 0 0)
(-0.0760459536 0 0)
(-0.0865144955 0 0)
(-0.0923774243 0 0)
(-0.0994708352 0 0)
(-0.101073093 0 0)
(-0.107025902 0 0)
(-0.115376677 0 0)
(-0.123075077 0 0)
(-0.124883967 0 0)
(-0.127911405 0 0)
(-0.137611947 0 0)
(-0.142604854 0 0)
(-0.143345689 0 0)
(-0.146348857 0 0)
(-0.153797949 0 0)
(-0.157915992 0 0)
(-0.155223931 0 0)
(-0.155160244 0 0)
(-0.159298746 0 0)
(-0.161191823 0 0)
(-0.165855989 0 0)
(-0.176515895 0 0)
(-0.178908026 0 0)
(-0.177308029 0 0)
(-0.17892471 0 0)
(-0.187956695 0 0)
(-0.189965022 0 0)
(-0.186397383 0 0)
(-0.189018464 0 0)
(-0.191712722 0 0)
(-0.190035882 0 0)
(-0.193045737 0 0)
(-0.188920283 0 0)
(-0.188445385 0 0)
(-0.183698849 0 0)
(-0.174083305 0 0)
(-0.180726769 0 0)
(-0.183334704 0 0)
(-0.175592718 0 0)
(-0.17542306 0 0)
(-0.1869544 0 0)
(-0.178822383 0 0)
(-0.161435685 0 0)
(-0.167315246 0 0)
(-0.181227876 0 0)
(-0.172629329 0 0)
(-0.154354454 0 0)
(-0.158527891 0 0)
(-0.169685531 0 0)
(-0.157706989 0 0)
(-0.137083325 0 0)
(-0.139257746 0 0)
(-0.148750156 0 0)
(-0.133128171 0 0)
(-0.111914661 0 0)
(-0.105432088 0 0)
(-0.0927751504 0 0)
(-0.0820813807 0 0)
(-0.066549729 0 0)
(-0.0476808116 0 0)
(-0.0381164147 0 0)
(-0.025392489 0 0)
(-0.0140145055 0 0)
(0.0021670336 0 0)
(0.026713549 0 0)
(0.0359583291 0 0)
(0.0337078839 0 0)
(0.0506086766 0 0)
(0.0770723159 0 0)
(0.0887612306 0 0)
(0.101744935 0 0)
(0.112893525 0 0)
(0.12763761 0 0)
(0.149971447 0 0)
(0.160982762 0 0)
(0.164773491 0 0)
(0.180641382 0 0)
(0.203640678 0 0)
(0.212232007 0 0)
(0.217058697 0 0)
(0.231979078 0 0)
(0.250648367 0 0)
(0.258655375 0 0)
(0.265040092 0 0)
(0.278952685 0 0)
(0.290951505 0 0)
(0.293146945 0 0)
(0.301294977 0 0)
(0.307529441 0 0)
(0.315241088 0 0)
(0.324642931 0 0)
(0.329873513 0 0)
(0.337306798 0 0)
(0.346932905 0 0)
(0.351377916 0 0)
(0.34811775 0 0)
(0.353199396 0 0)
(0.356131034 0 0)
(0.358611839 0 0)
(0.360931063 0 0)
(0.359615061 0 0)
(0.365645447 0 0)
(0.368116674 0 0)
(0.370214517 0 0)
(0.374266288 0 0)
(0.3804598 0 0)
(0.392000891 0 0)
(0.39768293 0 0)
(0.402916854 0 0)
(0.412498247 0 0)
(0.428009586 0 0)
(0.445684579 0 0)
(0.455246119 0 0)
(0.462528183 0 0)
(0.471877954 0 0)
(0.483448685 0 0)
(0.488728879 0 0)
(0.48352948 0 0)
(0.491165339 0 0)
(0.507389735 0 0)
(0.519922695 0 0)
(0.526343807 0 0)
(0.539987918 0 0)
(0.538592661 0 0)
(0.522977372 0 0)
(0.519788971 0 0)
(0.523057657 0 0)
(0.527246015 0 0)
(0.521784424 0 0)
(0.522987858 0 0)
(0.533193894 0 0)
(0.523707302 0 0)
(0.497975027 0 0)
(0.490634441 0 0)
(0.49671877 0 0)
(0.479914364 0 0)
(0.471460178 0 0)
(0.456894538 0 0)
(0.442314389 0 0)
(0.439237152 0 0)
(0.425665382 0 0)
(0.40542785 0 0)
(0.407564694 0 0)
(0.406269042 0 0)
(0.385987943 0 0)
(0.373355026 0 0)
(0.359489486 0 0)
(0.366345979 0 0)
(0.367892035 0 0)
(0.353727914 0 0)
(0.346691557 0 0)
(0.32818816 0 0)
(0.32070679 0 0)
(0.322596646 0 0)
(0.323210798 0 0)
(0.315575424 0 0)
(0.303236675 0 0)
(0.2994884 0 0)
(0.300545203 0 0)
(0.302792534 0 0)
(0.301011335 0 0)
(0.294165698 0 0)
(0.292012197 0 0)
(0.293083646 0 0)
(0.295478937 0 0)
(0.294737291 0 0)
(0.288005355 0 0)
(0.28502635 0 0)
(0.285749753 0 0)
(0.288788677 0 0)
(0.28975263 0 0)
(0.284344438 0 0)
(0.281835106 0 0)
(0.282799364 0 0)
(0.288696753 0 0)
(0.291951757 0 0)
(0.288466791 0 0)
(0.287287859 0 0)
(0.290080151 0 0)
(0.299281035 0 0)
(0.304312362 0 0)
(0.308478538 0 0)
(0.320127555 0 0)
(0.332924396 0 0)
(0.338768002 0 0)
(0.346867534 0 0)
(0.35757754 0 0)
(0.375638086 0 0)
(0.389829334 0 0)
(0.409550341 0 0)
(0.421744036 0 0)
(0.431820093 0 0)
(0.442458361 0 0)
(0.471673109 0 0)
(0.490746784 0 0)
(0.49622458 0 0)
(0.516855498 0 0)
(0.544349648 0 0)
(0.541780743 0 0)
(0.540951505 0 0)
(0.524060578 0 0)
(0.520618487 0 0)
(0.542203475 0 0)
(0.533152341 0 0)
(0.512839497 0 0)
(0.484919975 0 0)
(0.445857505 0 0)
(0.43035456 0 0)
(0.430507575 0 0)
(0.415485626 0 0)
(0.385727381 0 0)
(0.354864397 0 0)
(0.346399855 0 0)
(0.355197766 0 0)
(0.354313609 0 0)
(0.348239455 0 0)
(0.347295809 0 0)
(0.349256783 0 0)
(0.354261157 0 0)
(0.361535935 0 0)
(0.371425668 0 0)
(0.383154939 0 0)
(0.396793388 0 0)
(0.411353024 0 0)
(0.426307595 0 0)
(0.440705293 0 0)
(0.453626895 0 0)
(0.465247562 0 0)
(0.475602549 0 0)
(0.472456215 0 0)
(0.460801588 0 0)
(0.444568962 0 0)
(0.423748665 0 0)
(0.399140462 0 0)
(0.371570398 0 0)
(0.343206865 0 0)
(0.314718955 0 0)
(0.287664575 0 0)
(0.264406086 0 0)
(0.243582402 0 0)
(0.226328758 0 0)
(0.212773609 0 0)
(0.203114616 0 0)
(0.196397144 0 0)
(0.191979562 0 0)
(0.186932742 0 0)
(0.179359922 0 0)
(0.169826478 0 0)
(0.160388246 0 0)
(0.152987007 0 0)
(0.143969163 0 0)
(0.134693808 0 0)
(0.104150591 0 0)
(0.0906113976 0 0)
(0.0756194941 0 0)
(0.0682724823 0 0)
(0.0581818819 0 0)
(0.0527518183 0 0)
(0.0445332718 0 0)
(0.0420170961 0 0)
(0.044494849 0 0)
(0.0289102046 0 0)
(0.0454605995 0 0)
(0.00978869646 0 0)
(0.0352115544 0 0)
(0.0697602323 0 0)
(-0.0676141761 0 0)
(-0.176607709 0 0)
(-0.113063124 0 0)
(-0.0949288646 0 0)
(-0.0217511706 0 0)
(-0.0191886344 0 0)
(0.0307706199 0 0)
(0.0646284709 0 0)
(0.116538262 0 0)
(0.185508507 0 0)
(0.240386981 0 0)
(0.309693575 0 0)
(0.377733743 0 0)
(0.431136907 0 0)
(0.480730133 0 0)
(0.527053985 0 0)
(0.568669321 0 0)
(0.609820798 0 0)
(0.650618183 0 0)
(0.688656278 0 0)
(0.722094275 0 0)
(0.752166071 0 0)
(0.780030057 0 0)
(0.806696693 0 0)
(0.832125737 0 0)
(0.856370466 0 0)
(0.879328474 0 0)
(0.901398791 0 0)
(0.922610428 0 0)
(0.942965813 0 0)
(0.962440584 0 0)
(0.981124683 0 0)
(0.999420083 0 0)
(1.01726183 0 0)
(1.03515771 0 0)
(1.05298366 0 0)
(1.07049366 0 0)
(1.08788748 0 0)
(1.10526586 0 0)
(1.12245931 0 0)
(1.13900243 0 0)
(1.15473737 0 0)
(1.17033585 0 0)
(1.18626161 0 0)
(1.20256354 0 0)
(1.21891235 0 0)
(1.23518601 0 0)
(1.25153745 0 0)
(1.26808568 0 0)
(1.28359049 0 0)
(1.29669374 0 0)
(1.30756311 0 0)
(1.31672739 0 0)
(1.32412621 0 0)
(1.32953747 0 0)
(1.33293208 0 0)
(1.33448505 0 0)
(1.33428339 0 0)
(1.33237757 0 0)
(1.32884439 0 0)
(1.32376626 0 0)
(1.31744337 0 0)
(1.31043011 0 0)
(1.30339374 0 0)
(1.29680859 0 0)
(1.29075585 0 0)
(1.28540678 0 0)
(1.28110239 0 0)
(1.27813635 0 0)
(1.27670019 0 0)
(1.27700635 0 0)
(1.27933622 0 0)
(1.28385168 0 0)
(1.29060749 0 0)
(1.2995519 0 0)
(1.31063968 0 0)
(1.32379853 0 0)
(1.3389359 0 0)
(1.35587753 0 0)
(1.37443033 0 0)
(1.39431838 0 0)
(1.41531513 0 0)
(1.43723527 0 0)
(1.45991033 0 0)
(1.48305454 0 0)
(1.50643907 0 0)
(1.52984987 0 0)
(1.55311193 0 0)
(1.57603657 0 0)
(1.59846923 0 0)
(1.62026742 0 0)
(1.64133257 0 0)
(1.66156938 0 0)
(1.68090853 0 0)
(1.69928468 0 0)
(1.71665948 0 0)
(1.73299851 0 0)
(1.74828738 0 0)
(1.76249695 0 0)
(1.7755945 0 0)
(1.78756977 0 0)
)
;

boundaryField
{
    closed
    {
        type            noSlip;
    }
    open
    {
        type            inletOutlet;
        inletValue      nonuniform List<vector> 0();
        value           nonuniform List<vector> 0();
    }
    sides
    {
        type            empty;
    }
    procBoundary4to3
    {
        type            processor;
        value           uniform (-0.536766134 0 0);
    }
    procBoundary4to5
    {
        type            processor;
        value           uniform (1.79847076 0 0);
    }
}


// ************************************************************************* //
