/*--------------------------------*- C++ -*----------------------------------*\
| =========                 |                                                 |
| \\      /  F ield         | OpenFOAM: The Open Source CFD Toolbox           |
|  \\    /   O peration     | Version:  2306                                  |
|   \\  /    A nd           | Website:  www.openfoam.com                      |
|    \\/     M anipulation  |                                                 |
\*---------------------------------------------------------------------------*/
FoamFile
{
    version     2.0;
    format      ascii;
    arch        "LSB;label=32;scalar=64";
    class       volScalarField;
    location    "0.00118";
    object      prefDPV_H2O;
}
// * * * * * * * * * * * * * * * * * * * * * * * * * * * * * * * * * * * * * //

dimensions      [1 -1 -1 0 0 0 0];

internalField   nonuniform List<scalar> 
530
(
-3.80499127e-07
-3.735247e-07
-3.73054821e-07
-3.7306569e-07
-3.73066658e-07
-3.73066669e-07
-3.73066669e-07
-3.73066669e-07
-3.73066669e-07
-3.73066669e-07
-3.73066669e-07
-3.73066669e-07
-3.73066669e-07
-3.73066669e-07
-3.73066669e-07
-3.73066669e-07
-3.73066669e-07
-3.73066669e-07
-3.73066669e-07
-3.73066669e-07
-3.73066669e-07
-3.73066669e-07
-3.73066669e-07
-3.73066669e-07
-3.73066669e-07
-3.73066669e-07
-3.73066669e-07
-3.73066669e-07
-3.73066669e-07
-3.73066669e-07
-3.73066669e-07
-3.73066669e-07
-3.73066669e-07
-3.73066669e-07
-3.73066669e-07
-3.73066669e-07
-3.73066669e-07
-3.73066669e-07
-3.73066669e-07
-3.73066669e-07
-3.73066669e-07
-3.73066669e-07
-3.73066669e-07
-3.73066669e-07
-3.73066669e-07
-3.73066669e-07
-3.73066669e-07
-3.73066669e-07
-3.73066669e-07
-3.73066669e-07
-3.73066669e-07
-3.73066669e-07
-3.73066669e-07
-3.73066669e-07
-3.73066669e-07
-3.73066669e-07
-3.73066669e-07
-3.73066669e-07
-3.73066669e-07
-3.73066669e-07
-3.73066669e-07
-3.73066669e-07
-3.73066669e-07
-3.73066669e-07
-3.73066669e-07
-3.73066669e-07
-3.73066669e-07
-3.73066669e-07
-3.73066669e-07
-3.73066668e-07
-3.73066667e-07
-3.73066668e-07
-3.73066643e-07
-3.7306658e-07
-3.73066734e-07
-3.7306703e-07
-3.73065865e-07
-3.73064907e-07
-3.73067449e-07
-3.73071566e-07
-3.73066329e-07
-3.73050473e-07
-3.73018217e-07
-3.73043644e-07
-3.73372355e-07
-3.73416496e-07
-3.72903418e-07
-3.69530723e-07
-3.69282736e-07
-3.77773167e-07
-3.85589223e-07
-3.76823104e-07
-3.66544338e-07
-3.66112887e-07
-3.66149195e-07
-3.66470392e-07
-3.81763973e-07
-3.84702845e-07
-3.84140387e-07
-3.86714416e-07
-3.66160095e-07
-3.6549834e-07
-3.65563304e-07
-3.65177933e-07
-3.66378712e-07
-3.86611447e-07
-3.84402793e-07
-3.85292556e-07
-3.84874225e-07
-3.84826901e-07
-3.80134626e-07
-3.64854873e-07
-3.64700326e-07
-3.65304665e-07
-3.65357957e-07
-3.65678435e-07
-3.7479987e-07
-3.84663753e-07
-3.83891101e-07
-3.87049206e-07
-3.65428761e-07
-3.64668516e-07
-3.65621505e-07
-3.74884655e-07
-3.8460353e-07
-3.83921039e-07
-3.86848363e-07
-3.65385396e-07
-3.64809891e-07
-3.65479732e-07
-3.72558873e-07
-3.84098564e-07
-3.86710809e-07
-3.66634695e-07
-3.68906919e-07
-3.84237254e-07
-3.86517184e-07
-3.6461869e-07
-3.64440762e-07
-3.71511483e-07
-3.84458362e-07
-3.86526947e-07
-3.66476987e-07
-3.72285319e-07
-3.84922255e-07
-3.72133782e-07
-3.66137022e-07
-3.80285252e-07
-3.8529192e-07
-3.6879802e-07
-3.66051031e-07
-3.82404633e-07
-3.84989138e-07
-3.70497535e-07
-3.65682757e-07
-3.71951212e-07
-3.83952656e-07
-3.87081461e-07
-3.6682613e-07
-3.7006979e-07
-3.83898622e-07
-3.86824981e-07
-3.65450788e-07
-3.6556969e-07
-3.66268655e-07
-3.66322144e-07
-3.66370043e-07
-3.66680655e-07
-3.77281227e-07
-3.83929474e-07
-3.8422594e-07
-3.66444385e-07
-3.70396828e-07
-3.84430949e-07
-3.81217822e-07
-3.64128172e-07
-3.6453787e-07
-3.75626884e-07
-3.84915695e-07
-3.76967782e-07
-3.66992818e-07
-3.77127869e-07
-3.80495511e-07
-3.66854276e-07
-3.69310855e-07
-3.85045057e-07
-3.81044804e-07
-3.65956506e-07
-3.70523223e-07
-3.85328845e-07
-3.76751318e-07
-3.65863827e-07
-3.72074043e-07
-3.84737127e-07
-3.79757683e-07
-3.65125043e-07
-3.65844986e-07
-3.79315307e-07
-3.85658957e-07
-3.73665784e-07
-3.64649903e-07
-3.68256003e-07
-3.83965037e-07
-3.75356925e-07
-3.66449e-07
-3.73055849e-07
-3.85198952e-07
-3.77000049e-07
-3.65494406e-07
-3.66455564e-07
-3.81618234e-07
-3.86141829e-07
-3.71377105e-07
-3.64697084e-07
-3.70502887e-07
-3.86408505e-07
-3.76037086e-07
-3.65686023e-07
-3.6657667e-07
-3.83314183e-07
-3.864756e-07
-3.70053147e-07
-3.6484301e-07
-3.71836892e-07
-3.86832815e-07
-3.73309889e-07
-3.66567508e-07
-3.75510672e-07
-3.86586762e-07
-3.71445014e-07
-3.66600557e-07
-3.78041182e-07
-3.8645706e-07
-3.70465767e-07
-3.66532842e-07
-3.79336835e-07
-3.86158191e-07
-3.70696895e-07
-3.65312058e-07
-3.67941856e-07
-3.86712329e-07
-3.86676356e-07
-3.67132802e-07
-3.64776251e-07
-3.7376009e-07
-3.85190786e-07
-3.71465572e-07
-3.66650422e-07
-3.78126074e-07
-3.86595483e-07
-3.7002264e-07
-3.66719555e-07
-3.80612482e-07
-3.86147053e-07
-3.70487927e-07
-3.65677971e-07
-3.69049412e-07
-3.85992173e-07
-3.86898998e-07
-3.66680605e-07
-3.64545412e-07
-3.69196275e-07
-3.85970239e-07
-3.84483781e-07
-3.67864558e-07
-3.69713805e-07
-3.86002803e-07
-3.77797075e-07
-3.66354593e-07
-3.68358866e-07
-3.85890262e-07
-3.8683849e-07
-3.66356531e-07
-3.6451195e-07
-3.68293289e-07
-3.85708798e-07
-3.86209584e-07
-3.67843172e-07
-3.66875216e-07
-3.85705072e-07
-3.86798906e-07
-3.66076169e-07
-3.64542966e-07
-3.65325668e-07
-3.66304265e-07
-3.71148668e-07
-3.84775603e-07
-3.86246037e-07
-3.66973624e-07
-3.65231887e-07
-3.70173255e-07
-3.84899011e-07
-3.8555497e-07
-3.68121154e-07
-3.67504337e-07
-3.86178521e-07
-3.8560497e-07
-3.66997343e-07
-3.66695462e-07
-3.86338412e-07
-3.86122419e-07
-3.65796419e-07
-3.64368618e-07
-3.65496428e-07
-3.71596076e-07
-3.84485011e-07
-3.85579738e-07
-3.67037683e-07
-3.65564538e-07
-3.72155053e-07
-3.84348174e-07
-3.85448337e-07
-3.67182234e-07
-3.65957148e-07
-3.73997323e-07
-3.84107964e-07
-3.85682558e-07
-3.66393599e-07
-3.64877644e-07
-3.65896083e-07
-3.72871326e-07
-3.84181587e-07
-3.85483649e-07
-3.66387696e-07
-3.64890164e-07
-3.70265598e-07
-3.84459372e-07
-3.8479575e-07
-3.67241589e-07
-3.67025302e-07
-3.84993721e-07
-3.8531058e-07
-3.65901114e-07
-3.64388226e-07
-3.6929247e-07
-3.84624123e-07
-3.85163835e-07
-3.66100001e-07
-3.64505452e-07
-3.69466638e-07
-3.84626735e-07
-3.85077524e-07
-3.66111981e-07
-3.64479464e-07
-3.69288511e-07
-3.8477556e-07
-3.8508319e-07
-3.65889182e-07
-3.64570912e-07
-3.65592455e-07
-3.71275183e-07
-3.84290579e-07
-3.84701738e-07
-3.66460664e-07
-3.64936977e-07
-3.70153302e-07
-3.84541004e-07
-3.8484224e-07
-3.66408271e-07
-3.64779814e-07
-3.69775266e-07
-3.84546191e-07
-3.84649946e-07
-3.67447903e-07
-3.67149878e-07
-3.85128306e-07
-3.85033734e-07
-3.66264571e-07
-3.66649144e-07
-3.84827847e-07
-3.84907296e-07
-3.65443987e-07
-3.64110861e-07
-3.68390185e-07
-3.84760485e-07
-3.84808836e-07
-3.6602563e-07
-3.64298904e-07
-3.69159159e-07
-3.8458304e-07
-3.84811197e-07
-3.66431109e-07
-3.66679979e-07
-3.84581811e-07
-3.84717438e-07
-3.65299725e-07
-3.64239252e-07
-3.69033179e-07
-3.84501885e-07
-3.84649483e-07
-3.66237705e-07
-3.66499145e-07
-3.84407787e-07
-3.8475296e-07
-3.65132305e-07
-3.63984807e-07
-3.68277973e-07
-3.8448395e-07
-3.84547567e-07
-3.65785265e-07
-3.64023436e-07
-3.68225347e-07
-3.84390818e-07
-3.84416045e-07
-3.65874426e-07
-3.64146366e-07
-3.68582448e-07
-3.84281141e-07
-3.84165262e-07
-3.66326127e-07
-3.66353849e-07
-3.84160873e-07
-3.84361606e-07
-3.65628033e-07
-3.66072776e-07
-3.84273012e-07
-3.84393305e-07
-3.65017214e-07
-3.6382247e-07
-3.67806101e-07
-3.84444049e-07
-3.83994169e-07
-3.6617541e-07
-3.66020096e-07
-3.8442212e-07
-3.84153363e-07
-3.65854224e-07
-3.6595658e-07
-3.8446105e-07
-3.84087257e-07
-3.66045163e-07
-3.64496019e-07
-3.68849335e-07
-3.84340288e-07
-3.839705e-07
-3.66747356e-07
-3.6488551e-07
-3.65826068e-07
-3.65861772e-07
-3.66144474e-07
-3.7546179e-07
-3.83751369e-07
-3.83965284e-07
-3.67397312e-07
-3.66322678e-07
-3.85234744e-07
-3.84133679e-07
-3.66090115e-07
-3.64114244e-07
-3.66908731e-07
-3.84976307e-07
-3.83854279e-07
-3.6696549e-07
-3.65871879e-07
-3.8616945e-07
-3.84182007e-07
-3.6666934e-07
-3.6591472e-07
-3.86578211e-07
-3.84453983e-07
-3.66550768e-07
-3.65894933e-07
-3.86562641e-07
-3.84658898e-07
-3.66537466e-07
-3.64044991e-07
-3.6598523e-07
-3.86175229e-07
-3.84222302e-07
-3.68999844e-07
-3.64498247e-07
-3.65983289e-07
-3.86455264e-07
-3.84197851e-07
-3.70545519e-07
-3.64736994e-07
-3.65864535e-07
-3.8657461e-07
-3.84318299e-07
-3.71152749e-07
-3.64835355e-07
-3.6554918e-07
-3.85388398e-07
-3.84394606e-07
-3.71328481e-07
-3.66320908e-07
-3.79297114e-07
-3.85178747e-07
-3.7217447e-07
-3.64877091e-07
-3.64942641e-07
-3.82949824e-07
-3.84715872e-07
-3.73136677e-07
-3.66475312e-07
-3.76519468e-07
-3.85623141e-07
-3.74615362e-07
-3.6516318e-07
-3.64811456e-07
-3.78249224e-07
-3.85023153e-07
-3.78458415e-07
-3.66192203e-07
-3.66120886e-07
-3.80445468e-07
-3.84603501e-07
-3.8423456e-07
-3.74028094e-07
-3.65832634e-07
-3.65442906e-07
-3.65352476e-07
-3.65182753e-07
-3.67126402e-07
-3.8427611e-07
-3.84605773e-07
-3.80161798e-07
-3.66786703e-07
-3.66067961e-07
-3.75958176e-07
-3.85292558e-07
-3.83294137e-07
-3.67246131e-07
-3.6506197e-07
-3.65204036e-07
-3.77382084e-07
-3.85152241e-07
-3.85540823e-07
-3.67601672e-07
-3.65642817e-07
)
;

boundaryField
{
    closed
    {
        type            calculated;
        value           uniform -5.12782857e-07;
    }
    open
    {
        type            calculated;
        value           nonuniform List<scalar> 0();
    }
    sides
    {
        type            empty;
    }
    procBoundary0to1
    {
        type            processor;
        value           uniform -3.71032143e-07;
    }
}


// ************************************************************************* //
