/*--------------------------------*- C++ -*----------------------------------*\
| =========                 |                                                 |
| \\      /  F ield         | OpenFOAM: The Open Source CFD Toolbox           |
|  \\    /   O peration     | Version:  2306                                  |
|   \\  /    A nd           | Website:  www.openfoam.com                      |
|    \\/     M anipulation  |                                                 |
\*---------------------------------------------------------------------------*/
FoamFile
{
    version     2.0;
    format      ascii;
    arch        "LSB;label=32;scalar=64";
    class       volScalarField;
    location    "0.00026";
    object      prefDZ_T;
}
// * * * * * * * * * * * * * * * * * * * * * * * * * * * * * * * * * * * * * //

dimensions      [1 -1 -1 -1 0 0 0];

internalField   nonuniform List<scalar> 
531
(
-1.1914439e-09
-1.23028161e-09
-1.214879e-09
-1.19091496e-09
-1.19419361e-09
-1.21379374e-09
-1.2134526e-09
-1.19980499e-09
-1.19891361e-09
-1.20529602e-09
-1.2067669e-09
-1.20390627e-09
-1.20277753e-09
-1.20389177e-09
-1.20455267e-09
-1.20416688e-09
-1.20383354e-09
-1.20395525e-09
-1.20410488e-09
-1.20407039e-09
-1.20400878e-09
-1.20401752e-09
-1.20404106e-09
-1.20403921e-09
-1.20403075e-09
-1.20403102e-09
-1.20403389e-09
-1.20403388e-09
-1.20403301e-09
-1.20403297e-09
-1.20403321e-09
-1.20403324e-09
-1.20403318e-09
-1.20403316e-09
-1.20403318e-09
-1.20403318e-09
-1.20403318e-09
-1.20403318e-09
-1.20403318e-09
-1.20403318e-09
-1.20403318e-09
-1.20403318e-09
-1.20403318e-09
-1.20403318e-09
-1.20403318e-09
-1.20403318e-09
-1.20403318e-09
-1.20403318e-09
-1.20403318e-09
-1.20403318e-09
-1.20403318e-09
-1.20403318e-09
-1.20403318e-09
-1.20403318e-09
-1.20403318e-09
-1.20403318e-09
-1.20403318e-09
-1.20403318e-09
-1.20403318e-09
-1.20403318e-09
-1.20403318e-09
-1.20403318e-09
-1.20403318e-09
-1.20403318e-09
-1.20403318e-09
-1.20403318e-09
-1.20403318e-09
-1.20403318e-09
-1.20403318e-09
-1.20403318e-09
-1.20403318e-09
-1.20403318e-09
-1.20403318e-09
-1.20403318e-09
-1.20403318e-09
-1.20403318e-09
-1.20403318e-09
-1.20403318e-09
-1.20403318e-09
-1.20403318e-09
-1.20403318e-09
-1.20403318e-09
-1.20403318e-09
-1.20403318e-09
-1.20403318e-09
-1.20403318e-09
-1.20403318e-09
-1.20403318e-09
-1.20403318e-09
-1.20403318e-09
-1.20403318e-09
-1.20403318e-09
-1.20403318e-09
-1.20403318e-09
-1.20403318e-09
-1.20403318e-09
-1.20403318e-09
-1.20403318e-09
-1.20403318e-09
-1.20403318e-09
-1.20403318e-09
-1.20403318e-09
-1.20403318e-09
-1.20403318e-09
-1.20403318e-09
-1.20403318e-09
-1.20403318e-09
-1.20403318e-09
-1.20403318e-09
-1.20403318e-09
-1.20403318e-09
-1.20403318e-09
-1.20403318e-09
-1.20403318e-09
-1.20403318e-09
-1.20403318e-09
-1.20403318e-09
-1.20403318e-09
-1.20403318e-09
-1.20403318e-09
-1.20403318e-09
-1.20403318e-09
-1.20403318e-09
-1.20403318e-09
-1.20403318e-09
-1.20403318e-09
-1.20403318e-09
-1.20403318e-09
-1.20403318e-09
-1.20403318e-09
-1.20403318e-09
-1.20403318e-09
-1.20403318e-09
-1.20403317e-09
-1.20403318e-09
-1.20403319e-09
-1.20403318e-09
-1.20403317e-09
-1.20403318e-09
-1.20403318e-09
-1.20403318e-09
-1.20403318e-09
-1.20403318e-09
-1.20403318e-09
-1.20403318e-09
-1.20403318e-09
-1.20403318e-09
-1.20403318e-09
-1.20403318e-09
-1.20403318e-09
-1.20403318e-09
-1.20403318e-09
-1.20403318e-09
-1.20403318e-09
-1.20403318e-09
-1.20403318e-09
-1.20403318e-09
-1.20403318e-09
-1.20403318e-09
-1.20403318e-09
-1.20403318e-09
-1.20403318e-09
-1.20403318e-09
-1.20403318e-09
-1.20403318e-09
-1.20403318e-09
-1.20403318e-09
-1.20403318e-09
-1.20403318e-09
-1.20403318e-09
-1.20403318e-09
-1.20403318e-09
-1.20403318e-09
-1.20403318e-09
-1.20403318e-09
-1.20403318e-09
-1.20403318e-09
-1.20403318e-09
-1.20403318e-09
-1.20403318e-09
-1.20403318e-09
-1.20403318e-09
-1.20403318e-09
-1.20403318e-09
-1.20403318e-09
-1.20403318e-09
-1.20403318e-09
-1.20403318e-09
-1.20403318e-09
-1.20403318e-09
-1.20403318e-09
-1.20403318e-09
-1.20403318e-09
-1.20403318e-09
-1.20403318e-09
-1.20403318e-09
-1.20403318e-09
-1.20403318e-09
-1.20403318e-09
-1.20403318e-09
-1.20403318e-09
-1.20403318e-09
-1.20403318e-09
-1.20403318e-09
-1.20403318e-09
-1.20403318e-09
-1.20403318e-09
-1.20403318e-09
-1.20403318e-09
-1.20403318e-09
-1.20403318e-09
-1.20403318e-09
-1.20403318e-09
-1.20403318e-09
-1.20403318e-09
-1.20403317e-09
-1.20403317e-09
-1.20403319e-09
-1.2040332e-09
-1.20403318e-09
-1.20403314e-09
-1.20403315e-09
-1.20403323e-09
-1.20403323e-09
-1.20403314e-09
-1.2040331e-09
-1.20403319e-09
-1.20403328e-09
-1.20403321e-09
-1.20403308e-09
-1.2040331e-09
-1.20403326e-09
-1.20403326e-09
-1.20403314e-09
-1.20403311e-09
-1.20403319e-09
-1.20403324e-09
-1.20403319e-09
-1.20403314e-09
-1.20403316e-09
-1.20403321e-09
-1.2040332e-09
-1.20403316e-09
-1.20403316e-09
-1.20403319e-09
-1.20403319e-09
-1.20403318e-09
-1.20403317e-09
-1.20403317e-09
-1.20403319e-09
-1.20403319e-09
-1.20403318e-09
-1.20403317e-09
-1.20403317e-09
-1.20403317e-09
-1.2040332e-09
-1.2040332e-09
-1.20403316e-09
-1.20403313e-09
-1.20403317e-09
-1.20403326e-09
-1.20403325e-09
-1.20403307e-09
-1.20403304e-09
-1.20403325e-09
-1.20403339e-09
-1.20403322e-09
-1.20403293e-09
-1.20403299e-09
-1.20403341e-09
-1.20403342e-09
-1.20403308e-09
-1.20403298e-09
-1.20403317e-09
-1.2040333e-09
-1.20403321e-09
-1.20403313e-09
-1.20403319e-09
-1.20403326e-09
-1.20403317e-09
-1.20403301e-09
-1.20403306e-09
-1.20403342e-09
-1.20403347e-09
-1.20403307e-09
-1.20403275e-09
-1.20403299e-09
-1.20403367e-09
-1.20403364e-09
-1.20403283e-09
-1.20403259e-09
-1.20403321e-09
-1.20403379e-09
-1.20403351e-09
-1.20403265e-09
-1.20403268e-09
-1.20403342e-09
-1.2040337e-09
-1.20403333e-09
-1.20403273e-09
-1.20403276e-09
-1.20403338e-09
-1.20403366e-09
-1.20403342e-09
-1.20403272e-09
-1.2040327e-09
-1.20403332e-09
-1.20403371e-09
-1.20403348e-09
-1.20403275e-09
-1.20403271e-09
-1.20403319e-09
-1.20403357e-09
-1.20403352e-09
-1.2040331e-09
-1.2040328e-09
-1.20403289e-09
-1.20403343e-09
-1.20403358e-09
-1.20403319e-09
-1.20403281e-09
-1.204033e-09
-1.20403345e-09
-1.20403339e-09
-1.20403298e-09
-1.20403299e-09
-1.20403336e-09
-1.20403338e-09
-1.204033e-09
-1.20403293e-09
-1.2040333e-09
-1.20403346e-09
-1.20403316e-09
-1.20403292e-09
-1.20403308e-09
-1.20403336e-09
-1.20403333e-09
-1.20403311e-09
-1.20403308e-09
-1.20403313e-09
-1.2040332e-09
-1.20403323e-09
-1.20403322e-09
-1.20403316e-09
-1.20403311e-09
-1.20403317e-09
-1.20403325e-09
-1.20403322e-09
-1.20403311e-09
-1.2040331e-09
-1.20403321e-09
-1.20403329e-09
-1.20403327e-09
-1.20403302e-09
-1.20403289e-09
-1.20403316e-09
-1.20403366e-09
-1.20403364e-09
-1.20403249e-09
-1.20403214e-09
-1.20403349e-09
-1.20403479e-09
-1.20403362e-09
-1.20403064e-09
-1.20403135e-09
-1.20403617e-09
-1.2040365e-09
-1.20402859e-09
-1.20402749e-09
-1.20403887e-09
-1.20404097e-09
-1.20401875e-09
-1.2040158e-09
-1.20408093e-09
-1.2040924e-09
-1.20387153e-09
-1.20377777e-09
-1.20446449e-09
-1.20497572e-09
-1.20316674e-09
-1.20082944e-09
-1.20461763e-09
-1.21126875e-09
-1.20407847e-09
-1.18947046e-09
-1.19245387e-09
-1.22612597e-09
-1.22768535e-09
-1.18848427e-09
-1.1863302e-09
-1.18757215e-09
-1.21444074e-09
-1.22525766e-09
-1.23306361e-09
-1.18133548e-09
-1.181326e-09
-1.22341366e-09
-1.22057045e-09
-1.22537732e-09
-1.17641421e-09
-1.17677673e-09
-1.21058064e-09
-1.2076318e-09
-1.20454176e-09
-1.20103962e-09
-1.19765123e-09
-1.19334859e-09
-1.18997978e-09
-1.18527547e-09
-1.1816269e-09
-1.17758473e-09
-1.17598322e-09
-1.16918376e-09
-1.16344245e-09
-1.15470356e-09
-1.14773558e-09
-1.13577358e-09
-1.12745719e-09
-1.1168413e-09
-1.11416799e-09
-1.10011896e-09
-1.09893478e-09
-1.02275091e-09
-1.06462793e-09
-1.01730813e-09
-9.72992841e-10
-9.58622573e-10
-9.50044347e-10
-9.16470785e-10
-9.2598249e-10
-8.7432371e-10
-8.78698117e-10
-8.37678277e-10
-7.95475669e-10
-7.51882543e-10
-6.94812999e-10
-6.32251278e-10
-5.88777056e-10
-5.53770559e-10
-5.05453723e-10
-4.74015696e-10
-4.45791498e-10
-4.22237018e-10
-3.98340507e-10
-3.78027991e-10
-3.58919242e-10
-3.41363357e-10
-3.25129615e-10
-3.08485698e-10
-2.9383877e-10
-2.79308181e-10
-2.67105382e-10
-2.52754182e-10
-2.41584942e-10
-2.30547157e-10
-2.22365457e-10
-2.15270333e-10
-2.09697165e-10
-2.04036622e-10
-1.99613935e-10
-1.95668742e-10
-1.91700364e-10
-1.87309947e-10
-1.836211e-10
-1.79694827e-10
-1.76450103e-10
-1.73031356e-10
-1.70086246e-10
-1.6695013e-10
-1.64574491e-10
-1.62039376e-10
-1.59897717e-10
-1.57496204e-10
-1.55569354e-10
-1.53763082e-10
-1.52211049e-10
-1.50658426e-10
-1.492538e-10
-1.4784243e-10
-1.46453042e-10
-1.44990787e-10
-1.43540498e-10
-1.42268373e-10
-1.41015486e-10
-1.3980268e-10
-1.38628865e-10
-1.37542685e-10
-1.36523494e-10
-1.35581905e-10
-1.3465521e-10
-1.33769994e-10
-1.32905368e-10
-1.32075906e-10
-1.31246535e-10
-1.30361824e-10
-1.29492114e-10
-1.28653619e-10
-1.27828203e-10
-1.27039242e-10
-1.26239794e-10
-1.2547355e-10
-1.24711729e-10
-1.24003893e-10
-1.23291835e-10
-1.22633636e-10
-1.21969815e-10
-1.21387005e-10
-1.2078183e-10
-1.20224539e-10
-1.19642648e-10
-1.19105511e-10
-1.18551786e-10
-1.18038008e-10
-1.17507589e-10
-1.17023193e-10
-1.16514912e-10
-1.16048766e-10
-1.15562881e-10
-1.15111907e-10
-1.1464751e-10
-1.14210076e-10
-1.13779336e-10
-1.13365894e-10
-1.12952258e-10
-1.12548915e-10
-1.12151583e-10
-1.11758161e-10
-1.11376332e-10
-1.10992684e-10
-1.10625539e-10
-1.10251991e-10
)
;

boundaryField
{
    closed
    {
        type            calculated;
        value           nonuniform List<scalar> 0();
    }
    open
    {
        type            calculated;
        value           nonuniform List<scalar> 0();
    }
    sides
    {
        type            empty;
    }
    procBoundary4to3
    {
        type            processor;
        value           uniform -1.18785628e-09;
    }
    procBoundary4to5
    {
        type            processor;
        value           uniform -1.09907764e-10;
    }
}


// ************************************************************************* //
