/*--------------------------------*- C++ -*----------------------------------*\
| =========                 |                                                 |
| \\      /  F ield         | OpenFOAM: The Open Source CFD Toolbox           |
|  \\    /   O peration     | Version:  2306                                  |
|   \\  /    A nd           | Website:  www.openfoam.com                      |
|    \\/     M anipulation  |                                                 |
\*---------------------------------------------------------------------------*/
FoamFile
{
    version     2.0;
    format      ascii;
    arch        "LSB;label=32;scalar=64";
    class       volScalarField;
    location    "0.00026";
    object      prefDPV_T;
}
// * * * * * * * * * * * * * * * * * * * * * * * * * * * * * * * * * * * * * //

dimensions      [1 -1 -1 -1 0 0 0];

internalField   nonuniform List<scalar> 
531
(
5.91426696e-10
6.10321182e-10
6.02837879e-10
5.91179886e-10
5.9276308e-10
6.02308458e-10
6.02142051e-10
5.95491142e-10
5.95057411e-10
5.98165186e-10
5.98882073e-10
5.97487969e-10
5.96938179e-10
5.97480887e-10
5.97802905e-10
5.97614917e-10
5.97452519e-10
5.97511807e-10
5.97584712e-10
5.97567903e-10
5.97537887e-10
5.97542146e-10
5.97553613e-10
5.97552713e-10
5.97548593e-10
5.97548723e-10
5.97550122e-10
5.97550115e-10
5.9754969e-10
5.97549673e-10
5.9754979e-10
5.97549803e-10
5.97549773e-10
5.97549767e-10
5.97549774e-10
5.97549777e-10
5.97549775e-10
5.97549774e-10
5.97549774e-10
5.97549775e-10
5.97549775e-10
5.97549775e-10
5.97549775e-10
5.97549775e-10
5.97549775e-10
5.97549775e-10
5.97549775e-10
5.97549775e-10
5.97549775e-10
5.97549775e-10
5.97549775e-10
5.97549775e-10
5.97549775e-10
5.97549775e-10
5.97549775e-10
5.97549775e-10
5.97549775e-10
5.97549775e-10
5.97549775e-10
5.97549775e-10
5.97549775e-10
5.97549775e-10
5.97549775e-10
5.97549775e-10
5.97549775e-10
5.97549775e-10
5.97549775e-10
5.97549775e-10
5.97549775e-10
5.97549775e-10
5.97549775e-10
5.97549775e-10
5.97549775e-10
5.97549775e-10
5.97549775e-10
5.97549775e-10
5.97549775e-10
5.97549775e-10
5.97549775e-10
5.97549775e-10
5.97549775e-10
5.97549775e-10
5.97549775e-10
5.97549775e-10
5.97549775e-10
5.97549775e-10
5.97549775e-10
5.97549775e-10
5.97549775e-10
5.97549775e-10
5.97549775e-10
5.97549775e-10
5.97549775e-10
5.97549775e-10
5.97549775e-10
5.97549775e-10
5.97549775e-10
5.97549775e-10
5.97549775e-10
5.97549775e-10
5.97549775e-10
5.97549775e-10
5.97549775e-10
5.97549775e-10
5.97549775e-10
5.97549775e-10
5.97549775e-10
5.97549775e-10
5.97549775e-10
5.97549775e-10
5.97549775e-10
5.97549775e-10
5.97549775e-10
5.97549775e-10
5.97549775e-10
5.97549775e-10
5.97549775e-10
5.97549775e-10
5.97549775e-10
5.97549774e-10
5.97549774e-10
5.97549775e-10
5.97549775e-10
5.97549774e-10
5.97549774e-10
5.97549775e-10
5.97549776e-10
5.97549775e-10
5.97549773e-10
5.97549773e-10
5.97549777e-10
5.97549777e-10
5.97549773e-10
5.97549771e-10
5.97549775e-10
5.97549777e-10
5.97549776e-10
5.97549772e-10
5.97549773e-10
5.97549776e-10
5.97549776e-10
5.97549774e-10
5.97549773e-10
5.97549775e-10
5.97549775e-10
5.97549774e-10
5.97549774e-10
5.97549775e-10
5.97549775e-10
5.97549775e-10
5.97549774e-10
5.97549775e-10
5.97549775e-10
5.97549775e-10
5.97549774e-10
5.97549775e-10
5.97549775e-10
5.97549775e-10
5.97549775e-10
5.97549775e-10
5.97549775e-10
5.97549775e-10
5.97549775e-10
5.97549775e-10
5.97549775e-10
5.97549775e-10
5.97549775e-10
5.97549775e-10
5.97549775e-10
5.97549775e-10
5.97549775e-10
5.97549775e-10
5.97549775e-10
5.97549775e-10
5.97549775e-10
5.97549775e-10
5.97549775e-10
5.97549775e-10
5.97549775e-10
5.97549775e-10
5.97549775e-10
5.97549775e-10
5.97549775e-10
5.97549775e-10
5.97549775e-10
5.97549775e-10
5.97549775e-10
5.97549775e-10
5.97549775e-10
5.97549775e-10
5.97549775e-10
5.97549775e-10
5.97549775e-10
5.97549775e-10
5.97549775e-10
5.97549775e-10
5.97549775e-10
5.97549775e-10
5.97549775e-10
5.97549775e-10
5.97549774e-10
5.97549774e-10
5.97549775e-10
5.97549775e-10
5.97549774e-10
5.97549774e-10
5.97549775e-10
5.97549775e-10
5.97549775e-10
5.97549774e-10
5.97549774e-10
5.97549774e-10
5.97549776e-10
5.97549776e-10
5.97549775e-10
5.97549771e-10
5.9754977e-10
5.97549778e-10
5.97549784e-10
5.97549775e-10
5.97549757e-10
5.97549762e-10
5.97549799e-10
5.975498e-10
5.97549754e-10
5.97549736e-10
5.9754978e-10
5.97549821e-10
5.97549791e-10
5.97549728e-10
5.97549738e-10
5.97549813e-10
5.97549814e-10
5.97549756e-10
5.97549739e-10
5.97549778e-10
5.97549802e-10
5.97549781e-10
5.97549755e-10
5.97549764e-10
5.97549788e-10
5.97549786e-10
5.97549766e-10
5.97549765e-10
5.97549778e-10
5.97549782e-10
5.97549774e-10
5.97549769e-10
5.97549772e-10
5.97549778e-10
5.97549778e-10
5.97549775e-10
5.97549772e-10
5.9754977e-10
5.97549772e-10
5.97549783e-10
5.97549785e-10
5.97549767e-10
5.97549751e-10
5.9754977e-10
5.97549815e-10
5.97549808e-10
5.97549721e-10
5.97549708e-10
5.97549809e-10
5.97549876e-10
5.97549793e-10
5.97549654e-10
5.97549684e-10
5.97549885e-10
5.9754989e-10
5.97549725e-10
5.97549675e-10
5.97549771e-10
5.97549831e-10
5.97549788e-10
5.97549749e-10
5.97549781e-10
5.97549815e-10
5.97549768e-10
5.9754969e-10
5.97549715e-10
5.9754989e-10
5.97549915e-10
5.97549723e-10
5.97549565e-10
5.97549681e-10
5.97550012e-10
5.97549999e-10
5.97549606e-10
5.97549486e-10
5.97549788e-10
5.97550072e-10
5.97549935e-10
5.97549518e-10
5.9754953e-10
5.97549892e-10
5.97550028e-10
5.97549849e-10
5.97549554e-10
5.9754957e-10
5.9754987e-10
5.9755001e-10
5.97549893e-10
5.97549552e-10
5.97549543e-10
5.97549842e-10
5.97550032e-10
5.97549922e-10
5.97549565e-10
5.97549547e-10
5.9754978e-10
5.97549964e-10
5.97549939e-10
5.97549734e-10
5.97549588e-10
5.97549631e-10
5.97549895e-10
5.97549972e-10
5.97549782e-10
5.97549596e-10
5.97549688e-10
5.97549905e-10
5.97549877e-10
5.97549676e-10
5.97549681e-10
5.97549865e-10
5.97549873e-10
5.97549689e-10
5.97549655e-10
5.97549834e-10
5.9754991e-10
5.97549767e-10
5.97549648e-10
5.97549727e-10
5.97549863e-10
5.97549848e-10
5.9754974e-10
5.97549727e-10
5.97549753e-10
5.97549787e-10
5.97549801e-10
5.97549793e-10
5.97549764e-10
5.97549743e-10
5.97549771e-10
5.97549808e-10
5.97549794e-10
5.97549739e-10
5.97549737e-10
5.9754979e-10
5.97549829e-10
5.9754982e-10
5.97549695e-10
5.97549635e-10
5.97549763e-10
5.97550007e-10
5.97549998e-10
5.97549438e-10
5.97549264e-10
5.97549924e-10
5.97550556e-10
5.97549986e-10
5.97548532e-10
5.97548878e-10
5.97551225e-10
5.97551384e-10
5.97547527e-10
5.97546989e-10
5.97552531e-10
5.97553552e-10
5.97542718e-10
5.97541278e-10
5.97573006e-10
5.97578594e-10
5.97470991e-10
5.97425324e-10
5.97759899e-10
5.98009039e-10
5.97127684e-10
5.95989568e-10
5.9783449e-10
6.01076808e-10
5.97571428e-10
5.9047238e-10
5.91911753e-10
6.08257599e-10
6.09033502e-10
5.89982939e-10
5.88985173e-10
5.89533523e-10
6.02622817e-10
6.07822202e-10
6.11680669e-10
5.86547455e-10
5.86523526e-10
6.06906843e-10
6.05504388e-10
6.07897207e-10
5.84082989e-10
5.84233843e-10
6.00585065e-10
5.99129864e-10
5.97609595e-10
5.9587998e-10
5.94209586e-10
5.9208352e-10
5.90418804e-10
5.88089949e-10
5.86280609e-10
5.84262895e-10
5.83439494e-10
5.8008287e-10
5.77251326e-10
5.72938367e-10
5.69496517e-10
5.63584527e-10
5.59470607e-10
5.54222202e-10
5.52891159e-10
5.45947112e-10
5.45337306e-10
5.07462584e-10
5.28272892e-10
5.04429086e-10
4.81516573e-10
4.74380931e-10
4.70079534e-10
4.53201696e-10
4.58359808e-10
4.322311e-10
4.34730188e-10
4.14334745e-10
3.92623522e-10
3.70131624e-10
3.39684122e-10
3.04563784e-10
2.79835682e-10
2.59021708e-10
2.29271296e-10
2.08720888e-10
1.90480245e-10
1.74258503e-10
1.58020671e-10
1.43417376e-10
1.29969522e-10
1.16964604e-10
1.0509418e-10
9.23900014e-11
8.12949018e-11
6.99624796e-11
6.0496474e-11
4.90158507e-11
4.01133842e-11
3.1302536e-11
2.48341879e-11
1.93858328e-11
1.51255874e-11
1.08381018e-11
7.48064776e-12
4.49324143e-12
1.60046113e-12
-1.48357643e-12
-3.99168207e-12
-6.58374348e-12
-8.6311344e-12
-1.0730833e-11
-1.24575637e-11
-1.42253119e-11
-1.55242004e-11
-1.68051956e-11
-1.78676273e-11
-1.90124063e-11
-1.99287741e-11
-2.07260527e-11
-2.14115093e-11
-2.20665339e-11
-2.26402354e-11
-2.31999161e-11
-2.37411002e-11
-2.43029938e-11
-2.48607666e-11
-2.53357381e-11
-2.58027954e-11
-2.62433562e-11
-2.66675921e-11
-2.70521959e-11
-2.74139888e-11
-2.77433233e-11
-2.80660945e-11
-2.8367325e-11
-2.86680408e-11
-2.89499088e-11
-2.92325669e-11
-2.9534326e-11
-2.98381915e-11
-3.01264882e-11
-3.04117056e-11
-3.06797014e-11
-3.09580317e-11
-3.12262064e-11
-3.14939362e-11
-3.17379062e-11
-3.19843678e-11
-3.22077915e-11
-3.24350778e-11
-3.2637256e-11
-3.28479058e-11
-3.30387356e-11
-3.3238305e-11
-3.34198704e-11
-3.36071422e-11
-3.37810137e-11
-3.39659727e-11
-3.41324904e-11
-3.43072662e-11
-3.44646952e-11
-3.46295891e-11
-3.47792192e-11
-3.49347845e-11
-3.50775275e-11
-3.52263447e-11
-3.53649667e-11
-3.55060493e-11
-3.5639146e-11
-3.57728806e-11
-3.59006909e-11
-3.60274582e-11
-3.61501933e-11
-3.62703797e-11
-3.63883531e-11
)
;

boundaryField
{
    closed
    {
        type            calculated;
        value           nonuniform List<scalar> 0();
    }
    open
    {
        type            calculated;
        value           nonuniform List<scalar> 0();
    }
    sides
    {
        type            empty;
    }
    procBoundary4to3
    {
        type            processor;
        value           uniform 5.89738595e-10;
    }
    procBoundary4to5
    {
        type            processor;
        value           uniform -3.65048242e-11;
    }
}


// ************************************************************************* //
