/*--------------------------------*- C++ -*----------------------------------*\
| =========                 |                                                 |
| \\      /  F ield         | OpenFOAM: The Open Source CFD Toolbox           |
|  \\    /   O peration     | Version:  2306                                  |
|   \\  /    A nd           | Website:  www.openfoam.com                      |
|    \\/     M anipulation  |                                                 |
\*---------------------------------------------------------------------------*/
FoamFile
{
    version     2.0;
    format      ascii;
    arch        "LSB;label=32;scalar=64";
    class       volScalarField;
    location    "0.00028";
    object      Z;
}
// * * * * * * * * * * * * * * * * * * * * * * * * * * * * * * * * * * * * * //

dimensions      [0 0 0 0 0 0 0];

internalField   nonuniform List<scalar> 
531
(
0.0147656411
0.0140796598
0.0141349858
0.0148249729
0.0147665613
0.0140804509
0.0141371473
0.0148270657
0.0147678352
0.0140811108
0.0141370936
0.0148245502
0.0147619398
0.0140817362
0.0141369015
0.0148250096
0.0147502844
0.0140776551
0.0141674347
0.0147731239
0.0146904183
0.0142627366
0.0143708503
0.014605079
0.0145363151
0.014407084
0.0144339656
0.0144902831
0.0144728865
0.0144488037
0.0144619099
0.0144703678
0.0144580124
0.0144555555
0.0144660655
0.0144657774
0.0144578175
0.0144594071
0.0144659876
0.0144625687
0.0144559776
0.0144616478
0.0144698833
0.0144622953
0.014450676
0.0144588066
0.0144752743
0.0144689712
0.0144465163
0.0144487037
0.0144768227
0.0144777088
0.0144510478
0.0144438882
0.0144661162
0.0144798577
0.0144643267
0.0144443872
0.0144524664
0.0144770531
0.0144751386
0.0144497838
0.0144479984
0.0144683167
0.0144735265
0.0144593078
0.0144532611
0.0144622795
0.0144662074
0.0144603308
0.0144605904
0.0144665741
0.014461481
0.0144516358
0.0144608145
0.0144768162
0.0144662253
0.0144431099
0.0144521862
0.0144814401
0.0144759829
0.014442608
0.0144443712
0.0144781335
0.0144783498
0.0144499249
0.0144471037
0.0144695343
0.0144735033
0.0144566046
0.0144527259
0.01446557
0.0144686712
0.0144578921
0.0144556351
0.0144660455
0.0144680891
0.0144571835
0.0144543645
0.0144651707
0.014469803
0.0144609121
0.0144539854
0.0144587517
0.0144668759
0.0144665896
0.0144627485
0.0144581509
0.0144538913
0.0144582941
0.0144760109
0.0144754407
0.0144446315
0.0144378492
0.0144747161
0.014495497
0.0144593565
0.0144200432
0.014449121
0.0145060779
0.014492987
0.0144169227
0.0144184894
0.0144949176
0.0145084345
0.0144475224
0.0144147604
0.014456731
0.014502647
0.0144873701
0.0144279231
0.0144284229
0.0144760073
0.0144939444
0.0144734625
0.0144329608
0.0144342286
0.0144757578
0.0144948803
0.0144720122
0.0144266724
0.0144311161
0.0144888985
0.0145017067
0.014455068
0.0144167319
0.0144443742
0.0145048505
0.0144992987
0.0144283329
0.0144151361
0.014472989
0.0145096416
0.0144784035
0.0144165228
0.0144228466
0.0144936394
0.0145064388
0.0144576874
0.0144170712
0.0144354181
0.0145006246
0.0145007145
0.014447081
0.0144186938
0.0144476748
0.0145007764
0.0144973282
0.0144369477
0.0144173436
0.0144627793
0.0145066478
0.0144896417
0.014417243
0.014418307
0.0144903942
0.0145118285
0.014456702
0.0144076893
0.01444246
0.0145138428
0.0145045565
0.0144149105
0.0144078749
0.014487953
0.0145187309
0.0144624126
0.0144055147
0.0144344741
0.0145095808
0.0145047391
0.0144313346
0.0144162823
0.0144672688
0.0145010786
0.0144807378
0.0144311385
0.0144325081
0.0144748867
0.0144885442
0.014469663
0.0144411475
0.014442883
0.0144696354
0.0144800854
0.0144714838
0.0144469423
0.0144438776
0.0144649166
0.0144813823
0.0144726339
0.0144425092
0.0144433598
0.0144742977
0.0144813453
0.0144578877
0.0144435771
0.0144588732
0.0144761991
0.0144681941
0.0144514563
0.0144547092
0.0144678536
0.0144668159
0.014459091
0.0144594622
0.0144623352
0.0144613563
0.0144605665
0.0144648834
0.0144650433
0.0144563303
0.0144550246
0.0144675125
0.0144726133
0.0144583138
0.0144465595
0.014459274
0.0144801752
0.0144736827
0.0144411714
0.0144421875
0.0144779999
0.0144857946
0.0144546959
0.0144349621
0.0144573604
0.0144881381
0.0144788223
0.0144370428
0.0144379451
0.0144774236
0.0144871832
0.0144584546
0.0144367083
0.0144530882
0.01448367
0.014479409
0.0144446436
0.0144422006
0.0144695955
0.0144798296
0.0144617376
0.0144463745
0.0144567344
0.0144740904
0.0144688163
0.014451459
0.0144538946
0.0144712822
0.0144706162
0.0144514594
0.0144511897
0.0144723615
0.0144750156
0.0144513143
0.0144450326
0.0144705238
0.014481998
0.0144559768
0.0144376528
0.0144625328
0.014489794
0.0144689262
0.0144294279
0.0144434267
0.0144963812
0.0144921089
0.0144280883
0.0144237517
0.0144851812
0.014503154
0.0144521047
0.014420035
0.0144577321
0.0144984768
0.0144763713
0.0144319884
0.0144413421
0.0144836236
0.0144817822
0.0144471751
0.0144451647
0.01447059
0.014476065
0.0144560982
0.0144474041
0.0144645355
0.014477912
0.0144634911
0.0144429814
0.0144531307
0.0144815694
0.0144783662
0.0144429108
0.0144409258
0.0144730319
0.014483641
0.0144604047
0.0144411249
0.0144530603
0.0144781169
0.0144760804
0.0144530706
0.0144472852
0.0144601982
0.0144734552
0.014470747
0.0144544468
0.0144507789
0.0144622153
0.0144720213
0.0144669496
0.0144528897
0.0144537707
0.0144678104
0.0144695352
0.0144589036
0.0144548174
0.0144622038
0.0144673301
0.0144625548
0.0144573123
0.0144602906
0.0144650777
0.0144632186
0.0144591026
0.0144603171
0.0144637574
0.0144629439
0.0144600811
0.0144606205
0.0144629322
0.0144626014
0.0144608854
0.0144610668
0.0144621841
0.0144620628
0.0144614226
0.0144616224
0.0144620358
0.0144615333
0.0144610551
0.0144621384
0.0144630582
0.0144612412
0.0144594624
0.0144622558
0.0144650835
0.0144606793
0.0144573783
0.0144685887
0.0144722122
0.0144403355
0.0144382803
0.0145280748
0.0145398122
0.0143518249
0.0143522474
0.0146649445
0.0147199401
0.0142420086
0.0140842224
0.0145710546
0.0148011618
0.0145676665
0.0140732514
0.0141057748
0.0148013108
0.0148162317
0.0144484723
0.014071648
0.0141141176
0.014844952
0.0148674365
0.0143639998
0.0140554361
0.0140996455
0.0148831324
0.0147465174
0.0140303704
0.0140124591
0.0140941639
0.0147793106
0.0146584035
0.0139824523
0.0139699607
0.0139618373
0.0139451704
0.0139280132
0.0139067317
0.013875829
0.013846668
0.0137957052
0.0137387853
0.0136386007
0.0135596456
0.0135032083
0.0134508651
0.0133869148
0.0133396017
0.0132688359
0.0132310096
0.0130616644
0.0129668528
0.013204738
0.0133033061
0.0131895083
0.013226763
0.0132546972
0.0132264414
0.0131613917
0.0128820891
0.012893513
0.0125663801
0.0124148322
0.0130927594
0.0132069937
0.0131757089
0.0132583333
0.0132051606
0.0132790045
0.0132799119
0.0133363639
0.0133238006
0.0133521678
0.0133933503
0.0134280636
0.0134941794
0.0135540539
0.0136960541
0.0138615878
0.01400942
0.0141721684
0.0142515772
0.0143403993
0.0144043144
0.0143604074
0.014419036
0.0143519962
0.0143941975
0.0143239705
0.0145012966
0.0143858811
0.0143120849
0.0143014119
0.0146642876
0.0143777396
0.0140263961
0.0140844943
0.0148956584
0.0144366078
0.013552513
0.0136336835
0.0150412604
0.0143908604
0.0131273693
0.0132273244
0.0151085929
0.0141089955
0.0128059975
0.0128911084
0.014783946
0.0135050618
0.0127842832
0.0126302432
0.014392766
0.0130285005
0.012766481
0.0125513698
0.0140379252
0.0128058219
0.0127821849
0.0125733111
0.0137689416
0.0127151472
0.0128342375
0.0126163548
0.0135585557
0.0127239992
0.0128586428
0.0126786514
0.0133999012
0.0127749149
0.0128743255
0.0127429495
0.0132912535
0.0128396378
0.0128918377
0.0128045014
0.0132232529
0.0129066992
0.0129118273
0.0128579951
0.0131866991
0.0129675704
0.0129390909
0.0129065843
0.0131722843
0.0130230501
0.0129730606
0.0129525636
0.0131767897
0.0130742581
0.0130117789
0.0129980521
0.0131967827
0.0131233906
0.0130550997
0.0130481514
0.0132273873
)
;

boundaryField
{
    closed
    {
        type            zeroGradient;
    }
    open
    {
        type            zeroGradient;
    }
    sides
    {
        type            empty;
    }
    procBoundary4to3
    {
        type            processor;
        value           uniform 0.0148215257;
    }
    procBoundary4to5
    {
        type            processor;
        value           uniform 0.0131739913;
    }
}


// ************************************************************************* //
