/*--------------------------------*- C++ -*----------------------------------*\
| =========                 |                                                 |
| \\      /  F ield         | OpenFOAM: The Open Source CFD Toolbox           |
|  \\    /   O peration     | Version:  2306                                  |
|   \\  /    A nd           | Website:  www.openfoam.com                      |
|    \\/     M anipulation  |                                                 |
\*---------------------------------------------------------------------------*/
FoamFile
{
    version     2.0;
    format      ascii;
    arch        "LSB;label=32;scalar=64";
    class       volScalarField;
    location    "0.0014";
    object      prefDZ_H2;
}
// * * * * * * * * * * * * * * * * * * * * * * * * * * * * * * * * * * * * * //

dimensions      [1 -1 -1 0 0 0 0];

internalField   nonuniform List<scalar> 
531
(
6.34792196e-05
6.23544892e-05
6.16598746e-05
6.17150643e-05
6.10916245e-05
6.09032318e-05
6.23841007e-05
6.35045628e-05
6.35812003e-05
6.35674118e-05
6.2401682e-05
6.15828445e-05
6.34264516e-05
6.35198416e-05
6.19191567e-05
6.14638014e-05
6.34012161e-05
6.35173643e-05
6.15485566e-05
6.14104267e-05
6.3417516e-05
6.34961154e-05
6.34725909e-05
6.19882112e-05
6.13175352e-05
6.3405772e-05
6.35027186e-05
6.16008973e-05
6.16176084e-05
6.33682241e-05
6.35072028e-05
6.33836653e-05
6.23656412e-05
6.05761046e-05
6.06343077e-05
6.33807952e-05
6.3445588e-05
6.34349726e-05
6.16777949e-05
6.12521425e-05
6.33805226e-05
6.34938442e-05
6.33943341e-05
6.23603927e-05
6.11467684e-05
6.11881125e-05
6.34093996e-05
6.34937683e-05
6.24133548e-05
6.18228001e-05
6.07904582e-05
6.08244568e-05
6.33750378e-05
6.35087883e-05
6.34053504e-05
6.35373708e-05
6.2256431e-05
6.207505e-05
6.34301125e-05
6.23353914e-05
6.0940191e-05
6.34635679e-05
6.35055608e-05
6.19881377e-05
6.14519146e-05
6.34343881e-05
6.35392347e-05
6.20180298e-05
6.16024965e-05
6.3434381e-05
6.35496894e-05
6.21190943e-05
6.16974129e-05
6.34491266e-05
6.35390849e-05
6.22724875e-05
6.17511459e-05
6.34780982e-05
6.34952076e-05
6.23599881e-05
6.13955842e-05
6.14097067e-05
6.34664896e-05
6.35258181e-05
6.23770017e-05
6.18284929e-05
6.080962e-05
6.08389514e-05
6.34021869e-05
6.35136408e-05
6.34302496e-05
6.35302998e-05
6.34891442e-05
6.23697876e-05
6.21229569e-05
6.12684927e-05
6.12809814e-05
6.34336843e-05
6.35439001e-05
6.1923875e-05
6.14822047e-05
6.34180937e-05
6.35574298e-05
6.19364836e-05
6.15379146e-05
6.3417509e-05
6.35597885e-05
6.20053549e-05
6.16111826e-05
6.34241692e-05
6.35538481e-05
6.21159926e-05
6.16938561e-05
6.34393963e-05
6.35348888e-05
6.22773172e-05
6.17370428e-05
6.3468042e-05
6.34865104e-05
6.23612263e-05
6.13256405e-05
6.13320425e-05
6.34636938e-05
6.34856112e-05
6.23600015e-05
6.08789189e-05
6.09073585e-05
6.34566295e-05
6.34990997e-05
6.34845199e-05
6.23975876e-05
6.15600898e-05
6.34596843e-05
6.35044294e-05
6.2286285e-05
6.14990464e-05
6.34648563e-05
6.34727932e-05
6.23595646e-05
6.07208162e-05
6.07528664e-05
6.34375484e-05
6.34862832e-05
6.34754664e-05
6.21245412e-05
6.14060448e-05
6.34340209e-05
6.35143009e-05
6.16582302e-05
6.15483657e-05
6.3442623e-05
6.35161983e-05
6.34983814e-05
6.22605654e-05
6.14842814e-05
6.34508637e-05
6.35186218e-05
6.22195485e-05
6.17252925e-05
6.34517315e-05
6.35131718e-05
6.23866435e-05
6.19672995e-05
6.11631006e-05
6.1173488e-05
6.34112203e-05
6.35044602e-05
6.1743321e-05
6.16036427e-05
6.34272986e-05
6.35054908e-05
6.34797322e-05
6.2228728e-05
6.1466447e-05
6.34683398e-05
6.3470817e-05
6.2351633e-05
6.08779965e-05
6.09143338e-05
6.34390323e-05
6.35031995e-05
6.34929467e-05
6.21967106e-05
6.16927113e-05
6.3482328e-05
6.34852231e-05
6.23545663e-05
6.16992062e-05
6.17212825e-05
6.07579691e-05
6.07718228e-05
6.29418444e-05
6.34159768e-05
6.34137319e-05
6.33760086e-05
6.34089165e-05
6.34221337e-05
6.20537479e-05
6.15285258e-05
6.07853759e-05
6.08005432e-05
6.33873241e-05
6.34873673e-05
6.34463655e-05
6.35129735e-05
6.23714554e-05
6.17682364e-05
6.34853975e-05
6.34974123e-05
6.23487797e-05
6.12411861e-05
6.12467263e-05
6.34663776e-05
6.35039182e-05
6.2355205e-05
6.06466198e-05
6.06666407e-05
6.34558977e-05
6.35037281e-05
6.34875956e-05
6.23212437e-05
6.14276904e-05
6.34466928e-05
6.35332908e-05
6.17803538e-05
6.17257093e-05
6.34155446e-05
6.35555326e-05
6.34399924e-05
6.23298663e-05
6.11031366e-05
6.1140233e-05
6.34365976e-05
6.35501478e-05
6.22960858e-05
6.17704099e-05
6.34704191e-05
6.35422574e-05
6.23578743e-05
6.20552711e-05
6.14500544e-05
6.14573253e-05
6.34628259e-05
6.352933e-05
6.23794017e-05
6.17829529e-05
6.09118446e-05
6.09259208e-05
6.34198931e-05
6.35178658e-05
6.3458849e-05
6.35384575e-05
6.35057801e-05
6.23546669e-05
6.18485469e-05
6.3510041e-05
6.35088377e-05
6.23310716e-05
6.12469833e-05
6.125174e-05
6.34833227e-05
6.35192991e-05
6.23435991e-05
6.08715387e-05
6.08879992e-05
6.34712524e-05
6.35148413e-05
6.35087861e-05
6.23708554e-05
6.17285847e-05
6.34863736e-05
6.35114953e-05
6.23682542e-05
6.18808674e-05
6.09295624e-05
6.09342587e-05
6.34199161e-05
6.35128312e-05
6.34480136e-05
6.35367763e-05
6.34952755e-05
6.23500015e-05
6.18236229e-05
6.08753913e-05
6.08929211e-05
6.34452431e-05
6.34971395e-05
6.34810617e-05
6.23928285e-05
6.14532279e-05
6.3465594e-05
6.34889004e-05
6.23933312e-05
6.17644302e-05
6.08433685e-05
6.08512156e-05
6.33904728e-05
6.34950431e-05
6.34171391e-05
6.35235133e-05
6.21233203e-05
6.17984737e-05
6.34130625e-05
6.35312645e-05
6.34365027e-05
6.23890789e-05
6.10654793e-05
6.11017132e-05
6.34281062e-05
6.35346314e-05
6.34640677e-05
6.23368822e-05
6.15956529e-05
6.16620523e-05
6.05830262e-05
6.06269261e-05
6.33842751e-05
6.35051823e-05
6.34329843e-05
6.35176123e-05
6.24167031e-05
6.16277906e-05
6.34551919e-05
6.35034466e-05
6.24017749e-05
6.16868999e-05
6.05544949e-05
6.0568632e-05
6.33954793e-05
6.34983427e-05
6.34372294e-05
6.35226876e-05
6.34957136e-05
6.20716118e-05
6.12840556e-05
6.349354e-05
6.35016173e-05
6.23428327e-05
6.06967755e-05
6.07197215e-05
6.34766314e-05
6.35300222e-05
6.35132726e-05
6.23289163e-05
6.16189161e-05
6.35101059e-05
6.3541493e-05
6.23446003e-05
6.171897e-05
6.07493201e-05
6.07584302e-05
6.34249816e-05
6.34919993e-05
6.34724706e-05
6.35185836e-05
6.35511826e-05
6.35896395e-05
6.18676413e-05
6.10357534e-05
6.03908048e-05
6.03994644e-05
6.36361812e-05
6.3780919e-05
6.37424898e-05
6.38756051e-05
6.18202926e-05
6.1398476e-05
6.38804004e-05
6.40458321e-05
6.40085095e-05
6.18951452e-05
6.11946761e-05
6.3903288e-05
6.41266888e-05
6.13862384e-05
6.10610422e-05
6.37276382e-05
6.40368812e-05
6.39197541e-05
6.10662606e-05
6.05167919e-05
6.34181543e-05
6.37206446e-05
6.35167179e-05
6.36439545e-05
6.35423121e-05
6.3608116e-05
6.35562305e-05
6.36064628e-05
6.35876267e-05
6.36422271e-05
6.36460304e-05
6.37155598e-05
6.37425233e-05
6.38411942e-05
6.39019997e-05
6.40668802e-05
6.42077544e-05
6.45921074e-05
6.51047926e-05
6.48103723e-05
6.46084739e-05
6.43169653e-05
6.41357639e-05
6.39167002e-05
6.37756973e-05
6.36296612e-05
6.35459668e-05
6.33980079e-05
6.32406784e-05
6.31313968e-05
6.33111555e-05
6.31044762e-05
6.29939396e-05
6.28832681e-05
6.28202426e-05
6.2793522e-05
6.2783189e-05
6.27640814e-05
6.24711223e-05
6.22627286e-05
6.19621173e-05
6.17659695e-05
6.1461398e-05
6.12736563e-05
6.14140342e-05
6.50587294e-05
6.44337357e-05
6.40814542e-05
6.34745153e-05
6.30861119e-05
6.24639654e-05
6.20274092e-05
6.13609586e-05
6.08467084e-05
6.03235437e-05
6.03900913e-05
6.04747339e-05
6.05578682e-05
6.06371261e-05
6.07354004e-05
6.08110002e-05
6.09660116e-05
6.12393092e-05
6.37168078e-05
6.59491528e-05
6.81353935e-05
6.79153769e-05
7.63007457e-05
7.91291513e-05
8.28020344e-05
8.52260853e-05
8.85810121e-05
9.06694365e-05
9.38854064e-05
9.62262235e-05
9.98169e-05
0.000102449067
0.000106366256
0.000109024986
0.00011304904
0.000115657724
0.000119583033
0.000122017358
0.000125670643
0.000127844708
0.000131133188
0.00013301999
0.000135994368
0.000137943491
0.0001405338
0.000142079111
0.00014428182
0.000145481584
0.00014739887
0.000148333924
0.000150089848
0.000150885696
0.000152469557
0.000153097492
0.000154541963
0.000155030005
0.000156351436
0.000156756377
0.000158005694
0.000158268717
0.000159389412
0.000159769549
0.000160997699
0.00016098806
0.000162091206
0.000162166246
0.000163459039
0.000164064833
0.000165521826
0.000164263475
0.000165703867
0.000166771555
0.000168372307
0.000165904569
0.000167382741
0.000169276406
0.000169795864
0.000167648609
0.000168651744
0.000170225126
0.000170828179
0.000169383641
0.000169853928
0.000171339878
0.000171787684
0.000170599215
0.000170906112
0.000172296921
0.000172570153
0.000171510514
0.000171717212
0.000173040725
0.000173188207
0.000172209245
0.000172355735
0.000173551084
0.000173677904
0.000172763139
0.000172871643
0.00017401027
0.000174089394
0.000173209839
0.00017331063
0.000174440457
0.000174455354
)
;

boundaryField
{
    closed
    {
        type            calculated;
        value           nonuniform List<scalar> 0();
    }
    open
    {
        type            calculated;
        value           nonuniform List<scalar> 0();
    }
    sides
    {
        type            empty;
    }
    procBoundary4to3
    {
        type            processor;
        value           uniform 6.34784114e-05;
    }
    procBoundary4to5
    {
        type            processor;
        value           uniform 0.000173617169;
    }
}


// ************************************************************************* //
