/*--------------------------------*- C++ -*----------------------------------*\
| =========                 |                                                 |
| \\      /  F ield         | OpenFOAM: The Open Source CFD Toolbox           |
|  \\    /   O peration     | Version:  2306                                  |
|   \\  /    A nd           | Website:  www.openfoam.com                      |
|    \\/     M anipulation  |                                                 |
\*---------------------------------------------------------------------------*/
FoamFile
{
    version     2.0;
    format      ascii;
    arch        "LSB;label=32;scalar=64";
    class       volScalarField;
    location    "0.0014";
    object      prefDPV_H2;
}
// * * * * * * * * * * * * * * * * * * * * * * * * * * * * * * * * * * * * * //

dimensions      [1 -1 -1 0 0 0 0];

internalField   nonuniform List<scalar> 
531
(
-3.14886453e-05
-3.09307267e-05
-3.05861656e-05
-3.06135422e-05
-3.03042871e-05
-3.02108355e-05
-3.09454154e-05
-3.15012167e-05
-3.15392325e-05
-3.15323928e-05
-3.09541366e-05
-3.0547955e-05
-3.14624699e-05
-3.15087957e-05
-3.07147815e-05
-3.04889041e-05
-3.14499519e-05
-3.15075668e-05
-3.05309466e-05
-3.04624278e-05
-3.14580375e-05
-3.14970264e-05
-3.14853571e-05
-3.07490358e-05
-3.04163493e-05
-3.14522119e-05
-3.15003019e-05
-3.05569101e-05
-3.05651996e-05
-3.14335864e-05
-3.15025263e-05
-3.14412459e-05
-3.09362586e-05
-3.00485653e-05
-3.00774367e-05
-3.14398222e-05
-3.14719624e-05
-3.14666967e-05
-3.05950549e-05
-3.03839115e-05
-3.1439687e-05
-3.14958998e-05
-3.14465382e-05
-3.09336551e-05
-3.0331641e-05
-3.03521496e-05
-3.14540113e-05
-3.14958621e-05
-3.09599268e-05
-3.06669842e-05
-3.01548946e-05
-3.01717595e-05
-3.14369663e-05
-3.15033128e-05
-3.14520027e-05
-3.1517491e-05
-3.08820853e-05
-3.07921119e-05
-3.14642859e-05
-3.09212533e-05
-3.0229169e-05
-3.14808813e-05
-3.15017117e-05
-3.07489993e-05
-3.04830077e-05
-3.14664068e-05
-3.15184156e-05
-3.07638272e-05
-3.05577033e-05
-3.14664033e-05
-3.15236016e-05
-3.08139599e-05
-3.06047863e-05
-3.14737178e-05
-3.15183413e-05
-3.089005e-05
-3.06314404e-05
-3.1488089e-05
-3.14965761e-05
-3.09334544e-05
-3.04550653e-05
-3.04620706e-05
-3.14823306e-05
-3.15117603e-05
-3.0941894e-05
-3.06698081e-05
-3.01643998e-05
-3.01789495e-05
-3.14504335e-05
-3.15057198e-05
-3.14643539e-05
-3.15139834e-05
-3.14935683e-05
-3.09383154e-05
-3.08158759e-05
-3.03920219e-05
-3.03982169e-05
-3.14660577e-05
-3.15207298e-05
-3.0717122e-05
-3.0498033e-05
-3.1458324e-05
-3.15274412e-05
-3.07233765e-05
-3.05256678e-05
-3.1458034e-05
-3.15286112e-05
-3.07575399e-05
-3.05620121e-05
-3.14613378e-05
-3.15256645e-05
-3.08124213e-05
-3.0603022e-05
-3.14688911e-05
-3.15162598e-05
-3.08924458e-05
-3.06244446e-05
-3.14831007e-05
-3.14922619e-05
-3.09340686e-05
-3.04203699e-05
-3.04235456e-05
-3.14809438e-05
-3.14918158e-05
-3.09334611e-05
-3.01987752e-05
-3.02128826e-05
-3.14774395e-05
-3.14985067e-05
-3.14912745e-05
-3.09521055e-05
-3.05366677e-05
-3.14789549e-05
-3.15011506e-05
-3.08968942e-05
-3.05063873e-05
-3.14815204e-05
-3.14854575e-05
-3.09332443e-05
-3.01203489e-05
-3.01362473e-05
-3.14679745e-05
-3.14921492e-05
-3.14867835e-05
-3.08166618e-05
-3.04602542e-05
-3.14662246e-05
-3.15060473e-05
-3.05853498e-05
-3.05308519e-05
-3.14704917e-05
-3.15069884e-05
-3.14981504e-05
-3.08841361e-05
-3.04990632e-05
-3.14745794e-05
-3.15081906e-05
-3.08637898e-05
-3.06186159e-05
-3.14750099e-05
-3.15054872e-05
-3.09466767e-05
-3.07386626e-05
-3.03397426e-05
-3.03448952e-05
-3.14549145e-05
-3.15011658e-05
-3.06275588e-05
-3.05582719e-05
-3.14628901e-05
-3.15016771e-05
-3.14888996e-05
-3.08683433e-05
-3.04902165e-05
-3.14832484e-05
-3.14844772e-05
-3.09293099e-05
-3.01983176e-05
-3.02163427e-05
-3.14687105e-05
-3.15005404e-05
-3.14954546e-05
-3.08524612e-05
-3.06024541e-05
-3.14901872e-05
-3.14916233e-05
-3.0930765e-05
-3.06056759e-05
-3.06166267e-05
-3.01387785e-05
-3.01456505e-05
-3.12220822e-05
-3.14572739e-05
-3.14561603e-05
-3.14374478e-05
-3.14537717e-05
-3.1460328e-05
-3.0781545e-05
-3.05210105e-05
-3.01523735e-05
-3.01598972e-05
-3.14430609e-05
-3.14926869e-05
-3.14723481e-05
-3.15053888e-05
-3.09391427e-05
-3.0639918e-05
-3.14917098e-05
-3.14976697e-05
-3.09278945e-05
-3.03784766e-05
-3.03812248e-05
-3.14822751e-05
-3.1500897e-05
-3.09310818e-05
-3.00835441e-05
-3.00934753e-05
-3.14770766e-05
-3.15008027e-05
-3.14928002e-05
-3.09142354e-05
-3.04709914e-05
-3.14725105e-05
-3.15154671e-05
-3.06459288e-05
-3.06188226e-05
-3.14570595e-05
-3.15265001e-05
-3.14691868e-05
-3.09185126e-05
-3.03099976e-05
-3.03283991e-05
-3.14675028e-05
-3.1523829e-05
-3.09017559e-05
-3.06409962e-05
-3.14842799e-05
-3.1519915e-05
-3.09324059e-05
-3.07823006e-05
-3.0482085e-05
-3.04856917e-05
-3.14805133e-05
-3.15135024e-05
-3.09430845e-05
-3.06472181e-05
-3.02151079e-05
-3.02220903e-05
-3.14592166e-05
-3.15078156e-05
-3.14785405e-05
-3.15180301e-05
-3.15018206e-05
-3.09308149e-05
-3.06797558e-05
-3.15039341e-05
-3.15033373e-05
-3.09191105e-05
-3.03813523e-05
-3.03837118e-05
-3.14906806e-05
-3.15085266e-05
-3.09253247e-05
-3.01951143e-05
-3.02032795e-05
-3.14846932e-05
-3.15063153e-05
-3.15033117e-05
-3.09388451e-05
-3.0620249e-05
-3.1492194e-05
-3.15046555e-05
-3.09375548e-05
-3.06957882e-05
-3.02238967e-05
-3.02262263e-05
-3.1459228e-05
-3.15053182e-05
-3.14731657e-05
-3.15171961e-05
-3.14966098e-05
-3.09285006e-05
-3.06673924e-05
-3.01970254e-05
-3.02057209e-05
-3.14717914e-05
-3.14975344e-05
-3.14895591e-05
-3.09497448e-05
-3.04836592e-05
-3.14818864e-05
-3.14934474e-05
-3.09499941e-05
-3.063803e-05
-3.01811406e-05
-3.01850331e-05
-3.14446227e-05
-3.14964945e-05
-3.14578505e-05
-3.1510617e-05
-3.08160562e-05
-3.06549171e-05
-3.14558283e-05
-3.1514462e-05
-3.14674557e-05
-3.09478848e-05
-3.02913179e-05
-3.03092915e-05
-3.14632906e-05
-3.15161322e-05
-3.14811292e-05
-3.09219928e-05
-3.05543086e-05
-3.05872458e-05
-3.00519987e-05
-3.00737751e-05
-3.14415484e-05
-3.1501524e-05
-3.14657104e-05
-3.15076899e-05
-3.09615877e-05
-3.05702504e-05
-3.14767264e-05
-3.1500663e-05
-3.09541826e-05
-3.05995713e-05
-3.00378458e-05
-3.00448585e-05
-3.14471062e-05
-3.14981312e-05
-3.14678162e-05
-3.15102074e-05
-3.14968271e-05
-3.07904063e-05
-3.03997419e-05
-3.14957489e-05
-3.14997556e-05
-3.09249445e-05
-3.01084236e-05
-3.01198059e-05
-3.14873614e-05
-3.15138458e-05
-3.15055372e-05
-3.09180413e-05
-3.05658482e-05
-3.15039663e-05
-3.15195358e-05
-3.09258213e-05
-3.06154796e-05
-3.01344882e-05
-3.01390072e-05
-3.14617407e-05
-3.14949846e-05
-3.14852975e-05
-3.15081717e-05
-3.15243423e-05
-3.15434187e-05
-3.06892275e-05
-3.02765724e-05
-2.99566479e-05
-2.99609435e-05
-3.15665056e-05
-3.16383022e-05
-3.16192396e-05
-3.16852709e-05
-3.06657403e-05
-3.04564997e-05
-3.16876496e-05
-3.17697115e-05
-3.17511977e-05
-3.07028707e-05
-3.03554054e-05
-3.1699003e-05
-3.18098202e-05
-3.04504293e-05
-3.02891168e-05
-3.16118725e-05
-3.17652714e-05
-3.17071709e-05
-3.02917054e-05
-3.00191434e-05
-3.14583541e-05
-3.16084033e-05
-3.15072462e-05
-3.15703615e-05
-3.15199421e-05
-3.15525839e-05
-3.15268463e-05
-3.15517638e-05
-3.15424203e-05
-3.15695046e-05
-3.15713912e-05
-3.1605881e-05
-3.16192562e-05
-3.16682015e-05
-3.16983639e-05
-3.17801523e-05
-3.18500324e-05
-3.20406894e-05
-3.22950051e-05
-3.21489589e-05
-3.2048808e-05
-3.19042061e-05
-3.18143218e-05
-3.1705656e-05
-3.1635712e-05
-3.15632713e-05
-3.1521755e-05
-3.14483605e-05
-3.13703178e-05
-3.1316109e-05
-3.14052777e-05
-3.13027551e-05
-3.12479238e-05
-3.11930256e-05
-3.1161762e-05
-3.11485074e-05
-3.11433817e-05
-3.11339035e-05
-3.09885821e-05
-3.08852092e-05
-3.0736092e-05
-3.06387936e-05
-3.04877119e-05
-3.03945833e-05
-3.04642173e-05
-3.22721556e-05
-3.19621297e-05
-3.17873816e-05
-3.14863117e-05
-3.12936456e-05
-3.0985032e-05
-3.07684798e-05
-3.04378893e-05
-3.01827973e-05
-2.99232833e-05
-2.9956294e-05
-2.99982806e-05
-3.00395191e-05
-3.00788348e-05
-3.01275834e-05
-3.01650844e-05
-3.02419772e-05
-3.03775456e-05
-3.16065001e-05
-3.2713847e-05
-3.37983241e-05
-3.36891857e-05
-3.78487186e-05
-3.92517393e-05
-4.10736601e-05
-4.22761021e-05
-4.39403019e-05
-4.49762575e-05
-4.65715281e-05
-4.77326823e-05
-4.95138248e-05
-5.08195022e-05
-5.27626101e-05
-5.40814635e-05
-5.60775816e-05
-5.73716104e-05
-5.9318746e-05
-6.05262848e-05
-6.2338484e-05
-6.3416921e-05
-6.50481602e-05
-6.59841018e-05
-6.74595314e-05
-6.84263871e-05
-6.97113011e-05
-7.04778471e-05
-7.15704933e-05
-7.2165632e-05
-7.31166951e-05
-7.35805253e-05
-7.4451545e-05
-7.48463227e-05
-7.56319916e-05
-7.59434765e-05
-7.66600014e-05
-7.69020926e-05
-7.7557584e-05
-7.77584536e-05
-7.83781731e-05
-7.85086448e-05
-7.90645616e-05
-7.92531272e-05
-7.98623466e-05
-7.98575654e-05
-8.04047768e-05
-8.04420003e-05
-8.10832855e-05
-8.13837875e-05
-8.2106524e-05
-8.14823233e-05
-8.21968248e-05
-8.27264477e-05
-8.35204952e-05
-8.22963822e-05
-8.30296242e-05
-8.39689705e-05
-8.42266457e-05
-8.31615071e-05
-8.36591087e-05
-8.44395794e-05
-8.47387219e-05
-8.40221636e-05
-8.42554483e-05
-8.49925482e-05
-8.52146811e-05
-8.4625145e-05
-8.47773802e-05
-8.54672864e-05
-8.5602822e-05
-8.50771917e-05
-8.51797237e-05
-8.58362475e-05
-8.59094057e-05
-8.54237947e-05
-8.54964609e-05
-8.60894094e-05
-8.6152318e-05
-8.56985523e-05
-8.57523753e-05
-8.63171872e-05
-8.63564363e-05
-8.59201362e-05
-8.5970133e-05
-8.65305799e-05
-8.65379693e-05
)
;

boundaryField
{
    closed
    {
        type            calculated;
        value           nonuniform List<scalar> 0();
    }
    open
    {
        type            calculated;
        value           nonuniform List<scalar> 0();
    }
    sides
    {
        type            empty;
    }
    procBoundary4to3
    {
        type            processor;
        value           uniform -3.14882444e-05;
    }
    procBoundary4to5
    {
        type            processor;
        value           uniform -8.61221907e-05;
    }
}


// ************************************************************************* //
