/*--------------------------------*- C++ -*----------------------------------*\
| =========                 |                                                 |
| \\      /  F ield         | OpenFOAM: The Open Source CFD Toolbox           |
|  \\    /   O peration     | Version:  2306                                  |
|   \\  /    A nd           | Website:  www.openfoam.com                      |
|    \\/     M anipulation  |                                                 |
\*---------------------------------------------------------------------------*/
FoamFile
{
    version     2.0;
    format      ascii;
    arch        "LSB;label=32;scalar=64";
    class       volScalarField;
    location    "0.0014";
    object      rho;
}
// * * * * * * * * * * * * * * * * * * * * * * * * * * * * * * * * * * * * * //

dimensions      [1 -3 0 0 0 0 0];

internalField   nonuniform List<scalar> 
531
(
0.904344638
0.935434683
0.954211002
0.952920679
0.967439662
0.971818333
0.932700651
0.903526841
0.902423719
0.902637467
0.936901342
0.956011014
0.904648898
0.903525991
0.94819581
0.958793342
0.904946375
0.903559049
0.956831019
0.96004349
0.904409628
0.904074421
0.904265913
0.946590846
0.96221422
0.904860492
0.903871312
0.955631783
0.955235202
0.90540034
0.90404957
0.905927736
0.935682082
0.979410366
0.978100656
0.905353426
0.904930087
0.904997257
0.953857762
0.96376335
0.905107882
0.904256137
0.905762072
0.935396209
0.96621252
0.96526477
0.905228357
0.904105081
0.93570597
0.950500107
0.974493725
0.973727071
0.905230976
0.903672001
0.905453994
0.903253767
0.940411565
0.944615311
0.904564835
0.936071154
0.971059494
0.903897049
0.903776366
0.946674169
0.959169984
0.9044747
0.903240298
0.945992513
0.95566731
0.904536138
0.903089203
0.94364305
0.95346405
0.904329208
0.903332412
0.940063382
0.95222749
0.903874786
0.90417889
0.934926539
0.960522117
0.960193084
0.90412293
0.903586374
0.936591421
0.950453375
0.974158279
0.973495591
0.904754411
0.903721847
0.904951635
0.903610326
0.904410793
0.934558943
0.94358915
0.963511135
0.963223307
0.90455596
0.903173411
0.948267632
0.958549428
0.904845253
0.9029603
0.947985548
0.957258864
0.90489125
0.902945686
0.946388517
0.955559096
0.904820413
0.903098893
0.943813361
0.95364148
0.904605859
0.903499783
0.940046296
0.952649224
0.90416584
0.904419359
0.935351027
0.962236852
0.96208922
0.904234309
0.904289584
0.936282038
0.972628687
0.971978378
0.90414098
0.904251371
0.904293061
0.937077068
0.956800307
0.904289872
0.904059572
0.939863912
0.95823258
0.904228356
0.904561051
0.936616525
0.976318386
0.975592762
0.904469243
0.904439527
0.904459313
0.943667557
0.960420326
0.904595323
0.903890808
0.954550954
0.957105567
0.904224008
0.904021903
0.904068683
0.940492386
0.958607307
0.904434193
0.903844711
0.94146682
0.952994951
0.904535233
0.904058274
0.936372138
0.947357669
0.96608697
0.965851458
0.90506647
0.90408491
0.952602886
0.955851691
0.904655643
0.904276588
0.904583114
0.941273829
0.959063783
0.904227485
0.904678215
0.93680531
0.972750682
0.971923815
0.904622343
0.904214034
0.904392406
0.942030526
0.953803426
0.90399644
0.90458809
0.935409031
0.953660617
0.953138189
0.975542365
0.9752351
0.916760866
0.905620676
0.905471219
0.906334185
0.905932393
0.905325824
0.945410083
0.957656211
0.974917989
0.974578573
0.905417395
0.904362954
0.905067769
0.903967419
0.936567221
0.952058264
0.904061801
0.904323711
0.935776753
0.964331598
0.964203703
0.904280679
0.903980411
0.93716156
0.978151055
0.977697551
0.904227277
0.904211956
0.904210986
0.939143339
0.960002263
0.904545988
0.903636489
0.951788748
0.953047228
0.904938435
0.90341883
0.905247571
0.936145727
0.967542468
0.966691215
0.904924816
0.903252104
0.939747694
0.952009437
0.904329259
0.903597182
0.936541398
0.945361816
0.959486462
0.959313702
0.904358182
0.90371743
0.937267857
0.951718909
0.971990476
0.971668609
0.904738672
0.903853575
0.904638182
0.903637171
0.904260808
0.937776148
0.950183025
0.903628489
0.904092146
0.936409534
0.964194794
0.96408359
0.904004473
0.903710424
0.93733528
0.972926648
0.972549572
0.904087047
0.904059637
0.903981952
0.937500937
0.952976653
0.904048842
0.90413117
0.937057486
0.94941615
0.971554462
0.971448458
0.904749144
0.903932149
0.90482931
0.9036521
0.904467274
0.937640624
0.950742861
0.972809272
0.972395714
0.904255838
0.90434277
0.904291465
0.937412741
0.959348449
0.904346268
0.904448284
0.936821126
0.952082702
0.973493672
0.973316657
0.905253095
0.904131009
0.905437584
0.903667119
0.943704224
0.95125943
0.905033231
0.903807577
0.905225584
0.933504605
0.968319571
0.967487677
0.904901323
0.90362887
0.904868822
0.936148083
0.955966779
0.954402928
0.979467666
0.978479203
0.905306864
0.903804444
0.90513416
0.903661648
0.936564106
0.955192187
0.904514501
0.904098025
0.93686255
0.95380625
0.980114329
0.979795831
0.904904279
0.90394624
0.904742749
0.90363825
0.904160701
0.944797847
0.963169473
0.903609382
0.903850589
0.937828951
0.976805392
0.97628803
0.903802647
0.903537917
0.903704003
0.938767996
0.955359484
0.903359241
0.903320953
0.937828139
0.953020685
0.975585126
0.975376158
0.904256798
0.903867671
0.903927131
0.903215486
0.902811236
0.901834223
0.949483173
0.968922894
0.983951148
0.983760291
0.900084661
0.898192984
0.898776195
0.89648789
0.95049816
0.960376031
0.895525931
0.893381705
0.893733866
0.946751237
0.965098442
0.895857367
0.8920954
0.960468972
0.968108597
0.900111865
0.894830806
0.897135047
0.967713053
0.980880502
0.907833692
0.902794609
0.90682758
0.905209823
0.90735998
0.90687208
0.908141277
0.907904938
0.908560182
0.908226011
0.908458141
0.907792863
0.907571018
0.906260991
0.905337382
0.902518854
0.899862195
0.892071851
0.881011867
0.888338953
0.893319096
0.900571184
0.90513031
0.910722349
0.91440528
0.918324834
0.92073271
0.925025383
0.929742062
0.933235614
0.929660729
0.936552094
0.940627669
0.944627341
0.947250359
0.948738038
0.949778971
0.951044762
0.960315399
0.967226811
0.97693282
0.983664598
0.993770048
1.00040887
1.00121589
0.91984119
0.937482309
0.948023301
0.965614067
0.977106221
0.995387247
1.00821943
1.02758947
1.04227498
1.05810635
1.0594806
1.06121325
1.06291892
1.06452687
1.06650962
1.06801166
1.06767197
1.0631912
1.0080034
0.961208525
0.921074602
0.93516047
0.78436451
0.74218154
0.696918501
0.666969664
0.632901923
0.610945152
0.582814144
0.561314943
0.533203169
0.511914032
0.485012946
0.466732934
0.442706295
0.427033009
0.40648758
0.393720631
0.376768674
0.366505625
0.35261643
0.344407215
0.332714839
0.324788234
0.315221835
0.309316142
0.301675237
0.297344089
0.291022575
0.287820757
0.282265794
0.279683047
0.274857922
0.272932528
0.268678899
0.267275993
0.263502271
0.262419235
0.258936555
0.258354828
0.255364649
0.254332737
0.250979961
0.251578461
0.248929781
0.248054437
0.244166072
0.244538385
0.24181746
0.242293276
0.237750873
0.239772146
0.237161056
0.238824366
0.234672392
0.235585036
0.234693023
0.23620862
0.232965613
0.233778085
0.232371226
0.233157111
0.230917784
0.231223778
0.230189649
0.230929966
0.229122438
0.22902029
0.228381342
0.229141885
0.227683217
0.227294369
0.226955415
0.227695364
0.226536185
0.226063092
0.225819368
0.226496496
0.22560016
0.22498549
0.22486972
0.225503854
0.22480393
0.224043489
0.224043297
)
;

boundaryField
{
    closed
    {
        type            calculated;
        value           nonuniform List<scalar> 0();
    }
    open
    {
        type            calculated;
        value           nonuniform List<scalar> 0();
    }
    sides
    {
        type            empty;
    }
    procBoundary4to3
    {
        type            processor;
        value           uniform 0.903732994;
    }
    procBoundary4to5
    {
        type            processor;
        value           uniform 0.2246101;
    }
}


// ************************************************************************* //
