/*--------------------------------*- C++ -*----------------------------------*\
| =========                 |                                                 |
| \\      /  F ield         | OpenFOAM: The Open Source CFD Toolbox           |
|  \\    /   O peration     | Version:  2306                                  |
|   \\  /    A nd           | Website:  www.openfoam.com                      |
|    \\/     M anipulation  |                                                 |
\*---------------------------------------------------------------------------*/
FoamFile
{
    version     2.0;
    format      ascii;
    arch        "LSB;label=32;scalar=64";
    class       volScalarField;
    location    "0.00104";
    object      prefDh_T;
}
// * * * * * * * * * * * * * * * * * * * * * * * * * * * * * * * * * * * * * //

dimensions      [1 1 -3 -1 0 0 0];

internalField   nonuniform List<scalar> 
530
(
0.00741117256
0.00789941198
0.00848192592
0.00848291561
0.00748205155
0.00788389159
0.00847289615
0.00847333385
0.00756270856
0.00786317798
0.00846538583
0.00846349061
0.00772966308
0.0078214352
0.00830090357
0.00845352108
0.00823313478
0.00783501776
0.0079992053
0.00844329129
0.00844119738
0.00786229246
0.00788391146
0.00838333945
0.00843107238
0.00805054022
0.00784448739
0.00820150612
0.00842044054
0.0083164937
0.00784448752
0.00805085318
0.00835077205
0.00839335864
0.00797213212
0.00799913827
0.00815970569
0.00839473375
0.00824805081
0.00800033606
0.00797052445
0.00838736788
0.00837175523
0.00801261008
0.00793559648
0.00837721845
0.00837512178
0.0080141702
0.0079156314
0.00836739825
0.00836459658
0.00800599597
0.00790499466
0.00835787052
0.00835444016
0.00801131309
0.00789054987
0.00830086655
0.00834450539
0.00814369906
0.00788382918
0.00817175573
0.00833475951
0.00829277868
0.00788146417
0.00808902176
0.00832532272
0.00832653511
0.00788605065
0.00805243469
0.0083161665
0.0083170164
0.00789191626
0.0080374778
0.0083072981
0.00830809114
0.00789686952
0.00803171899
0.00829872332
0.00829951402
0.00790053011
0.00802866116
0.00829044507
0.00829117281
0.00790388266
0.00802614013
0.00828236419
0.00828306087
0.00790646932
0.00802389101
0.00827450508
0.0082752242
0.00790916409
0.00802108664
0.00826691074
0.00826762688
0.00791350008
0.00801855459
0.00825959858
0.00826028373
0.00791634393
0.00801697124
0.00825254886
0.00825319159
0.00791937047
0.00801544976
0.00824577913
0.00824632447
0.00792297864
0.00801413186
0.00823920332
0.00823966034
0.00792751658
0.00801277282
0.00823289819
0.00823324909
0.00793288731
0.00801085696
0.00822686017
0.00822709071
0.00794020225
0.00800858341
0.00822113286
0.00822119115
0.00795063332
0.00800646792
0.0082157338
0.00821554578
0.00796634753
0.00800373303
0.00821079031
0.00821011516
0.0079895124
0.00799956178
0.00820622543
0.00820492564
0.00801928406
0.00799769849
0.00820197937
0.00820001478
0.00805417393
0.00799713386
0.00812508082
0.00819545088
0.00814078225
0.00800087336
0.0080067699
0.00819130024
0.00819039655
0.00800557335
0.00797981826
0.00818748272
0.00818585636
0.00801190501
0.00797003701
0.0081839481
0.00818194863
0.00801979017
0.00796930422
0.00818068819
0.0081784411
0.00803173378
0.00796978532
0.00817787835
0.00817524498
0.00804853976
0.00796913604
0.00817547707
0.0081722805
0.008067032
0.0079649844
0.00813082187
0.008169467
0.00812429822
0.00796301078
0.00807309928
0.00816690613
0.00816921469
0.0079640447
0.00805739149
0.00816460665
0.00816656318
0.0079659571
0.00804779536
0.0081625764
0.00816428034
0.0079699573
0.00804463866
0.00816078279
0.00816229979
0.00797738261
0.0080423277
0.00815930566
0.0081605577
0.00798930487
0.00804078132
0.00815817536
0.00815902348
0.00800776033
0.00803976653
0.00815745629
0.00815769691
0.00803294669
0.00803960308
0.00815707586
0.00815656539
0.00806602551
0.00804038073
0.00815713207
0.00815562587
0.00809021957
0.00804254905
0.00809107207
0.00815487157
0.00814977088
0.00804720549
0.0080232614
0.00815406941
0.00815336703
0.00805358013
0.00800544694
0.00815337845
0.00815208297
0.00805732319
0.00800683745
0.00815277955
0.00815135524
0.00806155572
0.00801899817
0.0081523106
0.00815102469
0.00806655542
0.00803353392
0.00815195653
0.00815091185
0.00807200098
0.00804533225
0.00815168392
0.008150869
0.00807844176
0.00805005023
0.00815148003
0.00815084944
0.00808489661
0.00805392857
0.00815134116
0.00815088138
0.00809046953
0.00805758405
0.00815128841
0.00815096441
0.00809508874
0.00806075299
0.00815131544
0.00815107914
0.0080985462
0.00806309307
0.0081514227
0.00815121407
0.00810087668
0.00806455374
0.00815160694
0.00815137264
0.00810217871
0.00806542757
0.00815186131
0.00815156727
0.00810269383
0.00806621438
0.00815217497
0.00815181966
0.00810272158
0.00806745861
0.0081525348
0.00815215326
0.00810260565
0.00806965739
0.00815292836
0.00815257659
0.00810267746
0.00807292983
0.00815334926
0.00815306073
0.00810314443
0.00807855924
0.00815379648
0.00815360382
0.00810417851
0.00808557258
0.00815426943
0.00815417382
0.00810574118
0.00809260951
0.00815476713
0.00815476542
0.00810777162
0.00809896332
0.00815528905
0.00815536312
0.00811016957
0.00810446379
0.00815582688
0.00815595335
0.00811284022
0.00810919259
0.00815637381
0.0081565367
0.00811566615
0.0081133346
0.00815693082
0.00815711684
0.0081185576
0.00811704531
0.00815749297
0.00815769297
0.00812144539
0.00812043918
0.00815805608
0.00815826372
0.00812428183
0.00812359091
0.00815861642
0.00815882737
0.00812703593
0.00812654568
0.00815917067
0.00815938207
0.00812968808
0.00812933086
0.00815971613
0.00815992583
0.00813222616
0.00813196336
0.00816025051
0.00816045669
0.00813464497
0.00813445339
0.00816077177
0.00816097301
0.00813694435
0.00813680676
0.00816127806
0.00816147345
0.00813912563
0.00813902942
0.00816176794
0.00816195684
0.00814119037
0.00814112926
0.00816224038
0.0081624221
0.00814314046
0.00814311536
0.00816269442
0.00816286854
0.00814497873
0.00814499802
0.0081631293
0.00816329578
0.0081467081
0.00814678892
0.00816354455
0.0081637035
0.00814833016
0.00814849896
0.00816393994
0.00816409139
0.00814984563
0.00815013054
0.00816431554
0.00816445891
0.00815125677
0.00815166513
0.00816467127
0.00816480557
0.00815256851
0.0081530563
0.00816500685
0.00816513109
0.00815378616
0.00815424486
0.00816532246
0.00816543462
0.00815491584
0.00815520713
0.00816561861
0.00816571559
0.00815596898
0.0081560328
0.0081658959
0.00816597908
0.00815696036
0.00815694861
0.00816615567
0.00816623637
0.00815789702
0.00815819294
0.00816639829
0.00816649595
0.00815877024
0.00815993133
0.00816662302
0.00816675231
0.00815955937
0.00816263699
0.00816683008
0.00816585879
0.00816026031
0.00816707516
0.00816702202
0.00816408275
0.00816091536
0.00816721152
0.00816719954
0.00816328774
0.00816154179
0.00816735529
0.0081673635
0.00816335525
0.00816214735
0.00816749956
0.00816751436
0.0081636821
0.00816271417
0.00816763595
0.00816765265
0.00816407368
0.00816323617
0.00816776252
0.00816777901
0.00816446704
0.00816371327
0.00816787899
0.00816789421
0.00816483947
0.00816415047
0.00816798569
0.00816799908
0.00816518559
0.00816455614
0.00816808336
0.00816809479
0.0081655086
0.00816494331
0.00816817346
0.0081681836
0.0081658221
0.00816532911
0.00816825984
0.00816827034
0.00816628606
0.008165925
0.00816832869
0.00816834177
0.00816703889
0.00816674311
0.00816762626
0.00816752382
0.00816761501
0.00816748459
0.00816773361
0.00816762457
0.00816783641
0.00816773965
0.00816794461
0.00816786173
0.00816805759
0.00816798695
0.00816817413
0.00816811513
0.00816829051
0.00816824473
0.00816840257
0.00816837274
0.00816850801
0.00816849706
0.00816860394
0.00816861105
0.0081686929
0.00816871355
0.00816876949
0.00816879862
0.00816883926
0.00816886786
0.0081688986
0.00816890272
0.00816890538
0.0081689072
0.00816890821
0.00816890876
0.008168909
0.00816890907
0.00816890907
0.00816890904
0.00816890901
0.00816890899
0.00816890898
0.00816890897
0.00816890897
0.00816890897
0.00816890897
0.00816890897
0.00816890897
0.00816890897
0.00816890897
0.00816890897
0.00816890897
0.00816890897
0.00816890897
0.00816890897
0.00816890897
0.00816890897
0.00816890897
0.00816890897
0.00816890897
0.00816890897
0.00816890897
0.00816890897
0.00816890897
0.00816890897
0.00816890897
0.00816890897
0.00816890897
0.00816890897
0.00816890897
0.00816890897
0.00816890897
0.00816890897
0.00816890897
0.00816890897
)
;

boundaryField
{
    closed
    {
        type            calculated;
        value           nonuniform List<scalar> 0();
    }
    open
    {
        type            calculated;
        value           uniform 0.00816890897;
    }
    sides
    {
        type            empty;
    }
    procBoundary5to4
    {
        type            processor;
        value           uniform 0.00849230048;
    }
}


// ************************************************************************* //
