/*--------------------------------*- C++ -*----------------------------------*\
| =========                 |                                                 |
| \\      /  F ield         | OpenFOAM: The Open Source CFD Toolbox           |
|  \\    /   O peration     | Version:  2306                                  |
|   \\  /    A nd           | Website:  www.openfoam.com                      |
|    \\/     M anipulation  |                                                 |
\*---------------------------------------------------------------------------*/
FoamFile
{
    version     2.0;
    format      ascii;
    arch        "LSB;label=32;scalar=64";
    class       volScalarField;
    location    "0.00186";
    object      alpha;
}
// * * * * * * * * * * * * * * * * * * * * * * * * * * * * * * * * * * * * * //

dimensions      [1 -1 -1 0 0 0 0];

internalField   nonuniform List<scalar> 
531
(
3.66971665e-05
3.57655881e-05
3.52273054e-05
3.56565364e-05
3.68363561e-05
3.67723116e-05
3.57779885e-05
3.52984932e-05
3.52287845e-05
3.56385742e-05
3.68379434e-05
3.67660594e-05
3.57572424e-05
3.52498536e-05
3.5671943e-05
3.68532675e-05
3.67806578e-05
3.57516941e-05
3.5261419e-05
3.56761091e-05
3.68563501e-05
3.67863348e-05
3.57494997e-05
3.52648732e-05
3.56779749e-05
3.68576929e-05
3.6793468e-05
3.57459227e-05
3.52617531e-05
3.56764129e-05
3.6857222e-05
3.68032061e-05
3.57477383e-05
3.52608614e-05
3.56365646e-05
3.68594889e-05
3.67990853e-05
3.57214354e-05
3.50578861e-05
3.54594651e-05
3.68481065e-05
3.68264106e-05
3.68224439e-05
3.68237868e-05
3.57354961e-05
3.51330819e-05
3.51183374e-05
3.52198909e-05
3.68522008e-05
3.68354637e-05
3.55111002e-05
3.54721312e-05
3.68600208e-05
3.68262702e-05
3.56981546e-05
3.51372027e-05
3.5378099e-05
3.68326519e-05
3.68593608e-05
3.56919125e-05
3.55969089e-05
3.68300852e-05
3.68413431e-05
3.57079526e-05
3.52956059e-05
3.54592846e-05
3.68230161e-05
3.68685152e-05
3.56948842e-05
3.56906268e-05
3.67992111e-05
3.68408362e-05
3.5751055e-05
3.54558554e-05
3.5524751e-05
3.53074496e-05
3.54946905e-05
3.67910588e-05
3.68520037e-05
3.60014269e-05
3.55089327e-05
3.53705366e-05
3.56236419e-05
3.67806922e-05
3.68733339e-05
3.57300735e-05
3.57091439e-05
3.67151038e-05
3.68315746e-05
3.63484394e-05
3.55095689e-05
3.53434533e-05
3.52835835e-05
3.54742074e-05
3.67761978e-05
3.6845309e-05
3.57437331e-05
3.53351633e-05
3.56017825e-05
3.67766714e-05
3.68527041e-05
3.57307002e-05
3.5259226e-05
3.56040072e-05
3.67493287e-05
3.68523199e-05
3.68536519e-05
3.58153561e-05
3.54388862e-05
3.53161537e-05
3.54755004e-05
3.67695636e-05
3.68459386e-05
3.57127561e-05
3.52353768e-05
3.55243746e-05
3.67485993e-05
3.68489773e-05
3.57295664e-05
3.52821792e-05
3.54697574e-05
3.67398939e-05
3.68657128e-05
3.57355967e-05
3.57266356e-05
3.66711772e-05
3.68370811e-05
3.5717461e-05
3.52855484e-05
3.55442333e-05
3.67388559e-05
3.6848268e-05
3.57233766e-05
3.52482271e-05
3.55186546e-05
3.67345442e-05
3.68466951e-05
3.56993685e-05
3.51560268e-05
3.53347766e-05
3.67207573e-05
3.6864569e-05
3.57125076e-05
3.56395156e-05
3.65738328e-05
3.68298494e-05
3.56829152e-05
3.51257782e-05
3.52904826e-05
3.67113144e-05
3.68666228e-05
3.57158718e-05
3.56678249e-05
3.65631231e-05
3.68296406e-05
3.56661539e-05
3.51146929e-05
3.57940122e-05
3.67791157e-05
3.57412494e-05
3.5712401e-05
3.65741652e-05
3.68168686e-05
3.58763892e-05
3.5273041e-05
3.52584537e-05
3.66856946e-05
3.68649907e-05
3.57126949e-05
3.56860939e-05
3.65959767e-05
3.68078473e-05
3.59708602e-05
3.54563938e-05
3.53771458e-05
3.51145628e-05
3.51157107e-05
3.66901138e-05
3.68529997e-05
3.5701586e-05
3.55707118e-05
3.66194434e-05
3.68194117e-05
3.57591178e-05
3.52059415e-05
3.52478731e-05
3.67410672e-05
3.68644624e-05
3.57154232e-05
3.56046774e-05
3.669364e-05
3.68279668e-05
3.57542571e-05
3.52065486e-05
3.52575702e-05
3.67626208e-05
3.68655026e-05
3.57169799e-05
3.55866644e-05
3.67315409e-05
3.68306122e-05
3.57482649e-05
3.52012677e-05
3.52506543e-05
3.67759165e-05
3.6863424e-05
3.57271995e-05
3.55938451e-05
3.67536183e-05
3.68319571e-05
3.57665537e-05
3.52575682e-05
3.53448093e-05
3.67959244e-05
3.68345758e-05
3.5832296e-05
3.53127225e-05
3.53524425e-05
3.67961186e-05
3.68373319e-05
3.58541902e-05
3.54797772e-05
3.52838907e-05
3.52840758e-05
3.67768423e-05
3.68267997e-05
3.57762029e-05
3.52289889e-05
3.52468125e-05
3.68001944e-05
3.68280644e-05
3.58230923e-05
3.52830904e-05
3.52824442e-05
3.67862721e-05
3.68280001e-05
3.5836219e-05
3.52873925e-05
3.52868508e-05
3.67853909e-05
3.68236607e-05
3.582395e-05
3.52647091e-05
3.52653631e-05
3.67646563e-05
3.68490809e-05
3.57668757e-05
3.56107767e-05
3.67765178e-05
3.68221088e-05
3.58110353e-05
3.53131433e-05
3.53131182e-05
3.67628325e-05
3.68195866e-05
3.58420618e-05
3.52800948e-05
3.52798745e-05
3.67603346e-05
3.6815101e-05
3.58174209e-05
3.51252881e-05
3.51272799e-05
3.67829596e-05
3.68192663e-05
3.68176737e-05
3.57769467e-05
3.52974368e-05
3.50314414e-05
3.50388877e-05
3.67020113e-05
3.68379453e-05
3.57815075e-05
3.53842541e-05
3.6707392e-05
3.68356308e-05
3.57968023e-05
3.55359727e-05
3.67437038e-05
3.68106618e-05
3.58116629e-05
3.52283909e-05
3.52312483e-05
3.6716524e-05
3.68044557e-05
3.58350058e-05
3.51917511e-05
3.51961366e-05
3.66254097e-05
3.68415215e-05
3.57993353e-05
3.55414747e-05
3.67050064e-05
3.68443181e-05
3.58014932e-05
3.5601881e-05
3.67348473e-05
3.68161711e-05
3.58341776e-05
3.52642745e-05
3.52658341e-05
3.66341445e-05
3.68072131e-05
3.58772945e-05
3.5260562e-05
3.52626743e-05
3.65983901e-05
3.68098103e-05
3.58748853e-05
3.5247221e-05
3.5247988e-05
3.65811266e-05
3.68095065e-05
3.59825966e-05
3.52949851e-05
3.52941964e-05
3.67398637e-05
3.58395985e-05
3.55214354e-05
3.65855762e-05
3.68142689e-05
3.63234115e-05
3.54297984e-05
3.53960732e-05
3.66759505e-05
3.58683028e-05
3.55339844e-05
3.67227747e-05
3.68356716e-05
3.58781273e-05
3.56962629e-05
3.52837156e-05
3.52840185e-05
3.67511435e-05
3.58748186e-05
3.54715987e-05
3.661098e-05
3.68377892e-05
3.57823826e-05
3.55745704e-05
3.65970299e-05
3.68340935e-05
3.68122051e-05
3.5759172e-05
3.53029267e-05
3.50460352e-05
3.50497912e-05
3.64015406e-05
3.6820294e-05
3.57853742e-05
3.56860036e-05
3.67442177e-05
3.58598592e-05
3.53109185e-05
3.65987216e-05
3.68407124e-05
3.57864802e-05
3.55676317e-05
3.67287255e-05
3.68465654e-05
3.5863016e-05
3.57011508e-05
3.52863737e-05
3.52863838e-05
3.67490562e-05
3.58979178e-05
3.547156e-05
3.66583224e-05
3.6841556e-05
3.57935663e-05
3.55649479e-05
3.67300193e-05
3.68197604e-05
3.58827948e-05
3.52457783e-05
3.52382243e-05
3.63896354e-05
3.68351918e-05
3.58099427e-05
3.56506919e-05
3.67078978e-05
3.6844313e-05
3.58914535e-05
3.56762899e-05
3.52778625e-05
3.52774623e-05
3.62525208e-05
3.68127937e-05
3.65132581e-05
3.57201764e-05
3.51814146e-05
3.51917163e-05
3.66113522e-05
3.6792843e-05
3.60599621e-05
3.53529273e-05
3.52977958e-05
3.63010473e-05
3.68272809e-05
3.57953071e-05
3.55677769e-05
3.66612455e-05
3.68290204e-05
3.59218151e-05
3.55637397e-05
3.55258478e-05
3.5074407e-05
3.50779328e-05
3.64329829e-05
3.67992099e-05
3.6796531e-05
3.5799427e-05
3.57054949e-05
3.66749515e-05
3.59559927e-05
3.53658636e-05
3.64810722e-05
3.68161729e-05
3.59083078e-05
3.56708795e-05
3.51927051e-05
3.51979318e-05
3.63780557e-05
3.68275941e-05
3.57897329e-05
3.56635239e-05
3.66425019e-05
3.59229138e-05
3.52279882e-05
3.6364321e-05
3.6819902e-05
3.57645736e-05
3.54481488e-05
3.66299028e-05
3.68152175e-05
3.59114918e-05
3.54399223e-05
3.54390995e-05
3.66281484e-05
3.67961173e-05
3.61438092e-05
3.53830706e-05
3.52779488e-05
3.6238086e-05
3.67904175e-05
3.60810525e-05
3.53350629e-05
3.52979808e-05
3.63548691e-05
3.67915449e-05
3.6033648e-05
3.53188263e-05
3.52937775e-05
3.63696138e-05
3.67929979e-05
3.59921057e-05
3.52695458e-05
3.52568507e-05
3.63875974e-05
3.67944392e-05
3.59536225e-05
3.52186124e-05
3.52201588e-05
3.6416764e-05
3.67963816e-05
3.5937106e-05
3.52125242e-05
3.52080879e-05
3.62954048e-05
3.68250657e-05
3.57831143e-05
3.55042694e-05
3.68185122e-05
3.68100743e-05
3.58858694e-05
3.51962628e-05
3.52106946e-05
3.66300295e-05
3.68051955e-05
3.67746557e-05
3.59134189e-05
3.56499383e-05
3.50783271e-05
3.50955597e-05
3.6820113e-05
3.6802121e-05
3.59087003e-05
3.51908222e-05
3.52146795e-05
3.68190553e-05
3.58996219e-05
3.55306029e-05
3.68465715e-05
3.6830523e-05
3.58841373e-05
3.57211857e-05
3.52893483e-05
3.53059335e-05
3.6826254e-05
3.59172616e-05
3.54943813e-05
3.68319408e-05
3.68496865e-05
3.5796909e-05
3.56846533e-05
3.68305392e-05
3.68508428e-05
3.5946581e-05
3.57132073e-05
3.52232359e-05
3.52442538e-05
3.68230358e-05
3.67893752e-05
3.60051557e-05
3.52419466e-05
3.52632414e-05
3.67868154e-05
3.6785049e-05
3.59255266e-05
3.51639111e-05
3.51914953e-05
3.68130823e-05
3.67901519e-05
3.59018475e-05
3.52062073e-05
3.52120057e-05
3.64506295e-05
3.68187136e-05
3.57927935e-05
3.54511751e-05
3.59618325e-05
)
;

boundaryField
{
    closed
    {
        type            calculated;
        value           nonuniform List<scalar> 0();
    }
    open
    {
        type            calculated;
        value           nonuniform List<scalar> 0();
    }
    sides
    {
        type            empty;
    }
    procBoundary1to0
    {
        type            processor;
        value           uniform 3.68207348e-05;
    }
    procBoundary1to2
    {
        type            processor;
        value           uniform 3.6792538e-05;
    }
}


// ************************************************************************* //
