/*--------------------------------*- C++ -*----------------------------------*\
| =========                 |                                                 |
| \\      /  F ield         | OpenFOAM: The Open Source CFD Toolbox           |
|  \\    /   O peration     | Version:  2306                                  |
|   \\  /    A nd           | Website:  www.openfoam.com                      |
|    \\/     M anipulation  |                                                 |
\*---------------------------------------------------------------------------*/
FoamFile
{
    version     2.0;
    format      ascii;
    arch        "LSB;label=32;scalar=64";
    class       volScalarField;
    location    "0.00186";
    object      H;
}
// * * * * * * * * * * * * * * * * * * * * * * * * * * * * * * * * * * * * * //

dimensions      [0 0 0 0 0 0 0];

internalField   nonuniform List<scalar> 
531
(
7.13676528e-10
2.62386311e-08
4.5544216e-08
3.47689785e-08
1.07074527e-09
9.41284416e-10
2.88523059e-08
4.38764891e-08
4.5364073e-08
3.62526053e-08
1.00719321e-09
9.42310096e-10
2.82599494e-08
4.49686162e-08
3.45782731e-08
1.12249084e-09
9.93402874e-10
2.85307564e-08
4.46773827e-08
3.4844426e-08
1.15915347e-09
1.02537452e-09
2.85584287e-08
4.45820425e-08
3.52008851e-08
1.18519603e-09
1.06056321e-09
2.8760554e-08
4.4618359e-08
3.55724992e-08
1.20665211e-09
1.10593073e-09
2.88614735e-08
4.45940567e-08
3.66070862e-08
1.21753733e-09
1.08610269e-09
3.15499791e-08
4.85714383e-08
4.0168382e-08
1.1064432e-09
1.20703227e-09
1.19521429e-09
1.11177562e-09
3.18929045e-08
4.70042833e-08
4.72130922e-08
4.52149065e-08
1.1656541e-09
1.19303756e-09
3.94346514e-08
4.02166816e-08
1.16413229e-09
1.20716883e-09
3.38868769e-08
4.6925017e-08
4.18495176e-08
1.18375723e-09
1.32745688e-09
3.54003919e-08
3.7416839e-08
1.1014694e-09
1.30843257e-09
3.04913415e-08
4.36695526e-08
4.01273701e-08
1.15262176e-09
1.37354007e-09
3.31553659e-08
3.50889287e-08
1.01170635e-09
1.3439202e-09
2.70831955e-08
4.04661489e-08
3.87337355e-08
4.35259267e-08
3.95971241e-08
9.74234075e-10
1.35194192e-09
1.66359247e-08
3.892552e-08
4.23043178e-08
3.68974506e-08
9.85263339e-10
1.3144747e-09
3.10413439e-08
3.37379221e-08
5.91818993e-10
1.31722319e-09
7.67136343e-09
3.90760302e-08
4.28823484e-08
4.40257246e-08
4.03831501e-08
8.47440777e-10
1.25259877e-09
2.78226339e-08
4.30575291e-08
3.74899435e-08
8.54619852e-10
1.25060755e-09
2.80907259e-08
4.46409339e-08
3.71158804e-08
7.31382282e-10
1.41147364e-09
1.37464871e-09
2.35021616e-08
4.07259793e-08
4.33092509e-08
4.03820078e-08
7.74782755e-10
1.20164899e-09
2.9598269e-08
4.51486998e-08
3.91811221e-08
7.38948339e-10
1.20323948e-09
2.90950059e-08
4.42571254e-08
4.0472624e-08
7.31696958e-10
1.18383454e-09
2.98778021e-08
3.4123576e-08
1.13854574e-09
1.20641164e-09
3.02197438e-08
4.42133887e-08
3.88560808e-08
7.214706e-10
1.19739815e-09
2.91925826e-08
4.49105994e-08
3.94195604e-08
6.83938469e-10
1.17240727e-09
3.09968713e-08
4.67116519e-08
4.32264077e-08
6.25021759e-10
1.14579298e-09
3.13518495e-08
3.69762252e-08
3.11880155e-09
1.14608281e-09
3.27154323e-08
4.73153602e-08
4.40992706e-08
5.9608037e-10
1.17514879e-09
3.09308878e-08
3.6360305e-08
3.22551226e-09
1.14428668e-09
3.34477037e-08
4.74846581e-08
2.39353763e-08
8.19503223e-10
2.79580969e-08
3.56339001e-08
3.0723467e-09
1.20503689e-09
2.12137605e-08
4.43432859e-08
4.45686517e-08
7.14372018e-10
1.22533484e-09
3.10844026e-08
3.59871679e-08
2.45049676e-09
1.24200704e-09
1.77867503e-08
4.05975176e-08
4.21251038e-08
4.7459573e-08
4.74480535e-08
7.17441349e-10
1.19388841e-09
3.2366685e-08
3.83193103e-08
2.12487999e-09
1.21090225e-09
2.7739313e-08
4.5701373e-08
4.47866224e-08
7.08098925e-10
1.27077278e-09
3.19911832e-08
3.74476653e-08
7.30336969e-10
1.24472246e-09
2.81630118e-08
4.56432921e-08
4.45260042e-08
7.84747817e-10
1.28901489e-09
3.25421623e-08
3.77659156e-08
5.55711562e-10
1.25575112e-09
2.87814522e-08
4.57467315e-08
4.46212466e-08
8.41256048e-10
1.29908703e-09
3.26482863e-08
3.75966433e-08
6.42388029e-10
1.27761941e-09
2.77091499e-08
4.46052628e-08
4.28203151e-08
9.15750713e-10
1.28066404e-09
2.32981014e-08
4.34657659e-08
4.26371679e-08
9.30663977e-10
1.31224523e-09
2.2467166e-08
3.99208552e-08
4.41185782e-08
4.40033352e-08
7.62972691e-10
1.23250962e-09
2.68716786e-08
4.51988736e-08
4.47603195e-08
9.16623806e-10
1.25237258e-09
2.40191786e-08
4.41106171e-08
4.40288036e-08
8.35270464e-10
1.25519946e-09
2.33306795e-08
4.40186425e-08
4.39373106e-08
7.97766172e-10
1.2439872e-09
2.38928049e-08
4.45873408e-08
4.42423586e-08
6.9810643e-10
1.30119406e-09
3.18909861e-08
3.73013452e-08
6.50772096e-10
1.27659702e-09
2.53752684e-08
4.3702672e-08
4.34590257e-08
6.78861246e-10
1.23709004e-09
2.33895473e-08
4.43163607e-08
4.41238954e-08
6.16315517e-10
1.1954908e-09
2.47454208e-08
4.73029931e-08
4.71289065e-08
6.34685843e-10
1.30388651e-09
1.27175086e-09
2.70114425e-08
4.36969866e-08
4.91231991e-08
4.87523151e-08
1.2384359e-09
1.19015654e-09
3.46166743e-08
4.19406389e-08
1.10451944e-09
1.25574386e-09
3.28994378e-08
3.90085429e-08
4.23929188e-10
1.21503428e-09
2.60398187e-08
4.55124145e-08
4.51395054e-08
7.54989965e-10
1.16857138e-09
2.39880905e-08
4.61996216e-08
4.56436726e-08
2.4320175e-09
1.25158198e-09
3.11033644e-08
3.86079219e-08
1.09102189e-09
1.31151068e-09
3.12076407e-08
3.75181789e-08
5.73073162e-10
1.23735978e-09
2.43502013e-08
4.47937182e-08
4.44135588e-08
2.37771959e-09
1.1786267e-09
2.18861383e-08
4.48400195e-08
4.4444049e-08
3.07752912e-09
1.17631717e-09
2.20242906e-08
4.50677667e-08
4.47585482e-08
3.41526773e-09
1.17960965e-09
1.7530032e-08
4.40420503e-08
4.3988314e-08
4.86316028e-10
2.34234201e-08
3.95474186e-08
3.5093529e-09
1.24368296e-09
8.04588811e-09
4.13056332e-08
4.19966134e-08
1.70364728e-09
2.19096615e-08
3.92370541e-08
1.04205628e-09
1.31730543e-09
2.19154567e-08
3.54751105e-08
4.43680194e-08
4.41534368e-08
4.96394607e-10
2.18513893e-08
4.04283208e-08
2.96055416e-09
1.27732356e-09
3.18821669e-08
3.80088054e-08
3.4828229e-09
1.32008681e-09
1.27994786e-09
2.82638112e-08
4.36513031e-08
4.87861931e-08
4.85830199e-08
7.0560629e-09
1.1928792e-09
3.10924747e-08
3.59722152e-08
4.91605292e-10
2.21460575e-08
4.36943411e-08
3.38688117e-09
1.25368667e-09
3.12430152e-08
3.80008749e-08
9.44518753e-10
1.33254635e-09
2.28416496e-08
3.54255518e-08
4.43467405e-08
4.41399466e-08
4.92957681e-10
2.07544185e-08
4.03730057e-08
2.25402093e-09
1.28198078e-09
3.07249678e-08
3.82313333e-08
9.8351154e-10
1.21934837e-09
2.15113347e-08
4.50397432e-08
4.48116092e-08
7.24144236e-09
1.24128843e-09
2.84604854e-08
3.63467327e-08
1.20699093e-09
1.33535919e-09
2.17423024e-08
3.58102399e-08
4.45527223e-08
4.41199782e-08
1.01190436e-08
1.23517145e-09
3.78020615e-09
3.14673474e-08
4.67117998e-08
4.59885213e-08
2.87509131e-09
1.15642694e-09
1.49487818e-08
4.29314773e-08
4.37580186e-08
9.14450535e-09
1.20282368e-09
2.891818e-08
3.81943665e-08
2.22169397e-09
1.26694659e-09
1.99519197e-08
3.85027568e-08
3.93664785e-08
4.83314144e-08
4.81399916e-08
6.66244892e-09
1.19648586e-09
1.19302893e-09
2.76807962e-08
3.56617792e-08
1.77326534e-09
1.82278543e-08
4.27094356e-08
5.62674193e-09
1.21781784e-09
2.07531314e-08
3.60479617e-08
4.61901664e-08
4.56469098e-08
7.58255336e-09
1.21194564e-09
3.03366248e-08
3.63634637e-08
2.36912874e-09
1.93014912e-08
4.53500892e-08
7.98172565e-09
1.15744357e-09
3.11815176e-08
4.07228277e-08
2.94749089e-09
1.21249988e-09
2.02787509e-08
4.14430176e-08
4.11632644e-08
2.32090403e-09
1.21653546e-09
1.24588919e-08
4.21760743e-08
4.43649596e-08
1.05445664e-08
1.11626135e-09
1.42830776e-08
4.33151167e-08
4.39515511e-08
8.01929111e-09
1.13596486e-09
1.57644188e-08
4.3638254e-08
4.40249831e-08
7.71676128e-09
1.13229907e-09
1.71545369e-08
4.45965143e-08
4.47186033e-08
7.3592586e-09
1.12466869e-09
1.85485343e-08
4.55849979e-08
4.54175922e-08
6.79039099e-09
1.1225629e-09
1.91036596e-08
4.56557546e-08
4.5503504e-08
9.20457321e-09
1.19775639e-09
3.0512276e-08
3.96608275e-08
5.71755258e-10
1.2116244e-09
2.16143175e-08
4.60656419e-08
4.56082155e-08
2.72173944e-09
1.23463452e-09
1.14381174e-09
2.00974053e-08
3.69080014e-08
4.8333937e-08
4.78131275e-08
5.57361073e-10
1.14698966e-09
2.05003653e-08
4.61513069e-08
4.56128378e-08
7.70806886e-10
2.05881277e-08
3.92907742e-08
6.95573994e-10
1.34509395e-09
2.17100714e-08
3.44467368e-08
4.43510412e-08
4.37786038e-08
8.35540386e-10
1.99521191e-08
3.98642012e-08
6.84033734e-10
1.36126156e-09
3.22186133e-08
3.52283604e-08
7.51910733e-10
1.41166157e-09
1.9122202e-08
3.33384291e-08
4.57643925e-08
4.49401464e-08
7.10031725e-10
1.17778652e-09
1.67412692e-08
4.52971322e-08
4.47325493e-08
4.91834938e-10
1.15004651e-09
1.98712106e-08
4.67821927e-08
4.61034582e-08
6.07662579e-10
1.14958504e-09
2.08005923e-08
4.58347846e-08
4.55320652e-08
6.01032575e-09
1.20551594e-09
2.59129731e-08
4.08337716e-08
1.76938183e-08
)
;

boundaryField
{
    closed
    {
        type            calculated;
        value           nonuniform List<scalar> 0();
    }
    open
    {
        type            calculated;
        value           nonuniform List<scalar> 0();
    }
    sides
    {
        type            empty;
    }
    procBoundary1to0
    {
        type            processor;
        value           uniform 1.25602336e-09;
    }
    procBoundary1to2
    {
        type            processor;
        value           uniform 1.11497716e-09;
    }
}


// ************************************************************************* //
