/*--------------------------------*- C++ -*----------------------------------*\
| =========                 |                                                 |
| \\      /  F ield         | OpenFOAM: The Open Source CFD Toolbox           |
|  \\    /   O peration     | Version:  2306                                  |
|   \\  /    A nd           | Website:  www.openfoam.com                      |
|    \\/     M anipulation  |                                                 |
\*---------------------------------------------------------------------------*/
FoamFile
{
    version     2.0;
    format      ascii;
    arch        "LSB;label=32;scalar=64";
    class       volScalarField;
    location    "0.00186";
    object      H2;
}
// * * * * * * * * * * * * * * * * * * * * * * * * * * * * * * * * * * * * * //

dimensions      [0 0 0 0 0 0 0];

internalField   nonuniform List<scalar> 
531
(
0.0110553267
0.0107650983
0.0106672958
0.0106903637
0.0110260586
0.011036076
0.0107465962
0.0106678087
0.010664983
0.0106838636
0.0110318174
0.0110358444
0.010748853
0.0106665749
0.0106934668
0.0110219142
0.0110315518
0.0107462581
0.0106663676
0.0106920299
0.0110187054
0.0110287917
0.010745826
0.0106661977
0.010689694
0.0110163954
0.0110257796
0.0107439474
0.0106656378
0.010687412
0.0110144366
0.0110219182
0.010743382
0.0106649879
0.010686334
0.0110135267
0.0110236083
0.0107208137
0.0106523716
0.0106732997
0.0110231983
0.0110133952
0.0110143493
0.0110219786
0.0107198655
0.0106551513
0.0106528611
0.0106596213
0.0110179824
0.0110149582
0.010680028
0.0106772858
0.0110183765
0.0110133783
0.0107013706
0.0106554402
0.010667946
0.0110157132
0.0110035127
0.0106898583
0.0106834936
0.0110230986
0.0110046141
0.0107271212
0.0106641871
0.0106728425
0.0110182471
0.0109996348
0.0107062675
0.010691929
0.0110303576
0.011001337
0.0107571651
0.0106753393
0.0106769287
0.0106661542
0.0106771996
0.0110335386
0.0110010014
0.0108652014
0.0106745846
0.0106708669
0.0106856347
0.0110322901
0.0110052101
0.0107254544
0.0107036704
0.0110664625
0.0110034694
0.0109763552
0.0106761472
0.0106694922
0.0106648788
0.0106796313
0.0110446133
0.0110098565
0.0107507893
0.0106690613
0.0106853768
0.011043979
0.01101029
0.0107474479
0.0106650873
0.0106826466
0.0110544983
0.0109955347
0.0109989759
0.0107914115
0.0106732955
0.0106662018
0.0106799863
0.0110509854
0.0110145149
0.010734258
0.0106640988
0.0106810955
0.0110538091
0.0110144707
0.0107397609
0.0106675442
0.0106793323
0.0110543139
0.0110167878
0.0107345779
0.0107028857
0.0110666481
0.011013793
0.0107301356
0.0106680786
0.0106832222
0.0110552131
0.0110149775
0.0107383916
0.0106651385
0.0106819318
0.0110585037
0.0110171924
0.0107224785
0.0106592308
0.0106710852
0.0110635724
0.0110201807
0.0107212892
0.0106903061
0.0110397005
0.0110190493
0.0107081304
0.0106576313
0.010668164
0.0110660385
0.0110176026
0.0107247322
0.0106919243
0.0110371814
0.011019206
0.0107009692
0.0106561117
0.0107860816
0.0110471778
0.0107495121
0.0106966021
0.0110399566
0.0110132792
0.0108153992
0.010665643
0.0106638135
0.0110712342
0.0110130089
0.0107232658
0.0106931953
0.0110467679
0.0110096104
0.0108521923
0.0106768783
0.0106707673
0.0106556037
0.0106558699
0.0110720357
0.0110154522
0.0107127127
0.0106850436
0.0110526287
0.0110128218
0.0107529608
0.0106618292
0.0106632384
0.0110564446
0.0110088656
0.0107169532
0.010685731
0.0110726287
0.0110100006
0.0107492767
0.0106611614
0.0106629313
0.0110499612
0.0110072428
0.0107131385
0.0106840221
0.0110698715
0.0110090777
0.0107440329
0.0106608157
0.0106619004
0.0110451621
0.0110062504
0.0107135051
0.0106843213
0.0110624984
0.0110071191
0.0107539357
0.0106640196
0.0106691552
0.0110389234
0.011006928
0.0107944718
0.0106670764
0.0106692998
0.0110375878
0.0110041252
0.0108030855
0.0106763716
0.0106662182
0.0106647461
0.0110521815
0.0110110801
0.0107612425
0.0106625726
0.010662508
0.0110389474
0.0110093035
0.0107878493
0.0106658446
0.0106645458
0.0110459189
0.0110090425
0.0107945274
0.010666039
0.01066479
0.0110492514
0.0110099286
0.0107889392
0.0106662166
0.0106617463
0.0110577313
0.0110055476
0.0107233378
0.0106859633
0.0110621411
0.0110068867
0.0107760821
0.0106703217
0.0106671173
0.0110594107
0.0110104302
0.0107945354
0.0106676639
0.0106649566
0.0110649169
0.0110140976
0.0107815832
0.0106572046
0.0106549656
0.0110636785
0.0110042821
0.0110071877
0.0107602516
0.0106651197
0.0106517017
0.0106474799
0.0110719609
0.0110152997
0.0107056431
0.0106707714
0.0110735382
0.0110092445
0.0107194991
0.010682509
0.0110816323
0.0110121728
0.0107710386
0.0106671876
0.0106625032
0.01107675
0.0110162401
0.0107891338
0.0106645521
0.0106574427
0.0110524662
0.0110098216
0.0107325627
0.0106801152
0.0110731518
0.0110044357
0.0107320546
0.0106856566
0.0110809327
0.0110102974
0.0107862001
0.0106691009
0.010664178
0.0110543595
0.0110154019
0.0108096936
0.0106684706
0.0106635319
0.0110446308
0.0110156903
0.0108083585
0.0106671313
0.0106628847
0.0110399258
0.0110153803
0.0108550101
0.0106688916
0.0106678901
0.0110761052
0.0107940549
0.010684013
0.011040429
0.0110096573
0.0109694597
0.0106770104
0.0106749739
0.0110650995
0.0108088325
0.0106842627
0.0110766716
0.011003603
0.0108095107
0.0106913598
0.0106696509
0.0106667342
0.0110753634
0.0108098022
0.0106793773
0.0110475378
0.0110073426
0.0107251189
0.0106831391
0.0110427764
0.0110032928
0.011006257
0.010749021
0.0106663017
0.0106513658
0.0106489976
0.010990111
0.0110144958
0.0107311064
0.0106930447
0.0110830176
0.0108062109
0.0106694729
0.0110434769
0.0110096022
0.0107301473
0.0106812869
0.0110781949
0.0110025858
0.0108007081
0.0106921242
0.0106702675
0.0106673438
0.011075638
0.0108208161
0.0106787724
0.0110594797
0.0110070445
0.0107346446
0.0106827097
0.0110782697
0.0110120602
0.0108132576
0.0106661856
0.0106603005
0.0109869297
0.0110105509
0.0107528209
0.0106875885
0.0110731945
0.0110022474
0.0108119537
0.010689319
0.0106703177
0.0106641096
0.0109474862
0.0110103922
0.0110251286
0.0107212781
0.0106698178
0.0106610526
0.0110479529
0.011017018
0.0108838314
0.0106731036
0.0106660194
0.0109615581
0.0110138067
0.0107479316
0.0106830995
0.0110601684
0.0110079997
0.0108293721
0.0106849688
0.0106833586
0.0106549693
0.0106527459
0.0109981558
0.0110135295
0.0110137682
0.0107574819
0.0106951538
0.011064619
0.0108473248
0.0106743818
0.0110116522
0.0110120881
0.0108214966
0.0106899927
0.0106647655
0.0106581243
0.0109833847
0.0110129842
0.0107370258
0.0106908869
0.0110559908
0.0108355315
0.0106644778
0.0109792276
0.0110177143
0.0107281875
0.0106758792
0.0110512517
0.0110125453
0.0108258543
0.0106816635
0.0106781276
0.0110534519
0.0110115964
0.0109127706
0.0106731566
0.0106676149
0.0109431774
0.0110206241
0.0108918626
0.0106723435
0.0106686538
0.0109769385
0.0110188543
0.0108746675
0.0106713357
0.0106682503
0.0109811069
0.0110192297
0.0108591343
0.0106680317
0.0106653723
0.0109861437
0.0110199666
0.0108439838
0.0106646894
0.01066267
0.010994242
0.0110202126
0.0108379901
0.0106635458
0.0106596315
0.0109600264
0.0110141992
0.0107350391
0.010680448
0.01106988
0.0110124673
0.0108126071
0.0106640394
0.0106621351
0.0110521702
0.0110102062
0.0110176776
0.0108275953
0.0106923271
0.0106568257
0.01065413
0.0110711686
0.0110181446
0.0108237222
0.0106633675
0.0106636699
0.0110523882
0.0108223922
0.0106838866
0.0110596589
0.0110008662
0.010811676
0.0106999688
0.0106713736
0.0106689565
0.0110468215
0.0108291244
0.0106798109
0.0110603314
0.0110000609
0.0107243397
0.0106902566
0.0110543257
0.0109954617
0.0108382092
0.0107069895
0.0106694388
0.010664174
0.011057845
0.0110149615
0.0108636709
0.0106687967
0.0106678145
0.0110762921
0.011017386
0.0108303031
0.0106636794
0.0106628301
0.0110666295
0.0110175692
0.0108206635
0.0106640396
0.0106614548
0.0110039805
0.0110132925
0.0107702021
0.0106779522
0.0108533431
)
;

boundaryField
{
    closed
    {
        type            calculated;
        value           nonuniform List<scalar> 0();
    }
    open
    {
        type            calculated;
        value           nonuniform List<scalar> 0();
    }
    sides
    {
        type            empty;
    }
    procBoundary1to0
    {
        type            processor;
        value           uniform 0.011008731;
    }
    procBoundary1to2
    {
        type            processor;
        value           uniform 0.0110207992;
    }
}


// ************************************************************************* //
