/*--------------------------------*- C++ -*----------------------------------*\
| =========                 |                                                 |
| \\      /  F ield         | OpenFOAM: The Open Source CFD Toolbox           |
|  \\    /   O peration     | Version:  2306                                  |
|   \\  /    A nd           | Website:  www.openfoam.com                      |
|    \\/     M anipulation  |                                                 |
\*---------------------------------------------------------------------------*/
FoamFile
{
    version     2.0;
    format      ascii;
    arch        "LSB;label=32;scalar=64";
    class       volScalarField;
    location    "0.00022";
    object      p;
}
// * * * * * * * * * * * * * * * * * * * * * * * * * * * * * * * * * * * * * //

dimensions      [1 -1 -2 0 0 0 0];

internalField   nonuniform List<scalar> 
530
(
101974.002
101907.905
101836.116
101754.901
101687.581
101643.935
101611.987
101593.788
101579.75
101565.314
101561.01
101568.317
101578.43
101582.383
101578.457
101567.092
101551.542
101539.358
101532.999
101526.711
101516.878
101507.768
101504.515
101506.416
101508.867
101508.116
101504.277
101499.793
101497.153
101497.572
101500.843
101505.837
101511.118
101515.567
101518.713
101520.654
101521.802
101522.601
101523.341
101524.106
101524.819
101525.333
101525.508
101525.27
101524.619
101523.628
101522.411
101521.102
101519.824
101518.679
101517.735
101517.031
101516.573
101516.346
101516.323
101516.463
101516.727
101517.073
101517.467
101517.878
101518.282
101518.662
101519.006
101519.306
101519.559
101519.766
101519.927
101520.046
101520.128
101520.178
101520.2
101520.199
101520.18
101520.147
101520.103
101520.052
101519.997
101519.939
101519.881
101519.824
101519.769
101519.717
101519.669
101519.624
101519.584
101519.549
101519.517
101519.49
101519.467
101519.448
101519.432
101519.42
101519.412
101519.406
101519.402
101519.402
101519.403
101519.406
101519.411
101519.418
101519.426
101519.434
101519.444
101519.455
101519.466
101519.478
101519.491
101519.505
101519.521
101519.538
101519.555
101519.574
101519.595
101519.616
101519.639
101519.663
101519.688
101519.715
101519.743
101519.772
101519.803
101519.835
101519.868
101519.903
101519.939
101519.976
101520.015
101520.055
101520.097
101520.14
101520.185
101520.231
101520.278
101520.327
101520.377
101520.429
101520.482
101520.537
101520.593
101520.651
101520.71
101520.771
101520.833
101520.896
101520.961
101521.028
101521.096
101521.165
101521.236
101521.308
101521.382
101521.457
101521.534
101521.612
101521.691
101521.772
101521.854
101521.938
101522.023
101522.11
101522.198
101522.287
101522.377
101522.469
101522.562
101522.657
101522.752
101522.849
101522.948
101523.047
101523.148
101523.25
101523.353
101523.457
101523.562
101523.669
101523.777
101523.885
101523.995
101524.106
101524.218
101524.331
101524.444
101524.559
101524.675
101524.791
101524.909
101525.027
101525.146
101525.266
101525.387
101525.508
101525.63
101525.753
101525.877
101526.001
101526.126
101526.251
101526.377
101526.503
101526.63
101526.757
101526.885
101527.013
101527.141
101527.27
101527.399
101527.528
101527.658
101527.788
101527.918
101528.048
101528.178
101528.308
101528.438
101528.568
101528.699
101528.829
101528.959
101529.089
101529.218
101529.348
101529.477
101529.606
101529.735
101529.863
101529.991
101530.119
101530.246
101530.373
101530.499
101530.625
101530.75
101530.874
101530.998
101531.122
101531.244
101531.366
101531.487
101531.607
101531.727
101531.845
101531.963
101532.08
101532.196
101532.311
101532.425
101532.538
101532.65
101532.76
101532.87
101532.979
101533.086
101533.192
101533.297
101533.401
101533.503
101533.605
101533.705
101533.803
101533.9
101533.996
101534.091
101534.184
101534.275
101534.366
101534.454
101534.542
101534.627
101534.711
101534.794
101534.875
101534.955
101535.032
101535.109
101535.183
101535.256
101535.328
101535.398
101535.466
101535.532
101535.597
101535.66
101535.721
101535.781
101535.839
101535.895
101535.949
101536.002
101536.053
101536.102
101536.15
101536.196
101536.24
101536.282
101536.323
101536.362
101536.399
101536.434
101536.468
101536.5
101536.53
101536.559
101536.586
101536.611
101536.634
101536.656
101536.676
101536.695
101536.712
101536.727
101536.741
101536.753
101536.763
101536.772
101536.78
101536.786
101536.79
101536.793
101536.794
101536.794
101536.793
101536.79
101536.786
101536.78
101536.773
101536.765
101536.755
101536.744
101536.732
101536.719
101536.704
101536.689
101536.672
101536.654
101536.635
101536.615
101536.594
101536.572
101536.549
101536.525
101536.5
101536.474
101536.448
101536.421
101536.393
101536.364
101536.334
101536.304
101536.274
101536.242
101536.211
101536.178
101536.145
101536.112
101536.079
101536.045
101536.01
101535.976
101535.941
101535.906
101535.871
101535.836
101535.8
101535.765
101535.73
101535.694
101535.659
101535.624
101535.589
101535.554
101535.52
101535.485
101535.451
101535.418
101535.385
101535.352
101535.32
101535.288
101535.257
101535.226
101535.196
101535.167
101535.138
101535.11
101535.083
101535.057
101535.032
101535.007
101534.984
101534.961
101534.94
101534.919
101534.9
101534.882
101534.864
101534.848
101534.834
101534.82
101534.808
101534.797
101534.788
101534.78
101534.773
101534.768
101534.764
101534.762
101534.761
101534.762
101534.764
101534.768
101534.774
101534.781
101534.79
101534.801
101534.814
101534.828
101534.844
101534.862
101534.882
101534.903
101534.927
101534.952
101534.979
101535.008
101535.039
101535.072
101535.107
101535.144
101535.183
101535.224
101535.266
101535.311
101535.358
101535.407
101535.458
101535.511
101535.566
101535.623
101535.682
101535.744
101535.807
101535.872
101535.94
101536.009
101536.081
101536.154
101536.23
101536.307
101536.387
101536.469
101536.552
101536.638
101536.726
101536.816
101536.907
101537.001
101537.096
101537.194
101537.293
101537.395
101537.498
101537.603
101537.71
101537.818
101537.929
101538.041
101538.155
101538.271
101538.388
101538.508
101538.628
101538.751
101538.875
101539
101539.127
101539.256
101539.386
101539.518
101539.651
101539.785
101539.921
101540.057
101540.196
101540.335
101540.476
101540.618
101540.76
101540.904
101541.049
101541.195
101541.342
101541.49
101541.639
101541.789
101541.939
101542.09
101542.242
101542.394
101542.547
101542.701
101542.855
101543.009
101543.164
101543.32
101543.475
101543.631
101543.787
101543.943
101544.1
101544.256
101544.413
101544.569
101544.725
101544.882
101545.038
101545.194
101545.349
101545.505
101545.66
101545.814
101545.968
101546.121
101546.274
101546.427
101546.578
101546.729
101546.879
101547.028
101547.176
)
;

boundaryField
{
    closed
    {
        type            zeroGradient;
    }
    open
    {
        type            waveTransmissive;
        gamma           1.25;
        fieldInf        101325;
        lInf            1;
        value           nonuniform List<scalar> 0();
    }
    sides
    {
        type            empty;
    }
    procBoundary0to1
    {
        type            processor;
        value           uniform 101547.324;
    }
}


// ************************************************************************* //
