/*--------------------------------*- C++ -*----------------------------------*\
| =========                 |                                                 |
| \\      /  F ield         | OpenFOAM: The Open Source CFD Toolbox           |
|  \\    /   O peration     | Version:  2306                                  |
|   \\  /    A nd           | Website:  www.openfoam.com                      |
|    \\/     M anipulation  |                                                 |
\*---------------------------------------------------------------------------*/
FoamFile
{
    version     2.0;
    format      ascii;
    arch        "LSB;label=32;scalar=64";
    class       volScalarField;
    location    "0.00022";
    object      prefDPV_H2O;
}
// * * * * * * * * * * * * * * * * * * * * * * * * * * * * * * * * * * * * * //

dimensions      [1 -1 -1 0 0 0 0];

internalField   nonuniform List<scalar> 
530
(
-3.73381921e-07
-3.73064983e-07
-3.73066596e-07
-3.73066663e-07
-3.73066669e-07
-3.73066669e-07
-3.73066669e-07
-3.73066669e-07
-3.73066669e-07
-3.73066669e-07
-3.73066669e-07
-3.73066669e-07
-3.73066669e-07
-3.73066669e-07
-3.73066669e-07
-3.73066669e-07
-3.73066669e-07
-3.73066669e-07
-3.73066669e-07
-3.73066669e-07
-3.73066669e-07
-3.73066669e-07
-3.73066669e-07
-3.73066669e-07
-3.73066669e-07
-3.73066669e-07
-3.73066669e-07
-3.73066669e-07
-3.73066669e-07
-3.73066669e-07
-3.73066669e-07
-3.73066669e-07
-3.73066669e-07
-3.73066669e-07
-3.73066669e-07
-3.73066669e-07
-3.73066669e-07
-3.73066669e-07
-3.73066669e-07
-3.73066669e-07
-3.73066669e-07
-3.73066669e-07
-3.73066669e-07
-3.73066669e-07
-3.73066669e-07
-3.73066669e-07
-3.73066669e-07
-3.73066669e-07
-3.73066669e-07
-3.73066669e-07
-3.73066669e-07
-3.73066669e-07
-3.73066669e-07
-3.73066669e-07
-3.73066669e-07
-3.73066669e-07
-3.73066669e-07
-3.73066669e-07
-3.73066669e-07
-3.73066669e-07
-3.73066669e-07
-3.73066669e-07
-3.73066669e-07
-3.73066669e-07
-3.73066669e-07
-3.73066669e-07
-3.73066669e-07
-3.73066669e-07
-3.73066669e-07
-3.73066669e-07
-3.73066669e-07
-3.73066669e-07
-3.73066669e-07
-3.73066669e-07
-3.73066669e-07
-3.73066669e-07
-3.73066669e-07
-3.73066669e-07
-3.73066669e-07
-3.73066669e-07
-3.73066669e-07
-3.73066669e-07
-3.73066669e-07
-3.73066669e-07
-3.73066669e-07
-3.73066669e-07
-3.73066669e-07
-3.73066669e-07
-3.73066669e-07
-3.73066669e-07
-3.7306667e-07
-3.7306667e-07
-3.73066668e-07
-3.73066667e-07
-3.73066676e-07
-3.73066688e-07
-3.73066637e-07
-3.73066576e-07
-3.73066781e-07
-3.7306703e-07
-3.73066409e-07
-3.73065643e-07
-3.73066995e-07
-3.73068706e-07
-3.73066717e-07
-3.73064093e-07
-3.73065972e-07
-3.7306896e-07
-3.73067699e-07
-3.73064977e-07
-3.73065566e-07
-3.73067868e-07
-3.73067756e-07
-3.73065866e-07
-3.73065493e-07
-3.73066973e-07
-3.73068298e-07
-3.73067101e-07
-3.73064261e-07
-3.73064987e-07
-3.73070026e-07
-3.73069916e-07
-3.73062809e-07
-3.73061761e-07
-3.73070059e-07
-3.73073268e-07
-3.73064935e-07
-3.73058711e-07
-3.73065481e-07
-3.73075272e-07
-3.73071833e-07
-3.73058286e-07
-3.73058765e-07
-3.73072587e-07
-3.73075872e-07
-3.73064795e-07
-3.73056825e-07
-3.7306415e-07
-3.73076653e-07
-3.73073719e-07
-3.73056861e-07
-3.73057062e-07
-3.73074151e-07
-3.73077759e-07
-3.73062635e-07
-3.73054847e-07
-3.73066874e-07
-3.73078373e-07
-3.73070161e-07
-3.7305597e-07
-3.73060192e-07
-3.73075674e-07
-3.73074588e-07
-3.73060083e-07
-3.73059534e-07
-3.73070101e-07
-3.73072164e-07
-3.73065512e-07
-3.73063216e-07
-3.73066785e-07
-3.7306825e-07
-3.73066433e-07
-3.73066346e-07
-3.730678e-07
-3.73066671e-07
-3.7306429e-07
-3.730663e-07
-3.73069909e-07
-3.73067681e-07
-3.73063167e-07
-3.73065273e-07
-3.73070087e-07
-3.73068015e-07
-3.73063201e-07
-3.73065484e-07
-3.73070657e-07
-3.73068072e-07
-3.73061902e-07
-3.73064309e-07
-3.73071981e-07
-3.73070703e-07
-3.73061464e-07
-3.73061664e-07
-3.73070162e-07
-3.73071687e-07
-3.73065848e-07
-3.73062409e-07
-3.73064839e-07
-3.73069786e-07
-3.7306958e-07
-3.73065373e-07
-3.73063788e-07
-3.73066399e-07
-3.73069315e-07
-3.73067701e-07
-3.73064235e-07
-3.73065473e-07
-3.73068967e-07
-3.73067796e-07
-3.7306434e-07
-3.73065708e-07
-3.73069207e-07
-3.73067421e-07
-3.73063705e-07
-3.73066096e-07
-3.73070339e-07
-3.73067263e-07
-3.73062032e-07
-3.7306563e-07
-3.73072424e-07
-3.73068829e-07
-3.73059828e-07
-3.73062622e-07
-3.73074309e-07
-3.73073238e-07
-3.73058765e-07
-3.7305847e-07
-3.73073014e-07
-3.73076199e-07
-3.7306279e-07
-3.73056255e-07
-3.73067511e-07
-3.73077445e-07
-3.73069065e-07
-3.73056109e-07
-3.73061212e-07
-3.73076516e-07
-3.73074758e-07
-3.73057847e-07
-3.73057977e-07
-3.73073028e-07
-3.73075195e-07
-3.73062804e-07
-3.73058755e-07
-3.73068376e-07
-3.73073665e-07
-3.73066722e-07
-3.73060792e-07
-3.73065226e-07
-3.73071376e-07
-3.73069224e-07
-3.73063113e-07
-3.73063548e-07
-3.73068844e-07
-3.73069666e-07
-3.73066287e-07
-3.73063827e-07
-3.73065428e-07
-3.73069353e-07
-3.73069019e-07
-3.73064462e-07
-3.73063959e-07
-3.73067924e-07
-3.73069236e-07
-3.73066325e-07
-3.73064807e-07
-3.73066495e-07
-3.7306747e-07
-3.73066744e-07
-3.73066799e-07
-3.73067489e-07
-3.73066026e-07
-3.73064601e-07
-3.73067137e-07
-3.73069698e-07
-3.73066946e-07
-3.73063384e-07
-3.7306562e-07
-3.73069429e-07
-3.7306794e-07
-3.73064913e-07
-3.73065847e-07
-3.73067655e-07
-3.7306666e-07
-3.73065623e-07
-3.73067553e-07
-3.73068502e-07
-3.73065308e-07
-3.73063823e-07
-3.73067826e-07
-3.7307033e-07
-3.73066317e-07
-3.73062618e-07
-3.73065913e-07
-3.73070652e-07
-3.73068532e-07
-3.73063192e-07
-3.73063863e-07
-3.73069341e-07
-3.73069321e-07
-3.73065753e-07
-3.7306478e-07
-3.73065663e-07
-3.73067394e-07
-3.73068464e-07
-3.7306811e-07
-3.73064651e-07
-3.73063614e-07
-3.7306788e-07
-3.73070811e-07
-3.73066842e-07
-3.7306211e-07
-3.73064979e-07
-3.73070974e-07
-3.7306955e-07
-3.73063151e-07
-3.73063456e-07
-3.73069012e-07
-3.7306929e-07
-3.73065535e-07
-3.73064868e-07
-3.73067234e-07
-3.7306784e-07
-3.73066087e-07
-3.73065651e-07
-3.73067557e-07
-3.73068007e-07
-3.73065534e-07
-3.73064765e-07
-3.73067815e-07
-3.73069171e-07
-3.73065725e-07
-3.73063632e-07
-3.7306729e-07
-3.73070221e-07
-3.73066488e-07
-3.73062569e-07
-3.73066199e-07
-3.73071332e-07
-3.73068078e-07
-3.73061569e-07
-3.7306404e-07
-3.73071983e-07
-3.73070733e-07
-3.73061382e-07
-3.73061625e-07
-3.73071165e-07
-3.73072357e-07
-3.73063682e-07
-3.73060348e-07
-3.7306753e-07
-3.73073551e-07
-3.73068789e-07
-3.73059567e-07
-3.7306101e-07
-3.73073091e-07
-3.73074298e-07
-3.73063896e-07
-3.73057913e-07
-3.73063952e-07
-3.73075341e-07
-3.73074243e-07
-3.73060969e-07
-3.73057074e-07
-3.73065881e-07
-3.7307662e-07
-3.73074158e-07
-3.73058161e-07
-3.73056168e-07
-3.73070154e-07
-3.73078497e-07
-3.73068834e-07
-3.73054689e-07
-3.73059227e-07
-3.73077979e-07
-3.73077135e-07
-3.73057927e-07
-3.73055301e-07
-3.73071578e-07
-3.73078074e-07
-3.73065495e-07
-3.73055948e-07
-3.73064663e-07
-3.73076099e-07
-3.73071021e-07
-3.73058914e-07
-3.7306109e-07
-3.73072609e-07
-3.73072204e-07
-3.73062575e-07
-3.73062037e-07
-3.7306914e-07
-3.73070524e-07
-3.73065256e-07
-3.73063215e-07
-3.73067156e-07
-3.73070025e-07
-3.7306742e-07
-3.73063417e-07
-3.73064281e-07
-3.73069591e-07
-3.73069858e-07
-3.73065249e-07
-3.73063043e-07
-3.73066368e-07
-3.73070481e-07
-3.73068508e-07
-3.73062811e-07
-3.7306358e-07
-3.73070565e-07
-3.73070456e-07
-3.73063099e-07
-3.73062347e-07
-3.73069725e-07
-3.73071454e-07
-3.7306434e-07
-3.73061628e-07
-3.73068058e-07
-3.73071656e-07
-3.73066286e-07
-3.73062073e-07
-3.73066152e-07
-3.73070684e-07
-3.73067859e-07
-3.73063296e-07
-3.73065012e-07
-3.73069454e-07
-3.73068731e-07
-3.73064368e-07
-3.73064492e-07
-3.7306824e-07
-3.73068765e-07
-3.73066065e-07
-3.73064798e-07
-3.73066198e-07
-3.73068009e-07
-3.73067868e-07
-3.73066492e-07
-3.73065514e-07
-3.73065568e-07
-3.73066936e-07
-3.73068337e-07
-3.73067968e-07
-3.73065233e-07
-3.73064398e-07
-3.73066179e-07
-3.73069299e-07
-3.73069158e-07
-3.73065344e-07
-3.73062946e-07
-3.73064954e-07
-3.73071073e-07
-3.73070875e-07
-3.73063434e-07
-3.73061039e-07
-3.7306738e-07
-3.73072784e-07
-3.73068665e-07
-3.7306102e-07
-3.73062733e-07
-3.73071207e-07
-3.73070931e-07
-3.73063683e-07
-3.73063226e-07
-3.73068585e-07
-3.7306918e-07
-3.73064639e-07
-3.73064544e-07
-3.73069812e-07
-3.73069681e-07
-3.73061784e-07
-3.73061748e-07
-3.73072679e-07
-3.73074299e-07
-3.73061034e-07
-3.73056135e-07
-3.73069843e-07
-3.73079561e-07
-3.73068019e-07
-3.73052701e-07
-3.73059522e-07
-3.73080097e-07
-3.73078476e-07
-3.73056163e-07
-3.73053756e-07
-3.7307153e-07
-3.73079059e-07
-3.73066983e-07
-3.73055919e-07
-3.73062695e-07
-3.73075404e-07
-3.73072548e-07
-3.73059788e-07
-3.73060341e-07
-3.73072023e-07
-3.73072719e-07
-3.73062737e-07
-3.73060481e-07
-3.73069309e-07
-3.73073396e-07
-3.73065921e-07
-3.73059443e-07
-3.73064639e-07
-3.73073824e-07
-3.73072027e-07
-3.73060244e-07
-3.73060181e-07
-3.73070242e-07
-3.73073292e-07
-3.73065757e-07
-3.73060366e-07
-3.73065831e-07
-3.73072868e-07
-3.73068545e-07
-3.73059902e-07
-3.73063581e-07
-3.73074749e-07
-3.73071842e-07
-3.73057097e-07
-3.73058426e-07
-3.73077387e-07
-3.73077151e-07
-3.73056538e-07
-3.73054667e-07
-3.73075703e-07
-3.73079955e-07
-3.73058555e-07
-3.73051371e-07
-3.73073522e-07
-3.73085457e-07
-3.73063227e-07
-3.73043726e-07
-3.73062993e-07
-3.730925e-07
-3.73080875e-07
-3.73041054e-07
-3.73043777e-07
-3.73086699e-07
-3.73091702e-07
-3.73057876e-07
)
;

boundaryField
{
    closed
    {
        type            calculated;
        value           uniform -5.12074176e-07;
    }
    open
    {
        type            calculated;
        value           nonuniform List<scalar> 0();
    }
    sides
    {
        type            empty;
    }
    procBoundary0to1
    {
        type            processor;
        value           uniform -3.73043321e-07;
    }
}


// ************************************************************************* //
