/*--------------------------------*- C++ -*----------------------------------*\
| =========                 |                                                 |
| \\      /  F ield         | OpenFOAM: The Open Source CFD Toolbox           |
|  \\    /   O peration     | Version:  2306                                  |
|   \\  /    A nd           | Website:  www.openfoam.com                      |
|    \\/     M anipulation  |                                                 |
\*---------------------------------------------------------------------------*/
FoamFile
{
    version     2.0;
    format      ascii;
    arch        "LSB;label=32;scalar=64";
    class       volScalarField;
    location    "0.00022";
    object      rho;
}
// * * * * * * * * * * * * * * * * * * * * * * * * * * * * * * * * * * * * * //

dimensions      [1 -3 0 0 0 0 0];

internalField   nonuniform List<scalar> 
530
(
0.935592688
0.938845786
0.938960487
0.938211666
0.937591252
0.937188824
0.936894252
0.936726454
0.936597017
0.936463909
0.93642423
0.9364916
0.936584849
0.936621289
0.936585093
0.936480305
0.93633693
0.936224589
0.936165957
0.936107976
0.936017319
0.935933319
0.935903329
0.935920856
0.935943455
0.93593653
0.935901129
0.935859785
0.935835446
0.935839305
0.935869474
0.935915514
0.935964204
0.936005231
0.936034233
0.936052129
0.936062714
0.93607008
0.936076904
0.936083958
0.936090537
0.936095272
0.93609689
0.936094689
0.936088689
0.936079549
0.936068335
0.936056262
0.936044481
0.936033921
0.936025222
0.936018724
0.9360145
0.936012416
0.936012198
0.936013492
0.936015921
0.936019115
0.936022745
0.936026534
0.936030262
0.936033766
0.936036935
0.936039704
0.93604204
0.936043942
0.936045427
0.936046528
0.936047284
0.93604774
0.936047942
0.936047935
0.936047759
0.936047454
0.936047053
0.936046585
0.936046075
0.936045544
0.936045008
0.936044482
0.936043975
0.936043495
0.936043049
0.93604264
0.93604227
0.93604194
0.93604165
0.936041399
0.936041187
0.93604101
0.936040868
0.936040757
0.936040678
0.936040626
0.936040584
0.936040562
0.93604064
0.936040752
0.936040528
0.93604026
0.936041148
0.936042236
0.936040549
0.936038398
0.936041116
0.936044673
0.936042327
0.936038532
0.936040332
0.936044063
0.936043452
0.936040603
0.936040938
0.936043619
0.93604432
0.936042596
0.936041089
0.936042907
0.936046896
0.936046212
0.936039872
0.936040312
0.936049957
0.936051653
0.936041084
0.93603721
0.93604852
0.936057065
0.936048559
0.936036084
0.936041018
0.936059239
0.936059049
0.936041339
0.936037483
0.936052521
0.936063478
0.936054364
0.936038445
0.936042836
0.936065529
0.936065824
0.936043944
0.936039785
0.936060265
0.936071102
0.936055936
0.936041454
0.936052908
0.936072214
0.936067353
0.936047698
0.936049834
0.936069614
0.936071068
0.936057932
0.936055979
0.936065493
0.936069294
0.936065402
0.936064287
0.936067497
0.936068446
0.936067382
0.936069724
0.936073724
0.936071965
0.936068116
0.936071951
0.936078799
0.936076961
0.936071573
0.936075248
0.936082534
0.936080507
0.93607469
0.936079081
0.936088188
0.93608604
0.936076978
0.936079689
0.93609287
0.936093656
0.936083549
0.936082611
0.936091361
0.93609696
0.936094859
0.936089456
0.936090833
0.936097475
0.936100676
0.936098372
0.936095672
0.936098933
0.936104632
0.936104154
0.936100718
0.936103417
0.936109124
0.936108495
0.936105071
0.936108596
0.936114659
0.936112701
0.936108312
0.936113545
0.93612161
0.936118078
0.936110342
0.936116267
0.936129291
0.936126822
0.936112661
0.936115269
0.936135489
0.936137076
0.936119166
0.936116175
0.936134999
0.936144775
0.936131187
0.936119315
0.936131526
0.936149729
0.936144215
0.936125277
0.936128766
0.936152164
0.936153162
0.936134549
0.936132857
0.936150299
0.936156765
0.936145269
0.93613945
0.936149707
0.936158621
0.936153913
0.936146939
0.936150869
0.936159994
0.936160508
0.936154625
0.936154613
0.936160114
0.936164397
0.936163335
0.936159208
0.936160669
0.936167668
0.936169331
0.936165111
0.936164365
0.936169159
0.93617211
0.936170839
0.93617049
0.936172366
0.936173202
0.936173192
0.936175998
0.936178742
0.936176267
0.936173746
0.936178195
0.936183693
0.936181559
0.936177343
0.936180076
0.936184816
0.936184335
0.936182693
0.936184718
0.936186784
0.936184936
0.936184363
0.936189218
0.936191812
0.93618718
0.936184501
0.936190372
0.936195813
0.93619205
0.93618637
0.936189691
0.936197227
0.936196847
0.936190134
0.936190631
0.936195775
0.936197491
0.936196754
0.936194885
0.936193869
0.936194709
0.936199614
0.936201319
0.936196039
0.936192497
0.93619801
0.936204506
0.936201001
0.936193369
0.936195473
0.936204099
0.9362039
0.936196785
0.936196591
0.936201682
0.936202699
0.936199716
0.936199032
0.936201433
0.936202089
0.936199652
0.936199115
0.936202405
0.936203441
0.936199446
0.936197664
0.936202179
0.936204903
0.936200057
0.936196151
0.936200994
0.936206066
0.936201208
0.936194361
0.936198527
0.936206957
0.936203576
0.936192992
0.93619448
0.936206604
0.936206109
0.936193387
0.936191625
0.936202825
0.936206991
0.936197335
0.936189191
0.936195215
0.936207087
0.93620494
0.936188805
0.936186951
0.936200355
0.936207935
0.936199721
0.936184459
0.936185611
0.936202759
0.936207571
0.936195699
0.936181268
0.936184194
0.936204899
0.936207197
0.936188504
0.936177206
0.936189593
0.936207845
0.936201563
0.936176587
0.936177371
0.936202292
0.936205413
0.936183707
0.936174838
0.936191059
0.936203279
0.936191518
0.936176169
0.936182539
0.936198141
0.936194981
0.936179545
0.936179784
0.936192153
0.936192577
0.936182967
0.936180877
0.936187538
0.936189962
0.936184535
0.936180522
0.936183713
0.936188747
0.936187396
0.936180209
0.93617966
0.936185529
0.936188247
0.936183711
0.936178146
0.936180594
0.936187943
0.936186809
0.936177518
0.93617756
0.936187142
0.936188054
0.936178298
0.936175976
0.936185292
0.936188834
0.936180379
0.936175657
0.936182738
0.93618831
0.936183004
0.936177115
0.936180913
0.936187007
0.936184867
0.936179162
0.93618026
0.936186158
0.936186177
0.93618145
0.936180976
0.936184758
0.936186672
0.936185102
0.936183007
0.936183497
0.936185627
0.936187252
0.936187539
0.936186118
0.936184672
0.936185571
0.936189597
0.936191146
0.936189276
0.936185664
0.936186357
0.936191897
0.936195592
0.936193518
0.93618606
0.936186922
0.936197323
0.936201109
0.936193438
0.93618701
0.936193123
0.936203884
0.936202369
0.936191985
0.936193119
0.936203436
0.936204845
0.936198629
0.936198692
0.936205524
0.936206529
0.936200504
0.936201593
0.936212904
0.936213903
0.936200504
0.936199359
0.936217797
0.936225247
0.936208276
0.936196543
0.936212792
0.936233991
0.936226136
0.936200199
0.936203462
0.936233932
0.936238248
0.936216073
0.936207353
0.936224437
0.93624018
0.936232509
0.936217039
0.936222047
0.936240078
0.936240627
0.93622656
0.936226942
0.936241369
0.936245651
0.936235379
0.936231341
0.936242514
0.936252379
0.936246918
0.936236213
0.936239955
0.936256827
0.936258303
0.936246481
0.936243875
0.936255192
0.936263691
0.936257933
0.936250105
0.936257218
0.936270006
0.936266609
0.936253364
0.936258627
0.936279443
0.93627914
0.936255655
0.936257409
0.936285945
0.936289842
0.936263641
0.936259484
0.936289056
0.936299919
0.936272253
0.936257969
0.936288639
0.936315648
0.936291781
0.936254355
0.936271075
0.936324776
0.936322598
0.936267576
0.936262359
0.93630823
)
;

boundaryField
{
    closed
    {
        type            calculated;
        value           uniform 0.584604114;
    }
    open
    {
        type            calculated;
        value           nonuniform List<scalar> 0();
    }
    sides
    {
        type            empty;
    }
    procBoundary0to1
    {
        type            processor;
        value           uniform 0.93632868;
    }
}


// ************************************************************************* //
