/*--------------------------------*- C++ -*----------------------------------*\
| =========                 |                                                 |
| \\      /  F ield         | OpenFOAM: The Open Source CFD Toolbox           |
|  \\    /   O peration     | Version:  2306                                  |
|   \\  /    A nd           | Website:  www.openfoam.com                      |
|    \\/     M anipulation  |                                                 |
\*---------------------------------------------------------------------------*/
FoamFile
{
    version     2.0;
    format      ascii;
    arch        "LSB;label=32;scalar=64";
    class       surfaceScalarField;
    location    "0.00148";
    object      phi;
}
// * * * * * * * * * * * * * * * * * * * * * * * * * * * * * * * * * * * * * //

dimensions      [1 0 -1 0 0 0 0];

oriented        oriented;

internalField   nonuniform List<scalar> 
530
(
1.55723991e-06
1.55918203e-06
1.54108445e-06
1.53858952e-06
1.55651186e-06
1.55579798e-06
1.55960742e-06
1.56391144e-06
1.55510061e-06
1.53704982e-06
1.5143686e-06
1.5398809e-06
1.50535114e-06
1.50283209e-06
1.50218687e-06
1.50410216e-06
1.49870345e-06
1.49583415e-06
1.58443796e-06
1.58710064e-06
1.54843472e-06
1.52397136e-06
1.52183807e-06
1.52078982e-06
1.53058763e-06
1.52401406e-06
1.51535826e-06
1.50351605e-06
1.44877923e-06
1.48707522e-06
1.48785944e-06
1.4663074e-06
1.47173626e-06
1.48260897e-06
1.48387489e-06
1.49269895e-06
1.49456026e-06
1.4892548e-06
1.48568643e-06
1.49396732e-06
1.49457707e-06
1.48974466e-06
1.48752674e-06
1.49352894e-06
1.47746646e-06
1.50077137e-06
1.5013377e-06
1.48492199e-06
1.47868336e-06
1.47369929e-06
1.48067141e-06
1.47766267e-06
1.46112957e-06
1.47014208e-06
1.4549656e-06
1.45315616e-06
1.45521839e-06
1.45631683e-06
1.45746175e-06
1.47429668e-06
1.46814166e-06
1.45655058e-06
1.45226119e-06
1.49558405e-06
1.46323735e-06
1.46034962e-06
1.46792071e-06
1.46657792e-06
1.4539083e-06
1.49671042e-06
1.46198063e-06
1.46153898e-06
1.4574417e-06
1.44936664e-06
1.46959739e-06
1.47346373e-06
1.46794027e-06
1.45593476e-06
1.46414936e-06
1.46657808e-06
1.46250589e-06
1.4381958e-06
1.39324912e-06
1.41879837e-06
1.41976112e-06
1.42725861e-06
1.4608902e-06
1.46064362e-06
1.45170304e-06
1.45890642e-06
1.46246594e-06
1.46214271e-06
1.46607398e-06
1.46592619e-06
1.45959801e-06
1.50102467e-06
1.46922501e-06
1.46968649e-06
1.46645958e-06
1.46150654e-06
1.48301037e-06
1.48790379e-06
1.48398433e-06
1.47739098e-06
1.48438754e-06
1.48640121e-06
1.48400953e-06
1.470936e-06
1.45829792e-06
1.46669447e-06
1.46876041e-06
1.47975482e-06
1.48319177e-06
1.47971223e-06
1.48576183e-06
1.44437316e-06
1.48558865e-06
1.48947303e-06
1.49759597e-06
1.50116804e-06
1.47131338e-06
1.47372043e-06
1.48297892e-06
1.48581789e-06
1.49639453e-06
1.49862582e-06
1.50030161e-06
1.49502984e-06
1.48799026e-06
1.50071997e-06
1.48948289e-06
1.49418058e-06
1.48674966e-06
1.48427459e-06
1.4894785e-06
1.49507668e-06
1.49936067e-06
1.49094472e-06
1.49433387e-06
1.48834669e-06
1.49949358e-06
1.50169378e-06
1.51372229e-06
1.51710843e-06
1.51479765e-06
1.51170247e-06
1.51605165e-06
1.4900254e-06
1.5186435e-06
1.52206614e-06
1.52950995e-06
1.53458235e-06
1.52570493e-06
1.52390202e-06
1.53005203e-06
1.53280957e-06
1.54029316e-06
1.54201015e-06
1.57844774e-06
1.57633388e-06
1.56254516e-06
1.52783612e-06
1.48347437e-06
1.49186896e-06
1.49153085e-06
1.51939516e-06
1.52111378e-06
1.58407218e-06
1.59712537e-06
1.54878533e-06
1.52875013e-06
1.55152608e-06
1.53024712e-06
1.52659538e-06
1.53480827e-06
1.53324728e-06
1.52922306e-06
1.52319316e-06
1.52920381e-06
1.57102717e-06
1.55075238e-06
1.55136076e-06
1.56284088e-06
1.56432239e-06
1.56183614e-06
1.56283695e-06
1.56859873e-06
1.59724595e-06
1.58648912e-06
1.58725239e-06
1.55973911e-06
1.55380244e-06
1.56354747e-06
1.56430937e-06
1.54175297e-06
1.5376074e-06
1.54580057e-06
1.54818852e-06
1.54675531e-06
1.52916141e-06
1.50640415e-06
1.51435683e-06
1.5150117e-06
1.51295035e-06
1.51341499e-06
1.60504219e-06
1.60904122e-06
1.56842057e-06
1.55754605e-06
1.58431177e-06
1.55863761e-06
1.55651898e-06
1.51582654e-06
1.51201395e-06
1.50816345e-06
1.50797134e-06
1.61379213e-06
1.6166819e-06
1.56254902e-06
1.55125301e-06
1.57945336e-06
1.56436316e-06
1.56270981e-06
1.57017804e-06
1.56980887e-06
1.57214737e-06
1.55196451e-06
1.51467194e-06
1.53147633e-06
1.55544708e-06
1.56189113e-06
1.58981216e-06
1.62552326e-06
1.63004587e-06
1.63982265e-06
1.64103113e-06
1.61047537e-06
1.6101453e-06
1.60452895e-06
1.6203578e-06
1.61847003e-06
1.6052198e-06
1.60110871e-06
1.63440744e-06
1.61440753e-06
1.61338382e-06
1.62282956e-06
1.62240173e-06
1.61738946e-06
1.61203892e-06
1.61104644e-06
1.66218298e-06
1.62665543e-06
1.62619952e-06
1.65830224e-06
1.6076881e-06
1.59891037e-06
1.60759308e-06
1.60503975e-06
1.59693465e-06
1.64749827e-06
1.64827714e-06
1.63309793e-06
1.62499427e-06
1.60802772e-06
1.55149271e-06
1.5931305e-06
1.59499978e-06
1.56983189e-06
1.56857163e-06
1.57924711e-06
1.58038056e-06
1.56050962e-06
1.56494176e-06
1.57696896e-06
1.5777003e-06
1.58332921e-06
1.55308344e-06
1.5417257e-06
1.54799072e-06
1.53826162e-06
1.54049684e-06
1.65166333e-06
1.65098944e-06
1.61134937e-06
1.60427762e-06
1.59023873e-06
1.54498261e-06
1.57991581e-06
1.58284872e-06
1.54822702e-06
1.54405286e-06
1.55342002e-06
1.55791615e-06
1.55849525e-06
1.563494e-06
1.57214008e-06
1.63023641e-06
1.64656644e-06
1.64623147e-06
1.65749557e-06
1.6576395e-06
1.66126408e-06
1.66913822e-06
1.69287989e-06
1.7299134e-06
1.7456859e-06
1.74273048e-06
1.73059161e-06
1.74809077e-06
1.75298585e-06
1.74376191e-06
1.73821577e-06
1.73805139e-06
1.70609543e-06
1.74433658e-06
1.74603268e-06
1.7256121e-06
1.76719307e-06
1.77645484e-06
1.79132913e-06
1.7942971e-06
1.78400272e-06
1.80408325e-06
1.80932771e-06
1.78325741e-06
1.78527713e-06
1.78515348e-06
1.79480239e-06
1.79701041e-06
1.80019902e-06
1.79478469e-06
1.84814602e-06
1.8163765e-06
1.81803581e-06
1.81664908e-06
1.81290288e-06
1.81994183e-06
1.82004768e-06
1.82473599e-06
1.81948531e-06
1.86313749e-06
1.83404205e-06
1.83501598e-06
1.81262673e-06
1.8092544e-06
1.81865364e-06
1.82099572e-06
1.80877124e-06
1.82192054e-06
1.83251969e-06
1.83579176e-06
1.84019946e-06
1.84919649e-06
1.85011231e-06
1.80803307e-06
1.8483105e-06
1.84979515e-06
1.84968937e-06
1.84426292e-06
1.9162369e-06
1.87471645e-06
1.87653477e-06
1.86274328e-06
1.85800445e-06
1.86560011e-06
1.86818704e-06
1.86276923e-06
1.86951803e-06
1.8765794e-06
1.87861629e-06
1.87669953e-06
1.89557144e-06
1.89082789e-06
1.89671814e-06
1.88873298e-06
1.8924616e-06
1.89270555e-06
1.8928951e-06
1.8822461e-06
1.95625599e-06
1.90049602e-06
1.90068248e-06
1.92332982e-06
1.92220816e-06
1.91761797e-06
1.92095841e-06
1.92164859e-06
1.92759455e-06
1.93018694e-06
1.93426576e-06
1.96560494e-06
1.94958909e-06
1.9492399e-06
1.95000395e-06
1.95190184e-06
2.00153898e-06
1.97819709e-06
1.98280336e-06
1.98865575e-06
1.99442964e-06
1.94062437e-06
1.98943805e-06
1.99536755e-06
2.00111844e-06
1.99156032e-06
1.95348526e-06
1.97548052e-06
1.98064415e-06
1.97643659e-06
1.98011675e-06
1.98401568e-06
1.98799262e-06
1.98945132e-06
1.99192416e-06
2.00257853e-06
2.01433049e-06
2.01251098e-06
2.013404e-06
2.02155267e-06
2.03298066e-06
2.03261824e-06
2.07295495e-06
2.0401228e-06
2.04070022e-06
2.04538059e-06
2.04904053e-06
2.04590046e-06
2.04659487e-06
2.05160346e-06
2.06296096e-06
2.06524963e-06
2.10765998e-06
2.07543358e-06
2.07427882e-06
2.07194958e-06
2.07217498e-06
2.06325818e-06
2.0632104e-06
2.10122155e-06
2.10260589e-06
2.08628067e-06
2.06645239e-06
2.0616179e-06
2.06304203e-06
2.0645053e-06
2.05913631e-06
2.05800913e-06
2.05576911e-06
2.06417405e-06
2.07620462e-06
2.05162314e-06
2.05019806e-06
2.05062217e-06
2.04612412e-06
2.04035162e-06
2.04020858e-06
2.0385946e-06
2.04560092e-06
2.05746494e-06
2.04194071e-06
2.04129303e-06
2.04422112e-06
2.03958347e-06
2.03600535e-06
2.03581514e-06
2.01276147e-06
2.01543466e-06
2.01681736e-06
2.00644573e-06
2.00533896e-06
2.01859107e-06
2.02004861e-06
2.00579401e-06
2.00423203e-06
2.04050732e-06
2.04857253e-06
2.03479263e-06
2.03008654e-06
2.06881245e-06
2.02723761e-06
2.02274877e-06
2.02842733e-06
2.02107206e-06
2.01130912e-06
2.00983686e-06
1.96810129e-06
2.03422587e-06
2.03074199e-06
2.01819494e-06
2.01366973e-06
2.03407516e-06
2.03793934e-06
2.02564188e-06
2.02231519e-06
2.02137291e-06
2.02227397e-06
2.02611134e-06
2.05704543e-06
2.02591923e-06
2.02411971e-06
2.04328758e-06
2.04169402e-06
2.0321618e-06
2.02783127e-06
2.06227274e-06
2.06683812e-06
2.05668427e-06
2.0558938e-06
2.05704575e-06
2.05745876e-06
2.04342997e-06
2.03925653e-06
2.04548457e-06
2.05845633e-06
2.06291942e-06
1.99461047e-06
2.03476814e-06
2.0323916e-06
2.0463267e-06
2.03977819e-06
2.02081976e-06
2.01755394e-06
2.02894166e-06
2.02439704e-06
2.05339457e-06
2.0117335e-06
2.00678733e-06
2.01048163e-06
2.00192556e-06
)
;

boundaryField
{
    closed
    {
        type            calculated;
        value           nonuniform List<scalar> 0();
    }
    open
    {
        type            calculated;
        value           nonuniform List<scalar> 0();
    }
    sides
    {
        type            empty;
        value           nonuniform List<scalar> 0();
    }
    procBoundary3to2
    {
        type            processor;
        value           uniform -1.55797348e-06;
    }
    procBoundary3to4
    {
        type            processor;
        value           uniform 1.98689484e-06;
    }
}


// ************************************************************************* //
