/*--------------------------------*- C++ -*----------------------------------*\
| =========                 |                                                 |
| \\      /  F ield         | OpenFOAM: The Open Source CFD Toolbox           |
|  \\    /   O peration     | Version:  2306                                  |
|   \\  /    A nd           | Website:  www.openfoam.com                      |
|    \\/     M anipulation  |                                                 |
\*---------------------------------------------------------------------------*/
FoamFile
{
    version     2.0;
    format      ascii;
    arch        "LSB;label=32;scalar=64";
    class       volScalarField;
    location    "0.00148";
    object      prefDh_H2;
}
// * * * * * * * * * * * * * * * * * * * * * * * * * * * * * * * * * * * * * //

dimensions      [1 1 -3 0 0 0 0];

internalField   nonuniform List<scalar> 
531
(
37.65838
28.8621185
18.7802851
19.4807803
37.577275
38.4697053
37.8913969
28.7600031
24.5917758
27.4147451
24.3977669
24.4864932
37.7166306
38.49714
29.6833422
29.1973208
37.5038274
38.48121
33.0507962
28.9335847
22.2552981
22.4031702
38.052911
38.0026276
29.4844948
26.2882336
26.1025602
20.4894105
20.6059075
37.477069
38.1817664
21.777542
19.3618916
37.4589127
38.3221914
37.6258063
38.395006
29.5537604
26.3727797
38.0714189
38.2892787
29.1238573
27.9186009
21.0852238
21.126751
38.1474934
38.1919049
38.1531197
29.4724325
24.3676548
38.0543828
38.3163472
27.1359271
27.1348091
38.0549722
29.0019
21.649677
38.134977
37.993693
37.9757926
29.2195068
24.6025636
20.4269088
20.4910428
37.7075372
38.0150151
37.6239103
29.2456591
21.9282546
22.0342569
37.9697753
37.875481
29.1548286
21.6996064
22.1944871
37.7651259
29.0897452
22.0647231
38.0710094
37.6324812
29.527049
20.9844637
21.0450231
37.7043655
37.7961345
37.8100981
37.8551832
29.336861
18.4148456
18.9514946
37.5691813
38.102698
37.6446274
29.0921729
22.0358564
22.1423267
38.0796173
38.0147677
29.0265
20.5406765
21.6866808
37.8798324
28.8961631
21.1830081
38.3037933
37.9092453
29.0735902
23.3165676
23.3982279
37.9280199
37.9887165
37.9443135
29.5095478
26.5708658
16.9658588
17.0563389
37.4124705
37.9362193
37.3251201
38.0610394
25.5306829
21.0492878
37.3104066
38.024467
37.2771336
38.0406281
30.5874825
28.6637977
22.1140968
22.1865097
37.532338
37.6820842
29.6748006
14.4404365
14.8051471
37.4433623
37.5325368
37.4998591
25.7486417
19.8674829
37.4894577
37.749077
37.5413051
37.8506627
29.4624895
26.0307994
19.5911957
19.6596266
37.5282967
37.8982013
37.4171629
29.4668316
13.9287118
14.5385857
37.2384833
37.7812333
37.3001176
37.7649516
31.1095473
26.2368969
25.9276215
20.4732276
20.6235272
36.9177748
37.754814
36.5238344
37.8798075
37.0363646
27.7957906
23.6377004
19.3963814
19.5032734
37.5383946
37.8815063
37.7062526
38.0788
29.304372
25.894742
17.9122071
18.0855995
37.6763127
38.2188586
37.8211132
38.298073
29.2558851
25.1342312
20.9002828
21.0062758
37.6705559
38.2729425
27.3499157
24.4091841
37.7582249
38.1590035
28.6713511
25.0211324
37.904616
37.7728372
29.3387518
21.0699783
21.1674502
37.4724285
37.9210149
37.2145194
37.9435983
32.5509906
27.6727177
26.0093428
21.6629109
21.7284722
37.5192218
38.0227491
27.5397297
25.7894387
37.0993838
37.915901
33.7741891
27.9300808
24.5439957
17.6713517
17.7930902
37.3658253
37.4741473
37.5803049
37.4705615
29.3924418
16.9833497
17.1256165
37.031838
37.0405674
36.9918573
37.3491548
22.3041316
21.9894583
37.150561
29.6540542
21.5265847
37.7524214
37.7806078
37.7758421
29.3416027
24.6104885
18.2575773
18.3321153
37.5042709
37.9022685
37.6636064
37.985246
29.3181584
26.2186942
20.1911677
20.2438714
37.8321066
38.0111153
37.9894457
28.8053475
24.6098061
37.9553806
37.9582626
37.9478822
30.299096
27.8646053
26.9398259
26.7317428
22.9762803
23.0292128
37.6651642
38.2948562
27.4502224
24.331314
37.7415009
38.3499325
25.0694851
23.675714
37.9200182
38.2033077
38.1145066
26.0569635
23.8033272
37.8643574
37.7612978
37.7958545
32.1466135
27.6676585
25.7834926
26.0764724
22.4200918
22.5174944
37.6233095
38.3115653
28.5177887
27.1431141
37.8013094
38.5311002
37.8808711
28.6853378
23.279749
23.9924339
19.4765931
28.6570028
37.4543352
39.0051528
37.6785521
38.7851317
26.6428114
24.4703396
37.5375731
28.9874642
20.6658216
37.8581365
37.6542099
29.6258337
28.7753776
20.3829564
20.4438758
37.565642
37.7644625
37.7307948
26.5495138
25.0804783
37.5734023
29.2929711
19.887015
37.7849778
37.9172265
37.8790434
29.4950591
22.6695093
38.0663657
37.9728998
28.9434759
21.3185205
21.4554865
37.8862294
38.3154665
29.4757537
25.0164513
38.0843662
38.029798
29.0480756
22.2659633
22.3621205
37.6192794
38.4657418
29.1405031
25.5978892
37.5284065
38.4567789
25.8073835
25.1114266
37.4573487
38.3528959
37.5649095
29.051957
19.0384902
19.2107917
37.5196618
37.6927131
29.3507178
18.6826358
18.9953589
37.1139202
38.0056877
28.0603343
24.0005093
37.1786819
38.1253594
26.7140917
23.9195236
37.2485536
38.2609324
25.6921798
25.6779021
37.2908996
29.0226393
19.3492351
37.899837
37.6519908
29.1795117
20.838101
21.0058923
37.6543716
38.0685869
38.0486587
29.2244006
28.3933128
37.8766064
38.1471848
29.6202217
29.4353723
23.0714979
23.1121415
37.7105584
37.9782792
29.1576991
20.1391687
20.197396
37.6687586
37.9830929
29.1876692
19.0401698
19.0456218
37.7072624
37.8152008
29.1470699
17.5853502
17.7893661
37.4391541
38.1493563
37.7654909
38.3554336
29.2899237
27.0419902
37.8015385
38.6718838
29.594191
26.8752911
37.9148088
38.6920866
29.6742264
28.8179503
22.0346822
22.1568606
37.7661246
38.7201598
28.6803781
25.7681518
37.9152357
38.6452578
29.4559786
28.5165171
22.1209444
22.2555941
37.574464
38.5785739
27.9418406
26.1839036
37.4906489
38.3536975
31.579339
29.1647577
22.0669098
22.7898672
37.7491404
29.2143926
23.0721046
37.7559549
38.0645309
37.9077606
29.176746
19.9577304
22.2967779
37.6047675
29.3731339
23.1249758
37.6577047
37.9324448
37.8210893
29.1990585
19.3116195
21.3585027
37.5306838
29.3515576
22.424472
37.6782812
37.9643175
37.9150181
29.2639965
23.7676348
37.8469279
38.1312382
28.1344629
25.7426407
37.7540587
38.0411477
30.5775018
27.3024664
26.1014769
20.0071382
20.1143766
37.5293131
38.1983852
25.9058803
24.7607469
37.7618916
38.2283433
38.1147251
29.0210204
24.1602817
37.9360011
38.3578954
28.0074105
25.6198077
37.9266965
38.3314597
29.2132866
28.6095701
21.958525
22.0446606
37.3816972
38.2592915
26.1767013
22.7799843
37.3182153
38.3724714
25.7202444
23.3000137
37.4727719
38.3932254
29.5857045
27.2359104
37.8792875
38.5349624
29.3197954
28.3120287
21.6502101
21.6538015
37.9495809
38.4714438
27.8021396
24.5068471
38.10444
38.1510497
29.1636845
24.0524802
24.089748
37.7397087
38.4608342
29.2533664
27.610749
38.0137203
)
;

boundaryField
{
    closed
    {
        type            calculated;
        value           nonuniform List<scalar> 0();
    }
    open
    {
        type            calculated;
        value           nonuniform List<scalar> 0();
    }
    sides
    {
        type            empty;
    }
    procBoundary3to2
    {
        type            processor;
        value           uniform 38.3648022;
    }
    procBoundary3to4
    {
        type            processor;
        value           uniform 38.3494297;
    }
}


// ************************************************************************* //
