/*--------------------------------*- C++ -*----------------------------------*\
| =========                 |                                                 |
| \\      /  F ield         | OpenFOAM: The Open Source CFD Toolbox           |
|  \\    /   O peration     | Version:  2306                                  |
|   \\  /    A nd           | Website:  www.openfoam.com                      |
|    \\/     M anipulation  |                                                 |
\*---------------------------------------------------------------------------*/
FoamFile
{
    version     2.0;
    format      ascii;
    arch        "LSB;label=32;scalar=64";
    class       volVectorField;
    location    "0.00148";
    object      U;
}
// * * * * * * * * * * * * * * * * * * * * * * * * * * * * * * * * * * * * * //

dimensions      [0 1 -1 0 0 0 0];

internalField   nonuniform List<vector> 
531
(
(0.273797282 0 0)
(0.265199046 0 0)
(0.256709239 0 0)
(0.257375705 0 0)
(0.267896051 0 0)
(0.276442313 0 0)
(0.274341698 0 0)
(0.268544523 0 0)
(0.263993553 0 0)
(0.260194225 0 0)
(0.256169643 0 0)
(0.259813374 0 0)
(0.26560509 0 0)
(0.263857421 0 0)
(0.259524345 0 0)
(0.258828297 0 0)
(0.262415673 0 0)
(0.264721605 0 0)
(0.26894374 0 0)
(0.270144589 0 0)
(0.262847652 0 0)
(0.259976067 0 0)
(0.264923516 0 0)
(0.267511309 0 0)
(0.263787779 0 0)
(0.259096561 0 0)
(0.254478308 0 0)
(0.250658319 0 0)
(0.24875208 0 0)
(0.255133546 0 0)
(0.258506123 0 0)
(0.248895763 0 0)
(0.246177976 0 0)
(0.255163035 0 0)
(0.263515477 0 0)
(0.265024678 0 0)
(0.261858944 0 0)
(0.256196249 0 0)
(0.255078902 0 0)
(0.260339006 0 0)
(0.262671207 0 0)
(0.257783332 0 0)
(0.251092472 0 0)
(0.247885573 0 0)
(0.250144181 0 0)
(0.258936688 0 0)
(0.266781275 0 0)
(0.262239871 0 0)
(0.253927021 0 0)
(0.252349819 0 0)
(0.257601254 0 0)
(0.258743712 0 0)
(0.252371937 0 0)
(0.251298749 0 0)
(0.252459379 0 0)
(0.248687061 0 0)
(0.247751457 0 0)
(0.253063844 0 0)
(0.258573413 0 0)
(0.257984424 0 0)
(0.252835151 0 0)
(0.245103618 0 0)
(0.240840453 0 0)
(0.247698873 0 0)
(0.256857214 0 0)
(0.259654036 0 0)
(0.257625444 0 0)
(0.250966328 0 0)
(0.244115108 0 0)
(0.249100346 0 0)
(0.25742166 0 0)
(0.256690153 0 0)
(0.250070285 0 0)
(0.243398833 0 0)
(0.24653163 0 0)
(0.252893187 0 0)
(0.25229428 0 0)
(0.249849004 0 0)
(0.254223581 0 0)
(0.257416802 0 0)
(0.251048482 0 0)
(0.242052356 0 0)
(0.237918515 0 0)
(0.243508403 0 0)
(0.251874854 0 0)
(0.253452108 0 0)
(0.253337778 0 0)
(0.248445041 0 0)
(0.241120253 0 0)
(0.243086672 0 0)
(0.252780963 0 0)
(0.259736767 0 0)
(0.257491839 0 0)
(0.250521704 0 0)
(0.244440703 0 0)
(0.249941405 0 0)
(0.258614991 0 0)
(0.258105863 0 0)
(0.25107912 0 0)
(0.244449804 0 0)
(0.248140307 0 0)
(0.255148708 0 0)
(0.254594024 0 0)
(0.252520744 0 0)
(0.257692527 0 0)
(0.260856622 0 0)
(0.255067976 0 0)
(0.248048632 0 0)
(0.247877319 0 0)
(0.25458276 0 0)
(0.260464823 0 0)
(0.259430561 0 0)
(0.254821853 0 0)
(0.24801244 0 0)
(0.243715687 0 0)
(0.243622281 0 0)
(0.252878277 0 0)
(0.264411088 0 0)
(0.265994584 0 0)
(0.261348507 0 0)
(0.251674863 0 0)
(0.248310692 0 0)
(0.255802316 0 0)
(0.263206802 0 0)
(0.265119061 0 0)
(0.263726324 0 0)
(0.259606253 0 0)
(0.253634135 0 0)
(0.249091591 0 0)
(0.252432936 0 0)
(0.260255028 0 0)
(0.261736927 0 0)
(0.252964178 0 0)
(0.243393097 0 0)
(0.245430831 0 0)
(0.257022868 0 0)
(0.265836392 0 0)
(0.261443266 0 0)
(0.25274579 0 0)
(0.250950815 0 0)
(0.25827695 0 0)
(0.266133483 0 0)
(0.268187783 0 0)
(0.266223194 0 0)
(0.260672733 0 0)
(0.253933248 0 0)
(0.250433404 0 0)
(0.251877175 0 0)
(0.260881642 0 0)
(0.270270638 0 0)
(0.268212528 0 0)
(0.259305931 0 0)
(0.250223131 0 0)
(0.251373501 0 0)
(0.262474167 0 0)
(0.271666035 0 0)
(0.27312236 0 0)
(0.271489853 0 0)
(0.269992493 0 0)
(0.268132551 0 0)
(0.263196867 0 0)
(0.256643093 0 0)
(0.253239371 0 0)
(0.257740671 0 0)
(0.263589412 0 0)
(0.266007288 0 0)
(0.268967025 0 0)
(0.272387145 0 0)
(0.272789584 0 0)
(0.263864746 0 0)
(0.254276001 0 0)
(0.257486407 0 0)
(0.266660939 0 0)
(0.271269209 0 0)
(0.27235173 0 0)
(0.269522414 0 0)
(0.263275726 0 0)
(0.255628568 0 0)
(0.251315397 0 0)
(0.258503255 0 0)
(0.269966653 0 0)
(0.275638752 0 0)
(0.277396351 0 0)
(0.274749957 0 0)
(0.268576188 0 0)
(0.262204205 0 0)
(0.259756185 0 0)
(0.266692046 0 0)
(0.276850708 0 0)
(0.277637938 0 0)
(0.269217411 0 0)
(0.265426495 0 0)
(0.271498674 0 0)
(0.273671057 0 0)
(0.266307575 0 0)
(0.263096926 0 0)
(0.268759375 0 0)
(0.271697314 0 0)
(0.265096714 0 0)
(0.256667439 0 0)
(0.255233611 0 0)
(0.261771704 0 0)
(0.26836298 0 0)
(0.268439576 0 0)
(0.266958216 0 0)
(0.271052703 0 0)
(0.274162028 0 0)
(0.267344803 0 0)
(0.260411806 0 0)
(0.26512618 0 0)
(0.273349271 0 0)
(0.272277589 0 0)
(0.263142029 0 0)
(0.25821419 0 0)
(0.262145847 0 0)
(0.266366985 0 0)
(0.272753931 0 0)
(0.275874994 0 0)
(0.265862133 0 0)
(0.256145309 0 0)
(0.260560592 0 0)
(0.271379364 0 0)
(0.277450691 0 0)
(0.278756867 0 0)
(0.275503502 0 0)
(0.266954574 0 0)
(0.257588549 0 0)
(0.255035117 0 0)
(0.262466474 0 0)
(0.272675875 0 0)
(0.276152234 0 0)
(0.274326351 0 0)
(0.272883491 0 0)
(0.276187818 0 0)
(0.281113022 0 0)
(0.280501084 0 0)
(0.276979089 0 0)
(0.279941942 0 0)
(0.284834325 0 0)
(0.283504504 0 0)
(0.278023793 0 0)
(0.269405911 0 0)
(0.263901759 0 0)
(0.269956535 0 0)
(0.280850405 0 0)
(0.286531707 0 0)
(0.287934186 0 0)
(0.285031503 0 0)
(0.27864565 0 0)
(0.271180075 0 0)
(0.267040495 0 0)
(0.274727513 0 0)
(0.285519939 0 0)
(0.289034086 0 0)
(0.288122829 0 0)
(0.279380476 0 0)
(0.27332955 0 0)
(0.279093974 0 0)
(0.284619767 0 0)
(0.282116659 0 0)
(0.280640441 0 0)
(0.280593815 0 0)
(0.277965048 0 0)
(0.274133308 0 0)
(0.270298815 0 0)
(0.267749724 0 0)
(0.273720487 0 0)
(0.278628447 0 0)
(0.270643271 0 0)
(0.267647634 0 0)
(0.274134121 0 0)
(0.275396246 0 0)
(0.267274192 0 0)
(0.265041643 0 0)
(0.273245618 0 0)
(0.28019935 0 0)
(0.276268062 0 0)
(0.266836989 0 0)
(0.262790513 0 0)
(0.268322257 0 0)
(0.273033599 0 0)
(0.271903434 0 0)
(0.277148284 0 0)
(0.281555527 0 0)
(0.27615601 0 0)
(0.269898448 0 0)
(0.266275972 0 0)
(0.265283968 0 0)
(0.271873033 0 0)
(0.276698903 0 0)
(0.268980711 0 0)
(0.264762975 0 0)
(0.270350504 0 0)
(0.276082614 0 0)
(0.273365228 0 0)
(0.266811051 0 0)
(0.262931843 0 0)
(0.266217784 0 0)
(0.273376514 0 0)
(0.280763031 0 0)
(0.289492234 0 0)
(0.294587203 0 0)
(0.29471914 0 0)
(0.29074063 0 0)
(0.287076267 0 0)
(0.291691663 0 0)
(0.299276963 0 0)
(0.298614034 0 0)
(0.295722314 0 0)
(0.30192955 0 0)
(0.307572089 0 0)
(0.302749206 0 0)
(0.294022469 0 0)
(0.288560183 0 0)
(0.289145216 0 0)
(0.299209087 0 0)
(0.309464125 0 0)
(0.303579065 0 0)
(0.298186596 0 0)
(0.302106069 0 0)
(0.307274263 0 0)
(0.306124872 0 0)
(0.303571321 0 0)
(0.311248343 0 0)
(0.320298368 0 0)
(0.315150796 0 0)
(0.305092049 0 0)
(0.303975928 0 0)
(0.311545656 0 0)
(0.315200705 0 0)
(0.307719318 0 0)
(0.299902313 0 0)
(0.306709921 0 0)
(0.318508339 0 0)
(0.31888614 0 0)
(0.312234208 0 0)
(0.310311139 0 0)
(0.316917977 0 0)
(0.319584169 0 0)
(0.312223792 0 0)
(0.304819031 0 0)
(0.310784619 0 0)
(0.321760261 0 0)
(0.321683861 0 0)
(0.313205097 0 0)
(0.309787198 0 0)
(0.316420051 0 0)
(0.317549757 0 0)
(0.309403728 0 0)
(0.308490133 0 0)
(0.318299827 0 0)
(0.325751319 0 0)
(0.322969359 0 0)
(0.314054654 0 0)
(0.306309896 0 0)
(0.305940122 0 0)
(0.31694222 0 0)
(0.324660422 0 0)
(0.315678975 0 0)
(0.305924553 0 0)
(0.31415017 0 0)
(0.328509487 0 0)
(0.328406272 0 0)
(0.319959836 0 0)
(0.316800626 0 0)
(0.32410808 0 0)
(0.326021031 0 0)
(0.318232897 0 0)
(0.317227539 0 0)
(0.326034457 0 0)
(0.327946368 0 0)
(0.32070666 0 0)
(0.321474878 0 0)
(0.326707045 0 0)
(0.323515868 0 0)
(0.320949481 0 0)
(0.328274884 0 0)
(0.332278805 0 0)
(0.323916855 0 0)
(0.314534309 0 0)
(0.322181724 0 0)
(0.335070503 0 0)
(0.337308852 0 0)
(0.33591098 0 0)
(0.330747189 0 0)
(0.329758098 0 0)
(0.336008629 0 0)
(0.338013834 0 0)
(0.332985389 0 0)
(0.327181416 0 0)
(0.323452471 0 0)
(0.3297881 0 0)
(0.341360028 0 0)
(0.342477442 0 0)
(0.333210099 0 0)
(0.324312879 0 0)
(0.331208199 0 0)
(0.345926627 0 0)
(0.348303933 0 0)
(0.33899895 0 0)
(0.329919937 0 0)
(0.328654436 0 0)
(0.341112688 0 0)
(0.350312619 0 0)
(0.340629287 0 0)
(0.329519684 0 0)
(0.327948132 0 0)
(0.339920296 0 0)
(0.351294703 0 0)
(0.351673233 0 0)
(0.347095789 0 0)
(0.340420488 0 0)
(0.340317881 0 0)
(0.347916019 0 0)
(0.349372242 0 0)
(0.343245337 0 0)
(0.343805143 0 0)
(0.352258087 0 0)
(0.354669964 0 0)
(0.349021323 0 0)
(0.343168444 0 0)
(0.339205002 0 0)
(0.346254321 0 0)
(0.358569741 0 0)
(0.35822118 0 0)
(0.350378333 0 0)
(0.349405622 0 0)
(0.357853432 0 0)
(0.360364639 0 0)
(0.354109074 0 0)
(0.34799213 0 0)
(0.344401541 0 0)
(0.351950576 0 0)
(0.364704839 0 0)
(0.363985313 0 0)
(0.35504504 0 0)
(0.35336902 0 0)
(0.361053422 0 0)
(0.364248585 0 0)
(0.361949459 0 0)
(0.357192973 0 0)
(0.350535906 0 0)
(0.350861924 0 0)
(0.356132182 0 0)
(0.353092053 0 0)
(0.350863218 0 0)
(0.359457318 0 0)
(0.365362872 0 0)
(0.361631395 0 0)
(0.351674115 0 0)
(0.344838237 0 0)
(0.347543354 0 0)
(0.353860554 0 0)
(0.351174106 0 0)
(0.348345484 0 0)
(0.35622923 0 0)
(0.361976732 0 0)
(0.358443969 0 0)
(0.348275316 0 0)
(0.340974885 0 0)
(0.344231011 0 0)
(0.351880437 0 0)
(0.349706889 0 0)
(0.346831117 0 0)
(0.355153652 0 0)
(0.36109138 0 0)
(0.355424528 0 0)
(0.344659439 0 0)
(0.343058266 0 0)
(0.351018301 0 0)
(0.351607136 0 0)
(0.344304158 0 0)
(0.344175442 0 0)
(0.351616198 0 0)
(0.353454869 0 0)
(0.350184923 0 0)
(0.347344309 0 0)
(0.342438755 0 0)
(0.336871855 0 0)
(0.343607606 0 0)
(0.35652088 0 0)
(0.354618847 0 0)
(0.344912929 0 0)
(0.343539721 0 0)
(0.352109078 0 0)
(0.356824469 0 0)
(0.349222104 0 0)
(0.34215592 0 0)
(0.3457744 0 0)
(0.353671702 0 0)
(0.353618067 0 0)
(0.34620084 0 0)
(0.346927989 0 0)
(0.355409587 0 0)
(0.356375579 0 0)
(0.348740218 0 0)
(0.341872266 0 0)
(0.33754841 0 0)
(0.343922971 0 0)
(0.35596057 0 0)
(0.354753162 0 0)
(0.345887366 0 0)
(0.345598416 0 0)
(0.355016677 0 0)
(0.355417539 0 0)
(0.347696963 0 0)
(0.349467769 0 0)
(0.35977334 0 0)
(0.361367853 0 0)
(0.353602178 0 0)
(0.352281017 0 0)
(0.359203891 0 0)
(0.359508933 0 0)
(0.352319041 0 0)
(0.346782428 0 0)
(0.343325216 0 0)
(0.341620738 0 0)
(0.351492161 0 0)
(0.357171989 0 0)
(0.348515758 0 0)
(0.347336476 0 0)
(0.354923142 0 0)
(0.355391095 0 0)
(0.347311536 0 0)
(0.340538732 0 0)
(0.345323391 0 0)
(0.355317384 0 0)
(0.353071285 0 0)
(0.344933672 0 0)
(0.343321353 0 0)
(0.349470973 0 0)
)
;

boundaryField
{
    closed
    {
        type            noSlip;
    }
    open
    {
        type            inletOutlet;
        inletValue      nonuniform List<vector> 0();
        value           nonuniform List<vector> 0();
    }
    sides
    {
        type            empty;
    }
    procBoundary3to2
    {
        type            processor;
        value           uniform (0.277062523 0 0);
    }
    procBoundary3to4
    {
        type            processor;
        value           uniform (0.352026366 0 0);
    }
}


// ************************************************************************* //
