/*--------------------------------*- C++ -*----------------------------------*\
| =========                 |                                                 |
| \\      /  F ield         | OpenFOAM: The Open Source CFD Toolbox           |
|  \\    /   O peration     | Version:  2306                                  |
|   \\  /    A nd           | Website:  www.openfoam.com                      |
|    \\/     M anipulation  |                                                 |
\*---------------------------------------------------------------------------*/
FoamFile
{
    version     2.0;
    format      ascii;
    arch        "LSB;label=32;scalar=64";
    class       volScalarField;
    location    "0.00054";
    object      h;
}
// * * * * * * * * * * * * * * * * * * * * * * * * * * * * * * * * * * * * * //

dimensions      [0 2 -2 0 0 0 0];

internalField   nonuniform List<scalar> 
530
(
5490.26553
2960.98216
2282.39321
2274.61334
2273.91093
2273.89537
2273.89463
2273.89461
2273.89461
2273.89461
2273.89461
2273.89461
2273.89461
2273.89461
2273.89461
2273.89461
2273.89461
2273.89461
2273.89461
2273.89461
2273.89461
2273.89461
2273.89461
2273.89461
2273.89461
2273.89461
2273.89461
2273.89461
2273.89461
2273.89461
2273.89461
2273.89461
2273.89461
2273.89461
2273.89461
2273.89461
2273.89461
2273.89461
2273.89461
2273.89461
2273.89461
2273.89461
2273.89461
2273.89461
2273.89461
2273.89461
2273.89461
2273.89461
2273.89461
2273.89461
2273.89461
2273.89461
2273.89461
2273.89461
2273.89461
2273.89461
2273.89461
2273.89461
2273.89461
2273.89461
2273.89461
2273.89461
2273.89461
2273.89461
2273.89461
2273.89461
2273.89461
2273.89461
2273.89461
2273.89461
2273.89462
2273.89462
2273.89475
2273.89481
2273.89585
2273.89698
2273.90285
2273.90987
2273.94056
2273.97784
2274.06456
2274.49208
2274.58662
2275.19204
2276.49384
2279.14045
2290.75576
2290.7611
2229.05794
2227.10249
2545.76446
2747.46905
1942.16199
515.502301
1768.25288
5318.88125
5166.72615
-1402.05433
-3181.11737
-2165.71116
8109.2122
10115.2092
4760.16593
-2488.48491
-5151.31925
-5825.78738
1391.46615
8770.67229
9856.48675
9970.73985
5705.21965
-3518.17175
-5420.1254
2062.25198
9130.55045
5515.76602
-3212.56333
-4911.9688
1945.41747
9231.64678
4413.97013
-2322.38691
2304.35061
9158.31318
5794.36257
-3073.28015
-5029.00519
1525.11729
9116.70198
4608.08993
-2452.12845
1906.41511
9066.49724
5971.15626
-3064.53351
-5046.98391
1147.88383
9036.9564
4817.87174
-2488.44699
1598.8723
9000.22104
6088.45031
-3106.354
-5469.68851
818.815114
8944.76534
4903.02604
-2782.1211
1041.55229
8983.00006
5076.36889
-2470.61834
1280.75473
9001.89188
6366.51751
-2932.33275
-5088.51408
680.846251
9038.57645
5457.00081
-2140.32571
1345.90756
9198.42607
6339.27104
-1502.69072
-3802.2104
-4450.10194
427.489828
8955.43897
6905.31871
-2575.7722
-5009.63227
626.455092
9072.10043
5662.55269
-2475.03209
761.771079
9102.22409
5679.3207
-2410.66583
837.633512
9081.94741
6806.91339
-2857.64633
-5233.04611
164.165437
9009.72168
5663.12039
-2722.64676
473.647928
9039.32572
6858.81369
-2984.08034
-5447.66559
-94.0456034
8941.72182
5624.62516
-3319.98214
-244.800459
8901.20816
5629.17373
-3501.46319
-460.671281
8873.99197
5605.69636
-3605.09394
-597.437059
8886.1883
5640.24723
-3660.78329
-201.522308
8702.75885
4598.64292
-4319.63374
-837.311367
8799.29724
5491.63338
-4552.01555
-1678.15633
8703.59425
5652.38699
-3980.51712
-1040.89988
8974.32463
6028.08408
-3283.70456
-533.693446
9191.69527
8113.14104
-2672.72586
-5790.08462
-700.597009
9056.83592
5977.45071
-3529.93005
-601.261822
9184.62924
6169.21317
-3263.63355
-598.053962
9312.57717
8546.25306
-2603.50793
-5699.26263
-613.196553
9184.75353
6125.93049
-3274.97221
-608.204713
9414.90339
8897.34124
-2330.61228
-5588.44693
-172.374692
9367.60741
6251.34679
-2823.96804
-145.523767
9688.49077
8886.56837
-1091.95292
-4044.7508
-4571.91865
-790.335735
9477.19767
9279.42998
-1798.30706
-4911.36234
544.524486
9691.08685
6648.15061
-1964.23994
729.325105
9964.6856
9890.15257
-16.5262093
-3070.89883
-3610.24336
-4723.91771
-759.915743
9620.89954
9786.40525
-832.10419
-4358.14925
536.753238
9841.33095
9605.11145
-1628.53499
-4848.05532
49.0204663
9769.22846
9384.63643
-2181.7139
-5303.01414
-222.675202
9721.65181
9195.54414
-2490.73351
-5769.5319
-687.257185
9636.51828
7051.80011
-2965.58563
-175.107048
9940.86651
8973.08169
-2702.66727
-5902.66079
-866.006108
9603.3103
6396.85705
-3416.35239
153.57636
9352.04845
10603.5426
7772.6186
-2221.50206
-4303.34749
-4080.06033
-5447.25492
-1533.14101
9660.37757
7304.09126
-3173.46036
-109.164275
10033.094
6747.87933
-2973.58143
-114.701068
10018.8944
8630.22388
-3042.42534
-6257.42182
-1198.62041
9610.21386
7065.83184
-3801.24517
-879.77806
9870.12639
6624.12154
-3461.21781
-762.048025
9925.85204
8665.87162
-3121.52371
-5958.27593
-607.394878
9774.46119
9186.69139
-2857.51808
-5749.26163
-178.359401
9841.23544
7831.29599
-3229.63414
-1552.91107
9898.009
9210.49381
-2876.28985
-5915.85062
-1151.86379
9751.45844
9541.96472
-2328.36204
-5563.98626
-490.967859
9754.7889
8477.59604
-3845.86864
-3357.37071
9579.47743
9265.9351
-4609.44895
-5291.36102
8777.14643
9980.08368
903.116752
-5028.27785
-2621.77047
9620.29791
9289.11366
-3630.4137
-3464.25355
9657.044
9661.76345
-2735.67076
-5886.99152
-1307.13777
9683.05763
9311.53454
-4100.46191
-4344.93185
9326.36856
9399.55175
-4292.32113
-4344.8022
9459.5553
9490.76994
-3802.51987
-3694.28663
9644.96714
9787.32683
-2869.39851
-6505.97059
-3108.3445
9545.59518
9555.16514
-3916.2269
-3986.88427
9555.07448
9605.0311
-3865.12906
-3876.19273
9576.17312
9654.72273
-3375.4106
-3264.15521
9763.97422
9869.86628
-2725.34707
-6035.3597
-2655.4632
9680.2068
9744.30075
-2647.38196
-2584.24033
9978.68056
10088.3924
-1439.23414
-3805.52289
-4216.2675
-2077.73826
9875.99247
10037.2525
-1532.63585
-4938.69114
-1321.52411
9878.35816
10006.5024
-1383.46888
-4994.90449
-1435.39386
9850.07531
10012.0238
-1402.6208
-5053.43978
-1748.73671
9756.56217
9992.75853
-2162.64506
-5922.7245
-607.729943
9029.55632
10714.0655
9609.84522
-1126.26457
-4417.77632
-4564.26714
-2981.46168
9708.33424
10015.2472
-1188.16963
-5338.03274
-2625.28216
9629.03847
9874.5177
-2461.63638
-2891.43263
9440.71116
9966.3886
-1774.01486
-6014.23738
-3536.72722
9373.76469
9626.42903
-3063.24172
-3698.569
9107.35162
9700.16717
-2778.18608
-3243.17935
9138.9047
9843.14047
-1778.82059
-6235.42705
-3881.36052
9184.75515
9409.35317
-3112.46933
-3826.38786
8881.79711
9511.65054
-2755.78933
-3245.57794
8929.69824
9756.84716
-1395.51737
-6055.46379
-3871.99382
9030.0331
9208.90705
-3087.17165
-3698.95027
8673.93547
9238.91694
-2715.94985
-3141.16002
8755.12553
9634.33957
-887.275416
-5997.55512
-3735.00808
8828.65209
8562.07893
-3511.61874
-1820.10434
9026.56985
5936.67091
-4159.25216
-1892.03199
9059.99341
8692.59921
-3174.47083
-3491.57338
8189.79605
9704.98702
710.366767
-5435.6049
-3209.7107
)
;

boundaryField
{
    closed
    {
        type            lookUpEnthalpy;
        h0              uniform 255398.308;
        value           uniform 255398.308;
    }
    open
    {
        type            zeroGradient;
    }
    sides
    {
        type            empty;
    }
    procBoundary0to1
    {
        type            processor;
        value           uniform 8631.74693;
    }
}


// ************************************************************************* //
