/*--------------------------------*- C++ -*----------------------------------*\
| =========                 |                                                 |
| \\      /  F ield         | OpenFOAM: The Open Source CFD Toolbox           |
|  \\    /   O peration     | Version:  2306                                  |
|   \\  /    A nd           | Website:  www.openfoam.com                      |
|    \\/     M anipulation  |                                                 |
\*---------------------------------------------------------------------------*/
FoamFile
{
    version     2.0;
    format      ascii;
    arch        "LSB;label=32;scalar=64";
    class       volScalarField;
    location    "0.00054";
    object      PV;
}
// * * * * * * * * * * * * * * * * * * * * * * * * * * * * * * * * * * * * * //

dimensions      [0 0 0 0 0 0 0];

internalField   nonuniform List<scalar> 
530
(
-0.00716102999
-0.00713518534
-0.00712683064
-0.00712671511
-0.00712670432
-0.00712670409
-0.00712670385
-0.00712670319
-0.00712670224
-0.00712670134
-0.00712670018
-0.00712669903
-0.00712669791
-0.00712669688
-0.0071266959
-0.00712669459
-0.00712669345
-0.00712669274
-0.00712669198
-0.00712669143
-0.0071266905
-0.00712668963
-0.00712668862
-0.00712668765
-0.00712668678
-0.0071266861
-0.00712668558
-0.00712668523
-0.00712668493
-0.00712668469
-0.00712668439
-0.00712668404
-0.00712668362
-0.00712668308
-0.00712668248
-0.00712668179
-0.00712668114
-0.00712668062
-0.00712668011
-0.00712667986
-0.00712667965
-0.00712667945
-0.00712667944
-0.00712667925
-0.00712667921
-0.00712667915
-0.00712667909
-0.00712667903
-0.00712667902
-0.00712667891
-0.00712667887
-0.00712667888
-0.00712667873
-0.00712667876
-0.00712667866
-0.00712667864
-0.0071266786
-0.00712667854
-0.00712667852
-0.00712667848
-0.00712667837
-0.0071266784
-0.0071266783
-0.00712667829
-0.00712667823
-0.00712667822
-0.00712667816
-0.00712667811
-0.00712667807
-0.00712667803
-0.007126678
-0.00712667795
-0.00712667791
-0.00712667785
-0.00712667783
-0.00712667778
-0.00712667787
-0.00712667792
-0.00712667843
-0.0071266797
-0.00712668132
-0.00712668543
-0.00712669335
-0.00712671652
-0.00712674528
-0.00712673646
-0.00712671391
-0.00712675006
-0.00712831247
-0.00712859255
-0.00712313152
-0.00712066635
-0.00713460847
-0.00716179185
-0.00713889419
-0.00707407392
-0.00707894169
-0.00718901004
-0.0072188615
-0.00720067118
-0.00703221971
-0.00700096097
-0.00709327073
-0.00720391385
-0.00723980944
-0.00725124235
-0.0071303398
-0.00701738009
-0.00700406447
-0.00700512388
-0.00707570607
-0.0072180963
-0.00724724897
-0.00712287519
-0.00701520161
-0.00707920102
-0.00721643607
-0.00724049252
-0.00712638556
-0.00701403331
-0.00709828632
-0.00720597045
-0.00712250627
-0.00701424659
-0.00707410724
-0.00721441937
-0.0072421993
-0.00713365905
-0.00701459321
-0.00709368515
-0.0072076243
-0.007129352
-0.00701457474
-0.00707010061
-0.00721386138
-0.00724266945
-0.00714032228
-0.00701524532
-0.00708922586
-0.00720858154
-0.00713529292
-0.0070149659
-0.00706761773
-0.00721431425
-0.00724862591
-0.00714567688
-0.00701524794
-0.00708653357
-0.00721167717
-0.00714433654
-0.00701386956
-0.00708274358
-0.00720890926
-0.00714156934
-0.00701469878
-0.00706172674
-0.00721202193
-0.0072439989
-0.00714997678
-0.00701452163
-0.00707767524
-0.00720402168
-0.00714299927
-0.00701207162
-0.00706237941
-0.0071936929
-0.00722501928
-0.00723559475
-0.00715678534
-0.00701597188
-0.00705216892
-0.0072077257
-0.00724447981
-0.00715244559
-0.00701420023
-0.00707308073
-0.00720937172
-0.00715315354
-0.00701268151
-0.00707169455
-0.0072097598
-0.00715298043
-0.00701340993
-0.00705386535
-0.00721134728
-0.00724808057
-0.00716066352
-0.00701459804
-0.00707138524
-0.00721432499
-0.00715943038
-0.00701316828
-0.00705256716
-0.00721316119
-0.00725159819
-0.00716568042
-0.00701489727
-0.007071308
-0.00722248331
-0.00717044408
-0.00701360927
-0.00706966365
-0.0072253548
-0.00717397856
-0.00701408253
-0.00706959948
-0.00722758486
-0.00717621229
-0.00701534957
-0.00706968165
-0.00723021354
-0.00717147934
-0.0070145955
-0.00708505853
-0.00723895024
-0.0071795436
-0.0070152549
-0.00706983895
-0.00724042656
-0.00719225563
-0.00701391332
-0.00706560565
-0.00723267045
-0.00718368853
-0.00701254964
-0.00706122672
-0.00722369558
-0.00718024785
-0.00701067449
-0.0070276224
-0.00720908969
-0.00725875172
-0.00717716157
-0.00701222927
-0.00706199354
-0.00722539051
-0.00717796391
-0.00700918961
-0.00705813719
-0.00722190756
-0.00718167599
-0.00700803322
-0.00701777557
-0.00720708953
-0.00725736728
-0.00717544196
-0.00701013747
-0.00705863371
-0.00722150274
-0.00718151777
-0.0070062993
-0.00701121772
-0.00720322794
-0.00725511554
-0.00716847044
-0.0070080639
-0.00705679046
-0.00721420778
-0.00717469004
-0.00700412387
-0.00701025515
-0.00718743543
-0.00723147711
-0.00723596694
-0.00718211603
-0.00700526921
-0.00700460549
-0.00719617325
-0.00724473664
-0.0071580961
-0.00700584933
-0.00705019067
-0.00720210628
-0.0071596013
-0.00700229474
-0.0070009105
-0.00716905796
-0.00721926485
-0.00721871126
-0.00723949236
-0.00717851146
-0.00700384255
-0.00700029396
-0.00718198493
-0.0072362923
-0.00715942699
-0.0070040788
-0.00700250551
-0.00719369851
-0.00724388567
-0.00716758583
-0.00700405737
-0.00700385726
-0.00720176276
-0.00725054752
-0.00717213329
-0.0070040256
-0.00700504744
-0.00720557433
-0.00725673856
-0.00717848936
-0.00700544563
-0.00703861332
-0.00721629177
-0.00717674984
-0.00700057093
-0.0070085951
-0.00720760097
-0.00725996407
-0.00718143672
-0.00700693134
-0.007050108
-0.00722568577
-0.00716411284
-0.00701204175
-0.0069975277
-0.00703540152
-0.00720117163
-0.00723962871
-0.00722536344
-0.00725039533
-0.00719468577
-0.0070044159
-0.00703551179
-0.00721923707
-0.00717579286
-0.00700244166
-0.007048104
-0.00721553808
-0.00717787224
-0.00700072401
-0.00701388881
-0.0072119182
-0.00726506256
-0.00718799693
-0.00700610934
-0.00703723952
-0.00722660302
-0.00718612776
-0.00700259684
-0.00704760594
-0.00722114622
-0.00718691095
-0.00700151399
-0.00701223992
-0.0072133423
-0.00726072438
-0.00718019622
-0.00700565131
-0.00700454888
-0.00721079856
-0.00725668402
-0.00717348309
-0.00700686916
-0.00702451005
-0.00721877247
-0.00720144792
-0.00700198499
-0.00700543567
-0.00721006082
-0.00725967584
-0.00718856952
-0.00700665168
-0.00700226723
-0.00720447253
-0.00725422309
-0.00717992344
-0.00700927716
-0.00701326642
-0.00722893968
-0.00722791921
-0.0070080667
-0.00700550515
-0.00723899271
-0.00724974401
-0.00700777357
-0.00700688445
-0.00715930477
-0.00724559315
-0.0072130004
-0.00700710209
-0.00700301081
-0.00722417869
-0.00722727588
-0.00700522577
-0.00700384664
-0.00720992113
-0.00725881302
-0.00719281517
-0.00700952789
-0.0070029049
-0.00723112316
-0.00723858693
-0.0070092171
-0.00700416
-0.00723301897
-0.00723818197
-0.00700837393
-0.00700366097
-0.00722601633
-0.00722975828
-0.00700544447
-0.00700400669
-0.00721217688
-0.00726658042
-0.00721775958
-0.00700855278
-0.00700086969
-0.00722842826
-0.0072317569
-0.00700701306
-0.00700201635
-0.00722642083
-0.00723003934
-0.00700650223
-0.00700155599
-0.0072193336
-0.00722224272
-0.00700324066
-0.00700231181
-0.00720896839
-0.00725833665
-0.00720965894
-0.00700596379
-0.00699779741
-0.00721023156
-0.00721077875
-0.00700243178
-0.00699904438
-0.00719259797
-0.00722528003
-0.00722998319
-0.00720272861
-0.00700094142
-0.00699968535
-0.00719154673
-0.00724122268
-0.00718936781
-0.00700321712
-0.00699945522
-0.00719014174
-0.00724195601
-0.00719151143
-0.00700353141
-0.00699978898
-0.0071903781
-0.00724300247
-0.00719660453
-0.00700330948
-0.00700127596
-0.00719840685
-0.00725907476
-0.00717391192
-0.00701360223
-0.00699714356
-0.00700436613
-0.00718517821
-0.00723774915
-0.00723394911
-0.00721785755
-0.0070029973
-0.00700171056
-0.00718727068
-0.00724834143
-0.00720972871
-0.00700796546
-0.00699818203
-0.00720762011
-0.00721596005
-0.00700803388
-0.0070024555
-0.00719556487
-0.00725823063
-0.00722218971
-0.00700956128
-0.00699973342
-0.00721650554
-0.00722709877
-0.00701264759
-0.00700170914
-0.00721224409
-0.00722196203
-0.00701034718
-0.0070037535
-0.00719630403
-0.00726237302
-0.00722827134
-0.00701153561
-0.00700241525
-0.00721828163
-0.00723090276
-0.00701514838
-0.0070037856
-0.00721344037
-0.00722339559
-0.00701252965
-0.00700497726
-0.00719115008
-0.00726121354
-0.00722920051
-0.00701317439
-0.00700495965
-0.00721902298
-0.00723080447
-0.00701732334
-0.00700653274
-0.00721400564
-0.00722319123
-0.00701415593
-0.00700583403
-0.00718289656
-0.00726137923
-0.00722801033
-0.00701522766
-0.00701243381
-0.00722585916
-0.0072021022
-0.00701230886
-0.00706374192
-0.00723467079
-0.00720124424
-0.00701447563
-0.00701320938
-0.00722188059
-0.0072279454
-0.00702072796
-0.00700487653
-0.00715789377
-0.00725297909
-0.00721988117
)
;

boundaryField
{
    closed
    {
        type            zeroGradient;
    }
    open
    {
        type            zeroGradient;
    }
    sides
    {
        type            empty;
    }
    procBoundary0to1
    {
        type            processor;
        value           uniform -0.00701837597;
    }
}


// ************************************************************************* //
