/*--------------------------------*- C++ -*----------------------------------*\
| =========                 |                                                 |
| \\      /  F ield         | OpenFOAM: The Open Source CFD Toolbox           |
|  \\    /   O peration     | Version:  2306                                  |
|   \\  /    A nd           | Website:  www.openfoam.com                      |
|    \\/     M anipulation  |                                                 |
\*---------------------------------------------------------------------------*/
FoamFile
{
    version     2.0;
    format      ascii;
    arch        "LSB;label=32;scalar=64";
    class       volScalarField;
    location    "0.00116";
    object      prefDh_T;
}
// * * * * * * * * * * * * * * * * * * * * * * * * * * * * * * * * * * * * * //

dimensions      [1 1 -3 -1 0 0 0];

internalField   nonuniform List<scalar> 
531
(
-0.000491142277
-0.00049000785
-0.000735482119
-0.000739953502
-0.000593961557
-0.000500505457
-0.000501660128
-0.000732131768
-0.000744147534
-0.000607591935
-0.000550991353
-0.000736342625
-0.000739970603
-0.000595120266
-0.000530011649
-0.000528610521
-0.00073546453
-0.00074257692
-0.000596818256
-0.000568130376
-0.000522433763
-0.000522516135
-0.000735656311
-0.000737878854
-0.000596904776
-0.000478307338
-0.000479194457
-0.000728087664
-0.000742453575
-0.00053403512
-0.000487642968
-0.000731887202
-0.000742073839
-0.000735754111
-0.000742229368
-0.000596631864
-0.000479065571
-0.000478839194
-0.0007404121
-0.000740657173
-0.000591919192
-0.000523596294
-0.000547277815
-0.000736285621
-0.000746083169
-0.000619104223
-0.000593163337
-0.000495884914
-0.000496867783
-0.000737325268
-0.000748533802
-0.000577828206
-0.000529922835
-0.000739230791
-0.000746658135
-0.000582805054
-0.000534678869
-0.000741337692
-0.000741387942
-0.0005930323
-0.000515533137
-0.000516227326
-0.000731319029
-0.000743538701
-0.000648849397
-0.000595425381
-0.000486179226
-0.000487602216
-0.00074109634
-0.000745265398
-0.000592964406
-0.000488551859
-0.000488806164
-0.000744174537
-0.000744390836
-0.000590904011
-0.000537539465
-0.000537209232
-0.0007403989
-0.000749721111
-0.000595880254
-0.000585574397
-0.000743722371
-0.00075166066
-0.000594303169
-0.000592592113
-0.000542373291
-0.000542234373
-0.000731752912
-0.000747777869
-0.000659770911
-0.000594982276
-0.000486974127
-0.000489556503
-0.000740503213
-0.000748006775
-0.000594987176
-0.000551680539
-0.000510475287
-0.000510428714
-0.000739079051
-0.000748265277
-0.000586109546
-0.000550075401
-0.000740925262
-0.000748066237
-0.000600722584
-0.00056501704
-0.000745172799
-0.000746978676
-0.000589560928
-0.000558452314
-0.000575038596
-0.000521960034
-0.000572078717
-0.000748399869
-0.000748008607
-0.000747183734
-0.00060083646
-0.000568869032
-0.000741228566
-0.000730303944
-0.000738110385
-0.000706085444
-0.000551731812
-0.000505925525
-0.000457066228
-0.00045716779
-0.000736983243
-0.000737000016
-0.000601605401
-0.000428546121
-0.000430964541
-0.000733409925
-0.000740721067
-0.000737173734
-0.000742718086
-0.000581126735
-0.000495964564
-0.000741536586
-0.000740220369
-0.00059525756
-0.000570827319
-0.000577672564
-0.000526744146
-0.000526793294
-0.000734232141
-0.000743452343
-0.00062559413
-0.000599058618
-0.000496817475
-0.000498146375
-0.000737946996
-0.000745114331
-0.000740605481
-0.000745553204
-0.000595375254
-0.000530679627
-0.00047211908
-0.000472338256
-0.000737979887
-0.000740350413
-0.000739349505
-0.000739580339
-0.000595288158
-0.000523803774
-0.000542232
-0.000457696222
-0.000458951722
-0.000734481194
-0.000737491601
-0.000736868414
-0.000736764907
-0.000597004271
-0.000528288414
-0.000545811906
-0.000457136886
-0.00045869381
-0.000732631311
-0.000738339689
-0.000735024271
-0.000739185915
-0.000603136329
-0.000491071456
-0.000419640948
-0.000420059463
-0.000735966921
-0.000737154111
-0.000737642487
-0.00055903678
-0.000500709296
-0.000739033775
-0.000738590521
-0.000739676777
-0.000604790814
-0.000515758979
-0.000740064663
-0.00074241212
-0.000592224398
-0.000545019689
-0.000740241602
-0.000742730149
-0.000600174979
-0.000558277553
-0.000498275524
-0.00049805354
-0.000736594295
-0.000742136196
-0.000560542142
-0.000517326335
-0.000738172295
-0.000741628598
-0.000562614458
-0.000496833637
-0.000740706743
-0.000739750478
-0.000598627992
-0.000462443025
-0.000471464144
-0.000739284518
-0.000739621417
-0.000739354597
-0.000597655141
-0.000551985907
-0.000477541135
-0.000477535665
-0.000739746688
-0.000742956993
-0.000737560751
-0.000593115242
-0.00047267813
-0.000474785827
-0.000738784188
-0.000746081385
-0.000590342766
-0.000537714453
-0.000741397263
-0.000744908655
-0.000599564442
-0.000563949798
-0.000498005854
-0.000498339323
-0.000738979025
-0.000743656931
-0.000739309339
-0.000744490696
-0.0005974464
-0.000530808393
-0.000482663412
-0.000482615873
-0.000737494045
-0.000739066524
-0.000734827902
-0.000613836849
-0.000492340841
-0.000492540004
-0.000743311956
-0.000741435984
-0.000594753135
-0.000457172423
-0.000459485805
-0.000741330073
-0.000746480246
-0.000576377722
-0.000567072812
-0.000740039775
-0.00059432424
-0.000504898597
-0.000745981794
-0.00073861789
-0.000596210557
-0.000536386261
-0.000536033238
-0.000742220049
-0.000740105912
-0.000595105804
-0.000502754138
-0.000503146388
-0.000743177576
-0.00073925844
-0.000595187369
-0.000493416839
-0.00049012281
-0.000733185237
-0.000710897485
-0.00052204698
-0.000605131346
-0.000739013667
-0.000743704549
-0.000597115193
-0.000479957453
-0.000480880316
-0.000739672228
-0.000738410554
-0.000597662917
-0.000446113744
-0.000448853824
-0.000734992446
-0.000740273679
-0.000735978425
-0.000741870222
-0.000599230461
-0.000559780423
-0.000476282396
-0.000476829574
-0.000737629601
-0.000746661187
-0.00056034046
-0.000521565984
-0.000735966559
-0.000747517399
-0.000590086854
-0.000568475703
-0.000731810862
-0.000744845907
-0.000654636876
-0.000596830374
-0.000480804442
-0.000509204251
-0.000738872336
-0.000598708157
-0.000516635335
-0.000740881585
-0.000742790745
-0.000740335864
-0.000596217194
-0.000435515076
-0.000501544799
-0.000734639283
-0.000598379777
-0.000516462977
-0.000741224619
-0.000740115804
-0.000739139755
-0.000596625069
-0.000446821173
-0.000504229636
-0.000735402113
-0.000598188218
-0.000517685866
-0.000740275042
-0.000739156656
-0.000738162165
-0.000596728289
-0.000457030673
-0.000509285276
-0.000735631964
-0.000597725559
-0.000520118001
-0.000740883519
-0.00073904465
-0.000739818118
-0.000599848375
-0.000460300984
-0.000462253674
-0.000733635769
-0.000737391047
-0.000597942921
-0.000493015244
-0.000493828491
-0.000737870678
-0.000738596276
-0.00059629288
-0.000491662482
-0.000509447402
-0.000740242263
-0.00059521949
-0.000501399534
-0.000739000022
-0.000745417184
-0.00057775112
-0.000523396288
-0.000736423838
-0.000747552907
-0.000573806359
-0.000533950174
-0.000731422449
-0.000747288578
-0.000563934291
-0.000561478111
-0.000730833528
-0.000745670871
-0.000734886334
-0.000593310409
-0.000456968844
-0.000460292162
-0.000730960673
-0.000742827743
-0.000600953605
-0.000576457533
-0.00047964291
-0.00048098188
-0.000733130163
-0.000746637613
-0.000564550706
-0.000535188699
-0.000731554036
-0.000745369227
-0.000628678494
-0.000599207512
-0.000491017313
-0.000492563541
-0.000731385118
-0.000743358855
-0.000594266672
-0.000525149602
-0.000732108785
-0.000739777884
-0.000735411455
-0.000737964119
-0.000598251819
-0.000460397237
-0.000462031415
-0.000730167847
-0.000739217238
-0.000564069856
-0.000463059786
-0.000732385826
-0.000734139559
-0.000598952792
-0.000448594946
-0.000450827257
-0.000725652118
-0.000731852595
-0.00062870614
-0.000467347673
-0.000465959552
-0.000727084272
-0.000730578947
-0.000608229715
-0.000457696367
-0.00045967487
-0.000722540108
-0.000729944445
-0.000646044985
-0.000463877102
-0.00046323142
-0.000719892869
-0.000734447776
-0.000556648718
-0.000507756914
-0.000700920272
-0.000729718144
-0.000718732401
-0.000484469617
-0.000445412822
-0.000720820901
-0.000732009745
-0.000558445634
-0.000507806682
-0.000717235529
-0.000730470907
-0.00066706767
-0.000480243953
-0.000465770108
-0.000722140264
-0.00073544028
-0.00057342384
-0.000512643627
-0.000722728136
-0.00073254565
-0.000627575746
-0.000479285147
-0.000478538811
-0.000726481183
-0.000734063004
-0.000613674145
-0.000469082737
-0.000471179349
-0.000726305809
-0.000741358611
-0.000596454252
-0.000541224683
-0.000730417911
-0.000739830452
-0.000599414464
-0.000585925533
-0.000468134423
-0.000469510086
-0.000730606731
-0.000737673875
-0.000736233503
-0.000608485151
-0.00051612137
-0.000725709507
-0.000733429174
-0.000630769673
-0.000470279397
-0.000471568328
-0.00072304472
-0.00073957778
-0.000584780948
-0.000503626996
-0.000727088529
-0.000734619155
-0.000605432119
-0.000465296379
-0.000468358335
-0.000723218181
-0.000741927232
-0.000592244874
-0.000520069304
-0.000724627028
-0.000740056544
-0.000607678322
-0.000534115332
-0.000724016989
-0.000733962368
-0.000618828367
-0.000489907516
-0.000489247301
-0.000724824517
-0.000733994393
-0.000603010112
-0.000465980235
-0.000467784815
-0.000723564114
-0.000732722862
-0.000618260781
-0.00047137939
-0.000471608275
-0.000721960388
-0.000738239751
-0.000601343452
-0.000519727335
-0.000723571252
-0.000733825543
-0.000612560553
-0.000486585575
-0.000487468257
-0.000727001455
)
;

boundaryField
{
    closed
    {
        type            calculated;
        value           nonuniform List<scalar> 0();
    }
    open
    {
        type            calculated;
        value           nonuniform List<scalar> 0();
    }
    sides
    {
        type            empty;
    }
    procBoundary3to2
    {
        type            processor;
        value           uniform -0.000598185435;
    }
    procBoundary3to4
    {
        type            processor;
        value           uniform -0.000742280856;
    }
}


// ************************************************************************* //
