/*--------------------------------*- C++ -*----------------------------------*\
| =========                 |                                                 |
| \\      /  F ield         | OpenFOAM: The Open Source CFD Toolbox           |
|  \\    /   O peration     | Version:  2306                                  |
|   \\  /    A nd           | Website:  www.openfoam.com                      |
|    \\/     M anipulation  |                                                 |
\*---------------------------------------------------------------------------*/
FoamFile
{
    version     2.0;
    format      ascii;
    arch        "LSB;label=32;scalar=64";
    class       volScalarField;
    location    "0.00066";
    object      h;
}
// * * * * * * * * * * * * * * * * * * * * * * * * * * * * * * * * * * * * * //

dimensions      [0 2 -2 0 0 0 0];

internalField   nonuniform List<scalar> 
531
(
8856.6978
-2502.17485
-5377.87313
1666.54076
9281.41244
4808.06937
-3661.21825
-2707.49053
8591.5578
10179.135
5195.4479
-4129.00284
-6236.17545
-782.215001
8941.50214
8370.27691
-3115.24915
-4938.16713
2444.62034
9674.19961
9444.70404
-1825.3211
-4827.99768
1257.39353
9539.87708
9610.77732
27.7591312
-4718.63688
-2495.3963
8494.0241
10299.0572
6456.40164
-3672.85081
-5697.48785
1223.85532
9403.25771
7786.54759
-1736.65296
-4999.31894
-3348.1657
8062.01602
10340.6737
8093.41418
-2720.12042
-5259.72443
1901.65536
9358.76841
7452.68701
-3609.43762
-5927.64957
1162.10383
9090.76088
4715.68778
-4409.76953
-4484.66033
8118.02881
9872.05811
616.196796
-4680.99059
2696.08174
9466.14914
6019.69837
-3996.38084
-4593.93706
5285.91755
9931.22902
7046.33392
-3544.49705
-4834.11926
3781.66393
9816.97767
6620.20038
-1748.73181
-4615.62961
-3089.6002
8500.0622
10283.9338
6018.30224
-4436.75145
-5477.72006
4450.72025
9604.68682
5266.03211
-4671.49398
-5247.28214
4328.92729
9998.95392
8142.8773
238.800836
-2411.85488
-4873.907
-4953.91114
5138.89724
9929.42262
7735.33704
-3238.49144
-4494.45177
5875.37483
9771.12999
244.693671
-4230.88005
4941.05383
9593.7784
-353.107748
-4359.37756
6120.206
9941.49687
2178.68403
-1793.5922
1517.73845
3506.95221
-1780.02262
-3091.96375
7230.7647
10076.3959
1764.56009
-3407.94763
288.783417
9274.30318
10438.4876
5318.53944
-1861.86525
-2848.94383
-4623.12961
-4900.67447
2899.52155
9775.18729
9502.54317
-1208.2781
-4185.5184
2398.63353
9795.28633
9748.40609
476.862711
-5750.25486
-4762.74274
7556.26195
10372.9119
8413.57519
219.189578
-2941.74464
-2708.21514
-4115.27869
-4210.82326
8471.56638
10219.5544
3741.33082
-3413.81531
-1559.64245
8302.86452
10490.6853
9068.43088
611.243057
-2843.65001
-2566.88422
-4499.42364
-4495.19983
7437.14212
9777.32022
9853.05049
7866.91085
-92.4455831
-2549.33333
-2350.88513
-4351.92153
-4368.69306
7458.55964
9864.75373
9899.03153
7262.06326
-190.590851
-2319.02562
-2141.53231
-4260.96248
-4321.45222
7290.60812
10146.8067
10136.167
3952.38405
-1096.78252
-763.932515
120.231357
-1572.47042
-2671.79266
2326.74203
9811.56367
10155.5946
2004.7799
-4967.74163
-4653.56569
8443.25909
9849.96495
1223.96006
-4867.10925
-313.445142
8895.87757
5284.75749
-4273.33064
-3391.84094
8801.98993
9853.87629
419.626318
-4975.01893
867.933854
9048.36533
4736.50429
-4329.0452
-3286.94049
8828.52853
9821.32086
88.5907406
-4871.18038
1111.46424
9140.32795
5032.03632
-4464.60779
-3652.49168
8348.89676
10403.4438
6285.93126
-591.788332
-2920.8893
-4361.53864
-4669.36731
3587.19429
9918.9552
10030.9968
1498.69235
-4707.18301
-3460.20114
8699.38296
10018.6581
2580.38474
-4619.38655
-3397.41652
8802.59871
9325.54755
-1569.32321
-4148.26633
2469.66327
9802.17687
10268.0157
3103.9753
-2220.06089
-3458.45595
-5379.11624
-5250.24583
5591.28586
9524.75119
9902.65075
9841.56133
2873.69497
-3325.51289
-5711.15643
-5154.36312
8214.06023
9293.40218
-734.94942
-5078.73342
1418.64573
8997.72741
3048.93595
-4050.06561
1661.94345
9013.1643
3271.71618
-3730.50138
1671.37422
9164.12135
4282.85207
-3898.3087
-1456.00055
9001.89367
8835.36686
-3246.25727
-4070.38267
6911.31328
9723.74635
3360.80366
-4642.68474
-4352.05155
8308.51176
9118.72858
-1169.98034
-4417.93482
2954.2664
9315.31113
5453.24839
-4337.76812
-4368.39488
8159.87899
9120.12049
-566.7954
-4223.96943
1436.38394
8817.16835
10343.7664
9396.15406
294.605509
-3039.64553
-3534.60191
-5180.93201
-4089.92233
7999.44532
9858.97964
3596.72305
-3822.18708
-3556.88446
8145.30915
9610.53011
2545.31669
-4429.72178
-3053.42574
8219.43023
8565.62383
-2445.9339
-3468.16969
6534.65353
9464.0455
2755.33191
-4677.45076
-3535.91794
7890.87372
8250.84044
-2181.2026
-3619.50403
6137.20179
9399.02777
2955.67254
-4547.27522
-3297.99951
7797.41409
8074.63763
-2157.99949
-3433.85323
5777.87832
9358.88314
3155.16976
-4358.71712
-3096.27565
7723.82138
8108.19331
-2054.0449
-3382.49735
5399.70835
9219.27503
3451.67182
-4156.78893
-2789.91767
7698.79755
7889.48422
-2193.83559
-3276.66103
5449.85054
9309.39744
3759.65049
-3987.8828
-4076.45259
6694.40408
9119.87319
2417.589
-4793.41689
-2736.86861
7409.94928
6262.20581
-3259.24941
-1895.54847
7760.65439
6074.08053
-2969.20482
-983.608544
8044.14922
5727.49297
-2837.43139
-611.284982
8295.65787
7268.67549
-2396.1768
-3483.77665
5155.6434
9224.44055
4217.51551
-4203.05563
-2701.9338
7053.19309
5183.5682
-3550.25879
-502.713713
7948.21689
4067.46432
-3314.41268
1117.34492
8295.84265
3288.59109
-3063.25697
1724.472
8914.43067
6536.83925
-2787.94207
-3941.39948
4598.1601
9529.42285
6213.80409
-2837.64242
-4148.55318
4079.33117
9617.27472
7084.7982
-1238.7122
-4766.90733
-4974.79501
6355.4058
9530.83222
4203.76954
-3966.93977
-4250.192
6502.09133
9579.84756
3841.42693
-4160.96689
-4454.4656
7006.60693
9570.35449
3150.01413
-4429.94715
-4260.11407
7649.64776
9615.558
2547.29398
-4510.68997
-3334.69212
8103.37078
9463.26377
1058.23835
-4994.20322
-949.459847
8527.16244
6190.13316
-3434.42413
-2943.61927
8319.65436
9579.71388
871.389543
-4980.17844
-634.586908
8639.42414
5986.74389
-3492.15
-2857.39782
8425.10143
9574.03382
629.683084
-5002.41412
-445.004283
8731.40012
5945.98248
-3469.54536
-2992.87498
8463.16521
9664.5854
1286.7355
-4851.88012
-2656.05661
8508.50359
9441.46936
-235.516465
-5402.08726
-452.272383
8742.89236
5768.25554
-3634.69086
-2832.8837
8584.81574
9805.57569
2140.01661
-4573.49069
-4680.6379
5582.8355
10092.8812
9581.24852
-611.754354
-4932.62119
-1823.28713
8800.6253
9268.43587
-1182.01705
-5777.73968
-1075.59217
8640.3134
5588.52714
-3818.1823
-2235.21233
8761.35275
9462.48352
-720.906087
-5566.62014
-402.514327
8718.92982
4637.63023
-3993.2319
-9.36803685
8890.72089
4814.40172
-3569.51478
236.93796
9103.54086
6543.48025
-3032.19498
-2935.36803
8615.93467
10093.9329
3767.98073
-4188.56122
-5583.88467
1717.08443
9066.07347
4346.53917
-3970.13867
-2744.09068
8685.06398
9733.77286
960.77884
-4943.71944
-2820.79207
8599.78171
9502.5712
-481.984659
-5285.39061
388.342552
8979.88815
6176.08633
)
;

boundaryField
{
    closed
    {
        type            lookUpEnthalpy;
        h0              nonuniform List<scalar> 0();
        value           nonuniform List<scalar> 0();
    }
    open
    {
        type            zeroGradient;
    }
    sides
    {
        type            empty;
    }
    procBoundary3to2
    {
        type            processor;
        value           uniform 9086.9995;
    }
    procBoundary3to4
    {
        type            processor;
        value           uniform -3652.70853;
    }
}


// ************************************************************************* //
