/*--------------------------------*- C++ -*----------------------------------*\
| =========                 |                                                 |
| \\      /  F ield         | OpenFOAM: The Open Source CFD Toolbox           |
|  \\    /   O peration     | Version:  2306                                  |
|   \\  /    A nd           | Website:  www.openfoam.com                      |
|    \\/     M anipulation  |                                                 |
\*---------------------------------------------------------------------------*/
FoamFile
{
    version     2.0;
    format      ascii;
    arch        "LSB;label=32;scalar=64";
    class       volScalarField;
    location    "0.00066";
    object      prefDPV_T;
}
// * * * * * * * * * * * * * * * * * * * * * * * * * * * * * * * * * * * * * //

dimensions      [1 -1 -1 -1 0 0 0];

internalField   nonuniform List<scalar> 
531
(
6.10921217e-10
5.90815545e-10
5.89607002e-10
5.96636118e-10
6.10305644e-10
6.02617072e-10
5.90561062e-10
5.90906456e-10
6.11510388e-10
6.08583897e-10
6.0253073e-10
5.89776734e-10
5.88939178e-10
5.9274963e-10
6.10851418e-10
6.11858814e-10
5.9059789e-10
5.8987986e-10
5.97943358e-10
6.09755842e-10
6.09828744e-10
5.91483556e-10
5.89939486e-10
5.95839546e-10
6.09878471e-10
6.09407523e-10
5.93856421e-10
5.90094742e-10
5.90894103e-10
6.11760687e-10
6.08456899e-10
6.05579417e-10
5.9005117e-10
5.89230191e-10
5.95846442e-10
6.09961772e-10
6.10506097e-10
5.91595926e-10
5.90013035e-10
5.90604976e-10
6.11678825e-10
6.08512062e-10
6.09907923e-10
5.90606745e-10
5.89723191e-10
5.96994277e-10
6.10226894e-10
6.08981332e-10
5.90211371e-10
5.89216209e-10
5.95786456e-10
6.10621472e-10
6.02328748e-10
5.90216494e-10
5.90053086e-10
6.12246822e-10
6.09088225e-10
5.9464382e-10
5.89837881e-10
5.98774467e-10
6.10064165e-10
6.05082768e-10
5.90367367e-10
5.90006298e-10
6.04737701e-10
6.0938304e-10
6.07178992e-10
5.90445723e-10
5.89828051e-10
6.01144641e-10
6.09334541e-10
6.06489179e-10
5.91601043e-10
5.90130607e-10
5.90761728e-10
6.11669079e-10
6.08656159e-10
6.04426953e-10
5.89877193e-10
5.89398588e-10
6.03312718e-10
6.09778569e-10
6.03039041e-10
5.89876919e-10
5.89479508e-10
6.0260918e-10
6.09145719e-10
6.11365231e-10
5.94105066e-10
5.91485765e-10
5.89863202e-10
5.89774565e-10
6.04749165e-10
6.09385746e-10
6.09591654e-10
5.90769102e-10
5.90061883e-10
6.06947264e-10
6.09282775e-10
5.94111929e-10
5.89988871e-10
6.04222273e-10
6.09424042e-10
5.93339586e-10
5.89821688e-10
6.08874676e-10
6.08786061e-10
5.97062621e-10
5.91568331e-10
5.96014415e-10
5.99753446e-10
5.91681711e-10
5.90519059e-10
6.11517249e-10
6.08559979e-10
5.96424898e-10
5.90389226e-10
5.94264639e-10
6.10250174e-10
6.08144269e-10
6.03485704e-10
5.9153857e-10
5.90887679e-10
5.89853944e-10
5.89663426e-10
5.98921326e-10
6.09500247e-10
6.09532113e-10
5.92229902e-10
5.90204005e-10
5.97874658e-10
6.09391537e-10
6.09187546e-10
5.94511692e-10
5.89478768e-10
5.89684458e-10
6.10924269e-10
6.08294341e-10
6.12044187e-10
5.94137237e-10
5.91130185e-10
5.90822434e-10
5.90296454e-10
5.90097877e-10
6.11388156e-10
6.08511857e-10
6.00155542e-10
5.90551132e-10
5.91777251e-10
6.11963545e-10
6.07938816e-10
6.10560481e-10
5.94756557e-10
5.91200857e-10
5.90912024e-10
5.90155055e-10
5.89954519e-10
6.120423e-10
6.09513116e-10
6.09418807e-10
6.11125765e-10
5.93676253e-10
5.91315021e-10
5.9106665e-10
5.90209289e-10
5.900089e-10
6.12263382e-10
6.092987e-10
6.09330758e-10
6.09221936e-10
5.9354393e-10
5.91405371e-10
5.91216271e-10
5.90295468e-10
5.89975823e-10
6.1229496e-10
6.0861906e-10
6.08890063e-10
6.0078331e-10
5.92393845e-10
5.92808458e-10
5.93961647e-10
5.91836169e-10
5.90793347e-10
5.97756789e-10
6.09166239e-10
6.08613887e-10
5.96902543e-10
5.89732229e-10
5.89838548e-10
6.11353342e-10
6.09092381e-10
5.95594993e-10
5.89812675e-10
5.93382711e-10
6.10800655e-10
6.04124083e-10
5.90272882e-10
5.90636215e-10
6.1089737e-10
6.09076388e-10
5.94389879e-10
5.89785009e-10
5.95137744e-10
6.10576697e-10
6.02672795e-10
5.9026077e-10
5.90664004e-10
6.10814361e-10
6.09063247e-10
5.93928794e-10
5.89792022e-10
5.95579058e-10
6.10371954e-10
6.03655075e-10
5.90202774e-10
5.90349236e-10
6.11698633e-10
6.08273771e-10
6.05649227e-10
5.93036792e-10
5.90954708e-10
5.89985358e-10
5.89793607e-10
6.0024908e-10
6.09069535e-10
6.08942768e-10
5.96047998e-10
5.89996499e-10
5.90455274e-10
6.10906679e-10
6.08847187e-10
5.97753808e-10
5.89954147e-10
5.90560951e-10
6.10686692e-10
6.09623609e-10
5.91817519e-10
5.90205964e-10
5.97927207e-10
6.09362194e-10
6.08499038e-10
5.9874283e-10
5.91382301e-10
5.90498536e-10
5.89529454e-10
5.89587808e-10
6.05212041e-10
6.0978714e-10
6.09229002e-10
6.09283729e-10
5.98060597e-10
5.90679968e-10
5.89425874e-10
5.89717748e-10
6.11669619e-10
6.09989093e-10
5.92839123e-10
5.89848836e-10
5.96038002e-10
6.10545229e-10
5.99130694e-10
5.90446425e-10
5.96471901e-10
6.1046017e-10
5.99587117e-10
5.90609206e-10
5.96460635e-10
6.10285869e-10
6.0169726e-10
5.9053697e-10
5.92024907e-10
6.10660454e-10
6.10662289e-10
5.90853354e-10
5.90406028e-10
6.09530868e-10
6.09502877e-10
5.99057951e-10
5.90122569e-10
5.90204899e-10
6.11609256e-10
6.1017188e-10
5.92312938e-10
5.90203197e-10
5.98920238e-10
6.10153598e-10
6.04260045e-10
5.90243095e-10
5.9015621e-10
6.11839563e-10
6.10107842e-10
5.93045743e-10
5.90371377e-10
5.96117676e-10
6.11223679e-10
6.08333185e-10
6.10091681e-10
5.94207011e-10
5.91169679e-10
5.90434248e-10
5.89867146e-10
5.90290571e-10
6.12316101e-10
6.09241847e-10
5.99463592e-10
5.90614753e-10
5.90654214e-10
6.12034132e-10
6.09581488e-10
5.97664883e-10
5.9029061e-10
5.90902652e-10
6.12025625e-10
6.11198254e-10
5.9125219e-10
5.90775507e-10
6.08146897e-10
6.09877998e-10
5.98090142e-10
5.90150485e-10
5.90662314e-10
6.11934761e-10
6.11877419e-10
5.913239e-10
5.90724865e-10
6.06872698e-10
6.09997849e-10
5.98508455e-10
5.9020966e-10
5.90746948e-10
6.11540005e-10
6.12288049e-10
5.91317813e-10
5.90804495e-10
6.05734405e-10
6.10068962e-10
5.98919205e-10
5.90302456e-10
5.90815397e-10
6.11267468e-10
6.12247214e-10
5.9139561e-10
5.90852003e-10
6.04563505e-10
6.10320405e-10
5.99546375e-10
5.90423837e-10
5.90919064e-10
6.11088926e-10
6.11651216e-10
5.91316069e-10
5.90893298e-10
6.04663594e-10
6.10196415e-10
6.00096972e-10
5.90464597e-10
5.9038156e-10
6.08048235e-10
6.10508232e-10
5.97606402e-10
5.90061426e-10
5.90796564e-10
6.10338895e-10
6.06930383e-10
5.90853548e-10
5.91464484e-10
6.11401364e-10
6.06290025e-10
5.91040448e-10
5.92520687e-10
6.12192766e-10
6.05296732e-10
5.91086332e-10
5.92984351e-10
6.12057112e-10
6.09180603e-10
5.91218928e-10
5.90779134e-10
6.0381196e-10
6.10338955e-10
6.01176481e-10
5.90313391e-10
5.90891222e-10
6.09380255e-10
6.04096411e-10
5.90691113e-10
5.93127271e-10
6.12162873e-10
6.01400251e-10
5.90841079e-10
5.9557989e-10
6.1184977e-10
5.99594353e-10
5.90903151e-10
5.96677867e-10
6.10956544e-10
6.06689061e-10
5.90935607e-10
5.90425472e-10
6.02720973e-10
6.09847497e-10
6.05366187e-10
5.90885039e-10
5.90276156e-10
6.01448718e-10
6.09685302e-10
6.07238305e-10
5.92219549e-10
5.90016103e-10
5.89881445e-10
6.07595294e-10
6.0974657e-10
6.00856132e-10
5.9041184e-10
5.90253747e-10
6.07897334e-10
6.09652607e-10
6.00084725e-10
5.90324961e-10
5.90173269e-10
6.09421842e-10
6.09645745e-10
5.9878017e-10
5.9020585e-10
5.90266695e-10
6.11287349e-10
6.09537169e-10
5.9771872e-10
5.9016307e-10
5.9070335e-10
6.12259337e-10
6.09734578e-10
5.95349331e-10
5.89859984e-10
5.92539787e-10
6.11595754e-10
6.06484461e-10
5.90762652e-10
5.90944098e-10
6.11920259e-10
6.09525337e-10
5.95067268e-10
5.89838853e-10
5.92949266e-10
6.1138205e-10
6.05920623e-10
5.90719036e-10
5.90972424e-10
6.11721418e-10
6.09523486e-10
5.9470733e-10
5.8982529e-10
5.93205288e-10
6.11222997e-10
6.05745978e-10
5.907269e-10
5.9093129e-10
6.11613512e-10
6.09407391e-10
5.95670618e-10
5.89965483e-10
5.90990445e-10
6.11572104e-10
6.09730968e-10
5.93486113e-10
5.89607555e-10
5.93195631e-10
6.11146473e-10
6.05386528e-10
5.9059045e-10
5.90935736e-10
6.11363131e-10
6.09173254e-10
5.96965003e-10
5.90091733e-10
5.89906676e-10
6.04956749e-10
6.08947385e-10
6.09849034e-10
5.92983966e-10
5.90050869e-10
5.91575914e-10
6.11054276e-10
6.10029174e-10
5.92251725e-10
5.89443102e-10
5.92386842e-10
6.11322244e-10
6.04960236e-10
5.90560876e-10
5.91242094e-10
6.11096441e-10
6.09715107e-10
5.92843862e-10
5.89552543e-10
5.9326214e-10
6.11188351e-10
6.0259929e-10
5.90422675e-10
5.93806163e-10
6.10845186e-10
6.02985412e-10
5.90615797e-10
5.94147285e-10
6.10565981e-10
6.07241954e-10
5.90970832e-10
5.91022416e-10
6.11393063e-10
6.08834507e-10
5.99624923e-10
5.89977413e-10
5.89354723e-10
5.96668687e-10
6.10548021e-10
6.01629084e-10
5.90431211e-10
5.90979362e-10
6.11201935e-10
6.09250812e-10
5.95171557e-10
5.89881649e-10
5.90907689e-10
6.11350049e-10
6.09535372e-10
5.93154904e-10
5.89602302e-10
5.94420199e-10
6.10722165e-10
6.06630252e-10
)
;

boundaryField
{
    closed
    {
        type            calculated;
        value           nonuniform List<scalar> 0();
    }
    open
    {
        type            calculated;
        value           nonuniform List<scalar> 0();
    }
    sides
    {
        type            empty;
    }
    procBoundary3to2
    {
        type            processor;
        value           uniform 6.10725539e-10;
    }
    procBoundary3to4
    {
        type            processor;
        value           uniform 5.90600945e-10;
    }
}


// ************************************************************************* //
