/*--------------------------------*- C++ -*----------------------------------*\
| =========                 |                                                 |
| \\      /  F ield         | OpenFOAM: The Open Source CFD Toolbox           |
|  \\    /   O peration     | Version:  2306                                  |
|   \\  /    A nd           | Website:  www.openfoam.com                      |
|    \\/     M anipulation  |                                                 |
\*---------------------------------------------------------------------------*/
FoamFile
{
    version     2.0;
    format      ascii;
    arch        "LSB;label=32;scalar=64";
    class       volScalarField;
    location    "0.00066";
    object      prefDh_T;
}
// * * * * * * * * * * * * * * * * * * * * * * * * * * * * * * * * * * * * * //

dimensions      [1 1 -3 -1 0 0 0];

internalField   nonuniform List<scalar> 
531
(
-0.000728548544
-0.000592063565
-0.000497122859
-0.000584820408
-0.000730700017
-0.000621860593
-0.000556773969
-0.000587178784
-0.000720459766
-0.000748640441
-0.000622966969
-0.000539574413
-0.000467406912
-0.000583705772
-0.000727230148
-0.00071847727
-0.000573516378
-0.000512706638
-0.00059203374
-0.000732211793
-0.000739155775
-0.000592208142
-0.000516607318
-0.000583954493
-0.00073376544
-0.000745553895
-0.000585820522
-0.000520215902
-0.000592917528
-0.000716263682
-0.000747930758
-0.000645745563
-0.000554262631
-0.000486787962
-0.000582388507
-0.000736660666
-0.00069385955
-0.000592586174
-0.000509803255
-0.0005666938
-0.000706930325
-0.000744702309
-0.000685523114
-0.000584487886
-0.000501111284
-0.000587254367
-0.000730033479
-0.000677529432
-0.000556966058
-0.00047776894
-0.000581108724
-0.000728430033
-0.000619897938
-0.0005311981
-0.000528688024
-0.000716576618
-0.000745150455
-0.000591513858
-0.000522003118
-0.00059350826
-0.000730842494
-0.000641667204
-0.00054541723
-0.000524904929
-0.000638417244
-0.000733694271
-0.000659690627
-0.000560016597
-0.000516638125
-0.000609022178
-0.000739751809
-0.000653797374
-0.000594372563
-0.000523924297
-0.000575232337
-0.000719137875
-0.000742485083
-0.000636517292
-0.000530227898
-0.000494328045
-0.000625378977
-0.000734309221
-0.000625895748
-0.000522307161
-0.000502570996
-0.000619969181
-0.000738458404
-0.00070265772
-0.000595786459
-0.000599598958
-0.000515124645
-0.000512433845
-0.000638399778
-0.000733680923
-0.000683372688
-0.00057079073
-0.000528343573
-0.000659404743
-0.00074313376
-0.000596261655
-0.000537090714
-0.000633659983
-0.000745711163
-0.000595621488
-0.000532628439
-0.000680267556
-0.000751549016
-0.000594550031
-0.000596219065
-0.000591552862
-0.000603356237
-0.000603927608
-0.000573664059
-0.000708647243
-0.000753178102
-0.00059193686
-0.000563813179
-0.000582774603
-0.000732773824
-0.000752017199
-0.000628821729
-0.000600364031
-0.000583019398
-0.000523982124
-0.000514533752
-0.000596221428
-0.000736240525
-0.00074597291
-0.000590381744
-0.00053891448
-0.000591521473
-0.000738838767
-0.00074689531
-0.000585465494
-0.000482950023
-0.000519257762
-0.000699901097
-0.000750011626
-0.000709739924
-0.000584950796
-0.000581576332
-0.000586539575
-0.000541360103
-0.000537940348
-0.000729727197
-0.000749270681
-0.000606028321
-0.000564455956
-0.000588863013
-0.00071792865
-0.000756105201
-0.000731339951
-0.000583175634
-0.000584941303
-0.000591124011
-0.000528079952
-0.000528336395
-0.00071442662
-0.000735750642
-0.000735693413
-0.000701006716
-0.000589425734
-0.000594464998
-0.000598269989
-0.000533236779
-0.00053261695
-0.000717168372
-0.000738983558
-0.000736628551
-0.000680895181
-0.000589653547
-0.000601789641
-0.000600888888
-0.000536376791
-0.000534135739
-0.00071833008
-0.0007488063
-0.000741010413
-0.000609021293
-0.000593638501
-0.000593258753
-0.000590495476
-0.000596330804
-0.000587315678
-0.000590787158
-0.000745114108
-0.000748630387
-0.000591516951
-0.000512035574
-0.00052294513
-0.000732053563
-0.000745872397
-0.000589415852
-0.000515485303
-0.000586072082
-0.000730807793
-0.000633372764
-0.000535951913
-0.000565502758
-0.000731626018
-0.00074620502
-0.000588816176
-0.00051163438
-0.000584638267
-0.000731653234
-0.000621912902
-0.000534010934
-0.000568825707
-0.00073317958
-0.000747842465
-0.000588122813
-0.000515379867
-0.000583775563
-0.000734395498
-0.000629361867
-0.000529260248
-0.00055631671
-0.000724826459
-0.000749487379
-0.000646455383
-0.000595422476
-0.000581315884
-0.000532830896
-0.000522414637
-0.000604623647
-0.000743913369
-0.000743457181
-0.000589643998
-0.000520879082
-0.000562607648
-0.000735597339
-0.000746820288
-0.000596613569
-0.000524061446
-0.000564997901
-0.00073828108
-0.000750044185
-0.000594222563
-0.000540156259
-0.000592642611
-0.000739477593
-0.000747836347
-0.000599985208
-0.000604432208
-0.000562863251
-0.00049746953
-0.00050209316
-0.000642724092
-0.000737256285
-0.000739654908
-0.000740357702
-0.000600464166
-0.000567727062
-0.000484993738
-0.000505184707
-0.000731595332
-0.000740210267
-0.000592060148
-0.000507507243
-0.000586323374
-0.00073475123
-0.000598015404
-0.000543680439
-0.000587107728
-0.000736805109
-0.000600602414
-0.000554631132
-0.000587634647
-0.000736146305
-0.000614605562
-0.00054891667
-0.00060073188
-0.000730893966
-0.000737709179
-0.000570911622
-0.000542964579
-0.000685640866
-0.000738204847
-0.00060281442
-0.000522951053
-0.000533234018
-0.000729513011
-0.000741524067
-0.000594842597
-0.000530921846
-0.000597017162
-0.000734169934
-0.000634660635
-0.000533715126
-0.000532680648
-0.000728403596
-0.000743434083
-0.000589127218
-0.000537642221
-0.000585341866
-0.000720205014
-0.000749943268
-0.000732835942
-0.000589597817
-0.000578653173
-0.000560267367
-0.000503418943
-0.000542202426
-0.000719594033
-0.000740967494
-0.000604922304
-0.000551576714
-0.000560388846
-0.000722594194
-0.000740243993
-0.000596725941
-0.0005303804
-0.000577062762
-0.000719568296
-0.000731878019
-0.000597063694
-0.000563596856
-0.000671006599
-0.000736844092
-0.000597475344
-0.00052158649
-0.000561084117
-0.000710963549
-0.000723173757
-0.000605045878
-0.000558528767
-0.000658275918
-0.000735696136
-0.000598575119
-0.000526251449
-0.000568864565
-0.000706445979
-0.000717136905
-0.000605632357
-0.00056478849
-0.000647474419
-0.000735077757
-0.000600084048
-0.000532921973
-0.000575323666
-0.000703394593
-0.000717012686
-0.000606250897
-0.000566585909
-0.000637040228
-0.000732793818
-0.000602825652
-0.000539979026
-0.000584923151
-0.00070130499
-0.000707407091
-0.000604633526
-0.00057010595
-0.000637915971
-0.000733049066
-0.000606190603
-0.000545813824
-0.000542742445
-0.000669539705
-0.000730881356
-0.000594124893
-0.000517521596
-0.000585551644
-0.00069340754
-0.000658676762
-0.000570506007
-0.000597703845
-0.000704888128
-0.000652558531
-0.000580308257
-0.000591505189
-0.000713487333
-0.000643492017
-0.000584541038
-0.00058776564
-0.000715021993
-0.000680402859
-0.000598234384
-0.000563102143
-0.000630776175
-0.000731987019
-0.000612167791
-0.000538381831
-0.000587224783
-0.000683417488
-0.000633003619
-0.000560708242
-0.000583931288
-0.00071357814
-0.000611992716
-0.000568722651
-0.000584045363
-0.00072210974
-0.000600802329
-0.000576767488
-0.000586021661
-0.000724922689
-0.000655846856
-0.000585088935
-0.00054732918
-0.000621696716
-0.000735170211
-0.000644035449
-0.000583328102
-0.00054022214
-0.000612277676
-0.000736743458
-0.000660191018
-0.000593834318
-0.000518649805
-0.000511328473
-0.000665435503
-0.000738280793
-0.000611246104
-0.00054645951
-0.000536752003
-0.000668364084
-0.000739254766
-0.000607073699
-0.000539830244
-0.000529657859
-0.00068405439
-0.000739843606
-0.000600594603
-0.000530493081
-0.000536410625
-0.000703970158
-0.000741412744
-0.00059616815
-0.000527665328
-0.000567547301
-0.000714038951
-0.000741332659
-0.000588620702
-0.000510676667
-0.000586968949
-0.000720423391
-0.000654325654
-0.000564641163
-0.000580579916
-0.000718654176
-0.000743178989
-0.000588158844
-0.000511276644
-0.000585154427
-0.000722675932
-0.000649109201
-0.000562658157
-0.000583296908
-0.000720701697
-0.000743457148
-0.000587818819
-0.000510492813
-0.000584665132
-0.000723979495
-0.000647509193
-0.00056340563
-0.000579036452
-0.000722654049
-0.000743471735
-0.000590382403
-0.000515646755
-0.000589229325
-0.00072204745
-0.000742302321
-0.000587591496
-0.000496171085
-0.000584424865
-0.000726019581
-0.000644292415
-0.000557708161
-0.000583789787
-0.000725682915
-0.000745132117
-0.00059496958
-0.000525521941
-0.000521961434
-0.000640484467
-0.000740925184
-0.000733020364
-0.000587876727
-0.000512228609
-0.000599714773
-0.000726579535
-0.000739964415
-0.000588777087
-0.000482103722
-0.000588730856
-0.000724632758
-0.000640516897
-0.000551637458
-0.000602886713
-0.000726874863
-0.000741962176
-0.000588822047
-0.000489950791
-0.000585617086
-0.000725668436
-0.000621094232
-0.00054559254
-0.00058546289
-0.000729583484
-0.000624134134
-0.000559868445
-0.000586698011
-0.000729696753
-0.000661369142
-0.000578044799
-0.000581247616
-0.000723334873
-0.000744332948
-0.000606836196
-0.000538412968
-0.000490491839
-0.000585920022
-0.000731838437
-0.000614677262
-0.000546377749
-0.000586639226
-0.000726677731
-0.000745549289
-0.00058990303
-0.000512493484
-0.000583960598
-0.000725467895
-0.000745873322
-0.000587113274
-0.000500707245
-0.000582496826
-0.000729820874
-0.000655781987
)
;

boundaryField
{
    closed
    {
        type            calculated;
        value           nonuniform List<scalar> 0();
    }
    open
    {
        type            calculated;
        value           nonuniform List<scalar> 0();
    }
    sides
    {
        type            empty;
    }
    procBoundary3to2
    {
        type            processor;
        value           uniform -0.000725172815;
    }
    procBoundary3to4
    {
        type            processor;
        value           uniform -0.000557155288;
    }
}


// ************************************************************************* //
