/*--------------------------------*- C++ -*----------------------------------*\
| =========                 |                                                 |
| \\      /  F ield         | OpenFOAM: The Open Source CFD Toolbox           |
|  \\    /   O peration     | Version:  2306                                  |
|   \\  /    A nd           | Website:  www.openfoam.com                      |
|    \\/     M anipulation  |                                                 |
\*---------------------------------------------------------------------------*/
FoamFile
{
    version     2.0;
    format      ascii;
    arch        "LSB;label=32;scalar=64";
    class       volScalarField;
    location    "0.00066";
    object      prefDPV_H2O;
}
// * * * * * * * * * * * * * * * * * * * * * * * * * * * * * * * * * * * * * //

dimensions      [1 -1 -1 0 0 0 0];

internalField   nonuniform List<scalar> 
531
(
-3.85821822e-07
-3.66323042e-07
-3.64479285e-07
-3.72195206e-07
-3.85316916e-07
-3.77909397e-07
-3.65738782e-07
-3.66310503e-07
-3.86297826e-07
-3.83917877e-07
-3.77826436e-07
-3.65067027e-07
-3.63732318e-07
-3.68345079e-07
-3.85762695e-07
-3.86582821e-07
-3.65963341e-07
-3.6482104e-07
-3.73450937e-07
-3.8486588e-07
-3.849332e-07
-3.67036165e-07
-3.64901253e-07
-3.71411535e-07
-3.84968495e-07
-3.84592644e-07
-3.69433706e-07
-3.65038832e-07
-3.66377357e-07
-3.86498841e-07
-3.83812894e-07
-3.80710407e-07
-3.65408659e-07
-3.64125778e-07
-3.71426397e-07
-3.85040169e-07
-3.85293216e-07
-3.67145905e-07
-3.64875378e-07
-3.65883256e-07
-3.86374184e-07
-3.83855411e-07
-3.84760242e-07
-3.66109e-07
-3.64596561e-07
-3.72537129e-07
-3.85251293e-07
-3.83884521e-07
-3.65534889e-07
-3.6402201e-07
-3.71373571e-07
-3.85574554e-07
-3.77636118e-07
-3.65235917e-07
-3.65106259e-07
-3.8690071e-07
-3.84329503e-07
-3.70184933e-07
-3.64897423e-07
-3.74261841e-07
-3.85118189e-07
-3.80237985e-07
-3.65489778e-07
-3.65034764e-07
-3.79903398e-07
-3.84560752e-07
-3.8221093e-07
-3.65709e-07
-3.64831317e-07
-3.76518397e-07
-3.84527001e-07
-3.81559691e-07
-3.67140652e-07
-3.65101869e-07
-3.66078732e-07
-3.86427065e-07
-3.83971814e-07
-3.79624451e-07
-3.65015746e-07
-3.64315082e-07
-3.78563856e-07
-3.84886835e-07
-3.78309339e-07
-3.64925098e-07
-3.64456253e-07
-3.77902604e-07
-3.84370416e-07
-3.86092608e-07
-3.69625619e-07
-3.66794618e-07
-3.64836805e-07
-3.64751294e-07
-3.79911758e-07
-3.84562963e-07
-3.8445528e-07
-3.66028882e-07
-3.65107844e-07
-3.81961911e-07
-3.84487684e-07
-3.69629795e-07
-3.65163611e-07
-3.79418243e-07
-3.84606391e-07
-3.68864782e-07
-3.65010226e-07
-3.8373779e-07
-3.84086591e-07
-3.72568741e-07
-3.67097347e-07
-3.71545458e-07
-3.75181912e-07
-3.67165439e-07
-3.6592038e-07
-3.86189504e-07
-3.83902008e-07
-3.71950369e-07
-3.65722595e-07
-3.69855925e-07
-3.85273536e-07
-3.83559407e-07
-3.78731508e-07
-3.67043566e-07
-3.66247536e-07
-3.64929777e-07
-3.64704759e-07
-3.74394582e-07
-3.84659803e-07
-3.8469562e-07
-3.67789938e-07
-3.65315408e-07
-3.73385588e-07
-3.8457299e-07
-3.84412825e-07
-3.70086625e-07
-3.64248347e-07
-3.64771266e-07
-3.85664291e-07
-3.8368107e-07
-3.86723405e-07
-3.69717518e-07
-3.66370132e-07
-3.66255202e-07
-3.65399941e-07
-3.65239522e-07
-3.8620851e-07
-3.83859199e-07
-3.7556552e-07
-3.65824596e-07
-3.67347977e-07
-3.86668565e-07
-3.83393799e-07
-3.8552764e-07
-3.70342036e-07
-3.66451852e-07
-3.66364038e-07
-3.65162955e-07
-3.65041368e-07
-3.86675556e-07
-3.84669887e-07
-3.84592241e-07
-3.85861733e-07
-3.69234576e-07
-3.66633682e-07
-3.66542019e-07
-3.6525421e-07
-3.65123761e-07
-3.86877166e-07
-3.84496757e-07
-3.84520769e-07
-3.84097472e-07
-3.69101701e-07
-3.66775939e-07
-3.66719272e-07
-3.65342834e-07
-3.65121164e-07
-3.86898191e-07
-3.83946925e-07
-3.84162684e-07
-3.76167912e-07
-3.67934508e-07
-3.68349484e-07
-3.69512422e-07
-3.6736354e-07
-3.66248962e-07
-3.73272799e-07
-3.84393654e-07
-3.83942522e-07
-3.72425443e-07
-3.64720178e-07
-3.6490849e-07
-3.86182535e-07
-3.84333585e-07
-3.71140677e-07
-3.64808906e-07
-3.68961392e-07
-3.85725044e-07
-3.79330612e-07
-3.65324085e-07
-3.65887156e-07
-3.85805756e-07
-3.84320732e-07
-3.69947353e-07
-3.64749158e-07
-3.70712398e-07
-3.85541364e-07
-3.77962242e-07
-3.6529482e-07
-3.65943633e-07
-3.85739068e-07
-3.84311399e-07
-3.69492911e-07
-3.64794751e-07
-3.71154436e-07
-3.85375671e-07
-3.78888599e-07
-3.65205862e-07
-3.65607523e-07
-3.8645881e-07
-3.83663738e-07
-3.80771366e-07
-3.68564483e-07
-3.66264898e-07
-3.65111845e-07
-3.6487467e-07
-3.75661913e-07
-3.84312984e-07
-3.84208304e-07
-3.71588677e-07
-3.64984016e-07
-3.65746088e-07
-3.85817953e-07
-3.84132761e-07
-3.73242316e-07
-3.64992839e-07
-3.6583692e-07
-3.85639419e-07
-3.84774762e-07
-3.67357161e-07
-3.65330898e-07
-3.73432206e-07
-3.84549482e-07
-3.83847442e-07
-3.74202753e-07
-3.6679627e-07
-3.65774477e-07
-3.64432925e-07
-3.64520032e-07
-3.80350035e-07
-3.84896985e-07
-3.84440086e-07
-3.84485792e-07
-3.73527148e-07
-3.65939662e-07
-3.64234478e-07
-3.64636468e-07
-3.86443184e-07
-3.85066358e-07
-3.68386831e-07
-3.64745369e-07
-3.71595897e-07
-3.85518895e-07
-3.74592618e-07
-3.65518275e-07
-3.72021426e-07
-3.85451016e-07
-3.75029686e-07
-3.65742798e-07
-3.72007626e-07
-3.85306632e-07
-3.77038504e-07
-3.65633257e-07
-3.67526078e-07
-3.85609543e-07
-3.8561867e-07
-3.66079864e-07
-3.6548535e-07
-3.84366381e-07
-3.84663969e-07
-3.74500739e-07
-3.6508617e-07
-3.65251458e-07
-3.86390812e-07
-3.8521833e-07
-3.67847025e-07
-3.65224557e-07
-3.74390158e-07
-3.85195507e-07
-3.79459968e-07
-3.65280539e-07
-3.65215091e-07
-3.86579688e-07
-3.85167478e-07
-3.68609069e-07
-3.65404042e-07
-3.71679803e-07
-3.86060969e-07
-3.83712929e-07
-3.85143051e-07
-3.69761319e-07
-3.66358728e-07
-3.65705304e-07
-3.64714e-07
-3.65406015e-07
-3.86962062e-07
-3.8445193e-07
-3.74891016e-07
-3.65711085e-07
-3.65836987e-07
-3.86733049e-07
-3.84730716e-07
-3.73153873e-07
-3.6527324e-07
-3.661828e-07
-3.86722033e-07
-3.86054308e-07
-3.66630184e-07
-3.6594716e-07
-3.83085221e-07
-3.8497137e-07
-3.73570464e-07
-3.65089022e-07
-3.65850006e-07
-3.86598804e-07
-3.86604349e-07
-3.66771618e-07
-3.65857763e-07
-3.81900488e-07
-3.8506886e-07
-3.73978091e-07
-3.65177124e-07
-3.65992688e-07
-3.86235581e-07
-3.86935541e-07
-3.66775796e-07
-3.65978455e-07
-3.80838828e-07
-3.85126771e-07
-3.74375997e-07
-3.65308668e-07
-3.66110914e-07
-3.85984252e-07
-3.86901632e-07
-3.6686663e-07
-3.66027909e-07
-3.79742788e-07
-3.85331423e-07
-3.74980939e-07
-3.65462681e-07
-3.66289211e-07
-3.85820581e-07
-3.86340983e-07
-3.66761986e-07
-3.66093933e-07
-3.79836928e-07
-3.85229553e-07
-3.75507609e-07
-3.65553641e-07
-3.65467817e-07
-3.83000031e-07
-3.85484053e-07
-3.73108601e-07
-3.64988565e-07
-3.66228079e-07
-3.85124369e-07
-3.81957268e-07
-3.66075144e-07
-3.66985238e-07
-3.86107774e-07
-3.81360537e-07
-3.66302398e-07
-3.68073005e-07
-3.86840465e-07
-3.80431435e-07
-3.6638042e-07
-3.68555673e-07
-3.86741872e-07
-3.8405988e-07
-3.66626223e-07
-3.65943547e-07
-3.79036835e-07
-3.85345807e-07
-3.76540738e-07
-3.6537648e-07
-3.66302515e-07
-3.84234186e-07
-3.79303534e-07
-3.65862811e-07
-3.68719369e-07
-3.86808738e-07
-3.76757882e-07
-3.66046585e-07
-3.71153856e-07
-3.86580136e-07
-3.75035992e-07
-3.66179505e-07
-3.72230532e-07
-3.85846588e-07
-3.81742302e-07
-3.66300694e-07
-3.65547132e-07
-3.78007853e-07
-3.84944493e-07
-3.80506236e-07
-3.6624989e-07
-3.65374508e-07
-3.76803999e-07
-3.84812616e-07
-3.82266999e-07
-3.67759815e-07
-3.64972002e-07
-3.64807172e-07
-3.82572539e-07
-3.84864639e-07
-3.76231838e-07
-3.65528832e-07
-3.6532129e-07
-3.82854931e-07
-3.8478827e-07
-3.7549231e-07
-3.6539999e-07
-3.6519184e-07
-3.84270409e-07
-3.84783214e-07
-3.7423684e-07
-3.65221444e-07
-3.65325425e-07
-3.85999001e-07
-3.84695391e-07
-3.73209776e-07
-3.65163384e-07
-3.65951224e-07
-3.86903774e-07
-3.84857848e-07
-3.70901157e-07
-3.64786458e-07
-3.68117849e-07
-3.86368229e-07
-3.81543424e-07
-3.65951747e-07
-3.66249745e-07
-3.86633794e-07
-3.84687373e-07
-3.70623685e-07
-3.64779468e-07
-3.68535483e-07
-3.86194767e-07
-3.81016281e-07
-3.65902391e-07
-3.66299479e-07
-3.86472322e-07
-3.84686118e-07
-3.70268142e-07
-3.64762353e-07
-3.68792837e-07
-3.86065182e-07
-3.80853363e-07
-3.6591588e-07
-3.66223462e-07
-3.86385767e-07
-3.84590563e-07
-3.71210599e-07
-3.64907303e-07
-3.66383793e-07
-3.86350809e-07
-3.84855838e-07
-3.69055728e-07
-3.64469602e-07
-3.68784578e-07
-3.86004573e-07
-3.80515726e-07
-3.65767349e-07
-3.66284565e-07
-3.86182923e-07
-3.84399443e-07
-3.72469986e-07
-3.65095014e-07
-3.64939754e-07
-3.80112361e-07
-3.84209727e-07
-3.84943459e-07
-3.68554663e-07
-3.64925338e-07
-3.67084566e-07
-3.85929203e-07
-3.85099128e-07
-3.67820846e-07
-3.64216151e-07
-3.67955605e-07
-3.86147878e-07
-3.80115709e-07
-3.65678987e-07
-3.66698572e-07
-3.85964341e-07
-3.8484244e-07
-3.6840992e-07
-3.64368796e-07
-3.68844043e-07
-3.8603869e-07
-3.77892837e-07
-3.6552549e-07
-3.69385733e-07
-3.8576034e-07
-3.78257573e-07
-3.65807919e-07
-3.69717918e-07
-3.8553029e-07
-3.82253037e-07
-3.66234435e-07
-3.66303271e-07
-3.86204688e-07
-3.84120094e-07
-3.75041767e-07
-3.65172306e-07
-3.6424578e-07
-3.72221961e-07
-3.85517936e-07
-3.76972607e-07
-3.65539692e-07
-3.66344969e-07
-3.86051132e-07
-3.84463651e-07
-3.70717861e-07
-3.64819872e-07
-3.66270695e-07
-3.8617186e-07
-3.8469821e-07
-3.68729005e-07
-3.64514407e-07
-3.70011869e-07
-3.8565918e-07
-3.81677779e-07
)
;

boundaryField
{
    closed
    {
        type            calculated;
        value           nonuniform List<scalar> 0();
    }
    open
    {
        type            calculated;
        value           nonuniform List<scalar> 0();
    }
    sides
    {
        type            empty;
    }
    procBoundary3to2
    {
        type            processor;
        value           uniform -3.85656456e-07;
    }
    procBoundary3to4
    {
        type            processor;
        value           uniform -3.65767166e-07;
    }
}


// ************************************************************************* //
