/*--------------------------------*- C++ -*----------------------------------*\
| =========                 |                                                 |
| \\      /  F ield         | OpenFOAM: The Open Source CFD Toolbox           |
|  \\    /   O peration     | Version:  2306                                  |
|   \\  /    A nd           | Website:  www.openfoam.com                      |
|    \\/     M anipulation  |                                                 |
\*---------------------------------------------------------------------------*/
FoamFile
{
    version     2.0;
    format      ascii;
    arch        "LSB;label=32;scalar=64";
    class       surfaceScalarField;
    location    "0.00136";
    object      phi;
}
// * * * * * * * * * * * * * * * * * * * * * * * * * * * * * * * * * * * * * //

dimensions      [1 0 -1 0 0 0 0];

oriented        oriented;

internalField   nonuniform List<scalar> 
530
(
2.25100929e-05
2.18792551e-05
2.10234173e-05
1.97000882e-05
1.78925948e-05
1.6727274e-05
1.63559399e-05
1.57740762e-05
1.4801366e-05
1.35044272e-05
1.26895376e-05
1.2472369e-05
1.21126065e-05
1.14519707e-05
1.06296464e-05
1.01111718e-05
1.00954375e-05
9.68343035e-06
9.14045139e-06
8.82406589e-06
8.879031e-06
8.59953994e-06
8.18281443e-06
7.99383287e-06
8.09369161e-06
8.04780144e-06
7.78643254e-06
7.38422998e-06
7.24204041e-06
7.39219049e-06
7.4525646e-06
7.30416262e-06
7.01744549e-06
6.93203965e-06
6.8984529e-06
6.80800596e-06
6.73181744e-06
6.68182736e-06
6.95207627e-06
7.0702682e-06
7.04094983e-06
7.07153102e-06
7.01044319e-06
6.81014851e-06
6.81848062e-06
7.11041444e-06
7.28450032e-06
7.25931526e-06
7.04129719e-06
6.99286826e-06
7.01340041e-06
7.26971157e-06
7.45201962e-06
7.37773804e-06
7.08088767e-06
6.99476294e-06
7.21464106e-06
7.12495691e-06
6.86052613e-06
6.75206893e-06
6.90805382e-06
6.88872501e-06
6.74570115e-06
6.64503495e-06
6.46826675e-06
6.14059883e-06
5.97983844e-06
5.877456e-06
5.7131736e-06
5.60387121e-06
5.76019947e-06
5.83487965e-06
5.74104829e-06
5.45152529e-06
5.41835172e-06
5.59169764e-06
5.69091849e-06
5.68475812e-06
5.45745583e-06
5.46591299e-06
5.67452466e-06
5.77052215e-06
5.741251e-06
5.45716144e-06
5.39433626e-06
5.50575369e-06
5.48633734e-06
5.34280731e-06
4.95782111e-06
4.77640736e-06
4.74246233e-06
4.58089177e-06
4.33634165e-06
3.93526003e-06
3.69594527e-06
3.5451981e-06
3.34262681e-06
3.10370337e-06
2.86145237e-06
2.52745631e-06
2.3132161e-06
2.19042107e-06
1.98690405e-06
1.73832956e-06
1.57750174e-06
1.4866646e-06
1.31476434e-06
1.14992426e-06
1.01754017e-06
8.97959448e-07
7.83232261e-07
6.30231405e-07
5.00893604e-07
4.18249809e-07
3.11544558e-07
1.81375559e-07
2.17655953e-08
-1.03290682e-07
-1.83168107e-07
-2.91798917e-07
-4.14776071e-07
-5.49195828e-07
-7.24518784e-07
-8.43756914e-07
-9.52238198e-07
-1.05322271e-06
-1.16397294e-06
-1.31373574e-06
-1.48581788e-06
-1.58071503e-06
-1.69493003e-06
-1.87643129e-06
-2.05528903e-06
-2.14075931e-06
-2.11485656e-06
-2.23843887e-06
-2.46892049e-06
-2.64654928e-06
-2.70942738e-06
-2.65115525e-06
-2.76415939e-06
-2.95679991e-06
-3.18104197e-06
-3.21048415e-06
-3.16138969e-06
-3.25686286e-06
-3.46155412e-06
-3.55891105e-06
-3.59110439e-06
-3.67787863e-06
-3.7892052e-06
-3.9786585e-06
-4.18336175e-06
-4.14744965e-06
-4.07505457e-06
-4.16068761e-06
-4.41071973e-06
-4.5227813e-06
-4.48168699e-06
-4.32788535e-06
-4.38381575e-06
-4.53359113e-06
-4.70604195e-06
-4.61213567e-06
-4.47855487e-06
-4.47635625e-06
-4.60450408e-06
-4.58991403e-06
-4.49527935e-06
-4.47808838e-06
-4.52048959e-06
-4.64995501e-06
-4.61416171e-06
-4.44784839e-06
-4.23430327e-06
-4.19366454e-06
-4.3173806e-06
-4.35602086e-06
-4.19270149e-06
-3.69593969e-06
-3.65058948e-06
-3.72056962e-06
-3.77020116e-06
-3.6155379e-06
-3.44058711e-06
-3.37374705e-06
-3.39458896e-06
-3.33664996e-06
-3.22210311e-06
-3.15316459e-06
-3.11887245e-06
-3.14597853e-06
-3.00509277e-06
-2.83691461e-06
-2.75730876e-06
-2.74324091e-06
-2.68652937e-06
-2.57397645e-06
-2.49778946e-06
-2.4907847e-06
-2.45857938e-06
-2.35465426e-06
-2.11186328e-06
-2.04904203e-06
-2.08901574e-06
-2.07769819e-06
-1.97692218e-06
-1.77200643e-06
-1.72179111e-06
-1.7680505e-06
-1.76705876e-06
-1.68942568e-06
-1.54248696e-06
-1.50520048e-06
-1.53180899e-06
-1.54510768e-06
-1.49614766e-06
-1.4743249e-06
-1.48849373e-06
-1.57583673e-06
-1.53416791e-06
-1.13090184e-06
-1.11162769e-06
-1.17212211e-06
-1.24376786e-06
-1.18657786e-06
-8.99078073e-07
-8.86718781e-07
-9.3539836e-07
-1.03075873e-06
-9.72856375e-07
-6.85162477e-07
-6.61382196e-07
-6.67494307e-07
-6.45749206e-07
-6.61049622e-07
-6.91656644e-07
-6.83287174e-07
-6.62691236e-07
-6.46311344e-07
-6.22615422e-07
-5.85428652e-07
-5.4678871e-07
-5.26284087e-07
-5.16849358e-07
-5.26907259e-07
-5.55930476e-07
-5.34115841e-07
-5.28496991e-07
-5.50157618e-07
-5.74780602e-07
-5.66696209e-07
-5.38455932e-07
-5.57057491e-07
-6.05155291e-07
-6.65746376e-07
-7.04503738e-07
-7.50275113e-07
-7.93815056e-07
-8.70747352e-07
-9.22411029e-07
-9.98089702e-07
-1.11102115e-06
-1.20531556e-06
-1.30738802e-06
-1.40428406e-06
-1.29606656e-06
-1.48283859e-06
-1.68926304e-06
-1.81629319e-06
-1.95209792e-06
-1.89938498e-06
-1.99680944e-06
-2.09799182e-06
-2.17118355e-06
-2.29059309e-06
-2.46313096e-06
-2.5748498e-06
-2.66110645e-06
-2.73505799e-06
-2.57932e-06
-2.60751727e-06
-2.67316464e-06
-2.80656318e-06
-2.86751662e-06
-2.67191462e-06
-2.65663681e-06
-2.68942588e-06
-2.75940532e-06
-2.77082896e-06
-2.4982789e-06
-2.47061932e-06
-2.48296199e-06
-2.46578431e-06
-2.42243422e-06
-1.88556968e-06
-1.87452801e-06
-1.89689988e-06
-1.88889184e-06
-1.67862728e-06
-1.6107395e-06
-1.59194541e-06
-1.60535343e-06
-1.59278702e-06
-1.38848582e-06
-1.34239222e-06
-1.3246473e-06
-1.32313443e-06
-1.24277349e-06
-1.1053456e-06
-1.08763425e-06
-1.102782e-06
-1.08403e-06
-9.25946769e-07
-8.5116213e-07
-8.27047663e-07
-8.2361114e-07
-8.04483146e-07
-6.68349423e-07
-5.90862729e-07
-5.60315925e-07
-5.49963256e-07
-5.2359313e-07
-4.21098061e-07
-3.23149969e-07
-2.86383932e-07
-2.57751353e-07
-2.11080405e-07
-6.00443893e-08
3.17385658e-09
3.63615628e-08
8.65913547e-08
1.45512564e-07
2.15645311e-07
3.60856933e-07
4.25171074e-07
4.92342575e-07
5.47843147e-07
7.18059627e-07
7.94163827e-07
8.57717535e-07
9.20421809e-07
1.01334059e-06
1.09725282e-06
1.1669519e-06
1.2545128e-06
1.35803233e-06
1.44574401e-06
1.51864357e-06
1.61298003e-06
1.66108449e-06
1.75196116e-06
1.85580633e-06
1.96670438e-06
1.98912521e-06
2.05680147e-06
2.14554047e-06
2.24500096e-06
2.3232434e-06
2.49905729e-06
2.58402049e-06
2.66648111e-06
2.73634307e-06
2.75196028e-06
2.83602622e-06
2.91972326e-06
3.03675146e-06
2.98226868e-06
2.99185839e-06
3.04650237e-06
3.09103619e-06
3.12502169e-06
3.05155568e-06
3.09579647e-06
3.12546805e-06
3.20495112e-06
3.08643071e-06
3.03088626e-06
3.04018321e-06
3.19769675e-06
3.17612489e-06
3.02687283e-06
3.02665622e-06
2.99650128e-06
3.02206685e-06
2.85636365e-06
2.75078551e-06
2.71888004e-06
2.8146472e-06
2.73772802e-06
2.55577814e-06
2.51741712e-06
2.43481352e-06
2.41409655e-06
2.24282122e-06
2.1077534e-06
2.04900135e-06
2.0682261e-06
1.97493331e-06
1.81337401e-06
1.75653897e-06
1.74251251e-06
1.64571444e-06
1.49578322e-06
1.43641626e-06
1.41536583e-06
1.31344407e-06
1.18040781e-06
1.12991747e-06
1.04703656e-06
1.01130758e-06
9.25195881e-07
8.3635899e-07
7.88449439e-07
7.39712984e-07
6.73484469e-07
5.9542691e-07
5.53927358e-07
5.0575909e-07
4.47420293e-07
3.87609487e-07
3.67221048e-07
3.21166754e-07
3.12191067e-07
2.97399329e-07
2.69028742e-07
2.46766902e-07
2.13634151e-07
1.77659456e-07
1.59196226e-07
1.46164569e-07
1.22599143e-07
1.22193325e-07
1.19981037e-07
1.20143603e-07
1.16476771e-07
1.03014537e-07
9.88304324e-08
1.19750844e-07
1.17261893e-07
1.4686461e-07
1.47965408e-07
1.49664339e-07
1.669844e-07
1.97990365e-07
2.24386266e-07
2.36193934e-07
1.96743512e-07
1.9404348e-07
2.41636578e-07
2.58118414e-07
2.17010363e-07
2.16617969e-07
2.72764054e-07
2.88871322e-07
2.41385397e-07
2.44033051e-07
2.9448001e-07
3.10151834e-07
3.31074705e-07
3.5233663e-07
3.64137252e-07
4.01506096e-07
4.21672782e-07
4.21893767e-07
4.61924882e-07
4.86713624e-07
5.10281188e-07
5.35170055e-07
5.40892783e-07
5.85720902e-07
6.1343331e-07
6.18052461e-07
6.24145705e-07
6.84834384e-07
7.14960446e-07
7.31495817e-07
7.33144488e-07
7.80454222e-07
8.08445622e-07
8.37392996e-07
8.75556415e-07
8.58251466e-07
8.90408801e-07
9.11747584e-07
9.4924702e-07
1.00486192e-06
9.7619277e-07
1.02439713e-06
1.05498957e-06
1.1170626e-06
1.15332821e-06
1.17735531e-06
1.118714e-06
1.13151492e-06
1.15316841e-06
1.16021852e-06
1.17876554e-06
1.2270881e-06
1.26319299e-06
1.15090469e-06
1.17039599e-06
1.18694381e-06
1.24698155e-06
1.22613427e-06
1.24162442e-06
1.25444249e-06
1.34036431e-06
1.36908e-06
1.37694786e-06
1.39876327e-06
1.41955646e-06
1.55336126e-06
1.59232226e-06
1.5848296e-06
1.61485292e-06
1.64317544e-06
1.81015623e-06
1.85956449e-06
1.84698201e-06
1.8626618e-06
1.87878979e-06
1.90512243e-06
1.94476517e-06
1.95558128e-06
1.96225303e-06
1.98438093e-06
2.04509209e-06
2.09756902e-06
2.12045594e-06
)
;

boundaryField
{
    closed
    {
        type            calculated;
        value           nonuniform List<scalar> 0();
    }
    open
    {
        type            calculated;
        value           nonuniform List<scalar> 0();
    }
    sides
    {
        type            empty;
        value           nonuniform List<scalar> 0();
    }
    procBoundary3to2
    {
        type            processor;
        value           uniform -2.41940864e-05;
    }
    procBoundary3to4
    {
        type            processor;
        value           uniform 2.14001976e-06;
    }
}


// ************************************************************************* //
