/*--------------------------------*- C++ -*----------------------------------*\
| =========                 |                                                 |
| \\      /  F ield         | OpenFOAM: The Open Source CFD Toolbox           |
|  \\    /   O peration     | Version:  2306                                  |
|   \\  /    A nd           | Website:  www.openfoam.com                      |
|    \\/     M anipulation  |                                                 |
\*---------------------------------------------------------------------------*/
FoamFile
{
    version     2.0;
    format      ascii;
    arch        "LSB;label=32;scalar=64";
    class       volScalarField;
    location    "0.00086";
    object      prefDPV_H2O;
}
// * * * * * * * * * * * * * * * * * * * * * * * * * * * * * * * * * * * * * //

dimensions      [1 -1 -1 0 0 0 0];

internalField   nonuniform List<scalar> 
531
(
-3.84212481e-07
-3.86211192e-07
-3.64931953e-07
-3.6491251e-07
-3.72029919e-07
-3.84340056e-07
-3.86373284e-07
-3.64504795e-07
-3.6449429e-07
-3.70679435e-07
-3.8453054e-07
-3.84840831e-07
-3.65878006e-07
-3.68752542e-07
-3.84279962e-07
-3.84175594e-07
-3.65866652e-07
-3.69133292e-07
-3.84283256e-07
-3.86857771e-07
-3.6419408e-07
-3.64285085e-07
-3.70903832e-07
-3.84649397e-07
-3.86916849e-07
-3.64385921e-07
-3.64478087e-07
-3.71649338e-07
-3.83899538e-07
-3.83850791e-07
-3.8486259e-07
-3.83907311e-07
-3.86250095e-07
-3.65850188e-07
-3.65360175e-07
-3.65622529e-07
-3.65570867e-07
-3.65295489e-07
-3.71403883e-07
-3.84340423e-07
-3.86132355e-07
-3.65235007e-07
-3.64905469e-07
-3.71778635e-07
-3.84006148e-07
-3.83850831e-07
-3.79957519e-07
-3.65490132e-07
-3.64792358e-07
-3.70397251e-07
-3.8474031e-07
-3.83243339e-07
-3.66423047e-07
-3.69625524e-07
-3.84541319e-07
-3.86364672e-07
-3.65173766e-07
-3.64363227e-07
-3.64470751e-07
-3.69574791e-07
-3.84877411e-07
-3.83936259e-07
-3.85107559e-07
-3.84079302e-07
-3.82019583e-07
-3.65878298e-07
-3.64910057e-07
-3.64639164e-07
-3.68816621e-07
-3.84907798e-07
-3.85560773e-07
-3.66423858e-07
-3.65075335e-07
-3.69693895e-07
-3.85001699e-07
-3.85123109e-07
-3.67300341e-07
-3.65308365e-07
-3.69497975e-07
-3.85299916e-07
-3.85458151e-07
-3.67061977e-07
-3.65097173e-07
-3.68812361e-07
-3.85699555e-07
-3.85674921e-07
-3.67256711e-07
-3.65136762e-07
-3.6882329e-07
-3.8593037e-07
-3.85682113e-07
-3.6788447e-07
-3.65357355e-07
-3.68973481e-07
-3.86126059e-07
-3.85746567e-07
-3.68350524e-07
-3.65479272e-07
-3.68868011e-07
-3.86388849e-07
-3.85841788e-07
-3.68731272e-07
-3.65580836e-07
-3.68604562e-07
-3.8669794e-07
-3.85962661e-07
-3.69233801e-07
-3.65602672e-07
-3.68051037e-07
-3.86472297e-07
-3.86268788e-07
-3.69047624e-07
-3.65473986e-07
-3.6685298e-07
-3.83295941e-07
-3.84347065e-07
-3.85892589e-07
-3.68988504e-07
-3.65599929e-07
-3.65170282e-07
-3.66599394e-07
-3.84099224e-07
-3.86653986e-07
-3.70793339e-07
-3.65542873e-07
-3.66473852e-07
-3.83615279e-07
-3.86843572e-07
-3.7103999e-07
-3.68489521e-07
-3.81152011e-07
-3.86826242e-07
-3.71027944e-07
-3.65570073e-07
-3.66659315e-07
-3.83821788e-07
-3.86562273e-07
-3.70943612e-07
-3.65535251e-07
-3.66505093e-07
-3.83944314e-07
-3.86929821e-07
-3.70505506e-07
-3.68370988e-07
-3.82222572e-07
-3.86921354e-07
-3.70091656e-07
-3.6558346e-07
-3.6759346e-07
-3.85947742e-07
-3.86303655e-07
-3.69858998e-07
-3.65828499e-07
-3.68252226e-07
-3.86923044e-07
-3.86380813e-07
-3.68958194e-07
-3.65737549e-07
-3.68786657e-07
-3.86389559e-07
-3.86385153e-07
-3.68429731e-07
-3.6580966e-07
-3.69588966e-07
-3.86133275e-07
-3.86428115e-07
-3.67626254e-07
-3.65418451e-07
-3.65420182e-07
-3.7003564e-07
-3.85969003e-07
-3.8523434e-07
-3.68095682e-07
-3.69861966e-07
-3.85521609e-07
-3.86902348e-07
-3.66048007e-07
-3.65309152e-07
-3.71334747e-07
-3.85155486e-07
-3.86646783e-07
-3.65812575e-07
-3.65211499e-07
-3.71909534e-07
-3.84845461e-07
-3.86884644e-07
-3.65025532e-07
-3.64868072e-07
-3.72551469e-07
-3.84643848e-07
-3.80068228e-07
-3.66410817e-07
-3.72490065e-07
-3.84825971e-07
-3.79270215e-07
-3.65147441e-07
-3.65343335e-07
-3.77563258e-07
-3.85300343e-07
-3.76522148e-07
-3.6556676e-07
-3.65732754e-07
-3.79903046e-07
-3.85783381e-07
-3.74073268e-07
-3.65451914e-07
-3.65723382e-07
-3.80356881e-07
-3.86353207e-07
-3.72316128e-07
-3.68058431e-07
-3.79005203e-07
-3.86717751e-07
-3.72068092e-07
-3.65746826e-07
-3.66325904e-07
-3.83168479e-07
-3.86733964e-07
-3.72192459e-07
-3.6605266e-07
-3.66551271e-07
-3.83040236e-07
-3.86075431e-07
-3.70890488e-07
-3.66817969e-07
-3.74015515e-07
-3.85552116e-07
-3.76279054e-07
-3.67798198e-07
-3.69001079e-07
-3.74257281e-07
-3.74291552e-07
-3.70789612e-07
-3.70771213e-07
-3.74254387e-07
-3.74204804e-07
-3.68398749e-07
-3.68164794e-07
-3.80695168e-07
-3.86554354e-07
-3.70883649e-07
-3.67137447e-07
-3.77500005e-07
-3.87049022e-07
-3.72430055e-07
-3.65333629e-07
-3.66019828e-07
-3.79360225e-07
-3.86735998e-07
-3.71391056e-07
-3.6655773e-07
-3.74863117e-07
-3.86958028e-07
-3.72725422e-07
-3.66512577e-07
-3.74474559e-07
-3.86533801e-07
-3.74114009e-07
-3.66689935e-07
-3.73741071e-07
-3.85789124e-07
-3.78557787e-07
-3.64821449e-07
-3.650591e-07
-3.73129271e-07
-3.85723011e-07
-3.78700479e-07
-3.67037226e-07
-3.71814323e-07
-3.85606266e-07
-3.83294889e-07
-3.65394357e-07
-3.64924884e-07
-3.69985674e-07
-3.85492229e-07
-3.82584498e-07
-3.67574985e-07
-3.69500649e-07
-3.86155858e-07
-3.861811e-07
-3.67139394e-07
-3.65055757e-07
-3.6729057e-07
-3.85548664e-07
-3.86294248e-07
-3.68719378e-07
-3.65046751e-07
-3.65794591e-07
-3.8577567e-07
-3.85691965e-07
-3.69290745e-07
-3.67178793e-07
-3.8303135e-07
-3.8560015e-07
-3.71425379e-07
-3.65147594e-07
-3.65408949e-07
-3.86902293e-07
-3.85220383e-07
-3.71964578e-07
-3.65156542e-07
-3.65156103e-07
-3.83495351e-07
-3.84957352e-07
-3.71721017e-07
-3.66894191e-07
-3.78713833e-07
-3.8521174e-07
-3.74158127e-07
-3.65194682e-07
-3.65109825e-07
-3.8287368e-07
-3.8495848e-07
-3.74007059e-07
-3.65162012e-07
-3.64965587e-07
-3.81155233e-07
-3.84675889e-07
-3.72673862e-07
-3.66777898e-07
-3.77976512e-07
-3.84898596e-07
-3.75459073e-07
-3.65208924e-07
-3.65096683e-07
-3.82108014e-07
-3.84690072e-07
-3.75705832e-07
-3.6544044e-07
-3.65312167e-07
-3.81765905e-07
-3.84662232e-07
-3.75485067e-07
-3.6529674e-07
-3.64939367e-07
-3.78659174e-07
-3.84533394e-07
-3.74168312e-07
-3.66619382e-07
-3.75431547e-07
-3.8431953e-07
-3.79466954e-07
-3.67510425e-07
-3.6747653e-07
-3.68272656e-07
-3.6709933e-07
-3.67054719e-07
-3.82532303e-07
-3.84215616e-07
-3.76483452e-07
-3.65659007e-07
-3.6500297e-07
-3.74634986e-07
-3.84828194e-07
-3.76550526e-07
-3.66232308e-07
-3.7269128e-07
-3.84908635e-07
-3.76274794e-07
-3.66410282e-07
-3.73740226e-07
-3.85330459e-07
-3.75424697e-07
-3.65234559e-07
-3.64834858e-07
-3.7451407e-07
-3.85110665e-07
-3.75777495e-07
-3.66902623e-07
-3.74685902e-07
-3.85490039e-07
-3.75232639e-07
-3.65419205e-07
-3.65076995e-07
-3.75514698e-07
-3.85338279e-07
-3.74686388e-07
-3.67158169e-07
-3.75952351e-07
-3.85984525e-07
-3.74237069e-07
-3.6541041e-07
-3.6518779e-07
-3.76648614e-07
-3.8586043e-07
-3.73502369e-07
-3.675805e-07
-3.77003071e-07
-3.86585572e-07
-3.72906352e-07
-3.65330843e-07
-3.65165834e-07
-3.76856586e-07
-3.866434e-07
-3.72674977e-07
-3.6700919e-07
-3.75345486e-07
-3.85324924e-07
-3.7245828e-07
-3.67031828e-07
-3.75538547e-07
-3.85830708e-07
-3.72637478e-07
-3.67522847e-07
-3.7649952e-07
-3.84957421e-07
-3.7247701e-07
-3.6521839e-07
-3.6503531e-07
-3.77599375e-07
-3.86335808e-07
-3.72595884e-07
-3.66985753e-07
-3.76594235e-07
-3.86190642e-07
-3.72835041e-07
-3.67149278e-07
-3.77255576e-07
-3.86247411e-07
-3.73345059e-07
-3.65201585e-07
-3.65033824e-07
-3.7891142e-07
-3.85838989e-07
-3.7331801e-07
-3.67784157e-07
-3.77870013e-07
-3.85633587e-07
-3.74892126e-07
-3.65934709e-07
-3.65816904e-07
-3.80615082e-07
-3.85074322e-07
-3.76856038e-07
-3.6673238e-07
-3.65636416e-07
-3.65862365e-07
-3.8171626e-07
-3.85590243e-07
-3.73735806e-07
-3.65409041e-07
-3.65167637e-07
-3.78509e-07
-3.86389592e-07
-3.71937958e-07
-3.66886263e-07
-3.77221053e-07
-3.87025084e-07
-3.71230272e-07
-3.66853427e-07
-3.7790827e-07
-3.86733232e-07
-3.7090117e-07
-3.67278436e-07
-3.79176404e-07
-3.86198747e-07
-3.70446165e-07
-3.64860071e-07
-3.65084061e-07
-3.80974825e-07
-3.85569335e-07
-3.69830912e-07
-3.67141406e-07
-3.80075356e-07
-3.8559787e-07
-3.69098965e-07
-3.66841081e-07
-3.8033747e-07
-3.85182269e-07
-3.68890956e-07
-3.67020997e-07
-3.81257678e-07
-3.85286722e-07
-3.69155338e-07
-3.67870618e-07
-3.83158025e-07
-3.86043766e-07
-3.69214765e-07
-3.65365461e-07
-3.66739042e-07
-3.84595996e-07
-3.86648026e-07
-3.69851877e-07
-3.65718429e-07
-3.67359923e-07
-3.85192183e-07
-3.86465306e-07
-3.68873837e-07
-3.65492761e-07
-3.6751562e-07
-3.83764751e-07
-3.85006712e-07
-3.84673365e-07
-3.85266854e-07
-3.68471865e-07
-3.65228798e-07
-3.64937795e-07
-3.67498048e-07
-3.8526632e-07
-3.85326621e-07
-3.67551314e-07
-3.65357481e-07
-3.68361489e-07
-3.85679817e-07
-3.85784242e-07
-3.68054927e-07
-3.65824461e-07
-3.69652078e-07
-3.86253789e-07
-3.85678782e-07
-3.67865458e-07
-3.65981767e-07
-3.70620646e-07
-3.86559664e-07
-3.84033313e-07
-3.67336363e-07
-3.65850499e-07
-3.71491277e-07
-3.86797531e-07
-3.81991062e-07
-3.66573301e-07
-3.65590432e-07
-3.72343203e-07
-3.86804574e-07
-3.79197076e-07
-3.65721482e-07
-3.64973588e-07
-3.73249356e-07
-3.86473672e-07
-3.84534195e-07
-3.84767942e-07
)
;

boundaryField
{
    closed
    {
        type            calculated;
        value           nonuniform List<scalar> 0();
    }
    open
    {
        type            calculated;
        value           nonuniform List<scalar> 0();
    }
    sides
    {
        type            empty;
    }
    procBoundary3to2
    {
        type            processor;
        value           uniform -3.72650191e-07;
    }
    procBoundary3to4
    {
        type            processor;
        value           uniform -3.74909781e-07;
    }
}


// ************************************************************************* //
