/*--------------------------------*- C++ -*----------------------------------*\
| =========                 |                                                 |
| \\      /  F ield         | OpenFOAM: The Open Source CFD Toolbox           |
|  \\    /   O peration     | Version:  2306                                  |
|   \\  /    A nd           | Website:  www.openfoam.com                      |
|    \\/     M anipulation  |                                                 |
\*---------------------------------------------------------------------------*/
FoamFile
{
    version     2.0;
    format      ascii;
    arch        "LSB;label=32;scalar=64";
    class       volScalarField;
    location    "0.0003";
    object      PV;
}
// * * * * * * * * * * * * * * * * * * * * * * * * * * * * * * * * * * * * * //

dimensions      [0 0 0 0 0 0 0];

internalField   nonuniform List<scalar> 
530
(
0.00760452398
0.00760107753
0.00759832727
0.00759468877
0.00759179276
0.00758798093
0.00758495215
0.007580952
0.00757776589
0.00757361822
0.007570321
0.00756604166
0.00756261265
0.00755813201
0.00755457564
0.00754999238
0.00754636318
0.00754169103
0.00753799979
0.00753325195
0.00752950962
0.00752469873
0.00752090264
0.00751600675
0.00751215779
0.00750721775
0.00750334309
0.00749836818
0.00749447339
0.00748946632
0.00748556323
0.00748054407
0.00747664857
0.00747162549
0.00746774593
0.00746272655
0.00745887123
0.00745386258
0.00745003977
0.00744504836
0.00744126628
0.00743629805
0.00743255354
0.00742758692
0.00742388559
0.00741894985
0.00741531016
0.00741040781
0.00740683699
0.00740196999
0.00739847519
0.00739364507
0.00739023068
0.00738542321
0.00738208641
0.00737730837
0.00737406092
0.00736931462
0.00736616265
0.00736145098
0.00735839972
0.00735372544
0.00735077941
0.00734613988
0.00734330527
0.00733868094
0.00733597141
0.0073316376
0.00732898338
0.00732457313
0.00732187376
0.00731766476
0.00731496135
0.00731092722
0.00730822805
0.00730435948
0.00730167014
0.00729796273
0.0072952892
0.00729173858
0.00728908705
0.00728568819
0.00728306478
0.00727981233
0.007277223
0.00727411152
0.00727156199
0.00726858612
0.00726608178
0.00726323629
0.0072607821
0.00725806205
0.00725566245
0.00725306321
0.00725072215
0.00724823944
0.00724596033
0.00724359022
0.00724137599
0.00723911488
0.00723696805
0.00723481257
0.00723273532
0.00723068239
0.00722866586
0.00722669477
0.00722474168
0.00722286515
0.0072209822
0.0072191966
0.00721738384
0.00721568574
0.00721394297
0.00721232911
0.00721065588
0.00720912315
0.00720752634
0.00720609378
0.00720457953
0.0072032215
0.00720177176
0.00720048535
0.00719908685
0.00719785754
0.00719651834
0.00719535521
0.00719407767
0.00719297827
0.00719176126
0.00719072321
0.00718956554
0.00718858654
0.007187487
0.0071865648
0.00718552218
0.00718465457
0.00718366766
0.0071828525
0.0071819201
0.00718115531
0.00718027619
0.0071795598
0.00717873275
0.00717806283
0.00717728665
0.00717666136
0.00717593488
0.00717535241
0.00717467453
0.00717413312
0.00717350287
0.00717300069
0.00717241722
0.00717195244
0.00717141493
0.00717099415
0.0071705224
0.00717014507
0.00716971543
0.00716936986
0.00716898057
0.00716866455
0.00716831363
0.00716802526
0.0071677106
0.00716744819
0.0071671676
0.00716692962
0.00716668096
0.00716646594
0.00716624709
0.00716605367
0.00716586257
0.00716568943
0.00716552408
0.00716536999
0.00716522842
0.00716509221
0.00716497254
0.00716485311
0.00716475348
0.0071646498
0.00716456844
0.00716447952
0.00716441474
0.00716433966
0.00716428982
0.00716422777
0.00716419125
0.00716414156
0.0071641167
0.00716407876
0.00716406397
0.00716403681
0.00716403085
0.00716401286
0.00716401524
0.00716401129
0.00716401892
0.00716402099
0.00716403163
0.0071640433
0.00716405798
0.00716407709
0.0071640961
0.00716412105
0.0071641443
0.00716417391
0.00716420119
0.00716423451
0.00716426548
0.00716430171
0.00716433599
0.00716437449
0.00716441162
0.00716445186
0.00716449138
0.00716453292
0.00716457436
0.00716461684
0.00716465973
0.00716470284
0.00716474678
0.00716479024
0.00716483482
0.00716487839
0.00716492328
0.00716496674
0.00716501162
0.00716505478
0.00716509938
0.00716514207
0.00716518615
0.0071652282
0.00716527156
0.00716531285
0.00716535531
0.00716539571
0.00716543714
0.00716547654
0.00716551681
0.00716555512
0.00716559415
0.00716563129
0.00716566899
0.00716570491
0.00716574123
0.00716577587
0.00716581077
0.00716584409
0.00716587754
0.00716590952
0.00716594151
0.00716597212
0.00716600266
0.0071660319
0.00716606098
0.00716608886
0.0071661165
0.00716614301
0.00716616924
0.00716619441
0.00716621924
0.0071662431
0.00716626658
0.00716628914
0.00716631129
0.0071663326
0.00716635347
0.00716637355
0.00716639319
0.00716641208
0.00716643053
0.00716644827
0.00716646557
0.00716648222
0.00716649842
0.00716651401
0.00716652916
0.00716654374
0.00716655788
0.0071665715
0.00716658469
0.00716659738
0.00716660968
0.00716662149
0.00716663293
0.00716664392
0.00716665454
0.00716666475
0.0071666746
0.00716668407
0.00716669321
0.00716670198
0.00716671044
0.00716671856
0.00716672637
0.00716673388
0.0071667411
0.00716674803
0.00716675469
0.00716676109
0.00716676723
0.00716677312
0.00716677877
0.0071667842
0.0071667894
0.00716679439
0.00716679917
0.00716680375
0.00716680815
0.00716681235
0.00716681639
0.00716682024
0.00716682394
0.00716682748
0.00716683087
0.00716683411
0.00716683722
0.00716684018
0.00716684303
0.00716684574
0.00716684834
0.00716685082
0.00716685321
0.00716685548
0.00716685765
0.00716685974
0.00716686171
0.00716686365
0.00716686541
0.00716686725
0.00716686879
0.00716687052
0.00716687364
0.00716687684
0.00716687953
0.00716688206
0.00716688429
0.0071668863
0.0071668881
0.00716688971
0.00716689115
0.00716689244
0.00716689359
0.00716689461
0.00716689553
0.00716689634
0.00716689706
0.00716689771
0.00716689828
0.00716689878
0.00716689923
0.00716689962
0.00716689997
0.00716690028
0.00716690055
0.00716690079
0.007166901
0.00716690119
0.00716690135
0.00716690149
0.00716690161
0.00716690172
0.00716690181
0.00716690189
0.00716690196
0.00716690202
0.00716690207
0.00716690211
0.00716690215
0.00716690218
0.00716690221
0.00716690223
0.00716690225
0.00716690227
0.00716690228
0.00716690229
0.0071669023
0.0071669023
0.00716690231
0.00716690231
0.00716690232
0.00716690232
0.00716690232
0.00716690232
0.00716690232
0.00716690232
0.00716690232
0.00716690232
0.00716690232
0.00716690232
0.00716690232
0.00716690232
0.00716690232
0.00716690231
0.00716690231
0.00716690231
0.00716690231
0.00716690231
0.00716690231
0.00716690231
0.00716690231
0.00716690231
0.0071669023
0.0071669023
0.0071669023
0.0071669023
0.0071669023
0.0071669023
0.0071669023
0.0071669023
0.0071669023
0.0071669023
0.0071669023
0.0071669023
0.0071669023
0.0071669023
0.0071669023
0.0071669023
0.00716690229
0.00716690229
0.00716690229
0.00716690229
0.00716690229
0.00716690229
0.00716690229
0.00716690229
0.00716690229
0.00716690229
0.00716690229
0.00716690229
0.00716690229
0.00716690229
0.00716690229
0.00716690229
0.00716690229
0.00716690229
0.00716690229
0.00716690229
0.00716690229
0.00716690229
0.00716690229
0.00716690229
0.00716690229
0.00716690229
0.00716690229
0.00716690229
0.00716690229
0.00716690229
0.00716690229
0.00716690229
0.00716690229
0.00716690229
0.00716690229
0.00716690229
0.00716690229
0.00716690229
0.00716690229
0.00716690229
0.00716690229
0.00716690229
0.00716690229
0.00716690229
0.00716690229
0.00716690229
0.00716690229
0.00716690229
0.00716690229
0.00716690229
0.00716690229
0.00716690229
0.00716690229
0.00716690229
0.00716690229
0.00716690229
0.00716690229
0.00716690229
0.00716690229
0.00716690229
0.00716690229
0.00716690229
0.00716690229
0.00716690229
0.00716690229
0.00716690229
0.00716690229
0.00716690229
0.00716690229
0.00716690229
0.00716690229
0.00716690229
0.00716690229
0.00716690229
0.00716690229
0.00716690229
0.00716690229
0.00716690229
0.00716690229
0.00716690229
0.00716690229
0.00716690229
0.00716690229
0.00716690229
0.00716690229
0.00716690229
0.00716690229
0.00716690229
0.00716690229
0.00716690229
0.00716690229
0.00716690229
0.00716690229
0.00716690229
0.00716690229
0.00716690229
0.00716690229
0.00716690229
0.00716690229
0.00716690229
0.00716690229
0.00716690229
0.00716690229
0.00716690229
0.00716690229
0.00716690229
0.00716690229
0.00716690229
0.00716690229
0.00716690229
)
;

boundaryField
{
    closed
    {
        type            zeroGradient;
    }
    open
    {
        type            zeroGradient;
    }
    sides
    {
        type            empty;
    }
    procBoundary5to4
    {
        type            processor;
        value           uniform 0.00760711627;
    }
}


// ************************************************************************* //
