/*--------------------------------*- C++ -*----------------------------------*\
| =========                 |                                                 |
| \\      /  F ield         | OpenFOAM: The Open Source CFD Toolbox           |
|  \\    /   O peration     | Version:  2306                                  |
|   \\  /    A nd           | Website:  www.openfoam.com                      |
|    \\/     M anipulation  |                                                 |
\*---------------------------------------------------------------------------*/
FoamFile
{
    version     2.0;
    format      ascii;
    arch        "LSB;label=32;scalar=64";
    class       volScalarField;
    location    "0.00022";
    object      alpha;
}
// * * * * * * * * * * * * * * * * * * * * * * * * * * * * * * * * * * * * * //

dimensions      [1 -1 -1 0 0 0 0];

internalField   nonuniform List<scalar> 
530
(
3.59901733e-05
3.5860291e-05
3.58338978e-05
3.58338972e-05
3.5833887e-05
3.5833887e-05
3.5833887e-05
3.5833887e-05
3.5833887e-05
3.5833887e-05
3.5833887e-05
3.5833887e-05
3.5833887e-05
3.5833887e-05
3.5833887e-05
3.5833887e-05
3.5833887e-05
3.5833887e-05
3.5833887e-05
3.5833887e-05
3.5833887e-05
3.5833887e-05
3.5833887e-05
3.5833887e-05
3.5833887e-05
3.5833887e-05
3.5833887e-05
3.5833887e-05
3.5833887e-05
3.5833887e-05
3.5833887e-05
3.5833887e-05
3.5833887e-05
3.5833887e-05
3.5833887e-05
3.5833887e-05
3.5833887e-05
3.5833887e-05
3.5833887e-05
3.5833887e-05
3.5833887e-05
3.5833887e-05
3.5833887e-05
3.5833887e-05
3.5833887e-05
3.5833887e-05
3.5833887e-05
3.5833887e-05
3.5833887e-05
3.5833887e-05
3.5833887e-05
3.5833887e-05
3.5833887e-05
3.5833887e-05
3.5833887e-05
3.5833887e-05
3.5833887e-05
3.5833887e-05
3.5833887e-05
3.5833887e-05
3.5833887e-05
3.5833887e-05
3.5833887e-05
3.5833887e-05
3.5833887e-05
3.5833887e-05
3.5833887e-05
3.5833887e-05
3.5833887e-05
3.5833887e-05
3.5833887e-05
3.5833887e-05
3.5833887e-05
3.5833887e-05
3.5833887e-05
3.5833887e-05
3.5833887e-05
3.5833887e-05
3.5833887e-05
3.5833887e-05
3.5833887e-05
3.5833887e-05
3.5833887e-05
3.5833887e-05
3.5833887e-05
3.5833887e-05
3.5833887e-05
3.5833887e-05
3.5833887e-05
3.5833887e-05
3.5833887e-05
3.5833887e-05
3.5833887e-05
3.5833887e-05
3.5833887e-05
3.5833887e-05
3.5833887e-05
3.5833887e-05
3.5833887e-05
3.58338871e-05
3.58338871e-05
3.58338869e-05
3.58338866e-05
3.58338872e-05
3.58338876e-05
3.5833887e-05
3.58338863e-05
3.58338868e-05
3.58338875e-05
3.58338872e-05
3.58338866e-05
3.58338868e-05
3.58338873e-05
3.58338871e-05
3.58338866e-05
3.58338868e-05
3.58338876e-05
3.58338875e-05
3.58338861e-05
3.58338861e-05
3.5833888e-05
3.58338884e-05
3.58338864e-05
3.58338853e-05
3.58338871e-05
3.58338887e-05
3.58338875e-05
3.58338856e-05
3.58338864e-05
3.5833888e-05
3.58338873e-05
3.5833886e-05
3.58338871e-05
3.58338888e-05
3.5833887e-05
3.58338837e-05
3.58338858e-05
3.58338917e-05
3.58338908e-05
3.58338812e-05
3.58338811e-05
3.58338916e-05
3.58338944e-05
3.58338849e-05
3.58338792e-05
3.58338862e-05
3.58338942e-05
3.58338901e-05
3.58338811e-05
3.58338827e-05
3.58338914e-05
3.58338912e-05
3.58338843e-05
3.58338836e-05
3.58338884e-05
3.58338896e-05
3.58338865e-05
3.58338851e-05
3.5833887e-05
3.58338883e-05
3.58338872e-05
3.58338862e-05
3.58338868e-05
3.58338874e-05
3.58338869e-05
3.58338865e-05
3.58338876e-05
3.5833888e-05
3.58338861e-05
3.5833885e-05
3.58338876e-05
3.583389e-05
3.58338874e-05
3.58338833e-05
3.58338851e-05
3.58338909e-05
3.58338904e-05
3.58338835e-05
3.58338832e-05
3.58338893e-05
3.58338907e-05
3.5833886e-05
3.58338835e-05
3.5833887e-05
3.58338901e-05
3.58338878e-05
3.58338841e-05
3.58338853e-05
3.58338898e-05
3.58338895e-05
3.58338845e-05
3.5833884e-05
3.58338887e-05
3.58338904e-05
3.58338864e-05
3.58338835e-05
3.58338865e-05
3.58338902e-05
3.58338883e-05
3.58338844e-05
3.58338855e-05
3.58338888e-05
3.58338883e-05
3.58338857e-05
3.58338861e-05
3.5833888e-05
3.58338877e-05
3.5833886e-05
3.58338863e-05
3.58338882e-05
3.5833888e-05
3.58338857e-05
3.58338857e-05
3.58338881e-05
3.58338885e-05
3.58338863e-05
3.58338853e-05
3.58338871e-05
3.58338888e-05
3.58338876e-05
3.58338853e-05
3.58338858e-05
3.58338884e-05
3.58338884e-05
3.58338861e-05
3.58338857e-05
3.58338875e-05
3.58338881e-05
3.58338867e-05
3.58338859e-05
3.58338873e-05
3.58338883e-05
3.58338867e-05
3.58338852e-05
3.58338869e-05
3.58338895e-05
3.58338879e-05
3.58338839e-05
3.58338847e-05
3.58338904e-05
3.58338903e-05
3.58338842e-05
3.58338831e-05
3.58338887e-05
3.58338911e-05
3.58338865e-05
3.58338831e-05
3.58338863e-05
3.58338904e-05
3.58338885e-05
3.58338844e-05
3.58338852e-05
3.58338888e-05
3.58338886e-05
3.58338859e-05
3.58338859e-05
3.58338874e-05
3.58338876e-05
3.58338869e-05
3.58338868e-05
3.5833887e-05
3.5833887e-05
3.58338867e-05
3.58338872e-05
3.58338877e-05
3.58338868e-05
3.58338857e-05
3.58338868e-05
3.58338892e-05
3.58338883e-05
3.58338839e-05
3.58338841e-05
3.58338906e-05
3.58338917e-05
3.58338841e-05
3.58338804e-05
3.58338879e-05
3.58338953e-05
3.58338895e-05
3.58338776e-05
3.583388e-05
3.58338968e-05
3.58338967e-05
3.583388e-05
3.58338756e-05
3.58338898e-05
3.58338991e-05
3.5833889e-05
3.58338753e-05
3.58338806e-05
3.58338972e-05
3.5833896e-05
3.58338795e-05
3.58338782e-05
3.58338907e-05
3.58338947e-05
3.58338861e-05
3.58338808e-05
3.5833886e-05
3.58338917e-05
3.58338889e-05
3.58338836e-05
3.58338848e-05
3.58338893e-05
3.58338891e-05
3.58338856e-05
3.58338854e-05
3.58338876e-05
3.58338881e-05
3.5833887e-05
3.58338862e-05
3.58338866e-05
3.58338875e-05
3.58338874e-05
3.58338869e-05
3.58338867e-05
3.58338868e-05
3.58338871e-05
3.58338873e-05
3.58338871e-05
3.58338867e-05
3.58338867e-05
3.58338871e-05
3.58338872e-05
3.58338871e-05
3.58338868e-05
3.58338868e-05
3.5833887e-05
3.58338871e-05
3.58338871e-05
3.5833887e-05
3.58338868e-05
3.58338869e-05
3.58338872e-05
3.58338872e-05
3.58338869e-05
3.58338866e-05
3.5833887e-05
3.58338876e-05
3.58338874e-05
3.58338861e-05
3.58338861e-05
3.5833888e-05
3.58338885e-05
3.58338864e-05
3.58338847e-05
3.58338866e-05
3.583389e-05
3.58338891e-05
3.58338836e-05
3.58338836e-05
3.58338895e-05
3.58338911e-05
3.58338862e-05
3.58338827e-05
3.58338858e-05
3.58338908e-05
3.58338899e-05
3.58338843e-05
3.5833884e-05
3.58338878e-05
3.58338895e-05
3.58338878e-05
3.58338853e-05
3.58338856e-05
3.58338878e-05
3.58338881e-05
3.5833887e-05
3.58338863e-05
3.58338867e-05
3.58338873e-05
3.58338873e-05
3.5833887e-05
3.58338869e-05
3.58338869e-05
3.58338869e-05
3.58338871e-05
3.58338872e-05
3.5833887e-05
3.58338868e-05
3.5833887e-05
3.58338871e-05
3.58338871e-05
3.58338869e-05
3.58338869e-05
3.5833887e-05
3.5833887e-05
3.5833887e-05
3.58338872e-05
3.58338871e-05
3.58338865e-05
3.58338866e-05
3.58338877e-05
3.58338879e-05
3.58338864e-05
3.58338856e-05
3.58338871e-05
3.58338889e-05
3.58338878e-05
3.58338849e-05
3.58338852e-05
3.5833889e-05
3.58338892e-05
3.58338858e-05
3.58338846e-05
3.58338873e-05
3.58338893e-05
3.58338875e-05
3.58338849e-05
3.58338858e-05
3.58338888e-05
3.58338886e-05
3.58338857e-05
3.58338854e-05
3.58338875e-05
3.58338886e-05
3.58338873e-05
3.58338856e-05
3.58338861e-05
3.58338882e-05
3.58338881e-05
3.58338863e-05
3.5833886e-05
3.58338872e-05
3.58338878e-05
3.58338871e-05
3.58338864e-05
3.58338868e-05
3.58338873e-05
3.58338872e-05
3.58338869e-05
3.5833887e-05
3.58338871e-05
3.58338869e-05
3.58338867e-05
3.5833887e-05
3.58338876e-05
3.58338873e-05
3.58338861e-05
3.58338862e-05
3.58338878e-05
3.58338883e-05
3.58338867e-05
3.58338853e-05
3.58338862e-05
3.58338888e-05
3.58338886e-05
3.58338858e-05
3.58338849e-05
3.58338871e-05
3.58338891e-05
3.58338879e-05
3.58338852e-05
3.58338855e-05
3.58338882e-05
3.58338884e-05
3.58338866e-05
3.58338859e-05
3.58338869e-05
3.58338877e-05
3.58338873e-05
3.58338865e-05
3.58338867e-05
3.58338872e-05
3.58338872e-05
3.58338869e-05
3.58338869e-05
3.5833887e-05
3.58338871e-05
3.5833887e-05
3.5833887e-05
3.5833887e-05
3.5833887e-05
3.5833887e-05
3.5833887e-05
3.5833887e-05
3.5833887e-05
3.5833887e-05
3.5833887e-05
3.5833887e-05
3.5833887e-05
3.5833887e-05
3.5833887e-05
3.5833887e-05
3.5833887e-05
3.5833887e-05
3.5833887e-05
3.5833887e-05
3.5833887e-05
3.5833887e-05
3.5833887e-05
3.5833887e-05
3.58338871e-05
3.58338871e-05
3.58338869e-05
3.58338864e-05
3.58338867e-05
3.58338894e-05
3.58338898e-05
3.58338804e-05
3.58338735e-05
3.58338973e-05
3.58339371e-05
3.58339078e-05
3.58337344e-05
3.58337401e-05
3.58341994e-05
3.58344087e-05
3.583354e-05
3.58325083e-05
3.58334784e-05
3.58367982e-05
3.58364504e-05
3.5829718e-05
3.58279585e-05
3.58369761e-05
3.58444452e-05
3.58358983e-05
3.58206714e-05
3.58237139e-05
3.5848629e-05
3.5849344e-05
3.58257476e-05
3.58186697e-05
3.58349817e-05
3.58477273e-05
3.58378857e-05
3.58245922e-05
3.58281946e-05
3.583965e-05
)
;

boundaryField
{
    closed
    {
        type            calculated;
        value           uniform 5.11898345e-05;
    }
    open
    {
        type            calculated;
        value           nonuniform List<scalar> 0();
    }
    sides
    {
        type            empty;
    }
    procBoundary0to1
    {
        type            processor;
        value           uniform 3.58389619e-05;
    }
}


// ************************************************************************* //
