/*--------------------------------*- C++ -*----------------------------------*\
| =========                 |                                                 |
| \\      /  F ield         | OpenFOAM: The Open Source CFD Toolbox           |
|  \\    /   O peration     | Version:  2306                                  |
|   \\  /    A nd           | Website:  www.openfoam.com                      |
|    \\/     M anipulation  |                                                 |
\*---------------------------------------------------------------------------*/
FoamFile
{
    version     2.0;
    format      ascii;
    arch        "LSB;label=32;scalar=64";
    class       volScalarField;
    location    "0.00022";
    object      prefDPV_H2;
}
// * * * * * * * * * * * * * * * * * * * * * * * * * * * * * * * * * * * * * //

dimensions      [1 -1 -1 0 0 0 0];

internalField   nonuniform List<scalar> 
530
(
-3.10334378e-05
-3.09389345e-05
-3.09188163e-05
-3.09188148e-05
-3.0918807e-05
-3.0918807e-05
-3.0918807e-05
-3.0918807e-05
-3.0918807e-05
-3.0918807e-05
-3.0918807e-05
-3.0918807e-05
-3.0918807e-05
-3.0918807e-05
-3.0918807e-05
-3.0918807e-05
-3.0918807e-05
-3.0918807e-05
-3.0918807e-05
-3.0918807e-05
-3.0918807e-05
-3.0918807e-05
-3.0918807e-05
-3.0918807e-05
-3.0918807e-05
-3.0918807e-05
-3.0918807e-05
-3.0918807e-05
-3.0918807e-05
-3.0918807e-05
-3.0918807e-05
-3.0918807e-05
-3.0918807e-05
-3.0918807e-05
-3.0918807e-05
-3.0918807e-05
-3.0918807e-05
-3.0918807e-05
-3.0918807e-05
-3.0918807e-05
-3.0918807e-05
-3.0918807e-05
-3.0918807e-05
-3.0918807e-05
-3.0918807e-05
-3.0918807e-05
-3.0918807e-05
-3.0918807e-05
-3.0918807e-05
-3.0918807e-05
-3.0918807e-05
-3.0918807e-05
-3.0918807e-05
-3.0918807e-05
-3.0918807e-05
-3.0918807e-05
-3.0918807e-05
-3.0918807e-05
-3.0918807e-05
-3.0918807e-05
-3.0918807e-05
-3.0918807e-05
-3.0918807e-05
-3.0918807e-05
-3.0918807e-05
-3.0918807e-05
-3.0918807e-05
-3.0918807e-05
-3.0918807e-05
-3.0918807e-05
-3.0918807e-05
-3.0918807e-05
-3.0918807e-05
-3.0918807e-05
-3.0918807e-05
-3.0918807e-05
-3.0918807e-05
-3.0918807e-05
-3.0918807e-05
-3.0918807e-05
-3.0918807e-05
-3.0918807e-05
-3.0918807e-05
-3.0918807e-05
-3.0918807e-05
-3.0918807e-05
-3.0918807e-05
-3.0918807e-05
-3.0918807e-05
-3.0918807e-05
-3.0918807e-05
-3.0918807e-05
-3.0918807e-05
-3.0918807e-05
-3.0918807e-05
-3.0918807e-05
-3.0918807e-05
-3.0918807e-05
-3.0918807e-05
-3.0918807e-05
-3.0918807e-05
-3.09188069e-05
-3.09188068e-05
-3.09188071e-05
-3.09188072e-05
-3.0918807e-05
-3.09188067e-05
-3.09188069e-05
-3.09188072e-05
-3.09188071e-05
-3.09188068e-05
-3.09188069e-05
-3.09188071e-05
-3.0918807e-05
-3.09188068e-05
-3.09188069e-05
-3.09188072e-05
-3.09188072e-05
-3.09188066e-05
-3.09188066e-05
-3.09188074e-05
-3.09188076e-05
-3.09188067e-05
-3.09188063e-05
-3.0918807e-05
-3.09188077e-05
-3.09188072e-05
-3.09188064e-05
-3.09188067e-05
-3.09188074e-05
-3.09188071e-05
-3.09188066e-05
-3.0918807e-05
-3.09188078e-05
-3.0918807e-05
-3.09188056e-05
-3.09188065e-05
-3.0918809e-05
-3.09188086e-05
-3.09188046e-05
-3.09188045e-05
-3.09188089e-05
-3.09188101e-05
-3.09188061e-05
-3.09188037e-05
-3.09188067e-05
-3.091881e-05
-3.09188083e-05
-3.09188045e-05
-3.09188052e-05
-3.09188088e-05
-3.09188087e-05
-3.09188058e-05
-3.09188056e-05
-3.09188076e-05
-3.09188081e-05
-3.09188068e-05
-3.09188062e-05
-3.0918807e-05
-3.09188075e-05
-3.09188071e-05
-3.09188067e-05
-3.09188069e-05
-3.09188072e-05
-3.09188069e-05
-3.09188068e-05
-3.09188072e-05
-3.09188074e-05
-3.09188066e-05
-3.09188062e-05
-3.09188073e-05
-3.09188082e-05
-3.09188071e-05
-3.09188054e-05
-3.09188062e-05
-3.09188086e-05
-3.09188084e-05
-3.09188055e-05
-3.09188054e-05
-3.09188079e-05
-3.09188085e-05
-3.09188066e-05
-3.09188055e-05
-3.0918807e-05
-3.09188083e-05
-3.09188073e-05
-3.09188058e-05
-3.09188063e-05
-3.09188082e-05
-3.0918808e-05
-3.09188059e-05
-3.09188057e-05
-3.09188077e-05
-3.09188084e-05
-3.09188067e-05
-3.09188055e-05
-3.09188068e-05
-3.09188083e-05
-3.09188075e-05
-3.09188059e-05
-3.09188063e-05
-3.09188077e-05
-3.09188075e-05
-3.09188065e-05
-3.09188066e-05
-3.09188074e-05
-3.09188073e-05
-3.09188066e-05
-3.09188067e-05
-3.09188075e-05
-3.09188074e-05
-3.09188064e-05
-3.09188065e-05
-3.09188074e-05
-3.09188076e-05
-3.09188067e-05
-3.09188063e-05
-3.0918807e-05
-3.09188077e-05
-3.09188072e-05
-3.09188063e-05
-3.09188065e-05
-3.09188076e-05
-3.09188076e-05
-3.09188066e-05
-3.09188064e-05
-3.09188072e-05
-3.09188074e-05
-3.09188069e-05
-3.09188065e-05
-3.09188071e-05
-3.09188075e-05
-3.09188069e-05
-3.09188062e-05
-3.09188069e-05
-3.0918808e-05
-3.09188074e-05
-3.09188057e-05
-3.0918806e-05
-3.09188084e-05
-3.09188084e-05
-3.09188058e-05
-3.09188054e-05
-3.09188077e-05
-3.09188087e-05
-3.09188068e-05
-3.09188053e-05
-3.09188067e-05
-3.09188084e-05
-3.09188076e-05
-3.09188059e-05
-3.09188062e-05
-3.09188077e-05
-3.09188077e-05
-3.09188065e-05
-3.09188065e-05
-3.09188072e-05
-3.09188072e-05
-3.09188069e-05
-3.09188069e-05
-3.0918807e-05
-3.0918807e-05
-3.09188069e-05
-3.09188071e-05
-3.09188073e-05
-3.09188069e-05
-3.09188064e-05
-3.09188069e-05
-3.09188079e-05
-3.09188075e-05
-3.09188057e-05
-3.09188058e-05
-3.09188085e-05
-3.09188089e-05
-3.09188058e-05
-3.09188042e-05
-3.09188073e-05
-3.09188104e-05
-3.0918808e-05
-3.0918803e-05
-3.0918804e-05
-3.09188111e-05
-3.0918811e-05
-3.0918804e-05
-3.09188022e-05
-3.09188082e-05
-3.0918812e-05
-3.09188078e-05
-3.09188021e-05
-3.09188043e-05
-3.09188112e-05
-3.09188107e-05
-3.09188039e-05
-3.09188033e-05
-3.09188085e-05
-3.09188102e-05
-3.09188066e-05
-3.09188044e-05
-3.09188066e-05
-3.09188089e-05
-3.09188078e-05
-3.09188056e-05
-3.09188061e-05
-3.09188079e-05
-3.09188078e-05
-3.09188064e-05
-3.09188063e-05
-3.09188072e-05
-3.09188074e-05
-3.0918807e-05
-3.09188067e-05
-3.09188068e-05
-3.09188072e-05
-3.09188072e-05
-3.0918807e-05
-3.09188068e-05
-3.09188069e-05
-3.0918807e-05
-3.09188071e-05
-3.0918807e-05
-3.09188069e-05
-3.09188069e-05
-3.0918807e-05
-3.09188071e-05
-3.0918807e-05
-3.09188069e-05
-3.09188069e-05
-3.0918807e-05
-3.0918807e-05
-3.0918807e-05
-3.0918807e-05
-3.09188069e-05
-3.09188069e-05
-3.0918807e-05
-3.09188071e-05
-3.09188069e-05
-3.09188068e-05
-3.0918807e-05
-3.09188072e-05
-3.09188071e-05
-3.09188066e-05
-3.09188066e-05
-3.09188074e-05
-3.09188076e-05
-3.09188067e-05
-3.0918806e-05
-3.09188068e-05
-3.09188082e-05
-3.09188079e-05
-3.09188056e-05
-3.09188056e-05
-3.0918808e-05
-3.09188087e-05
-3.09188066e-05
-3.09188052e-05
-3.09188065e-05
-3.09188086e-05
-3.09188082e-05
-3.09188058e-05
-3.09188057e-05
-3.09188073e-05
-3.0918808e-05
-3.09188073e-05
-3.09188063e-05
-3.09188064e-05
-3.09188073e-05
-3.09188074e-05
-3.0918807e-05
-3.09188067e-05
-3.09188069e-05
-3.09188071e-05
-3.09188071e-05
-3.0918807e-05
-3.09188069e-05
-3.09188069e-05
-3.0918807e-05
-3.0918807e-05
-3.0918807e-05
-3.0918807e-05
-3.09188069e-05
-3.0918807e-05
-3.0918807e-05
-3.0918807e-05
-3.0918807e-05
-3.0918807e-05
-3.0918807e-05
-3.0918807e-05
-3.0918807e-05
-3.09188071e-05
-3.0918807e-05
-3.09188068e-05
-3.09188068e-05
-3.09188073e-05
-3.09188073e-05
-3.09188067e-05
-3.09188064e-05
-3.0918807e-05
-3.09188078e-05
-3.09188073e-05
-3.09188061e-05
-3.09188062e-05
-3.09188078e-05
-3.09188079e-05
-3.09188065e-05
-3.0918806e-05
-3.09188071e-05
-3.0918808e-05
-3.09188072e-05
-3.09188061e-05
-3.09188065e-05
-3.09188077e-05
-3.09188076e-05
-3.09188064e-05
-3.09188063e-05
-3.09188072e-05
-3.09188076e-05
-3.09188071e-05
-3.09188064e-05
-3.09188066e-05
-3.09188075e-05
-3.09188074e-05
-3.09188067e-05
-3.09188065e-05
-3.09188071e-05
-3.09188073e-05
-3.0918807e-05
-3.09188067e-05
-3.09188069e-05
-3.09188071e-05
-3.0918807e-05
-3.09188069e-05
-3.0918807e-05
-3.0918807e-05
-3.0918807e-05
-3.09188069e-05
-3.0918807e-05
-3.09188072e-05
-3.09188071e-05
-3.09188066e-05
-3.09188066e-05
-3.09188073e-05
-3.09188075e-05
-3.09188069e-05
-3.09188063e-05
-3.09188067e-05
-3.09188077e-05
-3.09188077e-05
-3.09188065e-05
-3.09188061e-05
-3.0918807e-05
-3.09188079e-05
-3.09188074e-05
-3.09188062e-05
-3.09188063e-05
-3.09188075e-05
-3.09188076e-05
-3.09188068e-05
-3.09188065e-05
-3.0918807e-05
-3.09188073e-05
-3.09188071e-05
-3.09188068e-05
-3.09188069e-05
-3.09188071e-05
-3.09188071e-05
-3.09188069e-05
-3.09188069e-05
-3.0918807e-05
-3.0918807e-05
-3.0918807e-05
-3.0918807e-05
-3.0918807e-05
-3.0918807e-05
-3.0918807e-05
-3.0918807e-05
-3.0918807e-05
-3.0918807e-05
-3.0918807e-05
-3.0918807e-05
-3.0918807e-05
-3.0918807e-05
-3.0918807e-05
-3.0918807e-05
-3.0918807e-05
-3.0918807e-05
-3.0918807e-05
-3.0918807e-05
-3.0918807e-05
-3.0918807e-05
-3.0918807e-05
-3.0918807e-05
-3.0918807e-05
-3.0918807e-05
-3.0918807e-05
-3.0918807e-05
-3.09188067e-05
-3.09188068e-05
-3.0918808e-05
-3.09188082e-05
-3.09188042e-05
-3.09188014e-05
-3.09188113e-05
-3.09188279e-05
-3.09188157e-05
-3.09187433e-05
-3.09187457e-05
-3.09189375e-05
-3.0919025e-05
-3.09186624e-05
-3.09182328e-05
-3.0918637e-05
-3.09200271e-05
-3.09198816e-05
-3.09170766e-05
-3.0916353e-05
-3.09201026e-05
-3.0923272e-05
-3.09196502e-05
-3.09133876e-05
-3.09146177e-05
-3.09250689e-05
-3.09253776e-05
-3.09154475e-05
-3.09125858e-05
-3.09192653e-05
-3.09246817e-05
-3.09204839e-05
-3.09149769e-05
-3.09164481e-05
-3.09212316e-05
)
;

boundaryField
{
    closed
    {
        type            calculated;
        value           uniform -4.02808767e-05;
    }
    open
    {
        type            calculated;
        value           nonuniform List<scalar> 0();
    }
    sides
    {
        type            empty;
    }
    procBoundary0to1
    {
        type            processor;
        value           uniform -3.09209396e-05;
    }
}


// ************************************************************************* //
