/*--------------------------------*- C++ -*----------------------------------*\
| =========                 |                                                 |
| \\      /  F ield         | OpenFOAM: The Open Source CFD Toolbox           |
|  \\    /   O peration     | Version:  2306                                  |
|   \\  /    A nd           | Website:  www.openfoam.com                      |
|    \\/     M anipulation  |                                                 |
\*---------------------------------------------------------------------------*/
FoamFile
{
    version     2.0;
    format      ascii;
    arch        "LSB;label=32;scalar=64";
    class       volScalarField;
    location    "0.00156";
    object      prefDh_H;
}
// * * * * * * * * * * * * * * * * * * * * * * * * * * * * * * * * * * * * * //

dimensions      [1 1 -3 0 0 0 0];

internalField   nonuniform List<scalar> 
531
(
23958.3574
23863.7668
23400.5163
23109.9649
23100.8413
23364.0755
23966.6234
23845.9403
23376.8833
23108.3685
23362.4154
23968.1474
23853.7918
23375.0014
23114.2288
23366.5496
23972.0272
23852.5
23381.1957
23116.1415
23372.8531
23971.8726
23853.1225
23344.0148
23132.6382
23389.9987
23967.2734
23856.0296
23257.8566
23162.0698
23424.3254
23957.4831
23835.9198
23169.8672
23074.6677
23382.1459
23971.1058
23981.5111
23866.5417
23363.9794
23130.617
23134.1997
23122.5026
23394.6737
23954.006
23848.2669
23115.5728
23114.0538
23424.8692
23946.1005
23852.3246
23073.9942
23069.1906
23414.9186
23941.3311
23542.5277
23393.8065
23414.4596
23965.6965
23850.4757
23129.9518
23110.2685
23447.3757
23934.5756
23490.5051
23328.2994
23396.6085
23950.2123
23913.5779
23087.3222
23023.2388
23067.1782
23371.1336
23912.5561
23964.752
23775.812
23116.3467
23041.6402
23380.6996
23941.5598
23964.2534
23370.8778
23243.2619
23391.4289
23919.5508
23952.3507
23329.8084
23082.1113
23091.3901
23379.764
23840.1761
23960.7004
23862.1229
23223.5859
23047.6621
23374.0692
23879.0374
23957.9548
23359.7313
23173.7557
23379.0927
23881.4238
23956.3251
23482.8643
23255.0476
23169.1226
23157.5468
23378.071
23883.6319
23957.8916
23356.3119
23137.3642
23377.9517
23868.8834
23941.7533
23351.723
23068.2695
23385.9499
23888.3097
23420.7621
23407.3841
23569.5571
23936.28
23539.1616
23223.9938
23093.1193
23407.0206
23894.0896
23631.7672
23203.1257
23058.9278
23452.9983
23895.5527
23572.9128
23161.2458
23047.9317
23539.4054
23907.7169
23523.0859
23147.3356
23042.7658
23561.6172
23909.5326
23506.7244
23128.3899
23015.531
23529.5708
23937.1205
23386.2297
23302.7516
23586.5054
23932.0431
23480.8313
23143.3974
23032.5201
23512.0992
23939.0649
23396.3349
23379.5031
23555.9561
23932.8213
23501.1099
23198.181
23071.715
23487.5825
23942.683
23404.3755
23394.5394
23510.2697
23943.1553
23538.2454
23365.5106
23251.4201
23058.1116
22980.1049
23415.8333
23933.8275
23402.7411
23323.8199
23430.5562
23937.2238
23753.0831
23321.5962
23085.3754
23432.8201
23940.8296
23419.9166
23356.1666
23450.3273
23939.4313
23505.046
23193.116
23039.7052
23428.6421
23945.2812
23428.2595
23380.1302
23462.1888
23943.7903
23492.1866
23175.954
23038.5298
23435.583
23950.6655
23418.0963
23364.9112
23474.1504
23945.8513
23481.5937
23169.0765
23077.1742
23472.1056
23933.1394
23544.5355
23228.7234
23126.624
23482.8375
23946.2676
23605.5255
23392.227
23100.3771
23115.9823
23498.9533
23930.2365
23512.2952
23203.7927
23143.7714
23539.0331
23928.7966
23538.4226
23225.263
23175.0807
23581.6495
23926.4895
23505.0101
23191.4881
23178.3433
23637.6443
23921.785
23445.2545
23152.286
23153.0009
23659.9067
23939.092
23394.3607
23384.0091
23765.6578
23923.2337
23395.9442
23081.2079
23173.3512
23871.6842
23911.9963
23404.3218
23095.5163
23214.7373
23925.2085
23912.7886
23406.4109
23130.2487
23263.3006
23949.4765
23924.294
23401.333
23250.3869
23233.0787
23023.0829
23158.3782
23952.9273
23926.3782
23433.8709
23381.9929
23957.5006
23921.8604
23426.8986
23383.3332
23973.87
23922.5596
23395.8968
23042.746
23240.4332
23969.1281
23912.8216
23383.0326
22992.5575
23191.6637
23961.3834
23929.842
23398.1573
23378.5626
23977.7649
23926.1857
23376.9453
23393.0577
23981.6052
23923.5935
23395.3634
23034.8819
23309.4919
23965.2624
23928.4676
23383.3867
23056.4939
23338.3561
23965.0256
23932.7982
23384.545
23045.2741
23337.0559
23965.8913
23932.996
23389.2029
23003.3898
23269.3531
23958.8539
23936.7132
23364.887
23403.6058
23981.1928
23931.0718
23267.8702
22981.6373
23266.9511
23957.3832
23935.1775
23329.2724
23410.6856
23978.9746
23928.1765
23216.0637
22960.2283
23269.2589
23953.5967
23936.2432
23299.1267
23356.0465
23979.2427
23930.8085
23288.3146
23416.3247
23977.3652
23929.8916
23229.547
23003.3166
23393.9624
23956.8997
23938.9818
23262.9149
22974.7383
23336.2165
23951.0829
23944.8664
23273.6678
23346.0038
23977.7036
23935.3395
23237.9976
23395.8066
23973.6965
23927.7951
23114.6742
22926.5499
23319.4855
23950.2336
23947.8616
23239.1303
23327.6553
23978.7797
23938.331
23237.8762
23418.042
23975.0868
23931.6194
23150.9954
22999.4063
23399.9891
23955.5782
23962.5449
23310.5218
23415.8415
23979.0659
23941.6424
23206.9118
23053.1259
23383.1706
23958.3519
23959.6537
23294.3322
23072.8018
23380.4132
23961.2551
23963.1377
23308.5411
23087.1682
23380.3206
23964.7323
23962.3342
23328.4169
23109.9602
23376.4347
23947.017
23969.522
23282.1528
23101.684
23152.6
23381.1016
23921.7801
23958.2352
23932.2626
23089.1788
22918.2456
23368.1564
23936.6541
23957.6352
23198.1943
23293.4936
23970.4261
23941.21
23194.043
23392.7092
23962.2722
23938.9489
23048.4614
22951.8679
23392.5094
23943.0524
23962.5855
23234.1164
23328.1195
23973.8128
23942.756
23224.2677
23362.5423
23980.3254
23949.157
23256.96
23425.2489
23968.255
23942.5453
23086.7392
23006.4926
23392.8939
23954.3387
23977.4227
23298.7228
23410.79
23971.1419
23948.0874
23135.7251
23059.3144
23380.1132
23947.8936
23966.5842
23189.0431
23051.7222
23380.6961
23948.8565
23967.6052
23149.6408
23024.3148
23382.1638
23945.0094
23966.7001
23103.1927
22992.063
23392.3651
23957.6693
23982.4586
23277.1251
23411.5996
23973.4055
23950.0405
23093.1377
23033.0055
23370.279
23922.1726
23972.2712
23954.9537
23286.0554
23095.228
23183.5267
23394.2737
23961.708
23967.1641
23034.1098
22957.9224
23394.1994
23947.9592
23986.8858
23279.1071
23414.2659
23957.1263
23957.3079
23069.8205
23007.96
23394.8256
23944.5048
23980.0796
23286.3556
23371.1449
23974.4298
23973.336
23296.5376
23415.3971
23964.6764
23963.5201
23135.1552
23074.5332
23377.9482
23938.5142
23976.7794
23191.7146
23069.6051
23378.9983
23942.4215
23977.9631
23186.376
23070.6359
23378.4087
23943.4525
23979.1011
23195.1745
23078.6621
23377.988
23945.2847
23980.3
23204.9995
23086.9828
23377.4231
23947.2976
23981.7196
)
;

boundaryField
{
    closed
    {
        type            calculated;
        value           nonuniform List<scalar> 0();
    }
    open
    {
        type            calculated;
        value           nonuniform List<scalar> 0();
    }
    sides
    {
        type            empty;
    }
    procBoundary1to0
    {
        type            processor;
        value           uniform 23345.527;
    }
    procBoundary1to2
    {
        type            processor;
        value           uniform 23209.9393;
    }
}


// ************************************************************************* //
