/*--------------------------------*- C++ -*----------------------------------*\
| =========                 |                                                 |
| \\      /  F ield         | OpenFOAM: The Open Source CFD Toolbox           |
|  \\    /   O peration     | Version:  2306                                  |
|   \\  /    A nd           | Website:  www.openfoam.com                      |
|    \\/     M anipulation  |                                                 |
\*---------------------------------------------------------------------------*/
FoamFile
{
    version     2.0;
    format      ascii;
    arch        "LSB;label=32;scalar=64";
    class       volScalarField;
    location    "0.00156";
    object      prefDZ_T;
}
// * * * * * * * * * * * * * * * * * * * * * * * * * * * * * * * * * * * * * //

dimensions      [1 -1 -1 -1 0 0 0];

internalField   nonuniform List<scalar> 
531
(
-1.22786354e-09
-1.23102963e-09
-1.19490568e-09
-1.1880773e-09
-1.18791406e-09
-1.19459929e-09
-1.22773818e-09
-1.23152134e-09
-1.19369834e-09
-1.18822683e-09
-1.1959537e-09
-1.22765143e-09
-1.23147015e-09
-1.193499e-09
-1.18820109e-09
-1.19704086e-09
-1.22746362e-09
-1.2318503e-09
-1.19166455e-09
-1.18820908e-09
-1.19861348e-09
-1.22735158e-09
-1.23220157e-09
-1.1902237e-09
-1.18836218e-09
-1.20184496e-09
-1.22726532e-09
-1.23244594e-09
-1.18952614e-09
-1.18861803e-09
-1.2062189e-09
-1.22736011e-09
-1.23326748e-09
-1.18866269e-09
-1.18796274e-09
-1.20159988e-09
-1.22653435e-09
-1.22616147e-09
-1.23144024e-09
-1.19911354e-09
-1.18869211e-09
-1.18786179e-09
-1.1881588e-09
-1.20189357e-09
-1.2277767e-09
-1.23344544e-09
-1.18821784e-09
-1.18833156e-09
-1.20614022e-09
-1.22781413e-09
-1.23361557e-09
-1.1878397e-09
-1.1880177e-09
-1.20540683e-09
-1.22850997e-09
-1.21740884e-09
-1.19082753e-09
-1.20381858e-09
-1.22690131e-09
-1.23355663e-09
-1.18818804e-09
-1.18851153e-09
-1.20933579e-09
-1.22871312e-09
-1.21361365e-09
-1.19021621e-09
-1.20129284e-09
-1.22761957e-09
-1.23157663e-09
-1.18806456e-09
-1.18732906e-09
-1.18774374e-09
-1.1923363e-09
-1.22906259e-09
-1.22678113e-09
-1.23188478e-09
-1.18772268e-09
-1.18764206e-09
-1.20108468e-09
-1.22809604e-09
-1.22829032e-09
-1.19444916e-09
-1.18944742e-09
-1.20181019e-09
-1.22872254e-09
-1.22956251e-09
-1.19020611e-09
-1.18794234e-09
-1.18818465e-09
-1.19068644e-09
-1.2318785e-09
-1.22682823e-09
-1.23245502e-09
-1.18857909e-09
-1.18789825e-09
-1.19697972e-09
-1.23054913e-09
-1.22919008e-09
-1.19175977e-09
-1.18895251e-09
-1.20061421e-09
-1.22978022e-09
-1.22730383e-09
-1.21238938e-09
-1.18940818e-09
-1.18846416e-09
-1.18858564e-09
-1.19904465e-09
-1.23037032e-09
-1.22870978e-09
-1.19315539e-09
-1.188729e-09
-1.19797292e-09
-1.23086673e-09
-1.22979157e-09
-1.1915709e-09
-1.18799755e-09
-1.20321601e-09
-1.23055192e-09
-1.20599353e-09
-1.19150753e-09
-1.21923602e-09
-1.22827673e-09
-1.21695781e-09
-1.18887179e-09
-1.18803966e-09
-1.20617575e-09
-1.23000598e-09
-1.22343694e-09
-1.18890151e-09
-1.18779821e-09
-1.2106724e-09
-1.2296014e-09
-1.21946023e-09
-1.18873807e-09
-1.18768795e-09
-1.21722286e-09
-1.22893632e-09
-1.21562458e-09
-1.18858383e-09
-1.18763991e-09
-1.21871292e-09
-1.22887925e-09
-1.21430536e-09
-1.18836706e-09
-1.18708515e-09
-1.2165286e-09
-1.22843972e-09
-1.19897348e-09
-1.19005226e-09
-1.22034635e-09
-1.22820646e-09
-1.21206749e-09
-1.18839387e-09
-1.18723326e-09
-1.21525513e-09
-1.2284291e-09
-1.20193535e-09
-1.19091062e-09
-1.21830651e-09
-1.22806712e-09
-1.2138624e-09
-1.18894379e-09
-1.18771125e-09
-1.21336471e-09
-1.22838925e-09
-1.20392922e-09
-1.19097481e-09
-1.21500875e-09
-1.22766568e-09
-1.21690146e-09
-1.1906697e-09
-1.18973211e-09
-1.18734241e-09
-1.18674814e-09
-1.20715819e-09
-1.22915593e-09
-1.20481515e-09
-1.19037222e-09
-1.20810103e-09
-1.22817178e-09
-1.23080365e-09
-1.18990852e-09
-1.18820737e-09
-1.20870222e-09
-1.22863187e-09
-1.20678189e-09
-1.19064501e-09
-1.21008782e-09
-1.22828722e-09
-1.2143457e-09
-1.18872698e-09
-1.18734722e-09
-1.20816654e-09
-1.22847407e-09
-1.20756895e-09
-1.19085435e-09
-1.21110699e-09
-1.22807268e-09
-1.21329543e-09
-1.18851183e-09
-1.18722756e-09
-1.20890784e-09
-1.22839246e-09
-1.20651237e-09
-1.1906048e-09
-1.21218296e-09
-1.22798742e-09
-1.21238355e-09
-1.18849417e-09
-1.18769865e-09
-1.21204876e-09
-1.22837181e-09
-1.21740984e-09
-1.1892159e-09
-1.18824932e-09
-1.21279449e-09
-1.2276792e-09
-1.22171819e-09
-1.19078269e-09
-1.18819446e-09
-1.18796156e-09
-1.21416485e-09
-1.22835942e-09
-1.21490649e-09
-1.18904553e-09
-1.18842989e-09
-1.21711023e-09
-1.22815636e-09
-1.21692895e-09
-1.18931229e-09
-1.18877535e-09
-1.22003792e-09
-1.22818742e-09
-1.21428132e-09
-1.18900197e-09
-1.18870671e-09
-1.22361773e-09
-1.22843556e-09
-1.20882807e-09
-1.1885789e-09
-1.18814409e-09
-1.22499745e-09
-1.22837707e-09
-1.19806492e-09
-1.19120908e-09
-1.23111723e-09
-1.22828027e-09
-1.20131989e-09
-1.18808862e-09
-1.18834564e-09
-1.23324456e-09
-1.22864454e-09
-1.20248544e-09
-1.18828597e-09
-1.18877965e-09
-1.23105162e-09
-1.22840951e-09
-1.20283274e-09
-1.18857662e-09
-1.18924903e-09
-1.22976871e-09
-1.2279433e-09
-1.20190926e-09
-1.18963536e-09
-1.18923866e-09
-1.18744396e-09
-1.18801147e-09
-1.22930103e-09
-1.22884979e-09
-1.19234557e-09
-1.19059118e-09
-1.22920244e-09
-1.22883255e-09
-1.19220326e-09
-1.1919485e-09
-1.22853776e-09
-1.22832137e-09
-1.19388064e-09
-1.18744948e-09
-1.18906832e-09
-1.22813439e-09
-1.22897923e-09
-1.19424165e-09
-1.18702916e-09
-1.18837009e-09
-1.22808216e-09
-1.22926607e-09
-1.19120014e-09
-1.19059062e-09
-1.22802746e-09
-1.22933498e-09
-1.19091255e-09
-1.19176237e-09
-1.22780417e-09
-1.22865347e-09
-1.19146998e-09
-1.18740624e-09
-1.18976298e-09
-1.22778719e-09
-1.22857045e-09
-1.19363679e-09
-1.18762369e-09
-1.19003777e-09
-1.22761671e-09
-1.22846868e-09
-1.1929852e-09
-1.18746981e-09
-1.1900349e-09
-1.22757382e-09
-1.22862569e-09
-1.19128541e-09
-1.18705073e-09
-1.18930698e-09
-1.2275283e-09
-1.22934226e-09
-1.19057666e-09
-1.19152259e-09
-1.22725954e-09
-1.2285775e-09
-1.18948635e-09
-1.18682593e-09
-1.18939555e-09
-1.22749563e-09
-1.22961408e-09
-1.19019275e-09
-1.19125598e-09
-1.22717535e-09
-1.2287529e-09
-1.18894631e-09
-1.18664044e-09
-1.18946991e-09
-1.22748486e-09
-1.22980182e-09
-1.18990463e-09
-1.19082724e-09
-1.22691307e-09
-1.22972256e-09
-1.18968035e-09
-1.1916649e-09
-1.22692526e-09
-1.22870649e-09
-1.18906606e-09
-1.18709737e-09
-1.19094484e-09
-1.22738105e-09
-1.22873379e-09
-1.18948252e-09
-1.1868237e-09
-1.19023774e-09
-1.22740956e-09
-1.22967366e-09
-1.18960209e-09
-1.19082662e-09
-1.22683359e-09
-1.22983497e-09
-1.18907494e-09
-1.1913235e-09
-1.22703361e-09
-1.22902342e-09
-1.18784683e-09
-1.18633391e-09
-1.19011861e-09
-1.22750687e-09
-1.22984982e-09
-1.18919717e-09
-1.19068728e-09
-1.22670822e-09
-1.22986346e-09
-1.18902239e-09
-1.19158795e-09
-1.22676993e-09
-1.22879469e-09
-1.18820267e-09
-1.18709481e-09
-1.19103285e-09
-1.22708845e-09
-1.22916395e-09
-1.18987447e-09
-1.1923535e-09
-1.22642023e-09
-1.22841267e-09
-1.18870402e-09
-1.18756431e-09
-1.19387244e-09
-1.22690356e-09
-1.22806177e-09
-1.18970666e-09
-1.18766584e-09
-1.19458576e-09
-1.22677436e-09
-1.22793713e-09
-1.18983418e-09
-1.18777205e-09
-1.1950499e-09
-1.22663806e-09
-1.22782316e-09
-1.1899867e-09
-1.18812712e-09
-1.19493937e-09
-1.22689073e-09
-1.22784928e-09
-1.18985947e-09
-1.18774269e-09
-1.18850142e-09
-1.19236526e-09
-1.22796761e-09
-1.22623764e-09
-1.2297565e-09
-1.18759059e-09
-1.18641673e-09
-1.19073968e-09
-1.2277999e-09
-1.22998649e-09
-1.18875106e-09
-1.19048973e-09
-1.22693714e-09
-1.23021704e-09
-1.18855181e-09
-1.19147195e-09
-1.22714675e-09
-1.22877565e-09
-1.1871353e-09
-1.18662532e-09
-1.1909717e-09
-1.22750551e-09
-1.22956492e-09
-1.18909477e-09
-1.1908126e-09
-1.22659439e-09
-1.22990917e-09
-1.18878018e-09
-1.19123856e-09
-1.22637441e-09
-1.229475e-09
-1.18914434e-09
-1.19243419e-09
-1.22667142e-09
-1.2285187e-09
-1.18747463e-09
-1.18707885e-09
-1.19214411e-09
-1.22697784e-09
-1.22876967e-09
-1.18971458e-09
-1.19270066e-09
-1.22639226e-09
-1.22829331e-09
-1.18793276e-09
-1.1875974e-09
-1.19556067e-09
-1.2270385e-09
-1.22800472e-09
-1.18866365e-09
-1.18739636e-09
-1.19576089e-09
-1.2271115e-09
-1.22809283e-09
-1.18825031e-09
-1.1871136e-09
-1.19534637e-09
-1.22732186e-09
-1.22821339e-09
-1.18783076e-09
-1.18675892e-09
-1.19297915e-09
-1.22695391e-09
-1.22865445e-09
-1.18948298e-09
-1.19251816e-09
-1.22643483e-09
-1.22831805e-09
-1.18733541e-09
-1.18740104e-09
-1.19611982e-09
-1.22749683e-09
-1.22547389e-09
-1.22851884e-09
-1.18959067e-09
-1.18790918e-09
-1.18848505e-09
-1.19392498e-09
-1.22701468e-09
-1.22815811e-09
-1.18692721e-09
-1.18645667e-09
-1.19237408e-09
-1.22726296e-09
-1.22847801e-09
-1.18957366e-09
-1.19218222e-09
-1.22691549e-09
-1.2279548e-09
-1.18731572e-09
-1.18708621e-09
-1.19274026e-09
-1.22730933e-09
-1.22866783e-09
-1.18953083e-09
-1.19110533e-09
-1.22633535e-09
-1.22850608e-09
-1.18950415e-09
-1.19304581e-09
-1.22664737e-09
-1.22746915e-09
-1.18787992e-09
-1.18770914e-09
-1.19652787e-09
-1.22732909e-09
-1.22752426e-09
-1.18862297e-09
-1.18749055e-09
-1.19678575e-09
-1.22728301e-09
-1.22749228e-09
-1.18853761e-09
-1.18747794e-09
-1.19684233e-09
-1.22722723e-09
-1.22741911e-09
-1.18862539e-09
-1.1875404e-09
-1.19704826e-09
-1.22712726e-09
-1.22733858e-09
-1.18872189e-09
-1.18760725e-09
-1.19721458e-09
-1.22702638e-09
-1.22726222e-09
)
;

boundaryField
{
    closed
    {
        type            calculated;
        value           nonuniform List<scalar> 0();
    }
    open
    {
        type            calculated;
        value           nonuniform List<scalar> 0();
    }
    sides
    {
        type            empty;
    }
    procBoundary1to0
    {
        type            processor;
        value           uniform -1.19298161e-09;
    }
    procBoundary1to2
    {
        type            processor;
        value           uniform -1.18876796e-09;
    }
}


// ************************************************************************* //
