/*--------------------------------*- C++ -*----------------------------------*\
| =========                 |                                                 |
| \\      /  F ield         | OpenFOAM: The Open Source CFD Toolbox           |
|  \\    /   O peration     | Version:  2306                                  |
|   \\  /    A nd           | Website:  www.openfoam.com                      |
|    \\/     M anipulation  |                                                 |
\*---------------------------------------------------------------------------*/
FoamFile
{
    version     2.0;
    format      ascii;
    arch        "LSB;label=32;scalar=64";
    class       volScalarField;
    location    "0.00156";
    object      prefDZ_H2;
}
// * * * * * * * * * * * * * * * * * * * * * * * * * * * * * * * * * * * * * //

dimensions      [1 -1 -1 0 0 0 0];

internalField   nonuniform List<scalar> 
531
(
6.35865114e-05
6.33834133e-05
6.23435607e-05
6.1700056e-05
6.16797908e-05
6.2262321e-05
6.36044691e-05
6.33449996e-05
6.22905004e-05
6.16967597e-05
6.22591268e-05
6.36076929e-05
6.33621436e-05
6.22862369e-05
6.17095935e-05
6.22687329e-05
6.36159449e-05
6.33598287e-05
6.22993464e-05
6.17138054e-05
6.2283348e-05
6.3615452e-05
6.33616711e-05
6.22170031e-05
6.17502479e-05
6.23227132e-05
6.3605246e-05
6.33683765e-05
6.20268527e-05
6.18152393e-05
6.24007491e-05
6.35839029e-05
6.3325404e-05
6.18324244e-05
6.16223762e-05
6.23051395e-05
6.36126469e-05
6.36349573e-05
6.33900566e-05
6.2263777e-05
6.1746273e-05
6.17529674e-05
6.17277037e-05
6.23331395e-05
6.35768485e-05
6.33527134e-05
6.17125686e-05
6.17093923e-05
6.24019309e-05
6.35595613e-05
6.33618395e-05
6.16207259e-05
6.16104225e-05
6.23795066e-05
6.35500552e-05
6.26680121e-05
6.23271849e-05
6.23779004e-05
6.3601287e-05
6.33577064e-05
6.17441029e-05
6.17013303e-05
6.24532125e-05
6.35355178e-05
6.25508004e-05
6.21824981e-05
6.23372254e-05
6.35683125e-05
6.34933764e-05
6.16503109e-05
6.15085408e-05
6.16056227e-05
6.22771952e-05
6.34877076e-05
6.35990501e-05
6.31926893e-05
6.17135695e-05
6.15493903e-05
6.23017295e-05
6.35499896e-05
6.36000276e-05
6.2277409e-05
6.19946974e-05
6.23258845e-05
6.35025809e-05
6.35756615e-05
6.21857954e-05
6.16386962e-05
6.16594125e-05
6.22961546e-05
6.33328486e-05
6.35902284e-05
6.3381748e-05
6.19502406e-05
6.15629703e-05
6.22854511e-05
6.34162399e-05
6.35874437e-05
6.22515973e-05
6.18413748e-05
6.22979784e-05
6.34204222e-05
6.35812857e-05
6.25333462e-05
6.20205146e-05
6.18305061e-05
6.18052614e-05
6.22951241e-05
6.342607e-05
6.35866487e-05
6.22445023e-05
6.17611428e-05
6.22944622e-05
6.33944094e-05
6.35527329e-05
6.22336991e-05
6.16083715e-05
6.23142038e-05
6.34365747e-05
6.23927326e-05
6.23575889e-05
6.27288584e-05
6.35386578e-05
6.26603617e-05
6.19515622e-05
6.16630081e-05
6.23622033e-05
6.34485034e-05
6.2868908e-05
6.19057906e-05
6.15875774e-05
6.24662173e-05
6.34511587e-05
6.27364218e-05
6.18136002e-05
6.15632727e-05
6.26609912e-05
6.34769227e-05
6.26240841e-05
6.1782836e-05
6.15518597e-05
6.27109889e-05
6.34808263e-05
6.25871726e-05
6.17409256e-05
6.14912752e-05
6.26388422e-05
6.35407246e-05
6.23132615e-05
6.21261771e-05
6.27669981e-05
6.35292696e-05
6.25287029e-05
6.17739193e-05
6.15287945e-05
6.25994782e-05
6.35449743e-05
6.23368532e-05
6.22959168e-05
6.26982389e-05
6.35307853e-05
6.25745095e-05
6.18949947e-05
6.16155416e-05
6.25442028e-05
6.35528547e-05
6.23554897e-05
6.23290142e-05
6.25953168e-05
6.35528981e-05
6.26583008e-05
6.22648466e-05
6.201302e-05
6.15851518e-05
6.14129985e-05
6.23821846e-05
6.35344831e-05
6.23521764e-05
6.21728952e-05
6.2415311e-05
6.35405838e-05
6.31416955e-05
6.21673294e-05
6.16462336e-05
6.2420571e-05
6.35491223e-05
6.2391139e-05
6.22443007e-05
6.24600582e-05
6.35455836e-05
6.2583448e-05
6.18835628e-05
6.15447331e-05
6.24110729e-05
6.35586691e-05
6.2410003e-05
6.22972094e-05
6.24868405e-05
6.35548493e-05
6.25544328e-05
6.18455736e-05
6.15419858e-05
6.24267978e-05
6.3570366e-05
6.23869873e-05
6.22634344e-05
6.25138657e-05
6.35592524e-05
6.25305144e-05
6.18304479e-05
6.16275135e-05
6.25092637e-05
6.35319006e-05
6.26724896e-05
6.1962444e-05
6.17368818e-05
6.25334316e-05
6.35597427e-05
6.28098557e-05
6.23235772e-05
6.16791638e-05
6.17131071e-05
6.25698128e-05
6.35255174e-05
6.25997935e-05
6.1907462e-05
6.17747916e-05
6.26601249e-05
6.35220811e-05
6.26587048e-05
6.19549856e-05
6.18440325e-05
6.27560767e-05
6.35170642e-05
6.25833454e-05
6.18803824e-05
6.18510985e-05
6.28820513e-05
6.35070873e-05
6.24483044e-05
6.17936997e-05
6.17946512e-05
6.29321205e-05
6.35449624e-05
6.23310274e-05
6.23054408e-05
6.31697977e-05
6.35100513e-05
6.23357564e-05
6.16369155e-05
6.18396208e-05
6.34037811e-05
6.34859073e-05
6.23548381e-05
6.16686158e-05
6.19311076e-05
6.35181669e-05
6.34873226e-05
6.23596173e-05
6.17453021e-05
6.20383991e-05
6.35696392e-05
6.35119142e-05
6.23479712e-05
6.20106119e-05
6.19720387e-05
6.15083563e-05
6.18062676e-05
6.3576569e-05
6.35177276e-05
6.24168651e-05
6.23007229e-05
6.35864644e-05
6.35077966e-05
6.24012906e-05
6.23042104e-05
6.36214582e-05
6.35086295e-05
6.23328964e-05
6.15515534e-05
6.19879371e-05
6.36105057e-05
6.34881756e-05
6.23043917e-05
6.14407359e-05
6.187986e-05
6.35934479e-05
6.35258933e-05
6.23372918e-05
6.22933743e-05
6.36293027e-05
6.35179692e-05
6.22903055e-05
6.232579e-05
6.36374201e-05
6.35113519e-05
6.23308145e-05
6.15342209e-05
6.21405463e-05
6.36015513e-05
6.35219272e-05
6.23049556e-05
6.15819898e-05
6.22043065e-05
6.3600798e-05
6.3531285e-05
6.23072927e-05
6.15571342e-05
6.22014485e-05
6.3602638e-05
6.35319339e-05
6.23170315e-05
6.14645597e-05
6.20517698e-05
6.35871403e-05
6.35410661e-05
6.22633393e-05
6.23491834e-05
6.36357688e-05
6.3527648e-05
6.20487775e-05
6.14164708e-05
6.20466269e-05
6.35838699e-05
6.35380697e-05
6.21845992e-05
6.23648454e-05
6.36307876e-05
6.35215387e-05
6.19342607e-05
6.13691892e-05
6.20518018e-05
6.35755501e-05
6.35406628e-05
6.21180034e-05
6.22443068e-05
6.36310156e-05
6.35286363e-05
6.20939402e-05
6.2377551e-05
6.36269141e-05
6.35252366e-05
6.19640352e-05
6.14644629e-05
6.23275008e-05
6.3582652e-05
6.35452094e-05
6.20378938e-05
6.14013128e-05
6.21999076e-05
6.35699335e-05
6.35593993e-05
6.20616735e-05
6.22222606e-05
6.36275304e-05
6.35387263e-05
6.19825999e-05
6.23323158e-05
6.36190159e-05
6.35210725e-05
6.17100727e-05
6.12947889e-05
6.21630075e-05
6.35682043e-05
6.35662083e-05
6.19852642e-05
6.21817769e-05
6.36297183e-05
6.35453257e-05
6.1982257e-05
6.23815146e-05
6.3621703e-05
6.35291463e-05
6.17903315e-05
6.145587e-05
6.234095e-05
6.35793515e-05
6.35974751e-05
6.21429717e-05
6.2376731e-05
6.36299499e-05
6.35506046e-05
6.19138181e-05
6.15745104e-05
6.23045618e-05
6.35851808e-05
6.35896263e-05
6.21071879e-05
6.16178651e-05
6.22986877e-05
6.35913708e-05
6.35970966e-05
6.21385646e-05
6.16495644e-05
6.22986537e-05
6.359881e-05
6.35951782e-05
6.21824159e-05
6.17001156e-05
6.22899617e-05
6.35603025e-05
6.3610979e-05
6.20806759e-05
6.16814003e-05
6.17942795e-05
6.22993969e-05
6.35064345e-05
6.3584008e-05
6.35318715e-05
6.16537253e-05
6.1276656e-05
6.22707578e-05
6.35388243e-05
6.35878292e-05
6.18947472e-05
6.21064897e-05
6.36117102e-05
6.35521215e-05
6.1885346e-05
6.23257373e-05
6.35941138e-05
6.35451943e-05
6.15636698e-05
6.13508026e-05
6.23245544e-05
6.35524526e-05
6.35981113e-05
6.19741083e-05
6.2182979e-05
6.36186673e-05
6.35550923e-05
6.19520304e-05
6.22591716e-05
6.36326495e-05
6.35685377e-05
6.20243274e-05
6.23977037e-05
6.36065826e-05
6.355273e-05
6.16482049e-05
6.14714138e-05
6.23255671e-05
6.35764809e-05
6.36295676e-05
6.2116837e-05
6.23656142e-05
6.36125306e-05
6.3564576e-05
6.17564178e-05
6.15881483e-05
6.22983812e-05
6.35624284e-05
6.36047485e-05
6.18745298e-05
6.15711944e-05
6.22997531e-05
6.35646407e-05
6.36071086e-05
6.17874248e-05
6.15106072e-05
6.2302867e-05
6.35564924e-05
6.36052886e-05
6.16848374e-05
6.14392799e-05
6.23246997e-05
6.3583753e-05
6.36404554e-05
6.20690884e-05
6.23673487e-05
6.36175542e-05
6.35688934e-05
6.16620588e-05
6.15300923e-05
6.22766948e-05
6.35066486e-05
6.36137413e-05
6.35799438e-05
6.20888493e-05
6.16674566e-05
6.18621617e-05
6.23292994e-05
6.35926948e-05
6.36062306e-05
6.15318615e-05
6.13638739e-05
6.23285587e-05
6.35628809e-05
6.36499249e-05
6.20735722e-05
6.23731597e-05
6.35825092e-05
6.35843345e-05
6.16108284e-05
6.1474647e-05
6.23300887e-05
6.35553684e-05
6.36352558e-05
6.20894202e-05
6.22778597e-05
6.3619664e-05
6.36202437e-05
6.21117299e-05
6.23759985e-05
6.35987004e-05
6.35972935e-05
6.17550912e-05
6.16217279e-05
6.22939196e-05
6.35422571e-05
6.36264515e-05
6.18803365e-05
6.16106e-05
6.22963529e-05
6.35507631e-05
6.3629004e-05
6.18684928e-05
6.16128461e-05
6.22950612e-05
6.35529477e-05
6.36313997e-05
6.18879362e-05
6.16305599e-05
6.22942007e-05
6.35568287e-05
6.3633919e-05
6.19096458e-05
6.16489262e-05
6.22930047e-05
6.35611047e-05
6.36369279e-05
)
;

boundaryField
{
    closed
    {
        type            calculated;
        value           nonuniform List<scalar> 0();
    }
    open
    {
        type            calculated;
        value           nonuniform List<scalar> 0();
    }
    sides
    {
        type            empty;
    }
    procBoundary1to0
    {
        type            processor;
        value           uniform 6.22204281e-05;
    }
    procBoundary1to2
    {
        type            processor;
        value           uniform 6.19205573e-05;
    }
}


// ************************************************************************* //
