/*--------------------------------*- C++ -*----------------------------------*\
| =========                 |                                                 |
| \\      /  F ield         | OpenFOAM: The Open Source CFD Toolbox           |
|  \\    /   O peration     | Version:  2306                                  |
|   \\  /    A nd           | Website:  www.openfoam.com                      |
|    \\/     M anipulation  |                                                 |
\*---------------------------------------------------------------------------*/
FoamFile
{
    version     2.0;
    format      ascii;
    arch        "LSB;label=32;scalar=64";
    class       volScalarField;
    location    "0.00198";
    object      p;
}
// * * * * * * * * * * * * * * * * * * * * * * * * * * * * * * * * * * * * * //

dimensions      [1 -1 -2 0 0 0 0];

internalField   nonuniform List<scalar> 
531
(
101395.553
101395.343
101395.108
101394.872
101395.449
101395.318
101395.147
101395.004
101394.836
101394.64
101394.397
101394.169
101394.696
101394.609
101394.547
101394.505
101394.424
101394.309
101394.184
101394.07
101393.966
101393.851
101393.73
101393.586
101393.434
101393.252
101393.068
101392.881
101392.705
101392.499
101392.236
101391.993
101391.759
101391.518
101391.24
101390.847
101390.418
101390.408
101390.374
101390.245
101390.054
101389.85
101389.609
101389.302
101388.951
101389.214
101388.876
101388.481
101388.467
101388.458
101388.357
101388.206
101388.071
101387.914
101387.711
101387.519
101387.379
101387.237
101387.098
101387.039
101387.013
101386.589
101386.301
101386.081
101385.879
101385.666
101385.489
101385.369
101385.31
101385.303
101384.626
101384.405
101384.222
101384.069
101383.921
101383.756
101383.585
101383.456
101383.314
101383.126
101382.96
101382.798
101382.621
101382.448
101382.215
101381.958
101381.708
101381.466
101381.243
101381.018
101380.767
101380.479
101380.175
101379.872
101379.562
101379.252
101379.561
101379.356
101379.161
101378.971
101378.771
101378.558
101378.341
101378.158
101377.953
101377.717
101377.502
101377.307
101377.115
101376.929
101376.724
101376.532
101376.362
101376.218
101376.079
101375.977
101375.898
101375.19
101374.914
101374.668
101374.81
101374.485
101374.171
101373.874
101373.614
101373.384
101373.17
101372.991
101372.862
101372.769
101372.101
101371.826
101371.582
101371.34
101371.108
101370.873
101370.588
101370.312
101370.436
101370.102
101369.758
101369.411
101369.081
101368.756
101368.434
101368.111
101367.765
101367.431
101367.666
101367.462
101367.257
101367.111
101366.988
101366.893
101366.837
101366.253
101366.058
101365.89
101365.719
101365.55
101365.392
101365.225
101365.039
101364.834
101364.573
101364.321
101364.087
101363.844
101363.615
101363.397
101363.181
101362.96
101362.712
101362.474
101362.251
101362.014
101361.786
101361.568
101361.347
101361.12
101360.871
101360.629
101360.407
101360.181
101359.977
101359.8
101359.651
101359.527
101358.947
101358.704
101358.507
101358.315
101358.112
101357.894
101357.71
101357.542
101357.363
101357.167
101356.994
101356.836
101356.692
101356.545
101356.384
101356.239
101356.094
101355.935
101355.763
101355.586
101355.397
101355.205
101354.973
101354.733
101354.525
101354.323
101354.106
101353.882
101353.667
101353.475
101353.297
101353.113
101352.936
101352.769
101352.606
101352.427
101352.252
101352.086
101351.939
101351.796
101351.645
101351.476
101351.317
101351.154
101351.004
101350.855
101350.676
101350.494
101350.329
101350.145
101349.938
101349.722
101349.507
101349.292
101349.065
101348.841
101349.098
101348.981
101348.855
101348.74
101348.616
101348.483
101348.325
101348.162
101348.443
101348.36
101348.268
101348.205
101348.151
101348.097
101348.035
101347.956
101347.884
101347.807
101347.736
101347.669
101347.602
101347.54
101347.461
101347.361
101347.284
101347.215
101347.127
101347.019
101346.925
101346.846
101346.777
101346.704
101346.606
101346.521
101346.753
101346.624
101346.506
101346.406
101346.339
101346.293
101346.276
101346.294
101346.349
101346.428
101346.089
101346.046
101346.045
101346.067
101346.078
101346.069
101346.074
101346.078
101346.093
101346.122
101346.149
101346.171
101346.202
101346.23
101346.237
101346.246
101346.266
101346.312
101346.346
101346.358
101346.392
101346.435
101346.459
101346.498
101346.565
101346.643
101346.732
101346.837
101346.929
101347.016
101347.102
101347.202
101347.278
101347.328
101347.408
101347.456
101347.438
101347.386
101347.563
101347.761
101347.915
101348.025
101348.136
101348.259
101348.378
101348.479
101348.552
101348.647
101348.771
101348.883
101348.969
101349.072
101349.202
101349.338
101349.458
101349.552
101349.673
101349.83
101349.972
101350.08
101350.213
101350.385
101350.548
101350.686
101350.833
101350.976
101351.148
101351.345
101351.533
101351.685
101351.85
101352.064
101352.284
101352.478
101352.641
101352.83
101353.063
101353.28
101353.46
101353.664
101353.913
101354.142
101354.334
101354.55
101354.794
101355.019
101355.231
101355.482
101355.729
101355.936
101356.157
101356.409
101356.682
101356.921
101357.121
101357.335
101357.854
101358.071
101358.29
101358.499
101358.729
101358.977
101359.261
101359.584
101359.928
101360.233
101360.566
101360.922
101361.28
101361.1
101361.255
101361.442
101361.684
101361.958
101362.245
101362.483
101362.743
101363.091
101363.456
101363.79
101364.093
101364.409
101364.721
101365.043
101365.386
101365.718
101366.012
101366.328
101366.675
101367.014
101367.326
101367.666
101368.036
101368.433
101368.833
101368.775
101369.037
101369.329
101369.664
101369.975
101370.23
101370.491
101370.749
101370.99
101371.227
101371.948
101372.231
101372.532
101372.907
101373.258
101373.567
101373.885
101374.194
101374.515
101374.883
101375.218
101375.532
101375.884
101376.232
101376.535
101376.842
101377.157
101377.493
101377.846
101378.144
101378.423
101378.775
101379.116
101379.414
101379.715
101380.025
101380.357
101380.705
101380.996
101381.267
101381.61
101381.943
101382.214
101382.489
101382.804
101383.133
101383.434
101383.67
101383.93
101384.245
101384.526
101384.752
101384.969
101385.183
101385.392
101385.59
101385.797
101386.548
101386.821
101387.107
101387.459
101387.769
101388.05
101388.325
101388.581
101388.895
101389.202
101389.468
101389.759
101390.095
101390.416
101390.713
101391.043
101391.411
101391.808
101392.21
101392.082
101392.321
101392.605
101392.927
101393.228
101393.48
101393.757
101394.086
101394.393
101394.652
101394.933
101395.262
101395.569
101395.836
101396.119
101396.414
101396.7
101396.959
101397.162
101397.34
101397.552
101397.813
101398.059
101398.259
101398.477
101398.723
101398.975
101399.192
101399.362
101399.561
101399.81
101400.032
)
;

boundaryField
{
    closed
    {
        type            zeroGradient;
    }
    open
    {
        type            waveTransmissive;
        gamma           1.25;
        fieldInf        101325;
        lInf            1;
        value           nonuniform List<scalar> 0();
    }
    sides
    {
        type            empty;
    }
    procBoundary3to2
    {
        type            processor;
        value           uniform 101395.742;
    }
    procBoundary3to4
    {
        type            processor;
        value           uniform 101400.208;
    }
}


// ************************************************************************* //
