/*--------------------------------*- C++ -*----------------------------------*\
| =========                 |                                                 |
| \\      /  F ield         | OpenFOAM: The Open Source CFD Toolbox           |
|  \\    /   O peration     | Version:  2306                                  |
|   \\  /    A nd           | Website:  www.openfoam.com                      |
|    \\/     M anipulation  |                                                 |
\*---------------------------------------------------------------------------*/
FoamFile
{
    version     2.0;
    format      ascii;
    arch        "LSB;label=32;scalar=64";
    class       volScalarField;
    location    "0.00198";
    object      prefDZ_H2;
}
// * * * * * * * * * * * * * * * * * * * * * * * * * * * * * * * * * * * * * //

dimensions      [1 -1 -1 0 0 0 0];

internalField   nonuniform List<scalar> 
531
(
6.3515866e-05
6.23671565e-05
6.09299217e-05
6.09470251e-05
6.34437868e-05
6.35154868e-05
6.34993944e-05
6.35256845e-05
6.23481739e-05
6.17102586e-05
6.13430189e-05
6.13432205e-05
6.34467831e-05
6.35341304e-05
6.15466472e-05
6.14948059e-05
6.34555858e-05
6.35533226e-05
6.3532054e-05
6.23261885e-05
6.1027006e-05
6.12056384e-05
6.34978386e-05
6.35639357e-05
6.35574662e-05
6.23279567e-05
6.17273939e-05
6.14309665e-05
6.14292422e-05
6.35048821e-05
6.35487217e-05
6.23185464e-05
6.13562888e-05
6.15207222e-05
6.35192959e-05
6.35661113e-05
6.3560952e-05
6.23270823e-05
6.19225822e-05
6.35330353e-05
6.35555498e-05
6.23171341e-05
6.18488031e-05
6.13364889e-05
6.13555904e-05
6.34988599e-05
6.35422444e-05
6.35357648e-05
6.23525742e-05
6.15640404e-05
6.34824603e-05
6.35279224e-05
6.1976508e-05
6.19760172e-05
6.34587809e-05
6.23564377e-05
6.09962782e-05
6.34720193e-05
6.3502693e-05
6.35232866e-05
6.35275257e-05
6.23597417e-05
6.09489486e-05
6.10734747e-05
6.34731227e-05
6.35338412e-05
6.35248657e-05
6.23562125e-05
6.14760777e-05
6.14840824e-05
6.34769596e-05
6.35211689e-05
6.23325561e-05
6.13139006e-05
6.16958972e-05
6.35064496e-05
6.23199491e-05
6.12824266e-05
6.35151847e-05
6.35263548e-05
6.23464989e-05
6.16684852e-05
6.12785894e-05
6.12789781e-05
6.34679565e-05
6.35347043e-05
6.35063653e-05
6.35580979e-05
6.20275107e-05
6.18388776e-05
6.35032489e-05
6.35590797e-05
6.35475128e-05
6.23255794e-05
6.14419237e-05
6.14406644e-05
6.35074144e-05
6.35226028e-05
6.23263202e-05
6.13321237e-05
6.17173248e-05
6.35018455e-05
6.23049168e-05
6.11726711e-05
6.35423756e-05
6.35133696e-05
6.2313588e-05
6.11157808e-05
6.12767095e-05
6.34953699e-05
6.35666234e-05
6.35334423e-05
6.23219557e-05
6.16551982e-05
6.18067375e-05
6.11264748e-05
6.11429891e-05
6.34729853e-05
6.35279752e-05
6.35260589e-05
6.18507127e-05
6.15179194e-05
6.34946375e-05
6.355512e-05
6.35123096e-05
6.35750301e-05
6.35326511e-05
6.23182132e-05
6.13524864e-05
6.13664414e-05
6.34976901e-05
6.35452738e-05
6.22470549e-05
6.06648764e-05
6.08082466e-05
6.34853356e-05
6.35245694e-05
6.35137266e-05
6.18242045e-05
6.11345621e-05
6.35079273e-05
6.35183795e-05
6.35408544e-05
6.35296623e-05
6.23403303e-05
6.16221094e-05
6.12603477e-05
6.12674899e-05
6.35045373e-05
6.35220509e-05
6.351603e-05
6.23634419e-05
6.14820841e-05
6.11526012e-05
6.1163193e-05
6.34337568e-05
6.35102942e-05
6.34670755e-05
6.35278265e-05
6.35061404e-05
6.204062e-05
6.1320761e-05
6.11508019e-05
6.11754894e-05
6.34846725e-05
6.34948065e-05
6.35154533e-05
6.35203071e-05
6.23451523e-05
6.18110196e-05
6.13578946e-05
6.13624813e-05
6.35045784e-05
6.35368346e-05
6.35336876e-05
6.35455387e-05
6.23489514e-05
6.16524904e-05
6.12570537e-05
6.12605419e-05
6.34948081e-05
6.35247339e-05
6.35157408e-05
6.35327373e-05
6.2359136e-05
6.17898877e-05
6.14693094e-05
6.14697969e-05
6.34801785e-05
6.35253691e-05
6.17820366e-05
6.14338141e-05
6.34903071e-05
6.35144812e-05
6.18816534e-05
6.13113311e-05
6.35060522e-05
6.34910717e-05
6.21884983e-05
6.07449239e-05
6.0870053e-05
6.34684088e-05
6.35158156e-05
6.34945533e-05
6.35267968e-05
6.35200634e-05
6.2359442e-05
6.19466456e-05
6.15374004e-05
6.15413781e-05
6.34946576e-05
6.3544234e-05
6.17582665e-05
6.1761571e-05
6.35128996e-05
6.35580076e-05
6.35152772e-05
6.2321934e-05
6.16055896e-05
6.1858945e-05
6.11931674e-05
6.12159363e-05
6.35099285e-05
6.35526893e-05
6.35173984e-05
6.23425426e-05
6.09203837e-05
6.10005096e-05
6.34936819e-05
6.35581415e-05
6.35072949e-05
6.35695331e-05
6.21125083e-05
6.19776479e-05
6.35268472e-05
6.23280752e-05
6.13733908e-05
6.35278598e-05
6.35160212e-05
6.35076901e-05
6.2354928e-05
6.14679953e-05
6.11256756e-05
6.1119216e-05
6.35017566e-05
6.35110613e-05
6.35163568e-05
6.35244499e-05
6.23627639e-05
6.15826276e-05
6.12495569e-05
6.12514652e-05
6.3512692e-05
6.35247981e-05
6.35085884e-05
6.23569932e-05
6.12623786e-05
6.13191962e-05
6.34962561e-05
6.35233021e-05
6.35140966e-05
6.3534403e-05
6.23485839e-05
6.19114581e-05
6.14529286e-05
6.14564419e-05
6.35181349e-05
6.35375902e-05
6.18171549e-05
6.12974933e-05
6.35305377e-05
6.3499557e-05
6.23315028e-05
6.09730376e-05
6.11372019e-05
6.3470118e-05
6.34865789e-05
6.34807159e-05
6.170896e-05
6.12606001e-05
6.34816002e-05
6.34821683e-05
6.34840583e-05
6.34983646e-05
6.23750199e-05
6.19666741e-05
6.1414658e-05
6.14201507e-05
6.34762888e-05
6.35162642e-05
6.14863738e-05
6.1204487e-05
6.34917001e-05
6.35111172e-05
6.35154042e-05
6.35131246e-05
6.23531713e-05
6.12170017e-05
6.14862048e-05
6.08110713e-05
6.08326484e-05
6.34861562e-05
6.35114991e-05
6.34900815e-05
6.20490052e-05
6.13855478e-05
6.35488195e-05
6.34650305e-05
6.23093936e-05
6.34759351e-05
6.3585892e-05
6.2262255e-05
6.18869809e-05
6.1236513e-05
6.12444852e-05
6.3527049e-05
6.35318601e-05
6.35301419e-05
6.20116022e-05
6.18458912e-05
6.35328443e-05
6.22590203e-05
6.12229473e-05
6.35368894e-05
6.35235062e-05
6.35196867e-05
6.2362881e-05
6.14760987e-05
6.3553838e-05
6.35016839e-05
6.23317818e-05
6.13047793e-05
6.132481e-05
6.35064145e-05
6.3537762e-05
6.22011838e-05
6.15682742e-05
6.35344585e-05
6.34994109e-05
6.23441149e-05
6.12566229e-05
6.12822321e-05
6.34724678e-05
6.3535469e-05
6.19993109e-05
6.15932601e-05
6.3454007e-05
6.35003219e-05
6.16976884e-05
6.14751265e-05
6.34119525e-05
6.34519687e-05
6.34152282e-05
6.34777105e-05
6.14082394e-05
6.09983644e-05
6.3487894e-05
6.34549445e-05
6.22863201e-05
6.1081922e-05
6.11197125e-05
6.34665688e-05
6.35414097e-05
6.20161924e-05
6.15702947e-05
6.34748029e-05
6.35531724e-05
6.19385261e-05
6.17198494e-05
6.34799943e-05
6.35480041e-05
6.19146557e-05
6.1918393e-05
6.35124238e-05
6.23592842e-05
6.11575373e-05
6.35446787e-05
6.3495536e-05
6.23521676e-05
6.0911021e-05
6.09810538e-05
6.34930775e-05
6.35199236e-05
6.35156456e-05
6.21192107e-05
6.17444458e-05
6.35127235e-05
6.35449224e-05
6.34975368e-05
6.23352217e-05
6.14000771e-05
6.1408627e-05
6.35372415e-05
6.35229776e-05
6.23406908e-05
6.1299031e-05
6.13145153e-05
6.35257419e-05
6.35223612e-05
6.23464688e-05
6.11471181e-05
6.11559901e-05
6.35305986e-05
6.35148348e-05
6.2345313e-05
6.07965474e-05
6.08512493e-05
6.34750427e-05
6.35429737e-05
6.34903518e-05
6.35594389e-05
6.23795783e-05
6.18708555e-05
6.35120698e-05
6.35654941e-05
6.23894849e-05
6.21290868e-05
6.35195782e-05
6.35579819e-05
6.23571949e-05
6.22636102e-05
6.18003841e-05
6.18068821e-05
6.34951141e-05
6.35601833e-05
6.22988524e-05
6.19260775e-05
6.35119225e-05
6.35503775e-05
6.23710938e-05
6.19110673e-05
6.13577828e-05
6.13665423e-05
6.34663211e-05
6.35427279e-05
6.1547562e-05
6.13671234e-05
6.34451908e-05
6.35568177e-05
6.34598512e-05
6.35724684e-05
6.20945495e-05
6.19403393e-05
6.34983162e-05
6.23361935e-05
6.13045139e-05
6.35241738e-05
6.35227073e-05
6.35124221e-05
6.23373405e-05
6.11254869e-05
6.13562605e-05
6.35035769e-05
6.21796434e-05
6.13509855e-05
6.35064655e-05
6.35283225e-05
6.35001194e-05
6.23380683e-05
6.10556859e-05
6.13009983e-05
6.34886665e-05
6.20994966e-05
6.1207974e-05
6.34953287e-05
6.35059635e-05
6.34932463e-05
6.2341163e-05
6.14238742e-05
6.34856174e-05
6.35321913e-05
6.189176e-05
6.18288549e-05
6.34892831e-05
6.35424627e-05
6.35107939e-05
6.23430674e-05
6.17329605e-05
6.13359387e-05
6.13399871e-05
6.34861834e-05
6.35496477e-05
6.15973148e-05
6.15498029e-05
6.34991039e-05
6.35470817e-05
6.35293802e-05
6.23147997e-05
6.15431218e-05
6.35107184e-05
6.35498508e-05
6.22822119e-05
6.17947981e-05
6.35159545e-05
6.3548761e-05
6.23584383e-05
6.19153652e-05
6.14883397e-05
6.14980337e-05
6.3481352e-05
6.35531525e-05
6.19837326e-05
6.16677141e-05
6.34806559e-05
6.35623129e-05
6.20802282e-05
6.1787715e-05
6.34847576e-05
6.35589504e-05
6.22583718e-05
6.19252022e-05
6.3504947e-05
6.35448797e-05
6.23640753e-05
6.20098262e-05
6.15692001e-05
6.15764924e-05
6.34849892e-05
6.35269934e-05
6.21021481e-05
6.15057158e-05
6.35169308e-05
6.34944749e-05
6.23490615e-05
6.1027542e-05
6.10713418e-05
6.34479972e-05
6.35443899e-05
6.16965339e-05
6.15053916e-05
6.34416157e-05
)
;

boundaryField
{
    closed
    {
        type            calculated;
        value           nonuniform List<scalar> 0();
    }
    open
    {
        type            calculated;
        value           nonuniform List<scalar> 0();
    }
    sides
    {
        type            empty;
    }
    procBoundary3to2
    {
        type            processor;
        value           uniform 6.3519627e-05;
    }
    procBoundary3to4
    {
        type            processor;
        value           uniform 6.35524527e-05;
    }
}


// ************************************************************************* //
