/*--------------------------------*- C++ -*----------------------------------*\
| =========                 |                                                 |
| \\      /  F ield         | OpenFOAM: The Open Source CFD Toolbox           |
|  \\    /   O peration     | Version:  2306                                  |
|   \\  /    A nd           | Website:  www.openfoam.com                      |
|    \\/     M anipulation  |                                                 |
\*---------------------------------------------------------------------------*/
FoamFile
{
    version     2.0;
    format      ascii;
    arch        "LSB;label=32;scalar=64";
    class       volScalarField;
    location    "0.00176";
    object      rho;
}
// * * * * * * * * * * * * * * * * * * * * * * * * * * * * * * * * * * * * * //

dimensions      [1 -3 0 0 0 0 0];

internalField   nonuniform List<scalar> 
531
(
0.952802459
0.944579953
0.900306021
0.900741104
0.936996288
0.953316532
0.94606086
0.900600008
0.900808042
0.937266902
0.954827104
0.947991616
0.900590707
0.90124057
0.937909885
0.957753728
0.950839461
0.901109436
0.900813726
0.943367944
0.944343943
0.900928078
0.901711079
0.942560349
0.942046836
0.900817769
0.902424829
0.937606061
0.959677233
0.949470125
0.901638184
0.901353015
0.902184859
0.941649008
0.960857687
0.952740385
0.966223027
0.9595735
0.902057761
0.901933252
0.902206113
0.901845889
0.901798975
0.901805206
0.936679888
0.958843802
0.95508618
0.901086332
0.901313904
0.94081966
0.970111137
0.957624205
0.901333702
0.90136191
0.901363226
0.942160979
0.949604012
0.900929651
0.901266548
0.942456021
0.943745264
0.900833232
0.901769448
0.936995407
0.944569928
0.943099769
0.948350447
0.948290516
0.955685227
0.954478041
0.901798485
0.901694784
0.901935963
0.901516879
0.937545758
0.941740373
0.901582715
0.901706243
0.937840701
0.952294505
0.952285495
0.901778307
0.901825972
0.938372965
0.956154562
0.955843751
0.902101034
0.902191375
0.938487275
0.962968673
0.955052441
0.902391862
0.902293449
0.902228582
0.93843888
0.948588324
0.902405068
0.902622016
0.938364334
0.94835868
0.953527925
0.953547969
0.902827875
0.902573501
0.944603347
0.94937274
0.902548776
0.902844326
0.938492671
0.954462925
0.954378592
0.902986511
0.902794809
0.938201392
0.95667796
0.956587411
0.902762954
0.90265965
0.938995026
0.965061362
0.961990361
0.902662076
0.90266657
0.902540275
0.902529289
0.938135961
0.957759156
0.956381154
0.902654117
0.90222719
0.943233609
0.94950338
0.901957197
0.902607451
0.938838605
0.95609135
0.955538713
0.902353218
0.902529844
0.938226044
0.956209203
0.955445802
0.902064748
0.902758649
0.938557513
0.959335337
0.95454833
0.902667299
0.902258633
0.903017188
0.938566249
0.955415398
0.954167071
0.902460232
0.901978143
0.941447925
0.94706578
0.901598161
0.902435429
0.938202625
0.953287747
0.952534916
0.901711982
0.902744693
0.937670228
0.954219168
0.952663743
0.90229956
0.901990797
0.93911603
0.943810986
0.901579632
0.902463372
0.937474759
0.945042933
0.951654641
0.951854087
0.901763791
0.902777757
0.939650699
0.965801535
0.959726323
0.902304227
0.903033074
0.902797645
0.94769275
0.948304391
0.901480977
0.94446353
0.967615169
0.901635181
0.902800351
0.902782615
0.902441139
0.949586846
0.950310029
0.901481946
0.94472786
0.959412522
0.901305248
0.903157487
0.902850652
0.937067009
0.961774629
0.960526321
0.902546991
0.90303648
0.93716606
0.967682896
0.960283953
0.902463213
0.902970851
0.902833523
0.946003932
0.948061801
0.901545589
0.941632381
0.957558515
0.901676549
0.903080208
0.902972166
0.936988521
0.959638602
0.959057863
0.9028704
0.903183027
0.936879495
0.962513925
0.96217469
0.902886991
0.903603483
0.941402365
0.980769177
0.97395813
0.904037032
0.903095996
0.904078504
0.902882863
0.903617365
0.902896044
0.903247089
0.942073715
0.961229766
0.969944474
0.969786211
0.903427909
0.903124258
0.957370758
0.956486084
0.9033386
0.903227807
0.904165769
0.935313278
0.96818363
0.953948389
0.90311094
0.939106753
0.962558177
0.902945733
0.903282783
0.950805183
0.950510471
0.903358035
0.903239969
0.904096909
0.936336314
0.961811498
0.955964682
0.903760889
0.903227656
0.904094312
0.937677654
0.956155351
0.953053285
0.971711974
0.970844853
0.904084894
0.90333129
0.903872577
0.903198364
0.903377328
0.94351705
0.953617502
0.902699148
0.903437791
0.9383936
0.951711158
0.956597343
0.956558606
0.903570203
0.90355756
0.944637578
0.95080522
0.902895681
0.903833431
0.938799871
0.958773405
0.958436377
0.903770936
0.903349481
0.942191511
0.951624962
0.90271344
0.903807586
0.939251669
0.963783822
0.962654538
0.903830937
0.903123354
0.951646506
0.953284127
0.902745001
0.903682754
0.903421895
0.94683431
0.953013592
0.902639673
0.903533449
0.90392874
0.940314606
0.968155422
0.965216926
0.904011779
0.903080813
0.947658869
0.954725842
0.903153098
0.903413208
0.946833859
0.949791509
0.903033059
0.903899895
0.939604554
0.951412588
0.958580895
0.958102248
0.903545745
0.903900411
0.952915372
0.955448195
0.903278966
0.904057595
0.955073665
0.95327932
0.903120659
0.904052428
0.904170095
0.904170469
0.937572194
0.950093784
0.955207594
0.954485852
0.902534292
0.904625468
0.947046697
0.969515431
0.964977521
0.903609748
0.903716935
0.955246313
0.95762229
0.903043624
0.904236788
0.958386417
0.953156754
0.902735251
0.90405054
0.904125989
0.947811973
0.953693771
0.902342825
0.904125393
0.950860414
0.950518539
0.902005683
0.904336044
0.94362933
0.961652983
0.955632473
0.903136743
0.903373741
0.947071798
0.948790765
0.901859828
0.903907204
0.940575993
0.95939757
0.953358895
0.902761247
0.903082933
0.946840736
0.948567068
0.901428786
0.903596638
0.941793958
0.960926569
0.955477819
0.902509657
0.902565256
0.948077737
0.950003905
0.901901542
0.902620124
0.948245557
0.948146585
0.901667181
0.902545405
0.947374531
0.947670561
0.901086101
0.902971693
0.940959614
0.960425747
0.955860233
0.902133475
0.901874018
0.948677714
0.951249122
0.901684604
0.901937281
0.950655271
0.948768141
0.901335655
0.902073647
0.902228365
0.941714189
0.950242681
0.900599092
0.902559019
0.938719951
0.956691714
0.953676242
0.902028982
0.901522956
0.940046484
0.944017233
0.901508365
0.901998439
0.936613897
0.942823739
0.94731511
0.947311381
0.901468725
0.902189064
0.937767878
0.945525378
0.951741768
0.950582839
0.901771808
0.937539174
0.95671407
0.902270513
0.902619699
0.94471412
0.954730068
0.902195301
0.90302979
0.940604432
0.968558613
0.964002884
0.903358416
0.902502668
0.903196361
0.902311499
0.90287429
0.938347909
0.95744359
0.9571557
0.903432435
0.902884701
0.937001785
0.964055508
0.952216178
0.903124313
0.938624079
0.962837167
0.903494161
0.903087869
0.952375029
0.95823136
0.903980819
0.902896275
0.903984352
0.902671165
0.939836902
0.954591305
0.903410336
0.903113128
0.937980576
0.964046331
0.961072939
0.903623496
0.902615173
0.902961736
0.939550603
0.955699188
0.963155315
0.963009366
0.903703956
0.90309
0.903046491
0.937760129
0.952745469
0.904324321
0.902622669
0.937281571
0.943807272
0.90435335
0.903048703
0.935658246
0.942777188
0.949057199
0.949017233
0.904375776
0.902999039
0.937965306
0.953878859
0.953715998
0.904986688
0.902827567
0.937502126
0.954703325
0.954608232
0.904909729
0.903246268
0.938035766
0.959168146
0.956364212
0.904560194
0.903112814
0.903243777
)
;

boundaryField
{
    closed
    {
        type            calculated;
        value           nonuniform List<scalar> 0();
    }
    open
    {
        type            calculated;
        value           nonuniform List<scalar> 0();
    }
    sides
    {
        type            empty;
    }
    procBoundary3to2
    {
        type            processor;
        value           uniform 0.936772525;
    }
    procBoundary3to4
    {
        type            processor;
        value           uniform 0.938508586;
    }
}


// ************************************************************************* //
