/*--------------------------------*- C++ -*----------------------------------*\
| =========                 |                                                 |
| \\      /  F ield         | OpenFOAM: The Open Source CFD Toolbox           |
|  \\    /   O peration     | Version:  2306                                  |
|   \\  /    A nd           | Website:  www.openfoam.com                      |
|    \\/     M anipulation  |                                                 |
\*---------------------------------------------------------------------------*/
FoamFile
{
    version     2.0;
    format      ascii;
    arch        "LSB;label=32;scalar=64";
    class       volScalarField;
    location    "0.00176";
    object      T;
}
// * * * * * * * * * * * * * * * * * * * * * * * * * * * * * * * * * * * * * //

dimensions      [0 0 0 1 0 0 0];

internalField   nonuniform List<scalar> 
531
(
323.740361
326.562878
340.251649
340.078579
328.919809
323.633594
326.123019
340.206786
340.121305
328.99067
323.180691
325.532007
340.271381
340.017697
328.917058
322.237504
324.599348
340.110878
340.229206
327.209997
326.873156
340.191086
339.924483
327.503424
327.693873
340.258059
339.66164
328.977465
321.656668
325.136373
339.920291
340.133867
339.741932
327.841323
321.26865
324.0429
319.424921
321.700023
339.760329
339.877209
339.753959
339.916207
339.979077
339.942555
329.118847
321.979802
323.264982
340.219201
340.121424
328.163133
318.111208
322.398747
340.065305
340.182957
340.128588
327.733198
325.187295
340.297531
340.235022
327.648049
327.219093
340.376106
340.08474
328.994999
326.961295
327.452399
325.676514
325.688709
323.169003
323.58023
340.042422
340.154449
340.070627
340.252737
329.083828
327.992077
340.201639
340.207176
328.971065
324.400921
324.40549
340.16849
340.169349
328.976414
323.112228
323.22001
340.072726
340.045378
329.015703
320.805979
323.521966
339.931852
340.093773
340.075719
329.141615
325.782015
340.011284
339.980576
329.106761
325.88314
324.105357
324.10255
339.831654
340.012284
327.18043
325.555073
339.981207
339.91756
329.138507
323.821957
323.840201
339.848098
339.936087
329.162144
323.066179
323.090741
339.932572
339.974867
329.121623
320.183094
321.231452
339.925
339.976125
340.045212
340.047724
329.06931
322.692616
323.150524
339.96565
340.162983
327.665443
325.5187
340.230462
340.012279
329.07742
323.258793
323.437137
340.092513
340.027219
329.137644
323.209926
323.468745
340.199011
339.929784
329.000485
322.1358
323.758055
339.919885
340.164655
339.833042
328.985098
323.474316
323.875116
340.014879
340.23154
328.247026
326.315126
340.345193
340.047904
329.091437
324.173098
324.425891
340.293382
339.901378
329.03407
323.845365
324.353868
340.042539
340.191832
329.008456
327.390351
340.314595
340.013885
329.224976
326.961967
324.688147
324.614685
340.183738
339.807
328.788616
319.807001
321.886158
339.918456
339.715824
339.776388
326.015651
325.80581
340.196406
327.113229
319.142564
340.117269
339.733329
339.711356
339.884583
325.338824
325.080902
340.174153
326.989953
321.945593
340.227946
339.635661
339.670981
329.565112
321.129848
321.549866
339.806426
339.604587
329.516044
319.085704
321.62471
339.771764
339.670288
339.694288
326.536766
325.834911
340.12073
328.03618
322.566228
340.064346
339.656348
339.627703
329.492343
321.863464
322.054438
339.679691
339.562461
329.597608
320.882343
320.994961
339.652571
339.378173
328.142954
314.587913
316.936001
339.123683
339.602489
339.165381
339.714939
339.40682
339.754866
339.612399
327.949813
321.374094
318.371349
318.426973
339.426575
339.662957
322.737423
323.029308
339.469422
339.714423
339.253061
329.581296
319.036591
323.932516
339.638457
329.036574
320.99223
339.730986
339.69877
325.057677
325.153738
339.560784
339.799191
339.385981
329.402211
321.313968
323.311143
339.504284
339.834555
339.472538
329.269103
323.301051
324.34954
317.94743
318.238554
339.348445
339.778221
339.518377
339.876462
339.79532
327.667511
324.218322
340.020924
339.8141
329.411223
324.903733
323.22914
323.243498
339.705375
339.807207
327.353813
325.246182
340.019227
339.718056
329.246063
322.535887
322.637773
339.723627
339.931426
328.232922
325.005784
340.14693
339.763606
329.205582
320.852677
321.225345
339.724477
340.051774
325.034579
324.466058
340.103869
339.888808
339.914308
326.695365
324.583109
340.178897
339.984402
339.737217
328.935297
319.408132
320.398052
339.727901
340.117044
326.464058
324.02104
340.076
340.033694
326.754945
325.731574
340.15954
339.860323
329.244294
325.192927
322.737113
322.889575
339.935123
339.839949
324.685979
323.798253
340.034267
339.777284
323.941088
324.539579
340.070222
339.79452
339.721252
339.744028
329.536279
325.633388
323.872206
324.116961
340.317066
339.50771
326.653308
318.943814
320.483006
339.876956
339.835295
323.843894
323.001973
340.065468
339.622742
322.743381
324.520855
340.137051
339.743434
339.614523
326.349437
324.323121
340.320857
339.642925
325.273321
325.385844
340.431756
339.52022
327.715997
321.539092
323.571655
339.947654
339.849813
326.505774
325.893879
340.408647
339.599208
328.672661
322.221574
324.25907
339.990483
339.866108
326.486067
325.874806
340.465279
339.611952
328.154158
321.597846
323.431993
339.984655
339.951407
325.975453
325.282133
340.173324
339.902797
325.87885
325.889723
340.23069
339.913883
326.142859
326.031676
340.432327
339.708262
328.300955
321.635264
323.17191
339.991548
340.099
325.65384
324.745214
340.129293
340.068531
324.957749
325.587939
340.232938
340.06606
339.929281
328.003559
325.09364
340.56375
339.82778
328.959399
322.881172
323.888643
340.017331
340.249286
328.593996
327.217849
340.229819
340.10225
329.268116
327.639906
326.110756
326.104034
340.255693
340.030662
329.187501
326.737727
324.60022
325.007919
340.11792
329.396438
322.906101
339.934198
339.857301
327.042621
323.605414
339.961752
339.687162
328.448234
318.860466
320.414055
339.480514
339.925758
339.618114
340.03563
339.815116
329.217631
322.707584
322.786458
339.508638
339.772706
329.454943
320.436975
324.506155
339.601744
329.175496
320.863179
339.442253
339.71733
324.481416
322.450584
339.215411
339.807902
339.363048
339.903439
328.79003
323.720346
339.517608
339.73723
329.370599
320.491524
321.501645
339.456308
339.985226
339.847855
328.88731
323.373915
320.808294
320.863915
339.390669
339.826296
339.784237
329.469077
324.400526
339.194964
340.016132
329.742927
327.486956
339.218163
339.89968
329.562361
327.859116
325.727483
325.731391
339.242137
339.923743
329.218346
324.098633
324.135225
339.055023
340.005033
329.289942
323.837229
323.865465
339.11382
339.86844
329.181423
322.340356
323.29387
339.283419
340.010067
339.963714
)
;

boundaryField
{
    closed
    {
        type            fixedValue;
        value           nonuniform List<scalar> 0();
    }
    open
    {
        type            zeroGradient;
    }
    sides
    {
        type            empty;
    }
    procBoundary3to2
    {
        type            processor;
        value           uniform 328.931143;
    }
    procBoundary3to4
    {
        type            processor;
        value           uniform 329.068447;
    }
}


// ************************************************************************* //
