/*--------------------------------*- C++ -*----------------------------------*\
| =========                 |                                                 |
| \\      /  F ield         | OpenFOAM: The Open Source CFD Toolbox           |
|  \\    /   O peration     | Version:  2306                                  |
|   \\  /    A nd           | Website:  www.openfoam.com                      |
|    \\/     M anipulation  |                                                 |
\*---------------------------------------------------------------------------*/
FoamFile
{
    version     2.0;
    format      ascii;
    arch        "LSB;label=32;scalar=64";
    class       volScalarField;
    location    "0.00098";
    object      prefDh_H2;
}
// * * * * * * * * * * * * * * * * * * * * * * * * * * * * * * * * * * * * * //

dimensions      [1 1 -3 0 0 0 0];

internalField   nonuniform List<scalar> 
530
(
37.3606443
29.1734848
27.4722421
28.6710882
37.8816085
36.3640022
27.7176125
24.4709324
28.7593418
38.0573243
37.6417374
28.6896255
27.3676942
29.1978539
37.8695447
32.6744107
26.9609305
24.8157471
25.759216
29.6936127
38.0642438
38.0557462
37.8549906
32.6876346
26.5112933
24.6639015
29.2236231
38.1237892
33.8292391
27.4353677
24.8509262
25.0423843
28.8960904
38.2099361
34.7894764
27.059182
24.3997536
29.1569218
38.2495322
33.531434
26.8319176
24.6271433
29.1315169
37.9181872
38.2886781
38.1108817
32.6827428
27.4186516
24.9374623
24.7624523
28.8261309
38.0783241
35.7018508
28.1587981
25.9361222
25.4850844
25.9475943
37.3299571
38.2392561
29.9491276
25.5461339
25.540048
35.9578657
38.574092
30.2133956
29.4936163
29.6230041
35.3700701
28.5952333
23.1716731
25.3213277
37.2288131
38.656279
29.7674777
28.4137365
29.6845153
38.4721196
28.8646245
27.6467867
34.3854975
36.7566155
28.0541435
22.8662893
28.9893157
37.5012953
38.4217625
28.7382666
27.6394689
36.9675926
38.3738616
26.7830212
22.039256
29.0480527
37.4079981
36.8438434
27.8778824
29.8466501
37.6850604
36.7727262
28.1099592
29.4359771
37.4933013
34.435307
25.5081462
23.8063702
29.1147232
37.4850229
32.7777054
25.8854074
24.642593
29.6907769
37.6700108
31.5221152
25.6871488
24.8049816
30.0653143
37.9903828
30.2770517
29.4851795
29.2833883
37.8110213
30.2972168
25.0676326
24.8939956
31.4540312
37.9059407
29.9941868
25.6482015
25.5894678
32.4972109
37.9976229
29.8024327
25.5615278
25.7026609
32.8714106
38.0268799
29.5882794
25.2707878
25.6063282
33.1416553
38.2392354
29.1421107
29.6557441
30.2053146
37.7812849
29.6692425
25.0291743
25.591081
32.9660443
37.922985
29.4172891
25.0536967
25.6113135
34.0631059
38.1004803
28.9822861
29.6094432
30.4850023
37.5329033
29.6141407
25.3433369
25.2675032
32.9261061
37.6879957
29.5458739
25.2006937
25.0603879
34.2797384
37.9438679
28.9938164
29.7937472
29.8064619
37.1224244
30.5562244
26.3729485
25.5549648
31.4734838
37.4536577
31.1008125
27.5497906
26.6539892
31.9910229
37.6602693
32.4086087
28.7809584
26.3255975
26.7950823
26.6668657
29.2507074
36.0103468
38.2659852
29.0339238
29.5193791
30.4736333
37.4557967
29.0237778
29.0485827
29.9830198
37.2960419
29.0272743
23.5372024
24.1602397
33.9849394
37.3309392
28.7525759
27.9724992
31.7547476
37.0173161
28.6778439
27.7675423
32.889522
36.5123164
28.6841476
22.20148
28.0172647
37.5591084
35.7535723
29.3337578
28.7184174
34.982889
35.4217336
29.4008049
28.8435527
35.5784873
34.8365175
28.0676343
23.8175227
28.2138286
37.5475393
31.9971542
29.3871692
28.5275262
34.9169557
32.5650524
29.3642493
28.5388685
35.4450553
33.6679588
28.6233981
25.6774637
28.5294473
36.5943496
30.9356631
29.5725752
28.3922764
36.4289332
33.7670606
28.9453236
26.2221133
28.5274533
36.7985259
33.5935204
28.2650203
25.7106513
28.4238934
36.9683097
32.7229576
29.5040387
28.6860893
36.4198938
35.2286209
29.1629577
26.2700114
28.4426971
37.2895373
35.6262824
29.155889
25.4823198
28.4058316
37.476404
36.3496803
28.9563067
25.3082975
28.5746312
37.4828145
36.8933006
28.8376725
24.877933
28.9283344
37.4332181
37.3586669
28.8183084
24.4662131
27.9993275
36.8533808
38.1138295
28.9458609
29.3090816
32.3303091
37.982822
28.9449048
24.9651995
27.1375125
35.8723387
38.0656295
29.0891973
24.9336853
26.3268062
35.8764128
38.0940669
29.2488428
25.199555
25.8658576
35.6753277
38.1040502
29.4105095
25.3114902
25.4871645
36.0986251
38.1222648
29.4942934
25.2650009
25.3373712
36.3608335
38.0975289
29.438705
24.8847229
25.0623715
36.2368988
38.0635945
29.2784275
25.091862
24.9506867
31.0619836
38.2141424
37.9157851
29.0234528
23.4823618
23.7936644
35.2409066
37.7346653
29.1508265
23.8125633
24.5596356
36.0442809
37.6643757
29.1068047
23.9858452
24.773843
35.5338378
38.0720472
29.1303941
29.3019735
32.6814336
37.7497699
28.9202869
23.9717883
25.0988016
36.0495028
38.0816719
29.2879934
29.1965886
34.6870661
38.0148827
28.9788681
25.7893369
26.2019863
24.5425975
25.6817733
36.7777522
38.1602907
29.3856908
29.4529026
35.1526473
37.9838177
29.0198672
21.9931339
23.4700985
37.6060005
38.3020325
29.5488825
26.7376451
34.488771
38.4915524
29.4685972
25.6123987
34.7843103
38.4667496
29.6149899
25.1633552
35.0601853
38.4512196
29.4860408
25.2108866
35.4601207
38.4290131
29.3402673
25.4846442
36.1095349
38.395519
29.2435381
26.0005552
37.2738302
38.0450143
29.4420008
20.3589084
23.742504
37.5146329
38.5566009
29.6269072
26.1811317
37.2434668
38.5257288
28.6900655
26.0568089
37.2544308
38.4958213
28.4712728
26.1511399
37.6095969
38.1509333
29.3356098
20.4855593
24.0996847
37.6165114
38.6977815
29.1053224
26.2364518
37.4590092
38.6854853
28.3459836
26.310638
37.4719514
38.6629273
28.6623558
27.0956688
37.7756381
38.2270338
28.8722686
21.6234001
26.2054433
37.3562741
38.6773496
38.3820126
28.8457765
23.5826479
25.7823987
23.7162864
26.2849966
37.5753587
38.5219498
38.5624522
28.959188
28.7131678
38.0339969
38.5115377
28.8319586
22.6218418
26.9412009
38.0038059
38.9728751
28.9837209
29.1426089
38.1809441
38.7256944
28.8470292
23.6481234
29.1442316
38.1904599
38.7339328
28.850935
24.1583741
29.0358596
38.2691842
38.7594138
28.8677568
24.2699178
28.9893024
38.3101838
38.7564864
28.9209089
24.0353071
28.9952292
38.307688
38.7337311
28.993868
23.5472296
29.0631664
38.2541037
38.6676588
28.4317007
22.8301721
28.9623056
38.1412109
38.8828041
28.3333547
28.3289122
38.3968434
38.6005378
26.6355285
21.8623055
28.62224
38.0281115
38.7477045
27.8856076
27.7229312
38.341932
38.7050814
27.5668752
28.3835067
38.6046414
38.627458
26.8799866
22.848899
29.0244145
38.1982458
38.640311
28.083259
23.6028853
28.921086
38.2955947
38.6639136
28.1577537
23.8432215
28.8673741
38.3107839
38.6574028
28.1939175
24.0003169
28.8382674
38.3513069
38.6503606
28.3889808
24.1507999
28.8165275
38.4095957
38.64853
28.3509658
23.9803581
28.7828498
)
;

boundaryField
{
    closed
    {
        type            calculated;
        value           nonuniform List<scalar> 0();
    }
    open
    {
        type            calculated;
        value           nonuniform List<scalar> 0();
    }
    sides
    {
        type            empty;
    }
    procBoundary2to1
    {
        type            processor;
        value           uniform 31.5171193;
    }
    procBoundary2to3
    {
        type            processor;
        value           uniform 38.434483;
    }
}


// ************************************************************************* //
