/*--------------------------------*- C++ -*----------------------------------*\
| =========                 |                                                 |
| \\      /  F ield         | OpenFOAM: The Open Source CFD Toolbox           |
|  \\    /   O peration     | Version:  2306                                  |
|   \\  /    A nd           | Website:  www.openfoam.com                      |
|    \\/     M anipulation  |                                                 |
\*---------------------------------------------------------------------------*/
FoamFile
{
    version     2.0;
    format      ascii;
    arch        "LSB;label=32;scalar=64";
    class       volScalarField;
    location    "0.00098";
    object      prefDh_T;
}
// * * * * * * * * * * * * * * * * * * * * * * * * * * * * * * * * * * * * * //

dimensions      [1 1 -3 -1 0 0 0];

internalField   nonuniform List<scalar> 
530
(
-0.000729283178
-0.000595299861
-0.000572407329
-0.000589202133
-0.000737766682
-0.000714538503
-0.000576488961
-0.000521928232
-0.000592475456
-0.000740282223
-0.000733713417
-0.000589646206
-0.000570585566
-0.000595598553
-0.000737198956
-0.000652411984
-0.000563829652
-0.000527560133
-0.000543504888
-0.000603417988
-0.000739781021
-0.000739424903
-0.000736400233
-0.000652595262
-0.000556075394
-0.000525077424
-0.000596083992
-0.000740964398
-0.000671798763
-0.000571760205
-0.000528129498
-0.000531414177
-0.00059162593
-0.000742376961
-0.000687938661
-0.000565296255
-0.000520662077
-0.000595097931
-0.000742854573
-0.000666772547
-0.000561434534
-0.000524484199
-0.000594648621
-0.000737618632
-0.000742992061
-0.000740250603
-0.000652550536
-0.000571405168
-0.00052953567
-0.000526674409
-0.000591166116
-0.000740271468
-0.000703376717
-0.00058391517
-0.000546577762
-0.000539019253
-0.0005467339
-0.000729769683
-0.000742143788
-0.000607682757
-0.000539984484
-0.000539700885
-0.000707812719
-0.000747295127
-0.000611875766
-0.000605897722
-0.000602335026
-0.000697747341
-0.000587715372
-0.000500015068
-0.000535992036
-0.000728229452
-0.000748609848
-0.000604791917
-0.00058802071
-0.000603294117
-0.000746704522
-0.000592974751
-0.000575452952
-0.000681279861
-0.000720809523
-0.000581833848
-0.000494772278
-0.000595617775
-0.000730919329
-0.000746156931
-0.000593560692
-0.000575307407
-0.000723687143
-0.000745138797
-0.000560439389
-0.000480734279
-0.000596350217
-0.000729517339
-0.000722313192
-0.00057905176
-0.000612279824
-0.000734021422
-0.000721222927
-0.00058287197
-0.000604130166
-0.000731045988
-0.000681923759
-0.000539029283
-0.000510547031
-0.000594582443
-0.000730683035
-0.000654109899
-0.000545487352
-0.000524628035
-0.000603437873
-0.000733642942
-0.000633236026
-0.000542179591
-0.000527340066
-0.00060940015
-0.000738737626
-0.000612849546
-0.000606080306
-0.000596917438
-0.000736187649
-0.000613173988
-0.000531803729
-0.000528859757
-0.000632141832
-0.000737476799
-0.000608330147
-0.000541650396
-0.000540609871
-0.000649484062
-0.000738856823
-0.000605300486
-0.000540197956
-0.000542524062
-0.000655746732
-0.000739397046
-0.000601917721
-0.000535308467
-0.000540895227
-0.000660263312
-0.000742813969
-0.000595203069
-0.000609086283
-0.000611631756
-0.000735833631
-0.000603088021
-0.000531236746
-0.00054065117
-0.000657334754
-0.000737949324
-0.000599199395
-0.000531694967
-0.000541043162
-0.000675732906
-0.000740886855
-0.000593133808
-0.000608409956
-0.000616193902
-0.000732028389
-0.000602208463
-0.000536553444
-0.000535275965
-0.000656672161
-0.00073447713
-0.000601152197
-0.000534190194
-0.000531828169
-0.000679398426
-0.000738682267
-0.000593019006
-0.000611509385
-0.000605192448
-0.00072573552
-0.000617373141
-0.000553851835
-0.000540108287
-0.000632473524
-0.000730684365
-0.000626299559
-0.000573710417
-0.000558637316
-0.000641042767
-0.000733522794
-0.000647896837
-0.000594196634
-0.000553026905
-0.000560879239
-0.000558850402
-0.000601390298
-0.000708399632
-0.000743134795
-0.00059366671
-0.000606124164
-0.000616021015
-0.000731025487
-0.000593086147
-0.00059891761
-0.000608037977
-0.000728616687
-0.00059292166
-0.000505998014
-0.000516407979
-0.000674394993
-0.000729048501
-0.000590712468
-0.000580752049
-0.000637126652
-0.000724031425
-0.000589854292
-0.000577245358
-0.000656029251
-0.000716214575
-0.000590918701
-0.000483477975
-0.000579936001
-0.000732697404
-0.000703999253
-0.000603799062
-0.000593079616
-0.000691074905
-0.000698394335
-0.000604549103
-0.000594544823
-0.000701223821
-0.000688590367
-0.00058226375
-0.000510724624
-0.000580236577
-0.000732430031
-0.000641116244
-0.000604595021
-0.000587740599
-0.000690055765
-0.000650583747
-0.000603505445
-0.000587366538
-0.000699023552
-0.000669012038
-0.000591657542
-0.000542154065
-0.000585054529
-0.00071800297
-0.000623588112
-0.000607375688
-0.000583762341
-0.000715700441
-0.000670677983
-0.000597156604
-0.000551357837
-0.000585437828
-0.000721059021
-0.000667738373
-0.000585749236
-0.000542722354
-0.000583864159
-0.000723712137
-0.000653221586
-0.000605749594
-0.000589994023
-0.000715505853
-0.000695261105
-0.000599620028
-0.000552229511
-0.000585092071
-0.000728541896
-0.000701936788
-0.000599562069
-0.000538919746
-0.000585241821
-0.000731483097
-0.000713943378
-0.000595392285
-0.000535995212
-0.00058911022
-0.000731610228
-0.00072222979
-0.000592664398
-0.000528734715
-0.000596369848
-0.000730913548
-0.000729309495
-0.000591750861
-0.000521794089
-0.000580943151
-0.000722126695
-0.000741022241
-0.000594044542
-0.000603242613
-0.000646721365
-0.000738765997
-0.000592110891
-0.000530224771
-0.000566576124
-0.00070624546
-0.000739879767
-0.000594611127
-0.000529664111
-0.000552975405
-0.000706353564
-0.000740235599
-0.000596965866
-0.000534147726
-0.000545246239
-0.000702965776
-0.000740286218
-0.000599415025
-0.00053604651
-0.00053888864
-0.000710146858
-0.000740463638
-0.000600762094
-0.000535271893
-0.000536363116
-0.000714609072
-0.000740045991
-0.000600028925
-0.000528842945
-0.000531712976
-0.000712542532
-0.000739586324
-0.000597598418
-0.00053220935
-0.000529733145
-0.000625666336
-0.000741558508
-0.000736888703
-0.000593466112
-0.000505116885
-0.000510215388
-0.000695659363
-0.000734607872
-0.000596023135
-0.000510722647
-0.000523181855
-0.000709192828
-0.00073341955
-0.000595464651
-0.000513638393
-0.00052672468
-0.000700521374
-0.000739742117
-0.000596155847
-0.00060264378
-0.000652594108
-0.00073488079
-0.000592482289
-0.000513428935
-0.00053219463
-0.000709152004
-0.000739789163
-0.000599275048
-0.000600404273
-0.000686284955
-0.000738874585
-0.000594220604
-0.000544024185
-0.000550889311
-0.000523111078
-0.000542107623
-0.000720678109
-0.000740885493
-0.000601844164
-0.000605549634
-0.000694162095
-0.000738361364
-0.000595746058
-0.000480004147
-0.000504782381
-0.000733476478
-0.00074341007
-0.000606156757
-0.000559896598
-0.00068295831
-0.000746504611
-0.000605361019
-0.000540966645
-0.000687963574
-0.000746137117
-0.000608327217
-0.000533410947
-0.000692624285
-0.000745907278
-0.000606303363
-0.000534222941
-0.000699374562
-0.00074553035
-0.000603940153
-0.000538852338
-0.00071034154
-0.000744897132
-0.000602389332
-0.000547597372
-0.000729159269
-0.000739367982
-0.000604900111
-0.000452352797
-0.000509420671
-0.000731765022
-0.000747479366
-0.000608828049
-0.000550565646
-0.00072831145
-0.000746935266
-0.000593088633
-0.000548481718
-0.000728376006
-0.000746424511
-0.00058931457
-0.000550104031
-0.00073396059
-0.000741035132
-0.000603337491
-0.000454465172
-0.00051541476
-0.000733159746
-0.000749669357
-0.000599857038
-0.000551414189
-0.000731317027
-0.000749340172
-0.000587053291
-0.000552657313
-0.000731342496
-0.000748847423
-0.000592270587
-0.000565936985
-0.00073603579
-0.000742000794
-0.000594945503
-0.000473716264
-0.000550792607
-0.000729109586
-0.000748184574
-0.000744221093
-0.000594727217
-0.000506823972
-0.0005436434
-0.000509079562
-0.000552193464
-0.000732367675
-0.000745668454
-0.00074740999
-0.0005965905
-0.000593169941
-0.00073975012
-0.000746468019
-0.000594601488
-0.000490485553
-0.000563196399
-0.000738605926
-0.000753790714
-0.000596823723
-0.00060025096
-0.000741813032
-0.000749787718
-0.000594757157
-0.000507783458
-0.000600252858
-0.000741430996
-0.000749872999
-0.000594268009
-0.000516370285
-0.000597910197
-0.000742602301
-0.0007502576
-0.000594699001
-0.000518249985
-0.000596903627
-0.000743225308
-0.000750244287
-0.000595896239
-0.000514300756
-0.000596995081
-0.00074320451
-0.00074995014
-0.000597518305
-0.000506077565
-0.000598326354
-0.000742425554
-0.00074898856
-0.000588205256
-0.000494002647
-0.000597216328
-0.000740694855
-0.000752760511
-0.000586603406
-0.000586687409
-0.000744967037
-0.000747972541
-0.000557993235
-0.000477684012
-0.000591550939
-0.000738929918
-0.000750744137
-0.00057912615
-0.000576525847
-0.000743993361
-0.000749987894
-0.000573685118
-0.000587686807
-0.000747976297
-0.000748340626
-0.000562118754
-0.000494325712
-0.000597245476
-0.000741385605
-0.000748654021
-0.000582390133
-0.000507007921
-0.000594982884
-0.000742845796
-0.000748981404
-0.000583616616
-0.000511049778
-0.000593821686
-0.000743030558
-0.000748860376
-0.000584220206
-0.000513688715
-0.000593142008
-0.000743613607
-0.0007487304
-0.000587492363
-0.000516215936
-0.000592745033
-0.000744495445
-0.000748738311
-0.000586835523
-0.00051333464
-0.00059229038
)
;

boundaryField
{
    closed
    {
        type            calculated;
        value           nonuniform List<scalar> 0();
    }
    open
    {
        type            calculated;
        value           nonuniform List<scalar> 0();
    }
    sides
    {
        type            empty;
    }
    procBoundary2to1
    {
        type            processor;
        value           uniform -0.000633206017;
    }
    procBoundary2to3
    {
        type            processor;
        value           uniform -0.000744908301;
    }
}


// ************************************************************************* //
