/*--------------------------------*- C++ -*----------------------------------*\
| =========                 |                                                 |
| \\      /  F ield         | OpenFOAM: The Open Source CFD Toolbox           |
|  \\    /   O peration     | Version:  2306                                  |
|   \\  /    A nd           | Website:  www.openfoam.com                      |
|    \\/     M anipulation  |                                                 |
\*---------------------------------------------------------------------------*/
FoamFile
{
    version     2.0;
    format      ascii;
    arch        "LSB;label=32;scalar=64";
    class       volScalarField;
    location    "0.00186";
    object      prefDPV_H2O;
}
// * * * * * * * * * * * * * * * * * * * * * * * * * * * * * * * * * * * * * //

dimensions      [1 -1 -1 0 0 0 0];

internalField   nonuniform List<scalar> 
531
(
-3.86933614e-07
-3.84505029e-07
-3.66023709e-07
-3.65126374e-07
-3.85827288e-07
-3.84171474e-07
-3.85176695e-07
-3.77604041e-07
-3.63842704e-07
-3.63695009e-07
-3.86732441e-07
-3.84705494e-07
-3.72298647e-07
-3.63528662e-07
-3.63432953e-07
-3.86498908e-07
-3.69890173e-07
-3.63019606e-07
-3.75556023e-07
-3.85254345e-07
-3.84552365e-07
-3.85185593e-07
-3.84432654e-07
-3.85794581e-07
-3.6634973e-07
-3.6540142e-07
-3.62715597e-07
-3.62636712e-07
-3.87184708e-07
-3.84561658e-07
-3.65726101e-07
-3.64908184e-07
-3.87188025e-07
-3.83946858e-07
-3.84714221e-07
-3.73196489e-07
-3.66224231e-07
-3.63399274e-07
-3.6326247e-07
-3.87036623e-07
-3.84565681e-07
-3.66051023e-07
-3.64219842e-07
-3.87038345e-07
-3.84394694e-07
-3.65921316e-07
-3.64140314e-07
-3.8668526e-07
-3.84421539e-07
-3.67392353e-07
-3.64049024e-07
-3.705919e-07
-3.84817751e-07
-3.83462277e-07
-3.83549742e-07
-3.68698799e-07
-3.65486743e-07
-3.86287883e-07
-3.83827385e-07
-3.66660134e-07
-3.66327428e-07
-3.86608696e-07
-3.70647433e-07
-3.63814524e-07
-3.87108611e-07
-3.84244981e-07
-3.8474138e-07
-3.74177592e-07
-3.66335657e-07
-3.63542709e-07
-3.63486374e-07
-3.8668617e-07
-3.84955046e-07
-3.70072661e-07
-3.62316598e-07
-3.62202383e-07
-3.86850445e-07
-3.84711208e-07
-3.65954343e-07
-3.63877821e-07
-3.87179036e-07
-3.84429108e-07
-3.65387889e-07
-3.64260389e-07
-3.87289348e-07
-3.84072895e-07
-3.84514986e-07
-3.66498327e-07
-3.64508689e-07
-3.75911521e-07
-3.84603069e-07
-3.8498316e-07
-3.84045696e-07
-3.85637543e-07
-3.67846725e-07
-3.63749681e-07
-3.63590297e-07
-3.86092647e-07
-3.84649566e-07
-3.72408367e-07
-3.63750733e-07
-3.6368317e-07
-3.86324999e-07
-3.69318984e-07
-3.6348304e-07
-3.86794105e-07
-3.84467579e-07
-3.65949523e-07
-3.65206386e-07
-3.87004478e-07
-3.83951104e-07
-3.84636518e-07
-3.74250192e-07
-3.66267077e-07
-3.63404186e-07
-3.63280216e-07
-3.86891017e-07
-3.84331575e-07
-3.65769654e-07
-3.65532352e-07
-3.86936506e-07
-3.68343139e-07
-3.62605188e-07
-3.8748079e-07
-3.84486408e-07
-3.85152794e-07
-3.66710978e-07
-3.64891493e-07
-3.86854852e-07
-3.83988594e-07
-3.84521379e-07
-3.68505914e-07
-3.65561303e-07
-3.86049742e-07
-3.83958909e-07
-3.71156466e-07
-3.66501042e-07
-3.63838667e-07
-3.63777745e-07
-3.86673216e-07
-3.67599001e-07
-3.62973046e-07
-3.87465558e-07
-3.8447597e-07
-3.85264746e-07
-3.6677469e-07
-3.65173589e-07
-3.86960589e-07
-3.69934331e-07
-3.6229206e-07
-3.76012482e-07
-3.84579674e-07
-3.84585843e-07
-3.68931964e-07
-3.63938839e-07
-3.75583747e-07
-3.85028347e-07
-3.84430065e-07
-3.85075724e-07
-3.84322441e-07
-3.85597339e-07
-3.6637953e-07
-3.6553189e-07
-3.6312999e-07
-3.63086166e-07
-3.86571835e-07
-3.68581788e-07
-3.62682412e-07
-3.86717945e-07
-3.84854687e-07
-3.66258872e-07
-3.64014657e-07
-3.86419529e-07
-3.84668015e-07
-3.69943278e-07
-3.63503077e-07
-3.6306319e-07
-3.70942362e-07
-3.85058054e-07
-3.83579654e-07
-3.83742591e-07
-3.6846721e-07
-3.64714086e-07
-3.86125915e-07
-3.84593195e-07
-3.70823083e-07
-3.63195035e-07
-3.62996676e-07
-3.7493056e-07
-3.84972802e-07
-3.84094295e-07
-3.84246016e-07
-3.74906841e-07
-3.66181945e-07
-3.6353198e-07
-3.63346322e-07
-3.86961423e-07
-3.84508339e-07
-3.66127741e-07
-3.64355062e-07
-3.86982046e-07
-3.84336089e-07
-3.66059291e-07
-3.64465995e-07
-3.8677676e-07
-3.84309597e-07
-3.66403532e-07
-3.64593497e-07
-3.75392025e-07
-3.84650539e-07
-3.84284737e-07
-3.84346803e-07
-3.84089187e-07
-3.79184583e-07
-3.66758718e-07
-3.65113891e-07
-3.65016306e-07
-3.61788782e-07
-3.61736125e-07
-3.86080471e-07
-3.84608451e-07
-3.84843122e-07
-3.65988302e-07
-3.64486641e-07
-3.86927534e-07
-3.84131329e-07
-3.84338599e-07
-3.66508413e-07
-3.6470196e-07
-3.86272144e-07
-3.84603962e-07
-3.71067125e-07
-3.63356291e-07
-3.63221245e-07
-3.86590078e-07
-3.84472173e-07
-3.66886825e-07
-3.64850091e-07
-3.86244822e-07
-3.84465898e-07
-3.71444643e-07
-3.63792426e-07
-3.63766733e-07
-3.86350007e-07
-3.84681376e-07
-3.71728108e-07
-3.63664171e-07
-3.63514759e-07
-3.86438663e-07
-3.84204261e-07
-3.66651251e-07
-3.66171009e-07
-3.86517562e-07
-3.7243281e-07
-3.63582362e-07
-3.86545718e-07
-3.84434547e-07
-3.66630183e-07
-3.65047491e-07
-3.86349168e-07
-3.8408356e-07
-3.66927549e-07
-3.65445011e-07
-3.8606893e-07
-3.83951969e-07
-3.69803643e-07
-3.6611992e-07
-3.63243471e-07
-3.63184471e-07
-3.8690718e-07
-3.84171104e-07
-3.84775479e-07
-3.68082878e-07
-3.64770947e-07
-3.86325984e-07
-3.84164176e-07
-3.66689793e-07
-3.64959321e-07
-3.86485213e-07
-3.84061685e-07
-3.66491836e-07
-3.64972355e-07
-3.86564981e-07
-3.83991935e-07
-3.66118296e-07
-3.65304968e-07
-3.86731202e-07
-3.83711645e-07
-3.84387487e-07
-3.70822805e-07
-3.65851968e-07
-3.62995594e-07
-3.62944532e-07
-3.87118741e-07
-3.84122624e-07
-3.85096488e-07
-3.70553348e-07
-3.62545034e-07
-3.62444396e-07
-3.86943726e-07
-3.84418498e-07
-3.84636748e-07
-3.66099939e-07
-3.63308828e-07
-3.86438728e-07
-3.85923782e-07
-3.67745205e-07
-3.8638352e-07
-3.83763214e-07
-3.6631825e-07
-3.6504879e-07
-3.86394614e-07
-3.84087169e-07
-3.68789876e-07
-3.65712118e-07
-3.62798698e-07
-3.62767058e-07
-3.87278837e-07
-3.8447476e-07
-3.84843653e-07
-3.66486675e-07
-3.65540236e-07
-3.86948725e-07
-3.68426981e-07
-3.61957594e-07
-3.84425816e-07
-3.85217041e-07
-3.85158567e-07
-3.84972992e-07
-3.74667324e-07
-3.63476059e-07
-3.63381992e-07
-3.86404634e-07
-3.84762623e-07
-3.70485335e-07
-3.63351916e-07
-3.63296276e-07
-3.86300058e-07
-3.8481358e-07
-3.70426064e-07
-3.62858328e-07
-3.62822089e-07
-3.86572851e-07
-3.8427255e-07
-3.84391074e-07
-3.66910914e-07
-3.64939089e-07
-3.86033197e-07
-3.84536826e-07
-3.70964478e-07
-3.63325691e-07
-3.63274612e-07
-3.86487224e-07
-3.84191339e-07
-3.84203244e-07
-3.66879228e-07
-3.65314868e-07
-3.85957036e-07
-3.84392304e-07
-3.71492501e-07
-3.63996994e-07
-3.63917503e-07
-3.86190579e-07
-3.84561175e-07
-3.71066993e-07
-3.63795806e-07
-3.63768908e-07
-3.86124872e-07
-3.84665019e-07
-3.71005399e-07
-3.63584446e-07
-3.63454677e-07
-3.86331451e-07
-3.84332948e-07
-3.66847966e-07
-3.64978973e-07
-3.86092585e-07
-3.84076892e-07
-3.68822623e-07
-3.65519028e-07
-3.62798475e-07
-3.62668484e-07
-3.84367396e-07
-3.84520985e-07
-3.85446477e-07
-3.84058457e-07
-3.84379435e-07
-3.72728225e-07
-3.64110441e-07
-3.63898349e-07
-3.86385105e-07
-3.84213753e-07
-3.6669978e-07
-3.64968141e-07
-3.86181231e-07
-3.8412193e-07
-3.66805542e-07
-3.65049617e-07
-3.85948961e-07
-3.84406711e-07
-3.70729298e-07
-3.63731175e-07
-3.63584736e-07
-3.86177414e-07
-3.84370504e-07
-3.66881642e-07
-3.64848159e-07
-3.8601394e-07
-3.84472112e-07
-3.70278624e-07
-3.6349796e-07
-3.63442383e-07
-3.86303237e-07
-3.85461819e-07
-3.68248918e-07
-3.86261373e-07
-3.8393376e-07
-3.70044709e-07
-3.64280477e-07
-3.64250962e-07
-3.85958202e-07
-3.84549044e-07
-3.70436682e-07
-3.63568411e-07
-3.63466045e-07
-3.8611569e-07
-3.84714826e-07
-3.69646787e-07
-3.62624795e-07
-3.62555953e-07
-3.86440227e-07
-3.84268482e-07
-3.84518912e-07
-3.6657952e-07
-3.65174453e-07
-3.86546453e-07
-3.8379207e-07
-3.84738468e-07
-3.72462911e-07
-3.63484794e-07
-3.63401167e-07
-3.86300159e-07
-3.8400162e-07
-3.8439409e-07
-3.69292194e-07
-3.655736e-07
-3.85682895e-07
-3.83826841e-07
-3.70754979e-07
-3.66207045e-07
-3.6441701e-07
-3.64275307e-07
-3.86180729e-07
-3.84138109e-07
-3.66831447e-07
-3.65286159e-07
-3.85919633e-07
-3.83964677e-07
-3.69196394e-07
-3.65706758e-07
-3.63657717e-07
-3.63501673e-07
-3.8660072e-07
-3.84381712e-07
-3.65879699e-07
-3.64416802e-07
-3.86654213e-07
-3.8421823e-07
-3.65440744e-07
-3.64725404e-07
-3.86794536e-07
-3.84037576e-07
-3.84426782e-07
-3.66370068e-07
-3.64376919e-07
-3.86351555e-07
-3.84445239e-07
-3.66275113e-07
-3.63995824e-07
-3.86243777e-07
-3.84866603e-07
-3.68534597e-07
-3.61700286e-07
-3.6160134e-07
-3.87258462e-07
-3.84684581e-07
-3.85592731e-07
-3.84202682e-07
-3.8427279e-07
-3.67358887e-07
-3.66274648e-07
-3.8611242e-07
-3.69427797e-07
-3.63947917e-07
-3.86543775e-07
-3.83993433e-07
-3.84497667e-07
-3.70724074e-07
-3.65051484e-07
-3.65035577e-07
-3.62775487e-07
-3.62634514e-07
-3.86887421e-07
-3.84541698e-07
-3.65251631e-07
-3.64433636e-07
-3.86919755e-07
-3.84097033e-07
-3.84582895e-07
-3.66572253e-07
-3.64670289e-07
-3.86327358e-07
-3.8414581e-07
-3.66075994e-07
-3.65499341e-07
-3.86482113e-07
-3.83799521e-07
-3.84400699e-07
-3.73460603e-07
-3.6608762e-07
-3.64094193e-07
-3.64050565e-07
-3.86161096e-07
-3.84659859e-07
-3.68801048e-07
-3.62898637e-07
-3.62794054e-07
-3.86419089e-07
-3.84044542e-07
-3.84583211e-07
-3.69236775e-07
)
;

boundaryField
{
    closed
    {
        type            calculated;
        value           nonuniform List<scalar> 0();
    }
    open
    {
        type            calculated;
        value           nonuniform List<scalar> 0();
    }
    sides
    {
        type            empty;
    }
    procBoundary1to0
    {
        type            processor;
        value           uniform -3.63323161e-07;
    }
    procBoundary1to2
    {
        type            processor;
        value           uniform -3.63419885e-07;
    }
}


// ************************************************************************* //
