/*--------------------------------*- C++ -*----------------------------------*\
| =========                 |                                                 |
| \\      /  F ield         | OpenFOAM: The Open Source CFD Toolbox           |
|  \\    /   O peration     | Version:  2306                                  |
|   \\  /    A nd           | Website:  www.openfoam.com                      |
|    \\/     M anipulation  |                                                 |
\*---------------------------------------------------------------------------*/
FoamFile
{
    version     2.0;
    format      ascii;
    arch        "LSB;label=32;scalar=64";
    class       volScalarField;
    location    "0.00186";
    object      prefDZ_H2O;
}
// * * * * * * * * * * * * * * * * * * * * * * * * * * * * * * * * * * * * * //

dimensions      [1 -1 -1 0 0 0 0];

internalField   nonuniform List<scalar> 
531
(
-7.8003495e-07
-7.75139068e-07
-7.37881836e-07
-7.36072863e-07
-7.77804663e-07
-7.74466642e-07
-7.76493107e-07
-7.61227091e-07
-7.33485062e-07
-7.33187316e-07
-7.79629398e-07
-7.75543194e-07
-7.50531735e-07
-7.3285197e-07
-7.32659027e-07
-7.79158608e-07
-7.45676395e-07
-7.31825745e-07
-7.57098409e-07
-7.76649643e-07
-7.75234495e-07
-7.76511045e-07
-7.74993164e-07
-7.77738727e-07
-7.38539074e-07
-7.36627339e-07
-7.31212882e-07
-7.31053854e-07
-7.8054114e-07
-7.75253229e-07
-7.37281876e-07
-7.35633004e-07
-7.80547827e-07
-7.74013829e-07
-7.75560786e-07
-7.5234173e-07
-7.38286077e-07
-7.32591133e-07
-7.32315343e-07
-7.80242611e-07
-7.7526134e-07
-7.37936899e-07
-7.34245349e-07
-7.80246082e-07
-7.74916639e-07
-7.37675418e-07
-7.34085024e-07
-7.79534283e-07
-7.74970758e-07
-7.4064094e-07
-7.33900989e-07
-7.47091035e-07
-7.75769497e-07
-7.73036942e-07
-7.73213266e-07
-7.43274658e-07
-7.36799345e-07
-7.78733194e-07
-7.73772978e-07
-7.3916483e-07
-7.38494115e-07
-7.79379934e-07
-7.47202987e-07
-7.33428251e-07
-7.80387733e-07
-7.74614826e-07
-7.75615537e-07
-7.54319574e-07
-7.38510704e-07
-7.32880288e-07
-7.32766722e-07
-7.79536118e-07
-7.76046276e-07
-7.46044281e-07
-7.30408523e-07
-7.30178272e-07
-7.79867286e-07
-7.75554712e-07
-7.37741998e-07
-7.33555854e-07
-7.80529707e-07
-7.74986017e-07
-7.36600061e-07
-7.34327089e-07
-7.80752088e-07
-7.74267912e-07
-7.7515914e-07
-7.38838637e-07
-7.34827647e-07
-7.57815071e-07
-7.7533671e-07
-7.76102951e-07
-7.7421308e-07
-7.77422149e-07
-7.41556926e-07
-7.33297532e-07
-7.32976223e-07
-7.78339611e-07
-7.75430446e-07
-7.50752923e-07
-7.33299652e-07
-7.33163449e-07
-7.78808018e-07
-7.44524913e-07
-7.32759999e-07
-7.79753708e-07
-7.75063572e-07
-7.37732282e-07
-7.36234161e-07
-7.80177808e-07
-7.74022388e-07
-7.75404143e-07
-7.54465932e-07
-7.38372452e-07
-7.32601034e-07
-7.32351119e-07
-7.79949078e-07
-7.74789396e-07
-7.37369676e-07
-7.36891289e-07
-7.8004078e-07
-7.42557667e-07
-7.30990302e-07
-7.81138024e-07
-7.7510153e-07
-7.76444924e-07
-7.3926733e-07
-7.35599357e-07
-7.79876171e-07
-7.74097966e-07
-7.75172028e-07
-7.42885813e-07
-7.36949654e-07
-7.78253116e-07
-7.74038123e-07
-7.48229166e-07
-7.3884411e-07
-7.33476923e-07
-7.33354108e-07
-7.79510004e-07
-7.4105753e-07
-7.31731883e-07
-7.81107318e-07
-7.75080487e-07
-7.76670612e-07
-7.39395769e-07
-7.36168045e-07
-7.80089329e-07
-7.45765415e-07
-7.30359055e-07
-7.58018603e-07
-7.75289548e-07
-7.75301985e-07
-7.43744703e-07
-7.33678864e-07
-7.57154298e-07
-7.76194046e-07
-7.74987944e-07
-7.76289554e-07
-7.74770981e-07
-7.773411e-07
-7.3859915e-07
-7.36890357e-07
-7.32048273e-07
-7.31959926e-07
-7.79305626e-07
-7.4303877e-07
-7.31145982e-07
-7.79600174e-07
-7.75843958e-07
-7.3835591e-07
-7.33831707e-07
-7.78998585e-07
-7.75467638e-07
-7.45783451e-07
-7.32800393e-07
-7.31913607e-07
-7.47797545e-07
-7.76253934e-07
-7.73273568e-07
-7.7360204e-07
-7.42807787e-07
-7.35241715e-07
-7.78406677e-07
-7.75316806e-07
-7.47557086e-07
-7.32179399e-07
-7.31779518e-07
-7.55837512e-07
-7.76082071e-07
-7.74311054e-07
-7.74616913e-07
-7.55789697e-07
-7.3820083e-07
-7.3285866e-07
-7.32484384e-07
-7.8009101e-07
-7.75145741e-07
-7.38091558e-07
-7.34517943e-07
-7.80132587e-07
-7.74798496e-07
-7.37953567e-07
-7.34741578e-07
-7.79718743e-07
-7.74745089e-07
-7.38647536e-07
-7.34998614e-07
-7.567678e-07
-7.75432408e-07
-7.74694973e-07
-7.74820095e-07
-7.74300756e-07
-7.64413367e-07
-7.39363569e-07
-7.36047698e-07
-7.35850973e-07
-7.29344477e-07
-7.29238324e-07
-7.78315065e-07
-7.7534756e-07
-7.75820644e-07
-7.37810457e-07
-7.34783199e-07
-7.80022693e-07
-7.74385712e-07
-7.74803556e-07
-7.3885897e-07
-7.3521727e-07
-7.78701465e-07
-7.7533851e-07
-7.4804906e-07
-7.32504481e-07
-7.32232237e-07
-7.79342401e-07
-7.75072831e-07
-7.39621827e-07
-7.35515892e-07
-7.78646386e-07
-7.75060182e-07
-7.48810113e-07
-7.33383703e-07
-7.33331908e-07
-7.78858434e-07
-7.75494574e-07
-7.49381562e-07
-7.33125149e-07
-7.32823944e-07
-7.79037158e-07
-7.74532737e-07
-7.39146923e-07
-7.38178785e-07
-7.79196215e-07
-7.50802199e-07
-7.32960226e-07
-7.79252974e-07
-7.74996981e-07
-7.39104451e-07
-7.3591384e-07
-7.78856743e-07
-7.74289411e-07
-7.39703922e-07
-7.36715215e-07
-7.78291798e-07
-7.74024133e-07
-7.45501955e-07
-7.38075792e-07
-7.32277044e-07
-7.32158102e-07
-7.7998166e-07
-7.74465896e-07
-7.75684278e-07
-7.42032996e-07
-7.35356343e-07
-7.78810003e-07
-7.7445193e-07
-7.39224622e-07
-7.35736093e-07
-7.79131001e-07
-7.74245314e-07
-7.38825552e-07
-7.35762369e-07
-7.79291807e-07
-7.74104701e-07
-7.38072517e-07
-7.36432898e-07
-7.79626899e-07
-7.73539654e-07
-7.7490211e-07
-7.47556525e-07
-7.37535616e-07
-7.31777338e-07
-7.316744e-07
-7.80408155e-07
-7.74368162e-07
-7.76331414e-07
-7.47013316e-07
-7.30869036e-07
-7.30666157e-07
-7.80055334e-07
-7.74964626e-07
-7.75404606e-07
-7.38035512e-07
-7.32408799e-07
-7.79037288e-07
-7.77999189e-07
-7.41352268e-07
-7.78925993e-07
-7.73643613e-07
-7.38475612e-07
-7.35916458e-07
-7.78948358e-07
-7.74296687e-07
-7.43458263e-07
-7.37253687e-07
-7.31380407e-07
-7.31316623e-07
-7.80730898e-07
-7.75078049e-07
-7.75821713e-07
-7.38815148e-07
-7.36907184e-07
-7.80065413e-07
-7.42726689e-07
-7.29684793e-07
-7.7497938e-07
-7.76574443e-07
-7.76456562e-07
-7.76082454e-07
-7.55306844e-07
-7.32745926e-07
-7.32556293e-07
-7.78968558e-07
-7.75658361e-07
-7.46876206e-07
-7.32495662e-07
-7.32383495e-07
-7.78757739e-07
-7.75761089e-07
-7.4675672e-07
-7.31500617e-07
-7.31427561e-07
-7.79307674e-07
-7.74670404e-07
-7.74909342e-07
-7.39670387e-07
-7.35695308e-07
-7.78219764e-07
-7.75203168e-07
-7.47842129e-07
-7.32442794e-07
-7.32339821e-07
-7.79135055e-07
-7.74506687e-07
-7.74530688e-07
-7.3960651e-07
-7.36452855e-07
-7.78066227e-07
-7.74911821e-07
-7.48906592e-07
-7.33796101e-07
-7.33635851e-07
-7.78537037e-07
-7.75252255e-07
-7.48048794e-07
-7.33390516e-07
-7.33336293e-07
-7.78404574e-07
-7.75461599e-07
-7.47924624e-07
-7.32964428e-07
-7.32702822e-07
-7.78821026e-07
-7.74792163e-07
-7.39543488e-07
-7.35775711e-07
-7.78339485e-07
-7.7427597e-07
-7.43524279e-07
-7.3686443e-07
-7.31379958e-07
-7.31117904e-07
-7.74861609e-07
-7.75171235e-07
-7.77036971e-07
-7.74238806e-07
-7.74885879e-07
-7.51397738e-07
-7.34024802e-07
-7.33597238e-07
-7.78929188e-07
-7.74551874e-07
-7.39244755e-07
-7.35753874e-07
-7.78518191e-07
-7.74366763e-07
-7.39457965e-07
-7.35918125e-07
-7.78049949e-07
-7.74940865e-07
-7.47368021e-07
-7.33260226e-07
-7.32965013e-07
-7.78510496e-07
-7.74867873e-07
-7.39611377e-07
-7.35511997e-07
-7.78180943e-07
-7.75072709e-07
-7.4645949e-07
-7.32790077e-07
-7.32678037e-07
-7.78764148e-07
-7.77067899e-07
-7.42367723e-07
-7.78679752e-07
-7.73987425e-07
-7.45987931e-07
-7.34367585e-07
-7.34308084e-07
-7.78068579e-07
-7.75227799e-07
-7.46778124e-07
-7.32932102e-07
-7.3272574e-07
-7.78386065e-07
-7.75562006e-07
-7.45185743e-07
-7.3102983e-07
-7.30891049e-07
-7.79040312e-07
-7.74662203e-07
-7.75167054e-07
-7.39002317e-07
-7.36169786e-07
-7.79254456e-07
-7.73701785e-07
-7.75609666e-07
-7.50862881e-07
-7.32763536e-07
-7.32594949e-07
-7.78757943e-07
-7.74124226e-07
-7.74915422e-07
-7.44470906e-07
-7.36974443e-07
-7.77513575e-07
-7.73771882e-07
-7.47419792e-07
-7.3825143e-07
-7.34642826e-07
-7.34357162e-07
-7.78517179e-07
-7.74399379e-07
-7.39510188e-07
-7.3639498e-07
-7.77990825e-07
-7.74049751e-07
-7.44277779e-07
-7.37242881e-07
-7.33112137e-07
-7.32797562e-07
-7.79363855e-07
-7.74890469e-07
-7.37591521e-07
-7.34642407e-07
-7.79471695e-07
-7.74560898e-07
-7.36706614e-07
-7.3526453e-07
-7.79754577e-07
-7.74196712e-07
-7.74981326e-07
-7.38580074e-07
-7.34562006e-07
-7.78861553e-07
-7.75018536e-07
-7.38388651e-07
-7.33793741e-07
-7.78644279e-07
-7.75867979e-07
-7.42943636e-07
-7.29166074e-07
-7.28966606e-07
-7.80689824e-07
-7.75501035e-07
-7.77331809e-07
-7.74529555e-07
-7.74670889e-07
-7.40573476e-07
-7.38387713e-07
-7.78379473e-07
-7.44744273e-07
-7.33697164e-07
-7.79249059e-07
-7.7410772e-07
-7.75124227e-07
-7.4735749e-07
-7.35921888e-07
-7.35889821e-07
-7.31333616e-07
-7.31049422e-07
-7.79941828e-07
-7.7521299e-07
-7.36325373e-07
-7.34676345e-07
-7.80007011e-07
-7.74316573e-07
-7.75296041e-07
-7.38987668e-07
-7.35153423e-07
-7.78812773e-07
-7.74414905e-07
-7.37987239e-07
-7.36824742e-07
-7.79124752e-07
-7.73716806e-07
-7.74928744e-07
-7.52874167e-07
-7.38010677e-07
-7.33992048e-07
-7.33904096e-07
-7.784776e-07
-7.75451197e-07
-7.43480785e-07
-7.31581879e-07
-7.31371045e-07
-7.78997699e-07
-7.74210753e-07
-7.75296678e-07
-7.44359185e-07
)
;

boundaryField
{
    closed
    {
        type            calculated;
        value           nonuniform List<scalar> 0();
    }
    open
    {
        type            calculated;
        value           nonuniform List<scalar> 0();
    }
    sides
    {
        type            empty;
    }
    procBoundary1to0
    {
        type            processor;
        value           uniform -7.32437693e-07;
    }
    procBoundary1to2
    {
        type            processor;
        value           uniform -7.32632684e-07;
    }
}


// ************************************************************************* //
