/*--------------------------------*- C++ -*----------------------------------*\
| =========                 |                                                 |
| \\      /  F ield         | OpenFOAM: The Open Source CFD Toolbox           |
|  \\    /   O peration     | Version:  2306                                  |
|   \\  /    A nd           | Website:  www.openfoam.com                      |
|    \\/     M anipulation  |                                                 |
\*---------------------------------------------------------------------------*/
FoamFile
{
    version     2.0;
    format      ascii;
    arch        "LSB;label=32;scalar=64";
    class       volVectorField;
    location    "0.00186";
    object      U;
}
// * * * * * * * * * * * * * * * * * * * * * * * * * * * * * * * * * * * * * //

dimensions      [0 1 -1 0 0 0 0];

internalField   nonuniform List<vector> 
531
(
(0.477481603 0 0)
(0.481666023 0 0)
(0.470276408 0 0)
(0.465077833 0 0)
(0.469389116 0 0)
(0.47246563 0 0)
(0.469457231 0 0)
(0.463382796 0 0)
(0.455313479 0 0)
(0.456729751 0 0)
(0.470126649 0 0)
(0.47397443 0 0)
(0.462045739 0 0)
(0.449113384 0 0)
(0.4498248 0 0)
(0.459043951 0 0)
(0.45977005 0 0)
(0.451614636 0 0)
(0.44449133 0 0)
(0.442431645 0 0)
(0.445392998 0 0)
(0.443692179 0 0)
(0.44247214 0 0)
(0.464913877 0 0)
(0.484014642 0 0)
(0.471075938 0 0)
(0.454174821 0 0)
(0.459657642 0 0)
(0.476368547 0 0)
(0.4765411 0 0)
(0.463426185 0 0)
(0.458891204 0 0)
(0.470255834 0 0)
(0.479683776 0 0)
(0.476618474 0 0)
(0.46833566 0 0)
(0.460040258 0 0)
(0.453204109 0 0)
(0.448466684 0 0)
(0.461010648 0 0)
(0.471725392 0 0)
(0.459083232 0 0)
(0.454829581 0 0)
(0.466601722 0 0)
(0.470093945 0 0)
(0.45830899 0 0)
(0.455399583 0 0)
(0.468284645 0 0)
(0.473951557 0 0)
(0.463322555 0 0)
(0.455474272 0 0)
(0.458705038 0 0)
(0.467649846 0 0)
(0.473074818 0 0)
(0.468246794 0 0)
(0.458055792 0 0)
(0.45758565 0 0)
(0.469585484 0 0)
(0.473122756 0 0)
(0.46420263 0 0)
(0.462197704 0 0)
(0.466562279 0 0)
(0.462571785 0 0)
(0.4589643 0 0)
(0.469371086 0 0)
(0.480305022 0 0)
(0.477881804 0 0)
(0.470145008 0 0)
(0.461875552 0 0)
(0.454786973 0 0)
(0.448755356 0 0)
(0.460516195 0 0)
(0.473414761 0 0)
(0.459963548 0 0)
(0.443692449 0 0)
(0.45134183 0 0)
(0.47095164 0 0)
(0.471844824 0 0)
(0.458230294 0 0)
(0.453044286 0 0)
(0.466322344 0 0)
(0.471030897 0 0)
(0.457969483 0 0)
(0.454291 0 0)
(0.467437282 0 0)
(0.4786297 0 0)
(0.475202896 0 0)
(0.469421189 0 0)
(0.46896627 0 0)
(0.465580667 0 0)
(0.463403845 0 0)
(0.464070712 0 0)
(0.46435066 0 0)
(0.483233845 0 0)
(0.494796459 0 0)
(0.477402834 0 0)
(0.465327356 0 0)
(0.473869887 0 0)
(0.480778238 0 0)
(0.469896563 0 0)
(0.457833061 0 0)
(0.457490879 0 0)
(0.466335789 0 0)
(0.46640795 0 0)
(0.461922118 0 0)
(0.471441292 0 0)
(0.474938924 0 0)
(0.463084783 0 0)
(0.459173442 0 0)
(0.470017254 0 0)
(0.478895232 0 0)
(0.475988129 0 0)
(0.46847305 0 0)
(0.46092282 0 0)
(0.454079894 0 0)
(0.449947342 0 0)
(0.462505489 0 0)
(0.472095325 0 0)
(0.460899633 0 0)
(0.458773858 0 0)
(0.463487425 0 0)
(0.457453334 0 0)
(0.452793273 0 0)
(0.464574796 0 0)
(0.47621516 0 0)
(0.474627574 0 0)
(0.461372999 0 0)
(0.453799906 0 0)
(0.463617737 0 0)
(0.471796467 0 0)
(0.467541814 0 0)
(0.457494613 0 0)
(0.455316609 0 0)
(0.464424925 0 0)
(0.46727722 0 0)
(0.458756956 0 0)
(0.44930575 0 0)
(0.44366716 0 0)
(0.455518426 0 0)
(0.466266627 0 0)
(0.45631399 0 0)
(0.450973313 0 0)
(0.461665663 0 0)
(0.472326597 0 0)
(0.464823521 0 0)
(0.455617189 0 0)
(0.457773909 0 0)
(0.462811566 0 0)
(0.459788445 0 0)
(0.453498627 0 0)
(0.448956139 0 0)
(0.44837149 0 0)
(0.44856264 0 0)
(0.441097444 0 0)
(0.435779963 0 0)
(0.433487695 0 0)
(0.432856667 0 0)
(0.435428228 0 0)
(0.43320229 0 0)
(0.431853137 0 0)
(0.453329181 0 0)
(0.471749326 0 0)
(0.460230216 0 0)
(0.445682409 0 0)
(0.443759795 0 0)
(0.451306084 0 0)
(0.450213117 0 0)
(0.444487178 0 0)
(0.454206363 0 0)
(0.457901141 0 0)
(0.445865772 0 0)
(0.441768933 0 0)
(0.453188503 0 0)
(0.4579859 0 0)
(0.448013443 0 0)
(0.445276683 0 0)
(0.456547679 0 0)
(0.46709044 0 0)
(0.475597817 0 0)
(0.48086153 0 0)
(0.476002193 0 0)
(0.463902396 0 0)
(0.463137187 0 0)
(0.477317935 0 0)
(0.482486443 0 0)
(0.471936509 0 0)
(0.469029277 0 0)
(0.481509655 0 0)
(0.486532148 0 0)
(0.486573131 0 0)
(0.490765182 0 0)
(0.492139726 0 0)
(0.487449265 0 0)
(0.480711323 0 0)
(0.474251062 0 0)
(0.468508718 0 0)
(0.480855193 0 0)
(0.490678065 0 0)
(0.478492781 0 0)
(0.475437166 0 0)
(0.487312379 0 0)
(0.489634472 0 0)
(0.478053907 0 0)
(0.475969878 0 0)
(0.488651209 0 0)
(0.493630934 0 0)
(0.490210903 0 0)
(0.490177218 0 0)
(0.487642263 0 0)
(0.486740796 0 0)
(0.490097489 0 0)
(0.490289354 0 0)
(0.487832822 0 0)
(0.491561935 0 0)
(0.496584843 0 0)
(0.492240181 0 0)
(0.482341715 0 0)
(0.475520437 0 0)
(0.48695079 0 0)
(0.498640232 0 0)
(0.496507631 0 0)
(0.493967618 0 0)
(0.480829366 0 0)
(0.475036169 0 0)
(0.488049262 0 0)
(0.497225068 0 0)
(0.491705042 0 0)
(0.478830915 0 0)
(0.476654988 0 0)
(0.488427319 0 0)
(0.491384267 0 0)
(0.478246354 0 0)
(0.464606894 0 0)
(0.472028599 0 0)
(0.489432031 0 0)
(0.489309139 0 0)
(0.477805027 0 0)
(0.47375464 0 0)
(0.483878874 0 0)
(0.486918452 0 0)
(0.475098583 0 0)
(0.462984731 0 0)
(0.470235145 0 0)
(0.487468991 0 0)
(0.488876415 0 0)
(0.476750947 0 0)
(0.46363854 0 0)
(0.45936901 0 0)
(0.472625507 0 0)
(0.481487802 0 0)
(0.471237946 0 0)
(0.468675275 0 0)
(0.472873282 0 0)
(0.467891147 0 0)
(0.46446238 0 0)
(0.474983657 0 0)
(0.478191072 0 0)
(0.467021681 0 0)
(0.463481472 0 0)
(0.473431989 0 0)
(0.475763063 0 0)
(0.465909225 0 0)
(0.463868221 0 0)
(0.474008197 0 0)
(0.476999202 0 0)
(0.468321839 0 0)
(0.459216321 0 0)
(0.45220184 0 0)
(0.448939805 0 0)
(0.461992645 0 0)
(0.476340802 0 0)
(0.474005341 0 0)
(0.464840388 0 0)
(0.462092426 0 0)
(0.47242136 0 0)
(0.474715872 0 0)
(0.463871712 0 0)
(0.461162968 0 0)
(0.471564802 0 0)
(0.473473355 0 0)
(0.462659115 0 0)
(0.460392943 0 0)
(0.471040201 0 0)
(0.472671446 0 0)
(0.461648173 0 0)
(0.459619683 0 0)
(0.470906894 0 0)
(0.478838493 0 0)
(0.474970763 0 0)
(0.46538163 0 0)
(0.456944137 0 0)
(0.450094984 0 0)
(0.446574437 0 0)
(0.460033426 0 0)
(0.475121688 0 0)
(0.469625712 0 0)
(0.454147555 0 0)
(0.439329764 0 0)
(0.448081496 0 0)
(0.467355375 0 0)
(0.47189787 0 0)
(0.465880375 0 0)
(0.451209786 0 0)
(0.446304052 0 0)
(0.457888372 0 0)
(0.463954377 0 0)
(0.46094277 0 0)
(0.462251794 0 0)
(0.459703052 0 0)
(0.450421784 0 0)
(0.450366132 0 0)
(0.461951461 0 0)
(0.465851265 0 0)
(0.456892808 0 0)
(0.446400191 0 0)
(0.439093115 0 0)
(0.448314047 0 0)
(0.466729086 0 0)
(0.473229781 0 0)
(0.470951608 0 0)
(0.459454084 0 0)
(0.455370196 0 0)
(0.460927927 0 0)
(0.454878617 0 0)
(0.446995202 0 0)
(0.448036422 0 0)
(0.451064203 0 0)
(0.45353517 0 0)
(0.450024919 0 0)
(0.439740631 0 0)
(0.429272342 0 0)
(0.434220625 0 0)
(0.44932807 0 0)
(0.451282277 0 0)
(0.438848939 0 0)
(0.425295397 0 0)
(0.431462179 0 0)
(0.447291555 0 0)
(0.448162761 0 0)
(0.435221192 0 0)
(0.420675445 0 0)
(0.429667056 0 0)
(0.447818426 0 0)
(0.451733358 0 0)
(0.447565422 0 0)
(0.435413547 0 0)
(0.431274899 0 0)
(0.4409725 0 0)
(0.443970149 0 0)
(0.432067792 0 0)
(0.419381047 0 0)
(0.427578121 0 0)
(0.444768948 0 0)
(0.449542127 0 0)
(0.444693601 0 0)
(0.432956005 0 0)
(0.429697032 0 0)
(0.439020785 0 0)
(0.4418852 0 0)
(0.431420933 0 0)
(0.42081949 0 0)
(0.427434117 0 0)
(0.442373053 0 0)
(0.44360405 0 0)
(0.432287617 0 0)
(0.420269779 0 0)
(0.42676985 0 0)
(0.441903061 0 0)
(0.442495253 0 0)
(0.430584871 0 0)
(0.41774334 0 0)
(0.424238955 0 0)
(0.439762019 0 0)
(0.440019703 0 0)
(0.429745985 0 0)
(0.426423706 0 0)
(0.436329442 0 0)
(0.440373708 0 0)
(0.431878031 0 0)
(0.422429672 0 0)
(0.419612416 0 0)
(0.418615136 0 0)
(0.421382965 0 0)
(0.427986402 0 0)
(0.430529312 0 0)
(0.431879371 0 0)
(0.427912036 0 0)
(0.418943534 0 0)
(0.410554832 0 0)
(0.417130619 0 0)
(0.431406932 0 0)
(0.432010687 0 0)
(0.421607366 0 0)
(0.418200721 0 0)
(0.427619993 0 0)
(0.430476649 0 0)
(0.420921038 0 0)
(0.418382184 0 0)
(0.428455487 0 0)
(0.432342233 0 0)
(0.422336059 0 0)
(0.411620968 0 0)
(0.408448393 0 0)
(0.420704683 0 0)
(0.429783925 0 0)
(0.419613163 0 0)
(0.415816665 0 0)
(0.425136791 0 0)
(0.428642075 0 0)
(0.417666525 0 0)
(0.405314049 0 0)
(0.408159801 0 0)
(0.421561846 0 0)
(0.425678187 0 0)
(0.423561672 0 0)
(0.426710784 0 0)
(0.42714852 0 0)
(0.417566099 0 0)
(0.407976337 0 0)
(0.413952701 0 0)
(0.428439922 0 0)
(0.430745256 0 0)
(0.420441829 0 0)
(0.409337741 0 0)
(0.405158192 0 0)
(0.418058433 0 0)
(0.429210135 0 0)
(0.417652261 0 0)
(0.404105676 0 0)
(0.401640858 0 0)
(0.41574851 0 0)
(0.42916913 0 0)
(0.42732511 0 0)
(0.4151588 0 0)
(0.409235102 0 0)
(0.419319225 0 0)
(0.427524584 0 0)
(0.424086431 0 0)
(0.413990813 0 0)
(0.404479446 0 0)
(0.403613832 0 0)
(0.417674982 0 0)
(0.430917028 0 0)
(0.423443144 0 0)
(0.411052591 0 0)
(0.411464103 0 0)
(0.42166317 0 0)
(0.425365949 0 0)
(0.418605796 0 0)
(0.411797052 0 0)
(0.407285728 0 0)
(0.413363461 0 0)
(0.425719021 0 0)
(0.426476309 0 0)
(0.417954074 0 0)
(0.415947131 0 0)
(0.425828278 0 0)
(0.429913445 0 0)
(0.422769961 0 0)
(0.415317216 0 0)
(0.410550821 0 0)
(0.407108332 0 0)
(0.418373819 0 0)
(0.427678089 0 0)
(0.417073914 0 0)
(0.414505687 0 0)
(0.425353868 0 0)
(0.427600222 0 0)
(0.41706075 0 0)
(0.415457551 0 0)
(0.427412925 0 0)
(0.436165112 0 0)
(0.431010036 0 0)
(0.418849118 0 0)
(0.416662412 0 0)
(0.428172943 0 0)
(0.431482831 0 0)
(0.420997714 0 0)
(0.418596237 0 0)
(0.430426923 0 0)
(0.435000133 0 0)
(0.421494884 0 0)
(0.40508194 0 0)
(0.401434313 0 0)
(0.418106237 0 0)
(0.434726802 0 0)
(0.436421482 0 0)
(0.435602632 0 0)
(0.429022725 0 0)
(0.419988988 0 0)
(0.420842221 0 0)
(0.425658871 0 0)
(0.421743348 0 0)
(0.418651487 0 0)
(0.428372894 0 0)
(0.437011035 0 0)
(0.432787675 0 0)
(0.423077231 0 0)
(0.416344056 0 0)
(0.411746357 0 0)
(0.406009382 0 0)
(0.412146901 0 0)
(0.427520272 0 0)
(0.427985341 0 0)
(0.415830325 0 0)
(0.412862343 0 0)
(0.424555153 0 0)
(0.433309209 0 0)
(0.429185851 0 0)
(0.417451823 0 0)
(0.414416915 0 0)
(0.4249514 0 0)
(0.427401712 0 0)
(0.417659746 0 0)
(0.415638126 0 0)
(0.425396893 0 0)
(0.432391405 0 0)
(0.428577017 0 0)
(0.420867836 0 0)
(0.414843596 0 0)
(0.410069345 0 0)
(0.414715554 0 0)
(0.427691354 0 0)
(0.429715745 0 0)
(0.417556048 0 0)
(0.404436764 0 0)
(0.40299674 0 0)
(0.416964882 0 0)
(0.428778249 0 0)
(0.423452561 0 0)
(0.409817711 0 0)
)
;

boundaryField
{
    closed
    {
        type            noSlip;
    }
    open
    {
        type            inletOutlet;
        inletValue      nonuniform List<vector> 0();
        value           nonuniform List<vector> 0();
    }
    sides
    {
        type            empty;
    }
    procBoundary1to0
    {
        type            processor;
        value           uniform (0.466779968 0 0);
    }
    procBoundary1to2
    {
        type            processor;
        value           uniform (0.397827216 0 0);
    }
}


// ************************************************************************* //
