/*--------------------------------*- C++ -*----------------------------------*\
| =========                 |                                                 |
| \\      /  F ield         | OpenFOAM: The Open Source CFD Toolbox           |
|  \\    /   O peration     | Version:  2306                                  |
|   \\  /    A nd           | Website:  www.openfoam.com                      |
|    \\/     M anipulation  |                                                 |
\*---------------------------------------------------------------------------*/
FoamFile
{
    version     2.0;
    format      ascii;
    arch        "LSB;label=32;scalar=64";
    class       volScalarField;
    location    "0.00052";
    object      h;
}
// * * * * * * * * * * * * * * * * * * * * * * * * * * * * * * * * * * * * * //

dimensions      [0 2 -2 0 0 0 0];

internalField   nonuniform List<scalar> 
531
(
-4785.37846
7618.5244
10098.3071
-1634.74392
-4202.95886
7741.83729
10115.8078
-2209.89827
-4725.32027
7512.38716
10030.5919
-2450.93212
-4905.70715
7445.95628
10019.3275
-2392.93955
-4785.29695
7535.28825
10099.9787
-1876.76266
-4087.94744
7862.31794
10198.3323
2395.37613
-4435.54226
-4483.56274
8069.06764
10521.4408
6607.59155
-1783.83869
-3195.52266
-4719.4183
-4693.09232
8024.37386
10182.6288
3895.05435
-4740.10517
-4868.81706
7599.40752
10469.8933
9819.58409
-948.833648
-6923.33133
-7022.38645
8020.35944
9919.10382
-2102.47923
-4845.07514
7878.86861
10091.401
-2477.14366
-4646.48612
7914.58142
10135.8427
-2179.58165
-4360.1055
8142.93372
10129.6064
1604.00655
-5126.10487
-5211.35225
8273.32298
10110.5425
-2017.1166
-4517.3616
8169.27206
10163.0667
1947.97988
-4695.48577
-4688.68149
8300.91293
10239.6244
3142.2936
-4167.27734
-4181.98842
8511.56158
10506.1677
3359.73772
-2090.70071
-4848.44736
-3577.33284
9058.15689
-631.863384
-5276.3167
7717.66734
10171.8976
9590.2338
-3162.08354
-6735.15037
7709.03114
9853.7362
-3846.89409
-5513.40081
7991.77053
10031.7337
-3127.84388
-5016.99815
8156.41286
10093.2208
-2905.49552
-4792.99359
8257.50933
10166.3731
-2519.84333
-4223.25314
8524.56644
10248.9074
2002.48238
-4468.26921
-4465.03877
8929.49672
10493.1351
3805.95688
-2553.37437
-5128.50803
-5133.6501
8527.40508
10048.0467
-2745.59101
-5366.20766
8318.66671
10085.0055
-3073.70077
-4503.5144
8651.01054
10210.2476
1762.25684
-4808.40486
-4787.34041
8846.51013
10199.4091
3780.11797
-5163.0501
-5170.29955
8635.68399
10132.6817
3399.82273
-5166.09924
-5183.58304
8772.71662
10109.6145
2933.44027
-5436.80958
-5441.92332
8798.15051
10133.2593
-2587.06673
-4325.16759
8966.97842
10180.9861
2186.4347
-5569.69418
-5552.09252
8837.26561
10101.0758
4146.91115
-5382.30979
-5366.57664
8805.6671
10142.6761
-3062.45244
-4373.38272
8913.56024
10394.7314
3702.40394
-3104.43444
-4753.37198
-2357.39638
9806.47838
10368.1369
47.1463476
-5382.38821
-2142.17345
9749.67694
10354.3495
89.7836926
-5257.2539
-2075.51637
9682.62778
10672.7121
3768.97576
-3059.89141
-2819.10481
-5586.28596
-5582.28315
8656.84169
10086.5909
9637.4407
10236.3573
3485.06916
-3512.23605
-3300.10611
-4727.825
-5267.02695
2949.89425
9803.79006
10353.3269
10208.0671
-921.410849
-6153.75208
-3052.48201
9690.26377
10250.2108
-1091.8313
-5741.64674
-2020.39738
9797.31113
10297.2683
-973.132736
-5831.775
-1373.05191
9612.1017
10242.5213
-4246.59419
-6177.67317
8875.74295
9993.39669
1507.91185
-4892.65072
-4843.25101
9643.28938
10160.0012
692.512941
-5217.90528
-2379.84765
9827.32228
10268.8348
-603.585494
-6130.54251
-2180.54773
9149.90589
10429.9383
9897.38842
-5615.16576
-6545.70164
8657.1171
9993.42529
1915.87705
-4203.90797
-5425.08604
-28.1546664
9625.0289
-453.35813
-5008.51706
9023.72433
10112.2114
-3395.00537
-4757.27204
7035.15924
10104.9053
9534.92911
-5577.72497
-6635.51621
8667.79973
9897.72507
2555.54928
-6249.5892
-5826.80354
8066.67559
10076.8741
8883.17245
-5601.37466
-6436.07985
8704.39889
9980.9554
989.028441
-5050.04558
-1950.92276
9529.50967
-356.616816
-4642.53038
8394.33519
10352.9869
9769.47735
3202.30777
-3674.9235
-2740.99289
-4791.96953
-4795.40671
9177.14267
10253.5622
-2583.8779
-3933.94981
6916.27733
10446.4194
9655.31647
-1670.64728
-6290.91769
-2220.30237
9219.61348
10711.8498
6643.5024
-2480.90762
-3057.42983
-5037.50895
-5001.0215
7112.52928
10166.044
9724.63772
-4284.0773
-5936.9871
6268.72184
9917.73816
9795.44778
6198.48984
-3029.73442
-3513.71402
-4964.06227
-5045.86011
3692.80907
10058.3846
9842.64047
-3251.36427
-5468.94816
7415.98041
10183.5904
9754.1986
4119.57494
-2671.02412
-2520.71783
-2156.6032
-3966.05063
-3964.95341
8953.53509
10457.3816
10005.4063
-2976.36715
-5923.52423
6581.81782
9820.9242
-1315.80397
-5115.90206
2238.19797
9975.5805
9986.2503
-748.880074
-6052.87461
-2583.48705
9330.85946
10580.9751
4130.2329
-3037.99875
-2398.71335
-4431.1967
-4491.35808
4751.97043
9890.24653
9766.13339
10153.4972
4899.776
-3379.10456
-2946.81241
-5260.66612
-5270.20096
8132.19876
10390.0668
9906.71263
2173.76938
-5911.9231
-5891.92442
8330.01816
10071.5373
-1560.63749
-4104.08984
8208.73335
10470.0702
4445.82772
-1646.32817
-5775.4009
-5757.37744
8238.4901
9993.16037
4591.65295
-5819.91966
-5833.83536
7953.21754
10264.9156
10044.6727
3152.27548
-3193.73423
-5926.66501
-5865.75722
8379.3524
2021.1064
-5818.01534
7926.12005
9906.7953
3679.39299
-6156.20245
-6165.56199
7591.85056
9021.58018
8772.75739
7273.67579
-10394.1927
-10995.1165
4808.79194
8158.68281
6545.93442
8032.7515
7009.41594
-5050.54094
-10346.9611
3067.45578
5539.61676
4148.47737
5096.57587
4672.93617
4983.55348
4802.30895
4859.60283
4732.32226
4737.62726
4712.50556
4954.73528
5583.91218
6770.72861
6747.61612
6696.0594
6545.66072
6224.80067
5906.63835
5215.83933
4666.18558
4021.04693
4101.68972
5486.09969
5341.72918
4779.67483
3817.41248
2376.66268
381.207007
-1825.59291
-4308.79621
-6453.55505
-9880.49433
-10657.1933
-13638.1451
-16025.6262
-16710.0924
-18933.8689
-22527.56
-25893.6324
-25985.8825
-29165.8045
-36850.1906
-40240.3441
-44279.836
-48757.1491
-51743.463
-56960.1793
-59484.7512
-65309.2099
-67487.196
-73511.8173
-75499.0897
-81485.5906
-83931.5365
-89481.4061
-92454.0321
-97530.6745
-101163.365
-105587.232
-110051.926
-113655.095
-118963.214
-122086.052
-128530.058
-129864.002
-136212.137
-139767.616
-149273.56
-136638.232
-144501.906
-164058.171
-183893.102
-127847.963
-139743.936
-193728.482
-228634.114
-142146.795
-110988.401
-210369.242
-270093.94
-173804.482
-117396.7
-237991.697
-284779.953
-173573.947
-141115.703
-262438.538
-275120.192
-182014.706
-175508.245
-265263.582
-268184.27
-176793.511
-191124.822
-254520.277
-248819.142
-176732.869
-193473.411
-240239.937
-235285.982
-176785.347
-187964.002
-227053.71
-224138.485
-177210.132
-180595.137
-215835.865
-213467.789
-177841.092
-173175.624
-204480.091
-204431.811
-177316.855
-167502.717
-194971.706
-196876.886
-174755.636
-162618.958
-186678.408
-189853.752
-171333.71
-158082.053
-179916.195
-183388.477
-166582.45
-153933.537
-174660.485
)
;

boundaryField
{
    closed
    {
        type            lookUpEnthalpy;
        h0              nonuniform List<scalar> 0();
        value           nonuniform List<scalar> 0();
    }
    open
    {
        type            zeroGradient;
    }
    sides
    {
        type            empty;
    }
    procBoundary4to3
    {
        type            processor;
        value           uniform -2093.04407;
    }
    procBoundary4to5
    {
        type            processor;
        value           uniform -176159.806;
    }
}


// ************************************************************************* //
