/*--------------------------------*- C++ -*----------------------------------*\
| =========                 |                                                 |
| \\      /  F ield         | OpenFOAM: The Open Source CFD Toolbox           |
|  \\    /   O peration     | Version:  2306                                  |
|   \\  /    A nd           | Website:  www.openfoam.com                      |
|    \\/     M anipulation  |                                                 |
\*---------------------------------------------------------------------------*/
FoamFile
{
    version     2.0;
    format      ascii;
    arch        "LSB;label=32;scalar=64";
    class       volScalarField;
    location    "0.00158";
    object      PV;
}
// * * * * * * * * * * * * * * * * * * * * * * * * * * * * * * * * * * * * * //

dimensions      [0 0 0 0 0 0 0];

internalField   nonuniform List<scalar> 
530
(
-0.0071521232
-0.00706550951
-0.00703747407
-0.0070361492
-0.00703601632
-0.00703601085
-0.00703601042
-0.00703601011
-0.00703600978
-0.00703600936
-0.00703600893
-0.00703600847
-0.00703600808
-0.00703600757
-0.00703600714
-0.00703600632
-0.00703600552
-0.00703600509
-0.00703600462
-0.00703600465
-0.00703600447
-0.00703600461
-0.00703600462
-0.00703600465
-0.00703600466
-0.00703600466
-0.00703600462
-0.00703600464
-0.0070360045
-0.00703600457
-0.00703600438
-0.00703600437
-0.00703600433
-0.00703600428
-0.0070360043
-0.00703600415
-0.00703600414
-0.00703600409
-0.00703600405
-0.007036004
-0.00703600395
-0.00703600389
-0.00703600386
-0.00703600378
-0.00703600374
-0.0070360037
-0.00703600366
-0.00703600364
-0.00703600361
-0.00703600357
-0.00703600355
-0.00703600353
-0.00703600353
-0.00703600349
-0.00703600347
-0.00703600346
-0.00703600346
-0.00703600346
-0.00703600345
-0.00703600345
-0.00703600345
-0.00703600348
-0.00703600348
-0.00703600365
-0.00703600367
-0.00703600461
-0.00703600467
-0.00703600849
-0.00703600937
-0.0070360199
-0.00703603685
-0.00703604891
-0.00703605694
-0.00703610128
-0.00703641211
-0.00703665939
-0.00703520176
-0.00703372185
-0.00703870151
-0.00705126231
-0.00703934758
-0.00700537697
-0.00701989347
-0.0070668886
-0.00705657531
-0.00702692694
-0.00703482785
-0.00709133592
-0.00714451767
-0.0071135614
-0.00691420002
-0.00690611175
-0.0069204751
-0.0070583093
-0.00717905944
-0.0071619344
-0.00690985733
-0.00690981083
-0.00691574146
-0.00708109856
-0.00714081534
-0.00715939037
-0.00715291179
-0.00691078509
-0.00691133388
-0.00691412519
-0.00691093478
-0.00699293524
-0.00712838023
-0.00716799475
-0.00715287747
-0.00690917459
-0.00691192535
-0.00701180749
-0.00714159941
-0.00714319407
-0.00690961725
-0.0069188838
-0.00691162163
-0.00691464253
-0.00712545479
-0.00715750378
-0.0071445644
-0.00715225432
-0.00717854636
-0.00717236313
-0.00690911106
-0.00691547
-0.00691103937
-0.00713034243
-0.00714868698
-0.00690766947
-0.00691431531
-0.00690930233
-0.0069132183
-0.00708565636
-0.00713993992
-0.00715830524
-0.00715873198
-0.00690933975
-0.00691353162
-0.00714557835
-0.00715988063
-0.00690664494
-0.00691585529
-0.00710393262
-0.00717844938
-0.00715661897
-0.0069120491
-0.00691300783
-0.00691153634
-0.00691320727
-0.0070591016
-0.00713428128
-0.007146944
-0.00715053723
-0.00690799914
-0.00691266591
-0.00708955049
-0.0071625639
-0.00713618334
-0.00691044527
-0.00707365577
-0.00715370344
-0.00690808797
-0.00691106118
-0.00713728858
-0.00714271661
-0.00690917133
-0.00691276986
-0.00714558922
-0.0071419704
-0.00690841766
-0.00691591224
-0.00691024059
-0.00713924779
-0.00713993029
-0.00691992897
-0.0069140656
-0.00692891409
-0.00712767066
-0.00715974763
-0.00715170819
-0.00714482134
-0.00690871114
-0.00707991903
-0.00715241623
-0.00690462713
-0.00691068204
-0.00707094717
-0.00714584062
-0.00713647311
-0.00690810235
-0.00690984936
-0.00705789989
-0.00715230809
-0.00713045676
-0.00690864067
-0.00710932176
-0.00714703207
-0.00690538751
-0.00691154124
-0.00690632566
-0.00711877517
-0.00713737644
-0.00690984724
-0.0069116805
-0.0069886003
-0.0071171508
-0.0071266498
-0.00712429827
-0.00712272187
-0.00713815219
-0.00713695046
-0.00690674231
-0.00691041298
-0.00712693933
-0.00714109329
-0.0069045595
-0.00691342594
-0.00706579833
-0.00715710554
-0.00713573704
-0.00691402133
-0.00690910962
-0.00691519646
-0.00708335694
-0.00717290959
-0.00714555968
-0.00691485405
-0.0069087278
-0.00691510321
-0.00708156738
-0.00717105391
-0.00713401324
-0.00691269412
-0.00706441287
-0.00715779827
-0.00690459961
-0.00691294009
-0.00707451907
-0.0071445867
-0.00713472084
-0.00690980006
-0.00691101231
-0.00705747489
-0.00714817983
-0.00712697656
-0.00690949549
-0.00706119069
-0.00714518734
-0.00690569045
-0.00691105935
-0.00707492919
-0.00713736954
-0.00713070884
-0.00690851341
-0.00691098941
-0.00707224816
-0.00714841443
-0.00713869974
-0.00690922765
-0.00690999456
-0.00713225038
-0.00714027258
-0.00690700932
-0.0069126552
-0.00707046664
-0.00714585517
-0.00711812277
-0.00690988159
-0.00710837148
-0.00713646582
-0.00690736502
-0.00691150529
-0.00690969496
-0.00711010802
-0.00715125258
-0.00714261031
-0.00715133111
-0.00690797661
-0.00691468774
-0.00711956238
-0.00717380455
-0.00714218198
-0.00691324058
-0.0069117252
-0.00691519688
-0.00712653998
-0.00718063017
-0.00716210876
-0.00691156847
-0.00691291529
-0.00691099832
-0.00691420607
-0.00710884898
-0.00716566676
-0.00714804029
-0.00691186126
-0.00691134636
-0.00714111947
-0.00714818942
-0.006908448
-0.00691263886
-0.00714034502
-0.00714912083
-0.00690669083
-0.0069134077
-0.00712405817
-0.00715829634
-0.0071420299
-0.00690977416
-0.0069099611
-0.00713057634
-0.00713608873
-0.0069061225
-0.00691191668
-0.00711236631
-0.00714186324
-0.00712925806
-0.00690806137
-0.00691014168
-0.00709766216
-0.00713657146
-0.00712573909
-0.00690724073
-0.00691099389
-0.00709469076
-0.00714008895
-0.00712716431
-0.00715286991
-0.00713604488
-0.00690919003
-0.00690926571
-0.00691060486
-0.00708912561
-0.00713209101
-0.00690717895
-0.00691213933
-0.00713184206
-0.00713231865
-0.0069064405
-0.00691219984
-0.00713196505
-0.00713488003
-0.00690540817
-0.00691321541
-0.00712207974
-0.00714937328
-0.00713078929
-0.00691028049
-0.00690973433
-0.00712582685
-0.00712415041
-0.00690751148
-0.006910329
-0.00711117166
-0.00713009956
-0.00713216483
-0.00712601107
-0.00690791728
-0.00691290689
-0.00712850289
-0.00711878126
-0.00690836335
-0.00691043813
-0.00691036112
-0.00706338154
-0.00713321931
-0.00713173732
-0.00713908064
-0.00715359686
-0.00714382119
-0.00690966036
-0.00691316999
-0.00715186013
-0.00713944628
-0.00690812068
-0.00690985976
-0.00690961961
-0.00690955319
-0.00691091763
-0.00711828162
-0.00713930902
-0.00712104399
-0.00712550799
-0.00712411311
-0.00711195619
-0.00712972613
-0.00710925159
-0.00690724827
-0.006908301
-0.00690852584
-0.00711624165
-0.00712499963
-0.00690719599
-0.00691155085
-0.00712677559
-0.00712597416
-0.00690722087
-0.00691132469
-0.00712113561
-0.00713835169
-0.00713822202
-0.00713294137
-0.0069087503
-0.00691395197
-0.00714106561
-0.00713639137
-0.00691008117
-0.00691506282
-0.00714788218
-0.00714802985
-0.00691056726
-0.00691547389
-0.00714148708
-0.0071738069
-0.00714201764
-0.00691235101
-0.00691238052
-0.00691260945
-0.00691420146
-0.00691278615
-0.00691466276
-0.00713294413
-0.00715619815
-0.00713726174
-0.00715659622
-0.00713796642
-0.00691098868
-0.00691069911
-0.00713119128
-0.00712831541
-0.0069081544
-0.00691157555
-0.00711519204
-0.00713263974
-0.00712455357
-0.00712624681
-0.00690654669
-0.00691136356
-0.00712057008
-0.00715351971
-0.00711812566
-0.0069097086
-0.00690816808
-0.00690887257
-0.00712776229
-0.00713268308
-0.00690633054
-0.00691085179
-0.00711522218
-0.00714128334
-0.0071181646
-0.00690958786
-0.00690549985
-0.00712610325
-0.00713981322
-0.00712432358
-0.00690664691
-0.00690740898
-0.00712594849
-0.00714347144
-0.00712289416
-0.00690966526
-0.00690533233
-0.00713416978
-0.00713944317
-0.00714483481
-0.00712824013
-0.00690945804
-0.00690914594
-0.00690824357
-0.00713049954
-0.00712886709
-0.00690966802
-0.00690967779
-0.00690915336
-0.00703660937
-0.00713167063
-0.00713059118
-0.00712844392
-0.00713785798
-0.00712220019
-0.00690796635
-0.00701907315
-0.00712543007
-0.0069082848
-0.0069072179
-0.00710202063
-0.00713039779
-0.00711126429
-0.00690935941
-0.00690700027
-0.00712050655
-0.00714214845
-0.00712463516
-0.00691049711
-0.00690669466
-0.00713242851
-0.00713414753
-0.00691051124
-0.00690862092
-0.00713357939
-0.00713988238
-0.00691075738
-0.00691028874
-0.00711654276
-0.00715507285
-0.00710314055
-0.00691171449
-0.00709876196
-0.00714301628
-0.00691246472
-0.0069092609
-0.00714570973
-0.00713988971
-0.00691144999
-0.00691188545
-0.00691064797
-0.00713632392
-0.0071759611
-0.00713694344
-0.00691499207
-0.00690880367
-0.00713954415
-0.00711853649
-0.00691090956
-0.00711787661
-0.00713435
)
;

boundaryField
{
    closed
    {
        type            zeroGradient;
    }
    open
    {
        type            zeroGradient;
    }
    sides
    {
        type            empty;
    }
    procBoundary0to1
    {
        type            processor;
        value           uniform -0.00691604515;
    }
}


// ************************************************************************* //
