/*--------------------------------*- C++ -*----------------------------------*\
| =========                 |                                                 |
| \\      /  F ield         | OpenFOAM: The Open Source CFD Toolbox           |
|  \\    /   O peration     | Version:  2306                                  |
|   \\  /    A nd           | Website:  www.openfoam.com                      |
|    \\/     M anipulation  |                                                 |
\*---------------------------------------------------------------------------*/
FoamFile
{
    version     2.0;
    format      ascii;
    arch        "LSB;label=32;scalar=64";
    class       volScalarField;
    location    "0.00096";
    object      H2O;
}
// * * * * * * * * * * * * * * * * * * * * * * * * * * * * * * * * * * * * * //

dimensions      [0 0 0 0 0 0 0];

internalField   nonuniform List<scalar> 
531
(
0.000956435795
0.00640041379
0.00774353952
0.00724343739
0.00095574168
0.00099422186
0.00640372543
0.00700700545
0.0020244211
0.0010177082
0.00583874217
0.00696454252
0.00185642833
0.000996727096
0.00542017244
0.00760048857
0.00712206027
0.000976303202
0.00100334114
0.00624373533
0.00681937273
0.00150468408
0.00101213479
0.00528345989
0.00745611493
0.00698046466
0.00100113029
0.00101278975
0.00625950163
0.00668652564
0.000740016528
0.00102256552
0.0053381538
0.00735665678
0.00680422899
0.00101770734
0.00100589776
0.00595728957
0.00708092632
0.00736786206
0.00689191836
0.00091371103
0.00105884148
0.000938832677
0.00108673561
0.000976961823
0.00618879547
0.00706337721
0.00694824204
0.00741472833
0.00689707813
0.000810377145
0.00110710962
0.000928989306
0.0060853429
0.0073575174
0.00653297631
0.00102019864
0.000991616001
0.00615859014
0.00737690474
0.00650771628
0.00102940474
0.00100211796
0.00626043498
0.00710243834
0.00734909554
0.00676474911
0.000939386638
0.00106204624
0.00093391123
0.00108747523
0.000944351638
0.00632141595
0.00714217461
0.00729944688
0.00653316418
0.00101376464
0.000952333468
0.00642103374
0.00735252169
0.00613653156
0.00101825077
0.000955060631
0.00632423794
0.00722054576
0.00581999111
0.00102681368
0.0009398765
0.00636312242
0.00716243863
0.00571676977
0.00103146862
0.000913749422
0.00642920361
0.00717108794
0.00717837267
0.00589028682
0.00100425221
0.00105420854
0.00670913034
0.00643466592
0.000863100783
0.000886866029
0.00652593637
0.00668211188
0.00111178385
0.000871900169
0.00619216568
0.00739660191
0.00591905716
0.000998252081
0.000905102425
0.00619868007
0.00646297311
0.00333384068
0.00104994693
0.00116711777
0.00718646361
0.00731809863
0.00479017708
0.00104377497
0.000882710851
0.00646667354
0.00716086111
0.00714501619
0.00557025359
0.000949629294
0.00178719113
0.00710039562
0.00631061494
0.000921693906
0.00167470517
0.00693983617
0.00623448839
0.000908177293
0.00181460632
0.00685229043
0.00593669245
0.000952173952
0.00187236236
0.00690885961
0.00608562815
0.000943499934
0.000842702029
0.00687830514
0.00734194977
0.00505643022
0.000935767752
0.00231411444
0.00675148943
0.00571709446
0.000967644282
0.00087214744
0.00689249807
0.00731068132
0.00531458861
0.000943718011
0.000873067323
0.00691010112
0.00733542048
0.00535065995
0.00091977999
0.00166061572
0.00645272176
0.00563382906
0.000944776847
0.000924202857
0.00666748648
0.00718106954
0.00512963997
0.000932808246
0.000889024266
0.00656308183
0.00712174249
0.00487765466
0.000942692391
0.000848033562
0.00648326846
0.00704240073
0.00705946166
0.00626218885
0.000882898892
0.00107701052
0.00294527362
0.00624867762
0.00505317979
0.000931498063
0.00105274673
0.00644567066
0.00721460194
0.00722516842
0.00364085233
0.00097125648
0.00104914588
0.00174036589
0.00653282115
0.0069447905
0.00717176245
0.00727856499
0.00471086883
0.00092542507
0.00272663652
0.00680516134
0.00626038553
0.000834166008
0.00157832271
0.00676471606
0.00617563543
0.00083095427
0.00239330726
0.00669833496
0.00546643375
0.000891868779
0.0016085482
0.00649501778
0.00669733909
0.00241630453
0.000999327576
0.00320411077
0.00683254827
0.00713235332
0.00382543453
0.000927722396
0.00304590383
0.00685383027
0.00711428867
0.00383734594
0.000896945522
0.00315878387
0.00693930476
0.00712236096
0.00321028149
0.000803677664
0.00488278865
0.00648529219
0.00333113363
0.000810988161
0.00453908785
0.00713802175
0.00670853355
0.00120147355
0.000988905027
0.0062653831
0.0064335006
0.00125989228
0.00114447007
0.00613470122
0.00604292745
0.000739929151
0.000792200862
0.00596403645
0.00727939574
0.00647223976
0.000964478055
0.00112434087
0.00604788628
0.00589660094
0.00075590632
0.000821704997
0.00565809095
0.00705966657
0.00620254646
0.000858803201
0.000834984127
0.00539336471
0.00697373788
0.00620439096
0.000882876715
0.000841926056
0.0052746345
0.00685852665
0.00707084223
0.00683673714
0.00265203818
0.000934858148
0.000962086952
0.000976168955
0.00101445867
0.00106694892
0.00595189155
0.00677185406
0.00683460031
0.00684482888
0.00692812667
0.00709556251
0.0058744538
0.000775370827
0.000830855215
0.00572089008
0.00699830195
0.00576687999
0.000759642139
0.00202196278
0.00620479383
0.00547735701
0.000750523307
0.00227188667
0.00616383665
0.00515330119
0.000788249141
0.00168781684
0.00644149513
0.00715692891
0.00564494329
0.000776250679
0.00259772898
0.00613347158
0.00477374209
0.000828181858
0.00188142511
0.00653155911
0.00705952012
0.00451988086
0.000857331289
0.00214417559
0.0065596526
0.00700817959
0.00408668902
0.000886312045
0.0024193233
0.00664084417
0.00701039204
0.00360983876
0.000912536654
0.00273285644
0.0067398824
0.0070286281
0.00315088914
0.000933990749
0.0029872337
0.00682271315
0.00703858457
0.00279297182
0.000954462298
0.00316418461
0.00685859342
0.007037087
0.00281371916
0.000962268974
0.0032665951
0.00692235127
0.00707213926
0.00278834623
0.000961164417
0.00356785302
0.00701328245
0.00712644228
0.00281690762
0.000947818137
0.00481785627
0.00655359371
0.00304192612
0.00097373121
0.00364465603
0.00705160855
0.00696681718
0.00193122954
0.000940087818
0.00434222915
0.00714018821
0.0069351601
0.00154405652
0.000929455568
0.00430715999
0.00714502088
0.00699599447
0.00306956955
0.000962681062
0.000961544409
0.00201741541
0.007264505
0.00719196723
0.00169179172
0.000840401881
0.00463227055
0.00775577173
0.00744272209
0.00127056025
0.000837256347
0.00301056127
0.00816433522
0.00790418874
0.000819333806
0.00113618984
0.000989941318
0.00128170151
0.00126975149
0.00148505712
0.00156972098
0.00228365559
0.00217938034
0.00228482774
0.00238436682
0.00271078902
0.0028629198
0.0031294623
0.00329300392
0.00348958464
0.00364716548
0.00376361504
0.00379550298
0.0036280818
0.00333599381
0.00355587797
0.00384499949
0.00417843999
0.00450230043
0.00492970264
0.00530154661
0.00578796035
0.00607495867
0.00601385568
0.00567874044
0.00583756741
0.00618928319
0.00665210407
0.00724183447
0.00800959437
0.00878190353
0.0096796023
0.0103770323
0.009666298
0.00468552103
0.00565029092
0.00681482282
0.00791526541
0.00919644334
0.0102869109
0.0116861187
0.0126799004
0.0135694892
0.0105185508
0.013736809
0.0142354934
0.0102756067
0.0157526559
0.0171255534
0.018228618
0.0151318143
0.0189730111
0.0201076674
0.0226289494
0.0268782496
0.0320047842
0.037825692
0.0434066669
0.0477142947
0.0554294053
0.0598680806
0.065120963
0.0685982488
0.0734265735
0.077697934
0.0823574647
0.0862431964
0.0902500498
0.0937609269
0.0971878538
0.100282741
0.103245627
0.105928131
0.108393108
0.110620384
0.112586301
0.114306511
0.11570804
0.117031917
0.118296274
0.119505561
0.120696877
0.121703206
0.122793088
0.123688166
0.12458702
0.125329388
0.126072978
0.12673654
0.127396953
0.128046113
0.128758728
0.129460715
0.130092228
0.13050055
0.130873293
0.13123604
0.13157279
0.131899121
0.132201176
0.132505386
0.132779507
0.133059531
0.133316363
0.133589578
0.133842385
0.134105212
0.134374631
0.134657697
0.134901676
0.135148613
0.135374251
0.135605406
0.135821036
0.136041126
0.136245862
0.136454548
0.136643165
0.136831717
0.137008673
0.137187571
0.137356655
0.137530225
0.137708993
0.13789027
0.138063884
0.138233603
0.138396895
0.138555986
0.138709425
0.138851526
0.13898949
0.1391241
0.139255499
0.139383101
0.139508297
0.139629362
0.139748702
0.139862837
0.139975634
0.140083717
0.140191355
)
;

boundaryField
{
    closed
    {
        type            calculated;
        value           nonuniform List<scalar> 0();
    }
    open
    {
        type            calculated;
        value           nonuniform List<scalar> 0();
    }
    sides
    {
        type            empty;
    }
    procBoundary4to3
    {
        type            processor;
        value           uniform 0.000991193005;
    }
    procBoundary4to5
    {
        type            processor;
        value           uniform 0.140293912;
    }
}


// ************************************************************************* //
