/*--------------------------------*- C++ -*----------------------------------*\
| =========                 |                                                 |
| \\      /  F ield         | OpenFOAM: The Open Source CFD Toolbox           |
|  \\    /   O peration     | Version:  2306                                  |
|   \\  /    A nd           | Website:  www.openfoam.com                      |
|    \\/     M anipulation  |                                                 |
\*---------------------------------------------------------------------------*/
FoamFile
{
    version     2.0;
    format      ascii;
    arch        "LSB;label=32;scalar=64";
    class       volScalarField;
    location    "0.00116";
    object      rho;
}
// * * * * * * * * * * * * * * * * * * * * * * * * * * * * * * * * * * * * * //

dimensions      [1 -3 0 0 0 0 0];

internalField   nonuniform List<scalar> 
531
(
0.902727089
0.933557227
0.94474802
0.957801345
0.957462905
0.905651223
0.903385043
0.90434259
0.903631429
0.93545299
0.972099301
0.971119636
0.905575803
0.902680257
0.941793837
0.956532088
0.905487722
0.903204445
0.938944447
0.953004907
0.90535574
0.90422046
0.92927277
0.961137479
0.960735399
0.906011689
0.903632956
0.939050441
0.953435944
0.906310808
0.90471613
0.925057285
0.959804608
0.962953521
0.92272552
0.90439261
0.904312483
0.949086961
0.970208705
0.920618594
0.906747209
0.904563811
0.91008988
0.939642711
0.970209745
0.968959065
0.905949795
0.904822529
0.934107627
0.969890697
0.97117757
0.92486107
0.904798657
0.903827814
0.904118545
0.952751224
0.973936951
0.917195873
0.903811726
0.943368363
0.957125897
0.906157319
0.903017057
0.941059152
0.952839117
0.905939089
0.902717128
0.939859699
0.95231555
0.905634679
0.902715071
0.939770735
0.953590175
0.905351598
0.902928324
0.938421345
0.955855
0.904888541
0.903787668
0.934676152
0.96569237
0.965115156
0.905173354
0.903016433
0.933882973
0.943959559
0.962911843
0.962237182
0.907143292
0.903530189
0.905324239
0.903230175
0.904161654
0.937080463
0.952789108
0.974351898
0.97390023
0.906887091
0.903402884
0.944976968
0.956246345
0.906140998
0.903115983
0.939692603
0.950759972
0.905872292
0.902844552
0.938251104
0.950273892
0.905523195
0.902765998
0.938555827
0.951825406
0.905227438
0.903008804
0.93775175
0.954313679
0.904961791
0.904060302
0.933624517
0.965524203
0.964983604
0.905441071
0.904201919
0.931837448
0.971673798
0.971251762
0.904798318
0.903876187
0.904146852
0.936537592
0.955863606
0.905045494
0.903736452
0.937122209
0.954167238
0.905109781
0.904523837
0.933585261
0.967423536
0.967476001
0.905317292
0.904785693
0.926429262
0.96528577
0.964859878
0.907713344
0.903952275
0.946520657
0.955764329
0.908879494
0.904280908
0.904472274
0.95057934
0.965985425
0.905356058
0.903720114
0.942120203
0.948614237
0.905149212
0.903533954
0.933618944
0.937293423
0.959958996
0.959280581
0.905725234
0.903429901
0.941794904
0.953055561
0.909138019
0.904544109
0.910234079
0.958724608
0.964918581
0.905396485
0.904960384
0.929587466
0.96328214
0.962914529
0.905013252
0.904214864
0.930581975
0.963349739
0.963173454
0.904523632
0.903127915
0.934037858
0.942555693
0.964856822
0.963967925
0.905662978
0.903293246
0.904920382
0.902944313
0.903989272
0.937711574
0.954542626
0.975263025
0.975191908
0.908443113
0.903834053
0.905300588
0.903563074
0.904925953
0.934595519
0.96561982
0.964975605
0.904935391
0.904023952
0.933506899
0.966525656
0.966218922
0.905070077
0.904684318
0.929991457
0.966245676
0.965860309
0.905771111
0.904918349
0.921760491
0.963970748
0.963965384
0.905892348
0.904095457
0.943839292
0.953552875
0.905966992
0.904468306
0.921942459
0.955215266
0.960941803
0.929416359
0.904919378
0.902872372
0.953681413
0.964270671
0.904373702
0.904301441
0.936163475
0.942585912
0.962825506
0.963071654
0.90385285
0.904141988
0.935294747
0.961351944
0.958729471
0.904624764
0.903281207
0.904390717
0.902899942
0.90394322
0.936822427
0.970352255
0.96998581
0.904376131
0.903249983
0.935675175
0.972392799
0.972237991
0.90361324
0.903636412
0.936755835
0.959017119
0.946193375
0.903634092
0.903034951
0.903138676
0.945329432
0.95947625
0.903220371
0.902637512
0.935693762
0.958466547
0.962583625
0.93731223
0.90360195
0.901327258
0.903279253
0.93645828
0.954230341
0.952497403
0.97007087
0.969648904
0.914739669
0.903943891
0.904377431
0.903445912
0.93708945
0.957647463
0.903439284
0.902325759
0.935507436
0.951760631
0.962732677
0.939776865
0.90343461
0.900585443
0.903381422
0.940638638
0.964169882
0.936733571
0.906112339
0.901593722
0.904406694
0.938103614
0.970501937
0.968649826
0.903768687
0.903937397
0.934127703
0.944966624
0.945347775
0.959809555
0.956750789
0.903667715
0.903331875
0.903365207
0.903170981
0.934728565
0.971066316
0.970891258
0.903362494
0.902748294
0.935159787
0.948897514
0.959936369
0.960158805
0.903862686
0.903404621
0.903267837
0.903080856
0.935854871
0.972976676
0.972991793
0.902893973
0.903287522
0.938536719
0.958441871
0.936016023
0.903610277
0.901941906
0.902574655
0.960165493
0.967597345
0.904878123
0.902615505
0.935257558
0.948579103
0.960672466
0.960707798
0.902675692
0.902501822
0.902573325
0.902288262
0.932356207
0.952790769
0.953423707
0.972069011
0.971800878
0.902535433
0.901973848
0.90141646
0.90137479
0.936973501
0.973720107
0.963934087
0.899703732
0.898846413
0.898883122
0.94338201
0.961606806
0.896136613
0.89527627
0.962407014
0.969507204
0.896092812
0.891699377
0.892473453
0.965705844
0.976246387
0.900961598
0.894197665
0.898189075
0.970480687
0.985008625
0.908100286
0.902242425
0.90690565
0.904247611
0.906159164
0.905116668
0.906080673
0.905617514
0.906329365
0.905936741
0.90668072
0.906009743
0.90646094
0.905218244
0.904673089
0.901987998
0.898636635
0.889811803
0.882977845
0.890732324
0.896721927
0.903537448
0.908392554
0.913607968
0.917223474
0.920468991
0.924774394
0.930132906
0.933273093
0.931695462
0.937500635
0.942322668
0.944773634
0.948005095
0.947450746
0.95017375
0.954215737
0.968151156
0.97081192
0.986541496
0.98835216
1.0039655
0.904794854
0.930185366
0.933936471
0.958623291
0.964931756
0.988875614
0.998031533
1.02181902
1.03405053
1.05729124
1.05833225
1.06043694
1.06160694
1.06347695
1.0642776
1.06613904
0.922140699
0.921037056
0.944842319
0.904658211
0.7929446
0.747738235
0.696851123
0.665246964
0.634692964
0.610400027
0.581864418
0.557814347
0.523750447
0.504180266
0.477178199
0.458251538
0.436008476
0.419330509
0.400121511
0.385978578
0.370594295
0.359193358
0.346454061
0.336584103
0.325991264
0.318277829
0.30979928
0.302871826
0.296220021
0.291302067
0.285335757
0.280348774
0.275964109
0.272473784
0.268560841
0.266717132
0.263422263
0.261611932
0.258965881
0.257675418
0.255138897
0.254433503
0.25225362
0.25121635
0.248133145
0.249319577
0.247638809
0.245671519
0.241298604
0.243534368
0.240319739
0.240232229
0.237727868
0.238643452
0.236148673
0.237674965
0.233965207
0.234607655
0.234277768
0.235434812
0.232408085
0.233303917
0.231857808
0.232543128
0.230601472
0.230835889
0.229940159
0.23042605
0.228948692
0.228723207
0.228242769
0.228734338
0.227608666
0.227066311
0.226902203
0.227372252
0.226519497
0.225784788
0.2258048
0.226238794
0.225615769
0.224773515
0.224851805
0.22526219
0.224854049
0.224019403
0.22405785
)
;

boundaryField
{
    closed
    {
        type            calculated;
        value           nonuniform List<scalar> 0();
    }
    open
    {
        type            calculated;
        value           nonuniform List<scalar> 0();
    }
    sides
    {
        type            empty;
    }
    procBoundary4to3
    {
        type            processor;
        value           uniform 0.90483442;
    }
    procBoundary4to5
    {
        type            processor;
        value           uniform 0.224441529;
    }
}


// ************************************************************************* //
