/*--------------------------------*- C++ -*----------------------------------*\
| =========                 |                                                 |
| \\      /  F ield         | OpenFOAM: The Open Source CFD Toolbox           |
|  \\    /   O peration     | Version:  2306                                  |
|   \\  /    A nd           | Website:  www.openfoam.com                      |
|    \\/     M anipulation  |                                                 |
\*---------------------------------------------------------------------------*/
FoamFile
{
    version     2.0;
    format      ascii;
    arch        "LSB;label=32;scalar=64";
    class       volScalarField;
    location    "0.00052";
    object      prefDh_T;
}
// * * * * * * * * * * * * * * * * * * * * * * * * * * * * * * * * * * * * * //

dimensions      [1 1 -3 -1 0 0 0];

internalField   nonuniform List<scalar> 
531
(
-0.000562922632
-0.00048515385
-0.000602812305
-0.000736171693
-0.000598187606
-0.000544910301
-0.000592281615
-0.00072979022
-0.000753843713
-0.00058438373
-0.000490790877
-0.000579644008
-0.000732009795
-0.000591023613
-0.000537697272
-0.00058986725
-0.000730752473
-0.000723294678
-0.000527423078
-0.000475425508
-0.000653043141
-0.000725367898
-0.000734240105
-0.000735796281
-0.000595693256
-0.000568428298
-0.000592458703
-0.000604517544
-0.000532253373
-0.00052900474
-0.000680125067
-0.000737703804
-0.000735097052
-0.000741904032
-0.000593377559
-0.000495341602
-0.000478323167
-0.000587329128
-0.000728594948
-0.0007526256
-0.000582900355
-0.000493533649
-0.000704857392
-0.000739063032
-0.000609172532
-0.000524159378
-0.00052181843
-0.000716626752
-0.000731631911
-0.000738468362
-0.000701721468
-0.000594934704
-0.000556731199
-0.000575530578
-0.000505860943
-0.000506390405
-0.000708253928
-0.000744452001
-0.000744682064
-0.000588465722
-0.000496101607
-0.000527369445
-0.000729404995
-0.000752126658
-0.000592748401
-0.000587537917
-0.000594503031
-0.000606696394
-0.000619123552
-0.00059094132
-0.000588889778
-0.000591352833
-0.0005957793
-0.000593665231
-0.000591226462
-0.000591238182
-0.000591171072
-0.000591014633
-0.000592232521
-0.00059313362
-0.000590864481
-0.000588750082
-0.000590639759
-0.000597560538
-0.000595080491
-0.000586856032
-0.000586923678
-0.00060324179
-0.000608566653
-0.000587194943
-0.000588573489
-0.000591952159
-0.000630405524
-0.000599893031
-0.000592229285
-0.000588965269
-0.000632979258
-0.000638801048
-0.000586762268
-0.000592206607
-0.000595081562
-0.000625846463
-0.000592662936
-0.000588541533
-0.000591592095
-0.000606968624
-0.000589692496
-0.000592492325
-0.000603961469
-0.000636878642
-0.000592487396
-0.000552514635
-0.000632609268
-0.000742279655
-0.000589595222
-0.000517456405
-0.000590266152
-0.000731417851
-0.000723866067
-0.000511616098
-0.000487144196
-0.000719297388
-0.000741711341
-0.000588944166
-0.000518799433
-0.000732045607
-0.000739911488
-0.000596635026
-0.000512798489
-0.000515568054
-0.000731620639
-0.000745707494
-0.000580786807
-0.00050297751
-0.000726734513
-0.000745670461
-0.000587865048
-0.000525248283
-0.000702696809
-0.000738246407
-0.000611266772
-0.000505760135
-0.000504693157
-0.000725977731
-0.000736778587
-0.000607314636
-0.000507435793
-0.000506754067
-0.000722585212
-0.000744732602
-0.000600888437
-0.000535476322
-0.000731019458
-0.000740509906
-0.000604296579
-0.000499140596
-0.00049831866
-0.000724569148
-0.000739038935
-0.000608296447
-0.000517142273
-0.000515876884
-0.000726058181
-0.000745132073
-0.000597556109
-0.000571550397
-0.000586872341
-0.00063004267
-0.000662908141
-0.000589293822
-0.00059423458
-0.000590348902
-0.000597724889
-0.000594747286
-0.000592280214
-0.000592144151
-0.00059057599
-0.000589847345
-0.000591705624
-0.000592994772
-0.000591810244
-0.00059192008
-0.000592147393
-0.000588933895
-0.00058852584
-0.000597912425
-0.000606832353
-0.000589071041
-0.000597028566
-0.000590467925
-0.000654454434
-0.000618466762
-0.000562914717
-0.000558896573
-0.000713745832
-0.00074707655
-0.000590846656
-0.000501726576
-0.000707872217
-0.000739277147
-0.000601150326
-0.000525244156
-0.000525275661
-0.000725262433
-0.000743193382
-0.000591116311
-0.000518898046
-0.000592975227
-0.000733601627
-0.000748130659
-0.000592197866
-0.000494267795
-0.000589275591
-0.000728225826
-0.000718898721
-0.000539155767
-0.00050057662
-0.000636064501
-0.00073343315
-0.000620192046
-0.000526993196
-0.000522051194
-0.000711642164
-0.000742468531
-0.000595807317
-0.000494516915
-0.000596312375
-0.000738468534
-0.000589939098
-0.000541667024
-0.00059234846
-0.000733712268
-0.0007178167
-0.000521954485
-0.000492263632
-0.000681401807
-0.000742826505
-0.000594968899
-0.000538985908
-0.000604591524
-0.000735843229
-0.00066190116
-0.000510062486
-0.000498685067
-0.000699365545
-0.000744695041
-0.000593882496
-0.000533481822
-0.000591175746
-0.000736982798
-0.000728547123
-0.000529241888
-0.000481652293
-0.000633432925
-0.000731261941
-0.000742014597
-0.000742186069
-0.000593315781
-0.00058311896
-0.000604940322
-0.000613879051
-0.000606054921
-0.00054969149
-0.000548951073
-0.000731425099
-0.000747389717
-0.000595167236
-0.000566395158
-0.000597443863
-0.00073793058
-0.000742390741
-0.000552910512
-0.00050492045
-0.000698041803
-0.00074062498
-0.00059435297
-0.000530090008
-0.000596246341
-0.000729547157
-0.000751057488
-0.000600650163
-0.000511027387
-0.000654492221
-0.000735880288
-0.000607072532
-0.000522433814
-0.000514940375
-0.000704526153
-0.000744631157
-0.000597076306
-0.000530101422
-0.00062955328
-0.000734676296
-0.000614786386
-0.000522229466
-0.000513465849
-0.000702010193
-0.00074160035
-0.000593978954
-0.000532357216
-0.00060063878
-0.000725707262
-0.000746733025
-0.000597698148
-0.000504770102
-0.000620524459
-0.000731081682
-0.000639070875
-0.000530600487
-0.000512515746
-0.000664302817
-0.000735190856
-0.000628478872
-0.000537338691
-0.000516984986
-0.000654094149
-0.000734378561
-0.000632027182
-0.000541575303
-0.000514815065
-0.000638204711
-0.000733441986
-0.000640661849
-0.000548898181
-0.000514730819
-0.000626258577
-0.000733206475
-0.000640835396
-0.000556728478
-0.000521136985
-0.000628839063
-0.000733906928
-0.000633721959
-0.000548293108
-0.000507338622
-0.000625363776
-0.000741464271
-0.000591399273
-0.000562774319
-0.000643386548
-0.000737527557
-0.000622568811
-0.000540813271
-0.000517336778
-0.000635160275
-0.000738276557
-0.00063512478
-0.000566496267
-0.000537326124
-0.000601113483
-0.000735146979
-0.000744152786
-0.00061023806
-0.000592545972
-0.00049991443
-0.000487300692
-0.000622784976
-0.000740354827
-0.000590392457
-0.000563164925
-0.000641073093
-0.000741022857
-0.000630572786
-0.000560311217
-0.000536507152
-0.000607110451
-0.000746113053
-0.000747630686
-0.000587771643
-0.000609121611
-0.000600218612
-0.000557690913
-0.000556247987
-0.000694171964
-0.000758496292
-0.000583418698
-0.000553848702
-0.00061362042
-0.000770576933
-0.000768379655
-0.000568318526
-0.000468927799
-0.000514688573
-0.000780596249
-0.000807333523
-0.000539995749
-0.000483611611
-0.00074940638
-0.000783897668
-0.000493567004
-0.000402605884
-0.000545308134
-0.000746963504
-0.000744743863
-0.000747767319
-0.00074851752
-0.000750585088
-0.000751485898
-0.000752859655
-0.000755916186
-0.000760386686
-0.000769736205
-0.000786743491
-0.000819840041
-0.000894916618
-0.00082481964
-0.000778310138
-0.000717301052
-0.00068458206
-0.000635756135
-0.000620140473
-0.00057592938
-0.000563450121
-0.000534185226
-0.000506446402
-0.000476210185
-0.000455630014
-0.000439373331
-0.000376174465
-0.000348616876
-0.000405099869
-0.000680082319
-0.000388076318
-0.000626948529
-0.000817849835
-0.000801761943
-0.000993003625
-0.000435271724
-0.000556908961
-0.000701111226
-0.000779301949
-0.000669317137
-0.000927239688
-0.00116251752
-0.00126676717
-0.00132014302
-0.00134901826
-0.00132189032
-0.00138658357
-0.00144273772
-0.00148669173
-0.00149834035
-0.00156891484
-0.00164529923
-0.00176441175
-0.00186895595
-0.00197242874
-0.00210076571
-0.00221741352
-0.00231588398
-0.00241527639
-0.0024843971
-0.00253494906
-0.00254432481
-0.00253771086
-0.002495039
-0.00245828842
-0.00239448718
-0.00234954405
-0.00228967242
-0.00223782974
-0.00213998476
-0.00203226762
-0.00187368915
-0.00171727363
-0.00150969782
-0.00133126793
-0.00108224678
-0.000895327943
-0.000633792322
-0.000444131561
-0.000140942556
6.54374007e-05
0.000318572142
0.000489993801
0.00072253276
0.000879230782
0.00109482612
0.00125411712
0.00146604049
0.00161932032
0.00181576191
0.00196532858
0.00216447104
0.00233546392
0.00253244184
0.00268708785
0.00285104499
0.00298876876
0.00313438554
0.00325892756
0.00339223646
0.00351397618
0.00363356469
0.00374560441
0.00385794862
0.00396747875
0.00407720776
0.00420541491
0.00431829401
0.00443755957
0.00453813361
0.00464738169
0.00472811726
0.00482118752
0.00489626353
0.00498607742
0.00505602136
0.0051427212
0.0052057928
0.00528633289
0.00534466927
0.00542173602
0.00547598104
0.00554837911
0.00559983033
0.00566606824
0.00571274194
0.00577382741
0.0058196785
0.0058775207
0.00592462565
0.00598161616
0.00602924391
0.0060821716
0.00612665085
0.00617231556
0.00621501769
0.006257494
0.00629953429
0.00633903186
)
;

boundaryField
{
    closed
    {
        type            calculated;
        value           nonuniform List<scalar> 0();
    }
    open
    {
        type            calculated;
        value           nonuniform List<scalar> 0();
    }
    sides
    {
        type            empty;
    }
    procBoundary4to3
    {
        type            processor;
        value           uniform -0.000735432551;
    }
    procBoundary4to5
    {
        type            processor;
        value           uniform 0.00638041459;
    }
}


// ************************************************************************* //
