/*--------------------------------*- C++ -*----------------------------------*\
| =========                 |                                                 |
| \\      /  F ield         | OpenFOAM: The Open Source CFD Toolbox           |
|  \\    /   O peration     | Version:  2306                                  |
|   \\  /    A nd           | Website:  www.openfoam.com                      |
|    \\/     M anipulation  |                                                 |
\*---------------------------------------------------------------------------*/
FoamFile
{
    version     2.0;
    format      ascii;
    arch        "LSB;label=32;scalar=64";
    class       volScalarField;
    location    "0.0005";
    object      sourcePV;
}
// * * * * * * * * * * * * * * * * * * * * * * * * * * * * * * * * * * * * * //

dimensions      [1 -3 -1 0 0 0 0];

internalField   nonuniform List<scalar> 
530
(
3.10887252e-08
3.14229305e-08
0.410925081
0.213619599
3.21985343e-08
3.24379212e-08
0.376591421
0.190540798
3.32205476e-08
3.35819636e-08
0.345591825
0.173826533
3.43552165e-08
3.47417604e-08
0.310053135
0.16464141
3.55322985e-08
3.58886945e-08
0.270350308
0.159766818
3.68462055e-08
3.70034886e-08
0.217009211
0.172649088
0.000495060711
3.82340113e-08
0.147644909
0.183555541
0.00856438516
3.95962937e-08
0.0884749196
0.178299041
0.0119482717
4.10544255e-08
0.0633923268
0.157246851
0.00959818641
0.00414015713
0.062667049
0.0916558567
0.00306008602
0.0471401273
0.0572300689
0.0110898743
4.53954621e-08
0.103632336
0.0556353073
4.6766315e-08
4.69946185e-08
0.125140517
0.0601015181
4.84412459e-08
4.87461856e-08
0.120036875
0.0552670689
5.01715307e-08
5.05567727e-08
0.110306867
0.0480323747
5.22668266e-08
5.26510141e-08
0.0864227345
0.0412600584
0.00162610487
5.46222289e-08
0.0587529935
0.0310610204
0.0154345131
0.0055746044
0.0180285006
0.0134663868
0.0625212866
0.0251406604
5.91245691e-08
0.00237391936
0.0705011863
0.0474761854
6.07337059e-08
6.11836462e-08
0.0637655133
0.0487041105
6.28083811e-08
6.30580661e-08
0.0471015541
0.0500043075
6.48245184e-08
6.47809095e-08
0.0354576841
0.0482273472
0.000675065026
6.69723251e-08
0.0267274143
0.0470149318
0.00187134722
6.8970707e-08
0.0194501391
0.0453963924
0.00293299084
7.08210251e-08
0.0133923772
0.0431815612
0.00412097096
7.2517057e-08
0.0109908656
0.0405287291
0.00508677116
7.42849934e-08
0.0095006957
0.0377277317
0.00506273802
7.63880262e-08
0.00871639534
0.0344291995
0.00475212247
7.82657526e-08
0.00821509149
0.0311969143
0.00420580832
7.98909135e-08
0.00796270533
0.0280967362
0.00338446035
8.12961202e-08
0.00812595908
0.0247177643
0.00205878193
8.2550181e-08
0.00860973077
0.0210933819
0.000985317512
8.40514766e-08
0.00899169934
0.0178106578
8.88374209e-05
8.65161969e-08
0.00906526861
0.0154924471
8.93535337e-08
8.87031792e-08
0.00926788445
0.0143429957
9.10237564e-08
9.06642695e-08
0.0102011721
0.012325784
9.24086806e-08
9.24601764e-08
0.0117474248
0.0100982191
9.33794581e-08
0.000205304988
0.0134624595
0.00424468724
9.42301727e-08
0.0052163759
0.0138854751
0.000282985541
9.51890203e-08
0.00642903754
0.01341796
9.65251265e-08
9.60132559e-08
0.00630134339
0.0126832616
9.71631671e-08
9.67270503e-08
0.00604421823
0.0117765501
9.76664474e-08
9.7285957e-08
0.00594823549
0.0105475198
9.80427597e-08
9.77608819e-08
0.00611587738
0.00900823013
9.83031172e-08
9.82200791e-08
0.00662220666
0.006647134
9.84400399e-08
9.89208526e-08
0.00753894162
0.00236347028
9.86091019e-08
0.00305748057
0.00756128907
9.92609617e-08
9.89229055e-08
0.00461207528
0.00670264555
9.93685696e-08
9.92822449e-08
0.00519867027
0.0052085268
9.94431704e-08
9.97646319e-08
0.00587881459
0.00252498569
9.95006339e-08
0.00169272409
0.00594882837
1.00029226e-07
9.96048216e-08
0.00280057784
0.00549650688
1.00025404e-07
9.97205007e-08
0.00303356675
0.0048764989
1.00016035e-07
9.98575323e-08
0.00322686268
0.00388408455
9.99720065e-08
1.00069726e-07
0.00361233858
0.00210134966
9.99215303e-08
0.000896572586
0.00370044613
1.00182297e-07
9.99090497e-08
0.00187520616
0.00349595188
1.00112644e-07
9.99023903e-08
0.00190831584
0.0032471668
1.00082137e-07
9.98917401e-08
0.00178668819
0.00297960319
1.00050369e-07
9.98753249e-08
0.00164400068
0.00272146104
1.00014949e-07
9.9853347e-08
0.00148640694
0.00249680696
9.99803103e-08
9.98243646e-08
0.00134418186
0.00228246663
9.99400162e-08
9.9796476e-08
0.00121784264
0.00208267549
9.98992354e-08
9.97670272e-08
0.00111171036
0.00189197976
9.98581171e-08
9.97377675e-08
0.00101002882
0.00172073503
9.98188763e-08
9.97084551e-08
0.000906268858
0.00157203753
9.97819625e-08
9.96798976e-08
0.000815819644
0.00143067907
9.97468038e-08
9.96531855e-08
0.000733825476
0.00129995257
9.97137546e-08
9.96285205e-08
0.000657617561
0.00118025097
9.96834173e-08
9.96057581e-08
0.000585764296
0.00107147928
9.96560116e-08
9.95848842e-08
0.000517489995
0.000973356492
9.96315496e-08
9.95658634e-08
0.000452149084
0.000885822717
9.96099962e-08
9.95485911e-08
0.000389080923
0.000808732632
9.95913504e-08
9.95329718e-08
0.000325411827
0.000741203077
9.95761361e-08
9.95190285e-08
0.000247067474
0.000680413932
2.3296388e-06
9.95071071e-08
9.29995666e-05
0.000620288527
0.000240334982
9.94982775e-08
9.95298264e-08
0.000559781795
0.000353772387
9.94908317e-08
9.94994964e-08
0.000502216439
0.000358925328
9.94839853e-08
9.94898492e-08
0.000438767105
0.000333558547
9.94792585e-08
9.94827419e-08
0.000376233272
0.000299949294
9.94752486e-08
9.94778344e-08
0.000317892337
0.000258924745
9.94718878e-08
9.94739967e-08
0.000267831038
0.00021376924
9.94697735e-08
9.94710878e-08
0.000229932584
0.000181946331
9.94669136e-08
9.9468484e-08
0.000203596732
0.000162994855
9.94635943e-08
9.9465844e-08
0.000185007676
0.000147258748
9.94611788e-08
9.94633351e-08
0.000170085444
0.000135231491
9.94591706e-08
9.94611622e-08
0.000156104216
0.000124319697
9.94576318e-08
9.94594373e-08
0.000141831389
0.00011323916
9.94565427e-08
9.94581599e-08
0.000127036485
0.000101671897
9.94558403e-08
9.94572712e-08
0.000111957388
8.97851405e-05
9.94554492e-08
9.94566973e-08
9.69548536e-05
7.78863026e-05
9.94552997e-08
9.94563685e-08
8.23521936e-05
6.62507951e-05
9.9455335e-08
9.94562281e-08
6.83886231e-05
5.50654556e-05
9.94555093e-08
9.94562351e-08
5.52230883e-05
4.44285901e-05
9.9455784e-08
9.94563604e-08
4.29525596e-05
3.43719568e-05
9.94561264e-08
9.94565827e-08
3.16300297e-05
2.48900009e-05
9.94565096e-08
9.9456885e-08
2.12816712e-05
1.59813375e-05
9.94569103e-08
9.94572453e-08
1.1947699e-05
7.74793598e-06
9.94572832e-08
9.94575388e-08
3.89420627e-06
9.00452378e-07
9.94573036e-08
9.94567996e-08
9.94565436e-08
9.9455884e-08
9.94556943e-08
9.94552581e-08
9.94549778e-08
9.94546381e-08
9.945442e-08
9.94541322e-08
9.94539193e-08
9.94536836e-08
9.94535024e-08
9.94533056e-08
9.94531445e-08
9.9452982e-08
9.94528436e-08
9.94527096e-08
9.94525907e-08
9.94524809e-08
9.94523802e-08
9.94522903e-08
9.94522054e-08
9.94521321e-08
9.94520612e-08
9.94520015e-08
9.94519425e-08
9.9451894e-08
9.94518452e-08
9.94518058e-08
9.94517656e-08
9.94517337e-08
9.94517007e-08
9.94516749e-08
9.9451648e-08
9.94516272e-08
9.94516053e-08
9.94515886e-08
9.94515708e-08
9.94515574e-08
9.94515431e-08
9.94515324e-08
9.94515209e-08
9.94515124e-08
9.94515033e-08
9.94514965e-08
9.94514893e-08
9.94514839e-08
9.94514782e-08
9.94514741e-08
9.94514696e-08
9.94514664e-08
9.94514629e-08
9.94514605e-08
9.94514578e-08
9.94514559e-08
9.9451454e-08
9.94514526e-08
9.94514511e-08
9.945145e-08
9.94514489e-08
9.9451448e-08
9.94514472e-08
9.94514466e-08
9.9451446e-08
9.94514458e-08
9.94514455e-08
9.94514455e-08
9.94514455e-08
9.94514457e-08
9.94514459e-08
9.94514463e-08
9.94514467e-08
9.94514471e-08
9.94514476e-08
9.9451448e-08
9.94514484e-08
9.94514488e-08
9.94514491e-08
9.94514494e-08
9.94514496e-08
9.94514498e-08
9.945145e-08
9.94514501e-08
9.94514502e-08
9.94514502e-08
9.94514503e-08
9.94514503e-08
9.94514503e-08
9.94514503e-08
9.94514503e-08
9.94514503e-08
9.94514503e-08
9.94514503e-08
9.94514503e-08
9.94514503e-08
9.94514503e-08
9.94514503e-08
9.94514503e-08
9.94514503e-08
9.94514503e-08
9.94514503e-08
9.94514503e-08
9.94514503e-08
9.94514503e-08
9.94514503e-08
9.94514503e-08
9.94514503e-08
9.94514503e-08
9.94514503e-08
9.94514503e-08
9.94514503e-08
9.94514503e-08
9.94514503e-08
9.94514503e-08
9.94514503e-08
9.94514503e-08
9.94514503e-08
9.94514503e-08
9.94514503e-08
9.94514503e-08
9.94514503e-08
9.94514503e-08
9.94514503e-08
9.94514503e-08
9.94514503e-08
9.94514503e-08
9.94514503e-08
9.94514503e-08
9.94514503e-08
9.94514503e-08
9.94514503e-08
9.94514503e-08
9.94514503e-08
9.94514503e-08
9.94514503e-08
)
;

boundaryField
{
    closed
    {
        type            calculated;
        value           nonuniform List<scalar> 0();
    }
    open
    {
        type            calculated;
        value           uniform 0;
    }
    sides
    {
        type            empty;
    }
    procBoundary5to4
    {
        type            processor;
        value           uniform 0;
    }
}


// ************************************************************************* //
