/*--------------------------------*- C++ -*----------------------------------*\
| =========                 |                                                 |
| \\      /  F ield         | OpenFOAM: The Open Source CFD Toolbox           |
|  \\    /   O peration     | Version:  2306                                  |
|   \\  /    A nd           | Website:  www.openfoam.com                      |
|    \\/     M anipulation  |                                                 |
\*---------------------------------------------------------------------------*/
FoamFile
{
    version     2.0;
    format      ascii;
    arch        "LSB;label=32;scalar=64";
    class       volScalarField;
    location    "0.00086";
    object      PV;
}
// * * * * * * * * * * * * * * * * * * * * * * * * * * * * * * * * * * * * * //

dimensions      [0 0 0 0 0 0 0];

internalField   nonuniform List<scalar> 
530
(
0.00775772437
0.00776467296
0.00777091027
0.00777749556
0.00778340966
0.00778971165
0.00779532321
0.00780135248
0.0078066753
0.00781244288
0.00781749005
0.00782300526
0.00782770586
0.00783264972
0.00783690188
0.00784161183
0.00784561187
0.00785009643
0.00785385413
0.00785812328
0.00786164744
0.00786571068
0.00786900957
0.00787287577
0.00787595722
0.00787963468
0.00788250072
0.00788596741
0.00788860937
0.0078919001
0.00789434106
0.00789746015
0.00789970567
0.00790265548
0.00790471377
0.00790748521
0.00790936809
0.00791192425
0.00791366427
0.00791603875
0.00791763862
0.0079198392
0.00792131787
0.00792332139
0.00792468274
0.00792649107
0.00792773166
0.00792932916
0.00793044072
0.00793185177
0.00793284707
0.00793407609
0.00793495571
0.00793600703
0.00793677163
0.00793764941
0.00793829976
0.00793900792
0.00793954493
0.00794008724
0.0079405119
0.00794089202
0.00794120533
0.00794142699
0.00794162972
0.007941697
0.00794178948
0.00794170701
0.00794171534
0.00794146527
0.00794139588
0.00794094081
0.00794082447
0.0079401747
0.0079400066
0.00793916777
0.0079389179
0.00793788091
0.00793757001
0.00793636171
0.00793598584
0.0079346133
0.00793416912
0.0079326389
0.00793212364
0.00793044179
0.0079298532
0.00792802534
0.00792736165
0.00792539304
0.00792465285
0.00792254848
0.00792173074
0.00791949536
0.00791859928
0.00791623748
0.00791526249
0.00791277871
0.00791172448
0.00790912305
0.00790798942
0.00790527457
0.00790406158
0.00790123741
0.00789994529
0.00789701584
0.00789564499
0.0078926142
0.00789116519
0.00788803693
0.00788651048
0.00788328856
0.00788168555
0.0078783737
0.00787669514
0.00787329705
0.00787154405
0.00786806338
0.00786623719
0.00786267763
0.00786077956
0.00785714499
0.0078551763
0.00785147108
0.00784943205
0.00784565459
0.00784353968
0.00783970149
0.00783751386
0.00783362163
0.00783135888
0.00782741881
0.00782507776
0.0078210965
0.00781875384
0.0078146949
0.0078122036
0.00780817465
0.00780554557
0.00780153846
0.00779878361
0.00779479156
0.00779192197
0.00778793947
0.0077849653
0.00778098786
0.00777791815
0.00777394234
0.00777078486
0.00776680825
0.00776356965
0.00775959063
0.00775627675
0.00775229433
0.0077489105
0.00774492406
0.00774146894
0.00773746419
0.00773394371
0.00772993369
0.00772635777
0.00772234254
0.00771871582
0.00771469557
0.00771102256
0.00770699762
0.00770328269
0.00769925351
0.00769550087
0.00769146804
0.00768768177
0.00768364602
0.00767983
0.0076757922
0.00767195018
0.00766791132
0.00766404689
0.00766000806
0.00765612468
0.00765208708
0.00764818808
0.00764415299
0.00764024157
0.00763621037
0.0076322896
0.00762826375
0.00762433659
0.0076203176
0.00761638691
0.00761237637
0.00760844058
0.0076044354
0.00760050266
0.00759651143
0.00759258563
0.00758860994
0.00758469349
0.00758073491
0.00757683017
0.00757289025
0.0075689995
0.00756507979
0.00756120522
0.00755730728
0.00755345102
0.00754957638
0.00754574049
0.00754189068
0.00753807714
0.00753425368
0.00753046439
0.0075266688
0.00752290559
0.0075191394
0.00751540402
0.00751166874
0.00750796287
0.00750426001
0.00750057931
0.00749690044
0.00749324828
0.00748960282
0.00748598366
0.00748237322
0.00747878869
0.00747521769
0.00747167878
0.00746815227
0.00746465028
0.00746116224
0.00745769832
0.00745424974
0.00745082498
0.00744741682
0.00744403227
0.00744066543
0.00743732206
0.00743399741
0.00743069615
0.0074274145
0.0074241562
0.00742091833
0.0074177038
0.00741451043
0.00741134042
0.00740819221
0.00740506741
0.007401965
0.00739888605
0.00739583001
0.00739279748
0.00738978833
0.00738680276
0.00738384096
0.00738090284
0.00737798881
0.00737509856
0.00737223268
0.00736939066
0.00736657325
0.0073637798
0.00736101113
0.00735826652
0.0073555468
0.00735285127
0.00735018068
0.0073475344
0.00734491307
0.00734231617
0.0073397442
0.00733719674
0.0073346742
0.00733217619
0.00732970311
0.00732725451
0.0073248309
0.00732243161
0.00732005741
0.00731770264
0.00731536987
0.00731306179
0.00731077884
0.0073085207
0.0073062874
0.00730407895
0.00730189507
0.007299736
0.00729760128
0.00729549127
0.00729340541
0.00729134412
0.00728930676
0.00728729384
0.00728530458
0.00728333964
0.00728139807
0.00727948069
0.00727758636
0.00727571611
0.00727386855
0.00727204495
0.00727024368
0.00726846623
0.00726671074
0.00726497889
0.0072632687
0.00726158184
0.007259919
0.00725827999
0.00725666178
0.00725506631
0.00725349124
0.0072519387
0.00725040621
0.00724889598
0.00724740549
0.00724593696
0.00724448785
0.00724306042
0.00724165206
0.00724026508
0.00723889683
0.00723754966
0.00723622086
0.00723491286
0.00723362285
0.00723235333
0.00723110146
0.00722986974
0.00722865532
0.00722746073
0.00722628308
0.00722512492
0.00722398335
0.00722286093
0.00722175475
0.00722066736
0.00721959587
0.00721854281
0.00721750531
0.00721648587
0.00721548166
0.00721449513
0.0072135235
0.00721256917
0.00721162941
0.00721070658
0.00720979799
0.00720890593
0.00720802781
0.00720716582
0.00720631746
0.00720548483
0.00720466553
0.00720386156
0.00720307062
0.00720229461
0.00720153133
0.00720078258
0.00720004627
0.00719932409
0.00719861406
0.00719791776
0.00719723333
0.00719656223
0.00719590273
0.00719525616
0.0071946209
0.00719399819
0.00719338652
0.00719278701
0.00719219828
0.00719162131
0.00719105486
0.0071904998
0.00718995499
0.0071894212
0.0071888974
0.00718838425
0.00718788083
0.00718738771
0.00718690407
0.00718643037
0.0071859659
0.00718551102
0.00718506512
0.00718462849
0.00718420058
0.00718378161
0.00718337112
0.00718296924
0.00718257561
0.00718219028
0.00718181295
0.00718144363
0.00718108206
0.00718072821
0.00718038188
0.00718004299
0.00717971137
0.00717938692
0.00717906951
0.00717875902
0.00717845532
0.00717815829
0.00717786782
0.00717758378
0.00717730607
0.00717703457
0.00717676915
0.00717650972
0.00717625616
0.00717600837
0.00717576622
0.00717552964
0.00717529847
0.0071750727
0.00717485209
0.00717463671
0.00717442627
0.00717422088
0.00717402023
0.00717382445
0.00717363318
0.00717344665
0.00717326441
0.00717308675
0.00717291318
0.00717274404
0.00717257879
0.00717241783
0.00717226057
0.00717210747
0.00717195785
0.00717181228
0.00717167001
0.00717153166
0.00717139643
0.00717126499
0.0071711365
0.00717101169
0.00717088965
0.00717077118
0.00717065532
0.00717054292
0.00717043297
0.00717032638
0.00717022208
0.00717012104
0.00717002214
0.0071699264
0.00716983268
0.00716974191
0.00716964977
0.00716955454
0.00716945503
0.00716935273
0.0071692463
0.00716913754
0.007169025
0.00716891079
0.00716879336
0.00716867516
0.00716855454
0.00716843427
0.00716831269
0.00716819275
0.00716807291
0.00716795614
0.00716784117
0.00716773067
0.00716762394
0.00716752291
0.00716742773
0.00716733914
0.00716725839
0.00716718465
0.00716712025
0.0071670629
0.00716701536
0.00716697473
0.00716694296
0.00716691784
0.00716689948
0.0071668869
0.00716687897
0.0071668754
0.00716687503
0.00716687535
0.00716687976
0.00716688902
0.00716689637
0.00716689996
0.00716690165
0.00716690232
0.00716690254
0.00716690259
0.00716690259
0.00716690258
0.00716690258
0.00716690258
0.00716690258
0.00716690258
0.00716690257
0.00716690257
0.00716690257
0.00716690257
0.00716690257
0.00716690257
0.00716690257
0.00716690257
0.00716690257
0.00716690257
0.00716690257
0.00716690257
0.00716690257
0.00716690257
0.00716690257
0.00716690257
0.00716690257
0.00716690257
0.00716690257
0.00716690257
0.00716690257
0.00716690257
0.00716690257
0.00716690257
0.00716690257
0.00716690257
0.00716690257
)
;

boundaryField
{
    closed
    {
        type            zeroGradient;
    }
    open
    {
        type            zeroGradient;
    }
    sides
    {
        type            empty;
    }
    procBoundary5to4
    {
        type            processor;
        value           uniform 0.00775113476;
    }
}


// ************************************************************************* //
