/*--------------------------------*- C++ -*----------------------------------*\
| =========                 |                                                 |
| \\      /  F ield         | OpenFOAM: The Open Source CFD Toolbox           |
|  \\    /   O peration     | Version:  2306                                  |
|   \\  /    A nd           | Website:  www.openfoam.com                      |
|    \\/     M anipulation  |                                                 |
\*---------------------------------------------------------------------------*/
FoamFile
{
    version     2.0;
    format      ascii;
    arch        "LSB;label=32;scalar=64";
    class       volScalarField;
    location    "0.00086";
    object      Z;
}
// * * * * * * * * * * * * * * * * * * * * * * * * * * * * * * * * * * * * * //

dimensions      [0 0 0 0 0 0 0];

internalField   nonuniform List<scalar> 
530
(
0.0163267781
0.0163309979
0.0163351335
0.0163387852
0.0163426393
0.0163460729
0.0163496693
0.016352892
0.0163562383
0.016359256
0.0163623597
0.0163651762
0.0163679019
0.0163707688
0.0163735658
0.0163762209
0.0163787549
0.016381203
0.0163834813
0.0163857251
0.016387754
0.0163897963
0.0163915813
0.0163934255
0.0163949725
0.0163966214
0.0163978869
0.016399085
0.016399957
0.0164009686
0.0164016064
0.0164024309
0.0164028387
0.016403477
0.0164036594
0.0164041034
0.0164040685
0.0164042585
0.0164040407
0.0164040417
0.0164036231
0.016403451
0.0164028384
0.0164024676
0.0164016604
0.0164010946
0.0164000384
0.0163990832
0.0163977047
0.016396566
0.0163949844
0.016393664
0.0163918796
0.0163903794
0.016388393
0.0163867143
0.016384527
0.016382671
0.016380284
0.0163782517
0.0163756666
0.0163734592
0.016370677
0.0163682965
0.0163653174
0.0163627673
0.0163595899
0.0163568755
0.0163536186
0.016350651
0.0163472874
0.0163439412
0.0163405945
0.0163368902
0.0163335456
0.0163294696
0.0163259658
0.0163214805
0.0163179521
0.0163131501
0.0163095859
0.0163044809
0.0163008711
0.0162954758
0.0162918116
0.0162861377
0.0162824114
0.0162764699
0.0162726749
0.0162664761
0.0162626064
0.0162561601
0.0162522107
0.0162455263
0.0162414927
0.016234579
0.0162304574
0.0162233231
0.0162191101
0.0162117636
0.0162074565
0.0161999058
0.0161955024
0.0161877554
0.0161832539
0.0161753182
0.0161707171
0.0161626002
0.0161578988
0.016149608
0.0161448058
0.0161363481
0.0161314449
0.0161228273
0.0161178235
0.0161090528
0.016103949
0.016095032
0.016089829
0.0160807724
0.0160754714
0.0160662826
0.0160608844
0.0160515718
0.0160460646
0.0160365116
0.0160308117
0.0160211543
0.0160153458
0.0160055982
0.0159996744
0.0159898499
0.0159838023
0.0159739161
0.0159679159
0.0159578879
0.0159515952
0.0159416729
0.0159351091
0.0159252748
0.0159184649
0.0159087032
0.0159016704
0.0158919686
0.0158847342
0.0158750818
0.0158676647
0.0158580534
0.0158504701
0.0158408934
0.0158331582
0.0158236115
0.0158157368
0.0158062168
0.0157982139
0.0157887182
0.0157806043
0.0157711448
0.0157629294
0.0157534917
0.0157451795
0.0157357625
0.0157273632
0.0157179665
0.0157094893
0.0157001125
0.0156915662
0.0156822095
0.0156736029
0.0156642666
0.0156556077
0.0156462927
0.0156375894
0.0156282967
0.0156195564
0.0156102872
0.0156015172
0.0155922732
0.0155834804
0.0155742631
0.0155654541
0.0155562656
0.0155474467
0.0155382891
0.0155294664
0.0155203419
0.0155115215
0.0155024324
0.0154936198
0.0154845686
0.015475775
0.0154667706
0.0154579943
0.0154490302
0.0154402746
0.0154313537
0.0154226239
0.015413749
0.0154050498
0.015396224
0.0153875601
0.0153787863
0.0153701623
0.0153614436
0.0153528639
0.0153442032
0.015335672
0.0153270723
0.0153185938
0.0153100582
0.0153016363
0.0152931677
0.0152848063
0.0152764077
0.0152681105
0.0152597848
0.0152515555
0.0152433055
0.0152351533
0.015226991
0.0152189177
0.0152108383
0.0152028443
0.0151948505
0.0151869388
0.0151790016
0.0151710698
0.0151631414
0.0151552928
0.0151474523
0.0151396892
0.0151319385
0.0151242629
0.0151166039
0.015109018
0.0151014523
0.015093958
0.0150864873
0.0150790865
0.0150717123
0.0150644066
0.0150571303
0.0150499213
0.0150427443
0.0150356336
0.0150285572
0.015021546
0.0150145712
0.0150076609
0.0150007889
0.0149939806
0.0149872122
0.0149805069
0.014973843
0.0149672417
0.0149606831
0.0149541865
0.0149477339
0.0149413427
0.0149349966
0.0149287116
0.0149224724
0.0149162939
0.0149101622
0.0149040906
0.0148980665
0.0148921022
0.014886186
0.0148803291
0.0148745209
0.0148687716
0.0148630714
0.0148574298
0.0148518373
0.0148463034
0.0148408185
0.0148353923
0.0148300147
0.0148247045
0.0148194486
0.0148142504
0.0148091005
0.0148040076
0.0147989631
0.0147939753
0.0147890357
0.0147841525
0.0147793172
0.0147745381
0.0147698065
0.0147651309
0.0147605024
0.0147559295
0.0147514034
0.0147469326
0.014742508
0.0147381384
0.0147338146
0.0147295454
0.0147253214
0.0147211517
0.0147170267
0.0147129554
0.0147089283
0.0147049546
0.0147010244
0.0146971472
0.0146933108
0.0146895264
0.0146857842
0.0146820941
0.0146784458
0.0146748489
0.0146712931
0.0146677883
0.0146643239
0.0146609098
0.0146575355
0.014654211
0.0146509255
0.0146476892
0.0146444912
0.0146413418
0.0146382301
0.0146351663
0.0146321394
0.0146291597
0.0146262164
0.0146233195
0.0146204583
0.0146176428
0.0146148623
0.0146121268
0.0146094257
0.0146067687
0.0146041454
0.0146015656
0.0145990188
0.0145965147
0.0145940429
0.014591613
0.0145892148
0.0145868576
0.0145845316
0.0145822457
0.0145799903
0.0145777743
0.0145755881
0.0145734405
0.0145713221
0.0145692413
0.0145671892
0.0145651739
0.0145631867
0.0145612353
0.0145593115
0.0145574227
0.0145555608
0.014553733
0.0145519317
0.0145501636
0.0145484214
0.0145467115
0.0145450269
0.0145433738
0.0145417454
0.0145401477
0.0145385742
0.0145370305
0.0145355105
0.0145340193
0.0145325514
0.0145311115
0.0145296943
0.0145283043
0.0145269364
0.014525595
0.0145242751
0.0145229809
0.0145217078
0.0145204596
0.0145192319
0.0145180283
0.0145168447
0.0145156845
0.0145145438
0.0145134258
0.0145123267
0.0145112496
0.014510191
0.0145091536
0.0145081342
0.0145071353
0.014506154
0.0145051925
0.014504248
0.0145033228
0.0145024141
0.014501524
0.0145006499
0.0144997939
0.0144989533
0.0144981304
0.0144973222
0.0144965312
0.0144957545
0.0144949944
0.0144942481
0.0144935179
0.014492801
0.0144920997
0.0144914112
0.014490738
0.0144900769
0.0144894307
0.0144887962
0.0144881762
0.0144875673
0.0144869725
0.0144863884
0.014485818
0.0144852578
0.0144847109
0.0144841737
0.0144836495
0.0144831346
0.0144826323
0.0144821388
0.0144816577
0.0144811848
0.0144807241
0.0144802711
0.01447983
0.0144793963
0.014478974
0.0144785588
0.0144781548
0.0144777573
0.0144773708
0.0144769905
0.0144766208
0.014476257
0.0144759036
0.0144755556
0.0144752178
0.014474885
0.0144745622
0.0144742442
0.0144739357
0.0144736318
0.0144733372
0.0144730468
0.0144727652
0.0144724773
0.0144721793
0.0144718655
0.0144715421
0.0144712027
0.0144708546
0.014470491
0.0144701202
0.0144697349
0.0144693443
0.0144689411
0.0144685354
0.0144681197
0.0144677048
0.0144672838
0.0144668671
0.0144664495
0.01446604
0.0144656357
0.0144652432
0.0144648632
0.0144644979
0.0144641527
0.0144638246
0.0144635233
0.014463241
0.0144629897
0.0144627595
0.0144625603
0.0144623844
0.014462236
0.0144621107
0.0144620097
0.0144619268
0.014461869
0.0144618204
0.0144617821
0.0144617525
0.0144617323
0.0144617204
0.0144617136
0.0144617101
0.0144617083
0.0144617075
0.0144617072
0.014461707
0.0144617069
0.0144617069
0.0144617069
0.0144617069
0.0144617069
0.0144617069
0.0144617069
0.0144617069
0.0144617069
0.0144617069
0.0144617069
0.0144617069
0.0144617069
0.0144617069
0.0144617069
0.0144617069
0.0144617069
0.0144617069
0.0144617069
0.0144617069
0.0144617069
0.0144617069
0.0144617069
0.0144617069
0.0144617069
0.0144617069
0.0144617069
0.0144617069
0.0144617069
0.0144617069
0.0144617069
)
;

boundaryField
{
    closed
    {
        type            zeroGradient;
    }
    open
    {
        type            zeroGradient;
    }
    sides
    {
        type            empty;
    }
    procBoundary5to4
    {
        type            processor;
        value           uniform 0.0163220795;
    }
}


// ************************************************************************* //
