/*--------------------------------*- C++ -*----------------------------------*\
| =========                 |                                                 |
| \\      /  F ield         | OpenFOAM: The Open Source CFD Toolbox           |
|  \\    /   O peration     | Version:  2306                                  |
|   \\  /    A nd           | Website:  www.openfoam.com                      |
|    \\/     M anipulation  |                                                 |
\*---------------------------------------------------------------------------*/
FoamFile
{
    version     2.0;
    format      ascii;
    arch        "LSB;label=32;scalar=64";
    class       volScalarField;
    location    "0.0018";
    object      H;
}
// * * * * * * * * * * * * * * * * * * * * * * * * * * * * * * * * * * * * * //

dimensions      [0 0 0 0 0 0 0];

internalField   nonuniform List<scalar> 
531
(
9.63260688e-10
1.2256165e-09
4.03483264e-08
4.17860784e-08
9.07932309e-10
1.35150845e-09
1.17975451e-09
3.21870303e-08
4.60604626e-08
4.56971809e-08
1.07083467e-09
1.18791481e-09
3.29842951e-08
4.91315235e-08
4.60771451e-08
9.96328612e-10
3.81780378e-08
4.89367166e-08
8.83152917e-10
1.22337599e-09
1.07329582e-09
1.31375653e-09
1.2651668e-09
3.25365507e-08
4.40554869e-08
4.22329777e-08
5.00740492e-08
4.96703948e-08
9.50628744e-10
1.20079713e-09
4.42537852e-08
4.39969529e-08
9.45020792e-10
1.31098561e-09
1.13180442e-09
3.08199694e-08
4.50378953e-08
4.61967618e-08
4.60012959e-08
9.38153384e-10
1.20122306e-09
4.49823078e-08
4.69348363e-08
9.54493904e-10
1.19665876e-09
4.59696708e-08
4.76629118e-08
9.52276927e-10
1.19480864e-09
4.77309373e-08
4.82620879e-08
9.26700418e-10
1.20353702e-09
1.09779265e-09
1.2326835e-09
3.94715982e-08
4.34392437e-08
1.13411926e-09
1.27736864e-09
4.12091642e-08
4.07936066e-08
1.16220431e-09
3.6386719e-08
4.51214464e-08
1.13846475e-09
1.31425854e-09
1.17408178e-09
3.05142399e-08
4.50073963e-08
4.45619546e-08
4.74363484e-08
1.156424e-09
1.12954773e-09
4.13646068e-08
5.32278238e-08
5.219146e-08
1.08994148e-09
1.1544903e-09
4.59547464e-08
4.92912265e-08
1.10025482e-09
1.17913088e-09
4.88106591e-08
4.82139392e-08
1.11161753e-09
1.22559064e-09
1.12605926e-09
4.20122111e-08
4.87663989e-08
1.24350636e-09
1.19507248e-09
1.31896306e-09
1.24817526e-09
2.65779228e-08
4.16514125e-08
4.18531252e-08
4.39612992e-08
1.31830399e-09
1.19985664e-09
3.6395979e-08
4.92996594e-08
4.12316932e-08
1.14577399e-09
3.84445355e-08
4.85501924e-08
1.2999703e-09
1.19571733e-09
4.44434796e-08
4.21329812e-08
1.22189086e-09
1.33218253e-09
1.1945647e-09
3.19252928e-08
4.61296109e-08
4.54166242e-08
4.60033557e-08
1.21950919e-09
1.19149279e-09
4.73185383e-08
4.38950269e-08
1.18543626e-09
4.31853447e-08
4.91091231e-08
1.2363481e-09
1.20874064e-09
1.21762318e-09
4.28951875e-08
4.32513668e-08
1.23025269e-09
1.33004659e-09
1.20307183e-09
3.45384793e-08
4.31252575e-08
1.41356898e-09
1.19838667e-09
3.67002244e-08
4.29168845e-08
4.5471243e-08
4.25433057e-08
1.17511072e-09
4.42181807e-08
4.82385052e-08
1.17862608e-09
1.18145319e-09
1.1149892e-09
4.60441527e-08
4.47007607e-08
1.13259426e-09
4.68815393e-08
5.02924814e-08
1.15317631e-09
1.15894983e-09
1.08871231e-09
4.62974639e-08
4.6186157e-08
1.17601308e-09
1.26304482e-09
1.13112804e-09
1.33052665e-09
1.09356832e-09
3.25824417e-08
4.53346441e-08
4.087629e-08
5.03413771e-08
4.17381191e-08
1.05852213e-09
4.27421188e-08
4.9544261e-08
1.28560175e-09
1.05175666e-09
4.42558927e-08
4.68881424e-08
1.27513769e-09
1.00101881e-09
4.33755448e-08
5.46897436e-08
4.54812644e-08
1.11071213e-09
1.11914242e-09
1.1721721e-09
1.05071127e-09
4.32657565e-08
4.64016135e-08
1.26022099e-09
9.98883721e-10
4.4093871e-08
5.50489046e-08
4.50702119e-08
1.14610725e-09
1.14526378e-09
1.23366892e-09
1.07378985e-09
3.73845979e-08
4.6134951e-08
4.58205857e-08
4.37109079e-08
1.1934648e-09
9.9539046e-10
4.68787563e-08
4.48596723e-08
1.19789173e-09
9.8401269e-10
4.68704924e-08
4.40953994e-08
1.18291467e-09
1.01546375e-09
4.88252927e-08
4.116608e-08
1.14547069e-09
1.30481e-09
1.09055259e-09
1.33955461e-09
1.03730946e-09
3.56016109e-08
4.43465884e-08
4.40820002e-08
4.75196655e-08
5.51527182e-08
4.68196569e-08
1.02252186e-09
1.18057715e-09
9.15513664e-10
4.67277146e-08
4.35986892e-08
1.14463056e-09
1.24756626e-09
1.08229202e-09
4.27550151e-08
4.40390848e-08
1.30946742e-09
1.05447756e-09
4.12839913e-08
5.03314198e-08
4.10401199e-08
1.19606717e-09
1.08741339e-09
4.27148512e-08
4.17240239e-08
1.31196872e-09
1.11216804e-09
3.9931965e-08
4.75270748e-08
3.96589903e-08
1.26280473e-09
1.1167481e-09
4.0173559e-08
4.91952874e-08
3.97342175e-08
1.19342184e-09
1.12982499e-09
4.40834507e-08
3.49692235e-08
1.14748702e-09
3.42167365e-08
4.47547505e-08
1.38842146e-09
1.01711884e-09
4.17616396e-08
4.17828735e-08
1.33851241e-09
1.04828871e-09
4.08859957e-08
3.92802101e-08
1.33312531e-09
1.14341493e-09
4.1606092e-08
4.4258979e-08
4.78034392e-08
3.9681666e-08
1.153267e-09
1.30482894e-09
1.09083116e-09
4.01537369e-08
4.31804977e-08
1.31421673e-09
1.00149787e-09
4.26843529e-08
4.19791547e-08
1.29281137e-09
1.00132047e-09
4.42393811e-08
4.16256019e-08
1.26531348e-09
1.03955739e-09
4.60397569e-08
3.76452681e-08
1.16692929e-09
1.32791553e-09
1.06356161e-09
4.00206395e-08
4.75303502e-08
4.87670587e-08
4.12058513e-08
1.09485175e-09
1.25465829e-09
9.38519368e-10
4.34811152e-08
5.48017624e-08
4.34745428e-08
1.15966316e-09
1.20427388e-09
9.39575693e-10
4.67107657e-08
4.69299249e-08
1.24368246e-09
7.85671634e-10
4.20839116e-08
9.86131454e-10
9.94768067e-10
4.65812175e-08
4.06279624e-08
1.20250869e-09
1.08413199e-09
4.43814874e-08
4.58691914e-08
5.00844551e-08
4.13337079e-08
1.04820623e-09
1.21151483e-09
8.9110818e-10
4.60172706e-08
4.05509271e-08
1.02769637e-09
4.65382972e-08
4.94441542e-08
1.2920832e-09
1.03524568e-09
1.32455336e-09
9.22651915e-10
3.95971215e-08
5.08565981e-08
3.95480995e-08
1.18120993e-09
1.09247302e-09
4.2370929e-08
4.96814973e-08
4.09662488e-08
1.20526239e-09
1.03616335e-09
4.31888022e-08
5.30396661e-08
4.13229141e-08
1.20524323e-09
1.27197524e-09
9.97493078e-10
4.24304789e-08
4.22589969e-08
1.31020657e-09
1.02571297e-09
4.07414946e-08
5.10245603e-08
4.04732126e-08
1.21630395e-09
1.30073843e-09
9.78047871e-10
4.14461505e-08
4.07020666e-08
1.34160761e-09
1.07889682e-09
3.88727479e-08
4.73188111e-08
3.87777652e-08
1.24819512e-09
1.13280348e-09
4.02362302e-08
4.79442186e-08
3.97840665e-08
1.2684193e-09
1.08487655e-09
4.04112704e-08
4.96480281e-08
4.00484474e-08
1.20605284e-09
1.03022241e-09
4.25956994e-08
4.06382492e-08
1.27160717e-09
1.09861674e-09
4.39071446e-08
4.67783069e-08
5.08316666e-08
4.41348668e-08
1.19561823e-09
1.27564755e-09
1.07781667e-09
1.32266724e-09
9.58159371e-10
3.73485868e-08
4.97500965e-08
3.90374358e-08
1.19085987e-09
1.04337752e-09
4.33615127e-08
4.11875572e-08
1.29682299e-09
1.02286099e-09
4.20576471e-08
4.12758356e-08
1.35468911e-09
1.07763806e-09
3.94110074e-08
4.89276533e-08
3.99622242e-08
1.2134651e-09
1.08183503e-09
4.30780114e-08
4.22525155e-08
1.31243286e-09
1.08127168e-09
4.04876989e-08
4.93438648e-08
4.24107886e-08
1.29148535e-09
1.01564229e-09
3.53746467e-08
1.18474656e-09
1.20989382e-09
4.16154293e-08
4.45088196e-08
3.97146363e-08
1.29951443e-09
1.10964628e-09
4.02121214e-08
4.87875477e-08
4.2207012e-08
1.22443178e-09
1.04980342e-09
4.31890471e-08
5.5034431e-08
4.33164126e-08
1.14199249e-09
1.24584548e-09
9.47036517e-10
4.43932911e-08
4.08770001e-08
1.20571539e-09
1.35482772e-09
1.05166436e-09
3.31050121e-08
5.29072524e-08
3.9982303e-08
1.24355691e-09
1.37139454e-09
1.15189661e-09
3.62016589e-08
4.00489409e-08
1.44209069e-09
1.18440121e-09
3.42949978e-08
4.18853168e-08
4.26425875e-08
4.11237408e-08
1.31896094e-09
1.08163857e-09
4.16386293e-08
4.05837534e-08
1.33492661e-09
1.15919813e-09
4.02973751e-08
4.39493811e-08
4.6226433e-08
4.41140595e-08
1.22937845e-09
9.91723054e-10
4.7239443e-08
4.51254484e-08
1.21821051e-09
1.00308361e-09
4.86044453e-08
4.26932188e-08
1.16559036e-09
1.24277636e-09
1.0924317e-09
4.39171037e-08
4.54841168e-08
1.27462679e-09
1.07206151e-09
4.45302679e-08
4.72559418e-08
1.27939371e-09
9.64093238e-10
4.465018e-08
5.94619366e-08
4.84886582e-08
1.15834997e-09
1.19024032e-09
1.08914701e-09
1.20954409e-09
1.0103784e-09
4.35754957e-08
3.802243e-08
1.17256892e-09
4.04135911e-08
4.36084301e-08
1.29925094e-09
1.32289793e-09
1.14492769e-09
3.3868906e-08
4.86017559e-08
4.34142605e-08
5.30283579e-08
4.7621797e-08
1.1277006e-09
9.89140101e-10
5.05426254e-08
4.48421157e-08
1.14243959e-09
1.20805829e-09
1.09830813e-09
4.37919295e-08
4.46737134e-08
1.24507944e-09
1.05493544e-09
4.4761506e-08
4.04629318e-08
1.22458887e-09
1.30686964e-09
1.17750264e-09
2.24455078e-08
4.58784544e-08
4.56226705e-08
4.57273188e-08
1.26050046e-09
1.03404366e-09
4.33571385e-08
5.52917803e-08
4.3807378e-08
1.11083141e-09
1.31137114e-09
1.00013829e-09
3.88016087e-08
)
;

boundaryField
{
    closed
    {
        type            calculated;
        value           nonuniform List<scalar> 0();
    }
    open
    {
        type            calculated;
        value           nonuniform List<scalar> 0();
    }
    sides
    {
        type            empty;
    }
    procBoundary1to0
    {
        type            processor;
        value           uniform 4.83043533e-08;
    }
    procBoundary1to2
    {
        type            processor;
        value           uniform 5.37434185e-08;
    }
}


// ************************************************************************* //
