/*--------------------------------*- C++ -*----------------------------------*\
| =========                 |                                                 |
| \\      /  F ield         | OpenFOAM: The Open Source CFD Toolbox           |
|  \\    /   O peration     | Version:  2306                                  |
|   \\  /    A nd           | Website:  www.openfoam.com                      |
|    \\/     M anipulation  |                                                 |
\*---------------------------------------------------------------------------*/
FoamFile
{
    version     2.0;
    format      ascii;
    arch        "LSB;label=32;scalar=64";
    class       volScalarField;
    location    "0.0018";
    object      mu;
}
// * * * * * * * * * * * * * * * * * * * * * * * * * * * * * * * * * * * * * //

dimensions      [1 -1 -1 0 0 0 0];

internalField   nonuniform List<scalar> 
531
(
2.02848014e-05
2.02882815e-05
1.96376418e-05
1.95929624e-05
2.02836058e-05
2.02950301e-05
2.02777687e-05
1.97630869e-05
1.94823273e-05
1.94860051e-05
2.028609e-05
2.02887269e-05
1.97726514e-05
1.93945346e-05
1.94780677e-05
2.02841009e-05
1.96925693e-05
1.93993945e-05
2.02818644e-05
2.02836675e-05
2.02758258e-05
2.02896407e-05
2.02791958e-05
1.9767972e-05
1.95384705e-05
1.95813541e-05
1.93691821e-05
1.93764843e-05
2.02710669e-05
2.02867987e-05
1.95336233e-05
1.95361694e-05
2.02827737e-05
2.02803245e-05
2.02773099e-05
1.97821945e-05
1.95099542e-05
1.94792611e-05
1.94808114e-05
2.02713005e-05
2.02845858e-05
1.95138637e-05
1.94538743e-05
2.02727856e-05
2.0286967e-05
1.94853613e-05
1.94328462e-05
2.02752226e-05
2.0289137e-05
1.94349357e-05
1.94153416e-05
2.02791387e-05
2.02912727e-05
2.02766497e-05
2.02949358e-05
1.96605494e-05
1.95489737e-05
2.02903489e-05
2.0289811e-05
1.96091829e-05
1.96225783e-05
2.0300811e-05
1.97382815e-05
1.95039267e-05
2.02945443e-05
2.02854818e-05
2.02879479e-05
1.97732085e-05
1.95094251e-05
1.95179116e-05
1.9440991e-05
2.0296443e-05
2.02820464e-05
1.960263e-05
1.92767408e-05
1.93042002e-05
2.02791654e-05
2.02917001e-05
1.94820221e-05
1.93873299e-05
2.02891585e-05
2.02859879e-05
1.94001625e-05
1.94183208e-05
2.02978146e-05
2.02851007e-05
2.02939406e-05
1.95852832e-05
1.9403605e-05
2.03065024e-05
2.02813824e-05
2.03049859e-05
2.02843116e-05
1.97792828e-05
1.96004067e-05
1.95886785e-05
1.95361142e-05
2.03035761e-05
2.02891469e-05
1.97322875e-05
1.93888641e-05
1.9605291e-05
2.02943748e-05
1.9679884e-05
1.94093883e-05
2.03020165e-05
2.02847082e-05
1.9517059e-05
1.95877131e-05
2.03069508e-05
2.02833141e-05
2.03007882e-05
1.97726648e-05
1.94762821e-05
1.94932527e-05
1.94795764e-05
2.030167e-05
2.02879906e-05
1.9439364e-05
1.95370889e-05
2.03057884e-05
1.95541853e-05
1.93913544e-05
2.03074119e-05
2.02856078e-05
2.03096682e-05
1.95648162e-05
1.95517675e-05
2.03002925e-05
2.02910585e-05
2.0300544e-05
1.97656044e-05
1.9560201e-05
2.03034515e-05
2.02813696e-05
1.97246761e-05
1.95693014e-05
1.94912563e-05
1.9575982e-05
2.0303153e-05
1.95293731e-05
1.9416095e-05
2.0294277e-05
2.02823652e-05
2.02963044e-05
1.94794986e-05
1.95143476e-05
2.02965119e-05
1.94543948e-05
1.93586429e-05
2.029751e-05
2.02816038e-05
2.02994837e-05
1.94728392e-05
1.94721371e-05
2.02898631e-05
2.02896722e-05
2.02825096e-05
2.02872148e-05
2.02731102e-05
1.97706501e-05
1.95054841e-05
1.96162926e-05
1.93611737e-05
1.95908215e-05
2.02835143e-05
1.95665768e-05
1.93830673e-05
2.0293707e-05
2.02724771e-05
1.9525236e-05
1.94612119e-05
2.02908371e-05
2.02653258e-05
1.95508738e-05
1.92345133e-05
1.94921318e-05
2.02768977e-05
2.0280727e-05
2.027765e-05
2.02766599e-05
1.95582201e-05
1.9473914e-05
2.02825398e-05
2.02697067e-05
1.95318142e-05
1.92237253e-05
1.95025616e-05
2.02796284e-05
2.02828292e-05
2.02777487e-05
2.027781e-05
1.97207163e-05
1.94811118e-05
1.9487217e-05
1.954671e-05
2.02861582e-05
2.02726366e-05
1.94554524e-05
1.95173254e-05
2.02876619e-05
2.02688878e-05
1.94555788e-05
1.95381381e-05
2.02883783e-05
2.02765116e-05
1.9400813e-05
1.96117642e-05
2.02887926e-05
2.0289934e-05
2.02754618e-05
2.02871531e-05
2.02663185e-05
1.97606978e-05
1.95349667e-05
1.95321051e-05
1.94409623e-05
1.92199389e-05
1.94561384e-05
2.02857917e-05
2.02849058e-05
2.02833525e-05
1.9459859e-05
1.95458963e-05
2.0290522e-05
2.02844463e-05
2.02909911e-05
1.95693088e-05
1.95354611e-05
2.02926406e-05
2.02793001e-05
1.96044404e-05
1.93610187e-05
1.96085783e-05
2.02843132e-05
2.02901326e-05
1.95690616e-05
1.95971915e-05
2.02931336e-05
2.02865178e-05
1.96426464e-05
1.94389511e-05
1.96475808e-05
2.02900207e-05
2.02896213e-05
1.96363392e-05
1.9392759e-05
1.96437766e-05
2.02846767e-05
2.02969599e-05
1.95329888e-05
1.97609178e-05
2.02979096e-05
1.97588466e-05
1.95131303e-05
2.0308511e-05
2.02813949e-05
1.95860017e-05
1.95994015e-05
2.03096996e-05
2.02748864e-05
1.96110663e-05
1.96680001e-05
2.03018232e-05
2.02784866e-05
1.9596411e-05
1.95295915e-05
1.94271548e-05
1.96466654e-05
2.03007464e-05
2.02919967e-05
2.02977735e-05
1.96391448e-05
1.95577653e-05
2.02958924e-05
2.02762787e-05
1.95648633e-05
1.95943993e-05
2.03052836e-05
2.02748711e-05
1.95217767e-05
1.96027379e-05
2.03047717e-05
2.02816803e-05
1.94746726e-05
1.97035058e-05
2.02967008e-05
2.02878748e-05
2.0290583e-05
1.96440165e-05
1.94375872e-05
1.94021822e-05
1.96073509e-05
2.02909779e-05
2.0282414e-05
2.0282947e-05
1.95522644e-05
1.92308838e-05
1.95489941e-05
2.02741597e-05
2.02807068e-05
2.02595787e-05
1.94610583e-05
1.94609595e-05
2.02900801e-05
2.02539751e-05
1.95832929e-05
2.02594541e-05
2.02749389e-05
1.94690148e-05
1.96321474e-05
2.02731767e-05
2.02683874e-05
1.9529344e-05
1.94880009e-05
1.93673454e-05
1.96074674e-05
2.02801921e-05
2.02787613e-05
2.02776698e-05
1.94824112e-05
1.96266865e-05
2.028434e-05
1.94625837e-05
1.938378e-05
2.03046562e-05
2.02739155e-05
2.03031699e-05
2.02671067e-05
1.96494164e-05
1.93474901e-05
1.96481462e-05
2.02726868e-05
2.02881239e-05
1.95836578e-05
1.93787296e-05
1.96161241e-05
2.02803933e-05
2.0282408e-05
1.95585282e-05
1.92821022e-05
1.96036324e-05
2.02880342e-05
2.02898192e-05
2.02748123e-05
1.95773344e-05
1.95859475e-05
2.02901009e-05
2.02741501e-05
1.9620438e-05
1.93410304e-05
1.96223668e-05
2.02833258e-05
2.02971035e-05
2.02721939e-05
1.96007367e-05
1.96282488e-05
2.02968134e-05
2.02771317e-05
1.96684721e-05
1.94463843e-05
1.96658286e-05
2.02844364e-05
2.02958147e-05
1.96379484e-05
1.94255103e-05
1.96446143e-05
2.02923778e-05
2.02864435e-05
1.9629608e-05
1.93795015e-05
1.96351629e-05
2.02858254e-05
2.02807629e-05
1.95731913e-05
1.96270256e-05
2.02870724e-05
2.02786978e-05
1.95379332e-05
1.94588457e-05
1.93431309e-05
1.95255151e-05
2.02996358e-05
2.03003581e-05
2.02858901e-05
2.02959709e-05
2.02734915e-05
1.97094057e-05
1.93786498e-05
1.96604609e-05
2.02829106e-05
2.02824003e-05
1.95506174e-05
1.96117951e-05
2.02998903e-05
2.02709824e-05
1.95807563e-05
1.96110867e-05
2.03040114e-05
2.02795084e-05
1.96517096e-05
1.94001699e-05
1.96340971e-05
2.02874138e-05
2.02847983e-05
1.95588594e-05
1.95810882e-05
2.02919166e-05
2.02851807e-05
1.9627372e-05
1.93866511e-05
1.95719797e-05
2.02976715e-05
2.02842815e-05
1.97558433e-05
2.02835384e-05
2.0292325e-05
1.9600444e-05
1.9519908e-05
1.96470698e-05
2.02943426e-05
2.02866885e-05
1.9634788e-05
1.9403392e-05
1.95773015e-05
2.02844831e-05
2.02899383e-05
1.95569532e-05
1.92235993e-05
1.95482102e-05
2.02917057e-05
2.02930279e-05
2.02781426e-05
1.95224168e-05
1.96176043e-05
2.02975127e-05
2.02936454e-05
2.02923799e-05
1.97607065e-05
1.92845261e-05
1.96319596e-05
2.0305127e-05
2.03053591e-05
2.0297194e-05
1.97364053e-05
1.96411591e-05
2.03083307e-05
2.02813345e-05
1.97513506e-05
1.95948037e-05
1.95632298e-05
1.96118013e-05
2.03082866e-05
2.02772406e-05
1.95919313e-05
1.96292554e-05
2.02993634e-05
2.02786731e-05
1.96319907e-05
1.95395223e-05
1.94704555e-05
1.95326854e-05
2.02990747e-05
2.02694899e-05
1.94415891e-05
1.95071661e-05
2.0299387e-05
2.02682389e-05
1.94040678e-05
1.95713389e-05
2.02973308e-05
2.0284006e-05
2.02896674e-05
1.95373311e-05
1.94947219e-05
2.02920578e-05
2.02744348e-05
1.95176223e-05
1.94482357e-05
2.02916217e-05
2.02718212e-05
1.95146212e-05
1.90921671e-05
1.94066464e-05
2.02910899e-05
2.02931955e-05
2.02836314e-05
2.02861651e-05
2.02729465e-05
1.95465469e-05
1.9699491e-05
2.02960273e-05
1.96350399e-05
1.9541901e-05
2.02930606e-05
2.02903294e-05
2.02877508e-05
1.97739546e-05
1.94088837e-05
1.9551017e-05
1.92819148e-05
1.94346015e-05
2.02843659e-05
2.02704178e-05
1.9352015e-05
1.95141181e-05
2.02908753e-05
2.02752606e-05
2.02861777e-05
1.95442749e-05
1.95187724e-05
2.02846084e-05
2.02684343e-05
1.95127782e-05
1.96347832e-05
2.02921956e-05
2.02848165e-05
2.02840392e-05
1.98086656e-05
1.94844469e-05
1.94883046e-05
1.94883615e-05
2.0291563e-05
2.02757724e-05
1.95495495e-05
1.92164602e-05
1.95340087e-05
2.02786119e-05
2.02946766e-05
2.02749389e-05
1.96710234e-05
)
;

boundaryField
{
    closed
    {
        type            calculated;
        value           nonuniform List<scalar> 0();
    }
    open
    {
        type            calculated;
        value           nonuniform List<scalar> 0();
    }
    sides
    {
        type            empty;
    }
    procBoundary1to0
    {
        type            processor;
        value           uniform 1.94174246e-05;
    }
    procBoundary1to2
    {
        type            processor;
        value           uniform 1.92624293e-05;
    }
}


// ************************************************************************* //
