/*--------------------------------*- C++ -*----------------------------------*\
| =========                 |                                                 |
| \\      /  F ield         | OpenFOAM: The Open Source CFD Toolbox           |
|  \\    /   O peration     | Version:  2306                                  |
|   \\  /    A nd           | Website:  www.openfoam.com                      |
|    \\/     M anipulation  |                                                 |
\*---------------------------------------------------------------------------*/
FoamFile
{
    version     2.0;
    format      ascii;
    arch        "LSB;label=32;scalar=64";
    class       volScalarField;
    location    "0.0018";
    object      T;
}
// * * * * * * * * * * * * * * * * * * * * * * * * * * * * * * * * * * * * * //

dimensions      [0 0 0 1 0 0 0];

internalField   nonuniform List<scalar> 
531
(
339.713457
339.828151
326.516079
325.536916
339.679111
339.995543
339.589183
329.146802
323.118755
323.19735
339.757382
339.832541
329.392131
321.196764
323.024455
339.702714
327.715889
321.303014
339.637075
339.725863
339.53087
339.870972
339.633104
329.270134
324.347452
325.28322
320.641954
320.801063
339.408041
339.791791
324.241592
324.295865
339.666024
339.664708
339.572111
329.532014
323.723082
323.051857
323.084677
339.411417
339.74295
323.80934
322.494954
339.446591
339.794913
323.185296
322.034596
339.500144
339.8426
322.081346
321.651332
339.58305
339.891058
339.552612
339.976221
327.016758
324.575151
339.860621
339.869451
325.891857
326.185568
340.095869
328.714462
323.590067
339.953964
339.779147
339.813326
329.316739
323.711089
323.895573
322.213318
339.998512
339.676471
325.747719
318.617386
319.218646
339.607083
339.89342
323.111143
321.038483
339.829433
339.770741
321.319188
321.71694
340.022369
339.757857
339.938836
325.36843
321.395046
340.233364
339.671265
340.210782
339.743692
329.308849
325.701051
325.442361
324.294324
340.179537
339.843548
328.581191
321.072443
325.805576
339.951272
327.436447
321.52156
340.142421
339.744857
323.875596
325.423554
340.240148
339.733856
340.100032
329.354952
322.985286
323.355761
323.057307
340.12312
339.816785
322.176379
324.315371
340.209205
324.688567
321.126316
340.252426
339.766622
340.299576
324.922011
324.635477
340.094235
339.904669
340.095866
329.286911
324.821618
340.190635
339.671461
328.414996
325.021818
323.311934
325.166774
340.149483
324.146953
321.667843
339.953848
339.691016
339.98948
323.055915
323.817686
339.996601
322.506077
320.410487
340.021623
339.670933
340.055962
322.910302
322.893836
339.85593
339.864307
339.686936
339.819808
339.473767
329.332536
323.626376
326.046659
320.46654
325.488883
339.698681
324.959702
320.945766
339.956734
339.453748
324.05545
322.657156
339.891801
339.288363
324.616765
317.691963
323.331441
339.559957
339.645808
339.585463
339.546055
324.778901
322.934932
339.706284
339.384902
324.200043
317.455757
323.559337
339.625421
339.696041
339.596553
339.574799
328.333913
323.092394
323.225248
324.527324
339.776576
339.449167
322.529493
323.88511
339.810447
339.364661
322.53223
324.340421
339.824114
339.537708
321.333674
325.948812
339.827864
339.876153
339.52531
339.819759
339.31553
329.20509
324.272181
324.206395
322.213283
317.373583
322.544235
339.743844
339.747036
339.674596
322.625977
324.508259
339.865962
339.746581
339.867351
325.020505
324.280513
339.936635
339.604954
325.787179
320.463082
325.876783
339.736179
339.849114
325.014643
325.630297
339.947892
339.772787
326.623261
322.168804
326.730268
339.871974
339.842038
326.485417
321.157901
326.646429
339.743829
340.006102
324.226025
329.195788
340.029633
329.12249
323.79114
340.298749
339.645887
325.381995
325.679953
340.317757
339.506504
325.930582
327.180527
340.142959
339.599796
325.611832
324.152159
321.909581
326.71014
340.093154
339.921735
340.018472
326.547595
324.76803
340.009174
339.530552
324.921096
325.570658
340.213568
339.499413
323.978501
325.752604
340.198277
339.655418
322.948853
327.953739
340.005724
339.834011
339.855637
326.654591
322.138623
321.36358
325.851109
339.868866
339.702698
339.668924
324.648596
317.612786
324.575924
339.506512
339.657666
339.15248
322.652425
322.651867
339.870513
339.006547
325.324888
339.156414
339.499971
322.827738
326.396652
339.490991
339.368014
324.147724
323.243018
320.601494
325.854928
339.623767
339.615719
339.545484
323.120274
326.274529
339.712502
322.68487
320.960944
340.1996
339.483167
340.171469
339.316481
326.770468
320.167001
326.741736
339.477078
339.805448
325.335678
320.850719
326.043786
339.65088
339.671015
324.785047
318.734822
325.769596
339.819738
339.86885
339.497562
325.195767
325.385504
339.880625
339.486981
326.137491
320.025377
326.177738
339.717289
340.03398
339.43689
325.706427
326.310717
340.033506
339.560541
327.186967
322.331902
327.127213
339.746452
339.981224
326.521803
321.874194
326.665552
339.924872
339.767215
326.338109
320.867585
326.458031
339.771042
339.633799
325.10527
326.282915
339.808098
339.597998
324.334223
322.603914
320.070897
324.060559
340.074721
340.102252
339.753968
340.012137
339.46272
328.081948
320.849302
327.01046
339.70443
339.671881
324.610945
325.949703
340.094986
339.41655
325.268273
325.934804
340.194438
339.612892
326.819601
321.320098
326.433475
339.807218
339.730415
324.791391
325.277496
339.921068
339.738787
326.289152
321.023798
325.076619
340.045187
339.709477
329.094685
339.717419
339.915231
325.701539
323.939416
326.71946
339.972798
339.776197
326.451311
321.39047
325.19293
339.74404
339.839412
324.750072
317.4536
324.557067
339.891742
339.935966
339.563941
323.994086
326.075822
340.029264
339.965433
339.893644
329.125429
318.787957
326.386146
340.20298
340.226641
340.014454
328.670794
326.591347
340.302581
339.668663
328.955329
325.578765
324.88441
325.949229
340.283706
339.563344
325.512588
326.33195
340.088875
339.606198
326.38996
324.369871
322.856875
324.219559
340.067198
339.37908
322.225072
323.661967
340.072486
339.353057
321.404192
325.065026
340.019452
339.736155
339.839554
324.320945
323.388923
339.918701
339.499945
323.888873
322.372447
339.909756
339.426648
323.823314
314.573436
321.460451
339.880492
339.931628
339.705677
339.779056
339.458171
324.522495
327.868265
339.991653
326.458877
324.41963
339.944432
339.887519
339.80476
329.452726
321.510735
324.620296
318.730755
322.07317
339.727468
339.39922
320.265485
323.813809
339.873454
339.53785
339.763276
324.473985
323.915643
339.749802
339.36484
323.783385
326.453647
339.914498
339.763372
339.727439
329.817494
323.164293
323.247734
323.249867
339.905719
339.524038
324.587188
317.296702
324.246183
339.597861
339.9819
339.500741
327.242989
)
;

boundaryField
{
    closed
    {
        type            fixedValue;
        value           nonuniform List<scalar> 0();
    }
    open
    {
        type            zeroGradient;
    }
    sides
    {
        type            empty;
    }
    procBoundary1to0
    {
        type            processor;
        value           uniform 321.697721;
    }
    procBoundary1to2
    {
        type            processor;
        value           uniform 318.303694;
    }
}


// ************************************************************************* //
