/*--------------------------------*- C++ -*----------------------------------*\
| =========                 |                                                 |
| \\      /  F ield         | OpenFOAM: The Open Source CFD Toolbox           |
|  \\    /   O peration     | Version:  2306                                  |
|   \\  /    A nd           | Website:  www.openfoam.com                      |
|    \\/     M anipulation  |                                                 |
\*---------------------------------------------------------------------------*/
FoamFile
{
    version     2.0;
    format      ascii;
    arch        "LSB;label=32;scalar=64";
    class       volScalarField;
    location    "0.00064";
    object      prefDh_H2O;
}
// * * * * * * * * * * * * * * * * * * * * * * * * * * * * * * * * * * * * * //

dimensions      [1 1 -3 0 0 0 0];

internalField   nonuniform List<scalar> 
530
(
-199.482257
-199.706668
-199.868878
-200.076607
-200.236145
-200.434231
-200.585522
-200.779655
-200.925977
-201.102047
-201.245615
-201.410528
-201.552124
-201.706681
-201.846238
-201.991131
-202.128603
-202.264472
-202.399853
-202.527285
-202.660612
-202.78014
-202.911484
-203.019722
-203.142236
-203.241733
-203.362759
-203.456117
-203.575672
-203.663197
-203.781216
-203.863269
-203.979522
-204.056575
-204.168082
-204.242019
-204.351607
-204.424214
-204.529211
-204.600782
-204.701181
-204.771779
-204.867869
-204.937417
-205.027374
-205.094562
-205.180577
-205.246611
-205.328927
-205.393764
-205.4726
-205.536212
-205.611769
-205.674139
-205.746596
-205.80772
-205.87724
-205.93712
-206.003851
-206.062499
-206.126577
-206.184011
-206.24556
-206.301804
-206.360937
-206.416021
-206.472844
-206.5268
-206.581412
-206.634276
-206.686773
-206.738581
-206.789055
-206.839526
-206.886157
-206.933973
-206.978822
-207.025697
-207.068826
-207.11477
-207.156233
-207.201258
-207.241107
-207.285226
-207.323508
-207.366736
-207.403494
-207.445848
-207.48112
-207.52262
-207.556436
-207.597111
-207.629496
-207.669374
-207.700357
-207.739466
-207.769088
-207.807445
-207.835765
-207.873377
-207.900404
-207.93739
-207.962904
-207.998419
-208.022894
-208.056779
-208.079733
-208.11214
-208.134589
-208.165765
-208.18771
-208.217733
-208.239166
-208.26812
-208.289034
-208.316992
-208.337381
-208.364406
-208.384274
-208.410419
-208.429773
-208.455059
-208.473508
-208.49751
-208.515519
-208.538757
-208.556327
-208.578821
-208.595957
-208.617728
-208.634437
-208.655505
-208.671792
-208.692178
-208.708048
-208.727775
-208.743137
-208.76168
-208.77613
-208.793825
-208.80769
-208.824573
-208.83787
-208.853974
-208.866719
-208.882076
-208.894287
-208.908928
-208.920624
-208.934575
-208.945775
-208.959064
-208.969787
-208.982439
-208.992704
-209.004743
-209.01457
-209.026019
-209.034047
-209.043646
-209.051439
-209.060716
-209.06828
-209.077243
-209.084585
-209.093239
-209.100365
-209.10872
-209.115635
-209.123698
-209.130408
-209.138189
-209.144698
-209.152207
-209.158519
-209.165766
-209.171887
-209.178882
-209.184818
-209.19157
-209.197327
-209.203847
-209.20943
-209.215729
-209.221145
-209.227232
-209.232489
-209.238376
-209.24348
-209.249177
-209.254136
-209.259655
-209.264476
-209.269829
-209.274518
-209.27972
-209.284283
-209.289346
-209.293791
-209.298731
-209.303063
-209.307894
-209.312121
-209.316859
-209.320989
-209.325649
-209.329692
-209.334289
-209.338253
-209.343078
-209.348115
-209.353799
-209.358903
-209.364557
-209.369714
-209.375347
-209.380542
-209.386166
-209.391383
-209.397012
-209.402321
-209.408072
-209.413434
-209.419116
-209.424451
-209.430079
-209.435383
-209.440964
-209.446239
-209.451779
-209.457027
-209.462527
-209.467752
-209.473216
-209.478417
-209.483851
-209.489027
-209.493642
-209.497504
-209.501597
-209.505508
-209.509625
-209.513579
-209.517722
-209.521715
-209.525883
-209.529914
-209.534104
-209.53817
-209.542382
-209.546482
-209.550711
-209.554843
-209.559089
-209.56325
-209.567511
-209.571698
-209.575971
-209.580181
-209.584464
-209.588696
-209.592987
-209.597237
-209.601534
-209.6058
-209.610099
-209.614378
-209.618679
-209.622966
-209.627266
-209.631561
-209.635857
-209.640155
-209.644445
-209.648744
-209.653026
-209.657323
-209.661594
-209.665887
-209.670145
-209.674429
-209.678672
-209.682946
-209.687171
-209.691431
-209.695637
-209.699881
-209.704065
-209.708289
-209.712449
-209.716651
-209.720785
-209.724962
-209.729068
-209.733218
-209.737294
-209.741413
-209.745457
-209.749544
-209.753554
-209.757605
-209.761579
-209.765593
-209.76953
-209.773504
-209.777401
-209.781333
-209.78519
-209.789077
-209.792891
-209.796732
-209.800501
-209.804293
-209.808018
-209.811759
-209.815437
-209.819126
-209.822755
-209.82639
-209.82997
-209.833549
-209.837078
-209.840599
-209.844077
-209.847539
-209.850964
-209.854367
-209.857738
-209.861079
-209.864396
-209.867674
-209.870936
-209.87415
-209.877356
-209.880506
-209.883655
-209.88674
-209.889832
-209.89285
-209.895886
-209.898837
-209.901814
-209.904698
-209.907618
-209.910433
-209.913295
-209.916043
-209.918846
-209.921525
-209.92427
-209.926881
-209.929567
-209.93211
-209.934738
-209.937213
-209.939782
-209.942189
-209.944699
-209.947039
-209.949491
-209.951764
-209.954158
-209.956364
-209.9587
-209.96084
-209.963118
-209.965193
-209.967414
-209.969425
-209.971589
-209.973536
-209.975643
-209.977528
-209.979579
-209.981402
-209.983396
-209.98516
-209.987098
-209.988803
-209.990686
-209.992333
-209.99416
-209.995751
-209.997523
-209.99906
-210.000777
-210.002261
-210.003924
-210.005356
-210.006965
-210.008347
-210.009903
-210.011237
-210.012739
-210.014026
-210.015475
-210.016718
-210.018114
-210.019314
-210.020658
-210.021817
-210.023109
-210.024228
-210.025469
-210.02655
-210.027741
-210.028785
-210.029926
-210.030934
-210.032026
-210.033002
-210.034045
-210.034988
-210.035984
-210.036896
-210.037846
-210.038728
-210.039632
-210.040486
-210.041346
-210.042172
-210.042988
-210.043788
-210.044562
-210.045337
-210.04607
-210.04682
-210.047513
-210.048239
-210.048894
-210.049597
-210.050215
-210.050895
-210.051478
-210.052136
-210.052685
-210.053322
-210.053838
-210.054454
-210.054938
-210.055534
-210.055989
-210.056565
-210.056991
-210.057547
-210.057945
-210.058487
-210.058853
-210.059356
-210.059715
-210.060197
-210.060554
-210.061001
-210.061363
-210.061824
-210.062227
-210.062716
-210.063159
-210.063673
-210.064154
-210.06469
-210.065204
-210.065756
-210.066296
-210.066858
-210.067415
-210.067979
-210.068539
-210.069094
-210.069644
-210.070179
-210.070703
-210.071205
-210.071688
-210.072147
-210.072573
-210.072985
-210.073337
-210.073697
-210.07377
-210.073723
-210.073691
-210.073668
-210.073653
-210.073643
-210.073638
-210.073635
-210.073633
-210.073632
-210.073632
-210.073632
-210.073632
-210.073632
-210.073632
-210.073632
-210.073632
-210.073632
-210.073632
-210.073632
-210.073632
-210.073632
-210.073632
-210.073632
-210.073632
-210.073632
-210.073632
-210.073632
-210.073632
-210.073632
-210.073632
-210.073632
-210.073632
-210.073632
-210.073632
-210.073632
-210.073632
-210.073632
-210.073632
-210.073632
-210.073632
-210.073632
-210.073632
-210.073632
-210.073632
-210.073632
-210.073632
-210.073632
-210.073632
-210.073632
-210.073632
)
;

boundaryField
{
    closed
    {
        type            calculated;
        value           nonuniform List<scalar> 0();
    }
    open
    {
        type            calculated;
        value           uniform -210.073632;
    }
    sides
    {
        type            empty;
    }
    procBoundary5to4
    {
        type            processor;
        value           uniform -199.309868;
    }
}


// ************************************************************************* //
