/*--------------------------------*- C++ -*----------------------------------*\
| =========                 |                                                 |
| \\      /  F ield         | OpenFOAM: The Open Source CFD Toolbox           |
|  \\    /   O peration     | Version:  2306                                  |
|   \\  /    A nd           | Website:  www.openfoam.com                      |
|    \\/     M anipulation  |                                                 |
\*---------------------------------------------------------------------------*/
FoamFile
{
    version     2.0;
    format      ascii;
    arch        "LSB;label=32;scalar=64";
    class       volVectorField;
    location    "0.00064";
    object      U;
}
// * * * * * * * * * * * * * * * * * * * * * * * * * * * * * * * * * * * * * //

dimensions      [0 1 -1 0 0 0 0];

internalField   nonuniform List<vector> 
530
(
(3.83652951 0 0)
(3.86273319 0 0)
(3.88453059 0 0)
(3.90109594 0 0)
(3.91179039 0 0)
(3.91603298 0 0)
(3.9131499 0 0)
(3.90298258 0 0)
(3.88511539 0 0)
(3.85940057 0 0)
(3.82570627 0 0)
(3.78416918 0 0)
(3.7349339 0 0)
(3.67836137 0 0)
(3.61487155 0 0)
(3.54503046 0 0)
(3.46950151 0 0)
(3.38901723 0 0)
(3.30443151 0 0)
(3.21659337 0 0)
(3.12648241 0 0)
(3.03500331 0 0)
(2.94316998 0 0)
(2.85185529 0 0)
(2.76208021 0 0)
(2.67471817 0 0)
(2.59070153 0 0)
(2.51077441 0 0)
(2.43571988 0 0)
(2.36614333 0 0)
(2.30265306 0 0)
(2.24569177 0 0)
(2.19567293 0 0)
(2.15287547 0 0)
(2.11755073 0 0)
(2.0898375 0 0)
(2.06973274 0 0)
(2.05719932 0 0)
(2.05209033 0 0)
(2.05426466 0 0)
(2.06342663 0 0)
(2.07933594 0 0)
(2.10156659 0 0)
(2.12979404 0 0)
(2.16349543 0 0)
(2.20231932 0 0)
(2.24570265 0 0)
(2.29326572 0 0)
(2.34439244 0 0)
(2.39869666 0 0)
(2.45555053 0 0)
(2.51458082 0 0)
(2.57516985 0 0)
(2.63697002 0 0)
(2.69939307 0 0)
(2.76212804 0 0)
(2.82463259 0 0)
(2.88664131 0 0)
(2.9476715 0 0)
(3.0075105 0 0)
(3.0657463 0 0)
(3.12222467 0 0)
(3.1766125 0 0)
(3.22881824 0 0)
(3.27859291 0 0)
(3.32591019 0 0)
(3.3706073 0 0)
(3.41272371 0 0)
(3.45218151 0 0)
(3.48908434 0 0)
(3.52343441 0 0)
(3.55539522 0 0)
(3.58503721 0 0)
(3.61257126 0 0)
(3.63812076 0 0)
(3.66194559 0 0)
(3.68423662 0 0)
(3.70528681 0 0)
(3.72529941 0 0)
(3.74457943 0 0)
(3.7633392 0 0)
(3.78188393 0 0)
(3.80041544 0 0)
(3.81922216 0 0)
(3.83847693 0 0)
(3.85843551 0 0)
(3.87922541 0 0)
(3.90105532 0 0)
(3.92399437 0 0)
(3.94819244 0 0)
(3.97365155 0 0)
(4.00045475 0 0)
(4.02853321 0 0)
(4.05789938 0 0)
(4.08841403 0 0)
(4.120019 0 0)
(4.15250698 0 0)
(4.1857519 0 0)
(4.21948265 0 0)
(4.25351098 0 0)
(4.28756422 0 0)
(4.3213161 0 0)
(4.35452879 0 0)
(4.38703479 0 0)
(4.41834606 0 0)
(4.44817756 0 0)
(4.47622798 0 0)
(4.5022119 0 0)
(4.5258128 0 0)
(4.54676761 0 0)
(4.56480637 0 0)
(4.57968807 0 0)
(4.59119438 0 0)
(4.59912191 0 0)
(4.60331148 0 0)
(4.60360888 0 0)
(4.59991941 0 0)
(4.59214574 0 0)
(4.58026018 0 0)
(4.56422625 0 0)
(4.54408249 0 0)
(4.51985235 0 0)
(4.49162875 0 0)
(4.45949814 0 0)
(4.42363004 0 0)
(4.38416613 0 0)
(4.34131769 0 0)
(4.29527399 0 0)
(4.24629004 0 0)
(4.19459748 0 0)
(4.14048561 0 0)
(4.0842195 0 0)
(4.02611338 0 0)
(3.96645658 0 0)
(3.90557861 0 0)
(3.84378362 0 0)
(3.78140875 0 0)
(3.7187622 0 0)
(3.65617496 0 0)
(3.59395307 0 0)
(3.53241677 0 0)
(3.47185818 0 0)
(3.41257652 0 0)
(3.35484253 0 0)
(3.29892704 0 0)
(3.24507191 0 0)
(3.19351287 0 0)
(3.14445634 0 0)
(3.09809739 0 0)
(3.05460178 0 0)
(3.01411965 0 0)
(2.97677233 0 0)
(2.94266235 0 0)
(2.91186436 0 0)
(2.88443185 0 0)
(2.86039213 0 0)
(2.83975344 0 0)
(2.82250551 0 0)
(2.80860094 0 0)
(2.7979683 0 0)
(2.79053074 0 0)
(2.7861907 0 0)
(2.78482969 0 0)
(2.78631449 0 0)
(2.79049606 0 0)
(2.797215 0 0)
(2.80629903 0 0)
(2.81756947 0 0)
(2.83083818 0 0)
(2.84591456 0 0)
(2.86260213 0 0)
(2.88070564 0 0)
(2.90002742 0 0)
(2.92037437 0 0)
(2.94155415 0 0)
(2.96338185 0 0)
(2.98567612 0 0)
(3.00826534 0 0)
(3.03098374 0 0)
(3.05367696 0 0)
(3.07619828 0 0)
(3.09841341 0 0)
(3.12019692 0 0)
(3.14143626 0 0)
(3.16202841 0 0)
(3.18188314 0 0)
(3.20091989 0 0)
(3.21907035 0 0)
(3.2362756 0 0)
(3.25248804 0 0)
(3.26766884 0 0)
(3.2817893 0 0)
(3.29482857 0 0)
(3.30677455 0 0)
(3.317622 0 0)
(3.32737291 0 0)
(3.33603502 0 0)
(3.34362181 0 0)
(3.35015142 0 0)
(3.35564631 0 0)
(3.36013252 0 0)
(3.36363914 0 0)
(3.36619784 0 0)
(3.36784225 0 0)
(3.36860772 0 0)
(3.36853064 0 0)
(3.36764841 0 0)
(3.3659986 0 0)
(3.36361888 0 0)
(3.36054681 0 0)
(3.35681956 0 0)
(3.3524741 0 0)
(3.34754857 0 0)
(3.34207913 0 0)
(3.3361009 0 0)
(3.32964798 0 0)
(3.32275373 0 0)
(3.31545034 0 0)
(3.30776919 0 0)
(3.29974036 0 0)
(3.2913931 0 0)
(3.28275544 0 0)
(3.27385455 0 0)
(3.26471608 0 0)
(3.25536497 0 0)
(3.24582466 0 0)
(3.23611785 0 0)
(3.22626572 0 0)
(3.21628871 0 0)
(3.20620573 0 0)
(3.1960349 0 0)
(3.18579288 0 0)
(3.17549552 0 0)
(3.16515734 0 0)
(3.15479179 0 0)
(3.14440994 0 0)
(3.1340213 0 0)
(3.12364561 0 0)
(3.113294 0 0)
(3.10296559 0 0)
(3.09266878 0 0)
(3.08241152 0 0)
(3.07220095 0 0)
(3.06204336 0 0)
(3.05194508 0 0)
(3.04191225 0 0)
(3.03195138 0 0)
(3.02206922 0 0)
(3.01227324 0 0)
(3.00257159 0 0)
(2.99297361 0 0)
(2.98348974 0 0)
(2.97413201 0 0)
(2.96491403 0 0)
(2.95585138 0 0)
(2.94696161 0 0)
(2.93826455 0 0)
(2.92978233 0 0)
(2.92153959 0 0)
(2.91356346 0 0)
(2.90588369 0 0)
(2.89853255 0 0)
(2.89154487 0 0)
(2.88495791 0 0)
(2.87881125 0 0)
(2.87314659 0 0)
(2.86800756 0 0)
(2.86343938 0 0)
(2.85948863 0 0)
(2.85620282 0 0)
(2.85363004 0 0)
(2.8518185 0 0)
(2.85081607 0 0)
(2.85066979 0 0)
(2.85142536 0 0)
(2.85312659 0 0)
(2.85581493 0 0)
(2.85952883 0 0)
(2.86430331 0 0)
(2.87016933 0 0)
(2.87715346 0 0)
(2.88527718 0 0)
(2.89455667 0 0)
(2.9050022 0 0)
(2.916618 0 0)
(2.92940167 0 0)
(2.9433443 0 0)
(2.95842986 0 0)
(2.97463552 0 0)
(2.99193111 0 0)
(3.01027967 0 0)
(3.02963692 0 0)
(3.04995205 0 0)
(3.07116726 0 0)
(3.09321874 0 0)
(3.11603625 0 0)
(3.13954432 0 0)
(3.16366187 0 0)
(3.18830358 0 0)
(3.21337956 0 0)
(3.23879682 0 0)
(3.26445902 0 0)
(3.29026801 0 0)
(3.31612359 0 0)
(3.34192516 0 0)
(3.36757147 0 0)
(3.39296222 0 0)
(3.41799791 0 0)
(3.44258137 0 0)
(3.4666176 0 0)
(3.49001521 0 0)
(3.51268631 0 0)
(3.53454779 0 0)
(3.5555212 0 0)
(3.5755339 0 0)
(3.59451894 0 0)
(3.61241599 0 0)
(3.62917122 0 0)
(3.64473807 0 0)
(3.6590771 0 0)
(3.67215648 0 0)
(3.68395193 0 0)
(3.69444696 0 0)
(3.70363274 0 0)
(3.71150821 0 0)
(3.7180799 0 0)
(3.72336181 0 0)
(3.72737527 0 0)
(3.73014864 0 0)
(3.73171709 0 0)
(3.73212218 0 0)
(3.73141165 0 0)
(3.72963886 0 0)
(3.7268625 0 0)
(3.72314603 0 0)
(3.7185573 0 0)
(3.71316796 0 0)
(3.70705303 0 0)
(3.70029031 0 0)
(3.69295992 0 0)
(3.68514371 0 0)
(3.67692476 0 0)
(3.66838685 0 0)
(3.65961394 0 0)
(3.65068965 0 0)
(3.64169679 0 0)
(3.63271686 0 0)
(3.62382963 0 0)
(3.61511265 0 0)
(3.60664091 0 0)
(3.59848642 0 0)
(3.59071783 0 0)
(3.58340016 0 0)
(3.5765945 0 0)
(3.57035769 0 0)
(3.56474217 0 0)
(3.55979574 0 0)
(3.55556139 0 0)
(3.55207723 0 0)
(3.54937631 0 0)
(3.54748663 0 0)
(3.54643107 0 0)
(3.54622741 0 0)
(3.54688838 0 0)
(3.54842163 0 0)
(3.55082999 0 0)
(3.55411138 0 0)
(3.55825916 0 0)
(3.5632621 0 0)
(3.56910477 0 0)
(3.57576753 0 0)
(3.58322699 0 0)
(3.59145601 0 0)
(3.60042422 0 0)
(3.61009802 0 0)
(3.62044113 0 0)
(3.63141461 0 0)
(3.64297745 0 0)
(3.65508655 0 0)
(3.66769737 0 0)
(3.68076383 0 0)
(3.69423909 0 0)
(3.70807533 0 0)
(3.72222453 0 0)
(3.73663832 0 0)
(3.75126865 0 0)
(3.76606767 0 0)
(3.78098837 0 0)
(3.79598438 0 0)
(3.81101067 0 0)
(3.82602328 0 0)
(3.84097992 0 0)
(3.85583975 0 0)
(3.87056394 0 0)
(3.88511532 0 0)
(3.89945897 0 0)
(3.91356186 0 0)
(3.92739327 0 0)
(3.94092451 0 0)
(3.95412926 0 0)
(3.96698322 0 0)
(3.9794644 0 0)
(3.9915528 0 0)
(4.00323058 0 0)
(4.01448176 0 0)
(4.02529231 0 0)
(4.03564985 0 0)
(4.04554369 0 0)
(4.05496452 0 0)
(4.06390441 0 0)
(4.07235652 0 0)
(4.08031502 0 0)
(4.08777482 0 0)
(4.0947315 0 0)
(4.10118103 0 0)
(4.10711967 0 0)
(4.11254373 0 0)
(4.11744947 0 0)
(4.12183288 0 0)
(4.12568956 0 0)
(4.12901455 0 0)
(4.13180226 0 0)
(4.1340463 0 0)
(4.13573941 0 0)
(4.13687339 0 0)
(4.13743902 0 0)
(4.13742604 0 0)
(4.13682309 0 0)
(4.13561778 0 0)
(4.13379666 0 0)
(4.13134523 0 0)
(4.12824811 0 0)
(4.12448901 0 0)
(4.12005089 0 0)
(4.11491607 0 0)
(4.10906637 0 0)
(4.10248322 0 0)
(4.09514793 0 0)
(4.08704172 0 0)
(4.0781461 0 0)
(4.06844285 0 0)
(4.05791446 0 0)
(4.04654415 0 0)
(4.03431625 0 0)
(4.02121624 0 0)
(4.00723108 0 0)
(3.99234909 0 0)
(3.97656118 0 0)
(3.95986001 0 0)
(3.94224024 0 0)
(3.92369982 0 0)
(3.90424023 0 0)
(3.88384119 0 0)
(3.86172107 0 0)
(3.83691969 0 0)
(3.80911934 0 0)
(3.77795911 0 0)
(3.74304167 0 0)
(3.7039418 0 0)
(3.66021214 0 0)
(3.61139352 0 0)
(3.55703149 0 0)
(3.4967006 0 0)
(3.43003758 0 0)
(3.35678547 0 0)
(3.27684877 0 0)
(3.19035955 0 0)
(3.09775149 0 0)
(2.99983544 0 0)
(2.89786618 0 0)
(2.79358422 0 0)
(2.68921192 0 0)
(2.58738132 0 0)
(2.49097381 0 0)
(2.40286325 0 0)
(2.32557589 0 0)
(2.26091119 0 0)
(2.20959789 0 0)
(2.17107374 0 0)
(2.14346734 0 0)
(2.12377451 0 0)
(2.10817115 0 0)
(2.09236008 0 0)
(2.07191446 0 0)
(2.04284452 0 0)
(2.00273173 0 0)
(1.95246948 0 0)
(1.89770604 0 0)
(1.84809615 0 0)
(1.81344008 0 0)
(1.79872802 0 0)
(1.80148904 0 0)
(1.81321513 0 0)
(1.82444079 0 0)
(1.83241777 0 0)
(1.84748344 0 0)
(1.89035662 0 0)
(1.97849178 0 0)
(2.11074255 0 0)
(2.26102285 0 0)
(2.3920386 0 0)
(2.48653194 0 0)
(2.57018403 0 0)
(2.65709306 0 0)
(2.6966688 0 0)
(2.63724678 0 0)
(2.49532999 0 0)
(2.3282165 0 0)
(2.18371888 0 0)
(2.10597527 0 0)
(2.1150451 0 0)
(2.09864618 0 0)
(1.93686387 0 0)
(1.68901593 0 0)
(1.52073362 0 0)
(1.44852815 0 0)
(1.41025434 0 0)
(1.73047769 0 0)
(2.74143485 0 0)
(4.01911938 0 0)
(4.65294485 0 0)
(4.29791093 0 0)
(3.4841434 0 0)
(2.79969457 0 0)
(2.21898618 0 0)
(1.73202099 0 0)
(1.53481754 0 0)
(2.00964189 0 0)
(3.09849935 0 0)
(3.38169097 0 0)
)
;

boundaryField
{
    closed
    {
        type            noSlip;
    }
    open
    {
        type            inletOutlet;
        inletValue      uniform (0 0 0);
        value           uniform (3.38169097 0 0);
    }
    sides
    {
        type            empty;
    }
    procBoundary5to4
    {
        type            processor;
        value           uniform (3.80681301 0 0);
    }
}


// ************************************************************************* //
