/*--------------------------------*- C++ -*----------------------------------*\
| =========                 |                                                 |
| \\      /  F ield         | OpenFOAM: The Open Source CFD Toolbox           |
|  \\    /   O peration     | Version:  2306                                  |
|   \\  /    A nd           | Website:  www.openfoam.com                      |
|    \\/     M anipulation  |                                                 |
\*---------------------------------------------------------------------------*/
FoamFile
{
    version     2.0;
    format      ascii;
    arch        "LSB;label=32;scalar=64";
    class       volScalarField;
    location    "0.00034";
    object      p;
}
// * * * * * * * * * * * * * * * * * * * * * * * * * * * * * * * * * * * * * //

dimensions      [1 -1 -2 0 0 0 0];

internalField   nonuniform List<scalar> 
531
(
101825.75
101825.301
101824.873
101824.469
101823.996
101823.566
101822.968
101822.333
101821.713
101820.948
101820.158
101819.329
101818.549
101817.632
101816.644
101815.817
101814.988
101814.232
101813.55
101812.87
101812.139
101811.495
101810.873
101810.283
101809.65
101809.023
101808.392
101807.753
101807.073
101806.368
101805.661
101804.96
101804.258
101803.565
101802.907
101802.293
101801.724
101801.199
101800.726
101800.307
101799.941
101799.621
101799.349
101799.128
101798.959
101798.839
101798.765
101798.733
101798.734
101798.746
101798.738
101798.68
101798.538
101798.272
101797.836
101797.205
101796.381
101795.39
101794.279
101793.126
101792.042
101791.126
101790.438
101789.95
101789.637
101789.457
101789.368
101789.28
101789.143
101789.11
101788.979
101789.151
101788.947
101788.693
101788.936
101789.328
101789.17
101788.704
101788.441
101788.408
101788.422
101788.469
101788.678
101789.147
101789.858
101790.422
101791.145
101792.088
101793.132
101794.141
101794.988
101795.816
101796.545
101797.179
101797.701
101798.194
101798.688
101799.211
101799.776
101800.413
101801.139
101801.944
101802.805
101803.696
101804.596
101805.479
101806.326
101807.123
101807.86
101808.533
101809.146
101809.7
101810.194
101810.62
101810.982
101811.289
101811.543
101811.731
101811.848
101811.915
101811.938
101811.913
101811.839
101811.733
101811.604
101811.461
101811.306
101811.147
101810.995
101810.853
101810.716
101810.583
101810.453
101810.318
101810.169
101810.002
101809.81
101809.586
101809.32
101809.008
101808.65
101808.244
101807.771
101807.226
101806.618
101805.948
101805.206
101804.366
101803.448
101802.463
101801.425
101800.285
101799.049
101797.763
101796.434
101795.043
101793.555
101792.027
101790.465
101788.88
101787.223
101785.511
101783.779
101782.032
101780.248
101778.412
101776.552
101774.676
101772.789
101770.865
101768.903
101766.924
101764.934
101762.935
101760.9
101758.832
101756.755
101754.673
101752.573
101750.433
101748.276
101746.112
101743.95
101741.751
101739.513
101737.279
101735.054
101732.824
101730.458
101728.189
101725.915
101723.617
101721.289
101718.96
101716.638
101714.321
101712.006
101709.691
101707.375
101705.074
101702.788
101700.511
101698.259
101696.03
101693.824
101691.629
101689.467
101687.355
101685.297
101683.265
101681.256
101679.299
101677.402
101675.562
101673.764
101672.018
101670.33
101668.701
101667.128
101665.615
101664.169
101662.789
101661.469
101660.213
101659.022
101657.897
101656.835
101655.838
101654.905
101654.035
101653.224
101652.474
101651.786
101651.156
101650.58
101650.057
101649.589
101649.172
101648.801
101648.475
101648.195
101647.958
101647.759
101647.596
101647.468
101647.374
101647.308
101647.265
101647.246
101647.255
101647.288
101647.329
101647.38
101647.45
101647.549
101647.653
101647.735
101647.842
101647.964
101648.109
101648.214
101648.324
101648.448
101648.594
101648.713
101648.805
101648.912
101649.026
101649.131
101649.21
101649.288
101649.364
101649.434
101649.484
101649.52
101649.547
101649.563
101649.56
101649.538
101649.502
101649.451
101649.381
101649.293
101649.187
101649.066
101648.928
101648.773
101648.603
101648.42
101648.224
101648.017
101647.8
101647.574
101647.342
101647.106
101646.869
101646.63
101646.392
101646.157
101645.931
101645.713
101645.503
101645.303
101645.121
101644.959
101644.811
101644.679
101644.572
101644.493
101644.44
101644.406
101644.4
101644.429
101644.491
101644.579
101644.695
101644.847
101645.037
101645.257
101645.507
101645.793
101646.113
101646.467
101646.85
101647.265
101647.712
101648.188
101648.692
101649.223
101649.779
101650.358
101650.96
101651.58
101652.219
101652.872
101653.539
101654.216
101654.901
101655.589
101656.279
101656.968
101657.651
101658.325
101658.987
101659.634
101660.263
101660.868
101661.444
101661.992
101662.507
101662.985
101663.42
101663.813
101664.16
101664.46
101664.707
101664.901
101665.043
101665.132
101665.164
101665.139
101665.059
101664.924
101664.732
101664.485
101664.183
101663.828
101663.418
101662.953
101662.437
101661.87
101661.249
101660.574
101659.846
101659.068
101658.239
101657.356
101656.418
101655.431
101654.397
101653.312
101652.175
101650.985
101649.75
101648.472
101647.15
101645.781
101644.368
101642.922
101641.448
101639.944
101638.407
101636.846
101635.274
101633.697
101632.104
101630.497
101628.895
101627.307
101625.725
101624.143
101622.575
101621.031
101619.51
101618.004
101616.515
101615.054
101613.624
101612.218
101610.833
101609.479
101608.156
101606.863
101605.598
101604.362
101603.159
101601.987
101600.844
101599.732
101598.65
101597.599
101596.578
101595.587
101594.626
101593.696
101592.794
101591.922
101591.077
101590.259
101589.468
101588.703
101587.962
101587.244
101586.548
101585.874
101585.22
101584.585
101583.968
101583.37
101582.787
101582.221
101581.671
101581.136
101580.615
101580.107
101579.614
101579.134
101578.665
101578.208
101577.763
101577.33
101576.905
101576.486
101576.075
101575.673
101575.275
101574.877
101574.48
101574.088
101573.698
101573.304
101572.906
101572.514
101572.132
101571.754
101571.377
101571.02
101570.689
101570.383
101570.091
101569.827
101569.603
101569.421
101569.262
101569.126
101569.035
101568.992
101568.981
101568.99
101569.041
101569.139
101569.286
101569.447
101569.637
101569.878
101570.21
101570.53
101570.785
101571.128
101571.541
101571.963
101572.522
101573.057
101573.715
101574.375
101575.049
101575.847
101576.628
101577.539
101578.429
101579.319
101580.3
101581.29
101582.376
101583.444
101584.496
101585.648
101586.817
101588.085
101589.307
101590.397
101591.548
101593.597
101594.609
101595.759
101596.968
101598.244
101599.468
101600.757
101601.977
101603.206
101604.522
101605.685
101606.197
101608.433
101609.048
101610
101611.032
101612.013
101612.932
101613.851
)
;

boundaryField
{
    closed
    {
        type            zeroGradient;
    }
    open
    {
        type            waveTransmissive;
        gamma           1.25;
        fieldInf        101325;
        lInf            1;
        value           nonuniform List<scalar> 0();
    }
    sides
    {
        type            empty;
    }
    procBoundary1to0
    {
        type            processor;
        value           uniform 101826.062;
    }
    procBoundary1to2
    {
        type            processor;
        value           uniform 101614.709;
    }
}


// ************************************************************************* //
