/*--------------------------------*- C++ -*----------------------------------*\
| =========                 |                                                 |
| \\      /  F ield         | OpenFOAM: The Open Source CFD Toolbox           |
|  \\    /   O peration     | Version:  2306                                  |
|   \\  /    A nd           | Website:  www.openfoam.com                      |
|    \\/     M anipulation  |                                                 |
\*---------------------------------------------------------------------------*/
FoamFile
{
    version     2.0;
    format      ascii;
    arch        "LSB;label=32;scalar=64";
    class       volScalarField;
    location    "0.00034";
    object      prefDZ_H2;
}
// * * * * * * * * * * * * * * * * * * * * * * * * * * * * * * * * * * * * * //

dimensions      [1 -1 -1 0 0 0 0];

internalField   nonuniform List<scalar> 
531
(
6.17515632e-05
6.14501084e-05
6.25450787e-05
6.34832721e-05
6.36396263e-05
6.14536156e-05
6.22974451e-05
6.35571657e-05
6.2005039e-05
6.16873352e-05
6.34790402e-05
6.35522454e-05
6.16943695e-05
6.16703966e-05
6.3537997e-05
6.34668093e-05
6.21797251e-05
6.21691194e-05
6.26415652e-05
6.27130086e-05
6.22834971e-05
6.23005879e-05
6.23949349e-05
6.25090665e-05
6.23166314e-05
6.22778904e-05
6.23219834e-05
6.24166966e-05
6.23578397e-05
6.22919875e-05
6.23025559e-05
6.2369378e-05
6.2367476e-05
6.23121864e-05
6.23066465e-05
6.23375583e-05
6.23536478e-05
6.2331819e-05
6.23150885e-05
6.23244042e-05
6.23442665e-05
6.23400235e-05
6.23199527e-05
6.23201098e-05
6.23397884e-05
6.23432983e-05
6.23244042e-05
6.23170452e-05
6.23332046e-05
6.23480634e-05
6.23324337e-05
6.23135636e-05
6.23228069e-05
6.23521433e-05
6.23467852e-05
6.23107188e-05
6.23102388e-05
6.23527839e-05
6.23668323e-05
6.23168506e-05
6.22926535e-05
6.23297045e-05
6.24175886e-05
6.2366745e-05
6.22739871e-05
6.22779917e-05
6.24894998e-05
6.25358787e-05
6.22768871e-05
6.23023603e-05
6.23497847e-05
6.28952612e-05
6.24172514e-05
6.2317007e-05
6.23172761e-05
6.32328585e-05
6.31841267e-05
6.23255235e-05
6.207745e-05
6.24583522e-05
6.3423754e-05
6.23457442e-05
6.21666457e-05
6.22719115e-05
6.29590114e-05
6.2705908e-05
6.23109815e-05
6.22902051e-05
6.2538749e-05
6.26123042e-05
6.22839873e-05
6.22730745e-05
6.23507751e-05
6.24492172e-05
6.23365022e-05
6.22869161e-05
6.23155189e-05
6.23721379e-05
6.23506545e-05
6.23113355e-05
6.23146385e-05
6.23405279e-05
6.23429603e-05
6.23315366e-05
6.23242285e-05
6.23240752e-05
6.23284304e-05
6.23395463e-05
6.23404562e-05
6.2324137e-05
6.23156186e-05
6.23306595e-05
6.23528636e-05
6.23399268e-05
6.230992e-05
6.23129518e-05
6.23535814e-05
6.23572332e-05
6.23176745e-05
6.23074718e-05
6.23346516e-05
6.23570529e-05
6.23345166e-05
6.23122247e-05
6.23217472e-05
6.23458067e-05
6.23413589e-05
6.23216897e-05
6.2322441e-05
6.23350059e-05
6.23351223e-05
6.2328729e-05
6.23292667e-05
6.23325658e-05
6.23294421e-05
6.23251026e-05
6.23316217e-05
6.23420186e-05
6.23333562e-05
6.23137927e-05
6.23179414e-05
6.23582147e-05
6.2358572e-05
6.23084652e-05
6.22974123e-05
6.23466259e-05
6.2396113e-05
6.23339633e-05
6.22836907e-05
6.23038658e-05
6.24186655e-05
6.24022381e-05
6.22844996e-05
6.22804712e-05
6.23766488e-05
6.24325137e-05
6.23180035e-05
6.22791433e-05
6.23168496e-05
6.24172027e-05
6.23745182e-05
6.22880598e-05
6.22905149e-05
6.23707765e-05
6.23940471e-05
6.23224561e-05
6.22922998e-05
6.23125204e-05
6.23764486e-05
6.23729384e-05
6.23110735e-05
6.22962953e-05
6.23260338e-05
6.23780428e-05
6.23618626e-05
6.23003154e-05
6.22981238e-05
6.23517073e-05
6.2380791e-05
6.23283457e-05
6.22959419e-05
6.2317184e-05
6.23744242e-05
6.23596249e-05
6.2303265e-05
6.23043628e-05
6.23535632e-05
6.2361278e-05
6.23196105e-05
6.23092937e-05
6.23354858e-05
6.23520476e-05
6.232891e-05
6.23131104e-05
6.2329407e-05
6.23530953e-05
6.23367403e-05
6.23080843e-05
6.23152096e-05
6.23633159e-05
6.23618144e-05
6.23065391e-05
6.22983423e-05
6.23475165e-05
6.23859496e-05
6.23312515e-05
6.22911848e-05
6.23115564e-05
6.23876788e-05
6.23752649e-05
6.22969968e-05
6.22956149e-05
6.23556327e-05
6.23769941e-05
6.23235428e-05
6.23024014e-05
6.23266222e-05
6.23555201e-05
6.23390796e-05
6.23178028e-05
6.23238119e-05
6.23365846e-05
6.23332329e-05
6.23275505e-05
6.2331799e-05
6.23346521e-05
6.23264326e-05
6.23236938e-05
6.23350602e-05
6.23402035e-05
6.23277288e-05
6.23206427e-05
6.23305334e-05
6.23404581e-05
6.23326997e-05
6.23227727e-05
6.23271538e-05
6.23368192e-05
6.2334005e-05
6.23252938e-05
6.23268577e-05
6.23364096e-05
6.23358369e-05
6.23231651e-05
6.2322023e-05
6.23389925e-05
6.23464448e-05
6.2325076e-05
6.23089545e-05
6.23268056e-05
6.23687169e-05
6.23539115e-05
6.22960864e-05
6.22966972e-05
6.23759776e-05
6.24017632e-05
6.23095885e-05
6.22809152e-05
6.2327666e-05
6.24322681e-05
6.23657909e-05
6.22796133e-05
6.22866064e-05
6.24121454e-05
6.24135647e-05
6.22970037e-05
6.2284907e-05
6.23474871e-05
6.23945737e-05
6.23319862e-05
6.22965645e-05
6.23193023e-05
6.23632886e-05
6.23472488e-05
6.23125663e-05
6.23161833e-05
6.23431158e-05
6.23426537e-05
6.23245097e-05
6.23229404e-05
6.23328298e-05
6.23354486e-05
6.23300047e-05
6.2327532e-05
6.23300249e-05
6.23322083e-05
6.23314336e-05
6.23295674e-05
6.23295278e-05
6.23301487e-05
6.23312028e-05
6.23318578e-05
6.23306109e-05
6.23279376e-05
6.23283969e-05
6.23342524e-05
6.23351985e-05
6.23269765e-05
6.23225737e-05
6.23314884e-05
6.23432913e-05
6.23352512e-05
6.23157644e-05
6.23179763e-05
6.23488932e-05
6.235215e-05
6.23187302e-05
6.23079269e-05
6.23339217e-05
6.2361592e-05
6.23378433e-05
6.23066061e-05
6.23147607e-05
6.23559307e-05
6.23538685e-05
6.23155318e-05
6.23120308e-05
6.2337929e-05
6.23481573e-05
6.23294966e-05
6.2318971e-05
6.23280941e-05
6.23386127e-05
6.23338956e-05
6.23259138e-05
6.2327494e-05
6.23329337e-05
6.23326201e-05
6.23293463e-05
6.23292443e-05
6.23306409e-05
6.23310259e-05
6.23308766e-05
6.23305058e-05
6.232969e-05
6.23296397e-05
6.23313664e-05
6.23322544e-05
6.23299374e-05
6.23275354e-05
6.23297648e-05
6.23347022e-05
6.23335188e-05
6.23253901e-05
6.23254244e-05
6.23351606e-05
6.23376999e-05
6.23277711e-05
6.23223095e-05
6.23303673e-05
6.23399785e-05
6.23337893e-05
6.23217282e-05
6.23243497e-05
6.23390224e-05
6.23385341e-05
6.23244013e-05
6.23230111e-05
6.23339938e-05
6.23372587e-05
6.2329055e-05
6.23256767e-05
6.23310988e-05
6.23338561e-05
6.23291648e-05
6.23273809e-05
6.23333851e-05
6.2335257e-05
6.23263851e-05
6.23229268e-05
6.23340525e-05
6.23423479e-05
6.23303949e-05
6.2317168e-05
6.23243325e-05
6.23463857e-05
6.23444117e-05
6.23191044e-05
6.23150963e-05
6.23331442e-05
6.23486193e-05
6.23407787e-05
6.23170731e-05
6.2314952e-05
6.23328872e-05
6.2351287e-05
6.23442793e-05
6.23135286e-05
6.23097119e-05
6.23390775e-05
6.23635339e-05
6.23365139e-05
6.2302495e-05
6.23100915e-05
6.23676317e-05
6.23668068e-05
6.23089513e-05
6.2300021e-05
6.23420177e-05
6.2372076e-05
6.23318304e-05
6.23021776e-05
6.23195621e-05
6.23609988e-05
6.23496146e-05
6.2311349e-05
6.23128907e-05
6.23450975e-05
6.23475746e-05
6.23239501e-05
6.23188718e-05
6.23324699e-05
6.23393425e-05
6.23309612e-05
6.23250036e-05
6.23290145e-05
6.23338923e-05
6.2332001e-05
6.23285627e-05
6.23292439e-05
6.23314693e-05
6.23312991e-05
6.23299655e-05
6.23299803e-05
6.23306607e-05
6.23307038e-05
6.23303943e-05
6.23303446e-05
6.23304828e-05
6.23305165e-05
6.23304371e-05
6.23304111e-05
6.23304969e-05
6.23305493e-05
6.23304234e-05
6.23302673e-05
6.23304219e-05
6.23308331e-05
6.23307564e-05
6.23298286e-05
6.23297404e-05
6.23312079e-05
6.23318888e-05
6.23299625e-05
6.23280769e-05
6.23300339e-05
6.23340849e-05
6.23328443e-05
6.2325792e-05
6.23259471e-05
6.23355593e-05
6.23375773e-05
6.23265919e-05
6.23214247e-05
6.23321306e-05
6.23430772e-05
6.23324234e-05
6.23166484e-05
6.23234083e-05
6.23492183e-05
6.23460755e-05
6.23122657e-05
6.2311125e-05
6.23496337e-05
6.23623941e-05
6.23192191e-05
6.2299831e-05
6.23312768e-05
6.2380999e-05
6.23459968e-05
6.22933401e-05
6.23015313e-05
6.23860204e-05
6.2384747e-05
6.23010281e-05
6.22915055e-05
6.23512476e-05
6.23958771e-05
6.2329772e-05
6.22892886e-05
6.23183789e-05
6.24341025e-05
6.24048309e-05
6.22831704e-05
6.22935291e-05
6.25548645e-05
6.27231274e-05
6.22850302e-05
6.20461661e-05
6.22882179e-05
6.35875034e-05
6.35888888e-05
6.16657153e-05
6.1660262e-05
6.24077225e-05
6.35251215e-05
6.35664177e-05
6.14539928e-05
6.14525035e-05
6.23950419e-05
6.35446505e-05
6.35692468e-05
6.1702739e-05
6.16379347e-05
6.23618475e-05
6.35628479e-05
6.35872874e-05
6.17055309e-05
6.16355335e-05
6.23547551e-05
6.3544628e-05
6.35541864e-05
6.16389355e-05
6.16378605e-05
6.25657139e-05
6.35012445e-05
6.3518571e-05
6.14728272e-05
6.14573447e-05
6.23965971e-05
6.34626488e-05
6.35087465e-05
6.11122723e-05
6.14463837e-05
6.34839516e-05
6.34958894e-05
6.34776656e-05
6.15776477e-05
6.23471375e-05
6.34991955e-05
6.20509375e-05
)
;

boundaryField
{
    closed
    {
        type            calculated;
        value           nonuniform List<scalar> 0();
    }
    open
    {
        type            calculated;
        value           nonuniform List<scalar> 0();
    }
    sides
    {
        type            empty;
    }
    procBoundary1to0
    {
        type            processor;
        value           uniform 6.35482074e-05;
    }
    procBoundary1to2
    {
        type            processor;
        value           uniform 6.19852192e-05;
    }
}


// ************************************************************************* //
