/*--------------------------------*- C++ -*----------------------------------*\
| =========                 |                                                 |
| \\      /  F ield         | OpenFOAM: The Open Source CFD Toolbox           |
|  \\    /   O peration     | Version:  2306                                  |
|   \\  /    A nd           | Website:  www.openfoam.com                      |
|    \\/     M anipulation  |                                                 |
\*---------------------------------------------------------------------------*/
FoamFile
{
    version     2.0;
    format      ascii;
    arch        "LSB;label=32;scalar=64";
    class       volScalarField;
    location    "0.00172";
    object      p;
}
// * * * * * * * * * * * * * * * * * * * * * * * * * * * * * * * * * * * * * //

dimensions      [1 -1 -2 0 0 0 0];

internalField   nonuniform List<scalar> 
531
(
101306.381
101306.395
101306.405
101306.429
101306.457
101306.503
101306.562
101306.611
101306.66
101306.703
101306.753
101306.835
101306.906
101306.964
101307.03
101307.122
101307.207
101307.284
101307.358
101307.477
101307.592
101307.688
101307.779
101307.877
101308.014
101308.14
101308.263
101308.392
101308.513
101308.667
101308.82
101308.97
101309.128
101309.274
101309.466
101309.674
101309.846
101310.017
101310.194
101310.369
101310.585
101310.798
101311.002
101311.216
101311.43
101311.659
101311.902
101312.125
101312.339
101312.562
101312.837
101313.117
101313.394
101313.66
101313.921
101314.191
101314.459
101314.777
101315.098
101315.386
101315.693
101316.058
101316.409
101316.724
101317.058
101317.443
101317.802
101318.152
101318.539
101318.931
101319.282
101319.647
101320.074
101320.495
101320.878
101321.278
101321.709
101322.159
101322.576
101322.974
101323.38
101323.802
101324.274
101324.738
101325.163
101325.611
101326.084
101326.563
101327.036
101327.527
101327.987
101328.41
101328.843
101329.266
101329.671
101330.071
101330.462
101330.851
101331.675
101332.093
101332.527
101333.041
101333.535
101333.976
101334.453
101334.997
101335.531
101336.046
101336.612
101337.174
101337.661
101338.173
101338.766
101339.335
101339.829
101340.348
101340.949
101341.513
101342.011
101342.498
101342.974
101343.437
101343.896
101344.885
101345.38
101345.884
101346.405
101346.936
101347.428
101347.867
101348.337
101348.882
101349.404
101349.855
101350.327
101350.877
101351.394
101351.832
101352.277
101352.722
101353.137
101353.554
101354.593
101355.054
101355.537
101356.12
101356.678
101357.184
101357.707
101358.262
101358.907
101359.543
101360.112
101360.726
101361.441
101362.133
101362.746
101363.401
101364.158
101364.889
101365.562
101366.252
101366.973
101367.729
101368.526
101369.365
101369.418
101369.97
101370.571
101371.256
101371.906
101372.46
101373.057
101373.759
101374.425
101375.021
101375.624
101376.258
101376.926
101377.64
101378.355
101378.995
101379.681
101380.479
101381.255
101381.96
101382.686
101383.416
101384.174
101384.97
101385.787
101386.625
101387.508
101388.409
101388.272
101388.79
101389.358
101389.867
101390.388
101390.911
101391.415
101391.953
101393.377
101394.036
101394.685
101395.385
101396.197
101397.007
101397.762
101398.524
101399.306
101400.095
101400.879
101401.582
101402.251
101403
101403.839
101404.696
101404.503
101404.968
101405.526
101406.188
101406.828
101407.38
101407.918
101408.463
101408.985
101409.506
101410.884
101411.484
101412.076
101412.741
101413.468
101414.177
101414.8
101415.479
101416.186
101416.848
101417.562
101418.361
101419.21
101420.091
101419.929
101420.443
101420.97
101421.457
101421.929
101422.344
101422.683
101423.055
101424.479
101424.966
101425.419
101425.959
101426.601
101427.218
101427.741
101428.281
101428.816
101429.369
101429.963
101430.538
101431.054
101431.637
101432.294
101432.979
101432.541
101432.811
101433.159
101433.568
101433.954
101434.276
101434.61
101434.991
101435.4
101435.81
101436.253
101436.795
101436.13
101436.374
101436.616
101436.861
101437.006
101437.022
101436.975
101436.938
101437.857
101437.89
101437.944
101438.083
101438.176
101438.187
101438.178
101438.184
101438.167
101438.072
101437.901
101437.755
101438.756
101438.809
101438.809
101438.147
101438.472
101438.704
101438.813
101438.891
101438.932
101438.973
101438.996
101438.975
101438.897
101438.816
101438.72
101438.63
101438.527
101438.379
101438.222
101438.06
101437.82
101437.503
101437.245
101437.009
101436.723
101436.349
101435.965
101435.554
101435.12
101434.646
101434.075
101433.52
101434.206
101433.949
101433.652
101432.699
101432.647
101432.57
101432.448
101432.33
101432.263
101432.248
101432.245
101431.099
101430.761
101430.521
101430.277
101430.009
101429.699
101429.393
101429.134
101428.883
101428.586
101428.298
101428.024
101427.684
101427.293
101426.939
101426.578
101426.207
101425.834
101425.502
101425.167
101424.859
101424.575
101424.229
101423.91
101424.061
101423.589
101423.122
101422.652
101422.229
101421.85
101421.558
101421.121
101420.643
101420.283
101419.946
101419.557
101419.127
101418.721
101418.327
101417.929
101417.526
101417.118
101416.703
101416.284
101415.857
101415.425
101414.986
101414.541
101414.089
101413.634
101413.174
101412.712
101412.238
101411.761
101411.289
101410.813
101410.332
101409.846
101409.356
101408.865
101408.373
101407.881
101407.393
101406.908
101406.43
101405.956
101405.493
101405.036
101404.59
101404.147
101403.709
101403.273
101402.833
101402.389
101401.935
101401.464
101400.969
101400.44
101399.872
101399.273
101398.638
101397.985
101397.25
101396.551
101395.761
101394.927
101394.05
101393.138
101392.197
101391.232
101390.251
101389.259
101388.265
101387.278
101386.304
101385.344
101384.401
101383.474
101382.563
101381.667
101380.785
101379.916
101379.064
101378.218
101377.464
101376.721
101376.046
101375.465
101375.069
101374.674
101374.286
101373.928
101373.578
101373.255
101372.946
101372.657
101372.382
101372.125
101371.882
101371.658
101371.448
101371.257
101371.078
101370.915
101370.762
101370.625
101370.494
101370.373
101370.253
101370.135
101370.01
101369.875
101369.72
101369.544
101369.334
101369.077
101368.748
101368.376
101367.964
101367.33
101366.31
101365.166
101364.078
101362.164
101359.217
101357.19
101356.746
101353.596
101346.458
101342.561
101344.329
101346.902
101349.742
101347.941
101350.385
101363.93
101372.716
101385.727
101416.217
101449.831
101477.621
101497.46
101518.027
101552.194
101580.633
101596.571
101610.877
101625.576
101637.406
101641.739
101643.626
101648.546
101650.953
101646.073
101640.21
101639.349
101637.901
101629.055
101619.132
101615.996
101613.719
101604.026
101593.074
101589.704
101588.116
101579.079
101568.419
101565.599
101565.224
101557.471
)
;

boundaryField
{
    closed
    {
        type            zeroGradient;
    }
    open
    {
        type            waveTransmissive;
        gamma           1.25;
        fieldInf        101325;
        lInf            1;
        value           nonuniform List<scalar> 0();
    }
    sides
    {
        type            empty;
    }
    procBoundary4to3
    {
        type            processor;
        value           uniform 101306.392;
    }
    procBoundary4to5
    {
        type            processor;
        value           uniform 101547.297;
    }
}


// ************************************************************************* //
