/*--------------------------------*- C++ -*----------------------------------*\
| =========                 |                                                 |
| \\      /  F ield         | OpenFOAM: The Open Source CFD Toolbox           |
|  \\    /   O peration     | Version:  2306                                  |
|   \\  /    A nd           | Website:  www.openfoam.com                      |
|    \\/     M anipulation  |                                                 |
\*---------------------------------------------------------------------------*/
FoamFile
{
    version     2.0;
    format      ascii;
    arch        "LSB;label=32;scalar=64";
    class       volScalarField;
    location    "0.00172";
    object      prefDh_H2O;
}
// * * * * * * * * * * * * * * * * * * * * * * * * * * * * * * * * * * * * * //

dimensions      [1 1 -3 0 0 0 0];

internalField   nonuniform List<scalar> 
531
(
92.352181
92.7614022
92.3352707
92.6482128
88.011137
87.6749185
87.5703127
87.6046466
92.5523492
92.4375426
87.9594512
87.7625223
92.4862403
92.3976003
88.0519551
87.8206228
92.4118773
92.4414388
88.2456353
87.6865011
87.6931988
92.5174019
92.3780824
87.9681227
87.8683065
92.5735064
92.3397934
92.4557931
88.0085699
87.8578333
92.5909908
92.2827364
92.5106021
88.2708469
87.44535
87.5395917
92.5992142
92.3726867
92.4645604
88.0812831
87.8659522
92.5801414
92.2752195
92.4534066
88.3682325
87.7122261
87.7005305
92.47353
92.395872
88.2890721
87.8430339
87.6063604
87.6099811
92.6562168
92.3534919
92.5243793
88.2592805
87.753113
92.559476
92.3785303
88.1055603
87.9124927
92.5999575
92.3204206
88.0718461
88.0804703
92.5820629
88.7071461
87.6766904
92.5384344
92.4192151
88.229044
87.8711857
92.5282043
92.4200774
88.4560503
87.7223652
87.7205016
92.5821384
92.3309278
92.3451166
88.2107345
87.9455444
92.5356555
92.3894062
88.5909235
87.8311078
87.8757304
87.4701959
87.4354277
92.8254372
92.3974074
92.6180851
92.291649
92.392162
88.3861052
87.725897
87.6738469
92.6671128
92.360525
88.1506558
87.8820034
92.7232221
92.3185733
88.076167
88.0430354
92.7564987
88.5238407
87.6222065
92.7026398
92.4229091
88.1319193
87.851543
92.7564811
92.3451742
88.0486317
87.9319336
92.8088748
92.2508937
92.4494012
88.7428335
87.7584347
87.733572
92.6271598
92.4244918
88.5951824
87.7459528
87.7054231
92.6730535
92.3530184
88.2880635
87.9425203
92.7197423
92.3144929
88.309639
88.0184911
92.6829831
92.3112823
88.6314708
88.0550055
87.8166674
87.7871817
92.7923172
92.3686176
88.0415827
87.9064133
92.9069437
92.2970725
92.4487974
88.3314972
87.8073564
92.8053755
92.3830572
88.190013
87.8888906
92.8655457
92.3517022
88.1064096
87.9641277
92.9283073
92.2710953
92.4478996
89.1762933
87.9156682
87.7615299
87.7324369
92.9024543
92.4051016
88.0688319
87.7863136
92.9719843
92.3885184
88.0275383
87.8280414
93.0107115
92.297128
92.4866075
88.4339869
87.6134039
87.5613117
92.9090537
92.4267169
88.1884256
87.8238624
93.0407829
92.3958109
92.5678417
92.3637556
89.490067
88.0506967
88.036205
87.9194981
87.5567045
87.5358795
93.0324249
92.4613159
92.5674466
92.4120003
88.8849425
87.9471519
87.7140278
87.6978022
92.93263
92.3444196
92.418788
88.3022168
87.9607839
92.9032706
92.2727985
92.3963369
88.7622472
87.7979097
87.7615455
92.8238221
92.4418681
88.623516
87.6741889
87.6355679
92.8956807
92.3846052
88.1610742
87.9137081
92.9756156
92.2755779
92.4301579
88.5974907
87.69297
87.6550947
92.9120893
92.3666589
92.4105716
88.187811
87.7350242
92.8702112
92.7079791
88.3268884
92.9862828
92.2819564
88.3732393
87.9663839
87.7116383
87.6808305
92.9636234
92.3267273
92.3968668
88.6882579
87.8473197
87.8818014
87.4979229
87.4667063
93.0640539
92.446031
92.4736285
88.069136
87.6991535
93.1016697
92.4641213
92.6113661
92.4420887
88.3837698
87.8255387
92.8610506
92.470113
88.514078
87.6631333
87.614729
92.9352324
92.3872735
88.2074103
87.9672806
92.9815372
92.2622895
92.4253756
89.1293141
87.8659538
87.8984076
87.4997402
87.4595046
93.0067036
92.4209962
92.6669181
92.3134969
92.3814772
88.5475389
87.7267293
87.6670109
92.8982749
92.3712255
88.1774975
87.9653519
92.9523455
92.2651459
92.4155093
88.8802594
87.828094
87.8863911
87.4791711
87.4462175
93.0359831
92.45536
92.4984055
87.9795607
87.6157017
93.1184309
92.4682894
92.6369241
92.4383619
88.2379949
87.8171794
92.9790689
92.4192619
92.5115639
92.4094335
89.1775543
87.9307825
87.9667336
87.6141266
87.5771429
93.0000767
92.4540273
87.9567176
87.6345198
93.0879704
92.4698495
92.5828418
92.4624389
88.3904794
87.6823453
87.408855
87.394302
93.028539
92.4070724
92.528222
88.1394005
87.790982
92.8877177
92.2800424
92.3772443
88.3555354
87.6378427
87.5914112
92.7789297
92.3086943
88.035109
87.8362236
92.8166287
92.1654179
92.3212739
88.8756096
87.5191087
87.5719761
87.1084411
87.0737503
92.9581003
92.3430001
92.461471
92.2815746
92.1563035
92.2027908
88.6608389
87.0260842
87.0011896
92.2907283
91.8611398
91.8801793
87.3292188
86.9751322
92.0882299
91.5960584
91.6748642
91.4822011
88.8990627
91.3972807
90.9501581
86.5818353
86.3344684
90.9092009
90.15816
90.2915537
89.7803254
89.7704696
89.3717746
89.2754316
88.9396615
88.7849767
88.4802823
88.2857385
88.0166072
87.7879676
87.5628746
87.3362496
87.1540231
87.0249734
87.0940175
86.7698207
86.5123564
86.1493928
85.8201145
85.4293342
85.0243677
84.6050216
84.1177577
83.6713756
83.1186996
82.7148414
82.2906999
82.2858642
82.0437345
81.7505693
81.0942381
80.7108154
79.8296868
79.4060285
78.3142793
77.8254286
76.3991663
75.9220756
74.403642
73.9719986
72.3352647
71.9670176
70.2423326
73.810462
71.610496
71.119481
69.1707611
68.4168569
66.5952258
65.6289396
63.8553219
62.6448442
60.8980139
59.3533102
58.1410701
57.0481383
55.9225118
54.7187394
53.562846
52.2505471
51.0930725
49.7762642
50.532174
48.2802322
46.2933909
41.7688786
37.4340771
32.677542
29.0674413
22.3675148
15.8527571
9.61305045
4.5844542
-1.59294648
-6.34016709
-12.1282686
-17.1190251
-23.5752064
-29.0700412
-36.4920892
-42.3800504
-50.5433303
-56.5346256
-65.1706726
-71.0475787
-79.6896843
-85.1118924
-93.1704982
-98.0379544
-105.335648
-109.53048
-115.778951
-119.269218
-124.666456
-127.636513
-132.478534
-135.043094
-139.357096
-141.595942
-145.436131
-147.415572
-150.848463
-152.794369
-156.003855
-157.742357
-160.560443
-162.24308
-164.84289
-165.928256
-168.132856
-170.130338
-172.529326
-171.603984
-172.857422
-178.249039
-180.773751
-174.504249
-175.113915
-186.902886
-191.350726
-177.245914
-178.101311
-195.735939
-198.337453
-182.612104
-182.716358
-199.021193
-199.462202
-189.030465
-186.414368
-199.806432
-200.269092
-192.590915
-189.848442
-200.573464
-200.863656
-194.929709
-192.226979
-201.182895
-201.38662
-196.415051
-193.959976
-201.649359
-201.782428
-197.380711
-195.306243
-202.019114
-202.096925
-197.98252
-196.372634
-202.32723
-202.363682
)
;

boundaryField
{
    closed
    {
        type            calculated;
        value           nonuniform List<scalar> 0();
    }
    open
    {
        type            calculated;
        value           nonuniform List<scalar> 0();
    }
    sides
    {
        type            empty;
    }
    procBoundary4to3
    {
        type            processor;
        value           uniform 92.7191562;
    }
    procBoundary4to5
    {
        type            processor;
        value           uniform -198.458401;
    }
}


// ************************************************************************* //
