/*--------------------------------*- C++ -*----------------------------------*\
| =========                 |                                                 |
| \\      /  F ield         | OpenFOAM: The Open Source CFD Toolbox           |
|  \\    /   O peration     | Version:  2306                                  |
|   \\  /    A nd           | Website:  www.openfoam.com                      |
|    \\/     M anipulation  |                                                 |
\*---------------------------------------------------------------------------*/
FoamFile
{
    version     2.0;
    format      ascii;
    arch        "LSB;label=32;scalar=64";
    class       volScalarField;
    location    "0.00172";
    object      prefDZ_H2O;
}
// * * * * * * * * * * * * * * * * * * * * * * * * * * * * * * * * * * * * * //

dimensions      [1 -1 -1 0 0 0 0];

internalField   nonuniform List<scalar> 
531
(
-7.7429277e-07
-7.77626672e-07
-7.7415219e-07
-7.76712151e-07
-7.36582533e-07
-7.33200019e-07
-7.32250046e-07
-7.32555277e-07
-7.75975606e-07
-7.74993793e-07
-7.36055007e-07
-7.34133479e-07
-7.7543465e-07
-7.74668248e-07
-7.36972525e-07
-7.34690133e-07
-7.7483185e-07
-7.75013752e-07
-7.3888137e-07
-7.33340684e-07
-7.33476976e-07
-7.75659756e-07
-7.74519211e-07
-7.36128758e-07
-7.35180022e-07
-7.76166816e-07
-7.74183074e-07
-7.75152068e-07
-7.36549902e-07
-7.35075277e-07
-7.76324163e-07
-7.73720122e-07
-7.75608763e-07
-7.39128021e-07
-7.30996254e-07
-7.31971258e-07
-7.76365659e-07
-7.74464695e-07
-7.7523095e-07
-7.37266184e-07
-7.35155719e-07
-7.76231495e-07
-7.73659227e-07
-7.7512523e-07
-7.39957941e-07
-7.33614422e-07
-7.33548601e-07
-7.75322343e-07
-7.74667464e-07
-7.39290694e-07
-7.34913443e-07
-7.32598242e-07
-7.32632764e-07
-7.76854086e-07
-7.74289803e-07
-7.75724684e-07
-7.38994663e-07
-7.34036885e-07
-7.76032448e-07
-7.745164e-07
-7.37475114e-07
-7.35611849e-07
-7.76359296e-07
-7.74032275e-07
-7.37142764e-07
-7.37245609e-07
-7.76232448e-07
-7.42792033e-07
-7.33272215e-07
-7.75859803e-07
-7.74838966e-07
-7.38693855e-07
-7.35185445e-07
-7.75780178e-07
-7.74843063e-07
-7.40699036e-07
-7.33705201e-07
-7.33731542e-07
-7.76213399e-07
-7.74109856e-07
-7.74227491e-07
-7.38523458e-07
-7.35921911e-07
-7.7584991e-07
-7.74593676e-07
-7.41805739e-07
-7.34770828e-07
-7.35267058e-07
-7.31208188e-07
-7.30950339e-07
-7.78206937e-07
-7.74692341e-07
-7.76458956e-07
-7.73823272e-07
-7.74585194e-07
-7.40073502e-07
-7.33718692e-07
-7.33309993e-07
-7.76889523e-07
-7.74393181e-07
-7.37897607e-07
-7.35331372e-07
-7.77359163e-07
-7.74031801e-07
-7.37168528e-07
-7.36894059e-07
-7.77652155e-07
-7.41259829e-07
-7.32723542e-07
-7.77204985e-07
-7.74874564e-07
-7.37722863e-07
-7.35016294e-07
-7.77639465e-07
-7.74251474e-07
-7.3690441e-07
-7.35820605e-07
-7.78086811e-07
-7.73469706e-07
-7.75073113e-07
-7.43062628e-07
-7.34061035e-07
-7.33867135e-07
-7.76589227e-07
-7.74888893e-07
-7.4184212e-07
-7.33926033e-07
-7.33603825e-07
-7.76936811e-07
-7.74328107e-07
-7.39243154e-07
-7.35922969e-07
-7.77321858e-07
-7.74001397e-07
-7.39456197e-07
-7.36657548e-07
-7.77026689e-07
-7.7396337e-07
-7.42188869e-07
-7.37000885e-07
-7.34623884e-07
-7.34381259e-07
-7.77926387e-07
-7.74436875e-07
-7.36827565e-07
-7.35558489e-07
-7.78895018e-07
-7.73831708e-07
-7.7509122e-07
-7.39690442e-07
-7.34573931e-07
-7.78031061e-07
-7.74556494e-07
-7.38275248e-07
-7.35381775e-07
-7.78516452e-07
-7.7429676e-07
-7.37448866e-07
-7.36120542e-07
-7.79053177e-07
-7.73614847e-07
-7.75060658e-07
-7.467196e-07
-7.35627315e-07
-7.34075397e-07
-7.33839374e-07
-7.78821146e-07
-7.74736849e-07
-7.37071742e-07
-7.34379449e-07
-7.79384924e-07
-7.74605346e-07
-7.36664431e-07
-7.34796332e-07
-7.79717464e-07
-7.738512e-07
-7.75349186e-07
-7.40491049e-07
-7.32580956e-07
-7.32180423e-07
-7.78854542e-07
-7.74921111e-07
-7.38230244e-07
-7.34738225e-07
-7.79939275e-07
-7.74649359e-07
-7.76013689e-07
-7.74383874e-07
-7.49359762e-07
-7.36956715e-07
-7.36798568e-07
-7.35670666e-07
-7.32055799e-07
-7.31902945e-07
-7.79888653e-07
-7.7519189e-07
-7.76028535e-07
-7.74787606e-07
-7.44282846e-07
-7.35935185e-07
-7.33625608e-07
-7.33492396e-07
-7.79095902e-07
-7.74219216e-07
-7.74840947e-07
-7.39406117e-07
-7.36080799e-07
-7.78847195e-07
-7.7363997e-07
-7.7462684e-07
-7.43230664e-07
-7.34431351e-07
-7.34138024e-07
-7.78177586e-07
-7.75030404e-07
-7.42092695e-07
-7.33206263e-07
-7.32910671e-07
-7.78747292e-07
-7.74581784e-07
-7.37990325e-07
-7.35638727e-07
-7.79429873e-07
-7.73670263e-07
-7.74899527e-07
-7.41858088e-07
-7.33384836e-07
-7.3309086e-07
-7.78876479e-07
-7.74405777e-07
-7.74732797e-07
-7.38291512e-07
-7.33809198e-07
-7.78567769e-07
-7.77173477e-07
-7.39599962e-07
-7.79480883e-07
-7.7373642e-07
-7.40076538e-07
-7.36137503e-07
-7.33571311e-07
-7.33332514e-07
-7.79313348e-07
-7.74074799e-07
-7.74620492e-07
-7.42628628e-07
-7.34922618e-07
-7.3530668e-07
-7.31460838e-07
-7.31220686e-07
-7.80140775e-07
-7.75047342e-07
-7.75263126e-07
-7.37097282e-07
-7.33496166e-07
-7.80430464e-07
-7.75207403e-07
-7.76378938e-07
-7.75032071e-07
-7.40143195e-07
-7.34732192e-07
-7.78484801e-07
-7.75243242e-07
-7.41181009e-07
-7.33072454e-07
-7.32702656e-07
-7.79047588e-07
-7.74596981e-07
-7.38428112e-07
-7.36156191e-07
-7.79456809e-07
-7.73552334e-07
-7.74852819e-07
-7.46300625e-07
-7.35106175e-07
-7.35484741e-07
-7.31477265e-07
-7.31180788e-07
-7.79598864e-07
-7.74877913e-07
-7.76834922e-07
-7.73994656e-07
-7.74496851e-07
-7.41420555e-07
-7.33707176e-07
-7.33230111e-07
-7.78752208e-07
-7.74468422e-07
-7.38143315e-07
-7.36137237e-07
-7.79220768e-07
-7.735728e-07
-7.74780641e-07
-7.44222248e-07
-7.34735905e-07
-7.35356148e-07
-7.31285221e-07
-7.31024682e-07
-7.79908669e-07
-7.75129458e-07
-7.75476599e-07
-7.36230494e-07
-7.32684383e-07
-7.80580807e-07
-7.75249924e-07
-7.76592872e-07
-7.75009225e-07
-7.38757183e-07
-7.34662608e-07
-7.79433431e-07
-7.74831633e-07
-7.75570727e-07
-7.74745816e-07
-7.46723543e-07
-7.3574201e-07
-7.36139807e-07
-7.32603667e-07
-7.32322949e-07
-7.79577732e-07
-7.75139004e-07
-7.35975175e-07
-7.32884009e-07
-7.80328311e-07
-7.75269505e-07
-7.76169469e-07
-7.75215198e-07
-7.40157989e-07
-7.33335943e-07
-7.30644402e-07
-7.30517953e-07
-7.7987705e-07
-7.7474927e-07
-7.75756075e-07
-7.37840975e-07
-7.34429489e-07
-7.78728906e-07
-7.73724097e-07
-7.74516074e-07
-7.39800192e-07
-7.32906081e-07
-7.32538682e-07
-7.77824874e-07
-7.74017588e-07
-7.36847619e-07
-7.34965373e-07
-7.78204909e-07
-7.72861618e-07
-7.74138327e-07
-7.44055423e-07
-7.31879519e-07
-7.32455719e-07
-7.27877655e-07
-7.27623839e-07
-7.79461742e-07
-7.74462591e-07
-7.75422802e-07
-7.73992725e-07
-7.72957612e-07
-7.73379431e-07
-7.42067835e-07
-7.27345054e-07
-7.27153989e-07
-7.74128367e-07
-7.70642035e-07
-7.70788702e-07
-7.30454591e-07
-7.27072253e-07
-7.72263283e-07
-7.68291577e-07
-7.68889645e-07
-7.67253932e-07
-7.43792435e-07
-7.66381164e-07
-7.62808814e-07
-7.23630856e-07
-7.2136746e-07
-7.62128313e-07
-7.56046012e-07
-7.57046947e-07
-7.52844301e-07
-7.5270348e-07
-7.49403211e-07
-7.48559608e-07
-7.45777172e-07
-7.44454914e-07
-7.41935074e-07
-7.40297002e-07
-7.38083507e-07
-7.36190624e-07
-7.34364565e-07
-7.32546829e-07
-7.31138649e-07
-7.30298209e-07
-7.31281115e-07
-7.28313477e-07
-7.25981239e-07
-7.22724194e-07
-7.1979983e-07
-7.16357045e-07
-7.12821252e-07
-7.0918732e-07
-7.04995615e-07
-7.01184684e-07
-6.96413421e-07
-6.92926317e-07
-6.89274423e-07
-6.89279792e-07
-6.87181952e-07
-6.84664685e-07
-6.7904777e-07
-6.7580555e-07
-6.68329118e-07
-6.64786189e-07
-6.55567633e-07
-6.51443411e-07
-6.3922099e-07
-6.35163786e-07
-6.22154597e-07
-6.1850183e-07
-6.04483537e-07
-6.01386623e-07
-5.86654242e-07
-6.19517223e-07
-6.00510873e-07
-5.9632412e-07
-5.79516404e-07
-5.73049283e-07
-5.57356671e-07
-5.49050436e-07
-5.33780185e-07
-5.23360004e-07
-5.08310296e-07
-4.94981641e-07
-4.84765618e-07
-4.75653028e-07
-4.66267837e-07
-4.56231086e-07
-4.46593537e-07
-4.35651919e-07
-4.26001187e-07
-4.15021971e-07
-4.21324556e-07
-4.02548432e-07
-3.85982649e-07
-3.48943948e-07
-3.13539125e-07
-2.74684644e-07
-2.44724709e-07
-1.88831841e-07
-1.34581972e-07
-8.1968694e-08
-3.92168538e-08
1.36903577e-08
5.46336174e-08
1.04898257e-07
1.48504333e-07
2.05426302e-07
2.5414234e-07
3.20691771e-07
3.73766916e-07
4.48417089e-07
5.03445439e-07
5.84023414e-07
6.39047723e-07
7.21417512e-07
7.73236524e-07
8.51872102e-07
8.99357991e-07
9.72337444e-07
1.01417284e-06
1.07841422e-06
1.11406675e-06
1.17124149e-06
1.20212911e-06
1.25450731e-06
1.28155904e-06
1.32911541e-06
1.35302297e-06
1.39607594e-06
1.41745558e-06
1.45653851e-06
1.47788034e-06
1.51500181e-06
1.53447086e-06
1.56768666e-06
1.58615159e-06
1.61696711e-06
1.6299345e-06
1.65709145e-06
1.67763633e-06
1.70651149e-06
1.69897552e-06
1.71699621e-06
1.77352197e-06
1.80348061e-06
1.73951583e-06
1.75425987e-06
1.87266218e-06
1.92375522e-06
1.77956687e-06
1.7956504e-06
1.97410923e-06
2.00657066e-06
1.83832921e-06
1.84727049e-06
2.01489711e-06
2.02305109e-06
1.91254253e-06
1.89112409e-06
2.02945575e-06
2.0382632e-06
1.95578205e-06
1.93219417e-06
2.0440825e-06
2.04965703e-06
1.98533773e-06
1.96151442e-06
2.05583343e-06
2.05986181e-06
2.00510617e-06
1.9832581e-06
2.06506154e-06
2.06770722e-06
2.01879908e-06
2.00024278e-06
2.07248975e-06
2.0739671e-06
2.02817254e-06
2.01383277e-06
2.07858444e-06
2.07932492e-06
)
;

boundaryField
{
    closed
    {
        type            calculated;
        value           nonuniform List<scalar> 0();
    }
    open
    {
        type            calculated;
        value           nonuniform List<scalar> 0();
    }
    sides
    {
        type            empty;
    }
    procBoundary4to3
    {
        type            processor;
        value           uniform -7.77305688e-07;
    }
    procBoundary4to5
    {
        type            processor;
        value           uniform 2.03590525e-06;
    }
}


// ************************************************************************* //
