/*--------------------------------*- C++ -*----------------------------------*\
| =========                 |                                                 |
| \\      /  F ield         | OpenFOAM: The Open Source CFD Toolbox           |
|  \\    /   O peration     | Version:  2306                                  |
|   \\  /    A nd           | Website:  www.openfoam.com                      |
|    \\/     M anipulation  |                                                 |
\*---------------------------------------------------------------------------*/
FoamFile
{
    version     2.0;
    format      ascii;
    arch        "LSB;label=32;scalar=64";
    class       volScalarField;
    location    "0.00174";
    object      prefDZ_T;
}
// * * * * * * * * * * * * * * * * * * * * * * * * * * * * * * * * * * * * * //

dimensions      [1 -1 -1 -1 0 0 0];

internalField   nonuniform List<scalar> 
530
(
-1.24385701e-09
-1.20773488e-09
-1.20399268e-09
-1.20402759e-09
-1.20403312e-09
-1.20403319e-09
-1.20403318e-09
-1.20403318e-09
-1.20403318e-09
-1.20403318e-09
-1.20403318e-09
-1.20403318e-09
-1.20403318e-09
-1.20403318e-09
-1.20403318e-09
-1.20403318e-09
-1.20403318e-09
-1.20403318e-09
-1.20403318e-09
-1.20403318e-09
-1.20403318e-09
-1.20403318e-09
-1.20403318e-09
-1.20403318e-09
-1.20403318e-09
-1.20403318e-09
-1.20403318e-09
-1.20403318e-09
-1.20403318e-09
-1.20403318e-09
-1.20403318e-09
-1.20403318e-09
-1.20403318e-09
-1.20403318e-09
-1.20403318e-09
-1.20403318e-09
-1.20403318e-09
-1.20403318e-09
-1.20403318e-09
-1.20403318e-09
-1.20403318e-09
-1.20403318e-09
-1.20403318e-09
-1.20403318e-09
-1.20403318e-09
-1.20403318e-09
-1.20403318e-09
-1.20403318e-09
-1.20403318e-09
-1.20403318e-09
-1.20403318e-09
-1.20403318e-09
-1.20403318e-09
-1.20403318e-09
-1.20403318e-09
-1.20403318e-09
-1.20403318e-09
-1.20403318e-09
-1.20403318e-09
-1.20403318e-09
-1.20403318e-09
-1.20403318e-09
-1.20403318e-09
-1.20403318e-09
-1.20403318e-09
-1.2040332e-09
-1.20403317e-09
-1.20403315e-09
-1.20403366e-09
-1.20403382e-09
-1.20403064e-09
-1.20403096e-09
-1.20404322e-09
-1.20408349e-09
-1.20406591e-09
-1.20361768e-09
-1.20359402e-09
-1.20578966e-09
-1.20611995e-09
-1.19877263e-09
-1.19311367e-09
-1.21020508e-09
-1.22929982e-09
-1.21146935e-09
-1.19086105e-09
-1.19617991e-09
-1.20834695e-09
-1.20316181e-09
-1.19175819e-09
-1.18828301e-09
-1.18815625e-09
-1.23139361e-09
-1.22637206e-09
-1.22696244e-09
-1.20813204e-09
-1.18652782e-09
-1.18608432e-09
-1.23351669e-09
-1.22680068e-09
-1.2275654e-09
-1.19641627e-09
-1.18917537e-09
-1.18412889e-09
-1.18389202e-09
-1.23341049e-09
-1.2278889e-09
-1.23048155e-09
-1.22674879e-09
-1.22772719e-09
-1.19901286e-09
-1.18632603e-09
-1.18602815e-09
-1.2304033e-09
-1.22836031e-09
-1.19731048e-09
-1.18540134e-09
-1.18508975e-09
-1.23213595e-09
-1.22780312e-09
-1.23026574e-09
-1.22699019e-09
-1.22043529e-09
-1.19045557e-09
-1.18843403e-09
-1.18785401e-09
-1.18367271e-09
-1.18342143e-09
-1.23286614e-09
-1.22829809e-09
-1.22912184e-09
-1.18870501e-09
-1.18588942e-09
-1.23321218e-09
-1.22865723e-09
-1.22941988e-09
-1.2287015e-09
-1.2010525e-09
-1.18544875e-09
-1.18506021e-09
-1.23070651e-09
-1.22775837e-09
-1.19072548e-09
-1.18787142e-09
-1.23033579e-09
-1.2270122e-09
-1.19577877e-09
-1.18949798e-09
-1.18600913e-09
-1.18582617e-09
-1.23264401e-09
-1.22841528e-09
-1.22918537e-09
-1.22835471e-09
-1.20421207e-09
-1.18636679e-09
-1.18622042e-09
-1.23061451e-09
-1.22806748e-09
-1.21082418e-09
-1.18654933e-09
-1.18666021e-09
-1.23064494e-09
-1.19405061e-09
-1.18541813e-09
-1.23092895e-09
-1.22795924e-09
-1.1895499e-09
-1.1874077e-09
-1.23133114e-09
-1.22728335e-09
-1.18884826e-09
-1.18808859e-09
-1.23165628e-09
-1.22689053e-09
-1.22787597e-09
-1.19007639e-09
-1.18853814e-09
-1.23142133e-09
-1.22776917e-09
-1.22860151e-09
-1.21839945e-09
-1.19019802e-09
-1.18623392e-09
-1.18625458e-09
-1.23080057e-09
-1.19601974e-09
-1.18514459e-09
-1.22992774e-09
-1.22905264e-09
-1.1967974e-09
-1.18456339e-09
-1.18439993e-09
-1.23122006e-09
-1.22798597e-09
-1.22858619e-09
-1.18956498e-09
-1.18870989e-09
-1.23206124e-09
-1.19099123e-09
-1.18411478e-09
-1.23267876e-09
-1.2283263e-09
-1.23017779e-09
-1.19041072e-09
-1.186349e-09
-1.23233415e-09
-1.22845546e-09
-1.22915189e-09
-1.22812823e-09
-1.2036986e-09
-1.18847747e-09
-1.18847553e-09
-1.18467823e-09
-1.18435588e-09
-1.23161572e-09
-1.22852838e-09
-1.1898512e-09
-1.18678575e-09
-1.23027145e-09
-1.22873456e-09
-1.19636021e-09
-1.18473952e-09
-1.18456843e-09
-1.23135735e-09
-1.22890042e-09
-1.22866893e-09
-1.22876393e-09
-1.20208865e-09
-1.18528073e-09
-1.18527049e-09
-1.23077672e-09
-1.2274568e-09
-1.22855735e-09
-1.19109291e-09
-1.18965198e-09
-1.23098647e-09
-1.20177015e-09
-1.18469493e-09
-1.22974372e-09
-1.22907936e-09
-1.19587726e-09
-1.18453577e-09
-1.18443798e-09
-1.23072849e-09
-1.22799865e-09
-1.22807249e-09
-1.18979386e-09
-1.18658774e-09
-1.23127448e-09
-1.23134328e-09
-1.18673171e-09
-1.23302312e-09
-1.22883593e-09
-1.19263209e-09
-1.18432465e-09
-1.18441428e-09
-1.23164672e-09
-1.2280601e-09
-1.22967703e-09
-1.19036532e-09
-1.18628411e-09
-1.23142256e-09
-1.22827502e-09
-1.18770585e-09
-1.18708961e-09
-1.23243032e-09
-1.22779764e-09
-1.22918414e-09
-1.18968387e-09
-1.18885963e-09
-1.23227765e-09
-1.19140398e-09
-1.18275614e-09
-1.23215977e-09
-1.23006084e-09
-1.22918264e-09
-1.22946454e-09
-1.1945672e-09
-1.18420242e-09
-1.18389767e-09
-1.23035809e-09
-1.22937551e-09
-1.19389033e-09
-1.1838874e-09
-1.18398326e-09
-1.23145576e-09
-1.22748381e-09
-1.22928746e-09
-1.19324619e-09
-1.18319936e-09
-1.18295842e-09
-1.2331373e-09
-1.22931783e-09
-1.23157952e-09
-1.22895966e-09
-1.22944115e-09
-1.18655627e-09
-1.18500929e-09
-1.23192505e-09
-1.22833757e-09
-1.18902786e-09
-1.18715632e-09
-1.23060161e-09
-1.2276683e-09
-1.1900635e-09
-1.187616e-09
-1.22942336e-09
-1.22804593e-09
-1.19543898e-09
-1.18604922e-09
-1.18575258e-09
-1.22959531e-09
-1.22772644e-09
-1.1907932e-09
-1.18808123e-09
-1.22913024e-09
-1.22771234e-09
-1.19778361e-09
-1.18703426e-09
-1.18686958e-09
-1.2290374e-09
-1.22801973e-09
-1.19944787e-09
-1.18600127e-09
-1.18593146e-09
-1.22967917e-09
-1.22686718e-09
-1.22742599e-09
-1.19209492e-09
-1.18833705e-09
-1.18419826e-09
-1.18440993e-09
-1.23171204e-09
-1.22733357e-09
-1.22915712e-09
-1.19197516e-09
-1.1872763e-09
-1.22940096e-09
-1.22729446e-09
-1.19051234e-09
-1.18858154e-09
-1.22929542e-09
-1.2269876e-09
-1.19077075e-09
-1.18877078e-09
-1.22883172e-09
-1.22739689e-09
-1.20209097e-09
-1.18707718e-09
-1.18674946e-09
-1.22916075e-09
-1.22699408e-09
-1.19094555e-09
-1.18898827e-09
-1.22876597e-09
-1.22643676e-09
-1.19671751e-09
-1.1899464e-09
-1.18712096e-09
-1.1868208e-09
-1.23061775e-09
-1.22753426e-09
-1.18843534e-09
-1.18732316e-09
-1.23191285e-09
-1.22760247e-09
-1.22980901e-09
-1.22749739e-09
-1.21615223e-09
-1.18863947e-09
-1.18826042e-09
-1.18370314e-09
-1.18355746e-09
-1.23173228e-09
-1.22873211e-09
-1.18590672e-09
-1.18461808e-09
-1.23385275e-09
-1.22841579e-09
-1.23202639e-09
-1.2280758e-09
-1.2305835e-09
-1.22731967e-09
-1.22419616e-09
-1.18990561e-09
-1.18948003e-09
-1.18771249e-09
-1.18803966e-09
-1.18366534e-09
-1.18386205e-09
-1.23100364e-09
-1.2274139e-09
-1.2290215e-09
-1.19324842e-09
-1.18805858e-09
-1.22868667e-09
-1.22698089e-09
-1.1910912e-09
-1.18958242e-09
-1.22835157e-09
-1.22643855e-09
-1.19677215e-09
-1.19005975e-09
-1.18726557e-09
-1.18703396e-09
-1.22979944e-09
-1.22745385e-09
-1.18933472e-09
-1.18733742e-09
-1.22954043e-09
-1.22773229e-09
-1.18958009e-09
-1.18643132e-09
-1.22898587e-09
-1.22902634e-09
-1.19144432e-09
-1.18184214e-09
-1.18189041e-09
-1.23192697e-09
-1.22870037e-09
-1.23039486e-09
-1.22781213e-09
-1.22868351e-09
-1.22661744e-09
-1.22691026e-09
-1.19600593e-09
-1.18905409e-09
-1.18593794e-09
-1.1858923e-09
-1.22995339e-09
-1.22757796e-09
-1.18910574e-09
-1.18778883e-09
-1.22881267e-09
-1.22698294e-09
-1.19468238e-09
-1.18951405e-09
-1.18741725e-09
-1.18738845e-09
-1.22928207e-09
-1.22795083e-09
-1.19374281e-09
-1.18575271e-09
-1.18586157e-09
-1.22946157e-09
-1.22688653e-09
-1.22759221e-09
-1.19134439e-09
-1.18871778e-09
-1.22833184e-09
-1.22725784e-09
-1.20354118e-09
-1.18749548e-09
-1.18736409e-09
-1.22841192e-09
-1.22748189e-09
-1.19782835e-09
-1.18699015e-09
-1.18689744e-09
-1.22827341e-09
-1.22761044e-09
-1.19811209e-09
-1.18688981e-09
-1.1867501e-09
-1.22823841e-09
-1.22733804e-09
-1.19361401e-09
-1.18867e-09
-1.18553441e-09
-1.18573928e-09
-1.23106419e-09
-1.22773454e-09
-1.22954221e-09
-1.18984673e-09
-1.18629816e-09
-1.23207741e-09
-1.22785865e-09
-1.23100047e-09
-1.22738367e-09
-1.22901827e-09
-1.18914897e-09
-1.18681855e-09
-1.18414998e-09
-1.18459866e-09
-1.23034661e-09
-1.22985546e-09
-1.18986523e-09
-1.2302886e-09
-1.22681628e-09
-1.19142457e-09
-1.18702947e-09
-1.18712174e-09
-1.22840905e-09
-1.227849e-09
-1.19672002e-09
-1.18665565e-09
-1.18629919e-09
-1.22863389e-09
-1.22724092e-09
-1.19039541e-09
-1.18815321e-09
-1.22865393e-09
-1.22693588e-09
-1.19031217e-09
-1.18845457e-09
-1.22827173e-09
-1.22723288e-09
-1.20317916e-09
-1.18688576e-09
-1.18742589e-09
-1.22889355e-09
-1.19257552e-09
-1.18620018e-09
-1.22889465e-09
-1.22719329e-09
-1.18834886e-09
-1.18828579e-09
-1.22977077e-09
-1.22594927e-09
-1.22813094e-09
-1.19633414e-09
-1.18586455e-09
-1.18557632e-09
-1.22871833e-09
-1.22704571e-09
-1.18934344e-09
-1.18922839e-09
-1.22920358e-09
-1.19633044e-09
-1.18566358e-09
)
;

boundaryField
{
    closed
    {
        type            calculated;
        value           uniform -1.46757716e-09;
    }
    open
    {
        type            calculated;
        value           nonuniform List<scalar> 0();
    }
    sides
    {
        type            empty;
    }
    procBoundary0to1
    {
        type            processor;
        value           uniform -1.22881211e-09;
    }
}


// ************************************************************************* //
