/*--------------------------------*- C++ -*----------------------------------*\
| =========                 |                                                 |
| \\      /  F ield         | OpenFOAM: The Open Source CFD Toolbox           |
|  \\    /   O peration     | Version:  2306                                  |
|   \\  /    A nd           | Website:  www.openfoam.com                      |
|    \\/     M anipulation  |                                                 |
\*---------------------------------------------------------------------------*/
FoamFile
{
    version     2.0;
    format      ascii;
    arch        "LSB;label=32;scalar=64";
    class       volScalarField;
    location    "0.00174";
    object      Z;
}
// * * * * * * * * * * * * * * * * * * * * * * * * * * * * * * * * * * * * * //

dimensions      [0 0 0 0 0 0 0];

internalField   nonuniform List<scalar> 
530
(
0.0146834473
0.0145307386
0.0144660836
0.0144621138
0.0144617242
0.014461708
0.014461707
0.0144617069
0.0144617069
0.0144617069
0.0144617069
0.0144617069
0.0144617069
0.0144617069
0.0144617069
0.0144617069
0.0144617069
0.0144617069
0.0144617069
0.0144617069
0.0144617069
0.0144617069
0.0144617069
0.0144617069
0.0144617069
0.0144617069
0.0144617069
0.0144617069
0.0144617069
0.0144617069
0.0144617069
0.0144617069
0.0144617069
0.0144617069
0.0144617069
0.0144617069
0.0144617069
0.0144617069
0.0144617069
0.0144617069
0.0144617069
0.0144617069
0.0144617069
0.0144617069
0.0144617069
0.0144617069
0.0144617069
0.0144617069
0.0144617069
0.0144617069
0.0144617069
0.0144617069
0.0144617069
0.0144617069
0.0144617069
0.0144617069
0.0144617069
0.0144617069
0.0144617069
0.0144617069
0.0144617069
0.014461707
0.014461707
0.0144617075
0.0144617075
0.0144617096
0.014461711
0.0144617191
0.0144617191
0.0144617384
0.0144618021
0.0144618573
0.0144617015
0.0144613351
0.0144615541
0.0144682724
0.0144687597
0.0144393553
0.0144358725
0.0145438514
0.014650935
0.0143834486
0.014091627
0.014369502
0.0146958067
0.0145927229
0.0144076337
0.014480828
0.0146696669
0.0148007084
0.0147887376
0.0141149084
0.0140704837
0.0140806861
0.0144112576
0.0148607459
0.0148510191
0.0141287824
0.0140742807
0.0140841431
0.0145937025
0.0147659956
0.0149355456
0.0149279697
0.0141291382
0.0140831529
0.0141093896
0.0140733574
0.0140879419
0.0145455944
0.0148708947
0.0148641284
0.0141045505
0.0140911157
0.0145791007
0.0149101406
0.0148991401
0.0141238388
0.0140856695
0.014113351
0.0140785745
0.014271633
0.0147163345
0.0148253046
0.014812267
0.0149624905
0.0149560767
0.0141257941
0.0140922995
0.0140987252
0.0147961036
0.0148848106
0.0141286843
0.014094918
0.0141005266
0.0140955219
0.014517406
0.0149052383
0.0148954411
0.0141098454
0.0140832628
0.0147284755
0.0148067499
0.0141060194
0.0140785557
0.0146141892
0.0147646224
0.0148889966
0.0148830666
0.0141261889
0.0140931429
0.0141001444
0.0140931601
0.0144707565
0.014875164
0.014871737
0.0141088129
0.0140901696
0.0143797785
0.0148599525
0.0148583494
0.014106918
0.0146415682
0.0148952359
0.0141100656
0.014086792
0.0147662384
0.0148237364
0.0141143009
0.0140802814
0.0147898751
0.0148007955
0.0141149761
0.0140789775
0.0140871284
0.0147447965
0.014800456
0.0141142667
0.0140897805
0.0140957783
0.0142933358
0.0147416085
0.0148874186
0.0148662932
0.01411189
0.014601997
0.0149163975
0.0141010857
0.0140993994
0.014590341
0.014935986
0.0149275739
0.014114283
0.0140903319
0.014094321
0.0147694766
0.0147924828
0.0141207241
0.0147072259
0.0149541916
0.0141248625
0.0140954624
0.0141085594
0.0147470203
0.0148844491
0.0141236837
0.0140962902
0.0141005145
0.0140932028
0.0144794518
0.0148172744
0.0148022038
0.0149366499
0.0149288951
0.0141191973
0.0140933735
0.0147648417
0.0148620061
0.0141072849
0.0140973725
0.0146039506
0.0149342823
0.0149286513
0.0141158024
0.0140983335
0.0140955007
0.0140971361
0.0145039292
0.0149084516
0.0149026764
0.0141094588
0.0140857714
0.0140932881
0.0147157831
0.014759931
0.0141120591
0.0145046219
0.0149262171
0.0140995184
0.0140991202
0.0146072752
0.0149360561
0.0149275333
0.014111168
0.0140916851
0.0140928575
0.014769756
0.0148892299
0.0141165133
0.0141219456
0.0148499932
0.0141337766
0.0140971803
0.0146913657
0.0149511767
0.0149435194
0.0141206279
0.0140935022
0.0141059414
0.0147459002
0.0148829964
0.0141169022
0.0140935811
0.0148367002
0.0148535143
0.014124828
0.0140915174
0.014101769
0.0147789749
0.0148004414
0.0141257615
0.0147051163
0.0150079466
0.0141220614
0.0141118744
0.0141001277
0.0141052766
0.0146394013
0.0149579197
0.0149483153
0.0141105838
0.0141022832
0.0146538565
0.0149632575
0.0149439221
0.0141198325
0.0140865801
0.0141046617
0.0146651331
0.0149971392
0.014977371
0.014136364
0.0141026607
0.0141235522
0.0140994863
0.0141040221
0.0148664475
0.0149182596
0.0141209572
0.014092599
0.0147914802
0.0148406167
0.0141092676
0.0140851723
0.0147454432
0.0148263188
0.0140975107
0.0140890944
0.0146125152
0.0148826437
0.0148742138
0.0141005352
0.0140845666
0.014718494
0.0148113216
0.0140954101
0.0140866401
0.0145724311
0.0148492684
0.0148463789
0.0140949437
0.0140886168
0.0145434105
0.0148770892
0.0148718832
0.014099127
0.0140782661
0.0140827252
0.0146783473
0.0148064258
0.0149250068
0.0149234151
0.0141145314
0.0140824584
0.0140957102
0.0146812378
0.0148339747
0.0140968884
0.0140810541
0.0147238077
0.0147871935
0.0140959618
0.0140784113
0.014712217
0.0147852285
0.0140913312
0.0140831635
0.0144972959
0.0148414491
0.0148341204
0.0140953724
0.0140761177
0.014709573
0.0147669333
0.0140918754
0.014073323
0.0145929849
0.0147413748
0.0148475272
0.0148400524
0.014110437
0.0140830242
0.0148112815
0.0148292422
0.0141209005
0.0140855108
0.0141071401
0.0140855393
0.0143174248
0.0147975317
0.0148188968
0.0149594188
0.0149543706
0.014121741
0.0140944575
0.0149013184
0.0149127326
0.0141390121
0.0140909088
0.0141285689
0.014087833
0.0141197995
0.0140827581
0.014234149
0.0147427096
0.0147988351
0.0148208047
0.014828265
0.0149486187
0.0149474346
0.0141108586
0.0140844246
0.0140960681
0.014657251
0.0148118563
0.0140912381
0.0140790596
0.0147032442
0.0147568544
0.0140882778
0.014074579
0.0145905745
0.0147399467
0.0148366583
0.0148327475
0.0141011571
0.0140816039
0.0147657288
0.0148266694
0.014098215
0.0140850317
0.0147513255
0.0148641927
0.0140933199
0.0140969704
0.0146893156
0.015015761
0.0149901959
0.0141207796
0.0140914033
0.0141084692
0.0140836836
0.0140943244
0.014074398
0.0140792591
0.0146008709
0.0147756758
0.0148683003
0.0148684871
0.0141002162
0.0140821524
0.0147651968
0.0148103551
0.0140912653
0.0140787466
0.014627002
0.0147623331
0.0148262267
0.0148264819
0.0140962262
0.014086849
0.0146452419
0.0148854269
0.0148714459
0.0140979577
0.0140783794
0.0140835745
0.0146934876
0.0147895648
0.0140874456
0.0140821497
0.0144762276
0.0148233964
0.0148214402
0.0140880607
0.0140822785
0.0145678844
0.0148383156
0.0148359109
0.014086895
0.0140833241
0.0145620593
0.0148424379
0.0148390677
0.0140870716
0.0140813791
0.0146468009
0.0147937774
0.0148861109
0.0148857686
0.0141113135
0.0140883623
0.0141007667
0.0147644542
0.0148717549
0.0141242352
0.014088535
0.0141169111
0.0140832987
0.0140995405
0.0147648464
0.0148799355
0.0149262395
0.0149366882
0.0141042507
0.0141050141
0.0147310645
0.0141065472
0.0140756689
0.0147001301
0.0148381695
0.0148381642
0.0140881907
0.0140868835
0.0145856962
0.0148576066
0.0148479552
0.0140919609
0.0140783328
0.0147265401
0.0147943332
0.0140904469
0.0140769342
0.0147241841
0.0147896928
0.0140865723
0.014080547
0.0144811272
0.014837747
0.0148154584
0.0140905864
0.0146638303
0.0148564313
0.0140911677
0.0140783291
0.0147869859
0.0147855132
0.0140977235
0.0140681304
0.0140871326
0.01459024
0.0148787446
0.0148665859
0.014092374
0.014076404
0.0147594113
0.0147570611
0.0140935946
0.0145924095
0.014876523
)
;

boundaryField
{
    closed
    {
        type            zeroGradient;
    }
    open
    {
        type            zeroGradient;
    }
    sides
    {
        type            empty;
    }
    procBoundary0to1
    {
        type            processor;
        value           uniform 0.0140905164;
    }
}


// ************************************************************************* //
