/*--------------------------------*- C++ -*----------------------------------*\
| =========                 |                                                 |
| \\      /  F ield         | OpenFOAM: The Open Source CFD Toolbox           |
|  \\    /   O peration     | Version:  2306                                  |
|   \\  /    A nd           | Website:  www.openfoam.com                      |
|    \\/     M anipulation  |                                                 |
\*---------------------------------------------------------------------------*/
FoamFile
{
    version     2.0;
    format      ascii;
    arch        "LSB;label=32;scalar=64";
    class       volScalarField;
    location    "0.00162";
    object      prefDh_H2;
}
// * * * * * * * * * * * * * * * * * * * * * * * * * * * * * * * * * * * * * //

dimensions      [1 1 -3 0 0 0 0];

internalField   nonuniform List<scalar> 
531
(
37.8119638
28.9900739
20.6843144
20.9480697
37.7732984
38.2022695
37.7464265
29.2465172
26.0853791
26.0527682
20.8097999
20.993369
37.4613919
38.1528755
25.6518839
25.6658222
37.4677292
38.0864183
37.3847018
29.1972233
19.8479048
20.2432684
37.7245008
37.9475251
37.8793264
29.1842067
22.4480293
17.3340971
17.3627809
37.5070015
37.9409458
22.1919716
20.688377
37.5647291
38.1728794
37.7131238
38.3117388
29.6491537
25.3850539
38.1571515
38.1952491
29.1790344
26.5508407
21.2424994
21.2473448
38.1165576
38.0981031
38.0714071
29.3107417
24.4583127
38.1392837
38.2519808
27.2186591
27.2317649
38.2009405
29.019569
21.9685278
38.2305517
38.0943092
38.059542
29.1364375
25.2720782
21.4719569
21.4872013
38.0065626
38.1185511
37.909879
29.1206579
21.9382616
21.9801491
38.1425306
37.9094736
29.1113437
21.864712
23.177639
37.8301125
28.9956113
20.7861453
38.2631302
37.763186
29.1166933
18.5431377
18.8444852
37.8011906
37.9290387
37.9180354
37.9026793
29.3511033
20.8842031
21.1587908
38.019869
38.1795928
37.9734246
29.1488247
22.3927219
22.4405852
38.1410707
37.9676462
29.0537296
21.447615
23.2960011
37.8537007
29.0061854
20.8341056
38.231556
37.8085528
29.1203955
20.5768724
21.025087
37.8505008
37.9308692
37.9207125
29.829617
24.9186998
17.8761136
17.9453608
37.4133395
37.869867
37.3398285
38.0439879
24.6149529
21.9099632
37.4167377
38.1644184
37.4088358
38.2652019
37.5358537
29.4177226
18.412368
18.6726117
37.5827807
37.8741889
29.2484505
14.9453223
15.5180071
37.4587822
37.6074825
37.5293905
25.7369326
20.2374607
37.6789723
37.6824441
37.7234926
37.7860588
29.5220094
24.3760997
19.6482145
19.6739956
37.6034695
37.7727988
37.5712281
29.4634602
14.0057636
14.8251556
37.3164176
37.8339182
37.5132594
37.9116393
37.7382789
29.2113116
23.8219641
16.5541894
16.6221848
37.585168
37.8000328
37.6575378
37.9357444
37.8130117
29.7517182
24.6525021
18.7553334
18.7713156
37.6616877
37.8098472
37.77389
37.9103225
29.4538958
24.3151096
19.8220227
19.8855021
37.6511363
37.9403047
37.7973
38.0466385
29.3334158
25.5188717
22.0787703
22.1451252
37.6768087
38.1082333
26.0580825
23.4542409
37.8285138
38.0285907
27.391671
23.1933922
37.9449424
37.8052552
29.3930664
18.7770866
19.2970963
37.6253302
37.96551
37.7568032
38.0282686
37.9194067
29.3818466
26.5864693
21.6099254
21.6232944
37.6707289
37.9604315
23.8468358
23.8601791
37.7598592
37.9153462
37.8111508
29.4347847
22.7432576
17.006895
17.0702113
37.4997609
37.5785588
37.7170547
37.6388605
29.650974
15.4549568
16.0413726
37.3207106
37.9266511
37.5148026
38.0725915
27.6154371
26.1873896
37.7088639
29.1858436
20.353373
37.8134203
37.8163912
37.7731511
29.4068488
22.5311728
19.1327486
19.1406111
37.5874784
37.7649241
37.7762934
37.8436059
29.4284492
24.5458176
20.4838672
20.5230426
37.6381002
37.7786317
37.745776
26.9752994
21.6348084
37.7777207
37.7326403
37.9408341
37.7337934
29.3046152
24.2679699
25.0629851
19.3537765
19.5092362
37.4665955
38.0865285
24.772997
22.5349142
37.571344
38.0685094
23.8046687
23.5475524
37.7020325
37.9628371
37.8392839
25.5073537
22.1227228
37.8996415
37.898884
38.0661547
37.9021938
29.2278072
24.3408309
25.1107742
19.8723088
20.0328662
37.6197339
38.2222417
24.9756976
24.9695357
37.6894939
38.2409169
37.7357425
29.0588041
23.7466925
24.9283114
18.810052
18.9897897
37.5939301
38.1984821
37.7350489
38.3164629
28.5968902
27.6271045
37.8456077
29.2940714
21.9850404
38.2215357
38.0627604
29.1420071
24.8658907
21.3939846
21.5628111
38.0703095
38.1553831
38.1884546
28.6659096
25.5056687
38.2535356
28.9068096
21.0929615
38.1786708
38.2689504
38.2550819
29.2634329
22.6350065
38.3610358
38.0718313
28.9331929
21.7496944
21.848068
38.0528064
38.2988504
28.6756748
24.2512106
38.2982193
38.0547061
28.9028141
22.2374742
22.3303216
37.9104398
38.4431593
27.3801874
24.8359451
38.0126729
38.3956111
25.612144
25.5820229
38.1081913
38.3452383
38.2325439
29.0766588
21.4717396
21.4817014
38.1456972
38.1195268
29.1906927
19.9774151
20.1302496
37.8070626
38.3587122
26.5183446
23.2777003
37.8593683
38.3409111
25.8375278
24.493158
37.900011
38.3106561
25.9492568
25.9345803
37.9414977
28.9304875
20.6030558
38.277906
37.9516757
29.0077708
21.0904278
22.1272731
37.9761761
38.2039887
38.199141
29.3035517
27.1018091
38.2268403
38.1815267
29.3457782
28.6707402
24.6624745
24.6395876
38.2104836
38.2498982
29.0652513
22.3505222
22.4110517
38.1597049
38.3179638
29.1643925
20.9954421
21.0207693
38.2203694
38.2449873
29.1674397
18.6403305
18.9679668
38.0255003
38.4343942
38.1987736
38.5395401
29.2116092
26.0136853
38.2921175
38.5791776
29.3213899
27.6363144
38.3732933
38.5222131
29.0262185
28.3275682
24.7980662
24.8088251
38.2181535
38.6028639
28.4653479
26.1800889
38.3309972
38.4804948
29.0615692
26.6236006
23.4516019
23.4314172
38.1174545
38.4149893
25.1056946
25.0979615
38.1256184
38.383913
38.1602873
28.9182705
20.7669608
23.0541492
38.0974018
28.0025605
22.6292931
38.1676675
38.1252348
38.1589475
29.0922426
21.0035438
23.4277705
38.0627035
28.3734232
22.876903
38.079163
38.0376193
38.0801388
29.243898
20.6968962
22.9402463
37.9582028
27.4464039
21.9116561
37.9308264
38.0050032
37.9573738
29.4976379
22.539301
37.9890114
38.022905
25.314954
25.3388281
38.0263324
38.1218661
38.0387628
29.2565933
23.1814754
20.8482521
20.8280008
37.8970557
38.1146573
22.6438222
22.6646829
38.0129802
38.1915064
38.0779081
29.3957016
23.1171717
38.1688272
38.1770001
28.4495064
25.5213735
38.2003453
38.2345638
29.2429743
26.2266705
23.3456465
23.3282056
38.0325503
38.4068959
26.2511906
24.3259111
38.0591766
38.4881247
26.8806479
25.1421398
38.1468521
38.4914482
28.1401887
26.2656232
38.2784889
38.3915333
29.0597512
26.9950741
24.3241742
24.3036045
38.185385
38.3079175
28.0449439
24.6963537
38.2835019
38.0948667
28.9506718
22.5388797
22.5904609
37.9739619
38.343092
26.5998021
23.9649187
37.9879842
)
;

boundaryField
{
    closed
    {
        type            calculated;
        value           nonuniform List<scalar> 0();
    }
    open
    {
        type            calculated;
        value           nonuniform List<scalar> 0();
    }
    sides
    {
        type            empty;
    }
    procBoundary3to2
    {
        type            processor;
        value           uniform 38.2624158;
    }
    procBoundary3to4
    {
        type            processor;
        value           uniform 38.1663591;
    }
}


// ************************************************************************* //
