/*--------------------------------*- C++ -*----------------------------------*\
| =========                 |                                                 |
| \\      /  F ield         | OpenFOAM: The Open Source CFD Toolbox           |
|  \\    /   O peration     | Version:  2306                                  |
|   \\  /    A nd           | Website:  www.openfoam.com                      |
|    \\/     M anipulation  |                                                 |
\*---------------------------------------------------------------------------*/
FoamFile
{
    version     2.0;
    format      ascii;
    arch        "LSB;label=32;scalar=64";
    class       volScalarField;
    location    "0.00162";
    object      rho;
}
// * * * * * * * * * * * * * * * * * * * * * * * * * * * * * * * * * * * * * //

dimensions      [1 -3 0 0 0 0 0];

internalField   nonuniform List<scalar> 
531
(
0.903912568
0.936256604
0.965135997
0.964202824
0.903763481
0.903125135
0.904264791
0.934006545
0.948538427
0.948473983
0.964802027
0.964091506
0.904490745
0.903166709
0.949918284
0.949700188
0.904393139
0.903558079
0.90503356
0.935142068
0.967770355
0.966443415
0.903861538
0.903780045
0.903846821
0.938846997
0.95973938
0.975413396
0.975306321
0.904188324
0.903578914
0.960549942
0.965050979
0.903955848
0.903045518
0.904099877
0.902731404
0.937071295
0.950553256
0.902916309
0.903173257
0.937148432
0.947002928
0.963367724
0.963360897
0.902731928
0.903434893
0.903207242
0.937455238
0.953449128
0.902893507
0.903034392
0.944916917
0.944849078
0.902695472
0.937638475
0.961156318
0.902493199
0.903473356
0.903333017
0.935569106
0.950986967
0.962693522
0.962635549
0.90307929
0.903423034
0.903744578
0.936436284
0.961304129
0.961129758
0.903006156
0.903797638
0.935358227
0.961549632
0.957398607
0.903703618
0.936475395
0.9648692
0.902659895
0.904091221
0.937386621
0.97177634
0.970765459
0.903659498
0.903666906
0.903721443
0.90377254
0.933714589
0.964541871
0.963646457
0.903193117
0.903269472
0.903673356
0.937207575
0.959916856
0.95970872
0.903027118
0.903660097
0.936242454
0.962847592
0.957047545
0.903656724
0.936859485
0.964736868
0.902778275
0.904026933
0.937207511
0.965549863
0.964089704
0.903686927
0.903920527
0.903873938
0.936847606
0.952195799
0.973841577
0.973588559
0.904447215
0.903814263
0.905041582
0.903400482
0.953204719
0.961360152
0.904451999
0.903225593
0.904829024
0.903065906
0.904816939
0.93792916
0.972257831
0.971333764
0.904352411
0.90372928
0.938801961
0.982824071
0.981055917
0.90450532
0.904614377
0.90463352
0.949667673
0.966637653
0.903895634
0.904414724
0.904246724
0.904188057
0.936412086
0.953917738
0.968430653
0.96834416
0.904096092
0.904340985
0.904536821
0.938105337
0.985730497
0.983163013
0.904854801
0.90397507
0.904660599
0.903958227
0.904412552
0.938895612
0.955669121
0.977909779
0.977711474
0.904009605
0.90411046
0.904231434
0.903927883
0.904229804
0.937065779
0.953096203
0.971182199
0.971135181
0.90392855
0.904073419
0.90413225
0.903876963
0.936584753
0.954099665
0.967923549
0.96769693
0.903992737
0.90378375
0.904104525
0.903577949
0.936099706
0.950331191
0.960997601
0.960710287
0.904099851
0.903401844
0.94870613
0.956692377
0.903784155
0.903634661
0.944543415
0.957553616
0.90359459
0.904132122
0.937431111
0.9711848
0.96950287
0.9042474
0.903806061
0.904203594
0.903801336
0.904083057
0.936752918
0.947112025
0.962460146
0.962385241
0.904118504
0.903821053
0.955567668
0.955490174
0.903827201
0.904109553
0.904156499
0.938256211
0.959058418
0.976588655
0.976419771
0.904315169
0.904606606
0.90426717
0.904469386
0.937170655
0.9813864
0.97951176
0.905011707
0.903780666
0.904852203
0.903516704
0.943984152
0.94829293
0.904052366
0.938945559
0.966363597
0.903706204
0.90433548
0.904133926
0.936682455
0.959687501
0.970085973
0.970067622
0.904187001
0.904268365
0.904199715
0.904126497
0.936768582
0.953480566
0.965946616
0.965836195
0.904126243
0.904371478
0.904211501
0.945896739
0.962437225
0.903852066
0.904416148
0.9038256
0.904460861
0.934266241
0.95434864
0.951769482
0.969459661
0.968870399
0.904710728
0.903451408
0.952784242
0.959569011
0.904427745
0.903584813
0.955742972
0.956461715
0.904003523
0.903920755
0.904059884
0.950408229
0.960902072
0.903516956
0.903995978
0.903487977
0.904028723
0.934475817
0.954081872
0.951591451
0.967844781
0.967244493
0.904349356
0.903153772
0.95211962
0.952014549
0.90412827
0.903325881
0.904404821
0.935560321
0.955959862
0.952132525
0.971115235
0.970443764
0.904327302
0.903172083
0.904325358
0.902969021
0.94090713
0.943780887
0.903852862
0.933777973
0.961276808
0.902978482
0.903585109
0.938198961
0.952425365
0.963046107
0.962569518
0.903079763
0.903426739
0.903076169
0.940499988
0.950358635
0.90270619
0.939726589
0.963978241
0.902833541
0.903123938
0.902912272
0.93855292
0.959257932
0.90263023
0.903502446
0.938295739
0.962002249
0.961586261
0.903413571
0.902937933
0.940468151
0.954257861
0.902803722
0.903590423
0.93797019
0.960513877
0.960076055
0.903770277
0.902584584
0.944572974
0.952354308
0.903404088
0.902782266
0.950017634
0.950050978
0.903066235
0.903034519
0.903057736
0.937823405
0.962816744
0.962737404
0.903157504
0.903294626
0.938390141
0.967452976
0.966860312
0.903978968
0.902713989
0.947253662
0.957171204
0.903763749
0.902851703
0.949359125
0.95341485
0.903654608
0.902986338
0.948997617
0.948969589
0.903556633
0.936724139
0.965496437
0.902833238
0.903737401
0.937964483
0.964024388
0.960720203
0.903517559
0.903308585
0.90323194
0.937735433
0.945398454
0.902985139
0.903439534
0.933424873
0.940479707
0.952922876
0.952962834
0.902958524
0.903039914
0.938142514
0.960069702
0.959806901
0.903089113
0.902780403
0.938267843
0.964220475
0.964095589
0.902896223
0.902892456
0.938809138
0.971489364
0.970387703
0.903279343
0.902462244
0.903145345
0.902278142
0.937841609
0.948615489
0.902786297
0.902310558
0.938384423
0.943587771
0.902581998
0.90253385
0.935367142
0.941408368
0.952461642
0.952314467
0.902891908
0.902183657
0.941046238
0.948099649
0.902662509
0.902548233
0.93777414
0.946758872
0.956624226
0.95662066
0.903041145
0.902632332
0.951506587
0.951478773
0.902932825
0.902870344
0.9031583
0.936964975
0.964937565
0.957799988
0.903118281
0.942455915
0.95919571
0.90282189
0.903496081
0.90315813
0.936474564
0.964212349
0.956690941
0.90321515
0.94135111
0.958446843
0.903061017
0.903733582
0.903372808
0.936959952
0.965179424
0.958219442
0.903465906
0.944263224
0.961429601
0.903340405
0.903772003
0.903522515
0.937646274
0.959502775
0.90341665
0.903640041
0.950889749
0.950819699
0.903160346
0.903547826
0.903449916
0.93736418
0.957507201
0.964671324
0.964720582
0.903445691
0.903313368
0.959130856
0.959040711
0.90309678
0.903288632
0.903258332
0.938058217
0.957679762
0.903007224
0.903231234
0.941116244
0.950229544
0.902964482
0.903147117
0.937663566
0.94803439
0.956963432
0.956948935
0.903244146
0.902614357
0.947977441
0.953836892
0.903190257
0.902437025
0.946012675
0.951302071
0.903010456
0.902465533
0.942075085
0.947846758
0.902758608
0.902774163
0.937578372
0.945622376
0.953915374
0.953941914
0.902899156
0.902894003
0.942350559
0.952779194
0.902735491
0.903418038
0.937794515
0.959502308
0.959211146
0.903504559
0.90276085
0.946918233
0.955010365
0.903275293
)
;

boundaryField
{
    closed
    {
        type            calculated;
        value           nonuniform List<scalar> 0();
    }
    open
    {
        type            calculated;
        value           nonuniform List<scalar> 0();
    }
    sides
    {
        type            empty;
    }
    procBoundary3to2
    {
        type            processor;
        value           uniform 0.903038951;
    }
    procBoundary3to4
    {
        type            processor;
        value           uniform 0.903250544;
    }
}


// ************************************************************************* //
