/*--------------------------------*- C++ -*----------------------------------*\
| =========                 |                                                 |
| \\      /  F ield         | OpenFOAM: The Open Source CFD Toolbox           |
|  \\    /   O peration     | Version:  2306                                  |
|   \\  /    A nd           | Website:  www.openfoam.com                      |
|    \\/     M anipulation  |                                                 |
\*---------------------------------------------------------------------------*/
FoamFile
{
    version     2.0;
    format      ascii;
    arch        "LSB;label=32;scalar=64";
    class       volScalarField;
    location    "0.00162";
    object      Z;
}
// * * * * * * * * * * * * * * * * * * * * * * * * * * * * * * * * * * * * * //

dimensions      [0 0 0 0 0 0 0];

internalField   nonuniform List<scalar> 
531
(
0.014094615
0.0145510807
0.0148889183
0.0148758999
0.0141063452
0.014077124
0.0140882824
0.014475967
0.0147802988
0.0147713051
0.0148888051
0.0148758485
0.0141165014
0.0140823124
0.0147914666
0.0147809374
0.0141198466
0.0140739257
0.0141035475
0.0145228282
0.0149088301
0.0148936804
0.0141091373
0.0140831173
0.0140894134
0.0147084798
0.0148535552
0.0149539156
0.0149518775
0.0141236247
0.0140930502
0.0148600184
0.0148827157
0.0141259383
0.0140855539
0.0141008496
0.0140808106
0.0146806343
0.0147850799
0.0140933742
0.014077016
0.0146192152
0.0147637014
0.0148724374
0.0148727707
0.0141066185
0.0140787598
0.0140924095
0.0146526372
0.0148056929
0.0140971387
0.0140760273
0.0147477905
0.0147458529
0.0140976477
0.0146215516
0.0148582208
0.0141025007
0.014078126
0.0140890853
0.0145340932
0.0147912004
0.0148686799
0.0148677124
0.0141069549
0.0140772522
0.0140912055
0.0145744112
0.0148616698
0.0148580058
0.01409249
0.0140890415
0.0145204146
0.0148641734
0.0148308755
0.0141037165
0.0145596087
0.0148859659
0.0140917324
0.0140959815
0.0146212029
0.0149319629
0.0149202675
0.0141095765
0.014092536
0.0140916544
0.0140915005
0.0144722964
0.0148818428
0.0148730946
0.0141011294
0.0140765454
0.0140865221
0.0146160851
0.014852149
0.0148474994
0.0140925635
0.0140880922
0.0145549471
0.014872308
0.0148280953
0.014103428
0.0145790165
0.0148846965
0.0140915906
0.0140935407
0.0146116794
0.0148911164
0.0148769059
0.0141027774
0.0140818773
0.0140853528
0.0146916129
0.0148033565
0.0149450678
0.0149409764
0.0141274628
0.0140950328
0.0141122403
0.0140899563
0.0148133537
0.0148578601
0.0141270957
0.0140817042
0.0141125351
0.0140752728
0.0140963494
0.0146886958
0.014937018
0.0149234226
0.0141102876
0.0140987272
0.0147110626
0.0150018825
0.0149893405
0.0141200699
0.0140959634
0.0141055468
0.01478468
0.0148988129
0.0141173518
0.0140948421
0.0140967138
0.0140909239
0.0146245169
0.0148155474
0.0149093464
0.0149083608
0.0141189743
0.0140862118
0.0141046692
0.0147038067
0.0150215727
0.0150006096
0.0141245233
0.0140943856
0.0141072817
0.0140847895
0.0140881643
0.0147090849
0.0148283225
0.0149686346
0.0149678096
0.0141254769
0.0140934116
0.0141070725
0.0140832753
0.0140865493
0.0146889448
0.0148099428
0.0149257848
0.0149254248
0.0141195157
0.0140941495
0.0140964381
0.0140894142
0.0146221029
0.014814182
0.014905017
0.0149016557
0.0141185976
0.014089764
0.0140948829
0.0140845983
0.0145807999
0.0147857675
0.0148598808
0.0148534114
0.0141111148
0.0140843038
0.014776663
0.0148274331
0.0141049064
0.0140849108
0.0147462752
0.0148359429
0.0140979359
0.0140932073
0.0146559628
0.0149280647
0.0149120439
0.0141121152
0.0140862578
0.0140968304
0.0140780358
0.0140803157
0.0146192343
0.0147667571
0.0148690518
0.0148665596
0.0141120176
0.0140866515
0.0148231726
0.0148206602
0.0141128902
0.0140801039
0.0140921768
0.0147040146
0.0148508414
0.0149601904
0.014960619
0.0141260694
0.0141036891
0.0140999668
0.0141015362
0.0146775484
0.0149939796
0.0149766012
0.0141202963
0.0140934527
0.0141017274
0.014085551
0.0147473564
0.0147710565
0.0141105119
0.0147041599
0.0148958166
0.0141116076
0.0140840629
0.014098754
0.0146178962
0.0148528757
0.0149182122
0.0149183503
0.0141208074
0.0140942704
0.0140957801
0.0140900161
0.0146248498
0.0148112049
0.0148912918
0.0148910135
0.0141170575
0.0140880596
0.0140994641
0.0147558716
0.0148698178
0.0141106781
0.0140923893
0.0140903563
0.0140902111
0.0144853846
0.0148176056
0.0147938344
0.0149168618
0.014906622
0.0141148256
0.0140873011
0.0148066046
0.0148455861
0.0141132449
0.0140839328
0.0148247757
0.0148256085
0.0141142102
0.0140833817
0.0140938785
0.0147846024
0.0148574643
0.0141092482
0.0140887789
0.0140886348
0.0140868483
0.0144855288
0.01481316
0.0147905582
0.0149043418
0.0148943085
0.0141102859
0.0140822443
0.0148001068
0.0147930006
0.0141104609
0.0140719231
0.014092411
0.0145159586
0.0148285753
0.0147935397
0.0149268253
0.0149154879
0.0141143181
0.0140844231
0.0140959051
0.0140775261
0.014723656
0.0147367969
0.0141016834
0.0144619944
0.0148579172
0.0140898083
0.0140844643
0.014658371
0.0148006503
0.0148667802
0.0148659607
0.0141050829
0.0140788097
0.014089763
0.0147116073
0.0147824688
0.0140969795
0.014705169
0.0148738519
0.0141011516
0.0140765346
0.0140876228
0.0146942839
0.0148445232
0.0140858646
0.0140862831
0.0146352682
0.0148636883
0.0148548222
0.0140926575
0.0140806168
0.0147119112
0.0148105344
0.0140865289
0.0140845566
0.0146149011
0.0148549241
0.0148439526
0.0140959135
0.0140766503
0.0147447623
0.014793008
0.0140980487
0.0140741172
0.0147806615
0.0147778959
0.014099773
0.0140694276
0.0140836139
0.0146318195
0.0148679395
0.0148648139
0.0140906598
0.0140881356
0.0146768037
0.0149008398
0.0148900788
0.0140998061
0.0140815097
0.0147646886
0.014826578
0.014102072
0.0140777352
0.014779081
0.0148013595
0.0141013223
0.0140757544
0.0147759021
0.0147719646
0.0140998928
0.0145580292
0.0148868383
0.0140866519
0.0140906215
0.0146304293
0.0148788418
0.0148509524
0.0140968171
0.0140754418
0.0140795014
0.0146597355
0.0147504379
0.0140865449
0.0140724297
0.0144546941
0.0147140828
0.0148006006
0.0147992699
0.0140896146
0.0140807622
0.014648009
0.0148493602
0.0148435252
0.0140904356
0.0140827773
0.0146685749
0.0148761528
0.0148728321
0.0140906559
0.0140875385
0.0146969675
0.0149253151
0.0149126572
0.0140997073
0.0140810297
0.0140825261
0.0140750106
0.0146534474
0.0147658346
0.0140857305
0.0140681295
0.0146968783
0.0147315334
0.014083787
0.0140657777
0.0145063958
0.0147148856
0.0147964851
0.0147896714
0.0140907401
0.0140703649
0.0147158459
0.0147627557
0.0140855959
0.0140704934
0.0146299244
0.0147555211
0.0148252993
0.0148218816
0.0140972762
0.0140755366
0.0147903607
0.0147875215
0.0141007644
0.0140690358
0.0140864728
0.0145702678
0.0148827254
0.0148305478
0.0140964571
0.0147247684
0.0148444706
0.0140998607
0.0140760868
0.0140865096
0.0145691617
0.0148783244
0.0148256579
0.0140967205
0.0147195954
0.0148404537
0.0141010992
0.0140772598
0.0140875198
0.0146140216
0.0148861729
0.0148373148
0.0140995906
0.0147416305
0.0148608553
0.0141084214
0.0140799092
0.0140972255
0.0146845116
0.0148485108
0.0140975806
0.0140832867
0.0147884308
0.0147881858
0.0141034848
0.014073754
0.0140893059
0.0146366889
0.0148345936
0.01488074
0.0148802473
0.0141081505
0.0140852311
0.0148436057
0.0148416123
0.0141078487
0.0140759303
0.0140925094
0.0146917461
0.0148344264
0.0140913467
0.0140804281
0.0147185279
0.0147830501
0.0140889859
0.014076315
0.0146502053
0.0147675912
0.0148292516
0.0148255878
0.0140990492
0.0140767605
0.0147680211
0.0148028398
0.0140978964
0.0140736924
0.0147537884
0.0147851323
0.0140941031
0.0140719635
0.0147250861
0.0147627609
0.0140876098
0.0140717244
0.0146205614
0.0147492881
0.0148070934
0.0148052999
0.014093768
0.0140776646
0.0147260684
0.0148002921
0.0140878972
0.014083187
0.0146167258
0.0148488025
0.014839773
0.014095564
0.0140788456
0.0147618396
0.0148137996
0.0141035294
)
;

boundaryField
{
    closed
    {
        type            zeroGradient;
    }
    open
    {
        type            zeroGradient;
    }
    sides
    {
        type            empty;
    }
    procBoundary3to2
    {
        type            processor;
        value           uniform 0.0140724212;
    }
    procBoundary3to4
    {
        type            processor;
        value           uniform 0.014081008;
    }
}


// ************************************************************************* //
