/*--------------------------------*- C++ -*----------------------------------*\
| =========                 |                                                 |
| \\      /  F ield         | OpenFOAM: The Open Source CFD Toolbox           |
|  \\    /   O peration     | Version:  2306                                  |
|   \\  /    A nd           | Website:  www.openfoam.com                      |
|    \\/     M anipulation  |                                                 |
\*---------------------------------------------------------------------------*/
FoamFile
{
    version     2.0;
    format      ascii;
    arch        "LSB;label=32;scalar=64";
    class       volScalarField;
    location    "0.0004";
    object      H2;
}
// * * * * * * * * * * * * * * * * * * * * * * * * * * * * * * * * * * * * * //

dimensions      [0 0 0 0 0 0 0];

internalField   nonuniform List<scalar> 
530
(
0.0108388128
0.0108069783
0.0108034684
0.0108034619
0.0108034603
0.0108034603
0.0108034603
0.0108034603
0.0108034603
0.0108034603
0.0108034603
0.0108034603
0.0108034603
0.0108034603
0.0108034603
0.0108034603
0.0108034603
0.0108034603
0.0108034603
0.0108034603
0.0108034603
0.0108034603
0.0108034603
0.0108034603
0.0108034603
0.0108034603
0.0108034603
0.0108034603
0.0108034603
0.0108034603
0.0108034603
0.0108034603
0.0108034603
0.0108034603
0.0108034603
0.0108034603
0.0108034603
0.0108034603
0.0108034603
0.0108034603
0.0108034603
0.0108034603
0.0108034603
0.0108034603
0.0108034603
0.0108034603
0.0108034603
0.0108034603
0.0108034603
0.0108034603
0.0108034603
0.0108034603
0.0108034603
0.0108034603
0.0108034603
0.0108034603
0.0108034603
0.0108034603
0.0108034603
0.0108034603
0.0108034603
0.0108034603
0.0108034603
0.0108034603
0.0108034603
0.0108034603
0.0108034603
0.0108034603
0.0108034603
0.0108034603
0.0108034603
0.0108034603
0.0108034603
0.0108034603
0.0108034603
0.0108034603
0.0108034603
0.0108034603
0.0108034603
0.0108034603
0.0108034603
0.0108034604
0.0108034605
0.0108034614
0.0108034626
0.0108034582
0.0108034731
0.0108035312
0.0108034957
0.0108030016
0.0108031174
0.0108069092
0.0108074225
0.0107892549
0.0107852746
0.0108400642
0.0108493809
0.0107329002
0.0106844906
0.0107437234
0.0110106542
0.0110083012
0.0107137816
0.0106556286
0.0106858246
0.0110258749
0.0110023506
0.0107510273
0.010657331
0.0106701908
0.0110334102
0.0110020875
0.0107050865
0.0106720915
0.0110520824
0.0110116197
0.010722793
0.0106533148
0.0106632354
0.0110384211
0.0110042983
0.0107071529
0.0106738453
0.0110565397
0.011010942
0.0107370215
0.0106582697
0.0106616821
0.0110413411
0.0110060968
0.0107086232
0.0106720673
0.0110647912
0.0110128778
0.0107386689
0.0106564541
0.0106597147
0.0110485526
0.0110073932
0.0107068349
0.0106651732
0.0110771724
0.0110096734
0.0106988121
0.0106675114
0.0110714789
0.0110153596
0.0107513636
0.010660486
0.0106601252
0.0110582618
0.0110049758
0.010737115
0.0106786982
0.0110560689
0.0110072918
0.0107629372
0.010680838
0.0106724816
0.0106706567
0.0110282301
0.0110163406
0.0108138736
0.0106704897
0.0106619332
0.0110354584
0.0110099402
0.0107477231
0.0106739787
0.0109922417
0.01101495
0.0107340892
0.0106711159
0.0109758484
0.0110229652
0.0108000155
0.0106644416
0.0106572947
0.0109653815
0.0110185959
0.0107703059
0.0106792805
0.0109495298
0.011025714
0.0108246957
0.0106673119
0.0106538623
0.0109173739
0.011025968
0.0107760599
0.0106749402
0.0108943784
0.0110301924
0.0107615615
0.010667806
0.01086359
0.011036343
0.010765494
0.0106672332
0.0108470592
0.0110389157
0.0107747757
0.0106703184
0.0108423598
0.0110390519
0.010790059
0.010676037
0.010848021
0.0110404344
0.0108780194
0.0106743211
0.0106563706
0.0108302173
0.0110380874
0.0108245865
0.0106813454
0.010839113
0.0110367731
0.0108131663
0.0106777717
0.0108275039
0.0110416747
0.0109052618
0.0106766139
0.0106564283
0.0108007894
0.0110430048
0.010844286
0.0106821328
0.010818052
0.0110395957
0.0108328424
0.0106782191
0.0108074795
0.0110433635
0.0109303089
0.0106769225
0.0106565559
0.0107897523
0.0110432794
0.0108646703
0.0106852506
0.0108078099
0.0110395395
0.0109638104
0.0106814842
0.0106606112
0.0107871937
0.0110400623
0.0108808011
0.0106903476
0.0108086784
0.0110321374
0.0109538094
0.0107090622
0.0106709902
0.0106626551
0.0106814977
0.0110658739
0.0110106994
0.0108710731
0.0106819488
0.0107774974
0.0110400056
0.010877268
0.0106875779
0.0107791108
0.0110327423
0.0110475133
0.0107192256
0.010698624
0.0106786028
0.010673994
0.0106871222
0.011073714
0.0110074376
0.0108922296
0.0106860559
0.0107632193
0.0110371365
0.0110544866
0.0106875034
0.0106622299
0.0107385677
0.0110424297
0.0110510881
0.0106948874
0.0106712347
0.0107637348
0.0110352032
0.0110533926
0.0106934301
0.0106618141
0.0107365838
0.0110443161
0.0109518867
0.0106884817
0.0107487852
0.0110346808
0.0110692036
0.0106871814
0.0106596368
0.010724561
0.0110449175
0.0109601443
0.0106871493
0.0107550458
0.0110281564
0.0109373703
0.0107129412
0.0107668209
0.0108224305
0.0107186584
0.0106696383
0.0107548982
0.0110328092
0.0109474905
0.0106852484
0.0107567528
0.0110305468
0.0109132583
0.0106790901
0.0107403901
0.0110297545
0.0110691002
0.0106835575
0.0106564636
0.0107336533
0.0110372394
0.0109341294
0.0106824881
0.0107573593
0.0110282534
0.0109018454
0.0106771579
0.0107431241
0.0110253378
0.0110722663
0.0106814114
0.0106559066
0.0107400004
0.0110336754
0.0109079068
0.0106769874
0.0107394469
0.0110203273
0.0110240971
0.0106932851
0.0106622556
0.0107265726
0.0110253501
0.0110254473
0.0106930919
0.0106593632
0.0107214597
0.0110300963
0.0110667084
0.0106847474
0.010698541
0.0110240145
0.0110306053
0.0106898164
0.0106564956
0.0107228708
0.0110325277
0.0109689513
0.0106789625
0.0107414122
0.0110244288
0.0109252939
0.0106752637
0.0107293438
0.0110183816
0.0110397403
0.0106830997
0.0106546968
0.0107241391
0.0110330207
0.0109565846
0.0106774915
0.0107417094
0.011024703
0.0109200999
0.0106753921
0.010731674
0.0110170993
0.011041551
0.0106810115
0.010655315
0.0107251894
0.0110317104
0.0109593667
0.0106811427
0.0107379341
0.0110147892
0.0110403585
0.010682377
0.0106566373
0.0107325844
0.0110312463
0.0109595342
0.0106755236
0.0107363672
0.0110245407
0.0109340283
0.0106720336
0.0107352006
0.0110244773
0.0109251087
0.0106717134
0.0107273024
0.0110146797
0.0110404885
0.0106779068
0.0106557251
0.0107379049
0.0110262213
0.0109696693
0.010681001
0.0107393774
0.0110078559
0.0110329291
0.0106939859
0.0106684396
0.010669163
0.0108006031
0.0110064624
0.0110311786
0.0106876165
0.0106612261
0.0107301442
0.0110124538
0.0110235532
0.0107020286
0.0106615677
0.0107256127
0.0110109972
0.0110229951
0.0107035025
0.0106624784
0.0107281052
0.0110112609
0.0110269174
0.0106892171
0.0106607625
0.0107460081
0.0110190909
0.0109298651
0.0106913702
0.0108405545
0.0108990909
0.010685463
0.0107297875
0.0110050958
0.0110347682
0.010676027
0.0106555755
0.0107232089
0.0110230703
0.0110780899
0.010677663
0.0107197738
0.0110092122
0.0110354981
0.0106812251
0.0106581095
0.0107280481
0.0110250671
0.0110552954
0.0106728726
0.0107093024
0.0110195473
0.0110214043
0.0106732584
0.0107154902
0.0110121813
0.0110405112
0.0106744788
0.0106545195
0.0107210717
0.0110261654
0.0110619591
0.0106755228
0.010712627
0.0110192509
0.0110259466
0.0106734178
0.0107145343
0.0110123387
0.0110415005
0.0106747263
0.0106552585
0.0107188743
0.0110260941
0.0110743529
0.0106744947
0.0107088345
0.0110190693
0.0110387804
0.010673913
0.0107135624
0.0110125402
0.0110432903
0.0106731441
0.010654052
0.0107198038
0.0110257674
0.0110826879
0.0106739179
0.0107057883
0.0110197533
0.0110525255
0.0106713134
0.0107035955
0.0110208766
0.0110250486
0.0106640349
0.0106984768
0.0110085772
0.0110338186
0.0106909545
0.0106576891
0.0107085314
0.0110199411
0.0110662651
0.0106753198
0.0107102493
0.0110086215
0.0110362686
0.0106758388
)
;

boundaryField
{
    closed
    {
        type            calculated;
        value           uniform 0.0144501952;
    }
    open
    {
        type            calculated;
        value           nonuniform List<scalar> 0();
    }
    sides
    {
        type            empty;
    }
    procBoundary0to1
    {
        type            processor;
        value           uniform 0.0106546231;
    }
}


// ************************************************************************* //
