/*--------------------------------*- C++ -*----------------------------------*\
| =========                 |                                                 |
| \\      /  F ield         | OpenFOAM: The Open Source CFD Toolbox           |
|  \\    /   O peration     | Version:  2306                                  |
|   \\  /    A nd           | Website:  www.openfoam.com                      |
|    \\/     M anipulation  |                                                 |
\*---------------------------------------------------------------------------*/
FoamFile
{
    version     2.0;
    format      ascii;
    arch        "LSB;label=32;scalar=64";
    class       volScalarField;
    location    "0.00098";
    object      h;
}
// * * * * * * * * * * * * * * * * * * * * * * * * * * * * * * * * * * * * * //

dimensions      [0 2 -2 0 0 0 0];

internalField   nonuniform List<scalar> 
530
(
9509.97874
-4285.31449
-4274.94163
-3167.83465
-3539.38592
-696.605943
10459.4569
9434.8102
-3436.12127
-2339.54026
10459.7575
9421.29294
-3492.82221
-2136.55459
10375.8927
9510.90353
-4299.81542
-4298.52316
-927.508975
10561.6588
10560.4852
9501.62921
-4513.89775
-4498.85729
-3278.32446
-3666.42226
-703.270572
10525.3585
10533.6798
9533.21069
-4656.92663
-4663.29011
-898.933724
10258.125
9496.71591
-4420.68111
-4427.96756
-1011.73178
10556.9154
10572.4441
9596.83997
-4391.65614
-4384.89938
-544.225736
10301.7703
9521.6335
-4478.65183
-4461.04287
-3254.24168
-3544.24152
-566.069332
10565.1536
10584.5804
9606.91323
-4283.26818
-4268.86262
-349.16185
10363.1243
9623.42778
-4015.739
-4032.80283
-153.152708
10403.9347
9668.82269
-3957.78472
-3948.38749
-43.5488286
10423.1488
9631.44445
-3764.38906
-3776.9295
461.290655
10480.8655
9946.36197
-4036.20456
-4023.61226
-3063.43289
-3733.16536
-927.863256
10357.4492
9408.84202
-4035.54301
-1713.80197
10194.949
10497.7887
9393.56508
-5067.37178
-5365.97664
-1199.62572
10085.1329
9401.4532
-5318.4022
-5334.88569
-989.22247
10107.1549
9980.65977
10112.3327
8885.88794
-5414.4511
-5411.1598
-4394.72353
-2224.98356
10225.5426
9178.29281
-4553.73476
-3304.70168
10251.0959
9138.63706
-4432.65525
-3009.19773
10213.8101
9347.69912
-5058.40554
-5042.10933
-1996.60365
10466.4195
10492.0446
9478.94984
-4902.00123
-4906.55947
-1495.82987
10184.3131
9478.41877
-4933.57406
-4951.32698
-1895.35866
10216.967
9303.29894
-4364.0121
-2844.99348
10174.7975
9383.06619
-5577.30739
-5574.75367
-2512.60713
10082.5782
9215.62813
-4748.38686
-3646.10845
10217.6141
9080.68324
-4694.09467
-3729.61319
10225.7742
9108.71039
-4655.80348
-3600.35114
10247.6746
9179.22777
-4476.40883
-3357.34378
10293.9998
9282.61743
-4218.62997
-2934.00708
10288.0616
9495.6328
-4640.71263
-4645.2134
-2020.34819
10503.8038
10516.6785
9578.28457
-4798.27909
-4789.19168
-3734.51195
-4277.93144
-2080.14635
10298.1951
9429.7717
-4092.40109
-3155.28596
10358.0237
9364.1102
-4014.48082
-3113.00134
10360.997
9406.6277
-4063.93581
-2900.89944
10297.922
9609.26658
-4720.72352
-4731.09762
-1655.30337
10296.7313
10298.469
10312.7769
9698.67988
-4755.38538
-4784.37397
-3610.335
-4430.18074
-2043.89977
10182.8563
9611.07909
-5284.92867
-5289.67126
-2873.64808
10156.2014
9367.82295
-4744.84621
-3629.4507
10196.6424
9382.34071
-4981.58126
-2913.89915
9945.13025
10468.8121
9159.02049
-4090.27466
-3663.31482
10330.3542
9545.9609
-4568.65977
-2071.6505
9473.85484
-3069.56094
-2912.50127
10510.0372
9736.061
-3741.94358
-3751.75196
-3266.19011
-1865.2153
10460.7199
9894.01349
-3974.58671
-3988.0556
-2139.20349
10412.3542
9783.17444
-3490.78448
-2570.62227
10421.4533
9885.30918
-4197.10466
-4209.46619
-2321.41533
10333.0775
10008.256
-4438.6886
-4621.33847
-2372.8384
10428.9653
10597.919
9755.98712
-3912.19395
-5668.23629
-1286.74924
9420.28311
-3694.11
-3442.88369
10363.2254
10152.3428
10294.7712
9711.52109
-5114.78429
-5211.90779
-4148.96107
-4684.96442
-2950.97755
10441.7565
10463.1304
9919.53748
-4397.18512
-4550.97698
-2534.04997
10282.8738
10036.5337
-4568.02475
-4673.40699
-2849.46091
10403.7811
10451.7764
9854.93596
-4670.78963
-5053.03767
-3077.9024
10250.505
9737.2288
-4199.9453
-3361.82909
10318.0828
9989.17918
-4666.65872
-4668.9922
-2978.65969
10321.2524
9834.86523
-3844.58403
-3246.02133
10400.2835
9980.10097
-4275.68414
-5055.34417
-2666.58282
10246.1945
10490.8816
9802.01849
-4627.71632
-5138.73124
-4405.16459
-3720.18423
10326.4306
9744.7936
-4179.85759
-3646.27313
10367.0822
9816.83294
-4017.80393
-3367.95548
10372.9053
10039.8471
-4273.40848
-4724.78629
-2777.98576
10382.2888
10609.4248
9878.06687
-3219.04794
-2995.44005
10507.441
10049.4813
-3686.53683
-3681.00213
-3448.40822
-2736.30825
10525.3277
10129.9928
-3407.52352
-4705.79032
-1307.24642
10042.562
-3250.84801
-3251.87769
10520.3859
10042.0803
-3690.92172
-2217.01811
10075.2905
-3063.56652
-3298.3453
10524.316
10081.4645
-3945.04477
-4640.04615
-3151.62794
10308.9206
10024.3101
-4191.4185
-5402.04104
-2651.77094
10039.2188
10534.6198
9843.69044
-4059.07232
-4026.54062
10380.8832
9844.63773
-4167.91777
-3754.44504
10319.7498
10032.9111
-4582.14335
-4928.65225
-3567.09821
10304.3802
9960.5272
-3835.38168
-3403.784
10429.9341
10163.3873
-3876.13605
-4194.40518
-2877.03038
10420.9114
10252.0643
-3577.26906
-3902.70112
-2641.32043
10464.3487
10320.7346
-3416.63106
-3556.25108
-2674.49535
10611.4642
10232.629
-2284.83573
-4388.47143
-639.665285
10139.7271
-1983.94948
-3405.94049
10696.8383
10216.3173
-3090.05445
-3759.66978
-2558.52785
10579.8169
10368.731
-2345.43285
-3500.99433
-2302.08992
10527.1859
10388.0093
-3167.0763
-3578.48579
-2705.28313
10516.7914
10333.0844
-3228.63746
-3729.90885
-2812.39737
10483.3407
10305.5593
-3393.62066
-3915.24409
-3021.12627
10437.4531
10256.2397
-3642.6563
-4183.73092
-3297.22757
10398.3127
10141.2745
-3707.0075
-3448.28779
10430.2433
10195.0375
-3882.67191
-4446.32638
-3548.99421
10362.6799
10116.6957
-3811.30242
-3598.26738
10414.2542
10183.1602
-3912.67598
-4507.6301
-3619.52124
10356.0298
10129.3076
-3831.83752
-3628.93779
10409.4764
10187.4935
-3910.76663
-4526.80536
-3671.09839
10349.3743
10137.01
-3865.61866
-3700.67157
10396.8742
10174.7527
-3954.28056
-4654.36169
-3795.54762
10316.5919
10126.157
-4073.3253
-3897.9059
10343.0228
10125.738
-4209.78324
-4987.50447
-4133.88586
10263.6014
10039.1038
-4169.90722
-4134.99997
10324.1873
10064.7149
-4190.42011
-3981.62857
10301.3917
10102.7312
-4215.89218
-3969.1402
10317.6712
10143.4559
-4150.56929
-4843.73691
-4068.37399
10321.1445
10111.8745
-3742.97164
-3753.26664
10425.922
10206.7659
-3558.74882
-3320.5777
10422.7723
10307.905
-3619.99049
-3597.52709
-4260.73175
-3112.93804
10100.1432
-3483.04537
-4328.3831
10386.5628
10056.8639
-4124.72173
-4049.96474
10234.856
10125.4034
-4627.66891
-3629.6383
10009.2413
10622.2742
9825.92043
-2465.01654
-5775.36353
-2906.05927
9958.84806
-3708.96935
-4121.9802
10168.8837
10453.8683
10021.846
-3501.91856
-4844.20805
-3825.98772
10312.5914
10226.4773
-3602.00554
-4376.55192
)
;

boundaryField
{
    closed
    {
        type            lookUpEnthalpy;
        h0              nonuniform List<scalar> 0();
        value           nonuniform List<scalar> 0();
    }
    open
    {
        type            zeroGradient;
    }
    sides
    {
        type            empty;
    }
    procBoundary2to1
    {
        type            processor;
        value           uniform 10329.591;
    }
    procBoundary2to3
    {
        type            processor;
        value           uniform -3807.00044;
    }
}


// ************************************************************************* //
