/*--------------------------------*- C++ -*----------------------------------*\
| =========                 |                                                 |
| \\      /  F ield         | OpenFOAM: The Open Source CFD Toolbox           |
|  \\    /   O peration     | Version:  2306                                  |
|   \\  /    A nd           | Website:  www.openfoam.com                      |
|    \\/     M anipulation  |                                                 |
\*---------------------------------------------------------------------------*/
FoamFile
{
    version     2.0;
    format      ascii;
    arch        "LSB;label=32;scalar=64";
    class       volScalarField;
    location    "0.00098";
    object      prefDZ_H2O;
}
// * * * * * * * * * * * * * * * * * * * * * * * * * * * * * * * * * * * * * //

dimensions      [1 -1 -1 0 0 0 0];

internalField   nonuniform List<scalar> 
530
(
-7.75717431e-07
-7.35917597e-07
-7.36083804e-07
-7.37544261e-07
-7.37109001e-07
-7.42749553e-07
-7.7333939e-07
-7.7566603e-07
-7.37109814e-07
-7.38872923e-07
-7.73188741e-07
-7.75844167e-07
-7.36961472e-07
-7.39331493e-07
-7.73312971e-07
-7.75769127e-07
-7.35710902e-07
-7.36103895e-07
-7.42157616e-07
-7.73349838e-07
-7.73070596e-07
-7.75721186e-07
-7.35475697e-07
-7.35714909e-07
-7.3729824e-07
-7.36910226e-07
-7.42742005e-07
-7.73291718e-07
-7.73103374e-07
-7.7555294e-07
-7.35254522e-07
-7.35465186e-07
-7.42228388e-07
-7.73865788e-07
-7.7559734e-07
-7.35666187e-07
-7.35789806e-07
-7.41941869e-07
-7.73219888e-07
-7.73139283e-07
-7.75383405e-07
-7.35735317e-07
-7.35899961e-07
-7.43138141e-07
-7.73811998e-07
-7.75579256e-07
-7.35606459e-07
-7.35766525e-07
-7.3738942e-07
-7.37096877e-07
-7.43096376e-07
-7.73224764e-07
-7.73058203e-07
-7.75346054e-07
-7.35874968e-07
-7.36085603e-07
-7.43654842e-07
-7.7372127e-07
-7.75376588e-07
-7.36354679e-07
-7.3645219e-07
-7.44161084e-07
-7.736377e-07
-7.75276239e-07
-7.36437302e-07
-7.36615193e-07
-7.44468193e-07
-7.73638027e-07
-7.75345444e-07
-7.36749483e-07
-7.3682518e-07
-7.45857933e-07
-7.73511213e-07
-7.74592215e-07
-7.36360102e-07
-7.36436502e-07
-7.37700504e-07
-7.36851708e-07
-7.42154592e-07
-7.73661511e-07
-7.75653746e-07
-7.36347625e-07
-7.40240723e-07
-7.74014815e-07
-7.73446185e-07
-7.75879964e-07
-7.34808064e-07
-7.34458186e-07
-7.41492368e-07
-7.74351563e-07
-7.76014556e-07
-7.34372707e-07
-7.34556198e-07
-7.42004877e-07
-7.74426551e-07
-7.74760357e-07
-7.74449261e-07
-7.77290621e-07
-7.34345804e-07
-7.34441662e-07
-7.35918044e-07
-7.3916616e-07
-7.73990441e-07
-7.76529585e-07
-7.35547644e-07
-7.37683407e-07
-7.73880385e-07
-7.76771318e-07
-7.35719744e-07
-7.38215267e-07
-7.73946223e-07
-7.76391721e-07
-7.34728031e-07
-7.35150335e-07
-7.39564064e-07
-7.7380291e-07
-7.73433634e-07
-7.75988937e-07
-7.35051306e-07
-7.35329018e-07
-7.4079051e-07
-7.74354028e-07
-7.75934487e-07
-7.35092197e-07
-7.35212839e-07
-7.39880047e-07
-7.74205109e-07
-7.7628842e-07
-7.35946536e-07
-7.38402382e-07
-7.74150074e-07
-7.76289132e-07
-7.33989667e-07
-7.34292765e-07
-7.38599169e-07
-7.74513327e-07
-7.76405025e-07
-7.35353959e-07
-7.37132976e-07
-7.74056247e-07
-7.76873818e-07
-7.35344096e-07
-7.37092608e-07
-7.7394461e-07
-7.7687451e-07
-7.35356628e-07
-7.37316408e-07
-7.73845828e-07
-7.76731391e-07
-7.35606829e-07
-7.37690258e-07
-7.73722451e-07
-7.76488783e-07
-7.35996053e-07
-7.38329528e-07
-7.73721499e-07
-7.76067579e-07
-7.35313848e-07
-7.35733268e-07
-7.3948926e-07
-7.73674424e-07
-7.73335292e-07
-7.75742137e-07
-7.35163767e-07
-7.354265e-07
-7.36749308e-07
-7.36169853e-07
-7.3937866e-07
-7.73935872e-07
-7.75824936e-07
-7.36315824e-07
-7.37822321e-07
-7.73719591e-07
-7.76165893e-07
-7.36373524e-07
-7.37977172e-07
-7.73642942e-07
-7.76121598e-07
-7.36259639e-07
-7.38305829e-07
-7.73715999e-07
-7.75714997e-07
-7.35193786e-07
-7.35545931e-07
-7.40352948e-07
-7.74026462e-07
-7.73866519e-07
-7.74001187e-07
-7.75286837e-07
-7.35354133e-07
-7.35367745e-07
-7.36998271e-07
-7.35897035e-07
-7.39476495e-07
-7.74144315e-07
-7.75506894e-07
-7.34436396e-07
-7.34573903e-07
-7.38058132e-07
-7.7418685e-07
-7.75997622e-07
-7.35265255e-07
-7.37068644e-07
-7.74010009e-07
-7.76000054e-07
-7.34904744e-07
-7.38036139e-07
-7.74628563e-07
-7.73467668e-07
-7.76475695e-07
-7.36226801e-07
-7.37022603e-07
-7.73733681e-07
-7.75620899e-07
-7.35583451e-07
-7.39435789e-07
-7.75663539e-07
-7.37816286e-07
-7.38083483e-07
-7.73345655e-07
-7.75212588e-07
-7.36751219e-07
-7.3685618e-07
-7.37483262e-07
-7.39911488e-07
-7.73325297e-07
-7.74890503e-07
-7.36287173e-07
-7.36591939e-07
-7.39199292e-07
-7.7363168e-07
-7.74922379e-07
-7.3717522e-07
-7.38560879e-07
-7.73481683e-07
-7.74898838e-07
-7.35997903e-07
-7.36217376e-07
-7.38777935e-07
-7.73765804e-07
-7.74400275e-07
-7.35695078e-07
-7.35494412e-07
-7.38706676e-07
-7.73473832e-07
-7.73130158e-07
-7.75051912e-07
-7.36470829e-07
-7.34034201e-07
-7.4125483e-07
-7.7598236e-07
-7.36776305e-07
-7.37323506e-07
-7.7357184e-07
-7.74336594e-07
-7.73817245e-07
-7.75346969e-07
-7.34678776e-07
-7.34699625e-07
-7.36103062e-07
-7.35460883e-07
-7.37836824e-07
-7.73577607e-07
-7.73436712e-07
-7.74762982e-07
-7.35760534e-07
-7.35716836e-07
-7.38485157e-07
-7.73950564e-07
-7.74398055e-07
-7.35550343e-07
-7.35433619e-07
-7.38048589e-07
-7.73566133e-07
-7.73480198e-07
-7.74822307e-07
-7.353412e-07
-7.34883009e-07
-7.37698041e-07
-7.73944191e-07
-7.75097522e-07
-7.36078074e-07
-7.3740896e-07
-7.73706778e-07
-7.74660498e-07
-7.35322066e-07
-7.35533792e-07
-7.37841339e-07
-7.73873925e-07
-7.74905523e-07
-7.36677139e-07
-7.3759834e-07
-7.73611007e-07
-7.74666302e-07
-7.35956526e-07
-7.34912576e-07
-7.38329276e-07
-7.73897136e-07
-7.73466366e-07
-7.74903557e-07
-7.35479365e-07
-7.34691352e-07
-7.35799269e-07
-7.36806752e-07
-7.73699069e-07
-7.75152462e-07
-7.3604605e-07
-7.3701678e-07
-7.73510289e-07
-7.75044527e-07
-7.36241204e-07
-7.37419903e-07
-7.73450565e-07
-7.74481662e-07
-7.3583393e-07
-7.35349602e-07
-7.38043401e-07
-7.7352276e-07
-7.73041118e-07
-7.74708309e-07
-7.37475662e-07
-7.37905117e-07
-7.73183142e-07
-7.7446602e-07
-7.36719958e-07
-7.36910763e-07
-7.37101181e-07
-7.38218261e-07
-7.73096006e-07
-7.74165019e-07
-7.37112076e-07
-7.35365239e-07
-7.41195171e-07
-7.74261113e-07
-7.37403169e-07
-7.37477605e-07
-7.7309225e-07
-7.74444954e-07
-7.3667453e-07
-7.391112e-07
-7.74029683e-07
-7.37842877e-07
-7.37271097e-07
-7.73277961e-07
-7.7419303e-07
-7.36391926e-07
-7.35432676e-07
-7.37520616e-07
-7.73707885e-07
-7.74360439e-07
-7.36015506e-07
-7.34275835e-07
-7.38250267e-07
-7.74196853e-07
-7.73251171e-07
-7.74744585e-07
-7.36264295e-07
-7.36324284e-07
-7.73497605e-07
-7.74926415e-07
-7.35997506e-07
-7.36809023e-07
-7.73516595e-07
-7.74533004e-07
-7.35335747e-07
-7.35079763e-07
-7.36840206e-07
-7.7382958e-07
-7.74496947e-07
-7.36623962e-07
-7.37235966e-07
-7.73418886e-07
-7.74137162e-07
-7.36488493e-07
-7.36148541e-07
-7.37938551e-07
-7.73483463e-07
-7.73896296e-07
-7.36946269e-07
-7.36583677e-07
-7.38257715e-07
-7.73387771e-07
-7.7367151e-07
-7.37199449e-07
-7.37023745e-07
-7.38233018e-07
-7.72929765e-07
-7.73867453e-07
-7.38840899e-07
-7.35785622e-07
-7.42909365e-07
-7.73979365e-07
-7.39544585e-07
-7.37166458e-07
-7.7259574e-07
-7.73899814e-07
-7.37480115e-07
-7.36724051e-07
-7.38231314e-07
-7.7298186e-07
-7.73416082e-07
-7.38694849e-07
-7.37038825e-07
-7.3877908e-07
-7.73033584e-07
-7.73427204e-07
-7.37427632e-07
-7.36941115e-07
-7.38061311e-07
-7.73097991e-07
-7.73545303e-07
-7.37367318e-07
-7.36723056e-07
-7.3793398e-07
-7.73189649e-07
-7.73639093e-07
-7.37140157e-07
-7.36455111e-07
-7.37652629e-07
-7.73290337e-07
-7.7379437e-07
-7.36755533e-07
-7.3608969e-07
-7.37229996e-07
-7.73454388e-07
-7.74089698e-07
-7.36700189e-07
-7.37140999e-07
-7.73247413e-07
-7.74033663e-07
-7.36374286e-07
-7.35745408e-07
-7.36856587e-07
-7.73610711e-07
-7.74153521e-07
-7.36597272e-07
-7.36931876e-07
-7.73351129e-07
-7.74083468e-07
-7.36375137e-07
-7.35671147e-07
-7.36794774e-07
-7.73657595e-07
-7.74172718e-07
-7.36589781e-07
-7.36923752e-07
-7.73389615e-07
-7.74123472e-07
-7.36397377e-07
-7.3567606e-07
-7.36737142e-07
-7.73720673e-07
-7.74171621e-07
-7.36573944e-07
-7.3683004e-07
-7.73460973e-07
-7.74163365e-07
-7.36365825e-07
-7.35486174e-07
-7.36585431e-07
-7.73794546e-07
-7.74232733e-07
-7.36254677e-07
-7.36561131e-07
-7.73554053e-07
-7.74307261e-07
-7.35959519e-07
-7.34996048e-07
-7.36050037e-07
-7.739514e-07
-7.74345533e-07
-7.36155517e-07
-7.3614769e-07
-7.73690174e-07
-7.74361147e-07
-7.36062114e-07
-7.36424542e-07
-7.73653155e-07
-7.74356129e-07
-7.35963321e-07
-7.36499769e-07
-7.73519731e-07
-7.74307268e-07
-7.36010167e-07
-7.35240977e-07
-7.36124034e-07
-7.73850169e-07
-7.74149424e-07
-7.3682021e-07
-7.36732752e-07
-7.7347142e-07
-7.7406545e-07
-7.37019277e-07
-7.37463153e-07
-7.73371715e-07
-7.73976421e-07
-7.3688016e-07
-7.37147675e-07
-7.35921508e-07
-7.37833094e-07
-7.73949806e-07
-7.37300309e-07
-7.35782255e-07
-7.73626249e-07
-7.7429797e-07
-7.36203983e-07
-7.36286574e-07
-7.73823245e-07
-7.74207429e-07
-7.35398389e-07
-7.36902577e-07
-7.74272045e-07
-7.73120166e-07
-7.74733719e-07
-7.38638178e-07
-7.33724724e-07
-7.37926468e-07
-7.74375108e-07
-7.36778153e-07
-7.36145298e-07
-7.73859895e-07
-7.73486471e-07
-7.74316165e-07
-7.37104915e-07
-7.35135019e-07
-7.36565321e-07
-7.73658336e-07
-7.73951914e-07
-7.36913147e-07
-7.35844531e-07
)
;

boundaryField
{
    closed
    {
        type            calculated;
        value           nonuniform List<scalar> 0();
    }
    open
    {
        type            calculated;
        value           nonuniform List<scalar> 0();
    }
    sides
    {
        type            empty;
    }
    procBoundary2to1
    {
        type            processor;
        value           uniform -7.73773047e-07;
    }
    procBoundary2to3
    {
        type            processor;
        value           uniform -7.36576794e-07;
    }
}


// ************************************************************************* //
