/*--------------------------------*- C++ -*----------------------------------*\
| =========                 |                                                 |
| \\      /  F ield         | OpenFOAM: The Open Source CFD Toolbox           |
|  \\    /   O peration     | Version:  2306                                  |
|   \\  /    A nd           | Website:  www.openfoam.com                      |
|    \\/     M anipulation  |                                                 |
\*---------------------------------------------------------------------------*/
FoamFile
{
    version     2.0;
    format      ascii;
    arch        "LSB;label=32;scalar=64";
    class       volScalarField;
    location    "0.00118";
    object      prefDZ_T;
}
// * * * * * * * * * * * * * * * * * * * * * * * * * * * * * * * * * * * * * //

dimensions      [1 -1 -1 -1 0 0 0];

internalField   nonuniform List<scalar> 
531
(
-1.18930985e-09
-1.18920549e-09
-1.2282374e-09
-1.22686799e-09
-1.18881787e-09
-1.18734062e-09
-1.19024127e-09
-1.22809786e-09
-1.22631615e-09
-1.18925912e-09
-1.18741468e-09
-1.18988478e-09
-1.22801265e-09
-1.22591666e-09
-1.18981398e-09
-1.18947039e-09
-1.22834997e-09
-1.22674634e-09
-1.18839992e-09
-1.18698988e-09
-1.18841577e-09
-1.18723962e-09
-1.19007487e-09
-1.22798133e-09
-1.22604853e-09
-1.2262694e-09
-1.22629226e-09
-1.20132247e-09
-1.1874378e-09
-1.18951679e-09
-1.2284683e-09
-1.22686595e-09
-1.18765514e-09
-1.18544413e-09
-1.18766098e-09
-1.2290884e-09
-1.22699485e-09
-1.18810767e-09
-1.18720898e-09
-1.22995546e-09
-1.22729992e-09
-1.18786314e-09
-1.18746356e-09
-1.23015808e-09
-1.22799455e-09
-1.22816486e-09
-1.22810744e-09
-1.18715436e-09
-1.18628204e-09
-1.23049323e-09
-1.2281393e-09
-1.18768851e-09
-1.18553646e-09
-1.18781527e-09
-1.2291046e-09
-1.22661006e-09
-1.18932237e-09
-1.18835288e-09
-1.22917043e-09
-1.22646559e-09
-1.19008557e-09
-1.18933616e-09
-1.22901989e-09
-1.2266291e-09
-1.18937605e-09
-1.18862999e-09
-1.18831483e-09
-1.18936357e-09
-1.22803398e-09
-1.2270261e-09
-1.18903531e-09
-1.1868728e-09
-1.18836117e-09
-1.22879848e-09
-1.2264893e-09
-1.18888119e-09
-1.18786186e-09
-1.22971864e-09
-1.22675799e-09
-1.18840388e-09
-1.18784044e-09
-1.22973618e-09
-1.22714346e-09
-1.22745389e-09
-1.22720027e-09
-1.18845614e-09
-1.18767919e-09
-1.23001605e-09
-1.2275226e-09
-1.18830217e-09
-1.18653753e-09
-1.18805951e-09
-1.18646775e-09
-1.18891311e-09
-1.2291037e-09
-1.22617977e-09
-1.22708589e-09
-1.18986973e-09
-1.18831771e-09
-1.22922242e-09
-1.22718629e-09
-1.18953818e-09
-1.18725944e-09
-1.18866551e-09
-1.22862229e-09
-1.22622227e-09
-1.18952273e-09
-1.18866299e-09
-1.22923701e-09
-1.22704401e-09
-1.18904332e-09
-1.1864543e-09
-1.18786979e-09
-1.22899245e-09
-1.2266104e-09
-1.18858068e-09
-1.18748638e-09
-1.23011353e-09
-1.22692089e-09
-1.18812122e-09
-1.18718459e-09
-1.23037329e-09
-1.22732373e-09
-1.22786223e-09
-1.22737806e-09
-1.1876673e-09
-1.18640232e-09
-1.23043239e-09
-1.22781371e-09
-1.18847404e-09
-1.18563193e-09
-1.18748403e-09
-1.22901679e-09
-1.22726156e-09
-1.1886966e-09
-1.18620144e-09
-1.18762867e-09
-1.22872614e-09
-1.22649579e-09
-1.18914261e-09
-1.18802648e-09
-1.2294813e-09
-1.22632187e-09
-1.18979031e-09
-1.18859341e-09
-1.22915609e-09
-1.22620376e-09
-1.18999198e-09
-1.18926389e-09
-1.22867972e-09
-1.22668802e-09
-1.1903174e-09
-1.18801964e-09
-1.1889743e-09
-1.2282295e-09
-1.22581574e-09
-1.18985986e-09
-1.18837081e-09
-1.18812462e-09
-1.18812428e-09
-1.22798479e-09
-1.2255425e-09
-1.18947511e-09
-1.1917291e-09
-1.2273126e-09
-1.1929269e-09
-1.18877038e-09
-1.22857142e-09
-1.22598686e-09
-1.19037883e-09
-1.18916238e-09
-1.22857304e-09
-1.22646028e-09
-1.190791e-09
-1.18770736e-09
-1.18846067e-09
-1.22769479e-09
-1.22644886e-09
-1.19066373e-09
-1.18750858e-09
-1.18821058e-09
-1.22792037e-09
-1.22607715e-09
-1.19007592e-09
-1.18893698e-09
-1.22861518e-09
-1.22654269e-09
-1.19097466e-09
-1.18759642e-09
-1.18809346e-09
-1.22798211e-09
-1.22597784e-09
-1.19033843e-09
-1.18894228e-09
-1.228626e-09
-1.22636958e-09
-1.19189248e-09
-1.18777188e-09
-1.18858041e-09
-1.22748328e-09
-1.22647078e-09
-1.19191535e-09
-1.18791905e-09
-1.18823301e-09
-1.22781129e-09
-1.22588053e-09
-1.19083273e-09
-1.18941489e-09
-1.22856743e-09
-1.22592924e-09
-1.19170623e-09
-1.18890944e-09
-1.18862537e-09
-1.18832506e-09
-1.22886421e-09
-1.22619872e-09
-1.19088275e-09
-1.18937813e-09
-1.22855547e-09
-1.2264937e-09
-1.19280326e-09
-1.18804924e-09
-1.18838885e-09
-1.22767831e-09
-1.22659435e-09
-1.19309159e-09
-1.1877365e-09
-1.18812202e-09
-1.22759866e-09
-1.22693836e-09
-1.19243082e-09
-1.18746775e-09
-1.18752002e-09
-1.22817218e-09
-1.22643077e-09
-1.19068397e-09
-1.18901409e-09
-1.22878826e-09
-1.22678384e-09
-1.19239885e-09
-1.18730895e-09
-1.18751476e-09
-1.22797057e-09
-1.22732136e-09
-1.19181712e-09
-1.18681426e-09
-1.18652912e-09
-1.22879189e-09
-1.22682084e-09
-1.19016603e-09
-1.18793625e-09
-1.22998293e-09
-1.22647738e-09
-1.19003023e-09
-1.18793292e-09
-1.23013052e-09
-1.22638882e-09
-1.19004474e-09
-1.18847321e-09
-1.22994521e-09
-1.22615278e-09
-1.19043707e-09
-1.19021259e-09
-1.22955442e-09
-1.19284772e-09
-1.18777183e-09
-1.2303927e-09
-1.22618712e-09
-1.22767256e-09
-1.19123032e-09
-1.18522296e-09
-1.18681118e-09
-1.22868369e-09
-1.2274106e-09
-1.19407722e-09
-1.18647963e-09
-1.18994753e-09
-1.22908449e-09
-1.19697757e-09
-1.18756367e-09
-1.2296839e-09
-1.22669845e-09
-1.1907698e-09
-1.18899329e-09
-1.22958062e-09
-1.22613148e-09
-1.20013027e-09
-1.19000592e-09
-1.18787314e-09
-1.18858372e-09
-1.22962872e-09
-1.22662611e-09
-1.22806636e-09
-1.18914001e-09
-1.18648368e-09
-1.23226161e-09
-1.22655487e-09
-1.22850404e-09
-1.19927377e-09
-1.1884474e-09
-1.18720327e-09
-1.18731246e-09
-1.23057947e-09
-1.22775019e-09
-1.19671898e-09
-1.18787795e-09
-1.18755865e-09
-1.22915989e-09
-1.22716155e-09
-1.19058016e-09
-1.18731014e-09
-1.23053467e-09
-1.2274945e-09
-1.19950922e-09
-1.18680556e-09
-1.18672369e-09
-1.23003268e-09
-1.2275971e-09
-1.19974359e-09
-1.18823894e-09
-1.18785678e-09
-1.23011533e-09
-1.2270615e-09
-1.19155374e-09
-1.18845973e-09
-1.23049954e-09
-1.22749542e-09
-1.20058605e-09
-1.18692328e-09
-1.18671461e-09
-1.23107598e-09
-1.22784082e-09
-1.21076305e-09
-1.18726036e-09
-1.18713866e-09
-1.2315369e-09
-1.22785009e-09
-1.20847453e-09
-1.18734091e-09
-1.18716229e-09
-1.23137107e-09
-1.22785217e-09
-1.20775451e-09
-1.18721413e-09
-1.18710679e-09
-1.23170669e-09
-1.22810852e-09
-1.21257186e-09
-1.18693293e-09
-1.18642388e-09
-1.23432075e-09
-1.22673287e-09
-1.23167356e-09
-1.19248967e-09
-1.1869896e-09
-1.18633266e-09
-1.22988893e-09
-1.22761901e-09
-1.20143337e-09
-1.18792258e-09
-1.18767933e-09
-1.23038507e-09
-1.2274015e-09
-1.20009234e-09
-1.1877942e-09
-1.187685e-09
-1.23041587e-09
-1.22773817e-09
-1.19967427e-09
-1.18758431e-09
-1.18703316e-09
-1.23128027e-09
-1.22724408e-09
-1.19139962e-09
-1.18832611e-09
-1.23230248e-09
-1.22739946e-09
-1.18908542e-09
-1.18632739e-09
-1.23442831e-09
-1.2281332e-09
-1.22981819e-09
-1.22803643e-09
-1.19949751e-09
-1.18780016e-09
-1.1883593e-09
-1.18533494e-09
-1.18511191e-09
-1.23260424e-09
-1.22725525e-09
-1.22812672e-09
-1.19252569e-09
-1.1884295e-09
-1.23129603e-09
-1.22712922e-09
-1.19129933e-09
-1.18879193e-09
-1.23090725e-09
-1.22758466e-09
-1.19791939e-09
-1.18671841e-09
-1.18626531e-09
-1.23133115e-09
-1.22736352e-09
-1.19132195e-09
-1.188332e-09
-1.23095708e-09
-1.22755831e-09
-1.19813837e-09
-1.1867566e-09
-1.18637709e-09
-1.23148311e-09
-1.22742972e-09
-1.19171836e-09
-1.18803061e-09
-1.23170147e-09
-1.22697774e-09
-1.19086136e-09
-1.18887094e-09
-1.23118412e-09
-1.22746487e-09
-1.20241076e-09
-1.18692237e-09
-1.18667876e-09
-1.23126978e-09
-1.22850906e-09
-1.19627985e-09
-1.18412121e-09
-1.18397032e-09
-1.23232345e-09
-1.22752215e-09
-1.22795849e-09
-1.19186167e-09
-1.18877283e-09
-1.2313079e-09
-1.22796327e-09
-1.20733753e-09
-1.18658943e-09
-1.18642688e-09
-1.23309822e-09
-1.22938198e-09
-1.22934538e-09
-1.22880198e-09
-1.19109556e-09
-1.18588063e-09
-1.18561383e-09
-1.23087949e-09
-1.22844863e-09
-1.20167377e-09
-1.18640194e-09
-1.1862401e-09
-1.23128162e-09
-1.22828738e-09
-1.20620973e-09
-1.18655559e-09
-1.18623621e-09
-1.23163054e-09
-1.22764075e-09
-1.19124681e-09
-1.18849772e-09
-1.23134311e-09
-1.22768823e-09
-1.20717176e-09
-1.18680206e-09
-1.18650703e-09
-1.23159417e-09
-1.22754158e-09
-1.19099508e-09
-1.18849863e-09
-1.23127606e-09
-1.22770048e-09
-1.20814574e-09
-1.18681979e-09
-1.18639458e-09
-1.23169162e-09
-1.22711123e-09
-1.19131565e-09
-1.18879073e-09
-1.23142319e-09
-1.22625273e-09
-1.19151256e-09
-1.18998633e-09
-1.23371931e-09
-1.22565461e-09
-1.23296625e-09
-1.19652055e-09
-1.18912985e-09
-1.18894633e-09
-1.18631756e-09
-1.18569745e-09
-1.23197022e-09
-1.22774657e-09
-1.19128436e-09
-1.18872443e-09
-1.23123494e-09
-1.2272725e-09
-1.20842306e-09
-1.18757705e-09
-1.18678446e-09
-1.20400992e-09
-1.22861503e-09
-1.22608952e-09
-1.22646762e-09
-1.19056261e-09
-1.18632747e-09
-1.23093941e-09
-1.22848317e-09
-1.20194519e-09
-1.18572585e-09
-1.18541694e-09
-1.2313579e-09
-1.2275987e-09
-1.19124026e-09
-1.18930163e-09
-1.2316678e-09
-1.22665761e-09
-1.21511368e-09
-1.19074522e-09
-1.18992948e-09
-1.1852655e-09
-1.18510953e-09
-1.23183171e-09
-1.2281901e-09
-1.19064716e-09
-1.18728248e-09
-1.21379119e-09
-1.22827139e-09
-1.22702211e-09
-1.22709671e-09
-1.19331251e-09
-1.18807377e-09
)
;

boundaryField
{
    closed
    {
        type            calculated;
        value           nonuniform List<scalar> 0();
    }
    open
    {
        type            calculated;
        value           nonuniform List<scalar> 0();
    }
    sides
    {
        type            empty;
    }
    procBoundary1to0
    {
        type            processor;
        value           uniform -1.22648443e-09;
    }
    procBoundary1to2
    {
        type            processor;
        value           uniform -1.23080088e-09;
    }
}


// ************************************************************************* //
