/*--------------------------------*- C++ -*----------------------------------*\
| =========                 |                                                 |
| \\      /  F ield         | OpenFOAM: The Open Source CFD Toolbox           |
|  \\    /   O peration     | Version:  2306                                  |
|   \\  /    A nd           | Website:  www.openfoam.com                      |
|    \\/     M anipulation  |                                                 |
\*---------------------------------------------------------------------------*/
FoamFile
{
    version     2.0;
    format      ascii;
    arch        "LSB;label=32;scalar=64";
    class       volScalarField;
    location    "0.00118";
    object      PV;
}
// * * * * * * * * * * * * * * * * * * * * * * * * * * * * * * * * * * * * * //

dimensions      [0 0 0 0 0 0 0];

internalField   nonuniform List<scalar> 
531
(
-0.00716409525
-0.00716702889
-0.00694918756
-0.00694772049
-0.00716256162
-0.00718977595
-0.0071519548
-0.00694972079
-0.00694448403
-0.0071614928
-0.00718588544
-0.00715673428
-0.0069496993
-0.00694317247
-0.00716109678
-0.00716239384
-0.00694979608
-0.00694581277
-0.00716812361
-0.00718853825
-0.00716972516
-0.00718735868
-0.00715624275
-0.00694849033
-0.00694537222
-0.00694573984
-0.00694551635
-0.0070866469
-0.00718516477
-0.00716060182
-0.00694920012
-0.00694599096
-0.00717657364
-0.00720578715
-0.00717977666
-0.00695236709
-0.00694513822
-0.00718114566
-0.00718482669
-0.00695574344
-0.00694748801
-0.00718347213
-0.00718716222
-0.00695575219
-0.00694967145
-0.0069511966
-0.00694789071
-0.00718694757
-0.00719875623
-0.00695485928
-0.00695116079
-0.00717803276
-0.00721065211
-0.00717789181
-0.00695387616
-0.00694411222
-0.00716938389
-0.00717148381
-0.00695430466
-0.00694478689
-0.00716024445
-0.00716486412
-0.00695257966
-0.00694587935
-0.00716159638
-0.00717385995
-0.00717555292
-0.00716874782
-0.00694800963
-0.00694778017
-0.0071602998
-0.00719450165
-0.00717073223
-0.00695239932
-0.00694377236
-0.00717196887
-0.00717574014
-0.0069549558
-0.00694551817
-0.00717485426
-0.00717913715
-0.0069544017
-0.0069474199
-0.00694902138
-0.00694630547
-0.00717170727
-0.00718296891
-0.00695387017
-0.00694910262
-0.0071699961
-0.00719749009
-0.0071741853
-0.00719837332
-0.00716921316
-0.00695114464
-0.00694642722
-0.00694635828
-0.00715716508
-0.00717656961
-0.00695236833
-0.00694874451
-0.00715610974
-0.0071922657
-0.0071678471
-0.00695289345
-0.00694471994
-0.00716533665
-0.00717071094
-0.00695331959
-0.00694787794
-0.00716227312
-0.00719821598
-0.00717651772
-0.00695341447
-0.00694517817
-0.00717594945
-0.00718033078
-0.00695687751
-0.0069468551
-0.00717956419
-0.00718563103
-0.00695666706
-0.00694793944
-0.00695032212
-0.00694702019
-0.0071801807
-0.00719402252
-0.00695509009
-0.00694942673
-0.00717010453
-0.00720598953
-0.00718320329
-0.0069510833
-0.00694716395
-0.00716590356
-0.00719782887
-0.00717871486
-0.00695077106
-0.00694419425
-0.00716666937
-0.00717228037
-0.00695373251
-0.00694395064
-0.00716029044
-0.00716784534
-0.00695219943
-0.00694510383
-0.00715556679
-0.007165039
-0.00694947748
-0.00694733964
-0.00714506611
-0.0071827048
-0.00716053182
-0.00695007216
-0.00694161609
-0.00715659931
-0.00716623483
-0.00717630989
-0.00716986596
-0.00694742604
-0.0069426909
-0.00715632876
-0.00714095977
-0.00694434683
-0.00713394196
-0.0071646633
-0.00695021676
-0.00694373661
-0.00715102508
-0.00716292761
-0.00694871758
-0.00694555871
-0.0071437984
-0.00718098547
-0.00716831145
-0.00694677315
-0.00694472924
-0.00714441025
-0.00718216809
-0.00717017912
-0.00694769526
-0.00694388093
-0.00715359899
-0.00716491722
-0.00694798501
-0.00694570759
-0.00714250611
-0.00718321615
-0.00716980469
-0.00694839692
-0.00694300551
-0.00715276864
-0.00716317241
-0.00694823598
-0.00694457131
-0.0071387119
-0.00717870554
-0.00716845037
-0.00694526713
-0.00694514769
-0.00713650808
-0.00717937792
-0.00716844733
-0.00694760965
-0.00694260112
-0.00714931135
-0.00715763261
-0.00694802785
-0.0069428223
-0.0071420789
-0.00716430144
-0.0071726629
-0.00716941268
-0.00694908931
-0.00694392962
-0.00714931698
-0.00716198435
-0.00694656748
-0.00694549896
-0.00713321206
-0.00717844763
-0.00717062772
-0.00694581131
-0.00694476522
-0.00713194259
-0.00717921823
-0.00717486782
-0.00694434324
-0.00694606993
-0.00713368956
-0.00718543615
-0.00717699066
-0.00694738728
-0.00694404185
-0.00715117136
-0.00716580389
-0.00694675736
-0.0069458277
-0.00713732991
-0.00718602048
-0.00718215211
-0.00694580165
-0.00694740918
-0.00713890234
-0.00719420479
-0.00718760207
-0.00694980164
-0.00694455148
-0.00716152552
-0.00717374245
-0.00695140971
-0.00694405115
-0.00716577686
-0.00717316648
-0.00695207096
-0.00694451824
-0.00716509673
-0.00716991092
-0.00695101609
-0.00694618257
-0.00715979727
-0.00715822229
-0.00694950803
-0.00713773371
-0.00718209963
-0.00694912673
-0.00694558555
-0.00694873494
-0.00714300399
-0.00720778765
-0.00718764714
-0.00694694329
-0.00694748407
-0.00712695411
-0.00719630099
-0.00715835567
-0.00694782964
-0.00711243106
-0.00718196131
-0.00694884737
-0.00694600785
-0.00715510928
-0.00716689962
-0.00694929876
-0.00694588613
-0.00709677617
-0.00715845774
-0.00718367036
-0.00717589339
-0.00694918415
-0.00694899212
-0.00694873367
-0.00716782095
-0.00719245772
-0.00694985708
-0.00694731056
-0.00695062055
-0.00710082946
-0.00718093592
-0.00719129562
-0.00719082503
-0.00695008984
-0.00695075501
-0.00711444382
-0.0071887305
-0.00718429601
-0.00695026218
-0.0069465141
-0.00715588916
-0.00718398171
-0.00694824064
-0.0069473335
-0.00709826024
-0.00719446009
-0.00719261333
-0.00694925648
-0.00694998264
-0.00709754814
-0.00718613862
-0.00718067464
-0.00695257484
-0.00694711331
-0.00715044622
-0.00717657419
-0.00695017922
-0.00694955097
-0.00709386673
-0.00719786175
-0.00719464593
-0.00695246757
-0.00695109953
-0.00704667072
-0.00719457655
-0.00719284918
-0.0069526594
-0.00695146256
-0.00705653263
-0.00719449323
-0.0071922599
-0.0069525977
-0.00695132839
-0.00706008557
-0.00719582656
-0.00719425622
-0.00695295877
-0.00695310926
-0.00703859289
-0.00720442996
-0.0071974276
-0.006961555
-0.00694758675
-0.00695874958
-0.00713677436
-0.00720869026
-0.00719723713
-0.0069526845
-0.00695010787
-0.00708952583
-0.00718721683
-0.0071839636
-0.0069503004
-0.00694894089
-0.00709647923
-0.00718743703
-0.00718546868
-0.00695026944
-0.00695105697
-0.00709774156
-0.00719552744
-0.00718806348
-0.00695596465
-0.00694705707
-0.00716019439
-0.00717665935
-0.00695735385
-0.00694769149
-0.00718308237
-0.00719582262
-0.00695806794
-0.00694975379
-0.00695462263
-0.0069500206
-0.0071009537
-0.00718876997
-0.00717850509
-0.00721469397
-0.00721079358
-0.00695471781
-0.00695108443
-0.00695138533
-0.00714487882
-0.00717939625
-0.00695341677
-0.00694862995
-0.0071527767
-0.00717581758
-0.00695116926
-0.0069510426
-0.00710751055
-0.00720123019
-0.00719446022
-0.00695391638
-0.00694697572
-0.00715210775
-0.00717760096
-0.00695084502
-0.00695000142
-0.00710631549
-0.00720050011
-0.00719410837
-0.00695539086
-0.00694732735
-0.0071530484
-0.00717832656
-0.00695496307
-0.00694653765
-0.00716008334
-0.00717354301
-0.00695381793
-0.00695123236
-0.00708650508
-0.00719842503
-0.00719622801
-0.00695188444
-0.006951164
-0.0071188539
-0.00722457134
-0.00722115839
-0.00695338759
-0.00695140096
-0.00695160576
-0.0071495737
-0.00718134074
-0.00695366584
-0.00695404343
-0.00706328708
-0.00720611863
-0.00720422159
-0.00695781076
-0.00695847229
-0.00695698545
-0.00698375972
-0.00715662487
-0.00721558625
-0.00720972895
-0.00695235544
-0.00695233095
-0.00708903089
-0.00720353808
-0.00720122392
-0.00695190575
-0.00695204663
-0.00706610539
-0.00720257894
-0.00719817025
-0.00695370888
-0.00694853845
-0.00715500027
-0.00717966709
-0.0069523446
-0.0069517938
-0.00706221239
-0.00719955338
-0.0071957462
-0.00695354424
-0.00694858766
-0.00715667356
-0.00717944892
-0.00695193783
-0.00695198569
-0.0070573007
-0.00719984258
-0.00719416659
-0.00695479763
-0.00694618297
-0.00715827029
-0.00716863804
-0.00695615308
-0.00694517235
-0.00716267285
-0.00715751806
-0.00696288943
-0.00694565559
-0.00697119443
-0.00711260813
-0.00719204616
-0.00717001817
-0.00721124156
-0.00720250712
-0.00695546941
-0.00694892529
-0.00715787606
-0.00717780093
-0.00695342377
-0.00694958333
-0.00705792014
-0.0071795759
-0.00719554436
-0.0070699082
-0.00694950849
-0.00694278069
-0.00694500715
-0.00715079198
-0.00719747316
-0.00694828779
-0.00695137936
-0.00708572336
-0.00721080676
-0.00720500371
-0.00695379361
-0.00694847218
-0.00715754885
-0.00717099021
-0.00695369843
-0.00694988581
-0.00702931841
-0.00715908374
-0.00717007427
-0.00721413577
-0.00721129913
-0.00695173733
-0.00694933742
-0.00715320291
-0.00719050058
-0.00702961638
-0.00694993517
-0.00694616796
-0.00694664482
-0.00713524934
-0.00718017844
)
;

boundaryField
{
    closed
    {
        type            zeroGradient;
    }
    open
    {
        type            zeroGradient;
    }
    sides
    {
        type            empty;
    }
    procBoundary1to0
    {
        type            processor;
        value           uniform -0.00694496013;
    }
    procBoundary1to2
    {
        type            processor;
        value           uniform -0.00694889005;
    }
}


// ************************************************************************* //
