/*--------------------------------*- C++ -*----------------------------------*\
| =========                 |                                                 |
| \\      /  F ield         | OpenFOAM: The Open Source CFD Toolbox           |
|  \\    /   O peration     | Version:  2306                                  |
|   \\  /    A nd           | Website:  www.openfoam.com                      |
|    \\/     M anipulation  |                                                 |
\*---------------------------------------------------------------------------*/
FoamFile
{
    version     2.0;
    format      ascii;
    arch        "LSB;label=32;scalar=64";
    class       volScalarField;
    location    "0.002";
    object      H2;
}
// * * * * * * * * * * * * * * * * * * * * * * * * * * * * * * * * * * * * * //

dimensions      [0 0 0 0 0 0 0];

internalField   nonuniform List<scalar> 
531
(
0.0110265307
0.0106635638
0.0106475822
0.0108172897
0.0110203017
0.0110306798
0.0106598572
0.0106466376
0.010868042
0.0110197133
0.0109947976
0.0106600416
0.0106507997
0.0107912858
0.011014159
0.0110114127
0.0106734759
0.0106636935
0.0109221687
0.0107574445
0.0106556043
0.0110651246
0.011016448
0.0106908764
0.010674777
0.0109135051
0.0110065323
0.0110194819
0.0108238809
0.010642327
0.0106368132
0.0107802796
0.0110176175
0.0110021833
0.0110166529
0.0108681673
0.0106719051
0.0106664482
0.010662521
0.0106426864
0.0106419238
0.0108953281
0.0110124231
0.0110108514
0.0110066215
0.0108291227
0.0106963361
0.0110167193
0.0109914376
0.0110421418
0.010740712
0.0106350017
0.0106426002
0.0110624163
0.0110185027
0.0106913969
0.0106748
0.0110177166
0.0110164332
0.0108082798
0.0106616428
0.0106686919
0.0110389804
0.0110106082
0.0110319869
0.0110125098
0.0108341546
0.0106713633
0.0106680637
0.0106601779
0.010640145
0.0106426912
0.0109970485
0.0110247853
0.010695366
0.0106860378
0.0110284914
0.011002212
0.0110339536
0.0106961987
0.0106806495
0.0110326841
0.0110058418
0.0109008491
0.0106936373
0.0106499447
0.0106613694
0.0110214932
0.011028633
0.0107541815
0.0106492234
0.010659394
0.0110231548
0.0110200429
0.0107116386
0.0106903914
0.0110561122
0.0109954175
0.0110484577
0.010731781
0.0106783181
0.0106633025
0.0106834988
0.0110307365
0.0107419044
0.0106655741
0.0110832461
0.0110029728
0.0110462834
0.0107149969
0.0106403843
0.0106532968
0.0110239722
0.0110260582
0.0107664705
0.0106528251
0.0106639955
0.0110203896
0.0110188639
0.0107193267
0.0106702597
0.0106436404
0.0106537283
0.011035058
0.0110070357
0.0110284748
0.0107251345
0.0106814626
0.0110165668
0.0110157804
0.0106843615
0.0106750567
0.0110591817
0.0109979258
0.011052092
0.0107104551
0.010643795
0.0106522519
0.011023958
0.0110206528
0.0107710717
0.0106566366
0.0106637866
0.0110237224
0.0110250701
0.0107391811
0.0106239047
0.0106358611
0.0110476575
0.0110134058
0.0110260878
0.0106903906
0.0106686512
0.0110275477
0.0110148844
0.0107709601
0.0106686622
0.0106717121
0.0110241907
0.0110172301
0.0108150903
0.0106510086
0.0106527229
0.0110662702
0.0110142397
0.011052627
0.0106719062
0.0106760852
0.0110483255
0.0107856983
0.0106705815
0.0110349874
0.0110041073
0.0107914118
0.0107018251
0.0106548676
0.0106528596
0.0110390575
0.0110085796
0.0107816306
0.0106806664
0.0106560941
0.0106526424
0.0110446631
0.0110102095
0.0107046212
0.0106711453
0.0110367128
0.011008108
0.0107814304
0.0106703533
0.0106674488
0.0110234844
0.01100107
0.0107371195
0.0106732807
0.0110450135
0.0110023779
0.0106771799
0.0106650875
0.0110615365
0.0110002432
0.0110207285
0.0107683556
0.010652806
0.0106490993
0.0110476128
0.0110217206
0.0107056196
0.0106392345
0.0106398268
0.0110380224
0.0110129886
0.0107131373
0.0106705215
0.0110541191
0.0110115785
0.0106724351
0.0106563066
0.0110692538
0.0110125044
0.0110192421
0.0106764599
0.0106463752
0.0110555958
0.0110261137
0.0107504261
0.0106322712
0.0106294894
0.0110516231
0.0110166642
0.0108003714
0.0106729088
0.0106747377
0.0106653665
0.010648118
0.0106867484
0.0110417773
0.0110024979
0.0110196593
0.0110090387
0.0110056901
0.0110134592
0.0107702529
0.0106379182
0.0106365365
0.0110572834
0.01102193
0.0107721553
0.0106594802
0.010654001
0.0110493236
0.0110089481
0.0107102067
0.0106877173
0.0110600553
0.0108680573
0.0106390425
0.0110655609
0.0110255952
0.0107631368
0.0106399399
0.01063683
0.0109112336
0.0110154525
0.0110157863
0.0108140672
0.0106566591
0.0106539475
0.0110661176
0.0110194376
0.0110209896
0.0110181822
0.0107353913
0.0106569127
0.0106624951
0.0106352593
0.0106329241
0.0110675963
0.0110106035
0.0110161704
0.0107844525
0.0106955973
0.0110473471
0.0109973159
0.0108285345
0.0107190826
0.0106549646
0.0106514573
0.0110654984
0.0110165958
0.0106870905
0.0106625213
0.0110620756
0.0110212707
0.0108247965
0.0106436635
0.0106405495
0.0110702268
0.011020277
0.0106867084
0.0106598753
0.0110642846
0.0110182913
0.0108188417
0.010653361
0.0106474268
0.0108377586
0.0110246847
0.0106819798
0.0106591359
0.0110802675
0.0110060612
0.0110230681
0.0108158791
0.010657546
0.0106606673
0.011044044
0.0110068328
0.0110088632
0.0108766816
0.0106647816
0.0106801453
0.0110362736
0.0107498547
0.0106575845
0.011050841
0.0110103864
0.0106859298
0.0106734958
0.0110477937
0.0110059406
0.010743184
0.0106889326
0.0106489136
0.0106470736
0.0110655128
0.0110165602
0.0106807105
0.0106593054
0.0110529065
0.0110090511
0.0107697782
0.0106829147
0.0106661812
0.0106685292
0.0110383411
0.0110113533
0.0110153526
0.0110130515
0.010686642
0.0106471688
0.0110468327
0.0110124442
0.0107359201
0.0106723494
0.0106551251
0.0106721379
0.0110357713
0.0107266675
0.0106505589
0.011045483
0.011014913
0.010664354
0.0106609062
0.0110586888
0.0110084477
0.0110236952
0.0106890001
0.0106626129
0.0110426294
0.0110151263
0.0106839603
0.0106679176
0.0110406059
0.0110192523
0.0108409888
0.010642778
0.0106416736
0.0110464599
0.0110197544
0.0106787503
0.0106606882
0.0110384662
0.0110208139
0.0108073845
0.0106424095
0.0106413605
0.0110390771
0.0110198468
0.0106793158
0.0106611767
0.0110373463
0.0110213349
0.0108199467
0.0106410944
0.0106382976
0.011042826
0.0110174184
0.0106767765
0.0106592025
0.0110427319
0.0110122803
0.0106818999
0.0106671554
0.0110395831
0.0110121678
0.0106839774
0.010668602
0.0110394917
0.0110183996
0.0108779396
0.0106422777
0.0106401374
0.0110490831
0.0110170843
0.0106722426
0.0106574016
0.0110444125
0.011010016
0.0106713669
0.0106667863
0.0110449661
0.0109994921
0.0110150798
0.0107570761
0.0106725384
0.0106943595
0.0110193785
0.0109992347
0.0106962211
0.0106567535
0.0110375872
0.0110075662
0.0106768297
0.0106725663
0.0110358957
0.0110009385
0.010815974
0.0107154717
0.010664116
0.0106628421
0.0110323736
0.0110075846
0.0107668771
0.0106919424
0.0106561763
0.0106554049
0.0110403286
0.0107354249
0.0106382639
0.0110388467
0.0110183172
0.0106792213
0.0106643062
0.0110353141
0.0110103256
0.0107861485
0.0106815068
0.0106790741
0.0106565865
0.0106530655
0.011047238
0.0110122219
0.011016989
0.0110091236
0.0107455211
0.0106734482
0.0110417722
0.0110134833
0.0109032588
0.0106436068
0.0106425762
0.0110550545
0.0107317273
0.0106320845
0.0110420196
0.0110272168
0.0107816828
0.0106382635
0.0106362986
0.0110537348
0.0110142732
0.0110231281
0.0106985065
0.0106739816
0.0110617801
0.011015453
0.0110333342
0.0106668087
0.0106416803
0.0110759171
0.0110104025
0.0110266823
0.0107556071
0.0106779625
0.0106313012
0.0106326826
0.0110725665
0.0110134957
0.0110311417
0.010709586
0.0106629806
0.0110511664
0.0110105669
0.010697531
0.0106841227
0.0110481379
0.0110021791
0.0108104997
0.0107106449
0.0106638842
0.0106613164
0.0110572191
0.0110196067
0.0108241647
0.0106537927
0.0106520672
0.0110622088
0.0110223919
0.0108227003
0.0106512535
0.0106467455
0.0110627598
0.0110142231
0.0107902521
0.0106695634
0.0106545064
0.0106747741
0.0110440045
0.0110177842
)
;

boundaryField
{
    closed
    {
        type            calculated;
        value           nonuniform List<scalar> 0();
    }
    open
    {
        type            calculated;
        value           nonuniform List<scalar> 0();
    }
    sides
    {
        type            empty;
    }
    procBoundary3to2
    {
        type            processor;
        value           uniform 0.0110196711;
    }
    procBoundary3to4
    {
        type            processor;
        value           uniform 0.0110162773;
    }
}


// ************************************************************************* //
