/*--------------------------------*- C++ -*----------------------------------*\
| =========                 |                                                 |
| \\      /  F ield         | OpenFOAM: The Open Source CFD Toolbox           |
|  \\    /   O peration     | Version:  2306                                  |
|   \\  /    A nd           | Website:  www.openfoam.com                      |
|    \\/     M anipulation  |                                                 |
\*---------------------------------------------------------------------------*/
FoamFile
{
    version     2.0;
    format      ascii;
    arch        "LSB;label=32;scalar=64";
    class       volScalarField;
    location    "0.002";
    object      mu;
}
// * * * * * * * * * * * * * * * * * * * * * * * * * * * * * * * * * * * * * //

dimensions      [1 -1 -1 0 0 0 0];

internalField   nonuniform List<scalar> 
531
(
2.0289815e-05
1.95071922e-05
1.9355989e-05
1.98213291e-05
2.02697878e-05
2.02902045e-05
1.94744257e-05
1.93496252e-05
1.9877825e-05
2.02722823e-05
2.00659791e-05
1.9500645e-05
1.93825614e-05
1.97911483e-05
2.02864092e-05
2.03108702e-05
1.95904277e-05
1.95387763e-05
1.99509757e-05
1.97853467e-05
1.94702484e-05
2.02607295e-05
2.02850937e-05
1.97043961e-05
1.95906692e-05
1.99380903e-05
2.02820485e-05
2.0293802e-05
1.98309951e-05
1.9387602e-05
1.93111539e-05
1.97796633e-05
2.02993832e-05
2.03086854e-05
2.02848616e-05
1.98774528e-05
1.95815022e-05
1.95302512e-05
1.95149264e-05
1.93645502e-05
1.93707628e-05
1.99117802e-05
2.02998009e-05
2.02960942e-05
2.02990703e-05
1.98357612e-05
1.97432734e-05
2.01042149e-05
2.03169308e-05
2.02541752e-05
1.97542364e-05
1.92371035e-05
1.94121566e-05
2.02519285e-05
2.02933176e-05
1.96871646e-05
1.96210556e-05
2.03282621e-05
2.02706735e-05
1.98104984e-05
1.94612464e-05
1.95745862e-05
2.02982997e-05
2.02910043e-05
2.02606653e-05
2.02869787e-05
1.98427227e-05
1.95885634e-05
1.9534608e-05
1.9502964e-05
1.93217106e-05
1.93777382e-05
2.00704888e-05
2.02753096e-05
1.97364891e-05
1.97062526e-05
2.03148655e-05
2.02819307e-05
2.02615203e-05
1.97363421e-05
1.96596055e-05
2.03116226e-05
2.02848262e-05
1.99214757e-05
1.97510659e-05
1.9376537e-05
1.95178957e-05
2.03130432e-05
2.02594971e-05
1.97732505e-05
1.93749093e-05
1.9522088e-05
2.03039209e-05
2.02772909e-05
1.98068253e-05
1.97531449e-05
2.02630429e-05
2.0301557e-05
2.02386886e-05
1.97651723e-05
1.95739419e-05
1.95170394e-05
1.96605785e-05
2.0293485e-05
1.9788067e-05
1.9550358e-05
2.02267398e-05
2.02935716e-05
2.02388626e-05
1.97669778e-05
1.93016286e-05
1.94553063e-05
2.0303239e-05
2.02630514e-05
1.97861492e-05
1.9408446e-05
1.95392941e-05
2.03119802e-05
2.02787966e-05
1.97789973e-05
1.95583592e-05
1.93505276e-05
1.9454234e-05
2.03086823e-05
2.02815291e-05
2.02738177e-05
1.97802503e-05
1.96571951e-05
2.03118974e-05
2.02856055e-05
1.96291215e-05
1.9631225e-05
2.02655408e-05
2.03015677e-05
2.02448984e-05
1.97607176e-05
1.92950638e-05
1.94365882e-05
2.0285839e-05
2.02690976e-05
1.97943602e-05
1.94296454e-05
1.95025013e-05
2.02981909e-05
2.02683387e-05
1.97815134e-05
1.91776853e-05
1.92999221e-05
2.02872163e-05
2.02788956e-05
2.02767468e-05
1.97190224e-05
1.95267966e-05
2.03013632e-05
2.02737065e-05
1.97870214e-05
1.95305666e-05
1.95607121e-05
2.02865496e-05
2.02637728e-05
1.98231954e-05
1.93615557e-05
1.94220045e-05
2.02422486e-05
2.0272506e-05
2.02488433e-05
1.95655436e-05
1.95500659e-05
2.02628402e-05
1.98034534e-05
1.95548737e-05
2.02831183e-05
2.0284519e-05
1.98019383e-05
1.97730833e-05
1.9442371e-05
1.94438668e-05
2.02813101e-05
2.0295369e-05
1.97962291e-05
1.96608686e-05
1.94472761e-05
1.94500271e-05
2.02755571e-05
2.02992352e-05
1.97646425e-05
1.95859573e-05
2.0291215e-05
2.02933493e-05
1.97860481e-05
1.95652178e-05
1.95705584e-05
2.02789115e-05
2.03075075e-05
1.97815826e-05
1.96334205e-05
2.02701345e-05
2.03140494e-05
1.96034253e-05
1.9563307e-05
2.02586528e-05
2.02996121e-05
2.02698537e-05
1.97838094e-05
1.9404545e-05
1.94093626e-05
2.02651051e-05
2.02829087e-05
1.97643142e-05
1.92960743e-05
1.93438671e-05
2.02577896e-05
2.02901338e-05
1.97964986e-05
1.95705338e-05
2.02496703e-05
2.02878043e-05
1.95393273e-05
1.946064e-05
2.02442221e-05
2.02818246e-05
2.02625754e-05
1.96088936e-05
1.93538273e-05
2.02610473e-05
2.02718214e-05
1.97819889e-05
1.92473232e-05
1.92551973e-05
2.02580845e-05
2.0284558e-05
1.98115224e-05
1.95958422e-05
1.9591641e-05
1.95547359e-05
1.93714486e-05
1.97216196e-05
2.02640537e-05
2.03082261e-05
2.02754684e-05
2.03018113e-05
2.02867555e-05
2.0289942e-05
1.97895243e-05
1.93034071e-05
1.93061327e-05
2.02603279e-05
2.02769008e-05
1.97894874e-05
1.94427028e-05
1.94484566e-05
2.02417695e-05
2.02913439e-05
1.98018254e-05
1.97011615e-05
2.02455272e-05
1.9878159e-05
1.93087221e-05
2.02592142e-05
2.0278554e-05
1.97806651e-05
1.93184561e-05
1.93235526e-05
1.99345584e-05
2.02796262e-05
2.02780256e-05
1.98235015e-05
1.94275101e-05
1.94300418e-05
2.0233431e-05
2.0279031e-05
2.02706171e-05
2.02814687e-05
1.97715233e-05
1.94409011e-05
1.95068335e-05
1.92674303e-05
1.92722458e-05
2.0236086e-05
2.02798175e-05
2.02786688e-05
1.98015803e-05
1.97609832e-05
2.02495702e-05
2.02877049e-05
1.98377009e-05
1.97728262e-05
1.94243167e-05
1.94277702e-05
2.02352436e-05
2.02862534e-05
1.96889423e-05
1.94906172e-05
2.02392698e-05
2.02671157e-05
1.98337661e-05
1.93208913e-05
1.93261401e-05
2.02407573e-05
2.02795579e-05
1.96705018e-05
1.94690399e-05
2.02304444e-05
2.02771691e-05
1.98267927e-05
1.94396512e-05
1.94031927e-05
1.98374387e-05
2.02832893e-05
1.96692149e-05
1.94923573e-05
2.0235641e-05
2.02936153e-05
2.02752315e-05
1.98193836e-05
1.9439872e-05
1.94967151e-05
2.02520338e-05
2.02896446e-05
2.02819621e-05
1.9888259e-05
1.95249822e-05
1.96530502e-05
2.02749202e-05
1.97658623e-05
1.9480163e-05
2.02653467e-05
2.02962544e-05
1.97169839e-05
1.95964808e-05
2.0256855e-05
2.02860319e-05
1.97770942e-05
1.96990884e-05
1.93880611e-05
1.93901979e-05
2.02368129e-05
2.02885841e-05
1.96454453e-05
1.94868673e-05
2.02460907e-05
2.02890543e-05
1.97930648e-05
1.96633383e-05
1.95159403e-05
1.9539655e-05
2.02642206e-05
2.02864413e-05
2.02849941e-05
2.02966409e-05
1.9719668e-05
1.94059898e-05
2.02668253e-05
2.02974017e-05
1.97675901e-05
1.95892012e-05
1.9455577e-05
1.95800375e-05
2.02799221e-05
1.97644375e-05
1.94141542e-05
2.0272182e-05
2.02881788e-05
1.95377807e-05
1.94953588e-05
2.02657093e-05
2.0284935e-05
2.02837819e-05
1.9717088e-05
1.9487648e-05
2.02655605e-05
2.02741195e-05
1.96713447e-05
1.95187768e-05
2.02652399e-05
2.02683489e-05
1.9848959e-05
1.93363356e-05
1.93377935e-05
2.02578903e-05
2.027567e-05
1.96305709e-05
1.9464283e-05
2.02679837e-05
2.02683249e-05
1.98174744e-05
1.93315791e-05
1.93331349e-05
2.02655987e-05
2.02748879e-05
1.963679e-05
1.9465201e-05
2.02718455e-05
2.02659707e-05
1.98270915e-05
1.93169751e-05
1.93216662e-05
2.02607482e-05
2.02851299e-05
1.96020114e-05
1.94795153e-05
2.02643803e-05
2.02852979e-05
1.96364287e-05
1.95354522e-05
2.02661482e-05
2.02795784e-05
1.96560319e-05
1.95303603e-05
2.02671727e-05
2.0269108e-05
1.98916274e-05
1.93306382e-05
1.93343645e-05
2.02603015e-05
2.02863514e-05
1.95649339e-05
1.94732151e-05
2.02687816e-05
2.02930617e-05
1.95632505e-05
1.95580705e-05
2.02730018e-05
2.03017277e-05
2.02790701e-05
1.97675527e-05
1.95562786e-05
1.97451186e-05
2.02722385e-05
2.03171765e-05
1.9762628e-05
1.95003208e-05
2.02836698e-05
2.03031141e-05
1.96218262e-05
1.95948166e-05
2.0280634e-05
2.02859611e-05
1.98238468e-05
1.97770393e-05
1.95041541e-05
1.95048654e-05
2.02754981e-05
2.02805112e-05
1.9789545e-05
1.97185633e-05
1.94469475e-05
1.94477061e-05
2.02770971e-05
1.97704147e-05
1.93121499e-05
2.02856197e-05
2.02841536e-05
1.96551291e-05
1.9511775e-05
2.0288828e-05
2.02818324e-05
1.97940324e-05
1.96380069e-05
1.96433066e-05
1.94370367e-05
1.94401435e-05
2.02620138e-05
2.0286708e-05
2.02742917e-05
2.0289522e-05
1.97826609e-05
1.9592814e-05
2.02727573e-05
2.02826239e-05
1.99247714e-05
1.93573997e-05
1.93585681e-05
2.02629848e-05
1.97657956e-05
1.92444858e-05
2.02794488e-05
2.02691922e-05
1.97960678e-05
1.92873871e-05
1.92919453e-05
2.02560125e-05
2.02674535e-05
2.02685501e-05
1.97540665e-05
1.95567841e-05
2.02553815e-05
2.02654552e-05
2.02656092e-05
1.95226386e-05
1.93285521e-05
2.02569363e-05
2.02776646e-05
2.02651236e-05
1.97858999e-05
1.95793363e-05
1.92482611e-05
1.92514574e-05
2.0259936e-05
2.02752738e-05
2.02754362e-05
1.97785536e-05
1.94951393e-05
2.02624307e-05
2.02833911e-05
1.97554667e-05
1.96610831e-05
2.02607866e-05
2.02787154e-05
1.982458e-05
1.97852659e-05
1.94729776e-05
1.94751947e-05
2.02481453e-05
2.02658006e-05
1.98369973e-05
1.9397208e-05
1.93996583e-05
2.02448624e-05
2.02638395e-05
1.9833757e-05
1.93776697e-05
1.93840579e-05
2.02462867e-05
2.02928778e-05
1.98081328e-05
1.95757269e-05
1.94244809e-05
1.95860855e-05
2.02695421e-05
2.02848363e-05
)
;

boundaryField
{
    closed
    {
        type            calculated;
        value           nonuniform List<scalar> 0();
    }
    open
    {
        type            calculated;
        value           nonuniform List<scalar> 0();
    }
    sides
    {
        type            empty;
    }
    procBoundary3to2
    {
        type            processor;
        value           uniform 2.02698616e-05;
    }
    procBoundary3to4
    {
        type            processor;
        value           uniform 2.02889517e-05;
    }
}


// ************************************************************************* //
