/*--------------------------------*- C++ -*----------------------------------*\
| =========                 |                                                 |
| \\      /  F ield         | OpenFOAM: The Open Source CFD Toolbox           |
|  \\    /   O peration     | Version:  2306                                  |
|   \\  /    A nd           | Website:  www.openfoam.com                      |
|    \\/     M anipulation  |                                                 |
\*---------------------------------------------------------------------------*/
FoamFile
{
    version     2.0;
    format      ascii;
    arch        "LSB;label=32;scalar=64";
    class       volScalarField;
    location    "0.00142";
    object      H2O;
}
// * * * * * * * * * * * * * * * * * * * * * * * * * * * * * * * * * * * * * //

dimensions      [0 0 0 0 0 0 0];

internalField   nonuniform List<scalar> 
531
(
0.000932842666
0.00107889242
0.00666253559
0.00701360978
0.000967706691
0.00108270405
0.00607662896
0.00703349135
0.00703728251
0.00101816949
0.00107071934
0.00622349372
0.00730133055
0.00708148409
0.000983255082
0.00109183739
0.00702813588
0.00706957663
0.000942247422
0.00110993196
0.00103783018
0.00646102263
0.0072159385
0.00704880341
0.00699589301
0.00730405575
0.00692542017
0.00100179519
0.0011330459
0.00108842765
0.00599159793
0.00641666617
0.00105290762
0.00113206372
0.00557231339
0.00684583739
0.00692996427
0.00735469007
0.000962932978
0.00101639025
0.00710418659
0.00716162897
0.000970646192
0.00107967039
0.00712731264
0.00725091146
0.000953595723
0.00106464137
0.00722098607
0.00729297542
0.000950445869
0.00108064441
0.00103688044
0.00384671784
0.00769041942
0.00734913621
0.000976251316
0.00108863676
0.00722315861
0.00691615405
0.00101903258
0.00663534412
0.0069729175
0.000997875118
0.00112710499
0.00106113638
0.00623196311
0.00726448102
0.00690835193
0.00736779004
0.00101596229
0.00104470668
0.00689664517
0.00773361392
0.0073936057
0.000990645592
0.0010527348
0.00735161724
0.00743091417
0.000976162822
0.00106338077
0.0073054213
0.00724040481
0.00100540403
0.00107521259
0.00103355847
0.00709941615
0.00756208053
0.00100203407
0.00103772921
0.00106308676
0.00106395231
0.00704687417
0.00753938765
0.00727928081
0.00753360835
0.0010238235
0.00104995639
0.00680978729
0.00729348377
0.00688792902
0.00107120652
0.00110693453
0.00654036535
0.00681727424
0.00107440638
0.00110127304
0.00677757345
0.00690672738
0.00105907836
0.00109817606
0.0067945717
0.00683136286
0.00716619743
0.0067121507
0.00101762779
0.00608900412
0.00749044401
0.00454483134
0.00104346995
0.00110336582
0.00714411622
0.00694239997
0.00104031899
0.00109257589
0.00105781401
0.00700908713
0.00726259919
0.00106907639
0.00107343137
0.00655801472
0.00707613315
0.00580045944
0.00106674079
0.00107506786
0.00704184742
0.00773710759
0.00742669605
0.00100419972
0.00106804742
0.00744636885
0.00703076986
0.0010276202
0.000761249096
0.00740101281
0.00737377774
0.00103034706
0.00107930098
0.00731065557
0.00687036788
0.001009786
0.00111096594
0.00103044167
0.00684527918
0.00712559874
0.00104254627
0.00110162998
0.00339740406
0.00675253878
0.00681449385
0.00666753309
0.00656984816
0.00523374015
0.00671232569
0.00539659736
0.00108116587
0.00631448365
0.00700811025
0.00108900736
0.00107504801
0.00696214391
0.00705507619
0.0010566456
0.00107641121
0.00704131902
0.00692744067
0.00102075646
0.00110670284
0.00100380714
0.00682277887
0.00766802377
0.00712439663
0.00105978885
0.00105651071
0.00673398495
0.00748153635
0.00686625064
0.000964149783
0.00113015096
0.00104546831
0.00660446041
0.00711375558
0.00568273808
0.00696915653
0.00657387243
0.00105316831
0.0011147828
0.00104207778
0.00701052725
0.00738457249
0.0010658332
0.00106225971
0.00698291336
0.00709786815
0.00107099881
0.00107940457
0.00695871652
0.00695859414
0.00108776675
0.0010971847
0.00468956912
0.00699227426
0.00678252224
0.00721793535
0.00681186736
0.00104266037
0.00676091163
0.00723603799
0.00107058453
0.00106302233
0.00106310213
0.00730324376
0.00720414054
0.00100439543
0.0010858831
0.000983998694
0.00697065906
0.00783016651
0.00717074467
0.00105670344
0.00104940536
0.00680286773
0.00743642357
0.00700652299
0.00105098808
0.00107551121
0.00710292054
0.00713038875
0.00110665887
0.00108380062
0.00588575755
0.00697856412
0.00663383837
0.00109421142
0.00106380856
0.00683496726
0.00778301429
0.00725624664
0.000999018034
0.0011028165
0.00765126813
0.00624376576
0.0010169879
0.00659779623
0.00725712344
0.00109410188
0.00107533424
0.00702289695
0.00710770984
0.00107038583
0.00107901689
0.00694927542
0.00708559517
0.00110659146
0.0010726582
0.00590625596
0.00729033186
0.00681444171
0.00104007448
0.0011185602
0.00104908357
0.00435355313
0.00750503855
0.00675125987
0.00100850173
0.00665455463
0.00747795617
0.00106545565
0.00106632948
0.00738413238
0.00424490794
0.00102159353
0.00562188815
0.00774601298
0.00686703669
0.000988017061
0.00111079529
0.0010087778
0.00686376501
0.00755821169
0.00749855749
0.00736881436
0.000999536333
0.00108109979
0.00100460703
0.00687219024
0.00793114838
0.00542425047
0.000993708505
0.00110272639
0.0010099246
0.00106504187
0.00762664929
0.00742857735
0.000996453385
0.00685029625
0.0076122665
0.00105424461
0.00105556541
0.00716308783
0.00723120763
0.00104564055
0.00108256967
0.00432733466
0.00700028234
0.0071067949
0.00711389056
0.00107631097
0.00107861131
0.00539915424
0.00726620962
0.00654502153
0.00104126344
0.00641875154
0.00697935751
0.000996444198
0.00112960642
0.000982235234
0.00623885015
0.00737307396
0.00675841059
0.00696793769
0.00109299029
0.001095924
0.00620144092
0.00704992978
0.00690886442
0.00109360433
0.00109042736
0.00614852076
0.00711425222
0.00692509308
0.00108928121
0.00109409936
0.00556364113
0.00698280969
0.00524193903
0.00108833884
0.0010873013
0.0067397222
0.00741028436
0.00719226622
0.0010692208
0.00107702518
0.00564107704
0.00700241487
0.0056130245
0.00109149898
0.00109718873
0.00658255273
0.00732835061
0.00704755256
0.00105546055
0.00106899057
0.00663345887
0.00725796493
0.00702131848
0.00106313353
0.00106562908
0.00662997686
0.0074249363
0.00717763273
0.00102236764
0.00107210795
0.00710350709
0.00715392763
0.0010334442
0.0010436348
0.00681233728
0.00791913592
0.00735677884
0.000955456202
0.00108363848
0.00100385059
0.00111505458
0.00105740139
0.00651613066
0.00724134448
0.00719096132
0.00747833825
0.000996591177
0.000983346681
0.00729287804
0.00704500559
0.00103950835
0.00102621811
0.00698390941
0.00714983009
0.00106074002
0.00107388683
0.00592578177
0.00727114507
0.00705766187
0.00103327007
0.00108009936
0.00697170524
0.00703998897
0.00105678242
0.0010671497
0.00606062782
0.00740414979
0.00670574162
0.00100742221
0.00533279286
0.00731990142
0.00107348788
0.00107595094
0.00566806872
0.00698953973
0.00646988522
0.00109107959
0.00110526728
0.00594493661
0.00719569125
0.00707272898
0.00104826603
0.0010485881
0.00677927118
0.00762045125
0.00747841752
0.00102073471
0.00105388578
0.00396352372
0.00730360933
0.00642362175
0.000994257161
0.00115433289
0.0010184114
0.00651896488
0.00811025809
0.00748825047
0.000946105124
0.00108980187
0.00103635187
0.00655661353
0.00721769931
0.0010562026
0.00108126427
0.00495883821
0.00701773925
0.00728782774
0.00732872091
0.000992764061
0.00105823525
0.00668344734
0.00710356336
0.00104866484
0.00108839696
0.00515718074
0.00696015204
0.00734605231
0.00734443217
0.000957167101
0.0010509107
0.00724195942
0.00738600849
0.000966428764
0.0010559655
0.0071940496
0.00727394858
0.000927131304
0.00108475948
0.00199265258
0.00705394088
0.00709490889
0.00100874123
0.00106226627
0.00721373348
0.00753616967
0.000945838308
0.00103148133
0.00744777002
0.00763036188
0.000938434239
0.00103906494
0.00105921201
0.00105913361
0.00595179672
0.00704344904
0.00715816543
0.00708078501
0.00100911838
0.00576534608
0.00725297089
0.00104399899
0.00108521896
0.00466122043
0.00694543462
0.00688364223
0.00752368446
0.0073999234
0.000929174227
0.0010729626
0.000969722972
0.0071082123
0.00741374442
0.000871995911
0.00108539896
0.000911250262
0.00696681992
0.00727478918
0.000983913065
0.00105300651
0.00725323991
0.00726108141
0.000950086178
0.0011183017
0.00104209171
0.00589311936
0.00723189799
0.00720551722
0.0072581227
0.00098295719
0.00103136136
0.00687643911
0.00779342057
0.00764062172
0.0010023093
0.00105626331
0.00387123303
0.00709943303
)
;

boundaryField
{
    closed
    {
        type            calculated;
        value           nonuniform List<scalar> 0();
    }
    open
    {
        type            calculated;
        value           nonuniform List<scalar> 0();
    }
    sides
    {
        type            empty;
    }
    procBoundary1to0
    {
        type            processor;
        value           uniform 0.00710204805;
    }
    procBoundary1to2
    {
        type            processor;
        value           uniform 0.00642726064;
    }
}


// ************************************************************************* //
