/*--------------------------------*- C++ -*----------------------------------*\
| =========                 |                                                 |
| \\      /  F ield         | OpenFOAM: The Open Source CFD Toolbox           |
|  \\    /   O peration     | Version:  2306                                  |
|   \\  /    A nd           | Website:  www.openfoam.com                      |
|    \\/     M anipulation  |                                                 |
\*---------------------------------------------------------------------------*/
FoamFile
{
    version     2.0;
    format      ascii;
    arch        "LSB;label=32;scalar=64";
    class       volScalarField;
    location    "0.00142";
    object      p;
}
// * * * * * * * * * * * * * * * * * * * * * * * * * * * * * * * * * * * * * //

dimensions      [1 -1 -2 0 0 0 0];

internalField   nonuniform List<scalar> 
531
(
101448.336
101448.399
101448.48
101448.584
101448.649
101448.645
101448.647
101448.652
101448.676
101449.298
101449.394
101449.498
101449.586
101449.673
101449.766
101449.831
101449.946
101450.078
101450.209
101450.368
101450.539
101450.339
101450.142
101449.973
101449.806
101449.663
101449.533
101449.424
101449.29
101449.155
101449.044
101448.939
101448.809
101448.648
101448.501
101448.349
101448.178
101448.022
101447.824
101447.587
101447.377
101447.153
101446.894
101446.597
101446.315
101446.013
101445.678
101445.312
101444.97
101444.605
101444.207
101443.78
101443.345
101442.917
101442.464
101441.978
101441.511
101441.003
101440.523
101439.965
101439.422
101438.866
101438.265
101437.634
101436.929
101436.184
101435.755
101435.293
101434.753
101434.223
101433.644
101433.05
101432.471
101431.809
101431.141
101430.507
101429.845
101429.215
101428.519
101427.795
101427.06
101426.356
101425.568
101424.818
101424.069
101423.299
101422.166
101421.489
101420.79
101420.084
101419.375
101418.659
101417.902
101417.113
101416.312
101415.548
101414.751
101413.958
101413.192
101412.336
101411.481
101410.683
101409.874
101409.092
101408.25
101407.392
101406.549
101405.742
101404.872
101403.992
101403.127
101402.299
101401.39
101400.49
101399.59
101398.742
101397.909
101397.09
101396.263
101395.469
101394.678
101393.93
101393.09
101392.321
101391.544
101390.785
101390.114
101389.322
101388.506
101387.702
101387.156
101386.267
101385.404
101384.564
101383.739
101382.967
101382.116
101381.284
101380.522
101379.769
101379.079
101378.255
101377.69
101377.231
101376.2
101375.291
101374.1
101373.22
101372.396
101371.475
101370.637
101369.809
101368.994
101368.224
101367.393
101366.56
101365.764
101364.992
101364.185
101363.368
101362.573
101361.783
101361.022
101360.275
101359.515
101358.764
101358.039
101357.328
101356.605
101355.906
101355.242
101354.528
101353.814
101353.125
101352.469
101351.757
101351.095
101350.442
101349.796
101349.184
101348.51
101347.836
101347.215
101346.6
101346.163
101345.487
101344.83
101344.211
101343.657
101343.182
101342.401
101341.659
101341.026
101340.385
101339.734
101339.125
101338.53
101337.943
101337.389
101336.783
101336.169
101335.584
101335.009
101334.433
101333.848
101333.289
101332.751
101332.167
101331.581
101331.019
101330.467
101329.907
101329.34
101328.783
101328.226
101327.705
101327.205
101326.671
101326.14
101325.637
101325.137
101324.666
101324.146
101323.661
101323.186
101322.716
101322.27
101321.781
101321.287
101320.839
101320.397
101319.97
101319.515
101319.058
101318.635
101318.222
101317.831
101317.405
101316.979
101316.575
101316.175
101315.781
101315.382
101315.017
101314.655
101314.306
101313.936
101313.565
101313.215
101312.876
101312.565
101312.211
101311.865
101311.537
101311.191
101310.846
101310.516
101310.195
101309.874
101309.552
101309.244
101308.953
101308.642
101308.332
101308.036
101307.747
101307.466
101307.185
101306.923
101306.664
101306.415
101306.175
101305.936
101305.692
101305.47
101305.257
101305.041
101304.821
101304.609
101304.417
101304.201
101304.001
101303.809
101303.631
101303.453
101303.29
101303.128
101302.973
101302.844
101302.688
101302.527
101302.366
101302.222
101302.076
101301.934
101301.807
101301.674
101301.54
101301.417
101301.294
101301.177
101301.063
101300.968
101300.86
101300.752
101300.649
101300.562
101300.47
101300.371
101300.289
101300.198
101300.101
101299.999
101299.905
101299.817
101299.733
101299.654
101299.575
101299.497
101299.433
101299.38
101299.324
101299.273
101299.224
101299.19
101299.156
101299.115
101299.076
101299.048
101299.026
101298.994
101298.965
101298.939
101298.902
101298.87
101298.844
101298.815
101298.781
101298.74
101298.721
101298.711
101298.692
101298.673
101298.647
101298.63
101298.618
101298.602
101298.587
101298.565
101298.554
101298.548
101298.532
101298.52
101298.499
101298.488
101298.485
101298.479
101298.472
101298.458
101298.455
101298.459
101298.454
101298.454
101298.444
101298.444
101298.451
101298.454
101298.462
101298.456
101298.46
101298.472
101298.485
101298.494
101298.492
101298.506
101298.525
101298.545
101298.549
101298.564
101298.591
101298.621
101298.647
101298.664
101298.688
101298.715
101298.739
101298.769
101298.811
101298.849
101298.894
101298.927
101298.944
101298.985
101299.016
101299.061
101299.078
101299.109
101299.144
101299.176
101299.193
101299.217
101299.255
101299.296
101299.331
101299.358
101299.404
101299.457
101299.511
101299.552
101299.606
101299.675
101299.743
101299.809
101299.878
101299.968
101300.059
101300.139
101300.123
101300.151
101300.184
101300.216
101300.241
101300.281
101300.336
101300.387
101300.437
101300.474
101300.526
101300.594
101300.662
101300.722
101300.772
101300.834
101300.898
101300.971
101301.037
101301.093
101301.151
101301.217
101301.302
101301.384
101301.45
101301.506
101301.564
101301.63
101301.719
101301.793
101301.846
101301.907
101301.98
101302.058
101302.132
101302.194
101302.239
101302.298
101302.378
101302.443
101302.489
101302.543
101302.606
101302.674
101302.74
101302.794
101302.829
101302.882
101302.953
101303.008
101303.041
101303.088
101303.163
101303.219
101303.278
101303.359
101303.356
101303.381
101303.441
101303.468
101303.509
101303.568
101303.613
101303.642
101303.693
101303.764
101303.824
101303.872
101303.928
101303.982
101304.043
101304.113
101304.188
101304.26
101304.324
101304.388
101304.476
101304.561
101304.632
101304.716
101304.81
101304.91
101305.015
101305.125
101305.233
101305.33
101305.43
101305.542
101305.681
101305.823
101305.942
101306.072
101306.218
101306.383
101306.558
101306.701
101306.865
101307.065
101307.254
101307.43
101307.615
101307.816
101308.032
101308.257
101308.485
101308.72
101308.933
101309.166
101309.445
101309.729
101309.996
101310.249
101310.521
101310.81
)
;

boundaryField
{
    closed
    {
        type            zeroGradient;
    }
    open
    {
        type            waveTransmissive;
        gamma           1.25;
        fieldInf        101325;
        lInf            1;
        value           nonuniform List<scalar> 0();
    }
    sides
    {
        type            empty;
    }
    procBoundary1to0
    {
        type            processor;
        value           uniform 101448.209;
    }
    procBoundary1to2
    {
        type            processor;
        value           uniform 101311.118;
    }
}


// ************************************************************************* //
