/*--------------------------------*- C++ -*----------------------------------*\
| =========                 |                                                 |
| \\      /  F ield         | OpenFOAM: The Open Source CFD Toolbox           |
|  \\    /   O peration     | Version:  2306                                  |
|   \\  /    A nd           | Website:  www.openfoam.com                      |
|    \\/     M anipulation  |                                                 |
\*---------------------------------------------------------------------------*/
FoamFile
{
    version     2.0;
    format      ascii;
    arch        "LSB;label=32;scalar=64";
    class       volScalarField;
    location    "0.00142";
    object      prefDZ_T;
}
// * * * * * * * * * * * * * * * * * * * * * * * * * * * * * * * * * * * * * //

dimensions      [1 -1 -1 -1 0 0 0];

internalField   nonuniform List<scalar> 
531
(
-1.22995325e-09
-1.22655842e-09
-1.19028806e-09
-1.18837126e-09
-1.22921669e-09
-1.22657076e-09
-1.1934434e-09
-1.18848657e-09
-1.18830352e-09
-1.22808151e-09
-1.22684884e-09
-1.19235738e-09
-1.18737127e-09
-1.18802674e-09
-1.22867725e-09
-1.22643807e-09
-1.18842521e-09
-1.18820838e-09
-1.22950956e-09
-1.22616564e-09
-1.22739853e-09
-1.19080636e-09
-1.18755388e-09
-1.18818869e-09
-1.1885265e-09
-1.18707433e-09
-1.18891744e-09
-1.22791535e-09
-1.22578422e-09
-1.22624179e-09
-1.19400391e-09
-1.19109228e-09
-1.22746707e-09
-1.22567607e-09
-1.19677482e-09
-1.18925031e-09
-1.18896286e-09
-1.18685542e-09
-1.22930783e-09
-1.22743982e-09
-1.18811338e-09
-1.18790661e-09
-1.22907816e-09
-1.22694535e-09
-1.18810327e-09
-1.18740092e-09
-1.22955184e-09
-1.22695987e-09
-1.18774409e-09
-1.18713664e-09
-1.22961321e-09
-1.22670707e-09
-1.22772744e-09
-1.20909091e-09
-1.1854514e-09
-1.1868469e-09
-1.22868754e-09
-1.22654044e-09
-1.18743331e-09
-1.18895963e-09
-1.22769402e-09
-1.19013815e-09
-1.18862401e-09
-1.22843106e-09
-1.2258656e-09
-1.22703008e-09
-1.19235958e-09
-1.18744654e-09
-1.1889403e-09
-1.18695926e-09
-1.22816936e-09
-1.22756812e-09
-1.18883509e-09
-1.18555956e-09
-1.18660055e-09
-1.22892411e-09
-1.22709909e-09
-1.18730669e-09
-1.18650729e-09
-1.22940059e-09
-1.22711916e-09
-1.18746184e-09
-1.18760274e-09
-1.22848141e-09
-1.2269982e-09
-1.2277983e-09
-1.18807138e-09
-1.18623828e-09
-1.2284927e-09
-1.2277802e-09
-1.22706808e-09
-1.22710302e-09
-1.18810576e-09
-1.18634234e-09
-1.18706132e-09
-1.18629514e-09
-1.22776154e-09
-1.22744182e-09
-1.18895124e-09
-1.18748454e-09
-1.1886021e-09
-1.22718817e-09
-1.22567601e-09
-1.19070624e-09
-1.18892802e-09
-1.22710322e-09
-1.22578914e-09
-1.18949286e-09
-1.18852672e-09
-1.22729856e-09
-1.22587447e-09
-1.18937658e-09
-1.18892746e-09
-1.18778585e-09
-1.18944068e-09
-1.22774729e-09
-1.19305284e-09
-1.18632873e-09
-1.20376006e-09
-1.22751626e-09
-1.22581633e-09
-1.1878684e-09
-1.18849997e-09
-1.22738224e-09
-1.22615845e-09
-1.22687968e-09
-1.18806869e-09
-1.1872639e-09
-1.22669232e-09
-1.22667696e-09
-1.19002794e-09
-1.18832797e-09
-1.1949877e-09
-1.22703967e-09
-1.22636126e-09
-1.18813323e-09
-1.18501844e-09
-1.18635862e-09
-1.2281442e-09
-1.22685345e-09
-1.18658712e-09
-1.18884351e-09
-1.22793915e-09
-1.23432636e-09
-1.18680123e-09
-1.18721288e-09
-1.22795958e-09
-1.22670619e-09
-1.18718827e-09
-1.18901097e-09
-1.22788819e-09
-1.22605215e-09
-1.22739907e-09
-1.18903006e-09
-1.1880757e-09
-1.22741206e-09
-1.22657252e-09
-1.21251636e-09
-1.18965968e-09
-1.18921511e-09
-1.18993109e-09
-1.19024262e-09
-1.19898023e-09
-1.18949884e-09
-1.1978442e-09
-1.22620191e-09
-1.19173822e-09
-1.18816554e-09
-1.226433e-09
-1.22638567e-09
-1.18848884e-09
-1.18807258e-09
-1.22711457e-09
-1.2265282e-09
-1.18820073e-09
-1.18883347e-09
-1.22749655e-09
-1.22627857e-09
-1.22772e-09
-1.189259e-09
-1.18550931e-09
-1.18795193e-09
-1.22717178e-09
-1.22716962e-09
-1.18968088e-09
-1.18684342e-09
-1.18899334e-09
-1.22985606e-09
-1.22572154e-09
-1.23184921e-09
-1.189927e-09
-1.1888249e-09
-1.19582893e-09
-1.18900303e-09
-1.19007936e-09
-1.22708493e-09
-1.22568585e-09
-1.22700622e-09
-1.18802055e-09
-1.18657224e-09
-1.22658776e-09
-1.2267233e-09
-1.18817206e-09
-1.18807194e-09
-1.22643688e-09
-1.22667194e-09
-1.18821972e-09
-1.18888597e-09
-1.22605393e-09
-1.22665843e-09
-1.20271026e-09
-1.18877889e-09
-1.18912402e-09
-1.18776376e-09
-1.18907262e-09
-1.22749205e-09
-1.18934105e-09
-1.18780469e-09
-1.22662737e-09
-1.2275372e-09
-1.22665225e-09
-1.18747133e-09
-1.18749413e-09
-1.2281484e-09
-1.22670127e-09
-1.22833297e-09
-1.18866175e-09
-1.18499526e-09
-1.18775969e-09
-1.22749929e-09
-1.22725131e-09
-1.18959195e-09
-1.18668193e-09
-1.18854098e-09
-1.22722392e-09
-1.22674004e-09
-1.18792483e-09
-1.18798635e-09
-1.22609597e-09
-1.22671466e-09
-1.19458445e-09
-1.18886807e-09
-1.19007333e-09
-1.2265815e-09
-1.22687762e-09
-1.18919259e-09
-1.18499741e-09
-1.1870808e-09
-1.22814052e-09
-1.22588938e-09
-1.18556804e-09
-1.19212303e-09
-1.22770102e-09
-1.18996475e-09
-1.18747904e-09
-1.22607372e-09
-1.22683841e-09
-1.18794528e-09
-1.18816438e-09
-1.22633874e-09
-1.2268199e-09
-1.18818973e-09
-1.18831793e-09
-1.22567141e-09
-1.22698257e-09
-1.19421285e-09
-1.18745622e-09
-1.18889492e-09
-1.22754079e-09
-1.22569117e-09
-1.22728437e-09
-1.20525669e-09
-1.18617127e-09
-1.18946846e-09
-1.22757856e-09
-1.18994453e-09
-1.18612996e-09
-1.22692739e-09
-1.22661308e-09
-1.18666605e-09
-1.20604947e-09
-1.22780991e-09
-1.19634936e-09
-1.18536111e-09
-1.18906974e-09
-1.22846539e-09
-1.22641611e-09
-1.22810113e-09
-1.1893644e-09
-1.18629168e-09
-1.18651457e-09
-1.18712245e-09
-1.22838237e-09
-1.22693967e-09
-1.2282582e-09
-1.18896941e-09
-1.18473504e-09
-1.19761622e-09
-1.22883026e-09
-1.22582327e-09
-1.22841415e-09
-1.22644683e-09
-1.18585651e-09
-1.18627947e-09
-1.22822689e-09
-1.18903242e-09
-1.18582808e-09
-1.22711755e-09
-1.22721295e-09
-1.18752038e-09
-1.18761979e-09
-1.22695173e-09
-1.22689165e-09
-1.20538011e-09
-1.18863275e-09
-1.18772322e-09
-1.1880575e-09
-1.22652929e-09
-1.22676558e-09
-1.19784091e-09
-1.18740954e-09
-1.19051237e-09
-1.22726882e-09
-1.19127865e-09
-1.18868502e-09
-1.22801909e-09
-1.22597043e-09
-1.22806386e-09
-1.19237229e-09
-1.18703971e-09
-1.18959957e-09
-1.18887171e-09
-1.2264474e-09
-1.22650335e-09
-1.19251666e-09
-1.18829739e-09
-1.18871198e-09
-1.22620927e-09
-1.22624228e-09
-1.19272792e-09
-1.18785329e-09
-1.18846162e-09
-1.22622503e-09
-1.2260013e-09
-1.1966368e-09
-1.18828203e-09
-1.19879674e-09
-1.22619025e-09
-1.22600153e-09
-1.18929343e-09
-1.18635345e-09
-1.18729607e-09
-1.22652956e-09
-1.22640267e-09
-1.19612319e-09
-1.18832771e-09
-1.19629488e-09
-1.2262716e-09
-1.22597996e-09
-1.19013524e-09
-1.18691304e-09
-1.1881127e-09
-1.22699005e-09
-1.22673068e-09
-1.19004915e-09
-1.18741989e-09
-1.18841276e-09
-1.22703354e-09
-1.22701293e-09
-1.19013713e-09
-1.18679096e-09
-1.18767577e-09
-1.22784454e-09
-1.22684314e-09
-1.18809115e-09
-1.18796585e-09
-1.22765987e-09
-1.22761885e-09
-1.18927853e-09
-1.18459173e-09
-1.18677844e-09
-1.22904547e-09
-1.22659208e-09
-1.22809504e-09
-1.22605955e-09
-1.22714223e-09
-1.19066118e-09
-1.18785118e-09
-1.18771437e-09
-1.18679692e-09
-1.2283991e-09
-1.22841621e-09
-1.18716633e-09
-1.18881839e-09
-1.22734853e-09
-1.2275428e-09
-1.18846304e-09
-1.18813587e-09
-1.22695429e-09
-1.22716799e-09
-1.19430968e-09
-1.18746828e-09
-1.18799688e-09
-1.22738333e-09
-1.22637744e-09
-1.18842069e-09
-1.18826075e-09
-1.22681539e-09
-1.22697138e-09
-1.19328529e-09
-1.18684598e-09
-1.18940236e-09
-1.22790773e-09
-1.1981462e-09
-1.18705837e-09
-1.2262102e-09
-1.22677132e-09
-1.19580968e-09
-1.18867453e-09
-1.19056075e-09
-1.22646708e-09
-1.22584292e-09
-1.19424763e-09
-1.18748645e-09
-1.18806995e-09
-1.22707732e-09
-1.22705266e-09
-1.18940039e-09
-1.18560625e-09
-1.18637419e-09
-1.22759014e-09
-1.22742239e-09
-1.20817674e-09
-1.18740022e-09
-1.19104524e-09
-1.22834257e-09
-1.22518421e-09
-1.22787065e-09
-1.19039044e-09
-1.18362804e-09
-1.18601831e-09
-1.22901069e-09
-1.22638506e-09
-1.22737167e-09
-1.19041134e-09
-1.18767961e-09
-1.22697677e-09
-1.22688222e-09
-1.20091853e-09
-1.1885079e-09
-1.18712053e-09
-1.18694166e-09
-1.22815946e-09
-1.22697337e-09
-1.1898981e-09
-1.18810511e-09
-1.22714503e-09
-1.22664677e-09
-1.19959061e-09
-1.18875624e-09
-1.18709771e-09
-1.18691247e-09
-1.22917343e-09
-1.22721227e-09
-1.18780154e-09
-1.18678629e-09
-1.22925668e-09
-1.22725658e-09
-1.18820991e-09
-1.18747687e-09
-1.2302956e-09
-1.22710612e-09
-1.22387047e-09
-1.18855824e-09
-1.1886397e-09
-1.22836582e-09
-1.22725877e-09
-1.18776422e-09
-1.18616519e-09
-1.22930639e-09
-1.22772052e-09
-1.18665556e-09
-1.18573177e-09
-1.22937672e-09
-1.22754332e-09
-1.22729205e-09
-1.22710234e-09
-1.19430801e-09
-1.18839315e-09
-1.18789933e-09
-1.18811363e-09
-1.22800504e-09
-1.19541417e-09
-1.18762393e-09
-1.22714162e-09
-1.22708703e-09
-1.20304528e-09
-1.18927804e-09
-1.18904939e-09
-1.1867067e-09
-1.18687182e-09
-1.22977381e-09
-1.22739078e-09
-1.22899055e-09
-1.18856998e-09
-1.18720845e-09
-1.23108668e-09
-1.22750334e-09
-1.23002418e-09
-1.1891057e-09
-1.18779003e-09
-1.22890136e-09
-1.22734914e-09
-1.1876197e-09
-1.18742695e-09
-1.22924e-09
-1.22623239e-09
-1.22756896e-09
-1.19467687e-09
-1.18773814e-09
-1.18765256e-09
-1.18754825e-09
-1.22848804e-09
-1.22773534e-09
-1.18904821e-09
-1.1850739e-09
-1.18561604e-09
-1.22821063e-09
-1.22730359e-09
-1.20893151e-09
-1.18820077e-09
)
;

boundaryField
{
    closed
    {
        type            calculated;
        value           nonuniform List<scalar> 0();
    }
    open
    {
        type            calculated;
        value           nonuniform List<scalar> 0();
    }
    sides
    {
        type            empty;
    }
    procBoundary1to0
    {
        type            processor;
        value           uniform -1.18790053e-09;
    }
    procBoundary1to2
    {
        type            processor;
        value           uniform -1.19118964e-09;
    }
}


// ************************************************************************* //
