/*--------------------------------*- C++ -*----------------------------------*\
| =========                 |                                                 |
| \\      /  F ield         | OpenFOAM: The Open Source CFD Toolbox           |
|  \\    /   O peration     | Version:  2306                                  |
|   \\  /    A nd           | Website:  www.openfoam.com                      |
|    \\/     M anipulation  |                                                 |
\*---------------------------------------------------------------------------*/
FoamFile
{
    version     2.0;
    format      ascii;
    arch        "LSB;label=32;scalar=64";
    class       volScalarField;
    location    "0.00042";
    object      T;
}
// * * * * * * * * * * * * * * * * * * * * * * * * * * * * * * * * * * * * * //

dimensions      [0 0 0 1 0 0 0];

internalField   nonuniform List<scalar> 
530
(
338.319884
340.027894
329.027829
324.23174
339.211734
339.853989
329.821334
324.480671
324.664736
340.207732
339.832573
329.178052
321.742605
328.793457
339.71793
331.342792
324.562894
329.129492
339.446839
337.431133
325.863262
325.242137
339.081919
339.820849
330.201522
328.574543
321.631451
321.830622
336.954961
339.577548
331.162587
325.572096
325.613147
339.545925
339.645213
329.834807
323.922629
325.380844
339.521055
340.273953
327.700926
324.891661
339.039493
340.076786
328.193575
324.17621
339.300194
339.579491
330.022621
323.115685
323.204104
339.444013
339.593827
329.985697
322.75908
322.817028
339.440607
339.573628
329.905837
323.233416
323.315986
339.090641
339.938718
329.903789
325.318176
339.404567
339.577936
329.831914
322.225526
322.31757
338.854301
339.951744
329.649902
324.845417
338.966371
340.044364
328.690081
324.368368
339.165015
339.566944
329.637849
321.193133
321.303914
338.722034
339.92352
330.153366
325.372768
338.904997
340.072718
329.239733
324.901124
339.099776
339.657927
329.636328
321.479419
321.552923
338.741524
340.0823
330.095631
325.463494
338.921196
340.319575
329.995307
326.693774
339.026287
340.037386
330.345414
328.761002
328.148994
323.609426
323.740636
338.680316
339.99924
329.83167
327.459454
338.996627
339.804751
329.762279
322.629416
322.723295
338.540751
340.010237
329.821289
326.165092
338.911941
339.712395
329.591615
321.690647
321.859436
338.279328
340.004341
329.808916
324.895409
338.404015
340.07086
328.875493
324.276034
338.252441
340.01746
328.526563
323.911858
338.243629
339.928397
329.035379
324.660522
338.444353
339.523522
329.561134
321.036907
321.022717
338.482456
339.875599
329.375829
324.551787
338.006433
339.897914
328.595136
324.024979
337.721792
339.87827
328.097104
323.491359
337.634633
339.922657
328.148023
323.810687
337.997281
340.066156
329.109162
325.798197
338.438554
339.737095
329.432276
322.354515
323.309999
339.202495
339.773838
329.398862
322.580096
323.29891
339.167668
340.295431
329.429719
327.041656
338.7889
339.796342
329.337837
322.168755
323.16294
339.215707
340.331401
329.305543
326.56163
338.870265
339.749989
329.294797
321.525107
323.174474
339.108732
340.236558
327.94542
324.900863
338.584298
340.141074
327.612121
324.780948
338.710718
340.190595
327.835315
325.69099
339.059019
339.765889
329.164436
321.179771
324.009211
339.370408
340.440011
328.175967
326.300121
339.309116
339.882199
329.080714
322.333199
325.567693
339.538842
340.657157
328.441994
327.127032
339.385299
340.065001
330.460693
328.642044
327.332638
323.961222
326.365475
339.792877
340.552455
328.583298
327.682492
339.823627
339.943121
328.978288
322.130668
326.121261
339.721133
340.535396
326.271323
325.259493
339.708291
340.443148
326.586776
326.32591
340.162383
340.168841
328.843532
322.824951
329.183154
340.174712
339.66834
328.873565
329.473042
329.105692
328.609888
328.930543
340.497488
340.408493
328.78675
322.513998
328.522308
339.839392
340.652364
325.676458
325.603704
340.189862
339.809896
328.989365
322.106927
328.192141
339.71697
340.461373
325.124221
325.532238
340.397626
339.729894
329.035014
322.148513
327.984261
339.708271
340.219008
324.963994
325.609056
339.880224
339.883397
324.249324
325.030614
339.925092
339.730789
324.081643
325.305498
339.957471
339.609314
324.436703
326.27302
340.056043
339.398091
325.748329
328.317619
340.288793
340.028854
329.424185
325.449241
323.554541
328.556742
339.77837
339.915984
324.506281
325.49191
340.424356
339.631745
329.426672
323.876588
329.026984
339.855882
339.298652
324.703238
327.546098
339.86182
338.749246
324.481562
327.34571
339.843078
338.651647
324.02217
327.322511
339.850144
336.857596
324.485259
328.545276
340.069538
339.910307
326.706705
322.521238
329.883541
339.573209
332.445872
324.77639
329.33762
340.249599
339.954711
329.02223
321.529009
329.054695
339.700001
335.019157
326.189275
329.27854
340.153124
340.024328
328.965505
321.742807
328.821228
339.649408
332.963606
326.179814
329.066351
339.960116
339.996639
328.846437
322.295848
328.955429
339.620201
339.694078
328.123955
322.320794
329.024476
339.496999
339.476629
327.84957
322.255758
329.710228
339.55525
329.449188
326.261259
329.57578
339.60837
338.571493
327.714501
322.252438
329.283657
339.244192
332.821931
325.062089
327.620982
339.143589
339.938462
328.978152
324.188303
329.226446
339.251629
338.091729
328.031059
322.748541
329.064327
339.139598
338.270272
328.296054
322.777223
328.957404
338.99916
337.970242
328.349215
323.379504
329.223451
338.968462
336.062482
327.422902
324.309519
332.113719
339.404757
329.008836
325.595785
330.819549
339.324737
330.302019
325.158332
328.722533
338.41006
338.905514
329.152325
324.670308
330.268801
339.043799
333.392053
326.040445
323.298925
331.79926
339.064284
328.900728
326.748028
331.786914
339.390457
332.571615
325.778616
324.062693
333.322867
338.493641
329.145855
327.5613
334.082073
339.633913
330.094646
324.330038
328.016582
337.483957
338.442834
329.447775
326.282986
332.946412
338.930526
328.874159
326.306842
331.835294
333.968308
329.160519
328.614149
338.371202
339.969924
330.033506
324.586064
323.680038
333.846712
334.590672
329.420753
328.747841
338.283606
339.743324
329.474382
323.8302
325.080388
335.721821
334.498399
328.49174
328.737934
338.28922
339.57161
329.237614
323.623164
324.806678
335.605222
334.36234
327.828511
328.510919
338.322231
333.154582
327.502772
328.463119
338.302912
332.766518
327.639822
328.682018
338.407718
338.751331
328.646393
321.93747
328.284761
337.134362
332.987173
328.17886
328.796243
338.302572
338.980326
328.818263
322.843764
328.639587
337.621108
339.27065
328.81137
322.441458
328.302623
337.837763
332.301172
328.033418
328.832775
338.514327
339.132208
328.692049
322.255735
328.590699
337.783173
332.140488
)
;

boundaryField
{
    closed
    {
        type            fixedValue;
        value           nonuniform List<scalar> 0();
    }
    open
    {
        type            zeroGradient;
    }
    sides
    {
        type            empty;
    }
    procBoundary2to1
    {
        type            processor;
        value           uniform 324.445162;
    }
    procBoundary2to3
    {
        type            processor;
        value           uniform 326.800577;
    }
}


// ************************************************************************* //
