/*--------------------------------*- C++ -*----------------------------------*\
| =========                 |                                                 |
| \\      /  F ield         | OpenFOAM: The Open Source CFD Toolbox           |
|  \\    /   O peration     | Version:  2306                                  |
|   \\  /    A nd           | Website:  www.openfoam.com                      |
|    \\/     M anipulation  |                                                 |
\*---------------------------------------------------------------------------*/
FoamFile
{
    version     2.0;
    format      ascii;
    arch        "LSB;label=32;scalar=64";
    class       volScalarField;
    location    "0.00194";
    object      prefDh_H;
}
// * * * * * * * * * * * * * * * * * * * * * * * * * * * * * * * * * * * * * //

dimensions      [1 1 -3 0 0 0 0];

internalField   nonuniform List<scalar> 
531
(
23931.8088
23396.5312
22733.1599
22847.2037
23926.9013
23928.6979
23933.5197
23930.6732
23404.2814
23074.8796
22965.6255
22963.3749
23933.2171
23928.8849
22942.9169
22953.2675
23940.2504
23934.3756
23934.0313
23404.5078
22757.5614
22987.6662
23932.6953
23945.5605
23938.4994
23329.5995
23061.0461
22973.7371
22937.5599
23977.7596
23946.2016
23341.6523
22935.877
23363.7338
23951.7828
23983.6957
23956.1501
23373.1666
23208.6409
23978.6393
23950.3375
23376.2013
23136.472
22944.0343
22963.5686
23953.2388
23944.2705
23947.7453
23397.9518
23028.8964
23948.9668
23933.5082
23215.4419
23241.9943
23942.1408
23414.291
22908.4082
23936.8625
23859.1005
23929.6591
23813.3879
23116.5379
22731.4937
22915.9459
23913.7448
23929.6719
23932.2553
23406.9932
22997.1887
23006.2467
23948.6856
23937.9193
23384.009
22886.6466
23159.9145
23942.4275
23382.7885
22862.1149
23960.1546
23948.5074
23374.7556
23089.4803
23031.1647
23036.8796
23936.513
23938.904
23937.6669
23947.1538
23112.4263
23112.9821
23952.1956
23944.91
23945.5457
23399.2706
22964.8087
22981.625
23943.3688
23930.5969
23389.676
22910.1298
23166.5944
23928.4527
23382.5316
22851.6734
23960.4766
23931.6624
23356.9286
22809.4096
22954.1453
23928.2736
23959.8228
23933.5633
23388.5012
23057.4691
23197.8056
22915.0506
22975.2899
23934.5496
23934.3023
23941.6455
23131.3151
23036.1423
23942.8151
23949.2983
23935.8722
23956.2361
23930.1724
23387.2818
22923.7036
22931.7452
23928.5288
23937.9153
23298.4032
22583.7981
22737.8244
23919.3756
23930.9936
23924.0701
23084.8953
22816.2886
23942.4174
23925.6066
23947.6974
23934.985
23399.976
23059.1175
22892.019
22902.1624
23942.7324
23939.3858
23940.0232
23396.6292
22967.6325
22983.1824
22983.6901
23935.0097
23933.1992
23938.5188
23935.8071
23448.4961
23154.2005
23163.7113
22993.5658
22995.3821
23946.3414
23942.423
23953.7573
23947.7184
23385.4159
23156.6408
22910.5529
22911.6064
23941.0189
23938.3564
23944.3204
23938.8611
23403.1508
23067.0534
22895.0818
22898.336
23929.8808
23925.471
23934.1974
23927.6438
23403.4536
23145.4487
23012.9513
23008.8803
23922.0357
23925.5995
23098.9899
22975.2885
23926.8631
23922.2185
23190.5423
22919.1368
23928.0115
23922.946
23290.9765
22638.4978
22776.9894
23911.3155
23931.1487
23919.2413
23934.0173
23927.1466
23406.5486
23223.7958
23037.516
23037.6384
23927.7268
23937.2571
23072.6727
23072.6746
23936.5506
23949.9508
23934.4199
23381.936
23020.6848
23229.9655
22871.7525
23095.1408
23920.9197
23957.8239
23925.2427
23379.2473
22653.1042
22753.9665
23919.5121
23955.5659
23927.3023
23953.3228
23218.3547
23218.026
23939.7109
23372.4494
22959.1978
23931.5818
23928.0975
23926.9221
23405.9261
22975.2206
22829.9779
22824.7515
23923.8883
23919.2505
23931.6647
23924.8926
23412.719
23041.5223
22880.1782
22883.0717
23928.5736
23936.2415
23929.7482
23397.854
22914.2411
23123.6488
23925.6788
23938.7973
23934.3837
23941.7988
23395.4962
23191.9646
22932.2425
22931.7325
23938.9163
23945.0168
23038.145
22865.7538
23948.201
23938.7675
23371.8352
22960.0967
23080.8067
23929.774
23934.0691
23469.8236
23102.1356
23103.625
23938.4413
23935.6361
23943.1048
23940.1252
23409.0506
23219.6917
22928.9984
22930.1094
23932.7454
23939.5235
22972.9408
22977.5659
23928.129
23922.2933
23926.5559
23512.4711
23101.2314
23059.3668
23053.7084
22863.1125
22871.1318
23929.5883
23938.3342
23936.1694
23316.2041
22972.3825
23960.0862
23941.7507
23382.4359
23939.3089
23962.8584
23267.7596
23191.1352
22881.9301
22883.8193
23939.9384
23940.3858
23944.3765
23242.5723
23141.8831
23948.5255
23310.7694
22890.5381
23936.9805
23941.4912
23938.3334
23391.7142
22950.1495
23949.5239
23936.6536
23395.411
22929.1173
22934.1986
23934.1589
23937.6851
23294.6936
23010.921
23948.8986
23930.0825
23390.0052
22908.0771
22930.4691
23920.232
23944.4383
23193.5031
23065.5639
23926.7541
23932.9225
23094.0874
23098.7196
23928.4566
23928.8999
23927.6736
23446.0027
22913.761
22917.7451
23940.4747
23934.1605
23399.611
22856.9006
22887.1148
23920.6484
23947.284
23202.5528
23042.3244
23927.2173
23943.0695
23168.7726
23122.3128
23929.4348
23941.0371
23159.8902
23163.7321
23937.1741
23411.5797
22858.2871
23940.153
23940.7253
23340.3516
22728.5615
22859.817
23923.7038
23933.749
23929.1402
23227.1881
23115.5534
23933.6524
23933.2551
23933.5732
23399.0297
22948.764
22953.0144
23941.6236
23942.551
23399.9288
22927.8631
22931.3879
23934.6306
23939.302
23402.8006
22871.2084
22876.79
23931.8488
23940.3061
23332.9572
22681.124
22732.8004
23926.9342
23944.5664
23937.7623
23950.4173
23403.3605
23183.8376
23946.052
23948.8929
23386.6154
23318.047
23950.6877
23945.1607
23392.1971
23354.4737
23157.2741
23157.0215
23936.3371
23949.047
23326.1928
23213.4601
23938.0935
23940.3678
23407.8184
23212.8944
22976.2636
22978.9799
23919.3862
23940.7263
22933.8975
22937.96
23923.6703
23947.3376
23928.5401
23952.4324
23187.2066
23187.8955
23941.5502
23334.7021
22924.729
23939.5981
23938.7682
23939.549
23394.2744
22776.6053
23016.2271
23929.306
23235.8569
22944.3303
23930.3427
23930.4936
23930.9327
23399.582
22783.4829
22996.4078
23927.016
23188.159
22883.3467
23928.1044
23934.8069
23932.619
23386.5152
22946.8185
23935.0286
23931.6325
23148.9016
23161.9362
23932.571
23939.5804
23932.5483
23393.0862
23095.0809
22959.6314
22958.5919
23929.8389
23938.2832
22988.2546
22995.0063
23936.9512
23946.9642
23938.8434
23396.8987
23001.7373
23950.2326
23938.9575
23311.664
23160.1341
23949.5329
23941.0369
23396.1031
23201.5997
23029.9615
23030.3281
23931.5831
23947.1702
23160.353
23081.0785
23932.4383
23948.0693
23221.6218
23152.9323
23936.8586
23945.5898
23308.7459
23222.6397
23942.4463
23938.7204
23397.3463
23244.5794
23068.1032
23070.1982
23932.4201
23931.4092
23237.231
22997.0085
23940.8433
23919.8174
23398.3637
22809.0144
22849.7069
23909.6007
23943.6849
23017.1411
23001.102
23919.9656
)
;

boundaryField
{
    closed
    {
        type            calculated;
        value           nonuniform List<scalar> 0();
    }
    open
    {
        type            calculated;
        value           nonuniform List<scalar> 0();
    }
    sides
    {
        type            empty;
    }
    procBoundary3to2
    {
        type            processor;
        value           uniform 23925.5793;
    }
    procBoundary3to4
    {
        type            processor;
        value           uniform 23943.897;
    }
}


// ************************************************************************* //
