/*--------------------------------*- C++ -*----------------------------------*\
| =========                 |                                                 |
| \\      /  F ield         | OpenFOAM: The Open Source CFD Toolbox           |
|  \\    /   O peration     | Version:  2306                                  |
|   \\  /    A nd           | Website:  www.openfoam.com                      |
|    \\/     M anipulation  |                                                 |
\*---------------------------------------------------------------------------*/
FoamFile
{
    version     2.0;
    format      ascii;
    arch        "LSB;label=32;scalar=64";
    class       volScalarField;
    location    "0.00194";
    object      Z;
}
// * * * * * * * * * * * * * * * * * * * * * * * * * * * * * * * * * * * * * //

dimensions      [0 0 0 0 0 0 0];

internalField   nonuniform List<scalar> 
531
(
0.0140926999
0.0147040409
0.0149345493
0.0148941655
0.0140921802
0.0140881107
0.0140805127
0.0140855033
0.0146543791
0.0148193609
0.0148541233
0.0148556689
0.0140946502
0.0140859196
0.0148606294
0.014859004
0.0140918196
0.014077607
0.0140913917
0.0146767274
0.0149260864
0.0148437152
0.0140921263
0.014075367
0.0140825676
0.0147212086
0.0148222415
0.0148442702
0.0148620844
0.0140756125
0.0140832635
0.0147058431
0.0148636329
0.014656287
0.0140807108
0.0140565902
0.0140716415
0.0146982376
0.0147665315
0.0140676335
0.0140747097
0.0146993374
0.014794601
0.0148559487
0.0148530663
0.0140888159
0.0140755184
0.0140861726
0.0146981772
0.0148328413
0.0140793817
0.0140801982
0.0147652923
0.0147603665
0.014086119
0.0146878033
0.0148799799
0.0140862639
0.0141163675
0.0140855076
0.0141510377
0.0148011816
0.014942174
0.0148713936
0.0140980564
0.0140789213
0.0140858919
0.0146529493
0.0148438069
0.0148397551
0.0140773767
0.0140819436
0.0145765593
0.014881546
0.0147802832
0.0140907531
0.0146524107
0.014888075
0.0140743125
0.0140782881
0.0147047987
0.0148118953
0.014829064
0.0148289987
0.0140918774
0.014080525
0.014085279
0.0140773711
0.0148008319
0.0148005377
0.0140879612
0.0140719171
0.0140839105
0.0146448895
0.0148544233
0.0148482676
0.0140793741
0.0140840268
0.0145499168
0.0148759227
0.014779305
0.0140945263
0.014629305
0.0148944939
0.0140743873
0.0140860678
0.0147087451
0.0149093753
0.0148512921
0.0140934053
0.0140704529
0.0140836777
0.0146658588
0.0148252183
0.0147695239
0.0148726773
0.014849329
0.0140917585
0.0140820209
0.014085274
0.0147950617
0.0148274312
0.014095806
0.0140746835
0.0140933243
0.0140684368
0.01408811
0.0146397912
0.0148714468
0.0148624389
0.01408751
0.0140896146
0.0147378038
0.0149828437
0.0149302409
0.0141025018
0.014086978
0.014094696
0.014810735
0.0149066659
0.0140908277
0.0140891352
0.0140790687
0.0140829349
0.0146885052
0.0148248569
0.0148760752
0.0148759883
0.0140940548
0.0140771173
0.0140894655
0.0146510854
0.0148543079
0.0148465973
0.0148477606
0.0140954237
0.0140829107
0.0140852197
0.0140799307
0.0143983897
0.0147870054
0.0147839755
0.0148423627
0.0148421101
0.0140839822
0.0140791475
0.0140728831
0.0140748137
0.0146004917
0.0147867988
0.0148698045
0.0148703711
0.0140943565
0.0140847542
0.0140811569
0.0140827078
0.0146796099
0.0148220975
0.0148772711
0.0148781736
0.014097884
0.0140877691
0.0140835677
0.0140847431
0.0146311884
0.0147957886
0.0148398256
0.0148409617
0.0140969907
0.0140864476
0.0148091925
0.0148533067
0.0140925584
0.0140889474
0.014776054
0.0148729971
0.0140888845
0.0140904449
0.0147412365
0.0149670795
0.0149173996
0.0141028328
0.0140847
0.0140923832
0.0140769033
0.0140810327
0.0146445191
0.0147683278
0.0148308307
0.0148298
0.0140943395
0.0140811522
0.0148166026
0.0148156324
0.0140906916
0.0140707202
0.0140841369
0.0145910117
0.0148389267
0.014755452
0.0148897319
0.0148036249
0.0140980823
0.0140678933
0.0140926145
0.0146297462
0.0149610412
0.0149195092
0.0141001925
0.0140811627
0.0140892432
0.0140773093
0.0147665662
0.0147651246
0.0140892208
0.0147099156
0.0148577485
0.0140926075
0.0140791625
0.014090898
0.0146432821
0.0148554134
0.014900541
0.0149043623
0.0141022116
0.0140920135
0.0140866125
0.014088617
0.0146952447
0.0148320869
0.0148829676
0.0148829109
0.0140983424
0.0140778011
0.0140893722
0.0146440414
0.0148755878
0.0147978205
0.0140911432
0.0140774804
0.0140788636
0.0140759218
0.014560369
0.0147741392
0.0148642727
0.0148625667
0.0140950278
0.0140835411
0.0148242921
0.0148861127
0.0140856662
0.0140858906
0.0147062288
0.014858314
0.0148125116
0.0140884843
0.0140802262
0.0143740598
0.0148064122
0.0148068321
0.0140870538
0.0140785533
0.0140773962
0.0140756599
0.0144714862
0.0147636632
0.0148656498
0.0148635774
0.0140954217
0.0140832018
0.0148504665
0.0148499958
0.0140990496
0.0140862854
0.0140906954
0.0143316602
0.0148075534
0.0148250385
0.0148245202
0.0148901347
0.0148861505
0.0140938468
0.0140792437
0.0140859282
0.0147262725
0.0148520747
0.0140762948
0.0140819481
0.0146775202
0.0140881661
0.0140661271
0.0147466139
0.0147735408
0.0148809417
0.0148801578
0.014092963
0.0140802723
0.0140850405
0.0147542425
0.0147926958
0.0140889641
0.0147316043
0.0148784165
0.0140929267
0.0140774476
0.0140890892
0.014699862
0.0148605026
0.014077593
0.0140819883
0.0146632682
0.0148680598
0.0148624235
0.0140864256
0.0140841932
0.0147360528
0.0148404252
0.014079427
0.0140851019
0.0146540139
0.014877301
0.0148623279
0.0140921611
0.0140810826
0.0147768515
0.0148192997
0.0140933834
0.014081475
0.0148104927
0.0148098156
0.0140958267
0.0140794941
0.0140904611
0.0144084177
0.0148711028
0.0148705781
0.0140849784
0.014086614
0.014688717
0.0148940344
0.0148772071
0.0140926572
0.0140812547
0.0147733472
0.014825714
0.014092482
0.0140787751
0.014784648
0.0147986606
0.0140921033
0.0140774931
0.0147870432
0.0147848536
0.0140899151
0.0144670786
0.0148889194
0.0140836269
0.0140841029
0.0147211476
0.0149354939
0.0148886777
0.01409843
0.0140824903
0.0140889206
0.0147623791
0.014804273
0.0140939915
0.0140752003
0.0140877491
0.0145332057
0.0148597304
0.0148571271
0.0140819192
0.0140819701
0.0146738878
0.0148679669
0.0148635035
0.0140859966
0.0140859445
0.0146822551
0.0148873155
0.0148820992
0.0140887349
0.0140878306
0.0147229697
0.0149504869
0.0149300328
0.0140964914
0.0140847454
0.0140820109
0.0140790289
0.0146772411
0.0147762176
0.0140804061
0.0140725286
0.0147027406
0.0147298205
0.0140777868
0.0140702175
0.0145372862
0.014715808
0.0147873971
0.0147845473
0.0140871104
0.0140745649
0.0147272076
0.0147670847
0.014083384
0.0140760881
0.0146736266
0.014769503
0.0148520208
0.0148483383
0.0141009937
0.0140824594
0.0148658315
0.014860491
0.0141042652
0.0140798054
0.014091875
0.0140760653
0.0147766239
0.014774254
0.0140909249
0.0147205247
0.0148677138
0.0140938098
0.0140765705
0.0140883187
0.0146046239
0.0149191204
0.0148350501
0.0140959615
0.0147579706
0.0148629726
0.0140977771
0.0140784286
0.0140905978
0.0146050042
0.0149177068
0.0148429626
0.0140972541
0.0147753597
0.0148829492
0.014101382
0.0140796784
0.0140937075
0.0147037916
0.0148622449
0.0140890621
0.0140831258
0.0147895367
0.0147866842
0.0140954513
0.0140726156
0.0140869826
0.0145682542
0.0148105673
0.0148554861
0.0148555904
0.014098725
0.0140829054
0.0148447044
0.0148423224
0.0140976195
0.0140741239
0.0140903034
0.0146950813
0.0148421154
0.0140816918
0.0140806115
0.0147279091
0.0147868649
0.0140805253
0.0140770845
0.0146665559
0.0147724552
0.0148310024
0.0148295682
0.0140941633
0.0140785944
0.0147861865
0.0148114468
0.0140920075
0.0140765189
0.0147644719
0.0147870029
0.0140881224
0.0140753357
0.0147326485
0.0147644694
0.0140821732
0.0140760926
0.0146498751
0.0147591265
0.014818393
0.0148184098
0.0140927697
0.0140842281
0.0147573889
0.0148462048
0.0140850257
0.014091307
0.0146845821
0.0149120157
0.0148903527
0.0141001173
0.0140828121
0.0148389202
0.01483934
0.0141048374
)
;

boundaryField
{
    closed
    {
        type            zeroGradient;
    }
    open
    {
        type            zeroGradient;
    }
    sides
    {
        type            empty;
    }
    procBoundary3to2
    {
        type            processor;
        value           uniform 0.0140794648;
    }
    procBoundary3to4
    {
        type            processor;
        value           uniform 0.0140770361;
    }
}


// ************************************************************************* //
