/*--------------------------------*- C++ -*----------------------------------*\
| =========                 |                                                 |
| \\      /  F ield         | OpenFOAM: The Open Source CFD Toolbox           |
|  \\    /   O peration     | Version:  2306                                  |
|   \\  /    A nd           | Website:  www.openfoam.com                      |
|    \\/     M anipulation  |                                                 |
\*---------------------------------------------------------------------------*/
FoamFile
{
    version     2.0;
    format      ascii;
    arch        "LSB;label=32;scalar=64";
    class       surfaceScalarField;
    location    "0.00196";
    object      phi;
}
// * * * * * * * * * * * * * * * * * * * * * * * * * * * * * * * * * * * * * //

dimensions      [1 0 -1 0 0 0 0];

oriented        oriented;

internalField   nonuniform List<scalar> 
529
(
1.73260128e-06
1.73339431e-06
1.73420351e-06
1.7350214e-06
1.73585353e-06
1.73669449e-06
1.73754842e-06
1.73841131e-06
1.73928637e-06
1.74017073e-06
1.74106673e-06
1.74197273e-06
1.74288999e-06
1.74381838e-06
1.74475778e-06
1.74569989e-06
1.74665365e-06
1.74761988e-06
1.74859914e-06
1.74959162e-06
1.75059854e-06
1.75161994e-06
1.75265721e-06
1.75371062e-06
1.75478146e-06
1.75587036e-06
1.75698704e-06
1.75812381e-06
1.7592815e-06
1.7604615e-06
1.76166448e-06
1.76289205e-06
1.76414475e-06
1.76542424e-06
1.76673104e-06
1.76806663e-06
1.76943171e-06
1.77082719e-06
1.77225426e-06
1.77371284e-06
1.77520036e-06
1.77672069e-06
1.77827508e-06
1.77986338e-06
1.78148577e-06
1.78314235e-06
1.78483268e-06
1.78655668e-06
1.7883136e-06
1.79010298e-06
1.79192384e-06
1.79377535e-06
1.79565633e-06
1.79756557e-06
1.79950176e-06
1.80146338e-06
1.80344899e-06
1.80545687e-06
1.80748551e-06
1.80953301e-06
1.81159789e-06
1.81367818e-06
1.81577245e-06
1.81787873e-06
1.81999575e-06
1.82212158e-06
1.82425516e-06
1.82639468e-06
1.82853933e-06
1.83068749e-06
1.83283858e-06
1.8349913e-06
1.83714524e-06
1.83929337e-06
1.84144177e-06
1.84358968e-06
1.84573741e-06
1.84788433e-06
1.85003129e-06
1.85217755e-06
1.85432219e-06
1.85646676e-06
1.85861291e-06
1.86076061e-06
1.86291112e-06
1.86506498e-06
1.86722339e-06
1.86938711e-06
1.87155746e-06
1.87373529e-06
1.875922e-06
1.8781185e-06
1.88032624e-06
1.88254617e-06
1.88477973e-06
1.88702786e-06
1.88929198e-06
1.891573e-06
1.89387227e-06
1.89619062e-06
1.89852932e-06
1.90088909e-06
1.90327109e-06
1.90567592e-06
1.90810458e-06
1.91055755e-06
1.91303565e-06
1.91553919e-06
1.91806885e-06
1.92062474e-06
1.92320735e-06
1.92581663e-06
1.92845287e-06
1.93111583e-06
1.93380565e-06
1.93652188e-06
1.93926449e-06
1.94203288e-06
1.94482687e-06
1.94764571e-06
1.95048908e-06
1.95335612e-06
1.95624643e-06
1.95915904e-06
1.96209348e-06
1.96504877e-06
1.96802439e-06
1.97101933e-06
1.97403312e-06
1.97706478e-06
1.98011387e-06
1.98317947e-06
1.98626126e-06
1.98935841e-06
1.99247069e-06
1.9955974e-06
1.99873846e-06
2.00189329e-06
2.00506196e-06
2.008244e-06
2.01143965e-06
2.01464855e-06
2.01787104e-06
2.02110689e-06
2.02435652e-06
2.02761974e-06
2.03089704e-06
2.03418823e-06
2.03749381e-06
2.04081353e-06
2.04414783e-06
2.04749637e-06
2.05085945e-06
2.05423655e-06
2.05762783e-06
2.06103247e-06
2.06445046e-06
2.0678806e-06
2.07132271e-06
2.07477511e-06
2.07823745e-06
2.0817075e-06
2.08518472e-06
2.08866634e-06
2.09215155e-06
2.0956372e-06
2.09912195e-06
2.10260265e-06
2.10607696e-06
2.10954242e-06
2.11299496e-06
2.11643366e-06
2.11985195e-06
2.12325131e-06
2.12662202e-06
2.1299683e-06
2.1332777e-06
2.13655564e-06
2.13979032e-06
2.14298644e-06
2.1461306e-06
2.14922935e-06
2.15226974e-06
2.15525659e-06
2.15817969e-06
2.16104085e-06
2.16383408e-06
2.1665569e-06
2.16920899e-06
2.17178261e-06
2.17428265e-06
2.17669816e-06
2.17903566e-06
2.18128455e-06
2.18345016e-06
2.18552529e-06
2.18751237e-06
2.18940781e-06
2.19121184e-06
2.19292327e-06
2.19454124e-06
2.19606592e-06
2.19749612e-06
2.19883275e-06
2.20007469e-06
2.20122324e-06
2.20227751e-06
2.20323904e-06
2.20410722e-06
2.20488368e-06
2.20556807e-06
2.20616206e-06
2.20666552e-06
2.2070801e-06
2.20740578e-06
2.20764415e-06
2.20779528e-06
2.20786065e-06
2.20784029e-06
2.20773556e-06
2.20754644e-06
2.2072741e-06
2.20691841e-06
2.20648035e-06
2.20595968e-06
2.20535715e-06
2.20467238e-06
2.20390593e-06
2.20305732e-06
2.20212691e-06
2.20111414e-06
2.20001925e-06
2.19884164e-06
2.19758149e-06
2.19623824e-06
2.19481211e-06
2.19330262e-06
2.19171015e-06
2.19003441e-06
2.18827603e-06
2.18643498e-06
2.18451232e-06
2.18250828e-06
2.18042454e-06
2.1782616e-06
2.17602196e-06
2.17370633e-06
2.17131826e-06
2.1688586e-06
2.16633201e-06
2.16373958e-06
2.16108693e-06
2.15837565e-06
2.15561179e-06
2.15279828e-06
2.14994035e-06
2.1470438e-06
2.14411077e-06
2.14115006e-06
2.13815696e-06
2.13517668e-06
2.13213379e-06
2.12913737e-06
2.12611056e-06
2.12309953e-06
2.12009584e-06
2.11711552e-06
2.11415498e-06
2.1112275e-06
2.1083325e-06
2.10548023e-06
2.10267186e-06
2.09991531e-06
2.09721271e-06
2.09457021e-06
2.09199029e-06
2.08947769e-06
2.08703481e-06
2.0846653e-06
2.08237114e-06
2.08015508e-06
2.07801852e-06
2.07596341e-06
2.07399052e-06
2.07210111e-06
2.0702953e-06
2.0685737e-06
2.06693583e-06
2.06538174e-06
2.0639104e-06
2.06252136e-06
2.06121312e-06
2.05998476e-06
2.05883441e-06
2.05776077e-06
2.05676166e-06
2.05583544e-06
2.05497973e-06
2.05419264e-06
2.0534716e-06
2.05281454e-06
2.05221882e-06
2.05168221e-06
2.05120202e-06
2.05077597e-06
2.05040136e-06
2.05007587e-06
2.04979687e-06
2.04956202e-06
2.0493688e-06
2.0492149e-06
2.04909789e-06
2.049028e-06
2.04899058e-06
2.04898352e-06
2.04900464e-06
2.04905199e-06
2.04912352e-06
2.04921742e-06
2.04933178e-06
2.04946495e-06
2.04961516e-06
2.04978092e-06
2.0499606e-06
2.05015283e-06
2.05035615e-06
2.0505693e-06
2.05079095e-06
2.05101993e-06
2.05125505e-06
2.05149522e-06
2.05173932e-06
2.05198635e-06
2.05223526e-06
2.05248509e-06
2.05273482e-06
2.05298353e-06
2.05323021e-06
2.05347395e-06
2.05371374e-06
2.05394864e-06
2.05417763e-06
2.05439975e-06
2.05461394e-06
2.05481918e-06
2.0550144e-06
2.05519853e-06
2.05537046e-06
2.05552907e-06
2.05567323e-06
2.05580179e-06
2.05591361e-06
2.05600752e-06
2.05608239e-06
2.05613707e-06
2.05617046e-06
2.05618144e-06
2.05616899e-06
2.0561348e-06
2.05607531e-06
2.05598958e-06
2.05587682e-06
2.05573626e-06
2.05556727e-06
2.05536924e-06
2.05514175e-06
2.05488441e-06
2.054597e-06
2.05427937e-06
2.05393152e-06
2.05355356e-06
2.05314573e-06
2.05270837e-06
2.05224197e-06
2.0517471e-06
2.05122449e-06
2.05067492e-06
2.05009932e-06
2.04949868e-06
2.04887408e-06
2.04822669e-06
2.04755772e-06
2.04686846e-06
2.04616023e-06
2.04543437e-06
2.04469226e-06
2.04393528e-06
2.04316482e-06
2.04238226e-06
2.04158893e-06
2.04078617e-06
2.03997526e-06
2.03915745e-06
2.03833392e-06
2.03750581e-06
2.03667419e-06
2.03584008e-06
2.03500442e-06
2.0341681e-06
2.03333195e-06
2.03249671e-06
2.03166309e-06
2.03083172e-06
2.0300032e-06
2.02917807e-06
2.02835683e-06
2.02753995e-06
2.02672786e-06
2.02592098e-06
2.02511969e-06
2.02432442e-06
2.02353549e-06
2.02275335e-06
2.02197832e-06
2.02121088e-06
2.0204701e-06
2.01973769e-06
2.01901405e-06
2.01829973e-06
2.01759518e-06
2.01690098e-06
2.01621764e-06
2.01554579e-06
2.01488601e-06
2.01423892e-06
2.01360517e-06
2.0129854e-06
2.01238027e-06
2.01179043e-06
2.01121654e-06
2.01065924e-06
2.01011916e-06
2.00959692e-06
2.00909309e-06
2.00860824e-06
2.00814287e-06
2.00769746e-06
2.00727245e-06
2.00686821e-06
2.00648507e-06
2.00612329e-06
2.0057831e-06
2.00546462e-06
2.00516794e-06
2.00489309e-06
2.00464001e-06
2.00440858e-06
2.00419864e-06
2.00400993e-06
2.00384215e-06
2.00369492e-06
2.00356782e-06
2.00346017e-06
2.00336613e-06
2.003289e-06
2.00323239e-06
2.00320015e-06
2.00319628e-06
2.00322486e-06
2.00328977e-06
2.00339454e-06
2.00354186e-06
2.00373335e-06
2.00396868e-06
2.0042453e-06
2.00455694e-06
2.00489351e-06
2.0052472e-06
2.00558799e-06
2.0058847e-06
2.00609702e-06
2.0061734e-06
2.00605028e-06
2.00565111e-06
2.00488546e-06
2.00364792e-06
2.00181481e-06
1.99923776e-06
1.99573135e-06
1.99105662e-06
1.98490786e-06
1.97692404e-06
1.96685525e-06
1.95444212e-06
1.93994501e-06
1.92424864e-06
1.90876509e-06
1.89490058e-06
1.88344653e-06
1.87473708e-06
1.86988322e-06
1.87169289e-06
1.88326213e-06
1.90429399e-06
1.92877718e-06
1.9486772e-06
1.96008195e-06
1.96528199e-06
1.97090388e-06
1.98183982e-06
2.00206466e-06
2.02309671e-06
2.04063543e-06
2.05859086e-06
2.04498648e-06
1.96873304e-06
1.83327847e-06
1.71257806e-06
1.63517762e-06
1.53045689e-06
1.42196415e-06
1.45716091e-06
1.66208918e-06
1.9662276e-06
2.26126579e-06
2.51417529e-06
2.61831404e-06
2.51488747e-06
2.22371794e-06
1.83672291e-06
1.52315993e-06
1.50856561e-06
1.76206262e-06
2.11763482e-06
2.40571439e-06
2.43110754e-06
2.26244577e-06
2.2097458e-06
2.18105833e-06
)
;

boundaryField
{
    closed
    {
        type            calculated;
        value           nonuniform List<scalar> 0();
    }
    open
    {
        type            calculated;
        value           uniform 2.0314546e-06;
    }
    sides
    {
        type            empty;
        value           nonuniform List<scalar> 0();
    }
    procBoundary5to4
    {
        type            processor;
        value           uniform -1.73181552e-06;
    }
}


// ************************************************************************* //
