/*--------------------------------*- C++ -*----------------------------------*\
| =========                 |                                                 |
| \\      /  F ield         | OpenFOAM: The Open Source CFD Toolbox           |
|  \\    /   O peration     | Version:  2306                                  |
|   \\  /    A nd           | Website:  www.openfoam.com                      |
|    \\/     M anipulation  |                                                 |
\*---------------------------------------------------------------------------*/
FoamFile
{
    version     2.0;
    format      ascii;
    arch        "LSB;label=32;scalar=64";
    class       volScalarField;
    location    "0.00196";
    object      prefDZ_H;
}
// * * * * * * * * * * * * * * * * * * * * * * * * * * * * * * * * * * * * * //

dimensions      [1 -1 -1 0 0 0 0];

internalField   nonuniform List<scalar> 
530
(
0.000376381715
0.000376579472
0.000376763807
0.000376954851
0.000377132444
0.000377317127
0.000377488443
0.00037766712
0.000377832589
0.000378005608
0.000378165635
0.000378333337
0.000378488301
0.000378651027
0.000378801282
0.000378957087
0.000379095194
0.000379240802
0.00037937476
0.000379516218
0.000379646231
0.000379783727
0.000379909994
0.000380043708
0.000380166421
0.000380296527
0.000380415753
0.000380541948
0.000380657597
0.000380780556
0.000380893198
0.000381013096
0.0003811229
0.00038123991
0.000381347038
0.000381461331
0.000381565942
0.000381677682
0.000381779933
0.000381889276
0.00038198568
0.000382088114
0.000382181396
0.000382281589
0.000382372733
0.000382470757
0.000382559836
0.000382655764
0.000382742847
0.000382836751
0.000382921903
0.000383013852
0.000383097138
0.000383187197
0.000383268681
0.000383356915
0.000383436659
0.00038352313
0.000383601193
0.000383685961
0.000383762404
0.000383845529
0.000383920411
0.000384001949
0.000384075328
0.000384155337
0.00038422727
0.000384305804
0.00038437635
0.000384453463
0.000384522679
0.000384598426
0.000384666367
0.000384742391
0.000384810769
0.000384886311
0.000384953429
0.0003850277
0.000385093619
0.000385166678
0.000385231034
0.000385301248
0.000385363139
0.000385432078
0.000385492751
0.000385560434
0.000385619906
0.000385686351
0.00038574464
0.000385809866
0.000385866986
0.000385931011
0.000385986978
0.000386049818
0.000386104645
0.000386166316
0.000386220016
0.000386280534
0.00038633312
0.000386392499
0.000386443981
0.000386502235
0.000386552625
0.000386609766
0.000386659074
0.000386715115
0.000386763349
0.000386818302
0.000386865472
0.000386919347
0.000386965461
0.00038701827
0.000387063334
0.000387115086
0.00038715911
0.000387209814
0.000387252803
0.000387302468
0.000387344429
0.000387393063
0.000387434003
0.000387481613
0.000387521538
0.000387568131
0.000387607046
0.00038765263
0.00038769054
0.00038773512
0.000387772031
0.000387815614
0.00038785153
0.000387894122
0.000387929048
0.000387970653
0.000388004594
0.000388045218
0.000388078177
0.000388117826
0.000388149808
0.000388188485
0.000388219495
0.000388257205
0.000388287247
0.000388323995
0.000388353072
0.000388388862
0.000388416979
0.000388451815
0.000388478977
0.000388512863
0.000388539074
0.000388572015
0.000388597279
0.000388629279
0.000388653602
0.000388684665
0.000388708052
0.000388738182
0.000388760639
0.00038878984
0.000388811375
0.000388839648
0.000388860271
0.000388887618
0.000388907339
0.000388933759
0.00038895259
0.000388978086
0.000388996036
0.000389020613
0.000389037686
0.000389061362
0.000389077546
0.000389100357
0.000389115624
0.000389137628
0.000389151929
0.000389173205
0.000389186476
0.000389206298
0.000389220389
0.000389238329
0.000389252741
0.00038926865
0.000389283221
0.000389297234
0.000389311835
0.000389324044
0.000389338597
0.000389349046
0.000389363534
0.000389372217
0.00038938621
0.000389393992
0.000389407116
0.000389413922
0.00038942623
0.000389432017
0.000389443524
0.000389448279
0.00038945898
0.000389462709
0.000389472588
0.000389475303
0.000389484343
0.000389486057
0.00038949424
0.000389494969
0.00038950228
0.000389502035
0.00038950846
0.000389507252
0.000389512779
0.00038951062
0.000389515239
0.000389512135
0.000389515838
0.000389511798
0.000389514578
0.000389509608
0.00038951146
0.000389505566
0.000389506484
0.000389499671
0.000389499652
0.000389491925
0.000389490967
0.000389482331
0.000389480431
0.00038947089
0.000389468047
0.000389457605
0.000389453818
0.000389442481
0.00038943775
0.000389425519
0.000389419846
0.000389406726
0.000389400111
0.000389386106
0.000389378551
0.000389363665
0.000389355172
0.00038933941
0.000389329979
0.000389313347
0.000389302978
0.000389285485
0.000389274176
0.000389255833
0.000389243579
0.000389224402
0.000389211196
0.000389191201
0.000389177037
0.000389156239
0.000389141116
0.000389119516
0.000389103454
0.000389081028
0.00038906407
0.00038904077
0.000389023634
0.000388999133
0.000388980555
0.000388955714
0.000388935829
0.000388910534
0.000388889452
0.000388863626
0.000388841426
0.000388815015
0.000388791755
0.000388764726
0.000388740449
0.00038871278
0.000388687518
0.000388659196
0.000388632977
0.000388603993
0.00038857684
0.000388547188
0.000388519123
0.000388488797
0.000388459841
0.00038842884
0.000388399012
0.000388367334
0.000388336653
0.000388304297
0.000388272782
0.00038823975
0.000388207419
0.00038817371
0.000388140582
0.0003881062
0.00038807229
0.000388037238
0.000388002565
0.000387966847
0.000387931425
0.000387895048
0.000387858894
0.000387821862
0.000387784991
0.000387747313
0.00038770974
0.000387671422
0.000387633162
0.000387594214
0.00038755528
0.000387515711
0.000387475622
0.000387434812
0.000387393959
0.000387352542
0.000387311055
0.000387269041
0.000387226935
0.000387184336
0.000387141624
0.000387098452
0.00038705515
0.000387011417
0.000386967538
0.000386923256
0.000386878816
0.000386833998
0.000386789012
0.000386743669
0.000386698152
0.000386652298
0.000386606264
0.000386559914
0.000386513378
0.000386466543
0.000386419521
0.000386372216
0.000386324723
0.000386276962
0.000386229012
0.000386180808
0.000386132418
0.000386083786
0.000386034969
0.000385985925
0.000385936697
0.000385887254
0.000385837631
0.000385787804
0.000385737801
0.000385687605
0.000385637237
0.000385586687
0.000385535969
0.000385485081
0.000385434029
0.000385382818
0.000385331444
0.000385279909
0.000385228209
0.000385176359
0.000385124352
0.000385072202
0.000385019904
0.000384967471
0.000384914899
0.000384862199
0.000384809368
0.000384756418
0.000384703345
0.000384650161
0.000384596862
0.000384543461
0.000384489951
0.000384436349
0.000384382646
0.000384328859
0.000384274979
0.000384221023
0.000384166982
0.000384112873
0.000384058687
0.000384004442
0.000383950127
0.000383895761
0.000383841333
0.000383786862
0.000383732338
0.000383677778
0.000383623172
0.000383568539
0.000383513868
0.000383459177
0.000383404457
0.000383349724
0.000383294969
0.000383240209
0.000383185436
0.000383130665
0.000383075887
0.00038302112
0.000382966354
0.000382911606
0.000382856866
0.000382802152
0.000382747453
0.000382692787
0.000382638144
0.000382583541
0.000382528969
0.000382474442
0.000382419955
0.00038236552
0.000382311132
0.000382256236
0.000382201158
0.000382146152
0.000382091214
0.000382036356
0.000381981571
0.000381926873
0.000381872255
0.00038181773
0.000381763292
0.000381708953
0.000381654708
0.000381600568
0.000381546529
0.0003814926
0.000381438778
0.000381385073
0.000381331481
0.000381278011
0.000381224662
0.000381171439
0.000381118343
0.00038106538
0.000381012549
0.000380959856
0.000380907301
0.00038085489
0.000380802622
0.000380750504
0.000380698534
0.000380646719
0.000380595057
0.000380543556
0.000380492213
0.000380441035
0.000380390021
0.000380339177
0.000380288448
0.000380236039
0.000380180103
0.000380120429
0.000380056784
0.00037998894
0.000379916644
0.000379839654
0.000379757697
0.000379670524
0.000379577847
0.000379479417
0.000379374941
0.000379264178
0.000379146855
0.00037902275
0.0003788916
0.000378753221
0.000378607436
0.000378454157
0.00037829332
0.000378124963
0.000377949193
0.000377766235
0.000377576431
0.00037738027
0.000377178395
0.00037697164
0.000376761018
0.000376547774
0.000376330028
0.000376112275
0.000375896916
0.000375686015
0.000375481761
0.000375286411
0.000375102204
0.000374931256
0.000374775447
0.000374636292
0.000374514813
0.000374411462
0.000374326016
0.000374257628
0.000374204796
0.000374165612
0.000374137699
0.00037411844
0.000374106481
0.000374100227
0.000374095384
0.00037409354
0.000374092017
0.000374091004
0.000374090727
0.000374090543
0.000374090485
0.000374090464
0.000374090458
0.000374090456
0.000374090455
0.000374090455
0.000374090455
0.000374090455
0.000374090455
0.000374090455
0.000374090455
0.000374090455
0.000374090455
0.000374090455
0.000374090455
0.000374090455
0.000374090455
0.000374090455
0.000374090455
0.000374090455
0.000374090455
0.000374090455
)
;

boundaryField
{
    closed
    {
        type            calculated;
        value           nonuniform List<scalar> 0();
    }
    open
    {
        type            calculated;
        value           uniform 0.000374090455;
    }
    sides
    {
        type            empty;
    }
    procBoundary5to4
    {
        type            processor;
        value           uniform 0.000376190123;
    }
}


// ************************************************************************* //
