/*--------------------------------*- C++ -*----------------------------------*\
| =========                 |                                                 |
| \\      /  F ield         | OpenFOAM: The Open Source CFD Toolbox           |
|  \\    /   O peration     | Version:  2306                                  |
|   \\  /    A nd           | Website:  www.openfoam.com                      |
|    \\/     M anipulation  |                                                 |
\*---------------------------------------------------------------------------*/
FoamFile
{
    version     2.0;
    format      ascii;
    arch        "LSB;label=32;scalar=64";
    class       volScalarField;
    location    "0.00052";
    object      H;
}
// * * * * * * * * * * * * * * * * * * * * * * * * * * * * * * * * * * * * * //

dimensions      [0 0 0 0 0 0 0];

internalField   nonuniform List<scalar> 
530
(
2.45077555e-10
8.59066815e-06
1.72280373e-05
3.51293946e-07
1.06344797e-06
8.35526367e-06
8.0286402e-06
7.24450228e-08
5.81221139e-06
8.49572052e-06
8.25622863e-07
2.95744547e-10
9.51946009e-06
8.51566373e-06
3.1874608e-10
3.10017455e-10
1.13357887e-05
8.78596342e-06
3.33975993e-10
3.29196506e-10
1.10214647e-05
8.69762504e-06
3.54226216e-10
3.50678349e-10
1.06974152e-05
8.42703968e-06
3.78654516e-10
3.76685028e-10
1.0298444e-05
8.14313442e-06
4.11268486e-10
4.11248191e-10
9.91620986e-06
8.02036586e-06
4.48719616e-10
4.47988597e-10
8.83743929e-06
8.47167299e-06
4.95888148e-10
4.89355232e-10
7.28820013e-06
8.89622564e-06
5.4578967e-10
5.29592706e-10
5.92777972e-06
9.2064716e-06
2.00022919e-08
5.89765148e-10
4.96212338e-06
9.08642644e-06
9.86930743e-08
6.58525556e-10
4.17232338e-06
8.67428787e-06
1.74915294e-07
7.39521741e-10
3.52634489e-06
7.78839021e-06
1.61540434e-07
2.08882749e-07
3.26067831e-06
4.79197469e-06
5.32932276e-08
1.9634382e-06
3.15692625e-06
6.79987342e-07
1.03924345e-09
3.97293445e-06
3.22549121e-06
1.13461948e-09
1.14275807e-09
5.08537828e-06
3.54510787e-06
1.23956431e-09
1.27203479e-09
5.30497104e-06
3.48427223e-06
1.39462391e-09
1.4348679e-09
4.95780206e-06
3.24775794e-06
1.57135408e-09
1.6135886e-09
4.17027783e-06
2.88260978e-06
1.77483637e-09
1.80599279e-09
2.80033289e-06
2.452726e-06
6.17878738e-07
2.03303478e-09
8.1656978e-07
2.27879331e-06
4.55171324e-06
2.28001944e-09
2.2348208e-09
2.05365992e-06
5.70941661e-06
2.52276017e-09
2.35730606e-09
1.98900183e-06
5.27006584e-06
2.74842845e-09
2.59814498e-09
1.91554738e-06
4.40633856e-06
2.97647072e-09
2.85165749e-09
1.76930797e-06
3.80887517e-06
3.24825948e-09
3.11893918e-09
1.5765434e-06
3.49586007e-06
3.52762545e-09
3.39716236e-09
1.34843224e-06
3.27103072e-06
3.80477228e-09
3.66621808e-09
1.14021363e-06
3.09107458e-06
4.07220238e-09
3.92416735e-09
1.07405333e-06
2.92596264e-06
4.3296883e-09
4.17484832e-09
1.02680488e-06
2.7745752e-06
4.57547979e-09
4.41441699e-09
9.97491901e-07
2.6320934e-06
4.84199065e-09
4.65012109e-09
9.68305986e-07
2.49689678e-06
5.15098426e-09
4.91401247e-09
9.52418025e-07
2.3495399e-06
5.45241859e-09
5.22092032e-09
9.42551163e-07
2.17508518e-06
5.74042204e-09
5.52238402e-09
9.34205091e-07
1.96285262e-06
6.01385359e-09
5.81779414e-09
9.21709653e-07
1.71307911e-06
6.27161649e-09
6.103039e-09
9.03159702e-07
1.45412387e-06
6.51254837e-09
6.3725825e-09
8.87559409e-07
1.35370887e-06
6.73320351e-09
6.64077353e-09
8.90642442e-07
1.20002008e-06
6.92806928e-09
6.92863147e-09
9.35206104e-07
9.3180894e-07
7.09219118e-09
7.25667457e-09
9.91171521e-07
4.6298712e-07
7.24435194e-09
3.67019401e-07
1.01214515e-06
7.5269408e-09
7.40445792e-09
5.94698874e-07
9.8396378e-07
7.64686132e-09
7.55878467e-09
6.20712407e-07
9.2546948e-07
7.782757e-09
7.70720456e-09
5.91931998e-07
8.59063766e-07
7.92485539e-09
7.84894568e-09
5.60535586e-07
7.79545379e-07
8.05350109e-09
7.99883981e-09
5.43589643e-07
6.7798874e-07
8.1629513e-09
8.14815479e-09
5.44164502e-07
5.49200491e-07
8.2501165e-09
8.32752225e-09
5.50735334e-07
3.21782816e-07
8.32554679e-09
1.50788054e-07
5.51322584e-07
8.51026158e-09
8.40345269e-09
2.92826675e-07
5.28481221e-07
8.55380387e-09
8.48014156e-09
3.14066717e-07
4.94526759e-07
8.61251671e-09
8.55212041e-09
3.03221281e-07
4.54902458e-07
8.66680712e-09
8.62057538e-09
2.90287899e-07
4.0585918e-07
8.71363161e-09
8.68726476e-09
2.82080739e-07
3.40102917e-07
8.75060739e-09
8.76126972e-09
2.83793219e-07
2.41712484e-07
8.77437277e-09
1.20962508e-08
2.95961646e-07
5.81000879e-08
8.80094424e-09
1.27669584e-07
2.88522874e-07
8.88013514e-09
8.82938994e-09
1.63967485e-07
2.69626841e-07
8.89601885e-09
8.85772197e-09
1.62399556e-07
2.45196796e-07
8.91389391e-09
8.88453922e-09
1.56257468e-07
2.17737519e-07
8.92808832e-09
8.91111423e-09
1.53204729e-07
1.84319619e-07
8.93859761e-09
8.9402547e-09
1.53738854e-07
1.3764208e-07
8.94361171e-09
8.98159418e-09
1.61160177e-07
5.05405822e-08
8.95128642e-09
6.21683959e-08
1.53649697e-07
8.99142309e-09
8.96090721e-09
8.68807887e-08
1.41620364e-07
8.99307239e-09
8.97075142e-09
8.79801239e-08
1.2783746e-07
8.99719584e-09
8.97986133e-09
8.57854063e-08
1.13954465e-07
9.0006062e-09
8.98806841e-09
8.36957932e-08
1.00261708e-07
9.00291678e-09
8.99568247e-09
8.19002175e-08
8.67374125e-08
9.00345433e-09
9.00303694e-09
8.36374416e-08
6.97784027e-08
9.00378274e-09
9.01783321e-09
8.16691428e-08
3.52493857e-08
9.00540675e-09
2.305225e-08
7.87673786e-08
9.60197137e-09
9.00746813e-09
2.98623971e-08
7.42653956e-08
9.02697321e-09
9.01025523e-09
2.7219579e-08
6.81366903e-08
9.02751464e-09
9.01394551e-09
2.47670977e-08
5.95754329e-08
9.02657905e-09
9.02131465e-09
2.59149854e-08
4.15790496e-08
9.0248116e-09
1.92690447e-08
2.70163215e-08
9.02860324e-09
9.02379605e-09
3.37399303e-08
2.79121578e-08
9.0248994e-09
9.02401413e-09
3.54101561e-08
2.65680326e-08
9.97136693e-09
9.02880417e-09
1.88724018e-08
1.65458881e-08
2.1239869e-08
1.64850834e-08
9.02606396e-09
9.02644219e-09
2.65859849e-08
2.1131606e-08
9.02485868e-09
9.02522897e-09
2.84377367e-08
2.23895279e-08
9.02444201e-09
9.02487614e-09
2.85858714e-08
2.23214124e-08
9.02446063e-09
9.02493264e-09
2.76184011e-08
2.16276722e-08
9.02468635e-09
9.02513577e-09
2.60889273e-08
2.06596297e-08
9.02501978e-09
9.02540581e-09
2.43373486e-08
1.95704378e-08
9.02538614e-09
9.02570277e-09
2.25653037e-08
1.84360547e-08
9.02574536e-09
9.02600416e-09
2.0885318e-08
1.73099468e-08
9.02607834e-09
9.02629854e-09
1.93352412e-08
1.62222561e-08
9.02637963e-09
9.02657843e-09
1.79216867e-08
1.51898327e-08
9.0266554e-09
9.02683821e-09
1.66239391e-08
1.42465207e-08
9.02691469e-09
9.02707832e-09
1.53939072e-08
1.33954516e-08
9.02716333e-09
9.02730084e-09
1.42328112e-08
1.26059916e-08
9.0274011e-09
9.02751175e-09
1.31512013e-08
1.18604076e-08
9.02762519e-09
9.02771265e-09
1.21510358e-08
1.11592769e-08
9.02783884e-09
9.02790595e-09
1.12109736e-08
1.05050492e-08
9.02804017e-09
9.02809444e-09
1.03343197e-08
9.86647446e-09
9.02822088e-09
9.02826764e-09
9.57072656e-09
9.24825226e-09
9.02833967e-09
9.02834165e-09
9.02841459e-09
9.0282618e-09
9.02822381e-09
9.02814028e-09
9.0281195e-09
9.02804562e-09
9.02801769e-09
9.0279614e-09
9.02793457e-09
9.02788568e-09
9.02786168e-09
9.02782097e-09
9.02779938e-09
9.02776532e-09
9.02774593e-09
9.02771742e-09
9.02770019e-09
9.02767626e-09
9.02766104e-09
9.02764094e-09
9.02762758e-09
9.02761067e-09
9.02759899e-09
9.02758475e-09
9.02757458e-09
9.02756259e-09
9.02755376e-09
9.02754365e-09
9.02753602e-09
9.02752749e-09
9.02752091e-09
9.02751373e-09
9.02750806e-09
9.02750201e-09
9.02749714e-09
9.02749204e-09
9.02748787e-09
9.02748358e-09
9.02748002e-09
9.0274764e-09
9.02747336e-09
9.02747032e-09
9.02746773e-09
9.02746517e-09
9.02746297e-09
9.02746082e-09
9.02745895e-09
9.02745714e-09
9.02745555e-09
9.02745398e-09
9.0274525e-09
9.02745101e-09
9.02744961e-09
9.02744826e-09
9.02744698e-09
9.02744578e-09
9.02744466e-09
9.02744364e-09
9.02744269e-09
9.02744187e-09
9.0274411e-09
9.02744047e-09
9.02743989e-09
9.02743944e-09
9.02743902e-09
9.02743871e-09
9.02743846e-09
9.02743826e-09
9.0274381e-09
9.02743799e-09
9.0274379e-09
9.02743785e-09
9.02743781e-09
9.02743778e-09
9.02743777e-09
9.02743776e-09
9.02743775e-09
9.02743775e-09
9.02743775e-09
9.02743775e-09
9.02743775e-09
9.02743774e-09
9.02743774e-09
9.02743774e-09
9.02743774e-09
9.02743774e-09
9.02743774e-09
9.02743774e-09
9.02743774e-09
9.02743774e-09
9.02743774e-09
9.02743774e-09
9.02743774e-09
9.02743774e-09
9.02743774e-09
9.02743774e-09
9.02743774e-09
9.02743774e-09
9.02743774e-09
9.02743774e-09
9.02743774e-09
9.02743774e-09
9.02743774e-09
9.02743774e-09
9.02743774e-09
9.02743774e-09
9.02743774e-09
9.02743774e-09
9.02743774e-09
9.02743774e-09
9.02743774e-09
9.02743774e-09
9.02743774e-09
9.02743774e-09
9.02743774e-09
9.02743774e-09
9.02743774e-09
9.02743774e-09
9.02743774e-09
9.02743774e-09
9.02743774e-09
9.02743774e-09
9.02743774e-09
9.02743774e-09
9.02743774e-09
9.02743774e-09
)
;

boundaryField
{
    closed
    {
        type            calculated;
        value           nonuniform List<scalar> 0();
    }
    open
    {
        type            calculated;
        value           uniform 9.02743774e-09;
    }
    sides
    {
        type            empty;
    }
    procBoundary5to4
    {
        type            processor;
        value           uniform 6.04837678e-07;
    }
}


// ************************************************************************* //
