/*--------------------------------*- C++ -*----------------------------------*\
| =========                 |                                                 |
| \\      /  F ield         | OpenFOAM: The Open Source CFD Toolbox           |
|  \\    /   O peration     | Version:  2306                                  |
|   \\  /    A nd           | Website:  www.openfoam.com                      |
|    \\/     M anipulation  |                                                 |
\*---------------------------------------------------------------------------*/
FoamFile
{
    version     2.0;
    format      ascii;
    arch        "LSB;label=32;scalar=64";
    class       volScalarField;
    location    "0.00052";
    object      prefDZ_H2;
}
// * * * * * * * * * * * * * * * * * * * * * * * * * * * * * * * * * * * * * //

dimensions      [1 -1 -1 0 0 0 0];

internalField   nonuniform List<scalar> 
530
(
0.000174715665
0.000174016529
0.00017382622
0.000174895465
0.000174875188
0.000174291067
0.000174498619
0.000175238471
0.000174696997
0.000174532743
0.000175241261
0.000175453378
0.000174736001
0.00017478151
0.000175736232
0.000175635319
0.000174908215
0.000175025339
0.000175931506
0.000175878474
0.000175189083
0.000175302163
0.000176186025
0.000176149223
0.000175478039
0.000175608108
0.000176463655
0.000176446264
0.000175783146
0.000175934383
0.000176757869
0.000176759611
0.000176102934
0.000176273564
0.000177090812
0.000177088167
0.000176482429
0.000176595981
0.00017749908
0.000177450344
0.000176911864
0.000176940648
0.000177907726
0.000177795822
0.000177355588
0.000177302559
0.000178313275
0.000178188332
0.000177810433
0.000177731142
0.000178694349
0.000178616948
0.000178287243
0.000178191104
0.000179091822
0.000179103571
0.000178774527
0.000178683703
0.000179530085
0.000179653391
0.000179239722
0.00017933931
0.000180006297
0.000179784231
0.000179687775
0.000180163085
0.00018043926
0.00018001617
0.000180110176
0.000180776149
0.00018080819
0.000180364486
0.000180506659
0.000181127602
0.000181213999
0.000180776334
0.000180941511
0.000181539011
0.000181640399
0.000181224309
0.000181393051
0.000181981604
0.000182083315
0.000181694902
0.000181858164
0.000182460692
0.000182534718
0.000182222543
0.000182325287
0.000182767807
0.000182997498
0.000182913695
0.000182756169
0.000182651608
0.000183430022
0.000183356937
0.000183167295
0.000182919097
0.00018383568
0.000183569151
0.000183540675
0.000183330924
0.000184197794
0.000183967527
0.000183905974
0.000183758452
0.000184550397
0.00018436818
0.000184269164
0.000184156704
0.00018489421
0.000184737585
0.000184623461
0.000184520923
0.000185228618
0.000185076666
0.000184966435
0.000184858675
0.000185549233
0.000185393436
0.000185295077
0.000185174235
0.000185848963
0.000185687609
0.000185606588
0.000185468359
0.000186129257
0.000185965216
0.000185896442
0.000185741293
0.000186389706
0.000186223341
0.000186164111
0.000185998139
0.000186631904
0.000186465256
0.000186413745
0.000186238602
0.000186852695
0.000186692772
0.000186643341
0.00018646504
0.000187058531
0.0001869064
0.000186854959
0.000186679416
0.00018724968
0.000187109813
0.000187050685
0.000186883055
0.000187426469
0.000187303369
0.000187232849
0.000187076421
0.000187589158
0.000187485214
0.000187402398
0.000187258323
0.000187737853
0.000187652849
0.00018755684
0.000187433905
0.000187871262
0.000187815803
0.000187691135
0.000187615373
0.000187986863
0.000187986975
0.000187798632
0.000187823434
0.000188082474
0.000188178846
0.000187889676
0.000188097473
0.000188169976
0.000188181588
0.000187980226
0.000188329769
0.000188260598
0.000188193093
0.000188076988
0.000188396082
0.000188346709
0.000188265698
0.000188176102
0.000188470543
0.000188428404
0.00018834925
0.000188269818
0.000188540599
0.000188503915
0.000188425693
0.000188360681
0.000188601456
0.000188575194
0.000188489673
0.00018845235
0.000188652714
0.000188645478
0.000188540604
0.000188547348
0.000188693109
0.000188729504
0.000188582893
0.000188672459
0.000188727808
0.000188753327
0.000188621564
0.000188813374
0.000188763466
0.000188738595
0.000188663648
0.000188832719
0.000188798412
0.000188762291
0.000188705269
0.000188859074
0.000188831008
0.00018879325
0.000188744989
0.000188883328
0.000188861857
0.000188821199
0.000188784602
0.000188904116
0.000188891793
0.000188844152
0.000188827061
0.000188920375
0.000188925045
0.000188860493
0.00018887861
0.000188930562
0.000188967913
0.000188870476
0.000188958155
0.000188942081
0.000188939492
0.000188885234
0.000188977695
0.000188954469
0.000188937383
0.000188902179
0.000188984348
0.000188966827
0.000188947036
0.000188919463
0.000188991955
0.000188978511
0.0001889568
0.000188936426
0.000188997933
0.000188990106
0.000188964157
0.000188954317
0.000189002281
0.0001890029
0.000188969104
0.000188975937
0.000189004158
0.00018902136
0.000188970626
0.000189011137
0.000189007289
0.000189008723
0.000188976703
0.000189025174
0.000189011332
0.000189002839
0.00018898375
0.000189025618
0.000189015506
0.000189004808
0.000188990888
0.000189027221
0.000189019374
0.000189007465
0.000188997614
0.000189028534
0.000189022857
0.000189009677
0.000189003905
0.000189029381
0.000189026092
0.000189011455
0.000189009829
0.000189029448
0.000189029229
0.000189011702
0.000189016744
0.000189029445
0.000189035791
0.000189013054
0.000189029739
0.000189030041
0.000189034369
0.000189014575
0.000189039378
0.000189030848
0.00018903233
0.000189016537
0.000189039585
0.000189031996
0.000189033556
0.000189018978
0.000189039739
0.000189033563
0.000189034619
0.000189022214
0.000189039237
0.000189036823
0.000189034323
0.000189028765
0.000189038369
0.000189036777
0.000189033988
0.000189040018
0.000189037852
0.000189031624
0.000189033691
0.000189038279
0.000189037896
0.000189031031
0.000189034174
0.000189040125
0.000189040032
0.000189036927
0.000189037742
0.000189036051
0.000189037735
0.000189038706
0.000189038888
0.00018903409
0.000189036023
0.000189038139
0.00018903832
0.00018903337
0.000189035516
0.000189037928
0.00018903814
0.000189033256
0.000189035479
0.000189037917
0.000189038145
0.000189033538
0.000189035665
0.000189038002
0.000189038219
0.000189034022
0.000189035949
0.000189038139
0.000189038326
0.000189034587
0.000189036278
0.000189038294
0.000189038448
0.000189035162
0.000189036627
0.000189038447
0.000189038573
0.000189035708
0.000189036976
0.000189038589
0.000189038697
0.000189036211
0.000189037316
0.000189038719
0.000189038816
0.000189036671
0.00018903764
0.000189038838
0.000189038927
0.000189037093
0.000189037936
0.000189038951
0.00018903903
0.000189037495
0.000189038204
0.00018903906
0.000189039127
0.000189037878
0.000189038455
0.000189039165
0.000189039218
0.000189038236
0.000189038693
0.000189039264
0.000189039306
0.000189038569
0.00018903892
0.000189039359
0.000189039391
0.000189038884
0.000189039134
0.000189039448
0.000189039474
0.000189039181
0.000189039346
0.000189039529
0.000189039551
0.00018903944
0.000189039554
0.000189039581
0.000189039582
0.000189039614
0.000189039543
0.000189039525
0.000189039487
0.000189039476
0.000189039442
0.000189039429
0.000189039402
0.00018903939
0.000189039367
0.000189039356
0.000189039337
0.000189039327
0.000189039311
0.000189039302
0.000189039288
0.00018903928
0.000189039269
0.000189039262
0.000189039253
0.000189039247
0.000189039239
0.000189039233
0.000189039227
0.000189039222
0.000189039217
0.000189039212
0.000189039208
0.000189039204
0.0001890392
0.000189039197
0.000189039194
0.000189039191
0.000189039189
0.000189039186
0.000189039184
0.000189039182
0.00018903918
0.000189039179
0.000189039177
0.000189039176
0.000189039174
0.000189039173
0.000189039172
0.000189039171
0.00018903917
0.000189039169
0.000189039168
0.000189039167
0.000189039167
0.000189039166
0.000189039165
0.000189039165
0.000189039164
0.000189039164
0.000189039163
0.000189039163
0.000189039162
0.000189039162
0.000189039161
0.000189039161
0.000189039161
0.00018903916
0.00018903916
0.00018903916
0.00018903916
0.00018903916
0.00018903916
0.00018903916
0.00018903916
0.00018903916
0.00018903916
0.00018903916
0.00018903916
0.00018903916
0.00018903916
0.00018903916
0.00018903916
0.00018903916
0.00018903916
0.00018903916
0.00018903916
0.00018903916
0.00018903916
0.00018903916
0.00018903916
0.00018903916
0.00018903916
0.00018903916
0.00018903916
0.00018903916
0.00018903916
0.00018903916
0.00018903916
0.00018903916
0.00018903916
0.00018903916
0.00018903916
0.00018903916
0.00018903916
0.00018903916
0.00018903916
0.00018903916
0.00018903916
0.00018903916
0.00018903916
0.00018903916
0.00018903916
0.00018903916
0.00018903916
0.00018903916
0.00018903916
0.00018903916
0.00018903916
0.00018903916
0.00018903916
0.00018903916
0.00018903916
0.00018903916
0.00018903916
0.00018903916
0.00018903916
0.00018903916
0.00018903916
0.00018903916
0.00018903916
)
;

boundaryField
{
    closed
    {
        type            calculated;
        value           nonuniform List<scalar> 0();
    }
    open
    {
        type            calculated;
        value           uniform 0.00018903916;
    }
    sides
    {
        type            empty;
    }
    procBoundary5to4
    {
        type            processor;
        value           uniform 0.000174539353;
    }
}


// ************************************************************************* //
