/*--------------------------------*- C++ -*----------------------------------*\
| =========                 |                                                 |
| \\      /  F ield         | OpenFOAM: The Open Source CFD Toolbox           |
|  \\    /   O peration     | Version:  2306                                  |
|   \\  /    A nd           | Website:  www.openfoam.com                      |
|    \\/     M anipulation  |                                                 |
\*---------------------------------------------------------------------------*/
FoamFile
{
    version     2.0;
    format      ascii;
    arch        "LSB;label=32;scalar=64";
    class       volScalarField;
    location    "0.00132";
    object      H2O;
}
// * * * * * * * * * * * * * * * * * * * * * * * * * * * * * * * * * * * * * //

dimensions      [0 0 0 0 0 0 0];

internalField   nonuniform List<scalar> 
531
(
0.0010227975
0.00184551076
0.00641427411
0.00695822142
0.00423446932
0.0009714413
0.00179708215
0.00653409378
0.00704888343
0.00434246947
0.000962823496
0.00196049101
0.00662054485
0.00711286137
0.00438492231
0.00096405021
0.00201765266
0.0066442748
0.00714166729
0.0046732807
0.00097698032
0.00098755094
0.00576716553
0.00689628108
0.00456392406
0.00096522414
0.0019423126
0.00673521268
0.00717859621
0.0043475425
0.000976759497
0.00106673725
0.00258495099
0.00666609747
0.00706854632
0.00725783981
0.00631710195
0.000867606142
0.00104683709
0.0029916647
0.00690527865
0.00726745663
0.00421614883
0.000954452296
0.0026306802
0.0069283488
0.00717201193
0.00391637596
0.000957889693
0.00365514899
0.00650118408
0.00392916032
0.000958022355
0.00403587635
0.00650642392
0.00366506601
0.000960256255
0.00345888274
0.00702726509
0.0069735043
0.00263790798
0.00095752149
0.00394991569
0.00690437154
0.0071170757
0.00699848535
0.00368662441
0.0010206096
0.000930627167
0.00526510158
0.00723868163
0.00697146125
0.00202470935
0.000929336742
0.00457821608
0.00639804986
0.00448972417
0.0010165984
0.000888667339
0.00557016532
0.00728257308
0.00726921222
0.00667625662
0.000808212795
0.000933078609
0.00452344271
0.00689133067
0.00625910778
0.000840888991
0.000905047197
0.0052628749
0.00674393174
0.00522468534
0.000971013862
0.000979684473
0.00398770725
0.0069211728
0.00692027717
0.00699384051
0.00628246852
0.000872491977
0.000990149664
0.00339136875
0.00698589369
0.00659528358
0.000928380446
0.000929820376
0.00430440042
0.00714961305
0.00655826076
0.000820893856
0.000830769598
0.00625798497
0.0063765375
0.000764079559
0.000886702089
0.00547045841
0.00729521688
0.00666118872
0.000843877863
0.000905994588
0.00522340901
0.00728703029
0.00669274889
0.000828878917
0.000925532569
0.00504780007
0.0072925863
0.00675417516
0.000785128495
0.000939932116
0.00482636351
0.00728836373
0.0068223722
0.000989775849
0.000951397057
0.0045339286
0.00727409186
0.00689505084
0.00135870834
0.000954792288
0.00428163258
0.0072788413
0.0067294397
0.000875116993
0.000938144145
0.00570619623
0.00665244681
0.00359480763
0.000953160224
0.00368944997
0.00728889335
0.00675126969
0.000881672906
0.000947556107
0.00572118644
0.00667806534
0.00348884159
0.000946195672
0.00399235995
0.00732893559
0.00686301533
0.000877672137
0.000953207419
0.00537922422
0.00710910611
0.00713059503
0.00695280387
0.00219343055
0.000985638069
0.00331276164
0.00719601831
0.00687339877
0.000879654213
0.00099141759
0.00512951569
0.00671017674
0.00476099836
0.000950548713
0.0024377974
0.00723938733
0.0070662733
0.000849730218
0.000982569649
0.0050782291
0.00675221655
0.00497211762
0.000932322824
0.00216282095
0.00719352871
0.00715843748
0.000816515127
0.0009741395
0.00510881707
0.00679556399
0.00480646058
0.000905511398
0.00285933428
0.00727689809
0.00728283965
0.000758427888
0.000963044778
0.00464525156
0.0072014515
0.00700223249
0.000791175751
0.000984201447
0.0045746535
0.00717485532
0.00705624827
0.000775672868
0.000999452969
0.0042992862
0.0068547236
0.00702414385
0.00609007401
0.000872526432
0.00100669946
0.00516074576
0.00729447923
0.00713916189
0.000971633065
0.00101340736
0.0039204696
0.00669441708
0.00654648404
0.00079594983
0.0010081989
0.00485436162
0.00705629495
0.00678892652
0.000898531376
0.000997927426
0.00491724427
0.00704386868
0.0059046523
0.000828156221
0.000997902465
0.00670123205
0.00687877102
0.00162534421
0.000984287754
0.00492228403
0.007190836
0.00694241678
0.000781781118
0.00099606022
0.00493174543
0.00697565184
0.00652297129
0.000882378698
0.000982458394
0.00520063569
0.00705202001
0.00646466258
0.000915741092
0.000943998916
0.00559218798
0.00694966363
0.00689013038
0.0069908217
0.00617579257
0.000945189251
0.000900611122
0.00592715946
0.00628081819
0.000767192078
0.000815362705
0.00642974691
0.00651659319
0.000757200827
0.00086158973
0.00571169291
0.00687719153
0.00555613823
0.000940778027
0.000828968322
0.006424771
0.00725798318
0.00597804574
0.000890413625
0.00142522294
0.0068495484
0.00668689682
0.000933935459
0.00155411793
0.00648236968
0.00597188174
0.000836595845
0.000826279711
0.00624055204
0.00683467019
0.00508826553
0.000973715292
0.000803827596
0.00653032468
0.00711352734
0.00537402236
0.000944382207
0.000841406626
0.00667582662
0.00717508036
0.00533759452
0.000940595861
0.000975247292
0.00681359256
0.00728066295
0.005452988
0.000906850581
0.00230764499
0.00687488638
0.00620029176
0.000844447275
0.000789737731
0.00653775768
0.00699834483
0.00506073086
0.000940995502
0.00230417036
0.00689085576
0.00621998325
0.000852402337
0.000780896124
0.00663398026
0.00705764398
0.00503078815
0.00094227579
0.00231924284
0.00709790091
0.00649455966
0.000781241813
0.00200482836
0.00668410151
0.00579579825
0.000923422395
0.000824185044
0.0066466481
0.00697392732
0.00494349136
0.000998665373
0.000791626413
0.00693668173
0.00730900481
0.00528414008
0.000973126802
0.00190416766
0.00662379987
0.00577468815
0.000910482959
0.00178005547
0.00721183262
0.00696157233
0.000814050579
0.000838598591
0.00637016362
0.00750882106
0.00621864862
0.000917390477
0.00110549953
0.00673278207
0.0062062129
0.000926700641
0.00116516471
0.00672756625
0.00615500987
0.000953272874
0.000890322053
0.00673828489
0.00749537664
0.00622726287
0.000949187598
0.000755435708
0.00654512306
0.00609986776
0.000979201337
0.000958648288
0.00651516199
0.00733211181
0.0061211222
0.000962434067
0.000966887965
0.00617416714
0.00727913018
0.00622536738
0.000952268514
0.000982090191
0.00595768175
0.00724690889
0.00631947946
0.000935272924
0.000995610802
0.00572527728
0.00719004233
0.00644698073
0.000924919687
0.00100303715
0.00532597817
0.00712599215
0.00726059479
0.00702822625
0.000928296398
0.00108460257
0.0010132196
0.00545854377
0.00732731089
0.00678391577
0.000853171355
0.000984190273
0.0056123175
0.00739972193
0.00695854976
0.000838024349
0.000925119751
0.00607447734
0.00648022738
0.000778667761
0.00100164068
0.00569718999
0.00749411776
0.00720036021
0.000800570668
0.000921591365
0.00614125273
0.00671831693
0.00115102049
0.000936504648
0.00618562198
0.00671648191
0.00111978837
0.000943533954
0.00615110109
0.00662167772
0.000949089174
0.0010020415
0.00552193258
0.00748588519
0.00729935879
0.000787832595
0.000953667366
0.00592476925
0.00649501779
0.000864274856
0.00102928429
0.00520471522
0.00729818818
0.00702254608
0.000824742724
0.00101653113
0.00495038439
0.00729313161
0.00704339368
0.000832341183
0.00101373127
0.00508913216
0.00738775778
0.0071260756
0.0008369529
0.00100575434
0.00531617631
0.00749922852
0.0073166156
0.000837064274
0.000980798364
0.00619633465
0.00659499269
0.000819496119
0.00102637744
0.00559565558
0.00750088266
0.00722332355
0.000841061775
0.00108895476
0.00102860765
0.00433722777
0.00709013362
0.00744681847
0.00715923869
0.000890907579
0.000982429202
0.00553980023
0.00745541449
0.00712741291
0.000930916444
0.000965088007
0.00633679336
0.00641281509
0.000911535211
0.00100665006
0.00579544837
0.00744551395
0.00710808968
0.000931568793
0.000926064207
0.00647202949
0.0065227405
0.000924466777
0.00092281305
0.00647310889
0.00630570018
0.000939277297
0.000982401945
0.00587679216
0.00739679642
0.0066951761
0.000955699806
0.000957761744
0.00570816841
0.00738938809
0.00663164559
0.00096659216
0.000959462637
0.00567475717
0.00734040775
0.00655451862
0.000977155465
0.00096060419
0.00565155333
0.00731235409
0.00648860837
0.000984737976
0.000959081114
0.00567178362
0.00730734161
0.00643911604
0.000990409759
0.000956069125
0.00570840255
0.00730913817
0.00639734902
0.000995278206
0.000953942868
)
;

boundaryField
{
    closed
    {
        type            calculated;
        value           nonuniform List<scalar> 0();
    }
    open
    {
        type            calculated;
        value           nonuniform List<scalar> 0();
    }
    sides
    {
        type            empty;
    }
    procBoundary1to0
    {
        type            processor;
        value           uniform 0.0031802608;
    }
    procBoundary1to2
    {
        type            processor;
        value           uniform 0.00572510761;
    }
}


// ************************************************************************* //
