/*--------------------------------*- C++ -*----------------------------------*\
| =========                 |                                                 |
| \\      /  F ield         | OpenFOAM: The Open Source CFD Toolbox           |
|  \\    /   O peration     | Version:  2306                                  |
|   \\  /    A nd           | Website:  www.openfoam.com                      |
|    \\/     M anipulation  |                                                 |
\*---------------------------------------------------------------------------*/
FoamFile
{
    version     2.0;
    format      ascii;
    arch        "LSB;label=32;scalar=64";
    class       volScalarField;
    location    "0.00062";
    object      T;
}
// * * * * * * * * * * * * * * * * * * * * * * * * * * * * * * * * * * * * * //

dimensions      [0 0 0 1 0 0 0];

internalField   nonuniform List<scalar> 
530
(
339.780809
331.544997
324.808286
324.255119
334.775936
339.732428
331.50225
324.42388
324.236081
334.558426
338.962289
339.62759
338.460511
329.020653
320.841155
321.195225
334.905792
339.652332
331.819033
325.911241
323.467745
329.808627
339.753149
339.725668
329.136409
321.98895
322.064317
334.13313
339.545292
331.485164
324.408439
324.587297
335.261084
339.766035
339.557145
331.54199
328.331162
322.9899
322.979032
332.619936
339.410645
330.85512
323.911594
323.228402
334.770141
339.374553
329.237904
327.578973
335.942354
339.115312
329.375975
327.490575
336.462004
338.779232
329.445437
327.258948
335.665263
339.847721
330.300515
323.187295
324.212406
337.042612
337.979304
329.071055
327.580852
336.666305
339.893356
329.988591
322.990509
325.519931
337.217702
336.952438
327.620251
329.338731
338.018456
335.513764
328.051704
328.75749
337.912332
339.975459
329.401338
322.992815
327.772543
337.342081
334.032746
327.805459
329.119822
338.019955
339.836472
328.94519
323.124097
328.765204
337.701477
331.921577
327.449975
328.824849
338.53287
338.729139
328.694261
323.413867
328.69607
338.02739
337.871731
327.185074
322.352466
330.264153
339.230025
329.165774
325.840275
332.032787
339.19982
332.844195
326.159396
323.827367
332.673015
339.42892
331.762112
325.257284
323.650274
333.67559
339.577132
331.395164
325.151729
323.874544
334.420509
339.674768
331.48615
325.497745
324.362114
334.950663
339.665426
331.198658
325.041504
324.093296
335.732916
340.114041
329.07397
325.284658
334.9455
339.626742
331.036843
324.794495
323.786067
335.548285
339.732424
330.615271
324.147704
323.310995
335.720788
340.031492
329.049461
325.33021
335.044562
339.621508
330.807019
324.442401
323.539312
335.604322
339.696388
330.50883
324.592282
324.284091
336.853639
340.053137
329.067232
325.425583
334.662208
339.480391
330.643496
324.204618
323.326301
335.260839
339.479767
330.4335
323.969601
323.023684
334.740334
339.633929
329.12131
324.201115
333.115477
339.377974
329.030643
323.777003
332.814042
339.363396
329.007304
324.275459
332.867545
339.399827
328.966324
324.951932
333.334862
339.25075
330.622327
323.867825
322.661757
334.031126
339.742069
329.036333
325.143528
333.230884
339.617827
328.9422
325.443329
333.787503
339.418335
330.650288
323.849075
322.718489
334.493035
339.865343
329.024929
324.916824
333.678646
339.75833
328.986683
325.459149
334.383097
339.521114
330.438718
323.702585
322.996746
335.644984
340.025991
329.067811
325.191481
334.971446
339.595271
330.390862
323.784941
323.441795
336.795745
340.134938
329.242875
325.280068
335.748747
339.73334
330.541568
324.218501
324.050417
337.618345
339.838168
329.922515
323.683276
323.70557
338.717735
340.393647
329.359162
325.412907
337.663367
339.756955
330.22909
324.29239
324.312209
338.732431
339.96545
329.850923
324.238814
324.24413
339.383569
340.002409
329.501625
324.014679
325.008569
339.759539
340.079944
329.239405
323.859209
327.898508
339.904312
340.374061
328.816698
322.142941
329.016222
339.704849
330.176413
325.091355
328.763722
339.94273
340.446638
329.002072
322.491354
327.083719
340.024162
340.219037
329.128438
323.050922
328.106252
340.181511
340.378783
328.989773
323.023885
328.935218
340.171354
340.358058
329.089624
322.508862
326.133216
340.201547
340.311967
329.067315
326.475194
329.110684
333.171913
330.54524
329.154789
329.116727
330.338836
330.29542
329.423763
329.369077
329.62739
329.693465
329.606469
329.555833
329.568679
329.584335
329.581587
329.57531
329.574384
329.574407
329.574008
329.57383
329.574201
329.57408
329.573021
329.572796
329.573986
329.574528
329.572995
329.571623
329.573225
329.576017
329.574774
329.569823
329.569966
329.57731
329.578297
329.570843
329.567241
329.573361
329.579988
329.576208
329.567395
329.56861
329.578389
329.578305
329.569943
329.570471
329.583068
329.580001
329.549157
329.55761
329.670198
329.664347
329.391326
329.38958
330.143516
330.235328
329.108357
329.104153
331.29685
332.501986
329.081422
327.047674
331.407007
339.918932
328.90174
322.973667
331.047355
339.54567
329.112279
323.493435
330.367844
339.830394
329.060376
323.494185
330.489936
339.855542
329.031096
323.73766
330.762322
339.839681
329.119111
324.867443
330.695971
339.746238
333.171343
325.164563
322.37069
330.476742
339.647188
329.206381
324.265966
331.321626
339.824598
328.974273
323.710616
331.303734
339.811976
329.049986
324.991814
332.173337
339.651477
331.842364
324.572831
322.746197
331.391877
339.755797
329.169277
324.297456
333.023375
339.926153
329.12984
323.931688
333.276173
339.880915
329.26482
324.729791
334.501411
339.596594
331.86599
324.279303
322.843238
332.598311
339.802276
329.683244
325.076084
338.654939
339.644051
331.154717
323.782069
323.053294
333.453333
339.84227
329.770833
325.017404
339.178726
339.590798
331.289848
323.513619
323.302438
334.694394
339.837497
329.773692
324.987743
338.98594
339.473349
331.716994
322.887516
322.911221
337.263291
339.251912
332.320124
323.013815
322.873998
336.504196
339.214712
332.29551
323.267366
322.986589
336.011789
339.206244
331.959351
323.10901
322.700083
335.226076
339.155338
331.951173
323.059694
322.292753
333.899607
339.551056
329.693927
324.623672
336.004152
339.292719
331.800043
323.673358
322.40721
333.255934
339.588386
329.477558
324.048359
333.969455
339.722875
329.448305
324.060929
333.808966
339.752656
329.164543
325.126667
329.858645
339.593915
339.852583
328.787787
323.272022
328.999905
338.543002
339.979284
330.061753
322.013994
320.785772
330.82459
339.080566
332.20376
324.560282
324.160831
335.197794
339.985422
339.949125
328.450831
321.031999
328.466899
338.622252
332.018601
325.277256
328.364199
338.828589
340.338475
329.527533
323.204778
326.654132
338.557142
340.159922
329.843724
324.114656
326.628135
338.720685
)
;

boundaryField
{
    closed
    {
        type            fixedValue;
        value           nonuniform List<scalar> 0();
    }
    open
    {
        type            zeroGradient;
    }
    sides
    {
        type            empty;
    }
    procBoundary2to1
    {
        type            processor;
        value           uniform 334.71545;
    }
    procBoundary2to3
    {
        type            processor;
        value           uniform 340.148001;
    }
}


// ************************************************************************* //
