/*--------------------------------*- C++ -*----------------------------------*\
| =========                 |                                                 |
| \\      /  F ield         | OpenFOAM: The Open Source CFD Toolbox           |
|  \\    /   O peration     | Version:  2306                                  |
|   \\  /    A nd           | Website:  www.openfoam.com                      |
|    \\/     M anipulation  |                                                 |
\*---------------------------------------------------------------------------*/
FoamFile
{
    version     2.0;
    format      ascii;
    arch        "LSB;label=32;scalar=64";
    class       volScalarField;
    location    "0.00114";
    object      p;
}
// * * * * * * * * * * * * * * * * * * * * * * * * * * * * * * * * * * * * * //

dimensions      [1 -1 -2 0 0 0 0];

internalField   nonuniform List<scalar> 
531
(
102452.155
102459.757
102465.119
102467.224
102468.435
102471.716
102478.333
102486.2
102491.573
102498.048
102508.582
102521.81
102534.529
102543.695
102548.769
102548.595
102541.222
102528.903
102513.597
102499.053
102480.44
102456.825
102426.763
102393.882
102361.218
102329.52
102293.73
102258.06
102221.717
102185.86
102149.489
102112.093
102073.882
102034.488
101994.38
101952.71
101911.331
101870.365
101829.786
101789.95
101752.073
101714.43
101675.163
101636.327
101598.633
101562.924
101528.221
101492.751
101456.671
101421.03
101389.434
101357.309
101323.638
101291.255
101259.755
101229.594
101199.35
101168.075
101137.825
101109.089
101080.58
101055.509
101030.995
101007.935
100986.506
100966.093
100946.531
100929.013
100913.806
100900.844
100890.456
100881.759
100875.004
100870.294
100867.584
100867.146
100868.263
100871.551
100876.114
100881.841
100888.941
100896.801
100906.244
100915.841
100925.57
100935.721
100946.037
100958.228
100971.467
100986.279
101002.473
101019.49
101038.947
101058.557
101079.217
101101.327
101124.725
101148.235
101170.834
101192.865
101215.638
101238.475
101260.738
101282.497
101304.424
101325.398
101346.565
101367.972
101389.327
101409.58
101427.887
101446.261
101464.361
101482.288
101499.581
101515.753
101531.98
101548.943
101567.745
101587.37
101607.183
101627.215
101646.427
101665.629
101684.775
101703.899
101722.231
101738.963
101755.41
101773.636
101794.923
101816.975
101838.918
101859.678
101878.717
101895.735
101909.297
101923.116
101949.304
101974.583
101994.277
102009.184
102021.825
102033.034
102042.057
102048.91
102054.545
102058.744
102061.865
102063.15
102062.746
102061.6
102058.806
102055.431
102050.713
102044.523
102037.372
102027.341
102016.097
102003.302
101989.223
101974.507
101956.498
101937.666
101917.866
101897.355
101876.602
101852.018
101826.847
101801.681
101775.856
101750.538
101724.912
101699.025
101672.974
101647.842
101622.636
101595.995
101569.776
101544.752
101521.417
101498.775
101475.546
101453.187
101431.909
101412.243
101393.434
101373.794
101356.399
101339.904
101324.919
101309.341
101295.162
101282.016
101270.425
101259.29
101248.442
101238.674
101229.95
101222.6
101213.835
101207.015
101200.27
101193.962
101187.642
101182.223
101175.355
101169.366
101163.587
101158.144
101152.061
101146.068
101140.29
101136.832
101126.314
101122.345
101116.521
101110.149
101103.849
101099.331
101091.745
101085.031
101079.196
101073.483
101067.216
101061.159
101055.4
101049.897
101044.545
101039.42
101034.221
101029.347
101025.07
101021.332
101018.044
101015.036
101012.197
101009.453
101006.978
101004.597
101002.076
100999.585
100997.031
100994.444
100991.988
100988.959
100985.633
100982.156
100978.608
100975.121
100970.91
100966.52
100961.841
100956.863
100950.742
100944.149
100937.149
100929.987
100921.815
100913.484
100905.035
100896.772
100887.836
100878.086
100868.154
100858.004
100848.006
100836.964
100825.655
100814.15
100803.038
100791.425
100778.922
100766.344
100753.594
100741.251
100728.053
100714.868
100701.886
100689.977
100678.357
100667.144
100656.97
100647.915
100640.857
100635.025
100630.554
100627.113
100624.385
100623.127
100622.332
100622.051
100622.441
100625.041
100630.506
100640.843
100652.862
100664.781
100677.696
100695.856
100723.672
100751.132
100772.337
100787.746
100797.668
100818.663
100834.499
100847.066
100858.038
100868.642
100879.014
100888.649
100897.086
100904.751
100911.802
100918.217
100923.958
100928.137
100932.595
100934.612
100935.982
100935.636
100933.934
100931.16
100927.114
100922.49
100916.031
100908.096
100899.073
100888.943
100878.976
100867.64
100855.343
100842.267
100828.473
100815.533
100801.753
100787.757
100773.964
100760.882
100748.534
100736.872
100725.424
100714.066
100704.015
100696.869
100690.319
100681.212
100676.028
100674.28
100673.403
100675.136
100679.45
100686.561
100697.089
100711.518
100728.639
100746.525
100765.896
100786.229
100808.001
100830.735
100855.919
100882.978
100911.885
100941.522
100970.445
101000.867
101031.968
101063.629
101093.9
101125.055
101156.761
101188.979
101220.425
101249.342
101278.182
101306.508
101334.173
101358.852
101382.49
101405.316
101427.667
101448.733
101465.497
101481.265
101494.186
101509.473
101517.733
101526.183
101533.127
101539.13
101544.315
101547.793
101551.379
101554.269
101556.742
101557.172
101557.097
101555.869
101554.568
101551.782
101549.348
101546.301
101544.542
101540.887
101538.432
101535.285
101532.148
101529.079
101525.428
101522.009
101516.796
101514.575
101511.889
101512.064
101509.296
101509.389
101507.362
101505.725
101503.776
101501.652
101499.577
101497.288
101495.019
101492.625
101491.468
101489.587
101487.944
101486.182
101484.858
101483.393
101482.092
101480.914
101479.537
101477.946
101475.951
101474.083
101472.009
101469.998
101468.019
101466.199
101464.643
101463.066
101462.021
101460.433
101459.695
101458.029
101457.574
101455.167
101454.457
101451.54
101449.834
101448.03
101446.964
101445.413
101444.097
101442.707
101440.916
101438.82
101435.781
101432.107
101427.902
101423.314
101418.312
101413.043
101407.324
101401.39
101395.391
101389.422
101383.437
101377.719
101372.291
101367.089
101361.934
101356.965
101352.197
101347.722
101343.245
101338.791
101334.979
101331.345
101328.038
101324.802
101321.499
101318.535
101315.469
101312.51
101309.493
101306.378
101303.585
101300.741
101297.904
101295.036
101292.266
101289.407
101286.206
101282.598
101279.048
101275.121
101271.264
101267.255
101262.883
101258.517
101253.997
101249.447
101244.664
101239.628
101234.774
101229.926
101225.241
101220.729
101216.654
101210.451
101206.419
101202.448
101198.426
101193.904
101191.554
101187.826
101184.719
101181.854
101180.074
101176.803
101175.509
101174.073
101173.008
101172.411
101172.44
101172.777
101173.749
)
;

boundaryField
{
    closed
    {
        type            zeroGradient;
    }
    open
    {
        type            waveTransmissive;
        gamma           1.25;
        fieldInf        101325;
        lInf            1;
        value           nonuniform List<scalar> 0();
    }
    sides
    {
        type            empty;
    }
    procBoundary3to2
    {
        type            processor;
        value           uniform 102441.598;
    }
    procBoundary3to4
    {
        type            processor;
        value           uniform 101175.287;
    }
}


// ************************************************************************* //
