/*--------------------------------*- C++ -*----------------------------------*\
| =========                 |                                                 |
| \\      /  F ield         | OpenFOAM: The Open Source CFD Toolbox           |
|  \\    /   O peration     | Version:  2306                                  |
|   \\  /    A nd           | Website:  www.openfoam.com                      |
|    \\/     M anipulation  |                                                 |
\*---------------------------------------------------------------------------*/
FoamFile
{
    version     2.0;
    format      ascii;
    arch        "LSB;label=32;scalar=64";
    class       volScalarField;
    location    "0.00114";
    object      sourcePV;
}
// * * * * * * * * * * * * * * * * * * * * * * * * * * * * * * * * * * * * * //

dimensions      [1 -3 -1 0 0 0 0];

internalField   nonuniform List<scalar> 
531
(
0.00332006195
0.00447237164
0.119801984
0.160929844
0.116635033
0.0034521532
0.00442127367
0.125473738
0.16332719
0.106914153
0.00368379336
0.0204182315
0.127111107
0.104022818
0.00409948786
0.0349828029
0.131554363
0.108562202
0.00425975033
0.00357929133
0.14932032
0.165512507
0.10419175
0.00438176913
0.00418970313
0.14374869
0.164979741
0.113832602
0.00480337743
0.0060336646
0.00468225881
0.00596240017
0.00412597414
0.124649568
0.16210332
0.151246714
0.150597495
0.150817728
0.0992008806
0.00531512928
0.00420284615
0.146809546
0.159233521
0.0995073136
0.00558143722
0.00588112587
0.0350215437
0.152490581
0.156176317
0.0800295601
0.00474741706
0.0496319928
0.135497257
0.0986191018
0.00545772439
0.00360599688
0.15622583
0.162732017
0.153418822
0.108027629
0.00556933784
0.00579465183
0.00446549971
0.00545138033
0.0161977694
0.153975773
0.159262674
0.151136479
0.0951250625
0.00519101818
0.00389236505
0.148882807
0.159694748
0.0956884706
0.00506747792
0.00414939135
0.142342276
0.158811293
0.0971633699
0.00502831563
0.00438484847
0.139050433
0.159192446
0.100120017
0.00494580661
0.0045863963
0.135451835
0.159657275
0.102958836
0.00484365056
0.00475359843
0.130944629
0.159657184
0.105576577
0.00475604704
0.00493893783
0.127099081
0.159709104
0.107778676
0.00468243574
0.00506098739
0.124926446
0.160341686
0.110193049
0.00448280585
0.00506961907
0.12430658
0.162128878
0.113083122
0.00428700303
0.0049112234
0.124058323
0.162845045
0.108477514
0.00338960964
0.00603385263
0.00454845102
0.136837406
0.160453468
0.157151689
0.115279523
0.00406537727
0.00499759973
0.126805269
0.166389611
0.118648689
0.00396402159
0.00404310883
0.119421249
0.122117883
0.00338048402
0.00493301619
0.127570028
0.164909093
0.114905568
0.00393299991
0.00485800759
0.128643875
0.164266639
0.116020299
0.00424562954
0.00435373526
0.117526564
0.119047239
0.00389738259
0.00500169787
0.133886786
0.161616642
0.104531063
0.00457399772
0.00492011392
0.135779746
0.159558755
0.099610342
0.00486264692
0.00495836659
0.139327331
0.158102924
0.0950593829
0.00512669038
0.00490784389
0.143222957
0.15771386
0.0923279614
0.0052529784
0.00456064351
0.150975132
0.159312593
0.145039372
0.102643803
0.00593476963
0.0041777108
0.128081662
0.109749198
0.00599888728
0.00424710195
0.15668212
0.160449725
0.0876310508
0.00563114552
0.00405328492
0.158699614
0.160329361
0.0867064272
0.00567547856
0.00364839825
0.160383984
0.161227178
0.0926280593
0.0058778532
0.00268534149
0.134107753
0.107781237
0.00605656243
0.0028783728
0.160536614
0.161678557
0.0856409453
0.00561847255
0.00291643708
0.160657731
0.160992707
0.0848095195
0.00560839818
0.00277201675
0.160862831
0.16122045
0.0909954409
0.00574113974
0.00743433226
0.133409753
0.106195682
0.00596374733
0.0024604421
0.159884037
0.160868803
0.0873469025
0.00556947234
0.00277969974
0.161747861
0.162294964
0.0911490726
0.00529514976
0.0228956612
0.150063314
0.11650526
0.00502374449
0.00510500182
0.00500791659
0.00281190608
0.154849998
0.160210193
0.147792575
0.152344446
0.14787432
0.149944225
0.101898102
0.00649087292
0.00655355842
0.00363962204
0.131009679
0.156097879
0.0940145173
0.00571224706
0.00351981691
0.156399587
0.163093464
0.105363922
0.00564393691
0.00920722942
0.139079123
0.117802276
0.00573160338
0.0110199477
0.142573053
0.119851916
0.00565651491
0.010435746
0.143043166
0.118344498
0.00555928793
0.00340027122
0.166019537
0.170244252
0.115276301
0.00564621226
0.00496056453
0.138057917
0.1185223
0.0056966755
0.00378198346
0.158153859
0.165839502
0.116126317
0.00581146979
0.00288834638
0.134345798
0.118773122
0.0057856836
0.00425468213
0.149585459
0.162972941
0.115269279
0.00575862875
0.00454837909
0.144288476
0.162814059
0.122285067
0.00592615805
0.00421813327
0.131220683
0.124005529
0.0056266
0.00504906763
0.136397768
0.162518375
0.126465616
0.0056919065
0.00537191447
0.130032538
0.163137304
0.136184523
0.00584017308
0.00595554706
0.128128435
0.132771289
0.00518654385
0.00580110788
0.124256365
0.163022945
0.139721553
0.00538268586
0.00597457579
0.11894961
0.163070956
0.144796486
0.0050296776
0.00642024949
0.120086025
0.134098587
0.00413962647
0.00609297824
0.113937356
0.160052093
0.144553074
0.00465830373
0.00609759611
0.107079212
0.15858311
0.144893537
0.0044486794
0.00611723256
0.101806283
0.155092968
0.147570475
0.00414016281
0.0065335036
0.0995668681
0.119003447
0.00276873959
0.00629830474
0.0960244659
0.140925542
0.141007604
0.140938936
0.148915886
0.148284482
0.00295649805
0.00594224851
0.0877512011
0.15279092
0.154020089
0.00897405573
0.00616004823
0.0998631693
0.133421661
0.0211022393
0.00600996808
0.104782794
0.135447596
0.0228888694
0.00551192728
0.0958889131
0.163603367
0.165656467
0.0203299496
0.00577136217
0.101847007
0.137799797
0.0261640912
0.00542419402
0.0950678411
0.164325287
0.166103837
0.0207472382
0.00574098861
0.102927667
0.138303484
0.0240624099
0.00545514272
0.0973407708
0.166086003
0.166620099
0.0171031023
0.00573763685
0.107549036
0.1411561
0.0187967925
0.00546150832
0.103247601
0.170569767
0.169625931
0.0121250137
0.00565723027
0.113256387
0.146073674
0.0163298276
0.00578048243
0.118402531
0.146422424
0.0137840708
0.00577826682
0.1206245
0.145337635
0.00673024901
0.00544270207
0.111247971
0.174343477
0.168990208
0.00291958974
0.00572160668
0.119134081
0.143537323
0.00240235562
0.00599997334
0.122736502
0.14090676
0.00309401824
0.00569659679
0.109804432
0.166591591
0.160555286
0.00405312169
0.00598621402
0.116290599
0.134991536
0.00388893464
0.00590610607
0.107104627
0.159413836
0.15409785
0.00484875458
0.00590908053
0.106682847
0.147369649
0.159721336
0.15571373
0.00448674729
0.00551070705
0.109334501
0.16824612
0.158834624
0.00430149435
0.00583866192
0.121390026
0.14255884
0.00278018685
0.00595589301
0.124648608
0.145235312
0.00277250227
0.00585570505
0.125145899
0.145956251
0.00232904599
0.00542187082
0.117067847
0.177520006
0.167278382
0.00355516645
0.00565731215
0.122581868
0.148693111
0.0124783538
0.00582537288
0.121673937
0.147952003
0.0108013064
0.00588054067
0.121028438
0.145913304
0.00858420582
0.0059539335
0.120867957
0.142763569
0.00239860791
0.00567512338
0.109669043
0.167910718
0.16362719
0.00472028354
0.00558505941
0.105832449
0.165217307
0.162026899
0.00483279866
0.00554903866
0.103589991
0.167899511
0.157322222
0.00419057792
0.00585447802
0.00539658303
0.00592801097
0.101222791
0.151194459
0.1599944
0.159966706
0.00447321959
0.00569894258
0.102555003
0.159702579
0.158818321
0.00486660399
0.00584326931
0.0999217223
0.15777138
0.157633238
0.00489102442
0.00587026727
0.0984601693
0.156852393
0.156595211
0.00466413424
0.00586521631
0.0985725037
0.158233421
0.157908324
0.00434517371
0.00577896581
0.100825855
0.161585041
0.161287384
0.0040155449
0.00554960341
0.101712811
0.169849233
0.167675415
0.0036999306
0.00551101341
0.00544169436
)
;

boundaryField
{
    closed
    {
        type            calculated;
        value           nonuniform List<scalar> 0();
    }
    open
    {
        type            calculated;
        value           nonuniform List<scalar> 0();
    }
    sides
    {
        type            empty;
    }
    procBoundary3to2
    {
        type            processor;
        value           uniform 0;
    }
    procBoundary3to4
    {
        type            processor;
        value           uniform 0;
    }
}


// ************************************************************************* //
