/*--------------------------------*- C++ -*----------------------------------*\
| =========                 |                                                 |
| \\      /  F ield         | OpenFOAM: The Open Source CFD Toolbox           |
|  \\    /   O peration     | Version:  2306                                  |
|   \\  /    A nd           | Website:  www.openfoam.com                      |
|    \\/     M anipulation  |                                                 |
\*---------------------------------------------------------------------------*/
FoamFile
{
    version     2.0;
    format      ascii;
    arch        "LSB;label=32;scalar=64";
    class       volScalarField;
    location    "0.00062";
    object      H2;
}
// * * * * * * * * * * * * * * * * * * * * * * * * * * * * * * * * * * * * * //

dimensions      [0 0 0 0 0 0 0];

internalField   nonuniform List<scalar> 
531
(
0.0110141278
0.0107845887
0.0106546687
0.0106981488
0.0110575169
0.0108832954
0.0106733499
0.0107705438
0.0110382975
0.0109051449
0.0106782098
0.010680347
0.0110586806
0.0110136692
0.0107981264
0.0106511815
0.0106567034
0.0110684548
0.011016357
0.0110267631
0.0110119669
0.0108379731
0.0106672274
0.0106665024
0.0107831235
0.0108020922
0.0106893272
0.0106847149
0.0110681026
0.0110059736
0.0108379286
0.0106683092
0.0106654064
0.0110414533
0.0110022276
0.0110699115
0.0107206381
0.0106634097
0.0106587045
0.0110705551
0.011015326
0.0107966526
0.0106633827
0.010666932
0.0110653077
0.0110153494
0.0108007667
0.0106604956
0.0106676808
0.0110798976
0.0110175522
0.0110258718
0.0110168386
0.0107974928
0.010671895
0.0106658593
0.0106546038
0.0106704646
0.0110783009
0.0110001843
0.0110077171
0.0107621749
0.0106595094
0.0106792513
0.0110596051
0.01105296
0.010690983
0.0106827082
0.0110666087
0.0110053021
0.0108421095
0.010681732
0.0106691176
0.0106825814
0.0110526158
0.0110100962
0.0107946291
0.0106677269
0.0106781842
0.0110582996
0.0110149009
0.0107088866
0.0106614933
0.0109559692
0.0110187649
0.0108821969
0.0106840593
0.0106729714
0.0108200757
0.0110309572
0.0108627768
0.0106973673
0.0107283642
0.0108410888
0.0108534095
0.010789908
0.0107781224
0.0108028583
0.0108131801
0.0108063136
0.0108009634
0.0108021663
0.0108039512
0.0108038611
0.0108034802
0.0108034572
0.010803478
0.0108034619
0.010803454
0.0108034675
0.0108034844
0.010803498
0.0108034666
0.0108033653
0.0108033875
0.0108036532
0.0108036681
0.0108031805
0.0108030492
0.0108037475
0.0108041815
0.0108033318
0.0108023291
0.0108031551
0.0108050581
0.0108045667
0.0108015001
0.0108013886
0.0108053438
0.0108063077
0.0108025494
0.0108000916
0.0108029344
0.0108070365
0.0108055584
0.0108003147
0.0108002654
0.0108056167
0.0108067134
0.0108030611
0.0108006853
0.0108025627
0.0108055046
0.0108049788
0.0108022742
0.0108020861
0.0108037787
0.0108044254
0.0108036558
0.010802907
0.0108031302
0.0108037123
0.0108037141
0.0108033976
0.0108033376
0.0108034414
0.0108034881
0.0108034739
0.0108034841
0.0108034909
0.0108034179
0.0108033827
0.0108034834
0.010803576
0.0108034882
0.0108033216
0.0108033633
0.0108035989
0.0108036106
0.0108033676
0.010803291
0.0108034718
0.010803622
0.0108035238
0.0108033307
0.0108033521
0.0108035418
0.0108035627
0.0108034413
0.0108033832
0.01080344
0.0108035079
0.0108034932
0.0108034372
0.0108034343
0.0108034645
0.0108034756
0.0108034644
0.0108034531
0.0108034554
0.0108034629
0.0108034633
0.0108034601
0.010803459
0.0108034599
0.0108034608
0.0108034606
0.0108034602
0.0108034601
0.0108034603
0.0108034604
0.0108034603
0.0108034603
0.0108034603
0.0108034603
0.0108034603
0.0108034603
0.0108034603
0.0108034603
0.0108034603
0.0108034603
0.0108034603
0.0108034603
0.0108034603
0.0108034603
0.0108034603
0.0108034603
0.0108034603
0.0108034603
0.0108034603
0.0108034603
0.0108034603
0.0108034603
0.0108034603
0.0108034603
0.0108034603
0.0108034603
0.0108034603
0.0108034603
0.0108034603
0.0108034603
0.0108034603
0.0108034603
0.0108034603
0.0108034603
0.0108034603
0.0108034603
0.0108034603
0.0108034603
0.0108034603
0.0108034603
0.0108034603
0.0108034603
0.0108034603
0.0108034603
0.0108034603
0.0108034602
0.0108034602
0.0108034604
0.0108034605
0.0108034602
0.0108034597
0.0108034603
0.0108034615
0.0108034609
0.0108034579
0.0108034581
0.0108034645
0.0108034651
0.010803455
0.0108034514
0.0108034647
0.0108034749
0.0108034607
0.0108034391
0.0108034499
0.0108034869
0.0108034853
0.0108034332
0.0108034256
0.0108034742
0.0108035012
0.0108034657
0.0108034195
0.0108034356
0.0108034939
0.0108034954
0.0108034419
0.0108034281
0.0108034593
0.0108034848
0.0108034725
0.0108034451
0.0108034451
0.010803467
0.0108034715
0.0108034617
0.0108034525
0.0108034552
0.0108034658
0.0108034668
0.0108034571
0.0108034524
0.0108034604
0.0108034705
0.010803465
0.0108034476
0.0108034486
0.0108034738
0.010803477
0.0108034525
0.0108034404
0.0108034591
0.0108034801
0.0108034707
0.0108034441
0.0108034443
0.0108034703
0.0108034745
0.0108034594
0.0108034498
0.0108034562
0.0108034664
0.0108034655
0.0108034576
0.0108034567
0.0108034604
0.0108034622
0.010803461
0.0108034595
0.0108034596
0.0108034605
0.0108034606
0.0108034603
0.0108034602
0.0108034602
0.0108034603
0.0108034603
0.0108034603
0.0108034603
0.0108034603
0.0108034603
0.0108034603
0.0108034603
0.0108034603
0.0108034603
0.0108034603
0.0108034603
0.0108034603
0.0108034603
0.0108034603
0.0108034602
0.0108034602
0.0108034606
0.0108034606
0.0108034598
0.0108034596
0.010803461
0.0108034618
0.0108034597
0.0108034573
0.01080346
0.0108034657
0.0108034634
0.0108034516
0.0108034516
0.0108034719
0.010803475
0.0108034509
0.0108034384
0.0108034621
0.0108034884
0.0108034718
0.0108034291
0.010803433
0.0108034888
0.0108034951
0.0108034473
0.0108034245
0.0108034546
0.0108034909
0.0108034812
0.0108034381
0.0108034341
0.0108034684
0.0108034877
0.010803469
0.0108034248
0.0108034285
0.0108035227
0.0108035315
0.0108033506
0.0108032924
0.0108036421
0.0108038527
0.0108032141
0.0108025946
0.0108036377
0.010805241
0.010803822
0.0108000353
0.0108014207
0.0108096593
0.0108095776
0.010793489
0.010791937
0.0108159613
0.0108247226
0.0107922486
0.0107713136
0.010806829
0.0108575309
0.0108208736
0.0107432801
0.0107560864
0.0109045672
0.0109099908
0.0107326101
0.0107067642
0.010859515
0.0110340458
0.010825279
0.010693825
0.0107164301
0.0110762961
0.0110611498
0.0107028091
0.010691408
0.010847222
0.0110759055
0.0108464133
0.010712039
0.0107399749
0.0108520868
0.010855942
0.0108136436
0.0108129702
0.0107448192
0.0107129848
0.0108283666
0.0110778819
0.01077776
0.0106754361
0.0108380428
0.0110384953
0.0107763943
0.0106679512
0.0108368709
0.0110382598
0.0108958513
0.0106803757
0.0106764201
0.0110069369
0.0110285596
0.0107379859
0.0106642619
0.0108621912
0.0110350491
0.0107551801
0.010669304
0.0108900371
0.0110307317
0.0107426157
0.0106681581
0.0109162713
0.0110277298
0.0108968293
0.0106708004
0.0106679024
0.0110352885
0.0109857666
0.0106729536
0.0107665955
0.0110415456
0.0108805914
0.0106763881
0.0106990484
0.0110560276
0.0110343407
0.0106943116
0.0106639101
0.010878071
0.0110314752
0.0110388863
0.0106714981
0.0106496421
0.0108775464
0.0110473172
0.0110231582
0.0110534764
0.0107006943
0.010685129
0.0106505977
0.0106481901
0.0109060543
0.0110292236
0.0109993307
0.0106767345
0.0106655848
0.0109543557
0.0110213103
0.0109595879
0.0106828235
0.0106724666
0.0109864736
0.0110195307
0.0109200762
0.0106676692
0.0106574561
0.0109925229
0.0110215546
0.0108633601
0.010665361
0.0106585066
0.0110014381
0.0110214197
0.010893426
0.0106678646
0.0106602006
0.0109671441
0.0110233595
0.0110386282
0.0106618093
0.01065054
0.0109872734
0.011018615
0.0110212826
0.0108722548
0.0106950879
0.01066035
0.0106558152
0.0110054313
0.0110305776
0.0106847684
0.0106607947
0.01103114
0.0110154636
0.0107175449
0.0106647797
0.0110529458
0.0110129764
)
;

boundaryField
{
    closed
    {
        type            calculated;
        value           nonuniform List<scalar> 0();
    }
    open
    {
        type            calculated;
        value           nonuniform List<scalar> 0();
    }
    sides
    {
        type            empty;
    }
    procBoundary3to2
    {
        type            processor;
        value           uniform 0.0110598309;
    }
    procBoundary3to4
    {
        type            processor;
        value           uniform 0.0106923664;
    }
}


// ************************************************************************* //
