/*--------------------------------*- C++ -*----------------------------------*\
| =========                 |                                                 |
| \\      /  F ield         | OpenFOAM: The Open Source CFD Toolbox           |
|  \\    /   O peration     | Version:  2306                                  |
|   \\  /    A nd           | Website:  www.openfoam.com                      |
|    \\/     M anipulation  |                                                 |
\*---------------------------------------------------------------------------*/
FoamFile
{
    version     2.0;
    format      ascii;
    arch        "LSB;label=32;scalar=64";
    class       volScalarField;
    location    "0.00062";
    object      prefDZ_H2O;
}
// * * * * * * * * * * * * * * * * * * * * * * * * * * * * * * * * * * * * * //

dimensions      [1 -1 -1 0 0 0 0];

internalField   nonuniform List<scalar> 
531
(
-7.74538205e-07
-7.49919131e-07
-7.34088553e-07
-7.40038696e-07
-7.78305806e-07
-7.60536502e-07
-7.36331197e-07
-7.48572567e-07
-7.76637421e-07
-7.62782558e-07
-7.36920049e-07
-7.37283939e-07
-7.78407821e-07
-7.74498669e-07
-7.51378946e-07
-7.33623629e-07
-7.34397858e-07
-7.79100903e-07
-7.74732373e-07
-7.75636968e-07
-7.74350452e-07
-7.55726949e-07
-7.36075057e-07
-7.35911554e-07
-7.49805379e-07
-7.51890288e-07
-7.38593361e-07
-7.38166472e-07
-7.79225673e-07
-7.73831669e-07
-7.55694734e-07
-7.35760572e-07
-7.35578083e-07
-7.76481098e-07
-7.73507312e-07
-7.79363785e-07
-7.42697587e-07
-7.34757592e-07
-7.34629603e-07
-7.79439254e-07
-7.74643469e-07
-7.51162875e-07
-7.35124964e-07
-7.35589602e-07
-7.78983345e-07
-7.74646205e-07
-7.51605375e-07
-7.34645367e-07
-7.35628027e-07
-7.80250606e-07
-7.74836789e-07
-7.75559758e-07
-7.74774604e-07
-7.51336818e-07
-7.36156315e-07
-7.35793187e-07
-7.33801324e-07
-7.36141062e-07
-7.80113069e-07
-7.73329162e-07
-7.73987421e-07
-7.4746978e-07
-7.3453778e-07
-7.37087614e-07
-7.78485995e-07
-7.77911426e-07
-7.38531287e-07
-7.37422179e-07
-7.78979013e-07
-7.73774373e-07
-7.56074935e-07
-7.37861325e-07
-7.35820358e-07
-7.37620217e-07
-7.7788067e-07
-7.74189799e-07
-7.50967247e-07
-7.35576245e-07
-7.37058663e-07
-7.78373e-07
-7.7460365e-07
-7.40966923e-07
-7.3505015e-07
-7.67960074e-07
-7.74942887e-07
-7.60347714e-07
-7.37948544e-07
-7.36250721e-07
-7.53885224e-07
-7.75999389e-07
-7.58379807e-07
-7.39509282e-07
-7.43389305e-07
-7.56062122e-07
-7.5739301e-07
-7.50519444e-07
-7.49219784e-07
-7.5197857e-07
-7.53113446e-07
-7.52371968e-07
-7.51792612e-07
-7.5192754e-07
-7.52126201e-07
-7.52117903e-07
-7.52078196e-07
-7.52076506e-07
-7.52079815e-07
-7.52078545e-07
-7.52078125e-07
-7.52079947e-07
-7.52082e-07
-7.52083685e-07
-7.52080354e-07
-7.52069399e-07
-7.52071876e-07
-7.52100959e-07
-7.52102612e-07
-7.52049394e-07
-7.52035062e-07
-7.52111339e-07
-7.52158725e-07
-7.52065965e-07
-7.51956411e-07
-7.52046668e-07
-7.52254366e-07
-7.52200773e-07
-7.51865763e-07
-7.51853554e-07
-7.52285535e-07
-7.52390561e-07
-7.51980502e-07
-7.51711561e-07
-7.52022567e-07
-7.52469918e-07
-7.5230892e-07
-7.51736008e-07
-7.51730614e-07
-7.52315279e-07
-7.52434748e-07
-7.52036414e-07
-7.51776588e-07
-7.5198196e-07
-7.52303053e-07
-7.52245736e-07
-7.51950417e-07
-7.51929855e-07
-7.5211478e-07
-7.52185368e-07
-7.52101365e-07
-7.52019582e-07
-7.5204397e-07
-7.52107535e-07
-7.52107732e-07
-7.52073178e-07
-7.5206662e-07
-7.52077958e-07
-7.52083062e-07
-7.52081506e-07
-7.52082616e-07
-7.52083363e-07
-7.52075391e-07
-7.52071546e-07
-7.52082542e-07
-7.52092655e-07
-7.52083067e-07
-7.52064869e-07
-7.52069428e-07
-7.52095151e-07
-7.52096433e-07
-7.52069895e-07
-7.52061528e-07
-7.52081281e-07
-7.52097674e-07
-7.52086956e-07
-7.52065871e-07
-7.5206821e-07
-7.52088919e-07
-7.52091202e-07
-7.52077948e-07
-7.52071597e-07
-7.52077807e-07
-7.52085215e-07
-7.52083618e-07
-7.52077499e-07
-7.52077178e-07
-7.52080485e-07
-7.52081696e-07
-7.52080467e-07
-7.52079235e-07
-7.52079482e-07
-7.52080305e-07
-7.52080346e-07
-7.5208e-07
-7.52079875e-07
-7.52079976e-07
-7.52080073e-07
-7.52080058e-07
-7.52080008e-07
-7.52080005e-07
-7.52080022e-07
-7.52080027e-07
-7.52080023e-07
-7.5208002e-07
-7.5208002e-07
-7.52080022e-07
-7.52080022e-07
-7.52080022e-07
-7.52080021e-07
-7.52080021e-07
-7.52080022e-07
-7.52080022e-07
-7.52080022e-07
-7.52080022e-07
-7.52080022e-07
-7.52080022e-07
-7.52080022e-07
-7.52080022e-07
-7.52080022e-07
-7.52080022e-07
-7.52080022e-07
-7.52080022e-07
-7.52080022e-07
-7.52080022e-07
-7.52080022e-07
-7.52080022e-07
-7.52080022e-07
-7.52080022e-07
-7.52080022e-07
-7.52080022e-07
-7.52080022e-07
-7.52080022e-07
-7.52080022e-07
-7.52080022e-07
-7.52080022e-07
-7.52080022e-07
-7.52080022e-07
-7.52080022e-07
-7.52080022e-07
-7.52080021e-07
-7.52080021e-07
-7.52080022e-07
-7.52080022e-07
-7.52080021e-07
-7.52080021e-07
-7.52080024e-07
-7.52080024e-07
-7.52080016e-07
-7.52080013e-07
-7.52080032e-07
-7.52080045e-07
-7.52080009e-07
-7.52079961e-07
-7.52080021e-07
-7.52080154e-07
-7.52080085e-07
-7.52079758e-07
-7.52079787e-07
-7.52080476e-07
-7.52080543e-07
-7.52079444e-07
-7.52079052e-07
-7.52080501e-07
-7.52081613e-07
-7.5208006e-07
-7.52077709e-07
-7.52078882e-07
-7.52082923e-07
-7.52082756e-07
-7.52077064e-07
-7.52076232e-07
-7.52081544e-07
-7.52084488e-07
-7.52080615e-07
-7.52075566e-07
-7.5207732e-07
-7.52083689e-07
-7.52083852e-07
-7.52078014e-07
-7.52076506e-07
-7.52079914e-07
-7.52082703e-07
-7.52081354e-07
-7.52078361e-07
-7.52078365e-07
-7.52080753e-07
-7.52081242e-07
-7.52080174e-07
-7.52079173e-07
-7.52079465e-07
-7.52080623e-07
-7.52080728e-07
-7.52079676e-07
-7.52079158e-07
-7.52080033e-07
-7.52081141e-07
-7.52080533e-07
-7.52078634e-07
-7.52078743e-07
-7.52081494e-07
-7.52081842e-07
-7.52079166e-07
-7.52077853e-07
-7.52079887e-07
-7.52082184e-07
-7.52081155e-07
-7.52078249e-07
-7.5207827e-07
-7.52081118e-07
-7.52081573e-07
-7.52079923e-07
-7.52078879e-07
-7.52079578e-07
-7.52080693e-07
-7.52080586e-07
-7.52079728e-07
-7.52079633e-07
-7.52080031e-07
-7.52080231e-07
-7.52080103e-07
-7.52079933e-07
-7.52079949e-07
-7.52080048e-07
-7.52080058e-07
-7.52080024e-07
-7.52080007e-07
-7.52080015e-07
-7.52080026e-07
-7.52080025e-07
-7.52080021e-07
-7.5208002e-07
-7.52080021e-07
-7.52080022e-07
-7.52080022e-07
-7.52080021e-07
-7.52080022e-07
-7.52080022e-07
-7.52080021e-07
-7.5208002e-07
-7.52080022e-07
-7.52080026e-07
-7.52080024e-07
-7.5208001e-07
-7.52080011e-07
-7.5208005e-07
-7.52080052e-07
-7.52079971e-07
-7.52079946e-07
-7.52080094e-07
-7.52080186e-07
-7.52079957e-07
-7.52079693e-07
-7.52079985e-07
-7.52080612e-07
-7.52080365e-07
-7.52079076e-07
-7.52079067e-07
-7.52081292e-07
-7.52081628e-07
-7.52078992e-07
-7.52077635e-07
-7.52080217e-07
-7.52083088e-07
-7.52081281e-07
-7.52076614e-07
-7.52077036e-07
-7.52083133e-07
-7.52083826e-07
-7.52078603e-07
-7.52076114e-07
-7.52079396e-07
-7.52083368e-07
-7.52082304e-07
-7.52077594e-07
-7.52077156e-07
-7.52080911e-07
-7.52083014e-07
-7.52080977e-07
-7.52076144e-07
-7.52076554e-07
-7.52086837e-07
-7.52087799e-07
-7.52068041e-07
-7.52061687e-07
-7.52099868e-07
-7.52122853e-07
-7.52053128e-07
-7.51985415e-07
-7.5209939e-07
-7.52274237e-07
-7.521195e-07
-7.51705162e-07
-7.51856991e-07
-7.52754576e-07
-7.52745823e-07
-7.50984814e-07
-7.50813111e-07
-7.53436662e-07
-7.54378297e-07
-7.50848314e-07
-7.48502049e-07
-7.52447482e-07
-7.57856507e-07
-7.53963871e-07
-7.45242002e-07
-7.46744066e-07
-7.6273852e-07
-7.63292169e-07
-7.43981184e-07
-7.40591125e-07
-7.58081042e-07
-7.75745649e-07
-7.54433729e-07
-7.38589667e-07
-7.41842365e-07
-7.79938774e-07
-7.78413186e-07
-7.4016637e-07
-7.38226767e-07
-7.56774834e-07
-7.79905723e-07
-7.56690434e-07
-7.4126388e-07
-7.44841131e-07
-7.57254253e-07
-7.57676294e-07
-7.53110147e-07
-7.53033169e-07
-7.45307934e-07
-7.41251721e-07
-7.54703826e-07
-7.80048773e-07
-7.49223619e-07
-7.36426959e-07
-7.55869631e-07
-7.76654321e-07
-7.48994082e-07
-7.35738783e-07
-7.55801803e-07
-7.76633948e-07
-7.61791343e-07
-7.37039216e-07
-7.36535572e-07
-7.73075364e-07
-7.75791622e-07
-7.44559029e-07
-7.35233034e-07
-7.5838575e-07
-7.76355528e-07
-7.46517058e-07
-7.35898118e-07
-7.61268742e-07
-7.75980868e-07
-7.45073705e-07
-7.35757143e-07
-7.63956599e-07
-7.75720843e-07
-7.61884708e-07
-7.35962238e-07
-7.35565594e-07
-7.75871147e-07
-7.70965063e-07
-7.36391031e-07
-7.48155726e-07
-7.76919041e-07
-7.60241872e-07
-7.36686975e-07
-7.39805077e-07
-7.78173335e-07
-7.76293328e-07
-7.39379207e-07
-7.34989186e-07
-7.60016784e-07
-7.76045268e-07
-7.76688198e-07
-7.36411444e-07
-7.33192314e-07
-7.60001777e-07
-7.774165e-07
-7.75324553e-07
-7.77952817e-07
-7.39843734e-07
-7.37406185e-07
-7.33460557e-07
-7.33192015e-07
-7.62906212e-07
-7.75850387e-07
-7.7235944e-07
-7.36781063e-07
-7.35274921e-07
-7.67800405e-07
-7.75164881e-07
-7.68345915e-07
-7.37487117e-07
-7.36182674e-07
-7.71018589e-07
-7.75010414e-07
-7.64294971e-07
-7.35710443e-07
-7.3449027e-07
-7.71611983e-07
-7.75185256e-07
-7.58356685e-07
-7.35372717e-07
-7.34621741e-07
-7.72506219e-07
-7.75174057e-07
-7.61520376e-07
-7.35601835e-07
-7.34705728e-07
-7.69086803e-07
-7.75342292e-07
-7.76666127e-07
-7.35124729e-07
-7.33422219e-07
-7.71081088e-07
-7.74931319e-07
-7.75162147e-07
-7.59302975e-07
-7.390025e-07
-7.34591553e-07
-7.34178368e-07
-7.72916354e-07
-7.75966427e-07
-7.37932377e-07
-7.34845821e-07
-7.75478753e-07
-7.74657106e-07
-7.41748592e-07
-7.35553489e-07
-7.77590602e-07
-7.74439594e-07
)
;

boundaryField
{
    closed
    {
        type            calculated;
        value           nonuniform List<scalar> 0();
    }
    open
    {
        type            calculated;
        value           nonuniform List<scalar> 0();
    }
    sides
    {
        type            empty;
    }
    procBoundary3to2
    {
        type            processor;
        value           uniform -7.78507032e-07;
    }
    procBoundary3to4
    {
        type            processor;
        value           uniform -7.38823059e-07;
    }
}


// ************************************************************************* //
