/*--------------------------------*- C++ -*----------------------------------*\
| =========                 |                                                 |
| \\      /  F ield         | OpenFOAM: The Open Source CFD Toolbox           |
|  \\    /   O peration     | Version:  2306                                  |
|   \\  /    A nd           | Website:  www.openfoam.com                      |
|    \\/     M anipulation  |                                                 |
\*---------------------------------------------------------------------------*/
FoamFile
{
    version     2.0;
    format      ascii;
    arch        "LSB;label=32;scalar=64";
    class       volScalarField;
    location    "0.00128";
    object      H2O;
}
// * * * * * * * * * * * * * * * * * * * * * * * * * * * * * * * * * * * * * //

dimensions      [0 0 0 0 0 0 0];

internalField   nonuniform List<scalar> 
531
(
0.00111489987
0.00105395884
0.00112009208
0.00392627281
0.00665715359
0.00658082304
0.00696723228
0.00696727946
0.000934722106
0.00110458326
0.00657057831
0.00667940677
0.000863909921
0.00112891285
0.00105474722
0.00473961338
0.00669788907
0.0067373792
0.00632897059
0.007060504
0.00704027267
0.000953834863
0.00110708954
0.00104208635
0.0065515685
0.00740549865
0.00349105981
0.00104078918
0.0037773399
0.00707621926
0.00672691852
0.00104310796
0.00110985396
0.00487891591
0.00699964641
0.00680208314
0.00104532203
0.00109129635
0.00540351764
0.00707249618
0.00687532651
0.00751828954
0.00713662946
0.000958346838
0.00110016547
0.00102249388
0.0011268651
0.00108875489
0.0054220841
0.00696232823
0.00686485065
0.00731735554
0.00722289631
0.00101173673
0.00105744826
0.00662593099
0.00678997829
0.00100989323
0.00108062765
0.00541644478
0.00708152556
0.0069135465
0.00104698225
0.00108154771
0.00530065803
0.00702267885
0.00694948397
0.00767886984
0.0075258645
0.000908738688
0.0010609735
0.000970547932
0.00110710968
0.00105155905
0.00573955009
0.00733183152
0.00721567187
0.00103236833
0.00105005735
0.00582452111
0.00734140012
0.00723554242
0.00103472912
0.00103362853
0.00578648802
0.00779299904
0.00754241084
0.000922287689
0.00107365357
0.000983698961
0.00681407272
0.00741909296
0.00100446069
0.00105651974
0.00641494462
0.00708385789
0.00739252509
0.00738249293
0.000976969519
0.00106221431
0.00686453241
0.00707308461
0.000969757152
0.0010778082
0.00718102073
0.00710497211
0.000817906022
0.00111669561
0.000943368117
0.00611245545
0.00752431857
0.00679535702
0.00103757131
0.00109484637
0.00514415066
0.00723901702
0.00715601245
0.00101391927
0.0010849314
0.00653556818
0.00679298256
0.000995555355
0.00112416269
0.00455436284
0.00655535773
0.00652413178
0.00654628686
0.0062748464
0.00579553576
0.00663822426
0.00662172311
0.00103579045
0.00111640845
0.0064259881
0.00683405318
0.000981988969
0.0010922225
0.00671308835
0.00695246235
0.000950961734
0.00108472722
0.00698804861
0.00700228012
0.00091071947
0.00111549983
0.00103440155
0.00530293717
0.00686959764
0.00638782179
0.00635632597
0.006485616
0.00634220677
0.00106667005
0.00114726745
0.0040774187
0.00664135775
0.00759246349
0.0074670814
0.000873223331
0.00107383921
0.000964228791
0.00673940367
0.00746610756
0.000905384982
0.00105192187
0.00704409145
0.00709309829
0.000876642321
0.00109349642
0.00104372355
0.00405556762
0.00665591596
0.00644194363
0.00639344007
0.0065778197
0.0064147341
0.0010624382
0.00113636215
0.00469080996
0.00674202305
0.00747433841
0.00746994077
0.000901671782
0.00109353936
0.00103436393
0.00604463178
0.00689191962
0.000942352611
0.00110700116
0.00433770228
0.00670326015
0.00669688543
0.0071286343
0.00655202452
0.000996797801
0.00114771415
0.00112602945
0.00501441746
0.0068814128
0.006898933
0.00747493026
0.00746447422
0.000892346919
0.00104646202
0.00674202962
0.00720417362
0.000870964523
0.00105973967
0.00680905018
0.00714393156
0.000873875125
0.00106971839
0.00669218673
0.00700932061
0.000892907454
0.00108227324
0.00654605393
0.0069182208
0.000918518434
0.0010749691
0.00539413204
0.00726852084
0.00726313035
0.00094664502
0.001050316
0.00548226627
0.00749585597
0.00747191658
0.000908069301
0.00104853231
0.00654987895
0.00712693176
0.000896817519
0.00104603752
0.00574932432
0.00754812888
0.00751715527
0.000904188557
0.00104304136
0.00665064299
0.00720089447
0.000857073781
0.00105899991
0.00668586829
0.00711113161
0.000862295477
0.00106720171
0.0066528497
0.00693536715
0.000900656757
0.00106793123
0.00533519198
0.0073747303
0.00716553694
0.000959112982
0.00100879001
0.00672088436
0.00700549671
0.000916795717
0.0010753054
0.00500879113
0.00747206349
0.00740753437
0.000803266694
0.00105227803
0.00134338998
0.00753604189
0.00758396082
0.000737778898
0.00108992085
0.00100260228
0.00597550575
0.00736798566
0.00706707816
0.00774154954
0.00765012718
0.000874414645
0.00104460812
0.000983303981
0.0010568083
0.00107580562
0.00107156119
0.00455609365
0.00700998945
0.00698518642
0.00754484685
0.00750207491
0.00091530561
0.00101277762
0.0062774043
0.00768516736
0.00736923956
0.000965570124
0.00109569543
0.00470844321
0.00659136634
0.00648606557
0.00694464716
0.00691548255
0.000911488124
0.0010983271
0.00101527139
0.00110625461
0.00320147909
0.00673682556
0.00683802756
0.00742029809
0.00740032471
0.00087925726
0.00108711749
0.000980711306
0.00657026367
0.00707452598
0.000831367771
0.00111501338
0.00101909407
0.00594459192
0.00758802432
0.00727635012
0.000981764862
0.00104542735
0.00584936424
0.00746259126
0.00720890178
0.000989041638
0.0010663834
0.00529577816
0.00720837707
0.00699396738
0.00100930651
0.00107673769
0.00538768013
0.00723013042
0.00699880692
0.00100969413
0.00107165582
0.00554753573
0.00728461443
0.00704477886
0.00100650838
0.00105902636
0.00543123744
0.00746120197
0.00678956138
0.000952907291
0.00333801315
0.00740328934
0.00507070584
0.000987010729
0.000981448748
0.00755702927
0.00804164715
0.000734733332
0.000939570791
0.00089489673
0.000938526414
0.00759546522
0.00771506717
0.000761970164
0.00690917771
0.00803714097
0.00072935472
0.000976384682
0.000850761636
0.00749103463
0.00836168815
0.00087985714
0.00102113692
0.00113281751
0.00116357901
0.00749718558
0.00831674412
0.00141648482
0.00155847297
0.00174494051
0.0017868344
0.00820900515
0.00547700839
0.00228410484
0.0023709941
0.00260557341
0.00270891662
0.00292403056
0.00305027653
0.00323844549
0.00337825321
0.00353367735
0.00366836854
0.00375405393
0.00379730467
0.00368902678
0.00322463744
0.00344577535
0.00368330269
0.00393203926
0.00424746173
0.00451661839
0.00490986972
0.00520825461
0.00567250617
0.00594231978
0.00610602124
0.00556965943
0.00573642034
0.00588257058
0.0063128773
0.00671386518
0.00730429375
0.00795811229
0.00866497654
0.00946803463
0.0100869279
0.0106947796
0.00941416907
0.005020207
0.00592629236
0.00710581278
0.00813904475
0.00921168368
0.0103412923
0.0113623372
0.0125673891
0.0136125358
0.0136712814
0.0111196565
0.0119198891
0.0131468559
0.0120033784
0.00923705129
0.0114120515
0.0172605814
0.0159314532
0.0168760084
0.019869939
0.0207732298
0.022649336
0.0256983585
0.0296091782
0.0347925846
0.0398819431
0.045348934
0.0498177923
0.0562695519
0.0598317611
0.06489205
0.0686216002
0.0737038412
0.0772477792
0.0827073317
0.0860115039
0.0904509066
0.0930608735
0.0966277449
0.0989694775
0.102083972
0.104138245
0.106781533
0.108509136
0.11072381
0.112124957
0.113904623
0.1150202
0.116586908
0.11757476
0.119062089
0.119909591
0.121277056
0.122034783
0.123150861
0.123809419
0.12472521
0.125196191
0.125862048
0.126307302
0.126918685
0.12733929
0.127903285
0.128306864
0.128869563
0.129304156
0.129772281
0.130075536
0.130446739
0.130720157
0.131045306
0.131291001
0.131587576
0.131821104
0.132097407
0.13231771
0.132565007
0.132766691
0.132998043
0.1331902
0.133438029
0.133659755
0.13390137
0.134106395
0.134329453
0.134515065
0.134716213
0.13489133
0.135081699
0.135248855
0.135429365
0.135589667
0.135762701
0.135917795
0.136084292
0.136234717
0.136393209
0.136535468
0.136686279
0.136826654
0.136982524
0.13712273
0.137271077
0.137405445
0.137548147
0.137678895
0.137814895
0.137939604
0.138068656
0.138187839
0.138310581
0.138424685
0.138541676
0.138651094
0.138762832
0.138866101
0.138971525
)
;

boundaryField
{
    closed
    {
        type            calculated;
        value           nonuniform List<scalar> 0();
    }
    open
    {
        type            calculated;
        value           nonuniform List<scalar> 0();
    }
    sides
    {
        type            empty;
    }
    procBoundary4to3
    {
        type            processor;
        value           uniform 0.000929916718;
    }
    procBoundary4to5
    {
        type            processor;
        value           uniform 0.139071117;
    }
}


// ************************************************************************* //
