/*--------------------------------*- C++ -*----------------------------------*\
| =========                 |                                                 |
| \\      /  F ield         | OpenFOAM: The Open Source CFD Toolbox           |
|  \\    /   O peration     | Version:  2306                                  |
|   \\  /    A nd           | Website:  www.openfoam.com                      |
|    \\/     M anipulation  |                                                 |
\*---------------------------------------------------------------------------*/
FoamFile
{
    version     2.0;
    format      ascii;
    arch        "LSB;label=32;scalar=64";
    class       volScalarField;
    location    "0.00128";
    object      mu;
}
// * * * * * * * * * * * * * * * * * * * * * * * * * * * * * * * * * * * * * //

dimensions      [1 -1 -1 0 0 0 0];

internalField   nonuniform List<scalar> 
531
(
2.03137999e-05
2.02954535e-05
2.03155559e-05
1.9845675e-05
1.97027017e-05
1.9728252e-05
1.95990803e-05
1.95985944e-05
2.02815712e-05
2.03184157e-05
1.97328518e-05
1.96950065e-05
2.03050039e-05
2.03129226e-05
2.03060256e-05
1.97924609e-05
1.96897098e-05
1.96765321e-05
1.97618779e-05
1.95673688e-05
1.95742358e-05
2.03175777e-05
2.03100271e-05
2.03086641e-05
1.97369208e-05
1.94496347e-05
1.98750936e-05
2.02951599e-05
1.98532374e-05
1.95620225e-05
1.96794972e-05
2.03124377e-05
2.03097838e-05
1.97878072e-05
1.95878229e-05
1.96547124e-05
2.03266182e-05
2.02966266e-05
1.97609627e-05
1.95632757e-05
1.96297051e-05
1.94099896e-05
1.95415577e-05
2.03062702e-05
2.03056113e-05
2.02867528e-05
2.03108585e-05
2.02771715e-05
1.97619217e-05
1.96008266e-05
1.96332294e-05
1.94791614e-05
1.95123586e-05
2.03077279e-05
2.03060357e-05
1.97148048e-05
1.96585544e-05
2.03224811e-05
2.02953828e-05
1.97717975e-05
1.95602213e-05
1.96172313e-05
2.03156187e-05
2.02841193e-05
1.9772047e-05
1.9580218e-05
1.96050248e-05
1.93532498e-05
1.94085187e-05
2.03012824e-05
2.02978139e-05
2.02773673e-05
2.03026218e-05
2.02658834e-05
1.97614325e-05
1.94740157e-05
1.95146492e-05
2.03060694e-05
2.02905232e-05
1.97717953e-05
1.94711066e-05
1.95073465e-05
2.03084484e-05
2.02749644e-05
1.9769851e-05
1.93129386e-05
1.94020007e-05
2.02989022e-05
2.02830236e-05
2.02846294e-05
1.96511026e-05
1.94437056e-05
2.03185281e-05
2.02824443e-05
1.97763572e-05
1.95592251e-05
1.94526294e-05
1.94569065e-05
2.02912329e-05
2.02929546e-05
1.96343727e-05
1.95630886e-05
2.02829763e-05
2.02997179e-05
1.95249014e-05
1.95522757e-05
2.02775774e-05
2.03050034e-05
2.02617975e-05
1.97506094e-05
1.94055061e-05
1.96568228e-05
2.02892698e-05
2.0297926e-05
1.97830737e-05
1.95065521e-05
1.95349461e-05
2.03106442e-05
2.03108863e-05
1.97437663e-05
1.96572404e-05
2.03209238e-05
2.03172827e-05
1.98016004e-05
1.9735819e-05
1.97478275e-05
1.97388614e-05
1.97611936e-05
1.97469217e-05
1.9709953e-05
1.97136947e-05
2.03154021e-05
2.03279614e-05
1.97592844e-05
1.96427206e-05
2.03061957e-05
2.03281986e-05
1.96849834e-05
1.96033413e-05
2.02995787e-05
2.03219176e-05
1.95919659e-05
1.95868026e-05
2.03133772e-05
2.03175084e-05
2.03071887e-05
1.97633829e-05
1.96320536e-05
1.97516776e-05
1.97594174e-05
1.97609004e-05
1.9757471e-05
2.02995686e-05
2.03043387e-05
1.9839624e-05
1.97085001e-05
1.93840302e-05
1.94283738e-05
2.03027005e-05
2.02918252e-05
2.02940754e-05
1.96759928e-05
1.94283189e-05
2.02969765e-05
2.02978135e-05
1.95729528e-05
1.95562967e-05
2.02966897e-05
2.02995161e-05
2.0295582e-05
1.98365146e-05
1.9703932e-05
1.9762682e-05
1.97551523e-05
1.97304352e-05
1.97522104e-05
2.03000839e-05
2.03100495e-05
1.98015604e-05
1.96746012e-05
1.94256265e-05
1.94275343e-05
2.030634e-05
2.02971163e-05
2.02970003e-05
1.97627432e-05
1.96247018e-05
2.03050974e-05
2.02916412e-05
1.98170167e-05
1.96885426e-05
1.96897242e-05
1.95440337e-05
1.97377784e-05
2.02930455e-05
2.03130613e-05
2.02866501e-05
1.97788017e-05
1.96284717e-05
1.96220107e-05
1.94235058e-05
1.94294259e-05
2.02710967e-05
2.02992887e-05
1.96763401e-05
1.95184928e-05
2.02732317e-05
2.03027839e-05
1.96534075e-05
1.95390349e-05
2.02742855e-05
2.03028874e-05
1.96933368e-05
1.95847381e-05
2.02786945e-05
2.02992768e-05
1.97427107e-05
1.96157456e-05
2.02897927e-05
2.02894837e-05
1.97821406e-05
1.94958088e-05
1.94978706e-05
2.02903108e-05
2.02823197e-05
1.9774138e-05
1.94167387e-05
1.94267438e-05
2.02844585e-05
2.02965339e-05
1.97408767e-05
1.95446768e-05
2.02974044e-05
2.02859876e-05
1.97686471e-05
1.93981149e-05
1.94112006e-05
2.02737556e-05
2.02991544e-05
1.97074144e-05
1.951961e-05
2.02796514e-05
2.03019362e-05
1.96955264e-05
1.95501755e-05
2.02792546e-05
2.03046883e-05
1.97065585e-05
1.96098829e-05
2.02867339e-05
2.0288765e-05
1.97840239e-05
1.94590439e-05
1.95314401e-05
2.02849445e-05
2.03120655e-05
1.96829651e-05
1.95861041e-05
2.0279238e-05
2.0273259e-05
1.97991891e-05
1.94233197e-05
1.94475856e-05
2.02412817e-05
2.02630184e-05
2.01257385e-05
1.9401322e-05
1.93851615e-05
2.02642817e-05
2.02840779e-05
2.02476831e-05
1.97649702e-05
1.94597429e-05
1.95651144e-05
1.93281469e-05
1.93639853e-05
2.02676267e-05
2.02816421e-05
2.02642682e-05
2.02885231e-05
2.0279946e-05
2.02876611e-05
1.98107435e-05
1.95845705e-05
1.95930066e-05
1.94002944e-05
1.94159886e-05
2.02954471e-05
2.02888258e-05
1.97595598e-05
1.93516021e-05
1.94622735e-05
2.02958566e-05
2.02984617e-05
1.98004324e-05
1.97259044e-05
1.97609479e-05
1.9606877e-05
1.96164948e-05
2.02846013e-05
2.03009675e-05
2.02722293e-05
2.03008534e-05
1.99113377e-05
1.96767122e-05
1.96431948e-05
1.94439707e-05
1.9450486e-05
2.02919581e-05
2.02868235e-05
2.02926398e-05
1.97331727e-05
1.95625928e-05
2.02865232e-05
2.02988646e-05
2.0286736e-05
1.97588475e-05
1.93850792e-05
1.94938128e-05
2.02857897e-05
2.0298905e-05
1.97656583e-05
1.94296715e-05
1.95167399e-05
2.02949782e-05
2.02953113e-05
1.97745688e-05
1.95169338e-05
1.958998e-05
2.02975914e-05
2.02990326e-05
1.97695504e-05
1.95096071e-05
1.95882974e-05
2.03006182e-05
2.03036754e-05
1.97630299e-05
1.94911826e-05
1.95727012e-05
2.03076383e-05
2.03009611e-05
1.97585581e-05
1.94301805e-05
1.96584955e-05
2.02907242e-05
1.98935511e-05
1.94503033e-05
1.97585559e-05
2.02879807e-05
2.03381539e-05
1.9398038e-05
1.92312167e-05
2.02778791e-05
2.03106549e-05
2.03074118e-05
2.0334407e-05
1.93871282e-05
1.9347887e-05
2.03319165e-05
1.96129815e-05
1.92412359e-05
2.03868416e-05
2.04182543e-05
2.04338871e-05
1.94205315e-05
1.91431229e-05
2.03930363e-05
2.04585962e-05
2.04389239e-05
2.04453893e-05
1.94001961e-05
1.9159655e-05
2.03391862e-05
2.03691967e-05
2.03539061e-05
2.03294377e-05
1.91477345e-05
1.9502495e-05
2.03079134e-05
2.02541623e-05
2.02891077e-05
2.02638146e-05
2.02828523e-05
2.02732962e-05
2.02896235e-05
2.0290582e-05
2.03122818e-05
2.03286534e-05
2.03667907e-05
2.0420739e-05
2.05247941e-05
2.07382396e-05
2.06118489e-05
2.04975707e-05
2.03961499e-05
2.02902409e-05
2.02180869e-05
2.01323592e-05
2.0088254e-05
2.0019586e-05
1.99566515e-05
1.9893884e-05
1.99339246e-05
1.98271452e-05
1.97840839e-05
1.97121557e-05
1.96864385e-05
1.96464931e-05
1.9621019e-05
1.94934568e-05
1.93473125e-05
1.92337801e-05
1.91164108e-05
1.93819687e-05
2.03811261e-05
2.0180712e-05
1.99185953e-05
1.96865924e-05
1.94455857e-05
1.91877829e-05
1.89572164e-05
1.86778984e-05
1.84453492e-05
1.84030692e-05
1.90319157e-05
1.87800221e-05
1.84129575e-05
2.02358329e-05
2.08018253e-05
2.15403416e-05
2.36213781e-05
2.38532137e-05
2.46105866e-05
2.59356601e-05
2.67417199e-05
2.77613427e-05
2.91327673e-05
3.06940254e-05
3.2658775e-05
3.44537446e-05
3.6287752e-05
3.76442716e-05
3.94712883e-05
4.04389446e-05
4.17050365e-05
4.25913727e-05
4.37303846e-05
4.44930415e-05
4.55933443e-05
4.62475676e-05
4.70970481e-05
4.75873992e-05
4.82473756e-05
4.86844535e-05
4.926683e-05
4.96579896e-05
5.01673405e-05
5.05104126e-05
5.09694112e-05
5.12761194e-05
5.16883125e-05
5.19553397e-05
5.23343594e-05
5.25757425e-05
5.29443649e-05
5.31612847e-05
5.35143368e-05
5.37207592e-05
5.40351299e-05
5.42311267e-05
5.45086549e-05
5.46514303e-05
5.48506782e-05
5.49944596e-05
5.51901932e-05
5.53296736e-05
5.55154426e-05
5.56539235e-05
5.5858043e-05
5.60259388e-05
5.61975111e-05
5.63104319e-05
5.64465528e-05
5.65531959e-05
5.66726739e-05
5.67665946e-05
5.68803253e-05
5.69752603e-05
5.70845738e-05
5.71759894e-05
5.72704024e-05
5.73511275e-05
5.74406427e-05
5.75183568e-05
5.7619332e-05
5.77135114e-05
5.78124397e-05
5.78981517e-05
5.79887514e-05
5.80623596e-05
5.8139636e-05
5.82081362e-05
5.82816202e-05
5.8347023e-05
5.84150813e-05
5.84752892e-05
5.85404486e-05
5.85991455e-05
5.86626421e-05
5.87201195e-05
5.87796087e-05
5.88313149e-05
5.8887013e-05
5.8938989e-05
5.89998048e-05
5.90531244e-05
5.91108922e-05
5.91618712e-05
5.92168749e-05
5.92653989e-05
5.93170592e-05
5.93629547e-05
5.9411588e-05
5.94551439e-05
5.95010933e-05
5.95425587e-05
5.9586126e-05
5.96257184e-05
5.96671713e-05
5.97020447e-05
5.9738836e-05
)
;

boundaryField
{
    closed
    {
        type            calculated;
        value           nonuniform List<scalar> 0();
    }
    open
    {
        type            calculated;
        value           nonuniform List<scalar> 0();
    }
    sides
    {
        type            empty;
    }
    procBoundary4to3
    {
        type            processor;
        value           uniform 2.02853806e-05;
    }
    procBoundary4to5
    {
        type            processor;
        value           uniform 5.97724204e-05;
    }
}


// ************************************************************************* //
