/*--------------------------------*- C++ -*----------------------------------*\
| =========                 |                                                 |
| \\      /  F ield         | OpenFOAM: The Open Source CFD Toolbox           |
|  \\    /   O peration     | Version:  2306                                  |
|   \\  /    A nd           | Website:  www.openfoam.com                      |
|    \\/     M anipulation  |                                                 |
\*---------------------------------------------------------------------------*/
FoamFile
{
    version     2.0;
    format      ascii;
    arch        "LSB;label=32;scalar=64";
    class       volScalarField;
    location    "0.00128";
    object      prefDZ_H;
}
// * * * * * * * * * * * * * * * * * * * * * * * * * * * * * * * * * * * * * //

dimensions      [1 -1 -1 0 0 0 0];

internalField   nonuniform List<scalar> 
531
(
0.000110444404
0.000110315689
0.000110456551
0.000108038787
0.000107523277
0.000107662543
0.000106952271
0.00010695584
0.00011019898
0.00011046991
0.000107683785
0.000107482218
0.000110324125
0.000110442789
0.000110380704
0.000107830517
0.000107449746
0.000107377323
0.000107827327
0.000106780638
0.000106818159
0.000110424751
0.0001104192
0.000110393504
0.000107712914
0.000106137091
0.000108156151
0.000110310385
0.000108065251
0.000106750239
0.000107396062
0.000110416895
0.00011041845
0.000107819306
0.00010689567
0.000107258357
0.000110504319
0.000110332845
0.000107726329
0.000106756218
0.000107124124
0.000105917013
0.000106642223
0.000110356665
0.00011039029
0.000110253962
0.000110429595
0.000110212821
0.000107733493
0.000106959498
0.000107143351
0.000106294287
0.000106483744
0.00011037971
0.000110381486
0.000107582937
0.000107280676
0.000110469588
0.000110322368
0.000107786983
0.000106740714
0.000107052278
0.00011043741
0.00011025353
0.000107776404
0.000106845623
0.000106986083
0.00010560404
0.0001059133
0.000110313048
0.00011033203
0.000110182621
0.000110373828
0.000110133591
0.000107763636
0.000106265324
0.000106493572
0.000110375021
0.000110284416
0.000107829233
0.000106251499
0.000106448631
0.000110390226
0.000110184579
0.000107814631
0.00010538275
0.000105874589
0.000110302013
0.000110244699
0.000110230659
0.000107235537
0.000106098973
0.000110443943
0.000110236576
0.000107915701
0.000106730171
0.000106146605
0.000106173606
0.000110269389
0.000110302566
0.000107138208
0.000106756007
0.000110216833
0.000110348193
0.000106536199
0.000106699205
0.000110143916
0.000110390992
0.000110079851
0.000107743015
0.000105884902
0.000107270793
0.000110273407
0.000110341761
0.000107820633
0.000106447732
0.0001066046
0.000110398157
0.000110418537
0.000107745995
0.000107275101
0.000110456257
0.000110468218
0.000107861601
0.000107706481
0.000107767447
0.000107723002
0.000107817938
0.000107689932
0.000107559434
0.000107585955
0.000110433108
0.000110531516
0.000107823211
0.000107199638
0.000110362448
0.000110526495
0.0001074221
0.000106983601
0.000110313703
0.000110486044
0.000106914555
0.000106891716
0.000110387686
0.000110467278
0.00011038242
0.000107729217
0.000107133707
0.000107777516
0.000107816683
0.00010783824
0.000107804538
0.000110344306
0.00011039513
0.000108020884
0.000107553052
0.000105774269
0.000106020344
0.00011031244
0.00011029874
0.000110283458
0.00010737364
0.000106018381
0.00011028577
0.000110329617
0.000106809269
0.000106720081
0.000110276484
0.000110351148
0.000110313753
0.000108001781
0.000107526875
0.000107843508
0.000107797157
0.000107670537
0.000107783241
0.000110346337
0.000110427189
0.000107875256
0.000107368578
0.000106004263
0.000106016391
0.000110342194
0.000110336447
0.000110319961
0.000107802483
0.000107091367
0.000110345264
0.000110306478
0.000107923817
0.000107440274
0.000107451205
0.000106649473
0.000107714778
0.000110285748
0.000110448691
0.000110280968
0.00010778394
0.000107108997
0.000107080062
0.000105985615
0.000106026793
0.000110123563
0.000110337208
0.000107366753
0.000106513573
0.000110131076
0.000110362167
0.000107241481
0.000106626462
0.000110138306
0.000110365462
0.000107459865
0.00010687543
0.00011017035
0.000110346681
0.000107731434
0.000107042845
0.000110245161
0.000110284681
0.000107841312
0.000106384241
0.000106396864
0.000110255735
0.00011023416
0.000107806601
0.000105950342
0.000106011578
0.000110209695
0.000110320869
0.000107723664
0.000106653971
0.000110286148
0.000110255525
0.000107804179
0.000105847218
0.000105926705
0.00011014299
0.000110335474
0.00010753738
0.00010651967
0.000110166852
0.000110356774
0.000107471565
0.00010668708
0.00011016578
0.000110375828
0.000107533366
0.000107011504
0.000110221711
0.000110278394
0.000107845533
0.000106182755
0.000106581148
0.000110226101
0.000110405505
0.000107407561
0.000106879172
0.000110179951
0.000110185211
0.000107894875
0.000105980845
0.000106119681
0.000109917126
0.000110116185
0.000109310716
0.000105861805
0.00010577517
0.000110041516
0.000110255514
0.000110008754
0.000107807507
0.000106179989
0.000106765865
0.000105459677
0.00010566466
0.000110097562
0.000110228483
0.000110105562
0.000110273946
0.000110226389
0.000110272592
0.000107911694
0.000106871468
0.000106918247
0.000105862344
0.000105951279
0.000110278995
0.000110264101
0.000107809245
0.000105596455
0.000106207458
0.000110294734
0.000110345273
0.000107870892
0.000107645726
0.000107837927
0.00010699169
0.000107049186
0.000110211468
0.000110361337
0.000110162915
0.00011036276
0.000108324489
0.000107378337
0.000107190189
0.00010610333
0.000106137262
0.000110248152
0.000110271608
0.000110279006
0.000107684766
0.000106752951
0.000110202314
0.000110352916
0.000110252957
0.000107770737
0.000105778518
0.00010637827
0.000110237267
0.00011033458
0.000107798179
0.000106026366
0.000106502339
0.000110295548
0.000110318128
0.000107789705
0.000106503557
0.000106903133
0.000110316936
0.000110343706
0.000107771711
0.000106464641
0.000106895007
0.000110335594
0.000110370808
0.000107752515
0.000106365576
0.000106810089
0.000110377775
0.000110350804
0.000107716022
0.000106029279
0.000107281406
0.000110259921
0.000108241419
0.000106140275
0.000107678984
0.000110252095
0.000110557989
0.00010585691
0.000104946523
0.000110124214
0.000110378588
0.000110346987
0.000110523752
0.000105807079
0.000105598129
0.000110462465
0.000107054602
0.000105021254
0.0001107898
0.000111045722
0.000111108105
0.000106025642
0.000104513365
0.000110864835
0.000111301627
0.000111209657
0.000111257022
0.000105952202
0.00010464424
0.000110670924
0.000110891141
0.000110845156
0.000110705773
0.000104639989
0.000106341062
0.000110702018
0.000110393929
0.000110670349
0.000110541693
0.000110716078
0.000110690833
0.000110842606
0.00011088684
0.000111064811
0.000111205195
0.000111468938
0.000111822294
0.000112450414
0.000113675166
0.000113013876
0.000112424487
0.000111910884
0.000111388505
0.000111046238
0.00011065794
0.000110482308
0.000110208034
0.000109923676
0.000109657068
0.000109887726
0.000109377986
0.000109209955
0.000108938424
0.00010891688
0.000108848492
0.000108877399
0.000108331493
0.000107714774
0.000107237039
0.000106794833
0.000108352501
0.00011401778
0.000113082387
0.000111863618
0.000110785558
0.000109670508
0.00010847942
0.000107417145
0.000106134024
0.000105062506
0.00010508455
0.000108784553
0.000107619601
0.000105807547
0.000116918714
0.000120553352
0.000125632959
0.000139522064
0.000141286095
0.000146556018
0.000155339388
0.000160866394
0.000167758673
0.000176931162
0.000187346038
0.000200421988
0.000212428743
0.000224726462
0.000233918233
0.000246174675
0.000252741328
0.000261230159
0.000267165226
0.00027471848
0.000279787736
0.000287025678
0.000291340358
0.000296906519
0.000300123827
0.000304427542
0.000307274685
0.00031104945
0.000313577378
0.000316855407
0.000319055719
0.00032198456
0.000323933543
0.000326537946
0.000328227085
0.000330617131
0.000332151433
0.000334475177
0.000335855565
0.000338080147
0.000339392922
0.000341378111
0.000342622178
0.000344380582
0.000345289478
0.000346559091
0.000347473864
0.00034871981
0.000349604284
0.000350785716
0.000351661315
0.000352962055
0.000354025013
0.000355123472
0.000355843842
0.000356720581
0.000357404345
0.000358176236
0.000358779283
0.000359516541
0.000360127951
0.000360835456
0.000361424548
0.000362037585
0.000362559869
0.000363139853
0.000363642652
0.00036429753
0.00036490953
0.000365550259
0.000366106613
0.00036669158
0.000367171505
0.000367672059
0.000368119243
0.000368593916
0.000369020715
0.000369461178
0.000369856777
0.00037027824
0.000370663589
0.000371073313
0.000371450217
0.00037183475
0.000372176601
0.000372537212
0.0003728804
0.000373273827
0.000373625238
0.000373998506
0.000374334185
0.000374690495
0.000375011963
0.000375347051
0.000375650768
0.000375965847
0.00037625371
0.000376551053
0.000376824703
0.000377106307
0.000377367179
0.000377634809
0.000377865941
0.000378104615
)
;

boundaryField
{
    closed
    {
        type            calculated;
        value           nonuniform List<scalar> 0();
    }
    open
    {
        type            calculated;
        value           nonuniform List<scalar> 0();
    }
    sides
    {
        type            empty;
    }
    procBoundary4to3
    {
        type            processor;
        value           uniform 0.00011022109;
    }
    procBoundary4to5
    {
        type            processor;
        value           uniform 0.00037832695;
    }
}


// ************************************************************************* //
