/*--------------------------------*- C++ -*----------------------------------*\
| =========                 |                                                 |
| \\      /  F ield         | OpenFOAM: The Open Source CFD Toolbox           |
|  \\    /   O peration     | Version:  2306                                  |
|   \\  /    A nd           | Website:  www.openfoam.com                      |
|    \\/     M anipulation  |                                                 |
\*---------------------------------------------------------------------------*/
FoamFile
{
    version     2.0;
    format      ascii;
    arch        "LSB;label=32;scalar=64";
    class       volScalarField;
    location    "0.00128";
    object      prefDPV_H2O;
}
// * * * * * * * * * * * * * * * * * * * * * * * * * * * * * * * * * * * * * //

dimensions      [1 -1 -1 0 0 0 0];

internalField   nonuniform List<scalar> 
531
(
-3.83472914e-07
-3.84075806e-07
-3.83419674e-07
-3.75146694e-07
-3.66062835e-07
-3.66273711e-07
-3.65351949e-07
-3.65203983e-07
-3.85032881e-07
-3.8349931e-07
-3.6639807e-07
-3.65979282e-07
-3.85280857e-07
-3.83384196e-07
-3.83965606e-07
-3.72306402e-07
-3.66017367e-07
-3.65922428e-07
-3.67098662e-07
-3.65063097e-07
-3.65117397e-07
-3.84544945e-07
-3.83564133e-07
-3.84026893e-07
-3.66275314e-07
-3.64139685e-07
-3.76649411e-07
-3.8416954e-07
-3.7564684e-07
-3.65048584e-07
-3.65888097e-07
-3.8398274e-07
-3.83547352e-07
-3.71843018e-07
-3.65148965e-07
-3.6574355e-07
-3.83828994e-07
-3.83806043e-07
-3.70039491e-07
-3.65078801e-07
-3.6549001e-07
-3.63910453e-07
-3.64797868e-07
-3.84625286e-07
-3.83655628e-07
-3.84379468e-07
-3.83418684e-07
-3.84018482e-07
-3.69985951e-07
-3.65419597e-07
-3.65518641e-07
-3.64470759e-07
-3.64541927e-07
-3.84244953e-07
-3.83946868e-07
-3.6630578e-07
-3.65743617e-07
-3.84112984e-07
-3.83892256e-07
-3.70057463e-07
-3.65026948e-07
-3.65476247e-07
-3.83924839e-07
-3.83998445e-07
-3.70425472e-07
-3.65286636e-07
-3.65368062e-07
-3.63536379e-07
-3.63795048e-07
-3.85013105e-07
-3.84003926e-07
-3.84830363e-07
-3.83637013e-07
-3.84390017e-07
-3.68975917e-07
-3.64450442e-07
-3.6462322e-07
-3.84119412e-07
-3.84151874e-07
-3.68760376e-07
-3.64378228e-07
-3.64684563e-07
-3.84079698e-07
-3.84421476e-07
-3.68871236e-07
-3.6324574e-07
-3.63818126e-07
-3.84944428e-07
-3.84064049e-07
-3.8466717e-07
-3.65786131e-07
-3.6422977e-07
-3.84188883e-07
-3.84188235e-07
-3.66898286e-07
-3.65138663e-07
-3.64326895e-07
-3.64273706e-07
-3.84647167e-07
-3.84043708e-07
-3.65790997e-07
-3.65058331e-07
-3.84779281e-07
-3.83868702e-07
-3.65020815e-07
-3.64919587e-07
-3.85866312e-07
-3.83546967e-07
-3.85174317e-07
-3.67731333e-07
-3.64058983e-07
-3.65739545e-07
-3.84250473e-07
-3.83768547e-07
-3.70980914e-07
-3.64596943e-07
-3.64780631e-07
-3.84201236e-07
-3.83709182e-07
-3.66426768e-07
-3.65696518e-07
-3.84226588e-07
-3.83374518e-07
-3.72938082e-07
-3.66275752e-07
-3.66475651e-07
-3.66302299e-07
-3.67268077e-07
-3.68720733e-07
-3.66198943e-07
-3.66091375e-07
-3.84004069e-07
-3.83324427e-07
-3.66775135e-07
-3.65492775e-07
-3.84464191e-07
-3.83489748e-07
-3.66021411e-07
-3.65199636e-07
-3.84742015e-07
-3.83602653e-07
-3.65268806e-07
-3.65103367e-07
-3.84880238e-07
-3.83432457e-07
-3.8409437e-07
-3.70370751e-07
-3.65583421e-07
-3.66857892e-07
-3.66998519e-07
-3.66593882e-07
-3.67033585e-07
-3.83947169e-07
-3.83340954e-07
-3.74646044e-07
-3.66152108e-07
-3.63728264e-07
-3.63985992e-07
-3.85240469e-07
-3.83974647e-07
-3.84706032e-07
-3.6593497e-07
-3.64025373e-07
-3.85078698e-07
-3.84066398e-07
-3.65151123e-07
-3.64976979e-07
-3.8527694e-07
-3.83762123e-07
-3.84145115e-07
-3.74693127e-07
-3.66143436e-07
-3.66741599e-07
-3.66857879e-07
-3.66379885e-07
-3.66774643e-07
-3.83971288e-07
-3.83360607e-07
-3.72511773e-07
-3.65865888e-07
-3.63989974e-07
-3.63964219e-07
-3.85011148e-07
-3.83785642e-07
-3.84195498e-07
-3.68011094e-07
-3.65575366e-07
-3.84746158e-07
-3.83746833e-07
-3.73703138e-07
-3.66078712e-07
-3.65986103e-07
-3.64964643e-07
-3.6634538e-07
-3.84493127e-07
-3.8325204e-07
-3.83664593e-07
-3.71366166e-07
-3.65673985e-07
-3.65475516e-07
-3.64142976e-07
-3.63977545e-07
-3.85427345e-07
-3.84089409e-07
-3.66139676e-07
-3.64677111e-07
-3.85550957e-07
-3.83963181e-07
-3.65958084e-07
-3.64824172e-07
-3.85520535e-07
-3.83893238e-07
-3.66268203e-07
-3.65203094e-07
-3.85346695e-07
-3.8384219e-07
-3.66617335e-07
-3.65494966e-07
-3.85060907e-07
-3.83990218e-07
-3.70184279e-07
-3.6462571e-07
-3.6460972e-07
-3.84863822e-07
-3.84232295e-07
-3.69861351e-07
-3.64048873e-07
-3.63969808e-07
-3.85185532e-07
-3.84102493e-07
-3.6655164e-07
-3.6494659e-07
-3.85132733e-07
-3.84224982e-07
-3.68983162e-07
-3.63935723e-07
-3.63846105e-07
-3.85319851e-07
-3.84114322e-07
-3.66365659e-07
-3.64686103e-07
-3.85580322e-07
-3.83976676e-07
-3.66291555e-07
-3.64918172e-07
-3.85548918e-07
-3.83892825e-07
-3.66343691e-07
-3.65432528e-07
-3.85213155e-07
-3.84046051e-07
-3.70381447e-07
-3.64350925e-07
-3.64853913e-07
-3.84832348e-07
-3.84222502e-07
-3.66085838e-07
-3.65300634e-07
-3.85178619e-07
-3.84151102e-07
-3.71497941e-07
-3.64232099e-07
-3.64272062e-07
-3.86336386e-07
-3.84414262e-07
-3.84699121e-07
-3.64031912e-07
-3.63864993e-07
-3.86540786e-07
-3.83940899e-07
-3.84913628e-07
-3.68243219e-07
-3.6451429e-07
-3.65102665e-07
-3.63515825e-07
-3.63572951e-07
-3.85584413e-07
-3.84278473e-07
-3.84875857e-07
-3.84125286e-07
-3.84080124e-07
-3.84032009e-07
-3.72986575e-07
-3.65272752e-07
-3.65323433e-07
-3.63875098e-07
-3.63921873e-07
-3.85026368e-07
-3.84425526e-07
-3.67251442e-07
-3.6348897e-07
-3.64208198e-07
-3.84679114e-07
-3.83757348e-07
-3.72450029e-07
-3.66345152e-07
-3.66607127e-07
-3.65487565e-07
-3.65448859e-07
-3.85160819e-07
-3.83714272e-07
-3.84575483e-07
-3.83660444e-07
-3.7777008e-07
-3.65923151e-07
-3.65773e-07
-3.64162226e-07
-3.6425335e-07
-3.8530635e-07
-3.83932781e-07
-3.84607487e-07
-3.66418089e-07
-3.65062532e-07
-3.85685309e-07
-3.83619381e-07
-3.84403022e-07
-3.68309579e-07
-3.63772363e-07
-3.64493006e-07
-3.84668785e-07
-3.8410035e-07
-3.68648831e-07
-3.64021785e-07
-3.64702304e-07
-3.84527075e-07
-3.83991441e-07
-3.70454717e-07
-3.64700106e-07
-3.65266377e-07
-3.84361982e-07
-3.83882902e-07
-3.70136393e-07
-3.64615937e-07
-3.65228247e-07
-3.84329277e-07
-3.83872058e-07
-3.6959437e-07
-3.6443259e-07
-3.65097929e-07
-3.84281753e-07
-3.83986151e-07
-3.69938676e-07
-3.6402263e-07
-3.6571911e-07
-3.84816899e-07
-3.77234331e-07
-3.64156122e-07
-3.71075379e-07
-3.8461087e-07
-3.84156172e-07
-3.63691479e-07
-3.62352252e-07
-3.8642336e-07
-3.8471033e-07
-3.85046645e-07
-3.84485733e-07
-3.63371395e-07
-3.62930111e-07
-3.85705566e-07
-3.6486081e-07
-3.61943094e-07
-3.85401669e-07
-3.83441889e-07
-3.84153547e-07
-3.62799011e-07
-3.60478144e-07
-3.8434315e-07
-3.82792982e-07
-3.82224432e-07
-3.81958171e-07
-3.61805173e-07
-3.59658894e-07
-3.81256503e-07
-3.80011684e-07
-3.78895779e-07
-3.78848933e-07
-3.5826694e-07
-3.67828692e-07
-3.75667522e-07
-3.75614078e-07
-3.73638861e-07
-3.73182811e-07
-3.71479528e-07
-3.70690967e-07
-3.6917314e-07
-3.68153222e-07
-3.66764049e-07
-3.65556358e-07
-3.64409757e-07
-3.63309541e-07
-3.62594433e-07
-3.62809012e-07
-3.61171443e-07
-3.59460808e-07
-3.57692635e-07
-3.55476634e-07
-3.53605564e-07
-3.50897779e-07
-3.48863534e-07
-3.45710825e-07
-3.43679162e-07
-3.41317542e-07
-3.41578609e-07
-3.38888191e-07
-3.36825957e-07
-3.33117426e-07
-3.2981103e-07
-3.25578311e-07
-3.20952753e-07
-3.15945463e-07
-3.09962184e-07
-3.05283684e-07
-2.99130555e-07
-2.98946113e-07
-3.03377796e-07
-2.97439375e-07
-2.89530167e-07
-2.82524637e-07
-2.75088986e-07
-2.67109273e-07
-2.59857157e-07
-2.50999991e-07
-2.4366404e-07
-2.3680015e-07
-2.35962882e-07
-2.28209097e-07
-2.19828868e-07
-2.03816096e-07
-1.95789827e-07
-1.72982415e-07
-1.1988367e-07
-1.10031602e-07
-8.60418975e-08
-5.42416323e-08
-3.06347226e-08
-2.16614174e-09
3.51595309e-08
7.89300148e-08
1.35800949e-07
1.9275382e-07
2.54283295e-07
3.04606352e-07
3.70818499e-07
4.08056483e-07
4.54289073e-07
4.86249639e-07
5.2571027e-07
5.52896488e-07
5.91140168e-07
6.14546585e-07
6.44599418e-07
6.62422385e-07
6.86079276e-07
7.01810931e-07
7.22539383e-07
7.36393125e-07
7.54240364e-07
7.66080898e-07
7.81503554e-07
7.91526893e-07
8.04495519e-07
8.1300172e-07
8.2504288e-07
8.33224323e-07
8.45262388e-07
8.52833088e-07
8.64639869e-07
8.71942566e-07
8.82643136e-07
8.89527197e-07
8.99279024e-07
9.04440301e-07
9.11677676e-07
9.16844342e-07
9.23976749e-07
9.28929771e-07
9.35663105e-07
9.4047721e-07
9.47816642e-07
9.53557587e-07
9.59866261e-07
9.63914804e-07
9.69085441e-07
9.72967032e-07
9.7758614e-07
9.81061363e-07
9.85461678e-07
9.88975004e-07
9.93175004e-07
9.96569013e-07
1.0002294e-06
1.0032735e-06
1.00670802e-06
1.00964324e-06
1.01344138e-06
1.01696913e-06
1.02065553e-06
1.02387819e-06
1.02721908e-06
1.03005344e-06
1.03294608e-06
1.0356081e-06
1.0383273e-06
1.04087372e-06
1.04339216e-06
1.04578207e-06
1.04817721e-06
1.05050156e-06
1.0528082e-06
1.05507353e-06
1.05723892e-06
1.05933486e-06
1.06137047e-06
1.06345964e-06
1.06564549e-06
1.06775694e-06
1.06982124e-06
1.07183205e-06
1.07380211e-06
1.07573618e-06
1.07758877e-06
1.07941182e-06
1.08114867e-06
1.08287119e-06
1.08450538e-06
1.08613654e-06
1.08767942e-06
1.08922733e-06
1.09068879e-06
1.09206827e-06
1.09337701e-06
)
;

boundaryField
{
    closed
    {
        type            calculated;
        value           nonuniform List<scalar> 0();
    }
    open
    {
        type            calculated;
        value           nonuniform List<scalar> 0();
    }
    sides
    {
        type            empty;
    }
    procBoundary4to3
    {
        type            processor;
        value           uniform -3.85027391e-07;
    }
    procBoundary4to5
    {
        type            processor;
        value           uniform 1.09470012e-06;
    }
}


// ************************************************************************* //
