/*--------------------------------*- C++ -*----------------------------------*\
| =========                 |                                                 |
| \\      /  F ield         | OpenFOAM: The Open Source CFD Toolbox           |
|  \\    /   O peration     | Version:  2306                                  |
|   \\  /    A nd           | Website:  www.openfoam.com                      |
|    \\/     M anipulation  |                                                 |
\*---------------------------------------------------------------------------*/
FoamFile
{
    version     2.0;
    format      ascii;
    arch        "LSB;label=32;scalar=64";
    class       volScalarField;
    location    "0.00032";
    object      rho;
}
// * * * * * * * * * * * * * * * * * * * * * * * * * * * * * * * * * * * * * //

dimensions      [1 -3 0 0 0 0 0];

internalField   nonuniform List<scalar> 
530
(
0.931082145
0.937583469
0.938855609
0.938808769
0.938954094
0.939160874
0.939296043
0.939345832
0.939413191
0.939460618
0.939409207
0.939336525
0.93935646
0.939408533
0.939368741
0.939314236
0.939437221
0.939669223
0.939773337
0.939731854
0.93979578
0.94006719
0.940392169
0.940590569
0.940532116
0.940339732
0.940319716
0.940641112
0.94097373
0.940895544
0.940351703
0.939865203
0.939828013
0.939963683
0.93993573
0.939674984
0.939409787
0.939313813
0.939469375
0.939805985
0.940132557
0.940260134
0.940013463
0.939537587
0.939155345
0.938953577
0.938800641
0.938632626
0.93847225
0.938372765
0.938337029
0.938327819
0.938318285
0.938306159
0.938314352
0.938355844
0.938458338
0.938583844
0.93869797
0.93877466
0.938804478
0.938790815
0.938743629
0.938673407
0.938588287
0.938494256
0.938396011
0.938297206
0.938200324
0.938106654
0.938016506
0.937929611
0.93784557
0.9377642
0.93768568
0.937610528
0.93753947
0.93747328
0.937412646
0.937358072
0.937309847
0.937268039
0.937232524
0.937203027
0.937179167
0.93716049
0.937146506
0.937136716
0.937130625
0.937127763
0.937127685
0.937129998
0.937134343
0.937140274
0.937147412
0.937156182
0.937166721
0.937175459
0.937180967
0.937196005
0.937223137
0.937223857
0.937196046
0.937226788
0.937306404
0.937290784
0.937208642
0.937251776
0.937380448
0.93736025
0.937212284
0.937247432
0.937494093
0.937505204
0.937220649
0.937186103
0.937524948
0.937660042
0.937373009
0.937181672
0.937455368
0.937708734
0.937520983
0.937286741
0.937498098
0.937758329
0.937533307
0.937212589
0.937552771
0.938089817
0.937778384
0.936820374
0.937065616
0.938505426
0.938496944
0.936708735
0.936336067
0.938239986
0.938973494
0.937576304
0.936046326
0.937323641
0.938984283
0.938484781
0.936447201
0.936626652
0.938594151
0.938668569
0.937246608
0.936879363
0.937955877
0.938399059
0.937783346
0.937291607
0.937677498
0.938071578
0.937877906
0.937614777
0.937737191
0.937884295
0.93773672
0.937621264
0.937874624
0.938032427
0.937657485
0.937321132
0.937756588
0.938298572
0.937947763
0.937036053
0.937235434
0.938388489
0.938358476
0.937114572
0.936898135
0.938045823
0.93844516
0.937566786
0.936841238
0.937553492
0.938378352
0.937977592
0.936901104
0.937066211
0.938256374
0.938241315
0.937122551
0.93687897
0.937855105
0.938263366
0.937558834
0.936887178
0.937407058
0.938124543
0.93785556
0.937080316
0.937196722
0.937888262
0.937860393
0.937282242
0.937271276
0.937717107
0.937737882
0.937349301
0.937312348
0.937691019
0.937742659
0.937341661
0.937224952
0.937633034
0.937825637
0.93746004
0.937134483
0.937433392
0.937851588
0.937679217
0.937159271
0.937215311
0.937776961
0.937778366
0.93730014
0.937216653
0.937623012
0.937757575
0.937406623
0.937208638
0.937557748
0.937830024
0.937497025
0.93706004
0.937382876
0.938001119
0.9378076
0.936888717
0.936953193
0.938058444
0.938145432
0.937073415
0.936700517
0.937703856
0.9382565
0.937559115
0.936718377
0.937240711
0.938134516
0.937918559
0.936977332
0.937032084
0.937860556
0.937896342
0.937341238
0.937221786
0.937559945
0.937678089
0.937518543
0.93745286
0.937507573
0.937488323
0.937420874
0.937558521
0.93771913
0.937484681
0.93708706
0.93733471
0.938054577
0.937955364
0.936679942
0.936616892
0.938138539
0.938565964
0.937056869
0.935719414
0.937315461
0.939071294
0.938342822
0.935109871
0.935429705
0.939067836
0.939324106
0.93615783
0.934401962
0.937696783
0.939544479
0.938068142
0.934483948
0.935634834
0.939214646
0.939093006
0.935707809
0.93513993
0.938077497
0.938903914
0.937256359
0.935728329
0.936997217
0.938404604
0.937900241
0.936415145
0.936584602
0.937905291
0.937893561
0.936967834
0.936787692
0.93739915
0.937650103
0.937309823
0.936985765
0.937127663
0.937434837
0.93740461
0.937154796
0.937101661
0.937202587
0.937294122
0.937273037
0.937180466
0.93713424
0.937144481
0.937201517
0.93721184
0.937175678
0.93711123
0.937100209
0.937121341
0.937154182
0.937146991
0.937097847
0.937033051
0.93703081
0.937125578
0.937147655
0.937017547
0.936888528
0.936977759
0.937210477
0.937163096
0.936733546
0.93667803
0.937160784
0.937368188
0.936879936
0.936332315
0.936704901
0.937526967
0.937401653
0.936171321
0.936076225
0.937263308
0.937650531
0.936750998
0.935847895
0.936465256
0.937557306
0.937395255
0.936087141
0.936013201
0.937024637
0.937335201
0.936748049
0.936192862
0.936460196
0.937028172
0.936972416
0.936488151
0.936426932
0.936690673
0.936801112
0.936680262
0.936548605
0.936570807
0.936653311
0.936644121
0.936600229
0.936589868
0.936588335
0.93658154
0.936577227
0.936574776
0.936567633
0.936567521
0.936569239
0.936537381
0.936499007
0.936535854
0.936622084
0.936585917
0.936384743
0.936384342
0.936663838
0.936728703
0.936401462
0.936186199
0.93649464
0.936866412
0.936661098
0.936065368
0.936134996
0.93687091
0.936908813
0.936221453
0.935982256
0.936571707
0.936962607
0.936579073
0.935992955
0.936208222
0.936893375
0.936854393
0.936166025
0.936071378
0.936625337
0.936862888
0.936509693
0.936131531
0.936326059
0.936761152
0.93671637
0.936285606
0.936261326
0.936574135
0.936665089
0.936475088
0.936357556
0.936467996
0.936573529
0.936509825
0.93642831
0.936484714
0.936566075
0.936504973
0.93638273
0.93644014
0.936656427
0.936641947
0.936318337
0.936260788
0.936616692
0.936820327
0.936536904
0.936114064
0.936259252
0.936884584
0.936875897
0.936245438
0.936056907
0.936569391
0.936934629
0.936649335
0.936117106
0.936214195
0.936809412
0.936809544
0.936361332
0.936245387
0.936543542
0.936715508
0.936558089
0.936370464
0.936441193
0.936605693
0.936589298
0.936462039
0.936462503
0.936537601
0.936549337
0.936510937
0.936497387
0.936515981
0.936527706
0.93652067
0.936513989
0.936517981
0.936523572
0.93652405
0.93652387
0.936526624
0.936529954
0.936529786
0.936529005
0.936538118
0.936556524
0.93655195
0.936484601
0.936483502
0.936673208
0.936771628
0.936332922
0.935802753
0.936542734
0.938079446
0.937334917
0.932393137
0.933227286
0.939896393
0.939737643
0.929066689
0.90481437
0.938112085
0.951039395
0.941128591
0.932971739
0.904579244
0.905678017
0.962352281
0.962538841
0.926702693
0.906464771
0.911272679
0.959596277
0.948477313
0.903195994
0.906373598
0.941690696
0.958610294
0.939213654
0.904456641
0.904670747
0.950370998
0.955931989
0.936482302
0.905467513
0.906152342
0.958674551
0.958749499
0.931366135
0.905671219
0.905705253
0.956776888
0.936944719
0.906405711
)
;

boundaryField
{
    closed
    {
        type            calculated;
        value           uniform 0.583161246;
    }
    open
    {
        type            calculated;
        value           nonuniform List<scalar> 0();
    }
    sides
    {
        type            empty;
    }
    procBoundary0to1
    {
        type            processor;
        value           uniform 0.951990686;
    }
}


// ************************************************************************* //
