/*--------------------------------*- C++ -*----------------------------------*\
| =========                 |                                                 |
| \\      /  F ield         | OpenFOAM: The Open Source CFD Toolbox           |
|  \\    /   O peration     | Version:  2306                                  |
|   \\  /    A nd           | Website:  www.openfoam.com                      |
|    \\/     M anipulation  |                                                 |
\*---------------------------------------------------------------------------*/
FoamFile
{
    version     2.0;
    format      ascii;
    arch        "LSB;label=32;scalar=64";
    class       volScalarField;
    location    "6e-05";
    object      H2;
}
// * * * * * * * * * * * * * * * * * * * * * * * * * * * * * * * * * * * * * //

dimensions      [0 0 0 0 0 0 0];

internalField   nonuniform List<scalar> 
530
(
0.000305762087
0.000298937485
0.00029255025
0.000286201986
0.000280115171
0.000274141029
0.000268288979
0.000262634554
0.000256981415
0.00025162096
0.000246136441
0.000241019162
0.000235645609
0.000230747681
0.000225482697
0.000220915829
0.000215795925
0.000211371686
0.000206320226
0.000202072941
0.000197091489
0.000192974389
0.000187957315
0.000183957911
0.000178994274
0.000175150433
0.000170238356
0.000166477801
0.000161500629
0.000157876895
0.00015294964
0.000149477191
0.000144602024
0.000141218358
0.000136266335
0.000133035054
0.000128109824
0.000125052317
0.000120413431
0.000117394843
0.000112736667
0.000109644493
0.000105260977
0.00010218977
9.80444637e-05
9.50166149e-05
9.10756975e-05
8.80348555e-05
8.42498342e-05
8.12790633e-05
7.77134166e-05
7.48282324e-05
7.14725289e-05
6.86857443e-05
6.55149365e-05
6.27753909e-05
5.97584573e-05
5.71331203e-05
5.43161572e-05
5.17750455e-05
4.91003989e-05
4.66920895e-05
4.41944445e-05
4.19243032e-05
3.95814991e-05
3.74211963e-05
3.52430788e-05
3.32265389e-05
3.12235642e-05
2.93510476e-05
2.75143828e-05
2.57822759e-05
2.41045017e-05
2.25057741e-05
2.09807707e-05
1.9505408e-05
1.81277303e-05
1.67675723e-05
1.56530414e-05
1.4565064e-05
1.35686783e-05
1.26093033e-05
1.17263193e-05
1.08825457e-05
1.01057617e-05
9.36606748e-06
8.68677896e-06
8.04091635e-06
7.44986874e-06
6.8884832e-06
6.37654847e-06
5.89091128e-06
5.44943873e-06
5.03134435e-06
4.65229408e-06
4.29405864e-06
3.97003161e-06
3.66452302e-06
3.38875403e-06
3.12941663e-06
2.89575656e-06
2.67661954e-06
2.4795136e-06
2.29518411e-06
2.12964656e-06
1.97529139e-06
1.83687638e-06
1.70819553e-06
1.59296439e-06
1.48615923e-06
1.390645e-06
1.30238261e-06
1.22355281e-06
1.15092824e-06
1.08614684e-06
1.0266444e-06
9.73633961e-07
9.2508863e-07
8.81893219e-07
8.42453022e-07
8.07402638e-07
7.75492673e-07
7.47169605e-07
7.21458199e-07
6.98665648e-07
6.78033033e-07
6.59766143e-07
6.43275998e-07
6.28695215e-07
6.15569319e-07
6.03976115e-07
5.93571732e-07
5.84387722e-07
5.76175484e-07
5.68928094e-07
5.62465913e-07
5.56783416e-07
5.51687121e-07
5.47291933e-07
5.43237445e-07
5.39886733e-07
5.36743213e-07
5.35552036e-07
5.35544107e-07
5.35538049e-07
5.35533186e-07
5.3552945e-07
5.35526502e-07
5.35524216e-07
5.35522432e-07
5.35521048e-07
5.35519973e-07
5.35519141e-07
5.35518498e-07
5.35518001e-07
5.35517618e-07
5.35517323e-07
5.35517097e-07
5.35516923e-07
5.3551679e-07
5.35516688e-07
5.3551661e-07
5.35516549e-07
5.35516508e-07
5.35516471e-07
5.35516445e-07
5.35516426e-07
5.3551641e-07
5.35516399e-07
5.3551639e-07
5.35516383e-07
5.35516378e-07
5.35516374e-07
5.35516372e-07
5.35516369e-07
5.35516368e-07
5.35516367e-07
5.35516366e-07
5.35516365e-07
5.35516365e-07
5.35516364e-07
5.35516364e-07
5.35516364e-07
5.35516364e-07
5.35516363e-07
5.35516363e-07
5.35516363e-07
5.35516363e-07
5.35516363e-07
5.35516363e-07
5.35516363e-07
5.35516363e-07
5.35516363e-07
5.35516363e-07
5.35516363e-07
5.35516363e-07
5.35516363e-07
5.35516363e-07
5.35516363e-07
5.35516363e-07
5.35516363e-07
5.35516363e-07
5.35516363e-07
5.35516363e-07
5.35516363e-07
5.35516363e-07
5.35516363e-07
5.35516363e-07
5.35516363e-07
5.35516363e-07
5.35516363e-07
5.35516363e-07
5.35516363e-07
5.35516363e-07
5.35516363e-07
5.35516363e-07
5.35516363e-07
5.35516363e-07
5.35516363e-07
5.35516363e-07
5.35516363e-07
5.35516363e-07
5.35516363e-07
5.35516363e-07
5.35516363e-07
5.35516363e-07
5.35516363e-07
5.35516363e-07
5.35516363e-07
5.35516363e-07
5.35516363e-07
5.35516363e-07
5.35516363e-07
5.35516363e-07
5.35516363e-07
5.35516363e-07
5.35516363e-07
5.35516363e-07
5.35516363e-07
5.35516363e-07
5.35516363e-07
5.35516363e-07
5.35516363e-07
5.35516363e-07
5.35516363e-07
5.35516363e-07
5.35516363e-07
5.35516363e-07
5.35516363e-07
5.35516363e-07
5.35516363e-07
5.35516363e-07
5.35516363e-07
5.35516363e-07
5.35516363e-07
5.35516363e-07
5.35516363e-07
5.35516363e-07
5.35516363e-07
5.35516363e-07
5.35516363e-07
5.35516363e-07
5.35516363e-07
5.35516363e-07
5.35516363e-07
5.35516363e-07
5.35516363e-07
5.35516363e-07
5.35516363e-07
5.35516363e-07
5.35516363e-07
5.35516363e-07
5.35516363e-07
5.35516363e-07
5.35516363e-07
5.35516363e-07
5.35516363e-07
5.35516363e-07
5.35516363e-07
5.35516363e-07
5.35516363e-07
5.35516363e-07
5.35516363e-07
5.35516363e-07
5.35516363e-07
5.35516363e-07
5.35516363e-07
5.35516363e-07
5.35516363e-07
5.35516363e-07
5.35516363e-07
5.35516363e-07
5.35516363e-07
5.35516363e-07
5.35516363e-07
5.35516363e-07
5.35516363e-07
5.35516363e-07
5.35516363e-07
5.35516363e-07
5.35516363e-07
5.35516363e-07
5.35516363e-07
5.35516363e-07
5.35516363e-07
5.35516363e-07
5.35516363e-07
5.35516363e-07
5.35516363e-07
5.35516363e-07
5.35516363e-07
5.35516363e-07
5.35516363e-07
5.35516363e-07
5.35516363e-07
5.35516363e-07
5.35516363e-07
5.35516363e-07
5.35516363e-07
5.35516363e-07
5.35516363e-07
5.35516363e-07
5.35516363e-07
5.35516363e-07
5.35516363e-07
5.35516363e-07
5.35516363e-07
5.35516363e-07
5.35516363e-07
5.35516363e-07
5.35516363e-07
5.35516363e-07
5.35516363e-07
5.35516363e-07
5.35516363e-07
5.35516363e-07
5.35516363e-07
5.35516363e-07
5.35516363e-07
5.35516363e-07
5.35516363e-07
5.35516363e-07
5.35516363e-07
5.35516363e-07
5.35516363e-07
5.35516363e-07
5.35516363e-07
5.35516363e-07
5.35516363e-07
5.35516363e-07
5.35516363e-07
5.35516363e-07
5.35516363e-07
5.35516363e-07
5.35516363e-07
5.35516363e-07
5.35516363e-07
5.35516363e-07
5.35516363e-07
5.35516363e-07
5.35516363e-07
5.35516363e-07
5.35516363e-07
5.35516363e-07
5.35516363e-07
5.35516363e-07
5.35516363e-07
5.35516363e-07
5.35516363e-07
5.35516363e-07
5.35516363e-07
5.35516363e-07
5.35516363e-07
5.35516363e-07
5.35516363e-07
5.35516363e-07
5.35516363e-07
5.35516363e-07
5.35516363e-07
5.35516363e-07
5.35516363e-07
5.35516363e-07
5.35516363e-07
5.35516363e-07
5.35516363e-07
5.35516363e-07
5.35516363e-07
5.35516363e-07
5.35516363e-07
5.35516363e-07
5.35516363e-07
5.35516363e-07
5.35516363e-07
5.35516363e-07
5.35516363e-07
5.35516363e-07
5.35516363e-07
5.35516363e-07
5.35516363e-07
5.35516363e-07
5.35516363e-07
5.35516363e-07
5.35516363e-07
5.35516363e-07
5.35516363e-07
5.35516363e-07
5.35516363e-07
5.35516363e-07
5.35516363e-07
5.35516363e-07
5.35516363e-07
5.35516363e-07
5.35516363e-07
5.35516363e-07
5.35516363e-07
5.35516363e-07
5.35516363e-07
5.35516363e-07
5.35516363e-07
5.35516363e-07
5.35516363e-07
5.35516363e-07
5.35516363e-07
5.35516363e-07
5.35516363e-07
5.35516363e-07
5.35516363e-07
5.35516363e-07
5.35516363e-07
5.35516363e-07
5.35516363e-07
5.35516363e-07
5.35516363e-07
5.35516363e-07
5.35516363e-07
5.35516363e-07
5.35516363e-07
5.35516363e-07
5.35516363e-07
5.35516363e-07
5.35516363e-07
5.35516363e-07
5.35516363e-07
5.35516363e-07
5.35516363e-07
5.35516363e-07
5.35516363e-07
5.35516363e-07
5.35516363e-07
5.35516363e-07
5.35516363e-07
5.35516363e-07
5.35516363e-07
5.35516363e-07
5.35516363e-07
5.35516363e-07
5.35516363e-07
5.35516363e-07
5.35516363e-07
5.35516363e-07
5.35516363e-07
5.35516363e-07
5.35516363e-07
5.35516363e-07
5.35516363e-07
5.35516363e-07
5.35516363e-07
5.35516363e-07
5.35516363e-07
5.35516363e-07
5.35516363e-07
5.35516363e-07
5.35516363e-07
5.35516363e-07
5.35516363e-07
5.35516363e-07
5.35516363e-07
5.35516363e-07
5.35516363e-07
5.35516363e-07
5.35516363e-07
5.35516363e-07
5.35516363e-07
5.35516363e-07
5.35516363e-07
5.35516363e-07
5.35516363e-07
5.35516363e-07
5.35516363e-07
5.35516363e-07
5.35516363e-07
5.35516363e-07
5.35516363e-07
5.35516363e-07
5.35516363e-07
5.35516363e-07
5.35516363e-07
5.35516363e-07
5.35516363e-07
5.35516363e-07
5.35516363e-07
5.35516363e-07
5.35516363e-07
5.35516363e-07
5.35516363e-07
5.35516363e-07
5.35516363e-07
5.35516363e-07
5.35516363e-07
5.35516363e-07
5.35516363e-07
5.35516363e-07
5.35516363e-07
5.35516363e-07
5.35516363e-07
5.35516363e-07
5.35516363e-07
5.35516363e-07
5.35516363e-07
5.35516363e-07
5.35516363e-07
5.35516363e-07
5.35516363e-07
5.35516363e-07
5.35516363e-07
5.35516363e-07
5.35516363e-07
5.35516363e-07
5.35516363e-07
5.35516363e-07
)
;

boundaryField
{
    closed
    {
        type            calculated;
        value           nonuniform List<scalar> 0();
    }
    open
    {
        type            calculated;
        value           uniform 5.35516363e-07;
    }
    sides
    {
        type            empty;
    }
    procBoundary5to4
    {
        type            processor;
        value           uniform 0.000312538717;
    }
}


// ************************************************************************* //
