/*--------------------------------*- C++ -*----------------------------------*\
| =========                 |                                                 |
| \\      /  F ield         | OpenFOAM: The Open Source CFD Toolbox           |
|  \\    /   O peration     | Version:  2306                                  |
|   \\  /    A nd           | Website:  www.openfoam.com                      |
|    \\/     M anipulation  |                                                 |
\*---------------------------------------------------------------------------*/
FoamFile
{
    version     2.0;
    format      ascii;
    arch        "LSB;label=32;scalar=64";
    class       surfaceScalarField;
    location    "6e-05";
    object      phi;
}
// * * * * * * * * * * * * * * * * * * * * * * * * * * * * * * * * * * * * * //

dimensions      [1 0 -1 0 0 0 0];

oriented        oriented;

internalField   nonuniform List<scalar> 
529
(
4.43494752e-06
4.49953247e-06
4.5612753e-06
4.62001586e-06
4.67592535e-06
4.72888053e-06
4.77907048e-06
4.8263674e-06
4.87100141e-06
4.9128803e-06
4.95228016e-06
4.98916411e-06
5.02386096e-06
5.05641889e-06
5.08718493e-06
5.11661177e-06
5.14490385e-06
5.17222574e-06
5.19898328e-06
5.2254047e-06
5.25193829e-06
5.27898495e-06
5.30685407e-06
5.33576924e-06
5.3661356e-06
5.3981385e-06
5.43210007e-06
5.46843535e-06
5.50710971e-06
5.54812411e-06
5.59159404e-06
5.63737567e-06
5.68549457e-06
5.73600359e-06
5.78850226e-06
5.84234216e-06
5.89739837e-06
5.95325726e-06
6.0078217e-06
6.06175584e-06
6.11442916e-06
6.16449471e-06
6.21112715e-06
6.25327004e-06
6.28984263e-06
6.31987447e-06
6.34281535e-06
6.35723226e-06
6.36197447e-06
6.35620621e-06
6.33898066e-06
6.30961936e-06
6.2673597e-06
6.21181671e-06
6.14306101e-06
6.06047528e-06
5.96385784e-06
5.85342893e-06
5.72948392e-06
5.59258575e-06
5.44348908e-06
5.28319568e-06
5.11272478e-06
4.93350546e-06
4.74723851e-06
4.55520182e-06
4.35892469e-06
4.16022145e-06
3.96084896e-06
3.76263967e-06
3.56738099e-06
3.37682093e-06
3.1926381e-06
3.01636968e-06
2.84947868e-06
2.69317659e-06
2.5486132e-06
2.41675773e-06
2.29822598e-06
2.1934282e-06
2.10266944e-06
2.02597585e-06
1.96320047e-06
1.91398267e-06
1.87777691e-06
1.85386891e-06
1.84138839e-06
1.83933478e-06
1.84659787e-06
1.86198005e-06
1.88422408e-06
1.91203294e-06
1.94409863e-06
1.97912148e-06
2.01583584e-06
2.05302852e-06
2.0895597e-06
2.12437906e-06
2.15654129e-06
2.18521857e-06
2.20971028e-06
2.22945094e-06
2.24401421e-06
2.25311585e-06
2.25661223e-06
2.25449838e-06
2.24690159e-06
2.23407489e-06
2.21638664e-06
2.19431029e-06
2.16841087e-06
2.13933215e-06
2.1077812e-06
2.07451423e-06
2.04032045e-06
2.0060077e-06
1.97238701e-06
1.94025904e-06
1.9104004e-06
1.88355196e-06
1.86040759e-06
1.84160509e-06
1.8277179e-06
1.81924904e-06
1.816626e-06
1.82019776e-06
1.83023281e-06
1.84691903e-06
1.87036455e-06
1.9006001e-06
1.9375822e-06
1.9811974e-06
2.03126726e-06
2.08755396e-06
2.14976616e-06
2.21756576e-06
2.29057367e-06
2.36837747e-06
2.4505367e-06
2.53658973e-06
2.62606139e-06
2.71846335e-06
2.81332844e-06
2.91014501e-06
3.00842797e-06
3.10770373e-06
3.20751035e-06
3.30740085e-06
3.4069457e-06
3.50573441e-06
3.60337688e-06
3.69950421e-06
3.79376914e-06
3.88584605e-06
3.97543072e-06
4.06223976e-06
4.14600976e-06
4.22649635e-06
4.30347301e-06
4.37672984e-06
4.44607225e-06
4.51131965e-06
4.57230413e-06
4.62886924e-06
4.68086885e-06
4.72816615e-06
4.77063279e-06
4.80814817e-06
4.84059897e-06
4.86787887e-06
4.88988843e-06
4.90653527e-06
4.91773438e-06
4.92340867e-06
4.92348974e-06
4.91791878e-06
4.90664768e-06
4.88964021e-06
4.86687341e-06
4.838339e-06
4.80404483e-06
4.7640164e-06
4.71829831e-06
4.66695575e-06
4.61007578e-06
4.54776857e-06
4.4801685e-06
4.40743501e-06
4.32975324e-06
4.24733449e-06
4.16041636e-06
4.06926256e-06
3.97416252e-06
3.87543061e-06
3.77340506e-06
3.66844658e-06
3.56093665e-06
3.45127552e-06
3.33987995e-06
3.22718066e-06
3.11361958e-06
2.99964689e-06
2.88571789e-06
2.77228978e-06
2.65981833e-06
2.54875453e-06
2.43954121e-06
2.33260979e-06
2.22837703e-06
2.12724196e-06
2.02958295e-06
1.93575507e-06
1.84608755e-06
1.7608816e-06
1.68040849e-06
1.60490794e-06
1.53458682e-06
1.46961816e-06
1.41014053e-06
1.3562577e-06
1.30803867e-06
1.26551795e-06
1.22869622e-06
1.19754116e-06
1.17198865e-06
1.15194416e-06
1.13728431e-06
1.1278587e-06
1.12349186e-06
1.12398533e-06
1.12911985e-06
1.13865765e-06
1.1523448e-06
1.16991354e-06
1.19108468e-06
1.21556996e-06
1.24307438e-06
1.27329845e-06
1.30594043e-06
1.34069841e-06
1.37727237e-06
1.41536605e-06
1.45468877e-06
1.49495711e-06
1.5358964e-06
1.57724215e-06
1.61874131e-06
1.66015338e-06
1.70125141e-06
1.74182281e-06
1.7816701e-06
1.82061145e-06
1.85848116e-06
1.89512998e-06
1.93042533e-06
1.96425137e-06
1.99650908e-06
2.02711607e-06
2.05600649e-06
2.08313069e-06
2.10845495e-06
2.13196104e-06
2.15364575e-06
2.17352041e-06
2.1916103e-06
2.20795406e-06
2.22260302e-06
2.23562057e-06
2.24708145e-06
2.257071e-06
2.26568447e-06
2.2730262e-06
2.27920893e-06
2.28435295e-06
2.28858535e-06
2.29203921e-06
2.29485281e-06
2.2971688e-06
2.29913341e-06
2.30089562e-06
2.30260636e-06
2.30441766e-06
2.30648187e-06
2.3089508e-06
2.31197496e-06
2.31570267e-06
2.32027932e-06
2.32584653e-06
2.33254136e-06
2.34049555e-06
2.34983472e-06
2.36067764e-06
2.3731355e-06
2.38731119e-06
2.40329862e-06
2.4211821e-06
2.44103567e-06
2.4629226e-06
2.48689478e-06
2.51299231e-06
2.541243e-06
2.57166204e-06
2.60425166e-06
2.63900088e-06
2.6758853e-06
2.714867e-06
2.75589449e-06
2.7989027e-06
2.84381312e-06
2.89053391e-06
2.93896023e-06
2.98897451e-06
3.04044687e-06
3.09323562e-06
3.14718782e-06
3.2021399e-06
3.25791838e-06
3.31434068e-06
3.37121592e-06
3.42834588e-06
3.48552596e-06
3.54254621e-06
3.59919242e-06
3.65524725e-06
3.71049141e-06
3.76470484e-06
3.81766798e-06
3.86916297e-06
3.91897499e-06
3.96689344e-06
4.01271328e-06
4.05623624e-06
4.0972721e-06
4.13563984e-06
4.17116885e-06
4.20370006e-06
4.23308698e-06
4.25919672e-06
4.28191094e-06
4.30112669e-06
4.3167572e-06
4.32873252e-06
4.33700014e-06
4.34152546e-06
4.34229211e-06
4.33930225e-06
4.33257665e-06
4.32215473e-06
4.30809443e-06
4.290472e-06
4.26938158e-06
4.2449348e-06
4.21726013e-06
4.18650217e-06
4.15282088e-06
4.11639062e-06
4.07739917e-06
4.0360466e-06
3.99254412e-06
3.94711287e-06
3.89998255e-06
3.85139014e-06
3.8015785e-06
3.75079498e-06
3.69928999e-06
3.64731562e-06
3.59512418e-06
3.54296691e-06
3.49109254e-06
3.43974604e-06
3.38916735e-06
3.33959018e-06
3.29124088e-06
3.24433738e-06
3.19908823e-06
3.15569167e-06
3.11433487e-06
3.07519313e-06
3.03842936e-06
3.00419343e-06
2.97262181e-06
2.94383713e-06
2.917948e-06
2.89504873e-06
2.87521931e-06
2.85852531e-06
2.84501798e-06
2.83473432e-06
2.82769731e-06
2.82391609e-06
2.8233863e-06
2.82609037e-06
2.83199795e-06
2.84106627e-06
2.85324065e-06
2.86845493e-06
2.88663198e-06
2.90768424e-06
2.93151422e-06
2.95801507e-06
2.98707111e-06
3.01855839e-06
3.05234527e-06
3.08829292e-06
3.12625592e-06
3.1660828e-06
3.20761657e-06
3.25069525e-06
3.29515241e-06
3.34081769e-06
3.3875173e-06
3.43507452e-06
3.48331019e-06
3.53204323e-06
3.58109104e-06
3.63027002e-06
3.67939604e-06
3.72828483e-06
3.77675248e-06
3.82461586e-06
3.87169301e-06
3.91780366e-06
3.96276956e-06
4.00641495e-06
4.04856694e-06
4.08905597e-06
4.12771618e-06
4.16438582e-06
4.19890769e-06
4.23112949e-06
4.26090427e-06
4.28809081e-06
4.31255401e-06
4.3341653e-06
4.35280304e-06
4.3683529e-06
4.38070824e-06
4.38977052e-06
4.39544964e-06
4.39766435e-06
4.39634259e-06
4.39142185e-06
4.38284953e-06
4.37058323e-06
4.3545911e-06
4.33485215e-06
4.31135648e-06
4.2841056e-06
4.25311263e-06
4.21840248e-06
4.18001208e-06
4.13799041e-06
4.09229882e-06
4.0394575e-06
3.97850144e-06
3.90837988e-06
3.8279668e-06
3.73608018e-06
3.63151441e-06
3.51309e-06
3.37972745e-06
3.23055018e-06
3.06502563e-06
2.8831516e-06
2.68569311e-06
2.47447095e-06
2.25269828e-06
2.0253435e-06
1.79946795e-06
1.58446705e-06
1.39209048e-06
1.23607109e-06
1.13116559e-06
1.09145975e-06
1.12793365e-06
1.24543002e-06
1.43934007e-06
1.69263345e-06
1.97455666e-06
2.24461024e-06
2.46157087e-06
2.59560443e-06
2.63946065e-06
2.61106388e-06
2.54130445e-06
2.44950184e-06
2.3294034e-06
2.16514926e-06
1.9806491e-06
1.87714198e-06
1.96320735e-06
2.27586723e-06
2.75382724e-06
3.24103766e-06
3.6105968e-06
3.8554016e-06
4.04305159e-06
4.29343386e-06
4.32513185e-06
3.15688772e-06
1.7726456e-06
2.04731566e-06
3.47098677e-06
4.17429067e-06
2.92492612e-06
1.21818806e-06
7.88136862e-07
1.5515122e-06
2.74898518e-06
3.3827401e-06
3.52501684e-06
3.8662471e-06
3.82787061e-06
2.89753526e-06
2.26614559e-06
2.97607826e-06
3.96794767e-06
3.59205211e-06
2.49558465e-06
2.19147896e-06
2.70294834e-06
3.30182149e-06
3.43557954e-06
3.3728818e-06
3.34413937e-06
3.48140144e-06
3.58324637e-06
3.39586878e-06
3.33242716e-06
)
;

boundaryField
{
    closed
    {
        type            calculated;
        value           nonuniform List<scalar> 0();
    }
    open
    {
        type            calculated;
        value           uniform 3.25120459e-06;
    }
    sides
    {
        type            empty;
        value           nonuniform List<scalar> 0();
    }
    procBoundary5to4
    {
        type            processor;
        value           uniform -4.36731109e-06;
    }
}


// ************************************************************************* //
