/*--------------------------------*- C++ -*----------------------------------*\
| =========                 |                                                 |
| \\      /  F ield         | OpenFOAM: The Open Source CFD Toolbox           |
|  \\    /   O peration     | Version:  2306                                  |
|   \\  /    A nd           | Website:  www.openfoam.com                      |
|    \\/     M anipulation  |                                                 |
\*---------------------------------------------------------------------------*/
FoamFile
{
    version     2.0;
    format      ascii;
    arch        "LSB;label=32;scalar=64";
    class       volScalarField;
    location    "0.0004";
    object      prefDh_H;
}
// * * * * * * * * * * * * * * * * * * * * * * * * * * * * * * * * * * * * * //

dimensions      [1 1 -3 0 0 0 0];

internalField   nonuniform List<scalar> 
531
(
23308.3543
23814.6213
23858.0824
23390.6315
23329.3809
23797.049
23848.0821
23325.376
23287.9642
23805.0717
23551.144
23410.2006
23457.8332
23628.0198
23381.91
23367.0595
23737.4788
23383.2973
23043.4852
23336.6378
23839.4117
23483.5085
23412.1259
23449.3211
23701.633
23372.8917
23365.8746
23755.9035
23706.3257
23272.8799
23357.3901
23814.3356
23875.7371
23374.2006
23164.2586
23398.4506
23797.4833
23407.0324
23409.5723
23378.8138
23445.4566
23414.0813
23380.972
23387.0211
23403.7134
23399.8164
23391.2351
23391.854
23394.4413
23394.1936
23393.0356
23393.0008
23393.245
23393.237
23393.1308
23393.1132
23393.1276
23393.1281
23393.1199
23393.117
23393.1175
23393.1174
23393.1168
23393.1165
23393.1164
23393.1164
23393.1164
23393.1164
23393.1161
23393.1161
23393.1166
23393.1169
23393.1159
23393.1148
23393.1164
23393.1193
23393.1174
23393.1106
23393.1119
23393.1254
23393.1259
23393.1048
23393.1004
23393.1264
23393.1392
23393.1114
23393.0872
23393.1125
23393.1485
23393.1301
23393.0851
23393.0943
23393.1426
23393.1419
23393.0971
23393.0941
23393.1265
23393.1333
23393.1107
23393.1028
23393.1228
23393.1331
23393.1039
23393.0804
23393.1321
23393.2048
23393.1246
23392.9131
23392.9898
23393.5389
23393.5578
23392.3999
23392.1533
23393.9933
23395.1176
23392.4968
23389.6925
23392.5547
23399.1456
23396.548
23385.5945
23385.6795
23404.2734
23406.8371
23385.3427
23378.9798
23397.46
23418.4196
23395.7237
23375.1065
23383.6648
23421.7465
23413.7674
23376.7824
23376.2561
23409.9792
23416.9758
23386.65
23378.9617
23394.323
23407.9305
23395.3146
23384.6812
23389.7184
23399.401
23396.702
23389.7359
23390.4583
23395.0358
23394.9939
23392.1783
23392.0762
23393.5214
23393.6827
23392.9349
23392.8196
23393.2166
23393.283
23393.0515
23393.0147
23393.1588
23393.182
23393.0912
23393.0746
23393.1284
23393.1413
23393.1118
23393.1024
23393.1171
23393.1234
23393.1167
23393.1129
23393.1158
23393.1178
23393.1163
23393.1152
23393.117
23393.1184
23393.1149
23393.1106
23393.1165
23393.1307
23393.1249
23393.0834
23393.0813
23393.1767
23393.2044
23393.0438
23392.9189
23393.1383
23393.5066
23393.3246
23392.4571
23392.4202
23393.9611
23394.443
23392.7692
23391.1318
23392.0162
23395.4586
23396.1218
23393.444
23388.7746
23388.0046
23395.4346
23407.0982
23403.4405
23376.2821
23374.9217
23420.5553
23460.668
23385.0669
23382.4667
23375.2735
23602.2885
23543.8863
23335.1278
23293.799
23768.2575
23952.8637
23372.5874
23110.7565
23398.2621
23901.2204
23474.06
23175.4353
23392.9848
23866.6907
23926.1815
23384.5122
23086.3467
23475.8014
23910.9044
23445.7238
23178.2697
23337.6417
23878.9131
23924.1794
23376.9072
23303.1558
23433.4872
23640.9751
23396.2204
23379.838
23377.6829
23435.5628
23408.8866
23394.6153
23407.135
23386.2921
23386.1178
23381.8158
23687.2014
23473.3647
23264.4086
23362.6578
23876.7204
23954.2225
23360.3489
23070.2784
23363.4288
23889.7713
23536.7299
23201.0046
23380.5755
23871.8517
23899.4282
23381.5298
23076.1755
23412.9078
23899.2123
23458.7989
23170.3055
23379.5865
23865.3486
23873.9118
23356.6136
23081.2094
23382.2041
23897.7182
23519.817
23216.4504
23373.5354
23880.4682
23890.9142
23374.763
23094.2933
23361.4136
23881.238
23757.6395
23347.2768
23138.0034
23386.4561
23900.2567
23694.3928
23330.0508
23136.8444
23393.9096
23904.8382
23679.5472
23322.7751
23133.4645
23394.272
23904.1649
23669.2401
23324.5275
23138.1802
23393.5442
23905.0455
23668.0786
23336.095
23132.9665
23372.8276
23896.8076
23738.7751
23339.7246
23128.4909
23389.395
23890.762
23596.4691
23242.3963
23171.9339
23699.9311
23942.5019
23377.2967
23085.6281
23365.1534
23890.7314
23434.0358
23183.3782
23369.0996
23899.9565
23668.6213
23225.4547
23107.4283
23505.5012
23949.6306
23467.4936
23379.2823
23377.5143
23414.059
23385.8549
23383.9789
23504.7249
23578.6829
23382.4547
23221.2103
23480.0198
23928.3566
23398.1203
23155.3692
23391.1779
23909.8716
23595.8204
23260.2445
23102.7015
23404.3804
23907.7982
23410.5093
23180.3078
23431.1383
23932.8758
23377.0737
23141.803
23492.0709
23932.2789
23448.6889
23070.5358
23067.9646
23777.9916
24014.9903
23443.6789
23271.1409
22938.7352
22951.6004
23899.6089
24138.9771
23298.5275
23024.7639
23871.5843
24180.6488
24099.8012
23298.2606
22740.4957
23551.9691
24028.7351
23956.3556
24010.0665
23993.4217
24024.1297
24031.9565
24069.4125
24109.2168
24168.5048
24264.5716
24430.0774
24671.8054
24460.5784
24245.1109
24096.9572
23952.4213
23877.7932
23791.0596
23730.5177
23636.1843
23511.0238
23445.8613
23417.4415
23419.7044
23245.9469
23232.0871
23760.0839
23942.7524
25419.4858
26724.1348
27367.6532
28131.7381
27489.3963
28769.7004
28662.4622
31379.132
32008.3053
33207.2847
34942.5969
37548.1529
39835.1907
44054.8972
48184.2718
50934.1766
53215.1149
55477.3189
57825.9345
59748.4657
61500.5107
63112.2869
64739.5086
66306.0607
67779.8799
69176.5844
70471.7995
71700.3073
72814.8387
73837.2476
74740.4142
75598.1091
76360.5068
77101.1878
77731.3639
78345.5486
78904.914
79559.5879
80073.4601
80701.9332
81134.6317
81716.5549
82130.2339
82671.0755
83048.8254
83512.2702
83907.9383
84366.6361
84684.6523
85017.6416
85299.7394
85590.1354
85862.2878
86143.7301
86419.6697
86703.0473
86959.9338
87219.0871
87491.5322
87780.6131
88034.4313
88270.5225
88475.5092
88665.3433
88847.1004
89019.9185
89194.4245
89359.4563
89526.9579
89674.3885
89818.1681
89954.441
90149.1578
90276.5059
90474.2671
90590.0222
90775.2137
90875.6453
91038.5594
91132.2736
91267.892
91348.6261
91471.6141
91551.2138
91663.8433
91741.7242
91843.9493
91916.8055
92009.8765
92078.2715
92164.0209
92227.7013
92307.1713
92365.1136
92434.0834
92486.1705
92557.8062
92609.0624
92676.6759
92723.4879
92787.2966
92830.0245
92890.2693
92926.729
92978.9193
93008.7738
93056.5154
93085.4765
93128.2233
93155.6447
93194.1582
93219.7599
93254.5799
93278.2562
93309.809
93330.5316
93355.6195
93372.1691
)
;

boundaryField
{
    closed
    {
        type            calculated;
        value           nonuniform List<scalar> 0();
    }
    open
    {
        type            calculated;
        value           nonuniform List<scalar> 0();
    }
    sides
    {
        type            empty;
    }
    procBoundary4to3
    {
        type            processor;
        value           uniform 23114.1789;
    }
    procBoundary4to5
    {
        type            processor;
        value           uniform 93394.517;
    }
}


// ************************************************************************* //
