/*--------------------------------*- C++ -*----------------------------------*\
| =========                 |                                                 |
| \\      /  F ield         | OpenFOAM: The Open Source CFD Toolbox           |
|  \\    /   O peration     | Version:  2306                                  |
|   \\  /    A nd           | Website:  www.openfoam.com                      |
|    \\/     M anipulation  |                                                 |
\*---------------------------------------------------------------------------*/
FoamFile
{
    version     2.0;
    format      ascii;
    arch        "LSB;label=32;scalar=64";
    class       volScalarField;
    location    "0.0004";
    object      prefDPV_H2;
}
// * * * * * * * * * * * * * * * * * * * * * * * * * * * * * * * * * * * * * //

dimensions      [1 -1 -1 0 0 0 0];

internalField   nonuniform List<scalar> 
531
(
-3.08236754e-05
-3.13896913e-05
-3.14361316e-05
-3.09138197e-05
-3.0846911e-05
-3.1370173e-05
-3.14258201e-05
-3.08421517e-05
-3.08012121e-05
-3.13791114e-05
-3.10958611e-05
-3.09354449e-05
-3.09915309e-05
-3.11816945e-05
-3.09043029e-05
-3.08886707e-05
-3.13037728e-05
-3.09078664e-05
-3.05335109e-05
-3.08548804e-05
-3.14153368e-05
-3.10201589e-05
-3.09377171e-05
-3.09819642e-05
-3.12638029e-05
-3.0894213e-05
-3.08865884e-05
-3.13243307e-05
-3.12690534e-05
-3.07849734e-05
-3.08773362e-05
-3.13892907e-05
-3.14546107e-05
-3.08960212e-05
-3.06662207e-05
-3.09248632e-05
-3.13706529e-05
-3.09344543e-05
-3.09349158e-05
-3.09021912e-05
-3.09775674e-05
-3.09423273e-05
-3.09048619e-05
-3.09118064e-05
-3.09307149e-05
-3.09263304e-05
-3.0916655e-05
-3.09173609e-05
-3.0920293e-05
-3.09200157e-05
-3.09187116e-05
-3.09186733e-05
-3.09189507e-05
-3.09189421e-05
-3.09188228e-05
-3.09188031e-05
-3.09188195e-05
-3.09188202e-05
-3.0918811e-05
-3.09188078e-05
-3.09188083e-05
-3.09188083e-05
-3.09188076e-05
-3.09188072e-05
-3.09188071e-05
-3.09188071e-05
-3.09188071e-05
-3.09188071e-05
-3.09188068e-05
-3.09188068e-05
-3.09188073e-05
-3.09188077e-05
-3.09188066e-05
-3.09188053e-05
-3.09188071e-05
-3.09188105e-05
-3.09188083e-05
-3.09188006e-05
-3.09188021e-05
-3.09188172e-05
-3.09188179e-05
-3.0918794e-05
-3.09187891e-05
-3.09188184e-05
-3.09188329e-05
-3.09188014e-05
-3.09187742e-05
-3.09188027e-05
-3.09188434e-05
-3.09188226e-05
-3.09187717e-05
-3.09187822e-05
-3.09188367e-05
-3.0918836e-05
-3.09187853e-05
-3.0918782e-05
-3.09188185e-05
-3.09188262e-05
-3.09188007e-05
-3.09187918e-05
-3.09188144e-05
-3.09188259e-05
-3.0918793e-05
-3.09187665e-05
-3.09188249e-05
-3.0918907e-05
-3.09188164e-05
-3.09185775e-05
-3.09186641e-05
-3.09192842e-05
-3.09193056e-05
-3.09179978e-05
-3.09177191e-05
-3.09197973e-05
-3.09210665e-05
-3.09181073e-05
-3.09149374e-05
-3.09181726e-05
-3.092561e-05
-3.09226804e-05
-3.09102984e-05
-3.09103943e-05
-3.09313882e-05
-3.09342742e-05
-3.09100142e-05
-3.09027857e-05
-3.09237101e-05
-3.09473008e-05
-3.09217507e-05
-3.08983656e-05
-3.09081107e-05
-3.09510392e-05
-3.09420715e-05
-3.09002821e-05
-3.08996813e-05
-3.09378111e-05
-3.09456786e-05
-3.09114942e-05
-3.09027662e-05
-3.0920169e-05
-3.09355053e-05
-3.09212885e-05
-3.09092631e-05
-3.09149666e-05
-3.0925898e-05
-3.09228543e-05
-3.09149864e-05
-3.09158034e-05
-3.09209741e-05
-3.09209269e-05
-3.09177474e-05
-3.0917632e-05
-3.09192645e-05
-3.09194466e-05
-3.09186021e-05
-3.09184718e-05
-3.09189203e-05
-3.09189953e-05
-3.09187339e-05
-3.09186923e-05
-3.0918855e-05
-3.09188812e-05
-3.09187787e-05
-3.09187599e-05
-3.09188207e-05
-3.09188352e-05
-3.0918802e-05
-3.09187913e-05
-3.09188079e-05
-3.0918815e-05
-3.09188074e-05
-3.09188032e-05
-3.09188065e-05
-3.09188087e-05
-3.0918807e-05
-3.09188058e-05
-3.09188078e-05
-3.09188094e-05
-3.09188055e-05
-3.09188005e-05
-3.09188072e-05
-3.09188233e-05
-3.09188167e-05
-3.09187698e-05
-3.09187674e-05
-3.09188752e-05
-3.09189065e-05
-3.09187252e-05
-3.09185841e-05
-3.09188318e-05
-3.09192477e-05
-3.09190423e-05
-3.09180624e-05
-3.09180207e-05
-3.0919761e-05
-3.0920305e-05
-3.09184149e-05
-3.09165648e-05
-3.09175641e-05
-3.09214511e-05
-3.09221996e-05
-3.09191757e-05
-3.09138992e-05
-3.09130235e-05
-3.09214222e-05
-3.09345624e-05
-3.09304408e-05
-3.08996898e-05
-3.08980835e-05
-3.09496982e-05
-3.09946683e-05
-3.09096847e-05
-3.09053326e-05
-3.08984345e-05
-3.11529801e-05
-3.10877518e-05
-3.08533432e-05
-3.08078181e-05
-3.13380486e-05
-3.15364673e-05
-3.08945075e-05
-3.06070879e-05
-3.09247628e-05
-3.14809997e-05
-3.10096352e-05
-3.06780436e-05
-3.09163078e-05
-3.14447848e-05
-3.15083077e-05
-3.09068961e-05
-3.05804785e-05
-3.10116836e-05
-3.14912354e-05
-3.09778192e-05
-3.06811964e-05
-3.08559399e-05
-3.14583357e-05
-3.15066454e-05
-3.08988909e-05
-3.08182723e-05
-3.09641933e-05
-3.11961491e-05
-3.09222504e-05
-3.09024871e-05
-3.09012005e-05
-3.09665107e-05
-3.0936534e-05
-3.09204214e-05
-3.09345123e-05
-3.09109946e-05
-3.09093913e-05
-3.0905877e-05
-3.12477121e-05
-3.1008882e-05
-3.07757185e-05
-3.08831431e-05
-3.14557649e-05
-3.15379798e-05
-3.0880872e-05
-3.05627489e-05
-3.08854375e-05
-3.14689164e-05
-3.10797521e-05
-3.07060548e-05
-3.09028316e-05
-3.14501957e-05
-3.14798341e-05
-3.09036018e-05
-3.05693828e-05
-3.09412034e-05
-3.14788189e-05
-3.09925205e-05
-3.06724448e-05
-3.09018389e-05
-3.14431765e-05
-3.14526553e-05
-3.08763167e-05
-3.05748748e-05
-3.09066644e-05
-3.1477274e-05
-3.10608386e-05
-3.07228979e-05
-3.08952032e-05
-3.14594065e-05
-3.14708547e-05
-3.08960582e-05
-3.05892592e-05
-3.08828919e-05
-3.14596293e-05
-3.13263084e-05
-3.08660454e-05
-3.063709e-05
-3.09114686e-05
-3.14797477e-05
-3.12557849e-05
-3.08471196e-05
-3.06357409e-05
-3.09198885e-05
-3.14846308e-05
-3.12392246e-05
-3.08391336e-05
-3.06320246e-05
-3.09202934e-05
-3.14838942e-05
-3.12277257e-05
-3.08410778e-05
-3.06371963e-05
-3.09194457e-05
-3.14848258e-05
-3.12264323e-05
-3.08537023e-05
-3.06315105e-05
-3.08960283e-05
-3.1476126e-05
-3.13052765e-05
-3.08577047e-05
-3.06266524e-05
-3.09148e-05
-3.14695602e-05
-3.11464961e-05
-3.07515713e-05
-3.0674211e-05
-3.12618875e-05
-3.1525026e-05
-3.09003196e-05
-3.05794607e-05
-3.08873797e-05
-3.14699166e-05
-3.09647587e-05
-3.06866344e-05
-3.0891932e-05
-3.14796386e-05
-3.12270198e-05
-3.07326742e-05
-3.06033133e-05
-3.10448949e-05
-3.15323635e-05
-3.10022472e-05
-3.09013223e-05
-3.09001838e-05
-3.09422469e-05
-3.09100274e-05
-3.09076407e-05
-3.10439576e-05
-3.11266236e-05
-3.09049318e-05
-3.07281138e-05
-3.10163899e-05
-3.15096736e-05
-3.09242234e-05
-3.0655816e-05
-3.09168479e-05
-3.14901125e-05
-3.11457678e-05
-3.07707416e-05
-3.0598235e-05
-3.09315321e-05
-3.14878623e-05
-3.09381495e-05
-3.06831122e-05
-3.09616924e-05
-3.15148585e-05
-3.09004164e-05
-3.06407882e-05
-3.10299151e-05
-3.15140922e-05
-3.0981192e-05
-3.05628923e-05
-3.05595396e-05
-3.13488235e-05
-3.16024006e-05
-3.09755819e-05
-3.07814006e-05
-3.04176881e-05
-3.0430808e-05
-3.14836759e-05
-3.17363139e-05
-3.0812404e-05
-3.05095813e-05
-3.14521854e-05
-3.17810835e-05
-3.16950843e-05
-3.08140195e-05
-3.01953502e-05
-3.10949926e-05
-3.16107984e-05
-3.15327004e-05
-3.1586822e-05
-3.15675896e-05
-3.15976466e-05
-3.16040219e-05
-3.16418295e-05
-3.16822943e-05
-3.17442187e-05
-3.18455296e-05
-3.20230242e-05
-3.22833938e-05
-3.20490531e-05
-3.18091062e-05
-3.16432121e-05
-3.14798872e-05
-3.13937127e-05
-3.12920132e-05
-3.12211946e-05
-3.11128298e-05
-3.09690522e-05
-3.08918914e-05
-3.08504416e-05
-3.08449852e-05
-3.06442059e-05
-3.06195557e-05
-3.1180918e-05
-3.13712589e-05
-3.29504127e-05
-3.43162496e-05
-3.49760646e-05
-3.57529678e-05
-3.5058959e-05
-3.63799386e-05
-3.62568224e-05
-3.90726181e-05
-3.97204056e-05
-4.09441778e-05
-4.2710244e-05
-4.53445067e-05
-4.76400589e-05
-5.18467363e-05
-5.59037061e-05
-5.85687092e-05
-6.07486877e-05
-6.28816995e-05
-6.50551484e-05
-6.67873646e-05
-6.83370542e-05
-6.97406522e-05
-7.11326881e-05
-7.24548138e-05
-7.36822887e-05
-7.48279027e-05
-7.58765515e-05
-7.68639699e-05
-7.77525174e-05
-7.85628195e-05
-7.92769103e-05
-7.9955057e-05
-8.05571151e-05
-8.11430316e-05
-8.16420728e-05
-8.21279836e-05
-8.25753102e-05
-8.30983322e-05
-8.35150112e-05
-8.40234507e-05
-8.43804578e-05
-8.4857053e-05
-8.52020782e-05
-8.56525071e-05
-8.59718063e-05
-8.63623646e-05
-8.66988048e-05
-8.70896818e-05
-8.73636103e-05
-8.76504158e-05
-8.78946904e-05
-8.81456935e-05
-8.83824308e-05
-8.86262275e-05
-8.8867319e-05
-8.91137552e-05
-8.93387037e-05
-8.95643487e-05
-8.98027037e-05
-9.0054229e-05
-9.02768765e-05
-9.04828422e-05
-9.06633235e-05
-9.08294648e-05
-9.09900891e-05
-9.11418232e-05
-9.12961719e-05
-9.14411856e-05
-9.15893258e-05
-9.17192094e-05
-9.18468514e-05
-9.19674943e-05
-9.21382528e-05
-9.22511274e-05
-9.24237589e-05
-9.25261677e-05
-9.26880384e-05
-9.27772385e-05
-9.29203048e-05
-9.30035651e-05
-9.31232868e-05
-9.31952803e-05
-9.33043128e-05
-9.33752237e-05
-9.34754824e-05
-9.35448474e-05
-9.3635991e-05
-9.37008031e-05
-9.37841255e-05
-9.38451673e-05
-9.39222908e-05
-9.39793644e-05
-9.40511641e-05
-9.41033726e-05
-9.41660448e-05
-9.42132142e-05
-9.42780971e-05
-9.43245778e-05
-9.43860407e-05
-9.44287943e-05
-9.44870319e-05
-9.45263519e-05
-9.45815829e-05
-9.4615513e-05
-9.46637737e-05
-9.46920364e-05
-9.4736463e-05
-9.47641393e-05
-9.48042446e-05
-9.48307623e-05
-9.4867205e-05
-9.48923134e-05
-9.49255602e-05
-9.49491555e-05
-9.49795754e-05
-9.5000732e-05
-9.50254889e-05
-9.50431417e-05
)
;

boundaryField
{
    closed
    {
        type            calculated;
        value           nonuniform List<scalar> 0();
    }
    open
    {
        type            calculated;
        value           nonuniform List<scalar> 0();
    }
    sides
    {
        type            empty;
    }
    procBoundary4to3
    {
        type            processor;
        value           uniform -3.06111551e-05;
    }
    procBoundary4to5
    {
        type            processor;
        value           uniform -9.50655521e-05;
    }
}


// ************************************************************************* //
