/*--------------------------------*- C++ -*----------------------------------*\
| =========                 |                                                 |
| \\      /  F ield         | OpenFOAM: The Open Source CFD Toolbox           |
|  \\    /   O peration     | Version:  2306                                  |
|   \\  /    A nd           | Website:  www.openfoam.com                      |
|    \\/     M anipulation  |                                                 |
\*---------------------------------------------------------------------------*/
FoamFile
{
    version     2.0;
    format      ascii;
    arch        "LSB;label=32;scalar=64";
    class       volScalarField;
    location    "0.00128";
    object      sourcePV;
}
// * * * * * * * * * * * * * * * * * * * * * * * * * * * * * * * * * * * * * //

dimensions      [1 -3 -1 0 0 0 0];

internalField   nonuniform List<scalar> 
530
(
0.279777339
0.331636939
2.08631677e-08
2.09889744e-08
0.273772933
0.253626064
2.13648917e-08
2.14618718e-08
0.269274063
0.192975484
2.18163279e-08
2.19338731e-08
0.260813898
0.166833591
2.22907722e-08
2.23807223e-08
0.235204155
0.150270698
2.28144569e-08
2.28706585e-08
0.209026292
0.137872009
2.3389881e-08
2.34210879e-08
0.190584118
0.127999938
2.39611503e-08
2.39812909e-08
0.176881651
0.11848528
2.45351111e-08
2.45545605e-08
0.165529238
0.110365092
2.51142847e-08
2.51367114e-08
0.155269869
0.103850381
5.1931685e-05
2.57218501e-08
0.145354054
0.0986700561
0.000135944781
2.63714173e-08
0.134254685
0.0944064887
2.7006118e-08
2.70730965e-08
0.128262652
0.0902851176
2.76655093e-08
2.7745041e-08
0.12520751
0.0866775885
2.83264171e-08
2.8408734e-08
0.121805579
0.0858765455
2.89863124e-08
2.90677693e-08
0.118300212
0.0847410265
2.96481665e-08
2.97258767e-08
0.114866588
0.0831651694
3.03100905e-08
3.03880022e-08
0.111462972
0.0815057226
3.10408014e-08
3.11544388e-08
0.108154532
0.0797071536
3.18403893e-08
3.1940122e-08
0.105689659
0.0778461185
3.26486705e-08
3.27343112e-08
0.101363885
0.0765577513
3.34625589e-08
3.35383039e-08
0.097021971
0.074107516
3.42775779e-08
3.43449638e-08
0.0929852721
0.071770942
3.50889061e-08
3.51499192e-08
0.0892490139
0.0696555931
3.58937632e-08
3.59486424e-08
0.0856747455
0.067674017
3.68177273e-08
3.68863729e-08
0.082861778
0.065761
3.77810232e-08
3.784642e-08
0.080286224
0.0638525641
3.87418762e-08
3.88034687e-08
0.0777896983
0.0619531011
3.96995942e-08
3.9760513e-08
0.0753083472
0.0598326868
4.06523408e-08
4.07164443e-08
0.0729361012
0.0575853438
4.15975218e-08
4.16680059e-08
0.070668766
0.0552678552
4.25333482e-08
4.2618446e-08
0.0684708103
0.0529630157
4.36707245e-08
4.37714685e-08
0.066328494
0.0507266203
4.48112931e-08
4.49154588e-08
0.0642249014
0.048558026
4.59554934e-08
4.60485846e-08
0.0624463529
0.0465632534
4.71030447e-08
4.71849866e-08
0.0599084663
0.044420766
4.82423767e-08
4.83136811e-08
0.0573957631
0.0426764012
4.93612696e-08
4.9426706e-08
0.0548556547
0.0410340386
5.05772777e-08
5.06682204e-08
0.0522000799
0.039308461
5.1967204e-08
5.20530912e-08
0.049621448
0.0377179623
5.33304675e-08
5.34073013e-08
0.0472244561
0.0361367956
5.4642938e-08
5.47269683e-08
0.0444922399
0.0345898287
5.58635145e-08
5.59745731e-08
0.0439237448
0.0332206526
5.70295692e-08
5.71528406e-08
0.0433644081
0.0323928386
5.81493219e-08
5.82825157e-08
0.0426559998
0.0315251836
5.93687697e-08
5.95805244e-08
0.0417716639
0.0305996422
6.07539411e-08
6.09683638e-08
0.040697524
0.0297028801
6.20903007e-08
6.22964605e-08
0.0395691683
0.0288989281
6.33800792e-08
6.35636405e-08
0.0383116627
0.0283165472
6.46194498e-08
6.47769532e-08
0.0374531256
0.0277707952
6.58255538e-08
6.59568484e-08
0.0359560356
0.0272616729
6.69918067e-08
6.70989909e-08
0.034367779
0.0264306044
6.8109397e-08
6.81924464e-08
0.0327006984
0.0255386361
6.92468536e-08
6.93325412e-08
0.0310444634
0.0243116323
7.06757886e-08
7.07373407e-08
0.0298711929
0.022723036
7.19830591e-08
7.20853232e-08
0.0295391075
0.0207193411
7.32189612e-08
7.33665093e-08
0.0287442335
0.0187931706
7.44087124e-08
7.4572086e-08
0.0276186016
0.017255781
7.55399492e-08
7.57040949e-08
0.0257925302
0.0164568645
7.66345823e-08
7.67725338e-08
0.0241611272
0.0162159562
7.76797979e-08
7.78033807e-08
0.0231856625
0.0155629182
7.86260581e-08
7.87880067e-08
0.0240334405
0.0144011196
7.94844699e-08
7.97117541e-08
0.0255570198
0.0142612594
8.02640021e-08
8.053958e-08
0.0274014797
0.0140818744
8.10023816e-08
8.18118974e-08
0.0284901858
0.0138666015
8.2420586e-08
8.33502791e-08
0.0287697719
0.0135963332
8.3849562e-08
8.481218e-08
0.0282340218
0.0132528452
8.52459096e-08
8.61848864e-08
0.026858516
0.0128669714
8.66044806e-08
8.74745036e-08
0.0247150338
0.0124055491
8.79102467e-08
8.86855691e-08
0.021952846
0.0116858314
8.91672789e-08
8.98937195e-08
0.0183359984
0.0110092749
9.033878e-08
9.08939392e-08
0.0156698177
0.0103881725
9.13443371e-08
9.1824641e-08
0.0147116604
0.00990334916
9.22589265e-08
9.26575197e-08
0.0138106309
0.00954794416
9.30947243e-08
9.34143223e-08
0.0129765152
0.00922699732
9.38572147e-08
9.41020199e-08
0.0121984434
0.00891280465
9.45569806e-08
9.47269225e-08
0.0114558126
0.00857410813
9.51478225e-08
9.52937563e-08
0.010693103
0.00818216874
9.56745609e-08
9.5809087e-08
0.0100334068
0.00775269959
9.61465401e-08
9.62750581e-08
0.00944142862
0.00731312238
9.65670831e-08
9.66914465e-08
0.00888258863
0.00688691025
9.69421103e-08
9.70605934e-08
0.0083585758
0.00646011848
9.72745712e-08
9.7387016e-08
0.00787851813
0.00603224551
9.75662278e-08
9.76759448e-08
0.00744717748
0.00560055446
9.78183999e-08
9.79308959e-08
0.00705622576
0.00518421669
9.80352918e-08
9.81629815e-08
0.00667909841
0.00480980367
9.83154283e-08
9.84672923e-08
0.00629173508
0.00448292854
9.85915749e-08
9.87365004e-08
0.00589400003
0.00419016187
9.88400067e-08
9.89748861e-08
0.00550038974
0.00391934773
9.906094e-08
9.91850138e-08
0.00512178565
0.00366464073
9.92556031e-08
9.93691875e-08
0.00476241565
0.00342415264
9.94255092e-08
9.95294612e-08
0.0044225581
0.0031979483
9.95725195e-08
9.96673562e-08
0.00410128982
0.00298568813
9.96987698e-08
9.97844237e-08
0.00379933347
0.00278463858
9.98058374e-08
9.98830352e-08
0.00351959644
0.00259168614
9.98947375e-08
9.99652425e-08
0.00326363653
0.00240650811
9.99669782e-08
1.00032331e-07
0.0030292472
0.00223091198
1.00024574e-07
1.00085442e-07
0.00281226888
0.00206620565
1.00069268e-07
1.00126079e-07
0.00260931756
0.0019131133
1.00102591e-07
1.0015533e-07
0.00241781661
0.00177185828
1.00126154e-07
1.00174451e-07
0.00223691533
0.00164030902
1.00140924e-07
1.00185043e-07
0.00206847099
0.00151557081
1.0014758e-07
1.00188423e-07
0.00191403375
0.00139675529
1.00147067e-07
1.00185416e-07
0.00177257767
0.00128439973
1.00140561e-07
1.00176791e-07
0.00164177302
0.00117890235
1.00129135e-07
1.00163425e-07
0.00151956499
0.00108007067
1.00113599e-07
1.00146104e-07
0.00140481457
0.000987523221
1.00094698e-07
1.00125481e-07
0.00129672349
0.000901031476
1.00073148e-07
1.00102108e-07
0.00119406718
0.000822127371
1.00049694e-07
1.00076303e-07
0.00109315971
0.000751859962
1.00025062e-07
1.00048524e-07
0.000992965734
0.0006883087
9.99996121e-08
1.00019062e-07
0.000892545916
0.000630827749
9.99760985e-08
9.99900907e-08
0.000765013395
0.000561899213
9.99630976e-08
9.99674508e-08
0.000605777864
0.000441034939
0.000187626744
0.000118909482
0.000326439858
0.000246308158
0.000257813071
0.000197742942
0.00024341205
0.000193472024
0.000217898551
0.00018190446
0.000191471494
0.000170431413
0.000164642776
0.000157715368
0.000139038893
0.000143380776
0.000115994159
0.00012731476
9.61950724e-05
0.000109892943
7.94599784e-05
9.18883282e-05
6.50313944e-05
7.41435979e-05
5.21317523e-05
5.73235427e-05
4.02787193e-05
4.19000053e-05
2.9284792e-05
2.82055391e-05
1.91621855e-05
1.64308563e-05
1.00390987e-05
6.55985426e-06
2.20683111e-06
9.94611347e-08
9.94581565e-08
9.94551375e-08
9.94535497e-08
9.94524912e-08
9.94519432e-08
9.94516555e-08
9.9451527e-08
9.9451474e-08
9.94514557e-08
9.94514506e-08
9.94514498e-08
9.94514499e-08
9.94514501e-08
9.94514502e-08
9.94514503e-08
9.94514503e-08
9.94514503e-08
9.94514503e-08
9.94514503e-08
9.94514503e-08
9.94514503e-08
9.94514503e-08
9.94514503e-08
9.94514503e-08
9.94514503e-08
9.94514503e-08
9.94514503e-08
9.94514503e-08
9.94514503e-08
9.94514503e-08
9.94514503e-08
9.94514503e-08
9.94514503e-08
9.94514503e-08
9.94514503e-08
9.94514503e-08
9.94514503e-08
9.94514503e-08
9.94514503e-08
9.94514503e-08
)
;

boundaryField
{
    closed
    {
        type            calculated;
        value           nonuniform List<scalar> 0();
    }
    open
    {
        type            calculated;
        value           uniform 0;
    }
    sides
    {
        type            empty;
    }
    procBoundary5to4
    {
        type            processor;
        value           uniform 0;
    }
}


// ************************************************************************* //
