/*--------------------------------*- C++ -*----------------------------------*\
| =========                 |                                                 |
| \\      /  F ield         | OpenFOAM: The Open Source CFD Toolbox           |
|  \\    /   O peration     | Version:  2306                                  |
|   \\  /    A nd           | Website:  www.openfoam.com                      |
|    \\/     M anipulation  |                                                 |
\*---------------------------------------------------------------------------*/
FoamFile
{
    version     2.0;
    format      ascii;
    arch        "LSB;label=32;scalar=64";
    class       volScalarField;
    location    "0.0017";
    object      alpha;
}
// * * * * * * * * * * * * * * * * * * * * * * * * * * * * * * * * * * * * * //

dimensions      [1 -1 -1 0 0 0 0];

internalField   nonuniform List<scalar> 
530
(
3.67997146e-05
3.59019384e-05
3.51846807e-05
3.51857394e-05
3.678842e-05
3.6799241e-05
3.59049471e-05
3.51940283e-05
3.51947169e-05
3.67863145e-05
3.67986642e-05
3.59065189e-05
3.51999705e-05
3.52009683e-05
3.67846365e-05
3.68007689e-05
3.58788429e-05
3.51735767e-05
3.51741123e-05
3.67878528e-05
3.68054994e-05
3.58447451e-05
3.50509374e-05
3.50523228e-05
3.67978693e-05
3.68086809e-05
3.68130204e-05
3.57785058e-05
3.54018165e-05
3.48500377e-05
3.48560462e-05
3.67915394e-05
3.68259013e-05
3.68047664e-05
3.68318176e-05
3.57587054e-05
3.55748593e-05
3.68033317e-05
3.6818967e-05
3.58013223e-05
3.56153416e-05
3.51855994e-05
3.51864447e-05
3.67959608e-05
3.68026239e-05
3.57987208e-05
3.50790174e-05
3.50826776e-05
3.67832357e-05
3.68122645e-05
3.57733131e-05
3.53710217e-05
3.47864048e-05
3.47948669e-05
3.67948781e-05
3.68185656e-05
3.68104721e-05
3.68246464e-05
3.68142006e-05
3.57185444e-05
3.54663051e-05
3.68304005e-05
3.68201367e-05
3.57528122e-05
3.54579368e-05
3.50573194e-05
3.50585648e-05
3.68149522e-05
3.68085322e-05
3.57798778e-05
3.50427222e-05
3.50431102e-05
3.68135214e-05
3.67987031e-05
3.5850588e-05
3.51392712e-05
3.51420818e-05
3.68145824e-05
3.68227455e-05
3.5741387e-05
3.56329375e-05
3.68246481e-05
3.68104792e-05
3.5957269e-05
3.56044548e-05
3.55354011e-05
3.50243957e-05
3.50247971e-05
3.68153323e-05
3.67916678e-05
3.67870173e-05
3.60381552e-05
3.51587978e-05
3.51829576e-05
3.68282397e-05
3.57518357e-05
3.52843586e-05
3.68439995e-05
3.68063971e-05
3.68064508e-05
3.59201439e-05
3.50142847e-05
3.50618684e-05
3.68390264e-05
3.57946531e-05
3.52407473e-05
3.68533198e-05
3.68356152e-05
3.56489438e-05
3.55798807e-05
3.68403399e-05
3.68272419e-05
3.60051924e-05
3.57122679e-05
3.51411942e-05
3.51502824e-05
3.68444054e-05
3.68077229e-05
3.5867891e-05
3.5092247e-05
3.51125527e-05
3.68490352e-05
3.68056462e-05
3.59488336e-05
3.52076958e-05
3.52356545e-05
3.68450293e-05
3.58982094e-05
3.54194591e-05
3.68481007e-05
3.68169075e-05
3.59884748e-05
3.57206518e-05
3.51639487e-05
3.5178981e-05
3.68393404e-05
3.68032969e-05
3.59220281e-05
3.51415315e-05
3.51514362e-05
3.68556248e-05
3.68006495e-05
3.58523207e-05
3.50839869e-05
3.51061384e-05
3.68480181e-05
3.6805748e-05
3.59372406e-05
3.52014447e-05
3.52239038e-05
3.68452647e-05
3.59196336e-05
3.54240691e-05
3.68506582e-05
3.68193299e-05
3.59694584e-05
3.57223426e-05
3.52819728e-05
3.52934692e-05
3.68365417e-05
3.59886753e-05
3.55141763e-05
3.68307792e-05
3.68232285e-05
3.60992071e-05
3.57134851e-05
3.50923097e-05
3.51166242e-05
3.68204243e-05
3.68061163e-05
3.60765103e-05
3.5262548e-05
3.52774644e-05
3.68354823e-05
3.59580667e-05
3.54518953e-05
3.68305338e-05
3.68133267e-05
3.60223867e-05
3.57264301e-05
3.51660206e-05
3.51759035e-05
3.681737e-05
3.67928887e-05
3.60509714e-05
3.51936409e-05
3.51974196e-05
3.68291851e-05
3.67870323e-05
3.60060541e-05
3.52220362e-05
3.5226908e-05
3.68312141e-05
3.68050243e-05
3.6006171e-05
3.55610689e-05
3.54955236e-05
3.51217813e-05
3.5130679e-05
3.68386169e-05
3.58504725e-05
3.52770275e-05
3.68466889e-05
3.68353663e-05
3.5714498e-05
3.55487326e-05
3.68495845e-05
3.68308058e-05
3.58086936e-05
3.56827454e-05
3.52459008e-05
3.52548118e-05
3.68453104e-05
3.58290782e-05
3.52050132e-05
3.68460193e-05
3.68409803e-05
3.56013211e-05
3.53632412e-05
3.6839896e-05
3.6852014e-05
3.55782352e-05
3.53663569e-05
3.68424845e-05
3.68503655e-05
3.55812015e-05
3.53829872e-05
3.68468957e-05
3.68370238e-05
3.56292785e-05
3.53707138e-05
3.68592897e-05
3.68100203e-05
3.57787214e-05
3.49843751e-05
3.50192659e-05
3.68458841e-05
3.68227391e-05
3.56421973e-05
3.53413162e-05
3.68605853e-05
3.67992758e-05
3.57910194e-05
3.50351494e-05
3.50791398e-05
3.68425658e-05
3.68208461e-05
3.56789791e-05
3.54076784e-05
3.68559938e-05
3.67978755e-05
3.58214874e-05
3.51173032e-05
3.51575058e-05
3.68558528e-05
3.67942739e-05
3.58353483e-05
3.50623364e-05
3.51147451e-05
3.68441783e-05
3.68118953e-05
3.56672997e-05
3.5407373e-05
3.68599996e-05
3.67903773e-05
3.58230716e-05
3.4995405e-05
3.5072552e-05
3.68326436e-05
3.68136771e-05
3.67716913e-05
3.5819541e-05
3.50765259e-05
3.51429983e-05
3.68368537e-05
3.68177573e-05
3.57964993e-05
3.55505089e-05
3.51955941e-05
3.52127366e-05
3.68245031e-05
3.68153967e-05
3.54991957e-05
3.55815008e-05
3.68277471e-05
3.57327755e-05
3.47562292e-05
3.68804344e-05
3.67735935e-05
3.68227942e-05
3.67753476e-05
3.58286649e-05
3.48305004e-05
3.49198494e-05
3.68296396e-05
3.68100147e-05
3.54751272e-05
3.51761387e-05
3.68572352e-05
3.67904864e-05
3.58122408e-05
3.50632791e-05
3.51399161e-05
3.68444091e-05
3.67870121e-05
3.5920663e-05
3.51211572e-05
3.51789768e-05
3.68528449e-05
3.67900817e-05
3.58506971e-05
3.51118883e-05
3.51861666e-05
3.6860128e-05
3.67930992e-05
3.58284815e-05
3.50722833e-05
3.51670937e-05
3.6848901e-05
3.68200984e-05
3.56111305e-05
3.54187791e-05
3.68666906e-05
3.68021071e-05
3.57933334e-05
3.51167727e-05
3.52266396e-05
3.68745764e-05
3.68064209e-05
3.57840827e-05
3.50665055e-05
3.52282292e-05
3.68678954e-05
3.6823769e-05
3.57952901e-05
3.55597886e-05
3.53197838e-05
3.54263765e-05
3.68587603e-05
3.68105418e-05
3.57256186e-05
3.56746564e-05
3.68698743e-05
3.67958484e-05
3.57835824e-05
3.51531436e-05
3.53824508e-05
3.68767732e-05
3.67794075e-05
3.57302595e-05
3.50394109e-05
3.53608168e-05
3.68456051e-05
3.67334554e-05
3.5544151e-05
3.56523324e-05
3.68597757e-05
3.67576455e-05
3.57680206e-05
3.52393509e-05
3.56058228e-05
3.68488811e-05
3.67635615e-05
3.57480476e-05
3.54008988e-05
3.51527655e-05
3.55118813e-05
3.68511057e-05
3.66767871e-05
3.54803696e-05
3.56897751e-05
3.68608157e-05
3.67511361e-05
3.57254633e-05
3.54954474e-05
3.53061044e-05
3.56597129e-05
3.67943742e-05
3.57237158e-05
3.55719243e-05
3.68580188e-05
3.66693463e-05
3.54520049e-05
3.56867357e-05
3.68520708e-05
3.6685224e-05
3.54253304e-05
3.56823889e-05
3.68500303e-05
3.67040063e-05
3.54286606e-05
3.5686385e-05
3.68490344e-05
3.67145973e-05
3.54442501e-05
3.57046055e-05
3.68500076e-05
3.67269025e-05
3.54588625e-05
3.56789442e-05
3.68574485e-05
3.67714341e-05
3.56010167e-05
3.49331774e-05
3.53990227e-05
3.68261386e-05
3.67682704e-05
3.5378087e-05
3.55207506e-05
3.68417453e-05
3.67673614e-05
3.5399397e-05
3.5586528e-05
3.68438804e-05
3.67799232e-05
3.54352523e-05
3.55782579e-05
3.68481262e-05
3.68043448e-05
3.56299544e-05
3.4945965e-05
3.53250841e-05
3.68119704e-05
3.68247407e-05
3.54031484e-05
3.5440637e-05
3.68244932e-05
3.68243926e-05
3.54427858e-05
3.55118728e-05
3.68283377e-05
3.68351424e-05
3.55323637e-05
3.56170304e-05
3.68203111e-05
3.68277598e-05
3.57188515e-05
3.54103929e-05
3.51454894e-05
3.53842112e-05
3.68141217e-05
3.68189453e-05
3.68288668e-05
3.68082014e-05
3.59015945e-05
3.53416227e-05
3.50262569e-05
3.52043958e-05
3.68038871e-05
3.68347731e-05
3.53972626e-05
3.53626295e-05
3.67813543e-05
3.68230687e-05
3.56711169e-05
3.4986056e-05
3.53176861e-05
3.67864082e-05
3.68343843e-05
3.56121064e-05
3.55671478e-05
3.67755704e-05
3.68134403e-05
3.57404569e-05
3.52338483e-05
3.55014047e-05
3.67965845e-05
3.68311509e-05
3.57528623e-05
3.51873018e-05
3.54573233e-05
3.6807087e-05
3.68317356e-05
3.57210993e-05
3.50944282e-05
3.53836174e-05
3.6799699e-05
3.68497108e-05
3.56242823e-05
3.55534726e-05
3.67932771e-05
3.68287087e-05
3.57203377e-05
3.51568961e-05
3.54280485e-05
3.68165118e-05
3.68426141e-05
3.57063328e-05
3.5032142e-05
3.53395155e-05
3.68109906e-05
3.68575176e-05
3.55801073e-05
3.55057762e-05
3.68086572e-05
3.68258556e-05
3.57001978e-05
3.50447187e-05
3.53308258e-05
3.6805256e-05
3.68624184e-05
3.55895644e-05
3.54923552e-05
3.68013861e-05
3.68447173e-05
3.5647347e-05
3.56217604e-05
3.6810766e-05
3.68252221e-05
3.57295677e-05
3.52097108e-05
3.55099296e-05
3.68211423e-05
3.68398372e-05
3.57432979e-05
3.51736967e-05
3.54835912e-05
3.68213646e-05
3.68394442e-05
3.57375707e-05
3.51593286e-05
3.54733559e-05
3.68219473e-05
3.68390495e-05
3.57400398e-05
3.51584488e-05
3.54661558e-05
3.68239783e-05
3.68396668e-05
3.57411496e-05
)
;

boundaryField
{
    closed
    {
        type            calculated;
        value           nonuniform List<scalar> 0();
    }
    open
    {
        type            calculated;
        value           nonuniform List<scalar> 0();
    }
    sides
    {
        type            empty;
    }
    procBoundary2to1
    {
        type            processor;
        value           uniform 3.67912112e-05;
    }
    procBoundary2to3
    {
        type            processor;
        value           uniform 3.51587202e-05;
    }
}


// ************************************************************************* //
