/*--------------------------------*- C++ -*----------------------------------*\
| =========                 |                                                 |
| \\      /  F ield         | OpenFOAM: The Open Source CFD Toolbox           |
|  \\    /   O peration     | Version:  2306                                  |
|   \\  /    A nd           | Website:  www.openfoam.com                      |
|    \\/     M anipulation  |                                                 |
\*---------------------------------------------------------------------------*/
FoamFile
{
    version     2.0;
    format      ascii;
    arch        "LSB;label=32;scalar=64";
    class       volScalarField;
    location    "0.0017";
    object      h;
}
// * * * * * * * * * * * * * * * * * * * * * * * * * * * * * * * * * * * * * //

dimensions      [0 2 -2 0 0 0 0];

internalField   nonuniform List<scalar> 
530
(
10124.6218
3130.18372
-5196.71987
-5195.50897
8928.10242
10134.9468
3170.39883
-5146.21862
-5146.523
8926.9668
10141.8545
3191.30115
-5114.15353
-5113.16723
8933.61595
10125.5169
2801.67411
-5257.65996
-5260.17904
8934.44258
10034.606
2269.94247
-5919.54376
-5921.34167
8813.91116
10418.71
10114.1906
676.835374
-4011.66888
-6971.44118
-6972.74676
8091.9224
9918.42935
9657.26703
10188.2918
-197.888219
-3025.96304
9307.6342
10594.0384
1349.62598
-2807.4941
-5194.51186
-5193.7471
8919.23768
10031.005
1336.93324
-5757.97037
-5760.49528
9103.39502
10139.5418
87.4487012
-4182.56664
-7284.93414
-7283.53632
8010.4617
9943.8532
9266.02191
10293.5099
10295.4967
-1483.33483
-3648.84795
9283.56437
10390.1487
239.998533
-3696.77857
-5894.80565
-5886.98124
8899.15078
9935.24541
779.585218
-5958.31322
-5961.29301
9241.56923
10017.9813
2399.34701
-5441.24007
-5441.0599
9341.01204
10342.1519
-1397.25059
-2703.02979
9337.33455
10668.3255
3783.18251
-2872.50781
-3272.49858
-6054.17767
-6053.23887
8893.12499
10201.9829
9840.62202
4585.82996
-5333.21491
-5208.56103
9332.51833
-150.489079
-4658.76869
8900.04148
10424.1634
9755.42207
3352.68401
-6116.45784
-5875.38017
9277.52097
1422.98605
-4901.97795
9285.78701
10352.0477
-2620.46421
-2990.22467
9247.5083
10722.7551
4256.62414
-1744.09791
-5427.59466
-5395.03223
9416.0783
10090.1253
2661.82664
-5698.89561
-5594.43887
9253.39004
10131.3597
3679.23714
-5076.87606
-4924.39963
9387.80568
3081.54864
-3908.46485
9157.04275
10643.1405
4102.29464
-1692.63415
-5303.03616
-5236.8096
9367.86998
10143.3351
3382.85631
-5433.72522
-5379.51739
9297.67157
10078.3586
2421.44246
-5738.47815
-5629.28093
9225.2446
10121.8583
3555.14649
-5110.36255
-4988.53104
9345.06963
3343.66535
-3881.95114
9079.21752
10643.3238
3899.75735
-1504.01797
-4669.11183
-4609.38047
9493.22237
4086.67654
-3371.16178
8884.02606
10703.5324
5080.35366
-1371.76067
-5671.61311
-5579.82709
9162.57699
10193.0131
4898.2546
-4777.41888
-4693.46716
9198.39061
3797.13048
-3729.31154
8962.97113
10668.3182
4466.43989
-1429.56052
-5282.96648
-5250.35546
9178.66746
10193.4012
4718.70492
-5145.80283
-5123.94225
8980.59587
10201.5649
4290.23195
-4992.37983
-4970.1276
9074.00621
10393.8748
4288.53211
-3116.18911
-3496.20653
-5541.514
-5492.21327
9228.50243
2393.29975
-4701.11603
9149.43632
10346.3592
-2243.80017
-3167.83768
9313.61862
10626.8046
1606.55012
-2406.27093
-4869.16035
-4823.05024
9258.8167
2043.46014
-5099.59126
9105.67692
10196.3759
-2899.36319
-4215.69574
9120.04012
10277.2461
-3031.64161
-4195.88421
9138.19958
10288.122
-3014.16893
-4105.20173
9221.93789
10290.8799
-2736.95882
-4181.56271
9396.99398
10120.3965
951.533013
-6268.06039
-6108.85477
9270.25412
10064.424
-2666.19231
-4346.03771
9471.10775
10145.1146
1233.67549
-5992.03249
-5783.8986
9377.11213
10139.75
-2464.55534
-3979.82682
9569.49874
10245.0352
1789.62381
-5559.02571
-5346.57196
9457.85382
10060.9264
2123.41786
-5847.35507
-5585.7039
9459.64002
10156.3939
-2528.68697
-3983.13662
9627.85529
10172.9417
1899.31619
-6195.01116
-5817.05983
9157.24113
10393.9021
9804.04906
1878.63644
-5757.02565
-5438.48701
9686.74293
10305.3368
731.490834
-3175.99501
-5126.97984
-5054.37585
9498.71537
10327.8282
-3486.51881
-3004.23156
9212.66184
-1266.70311
-7394.95346
8956.05711
9701.54704
9567.77001
9749.36426
1895.40028
-7033.07478
-6624.79062
9429.72564
9943.63299
-3608.57378
-5241.58932
9670.6524
10084.6072
1594.27012
-5841.16806
-5438.39638
9616.02578
10112.8087
3370.22042
-5536.98656
-5226.15857
9687.21653
10124.2821
2365.77402
-5590.06745
-5190.35111
9707.36176
10095.546
2058.20286
-5800.04681
-5305.77159
9685.91371
10188.4639
-2832.57445
-3916.92539
9951.49257
10235.0653
1374.18425
-5573.96282
-4978.60385
9759.43075
10034.6919
1333.35533
-5845.99264
-4973.77756
9799.54212
10270.1126
1386.34386
-3107.14479
-4464.44128
-3854.50851
10006.6898
10236.9272
-1425.96712
-2436.97899
10136.6306
10173.3958
1284.56456
-5382.41801
-4106.6945
9841.38065
9731.0938
-69.7960736
-5982.65828
-4222.34504
9779.57432
9210.39993
-3215.88189
-2568.67947
10028.7304
9883.70571
1019.82823
-4903.45286
-2793.05595
9984.25406
9735.63191
-570.140497
-4014.33889
-5379.42006
-3341.51604
9681.66556
8347.59289
-3565.4172
-1937.80707
10037.2041
9641.12355
-1434.29642
-3488.25032
-4539.93786
-1866.33872
8974.21599
-1202.26367
-3012.8681
9937.09656
8175.53696
-3724.31363
-2363.582
9819.09993
8206.17529
-3875.51082
-2394.58379
9828.90934
8253.23714
-3857.33681
-2385.3252
9856.30766
8385.16934
-3769.39554
-2296.23023
9896.97472
8632.37714
-3684.9025
-2447.21243
10076.8758
9278.69958
-2866.21119
-6524.92854
-4009.99422
9822.04865
8585.66975
-4141.02678
-3355.03404
9880.47476
8864.28583
-4019.50962
-2992.13556
9908.75165
9166.62555
-3814.07161
-3035.91373
10081.4999
9614.36237
-2688.57202
-6460.5653
-4432.15579
9816.08376
9198.58355
-3997.9992
-3800.12465
9849.34319
9480.00268
-3770.12293
-3405.80502
9923.27097
9721.18306
-3257.68264
-2809.82792
10123.6672
10225.3487
-1873.27524
-3962.48232
-5420.5538
-4103.06992
9479.31164
10192.3079
10066.2928
10096.3027
3118.8427
-4343.94479
-6064.74292
-5095.37995
9526.62045
9540.71637
-4022.97184
-4229.18664
9445.72564
9890.04219
-2445.3484
-6249.71525
-4475.96599
9594.44957
9750.41041
-2804.67727
-3099.74118
9652.004
10234.4935
-116.612327
-4932.04464
-3448.75553
9862.85126
10119.8192
353.115186
-5189.63636
-3697.10863
9817.1578
10066.8777
-541.707645
-5683.71929
-4108.02731
9631.73035
9882.27162
-2728.8743
-3164.83584
9585.87044
10168.547
-690.733167
-5355.47246
-3856.84232
9769.96804
9986.73088
-1082.30524
-6022.11776
-4353.21673
9563.43044
9852.32505
-2980.02599
-3431.08165
9499.92592
10078.5603
-1461.03689
-5945.99159
-4401.00122
9571.40829
9822.94976
-2938.79175
-3505.68319
9423.79348
10052.5943
-2601.60857
-2778.82026
9657.11973
10279.289
-291.0089
-5067.35766
-3393.68304
9813.46561
10151.928
234.184269
-5265.13259
-3543.34164
9804.39268
10131.8632
12.4336815
-5342.98011
-3601.54188
9812.08202
10137.7538
105.846527
-5348.82035
-3641.67864
9828.98138
10148.3609
175.622009
)
;

boundaryField
{
    closed
    {
        type            lookUpEnthalpy;
        h0              nonuniform List<scalar> 0();
        value           nonuniform List<scalar> 0();
    }
    open
    {
        type            zeroGradient;
    }
    sides
    {
        type            empty;
    }
    procBoundary2to1
    {
        type            processor;
        value           uniform 8938.08347;
    }
    procBoundary2to3
    {
        type            processor;
        value           uniform -5348.90054;
    }
}


// ************************************************************************* //
