/*--------------------------------*- C++ -*----------------------------------*\
| =========                 |                                                 |
| \\      /  F ield         | OpenFOAM: The Open Source CFD Toolbox           |
|  \\    /   O peration     | Version:  2306                                  |
|   \\  /    A nd           | Website:  www.openfoam.com                      |
|    \\/     M anipulation  |                                                 |
\*---------------------------------------------------------------------------*/
FoamFile
{
    version     2.0;
    format      ascii;
    arch        "LSB;label=32;scalar=64";
    class       volScalarField;
    location    "0.0017";
    object      prefDh_H2O;
}
// * * * * * * * * * * * * * * * * * * * * * * * * * * * * * * * * * * * * * //

dimensions      [1 1 -3 0 0 0 0];

internalField   nonuniform List<scalar> 
530
(
92.3897207
90.0475549
87.8348651
87.8277648
92.7326034
92.3876683
90.0629524
87.8431022
87.8361487
92.7359957
92.3866882
90.0721346
87.848236
87.840413
92.7366039
92.3878852
89.9094997
87.8234881
87.8147064
92.7316783
92.4051326
89.7069252
87.7132476
87.7049314
92.7503941
92.2974744
92.3722624
89.1308267
88.0132515
87.5477404
87.5323547
92.9622023
92.4051912
92.5082844
92.32326
88.8517202
88.1472628
92.6059275
92.234999
89.3617622
88.1927656
87.8308662
87.8243868
92.7239789
92.4104626
89.3612893
87.7494122
87.7279649
92.6917801
92.3666131
88.9360683
87.9898143
87.5028817
87.4867234
92.9804623
92.4096317
92.6066348
92.3062336
92.3218641
88.4738794
88.0619781
92.571478
92.2874164
88.9983232
88.0564708
87.7088748
87.7111704
92.7012648
92.4272946
89.1669352
87.7110796
87.7065682
92.6087602
92.4198908
89.7707212
87.7953061
87.7751395
92.5798287
92.2961814
88.5010749
88.2050521
92.5655142
92.2284728
90.3533079
88.1858247
88.1372487
87.6967494
87.6960295
92.7023669
92.3811312
92.4851753
90.7254219
87.8166257
87.8289983
92.5613324
88.8691604
87.9116535
92.6566846
92.2995224
92.4790931
90.1724742
87.6804537
87.7070957
92.5598233
89.4095637
87.8546387
92.535223
92.2734137
88.2254464
88.1460032
92.5660594
92.1879783
90.5831866
88.3994516
87.801377
87.7845826
92.5133336
92.3868233
89.8744758
87.7482213
87.7597493
92.5508843
92.3789146
90.3184463
87.8456873
87.8708165
92.5201272
90.0507366
88.0157187
92.5789691
92.225186
90.5042248
88.4153476
87.8246952
87.8130052
92.5344707
92.3792734
90.1715659
87.7908021
87.8005222
92.5283153
92.4007232
89.7767214
87.7463309
87.7539183
92.5602455
92.3813094
90.2570096
87.8412839
87.8602043
92.5315136
90.1737391
88.0183831
92.5965309
92.2213719
90.4178643
88.4684865
87.921802
87.9149222
92.5044228
90.5102666
88.0938704
92.6814782
92.1993527
90.9857149
88.5054039
87.7767018
87.7528145
92.6200688
92.3616701
90.8917308
87.8953672
87.9183259
92.5871293
90.3544874
88.0489174
92.6599091
92.2240737
90.6508965
88.4900331
87.8385035
87.8164512
92.620264
92.3815916
90.7785903
87.8471072
87.8529721
92.6570785
92.3881892
90.5811845
87.8725863
87.8679172
92.6280812
92.3096858
90.5823873
88.1459752
88.105002
87.7719093
87.781432
92.5739734
89.7662647
87.8871927
92.5832763
92.2753268
88.2817408
88.117961
92.5334149
92.207792
89.4626236
88.2418555
87.8777924
87.8743473
92.5552072
89.6337297
87.8218986
92.5964345
92.3066982
88.1911875
87.9465841
92.6019633
92.2674648
88.1734131
87.9446174
92.592926
92.2671759
88.1751561
87.9662696
92.5629121
92.287572
88.2118607
87.9757184
92.4951591
92.375187
89.2345472
87.6609099
87.6665683
92.5511574
92.3706859
88.2251197
87.963002
92.4727279
92.3848898
89.3313015
87.7105525
87.7196266
92.5269113
92.3533526
88.2624335
88.0205295
92.453029
92.3602641
89.518005
87.7763932
87.8060751
92.4838682
92.4150159
89.655925
87.7343346
87.7574087
92.5017313
92.3626563
88.2507091
88.026476
92.4306991
92.3908365
89.5714423
87.6821814
87.7170003
92.6028661
92.2964018
92.5176214
89.572898
87.76104
87.7716457
92.4510756
92.3137488
89.1339821
88.1368585
87.8619889
87.8372647
92.5214979
92.311382
88.1307298
88.1672954
92.5950841
88.5368868
87.4997451
92.5836111
92.5425455
92.5052502
92.5270442
89.5503971
87.5538137
87.5940791
92.5324949
92.4227746
88.0856788
87.8293305
92.4233989
92.4143403
89.4477768
87.7362887
87.7950264
92.4585602
92.4119727
90.1574013
87.781428
87.832038
92.425838
92.4043093
89.74213
87.7692642
87.8333059
92.4087741
92.4074885
89.6465002
87.7372396
87.7943509
92.4324221
92.3414303
88.189987
88.0261715
92.331838
92.3565148
89.3895488
87.7602258
87.8474309
92.3713664
92.4037091
89.3926326
87.7160806
87.826973
92.3712046
92.3138603
89.390712
88.1298644
87.9346916
87.9973934
92.3296106
92.3431492
88.4909565
88.2254469
92.2765958
92.382489
89.3700924
87.7815731
87.9627529
92.3454673
92.5260273
88.906822
87.7018211
87.9301358
92.4121026
92.7332453
88.1356712
88.2070521
92.3220217
92.5165406
89.2814345
87.8763381
88.1385254
92.351408
92.5479097
88.7401664
88.0048234
87.7903672
88.0539284
92.4301022
92.9737929
88.0678738
88.3409226
92.3180629
92.5912917
88.4885804
88.0916539
87.9238817
88.3573728
92.7110961
88.5549287
88.1219264
92.3496475
92.9411403
88.0416861
88.2343911
92.3911444
92.9867247
88.0207398
88.2336775
92.3917088
93.0376383
88.0246244
88.2451007
92.3858418
92.986763
88.0373426
88.2704608
92.3732665
92.9014111
88.0465043
88.2503551
92.3127335
92.6607936
88.1626818
87.6264482
87.9727883
92.4309237
92.8568379
87.9839962
88.1256074
92.3907703
92.7807269
87.9951829
88.1881282
92.3797485
92.679215
88.0195807
88.1781929
92.3263309
92.5205888
88.1813164
87.6355125
87.9180131
92.4542755
92.6035634
87.9973581
88.057185
92.4260667
92.526787
88.0241771
88.1199566
92.4001075
92.4443623
88.1001766
88.2041196
92.3585005
92.3196477
88.3649918
88.0159135
87.7814056
87.9780576
92.5426445
92.3421803
92.360679
92.3844344
90.0930024
87.9565543
87.6790899
87.8415751
92.5451831
92.494169
87.9761564
87.9869889
92.6007023
92.4172454
88.2155832
87.6698654
87.9307439
92.5527656
92.4375914
88.1740647
88.1705393
92.5530762
92.3393537
88.8852854
87.8749814
88.0888658
92.4648892
92.3427087
89.0381578
87.8240248
88.0506605
92.4614046
92.3560522
88.7553663
87.7541072
87.9818902
92.5228461
92.3777249
88.1810307
88.1453749
92.5449117
92.3334158
88.7086614
87.7965167
88.0167906
92.4598454
92.3606356
88.5908858
87.6949587
87.9388175
92.5244245
92.3734577
88.1394646
88.1017098
92.5452833
92.362053
88.4787545
87.7144021
87.9275508
92.530913
92.3736185
88.157687
88.0891033
92.5770189
92.3395261
88.2051773
88.2046714
92.4992501
92.3091446
88.8330878
87.8440885
88.0884296
92.4409506
92.3204524
89.003743
87.8093192
88.0656873
92.4430687
92.3264711
88.9303587
87.7973911
88.0570768
92.4400878
92.3255065
88.960968
87.7947683
88.0499936
92.4323786
92.3216805
88.9846467
)
;

boundaryField
{
    closed
    {
        type            calculated;
        value           nonuniform List<scalar> 0();
    }
    open
    {
        type            calculated;
        value           nonuniform List<scalar> 0();
    }
    sides
    {
        type            empty;
    }
    procBoundary2to1
    {
        type            processor;
        value           uniform 92.7257487;
    }
    procBoundary2to3
    {
        type            processor;
        value           uniform 87.7921873;
    }
}


// ************************************************************************* //
