/*--------------------------------*- C++ -*----------------------------------*\
| =========                 |                                                 |
| \\      /  F ield         | OpenFOAM: The Open Source CFD Toolbox           |
|  \\    /   O peration     | Version:  2306                                  |
|   \\  /    A nd           | Website:  www.openfoam.com                      |
|    \\/     M anipulation  |                                                 |
\*---------------------------------------------------------------------------*/
FoamFile
{
    version     2.0;
    format      ascii;
    arch        "LSB;label=32;scalar=64";
    class       volScalarField;
    location    "0.00182";
    object      prefDZ_T;
}
// * * * * * * * * * * * * * * * * * * * * * * * * * * * * * * * * * * * * * //

dimensions      [1 -1 -1 -1 0 0 0];

internalField   nonuniform List<scalar> 
530
(
-9.29760464e-11
-9.57335994e-11
-8.76695392e-11
-8.76633508e-11
-9.30049386e-11
-9.476142e-11
-8.77609696e-11
-8.77398813e-11
-9.30184683e-11
-9.38878999e-11
-8.78280066e-11
-8.78077761e-11
-9.31281412e-11
-9.30501225e-11
-8.78805363e-11
-8.78586842e-11
-9.33242693e-11
-9.23256444e-11
-8.79194669e-11
-8.79077226e-11
-9.33743431e-11
-9.19218124e-11
-8.79615373e-11
-8.7950742e-11
-9.31450757e-11
-9.17545626e-11
-8.79981508e-11
-8.79870119e-11
-9.28489822e-11
-9.16179597e-11
-8.80308845e-11
-8.8015013e-11
-9.26560332e-11
-9.14714215e-11
-8.80574152e-11
-8.80404864e-11
-9.24717339e-11
-9.13455022e-11
-8.80789689e-11
-8.80619277e-11
-9.23055083e-11
-9.1227442e-11
-8.81081628e-11
-8.80795452e-11
-9.21733084e-11
-9.11050053e-11
-8.81443374e-11
-8.80922649e-11
-9.20690594e-11
-9.09992119e-11
-8.81714776e-11
-8.81006442e-11
-9.19246823e-11
-9.09499652e-11
-8.81526819e-11
-8.81179145e-11
-9.175359e-11
-9.09377799e-11
-8.81112936e-11
-8.81221464e-11
-9.16718482e-11
-9.08772155e-11
-8.80881909e-11
-8.80988618e-11
-9.16116795e-11
-9.08555376e-11
-8.80724264e-11
-8.80830154e-11
-9.15318676e-11
-9.08550958e-11
-8.80553369e-11
-8.80666973e-11
-9.14510165e-11
-9.08427422e-11
-8.80375146e-11
-8.80475302e-11
-9.13694787e-11
-9.08127282e-11
-8.80188057e-11
-8.80270938e-11
-9.12917624e-11
-9.07723669e-11
-8.79987032e-11
-8.80054269e-11
-9.12176689e-11
-9.0720953e-11
-8.79766271e-11
-8.79823245e-11
-9.11451719e-11
-9.0662253e-11
-8.79535337e-11
-8.79581479e-11
-9.10962517e-11
-9.05965035e-11
-8.79309928e-11
-8.79335403e-11
-9.10341529e-11
-9.05471415e-11
-8.79089315e-11
-8.79095859e-11
-9.09379016e-11
-9.0477253e-11
-8.78869867e-11
-8.78863047e-11
-9.08447374e-11
-9.03923284e-11
-8.78644127e-11
-8.78637984e-11
-9.07535031e-11
-9.03063771e-11
-8.78416448e-11
-8.7840756e-11
-9.06731886e-11
-9.02340737e-11
-8.7816931e-11
-8.78166731e-11
-9.05977293e-11
-9.01609487e-11
-8.77921233e-11
-8.77925329e-11
-9.05190521e-11
-9.00880106e-11
-8.7766828e-11
-8.77678794e-11
-9.04409188e-11
-9.00165601e-11
-8.77416465e-11
-8.77432623e-11
-9.03632492e-11
-8.99473285e-11
-8.7716236e-11
-8.77188692e-11
-9.02833602e-11
-8.9878724e-11
-8.76907369e-11
-8.76942707e-11
-9.02154627e-11
-8.98126927e-11
-8.76653965e-11
-8.76697015e-11
-9.01502777e-11
-8.97548022e-11
-8.7640646e-11
-8.76451207e-11
-9.00852924e-11
-8.97004822e-11
-8.76163883e-11
-8.76208688e-11
-9.00204073e-11
-8.96489062e-11
-8.75931006e-11
-8.75970864e-11
-8.99560843e-11
-8.95991512e-11
-8.75704143e-11
-8.75737014e-11
-8.98932007e-11
-8.95501141e-11
-8.75485179e-11
-8.75511562e-11
-8.98338712e-11
-8.95011219e-11
-8.75274596e-11
-8.75297274e-11
-8.97781593e-11
-8.94517118e-11
-8.75074603e-11
-8.75093262e-11
-8.97436858e-11
-8.94024083e-11
-8.74901014e-11
-8.74914035e-11
-8.96916799e-11
-8.93545246e-11
-8.74747051e-11
-8.74765003e-11
-8.96364355e-11
-8.92762674e-11
-8.74610109e-11
-8.74639209e-11
-8.95797324e-11
-8.9204002e-11
-8.74485277e-11
-8.74528009e-11
-8.95284423e-11
-8.91392977e-11
-8.74370664e-11
-8.74425007e-11
-8.94743196e-11
-8.90813713e-11
-8.74266677e-11
-8.74328206e-11
-8.94166278e-11
-8.90299247e-11
-8.74178577e-11
-8.74242989e-11
-8.93552218e-11
-8.89833855e-11
-8.74106571e-11
-8.74170377e-11
-8.92981744e-11
-8.89412145e-11
-8.74032844e-11
-8.74113232e-11
-8.92329496e-11
-8.88977563e-11
-8.73942139e-11
-8.74049285e-11
-8.92137721e-11
-8.88642748e-11
-8.73844622e-11
-8.73971351e-11
-8.91992643e-11
-8.88527779e-11
-8.73752832e-11
-8.73894092e-11
-8.91834634e-11
-8.88370098e-11
-8.73678897e-11
-8.73828795e-11
-8.91684151e-11
-8.88169073e-11
-8.73617701e-11
-8.73775323e-11
-8.91543596e-11
-8.87909131e-11
-8.73570172e-11
-8.73739078e-11
-8.91415646e-11
-8.87611356e-11
-8.73536038e-11
-8.7371909e-11
-8.9133099e-11
-8.87257738e-11
-8.73517361e-11
-8.73708425e-11
-8.91227763e-11
-8.86921643e-11
-8.73505948e-11
-8.73713977e-11
-8.9114696e-11
-8.86598872e-11
-8.73512041e-11
-8.73727749e-11
-8.91071862e-11
-8.86410308e-11
-8.73537839e-11
-8.7375716e-11
-8.90839921e-11
-8.86200743e-11
-8.73584528e-11
-8.73797564e-11
-8.9058689e-11
-8.86084691e-11
-8.73645763e-11
-8.73851763e-11
-8.90304789e-11
-8.85762972e-11
-8.73724472e-11
-8.73917114e-11
-8.90007057e-11
-8.85793235e-11
-8.73812321e-11
-8.73995429e-11
-8.89671769e-11
-8.85495301e-11
-8.73915034e-11
-8.74076993e-11
-8.89350807e-11
-8.85599593e-11
-8.74024945e-11
-8.74170057e-11
-8.89005344e-11
-8.85404806e-11
-8.74146932e-11
-8.74271393e-11
-8.88673203e-11
-8.8542792e-11
-8.74264204e-11
-8.74388032e-11
-8.88371697e-11
-8.85185974e-11
-8.74386631e-11
-8.74506787e-11
-8.8814335e-11
-8.85046361e-11
-8.74508535e-11
-8.74627326e-11
-8.87948905e-11
-8.84764219e-11
-8.7463757e-11
-8.7476192e-11
-8.87719936e-11
-8.84669868e-11
-8.74767604e-11
-8.74888673e-11
-8.8759773e-11
-8.84513621e-11
-8.74908414e-11
-8.75048376e-11
-8.87363449e-11
-8.84243533e-11
-8.75064835e-11
-8.75215776e-11
-8.87128497e-11
-8.83934432e-11
-8.75231276e-11
-8.75388432e-11
-8.86856589e-11
-8.83679743e-11
-8.75415082e-11
-8.75556479e-11
-8.8648489e-11
-8.83719439e-11
-8.756189e-11
-8.75747138e-11
-8.85886444e-11
-8.83636224e-11
-8.75828741e-11
-8.75917951e-11
-8.85401931e-11
-8.83569575e-11
-8.76032758e-11
-8.76089823e-11
-8.8491332e-11
-8.83524689e-11
-8.76223651e-11
-8.76261552e-11
-8.84758036e-11
-8.83496997e-11
-8.76401215e-11
-8.76433889e-11
-8.84679486e-11
-8.8347857e-11
-8.76576733e-11
-8.76608598e-11
-8.84602425e-11
-8.8345126e-11
-8.76754652e-11
-8.76787876e-11
-8.8452254e-11
-8.83415151e-11
-8.76934053e-11
-8.76963916e-11
-8.84447361e-11
-8.83323836e-11
-8.77112941e-11
-8.77131187e-11
-8.84388268e-11
-8.8323889e-11
-8.7729001e-11
-8.77300747e-11
-8.84349095e-11
-8.83151969e-11
-8.77465133e-11
-8.77471014e-11
-8.84319303e-11
-8.83056767e-11
-8.77639875e-11
-8.77641498e-11
-8.84264711e-11
-8.82958436e-11
-8.77802148e-11
-8.77810939e-11
-8.84166484e-11
-8.82874992e-11
-8.77967147e-11
-8.77979009e-11
-8.84031614e-11
-8.82818085e-11
-8.78134467e-11
-8.78145418e-11
-8.83858512e-11
-8.82775224e-11
-8.7830329e-11
-8.78310004e-11
-8.83675729e-11
-8.82730621e-11
-8.78471813e-11
-8.78473317e-11
-8.83505854e-11
-8.82676877e-11
-8.7863803e-11
-8.78635909e-11
-8.83358916e-11
-8.82612542e-11
-8.78800777e-11
-8.78797541e-11
-8.83235495e-11
-8.82538321e-11
-8.78960021e-11
-8.78957476e-11
-8.83131496e-11
-8.82461406e-11
-8.79116317e-11
-8.79114992e-11
-8.83040107e-11
-8.82393514e-11
-8.79269722e-11
-8.79269556e-11
-8.82950875e-11
-8.82340695e-11
-8.79420428e-11
-8.79420666e-11
-8.82862209e-11
-8.82296742e-11
-8.79568315e-11
-8.79568303e-11
-8.82777151e-11
-8.82260806e-11
-8.79712936e-11
-8.79712414e-11
-8.82699004e-11
-8.82229354e-11
-8.79853949e-11
-8.79852855e-11
-8.82630591e-11
-8.8220062e-11
-8.79990745e-11
-8.79989163e-11
-8.82571792e-11
-8.82174591e-11
-8.80123221e-11
-8.80121526e-11
-8.82520137e-11
-8.82152865e-11
-8.80251771e-11
-8.80250082e-11
-8.82473667e-11
-8.82137039e-11
-8.80376469e-11
-8.80374697e-11
-8.82431044e-11
-8.82128575e-11
-8.80497282e-11
-8.80495338e-11
-8.82392334e-11
-8.82125157e-11
-8.80614238e-11
-8.80612599e-11
-8.82356215e-11
-8.82120904e-11
-8.80727926e-11
-8.80726935e-11
-8.82323223e-11
-8.82116273e-11
-8.80841275e-11
-8.80842756e-11
-8.82249515e-11
-8.82062103e-11
-8.8097164e-11
-8.80974196e-11
-8.82113281e-11
-8.81916441e-11
-8.8145006e-11
-8.81367508e-11
-8.81749173e-11
-8.81650064e-11
-8.81706266e-11
-8.81627618e-11
-8.81759606e-11
-8.81685677e-11
-8.8180919e-11
-8.81737203e-11
-8.81864489e-11
-8.81797403e-11
-8.81923983e-11
-8.8186518e-11
-8.81987629e-11
-8.81940616e-11
-8.82055139e-11
-8.82023175e-11
-8.82126036e-11
-8.82111735e-11
-8.82199773e-11
-8.82204824e-11
-8.82272527e-11
-8.82293015e-11
-8.82351e-11
-8.82374946e-11
-8.82431671e-11
-8.82457588e-11
-8.82506387e-11
-8.82531416e-11
-8.82571766e-11
-8.82593735e-11
-8.82625169e-11
-8.82642675e-11
-8.82665108e-11
-8.82677589e-11
-8.82691733e-11
-8.82699437e-11
-8.82706865e-11
-8.82710654e-11
-8.82713553e-11
-8.82715262e-11
-8.82717199e-11
-8.8271831e-11
-8.82718899e-11
-8.82719187e-11
-8.8271931e-11
-8.82719357e-11
-8.82719371e-11
-8.82719373e-11
-8.82719373e-11
-8.82719372e-11
-8.82719371e-11
-8.82719371e-11
-8.82719371e-11
-8.82719371e-11
-8.82719371e-11
-8.82719371e-11
-8.82719371e-11
-8.82719371e-11
-8.82719371e-11
-8.82719371e-11
-8.82719371e-11
-8.82719371e-11
-8.82719371e-11
-8.82719371e-11
-8.82719371e-11
-8.82719371e-11
-8.82719371e-11
-8.82719371e-11
-8.82719371e-11
-8.82719371e-11
-8.82719371e-11
-8.82719371e-11
-8.82719371e-11
-8.82719371e-11
)
;

boundaryField
{
    closed
    {
        type            calculated;
        value           nonuniform List<scalar> 0();
    }
    open
    {
        type            calculated;
        value           uniform -8.82719371e-11;
    }
    sides
    {
        type            empty;
    }
    procBoundary5to4
    {
        type            processor;
        value           uniform -8.7578679e-11;
    }
}


// ************************************************************************* //
