/*--------------------------------*- C++ -*----------------------------------*\
| =========                 |                                                 |
| \\      /  F ield         | OpenFOAM: The Open Source CFD Toolbox           |
|  \\    /   O peration     | Version:  2306                                  |
|   \\  /    A nd           | Website:  www.openfoam.com                      |
|    \\/     M anipulation  |                                                 |
\*---------------------------------------------------------------------------*/
FoamFile
{
    version     2.0;
    format      ascii;
    arch        "LSB;label=32;scalar=64";
    class       volScalarField;
    location    "0.00182";
    object      prefDZ_H;
}
// * * * * * * * * * * * * * * * * * * * * * * * * * * * * * * * * * * * * * //

dimensions      [1 -1 -1 0 0 0 0];

internalField   nonuniform List<scalar> 
530
(
0.000342369328
0.000342681269
0.000344612574
0.000344689069
0.000343160827
0.0003434194
0.000345349772
0.000345352079
0.000343876011
0.00034410343
0.000345964238
0.00034596717
0.000344510324
0.000344754659
0.000346501437
0.000346487505
0.000345050958
0.000345384452
0.000346971177
0.000347007946
0.00034557617
0.00034592865
0.000347481518
0.000347493959
0.000346146384
0.000346405035
0.000347986691
0.000347966546
0.000346701468
0.000346877802
0.000348474817
0.000348417721
0.000347202123
0.00034736355
0.000348935802
0.000348872354
0.000347681418
0.00034783669
0.00034938488
0.00034932001
0.000348143556
0.000348295766
0.000349782401
0.000349761267
0.000348586463
0.000348743032
0.000350144961
0.000350186638
0.000349015895
0.000349176809
0.000350501985
0.000350596686
0.000349446133
0.000349585064
0.00035089428
0.000350960548
0.000349876875
0.00034997861
0.000351301147
0.000351317715
0.000350235428
0.000350375885
0.000351635868
0.000351692101
0.000350567191
0.000350721559
0.000351943312
0.00035201452
0.000350897653
0.000351035271
0.000352245137
0.000352316677
0.000351220757
0.000351346293
0.000352544577
0.000352608096
0.000351536637
0.000351656526
0.000352842262
0.000352898087
0.000351845271
0.000351963825
0.000353134078
0.000353184281
0.000352147236
0.000352268092
0.000353417931
0.000353465766
0.000352443418
0.000352568919
0.000353699962
0.00035374357
0.000352727674
0.000352867168
0.000353993451
0.000354023252
0.000353018614
0.000353155178
0.000354293307
0.000354313184
0.000353337466
0.000353460363
0.000354597002
0.000354609907
0.000353652892
0.000353777038
0.000354898468
0.000354912565
0.000353966519
0.000354091683
0.000355201123
0.000355214284
0.000354276266
0.00035439901
0.000355493924
0.000355511019
0.000354583358
0.000354705879
0.000355788239
0.00035580877
0.000354891551
0.000355012381
0.000356081613
0.000356105231
0.00035519967
0.000355318533
0.000356375971
0.000356401959
0.000355508076
0.000355624313
0.000356666863
0.000356699454
0.000355817671
0.000355930345
0.000356955367
0.000356992712
0.000356116228
0.000356233671
0.000357242681
0.000357283999
0.00035641405
0.00035653017
0.00035753093
0.000357572162
0.000356713238
0.000356827604
0.000357820694
0.000357860619
0.00035701394
0.000357125855
0.000358112982
0.000358149979
0.000357316116
0.000357425156
0.000358406114
0.000358439347
0.000357619636
0.000357726001
0.000358700533
0.000358730141
0.000357924027
0.000358028761
0.000358996135
0.000359023457
0.000358229557
0.000358333842
0.000359295771
0.000359318659
0.000358531018
0.000358641468
0.000359613663
0.000359628844
0.000358856548
0.0003589567
0.000359937676
0.000359956503
0.000359191362
0.00035930082
0.00036026697
0.000360293686
0.000359529028
0.00035964807
0.000360598858
0.000360635208
0.000359867711
0.000359993897
0.000360933316
0.000360976235
0.000360210555
0.000360339231
0.000361270886
0.000361316738
0.000360557327
0.00036068462
0.000361612276
0.000361658359
0.000360907355
0.000361030132
0.000361957108
0.000362000379
0.000361258818
0.000361375178
0.000362291013
0.000362343676
0.000361615146
0.000361721179
0.000362602416
0.000362668447
0.000361919436
0.000362046203
0.000362899949
0.000362973031
0.000362222143
0.000362347935
0.000363190494
0.000363268644
0.000362524915
0.000362651462
0.000363481256
0.000363562212
0.000362825853
0.000362956294
0.000363768734
0.000363854029
0.000363123788
0.000363262325
0.000364052436
0.000364146094
0.000363418004
0.000363567486
0.000364332062
0.000364436873
0.000363707275
0.000363871478
0.000364609967
0.000364720104
0.000363994024
0.000364171435
0.000364882091
0.000365001753
0.000364276386
0.00036446791
0.000365155721
0.000365277496
0.000364557049
0.000364754845
0.000365431239
0.000365554376
0.000364847646
0.00036504259
0.000365708519
0.000365827562
0.000365133822
0.000365324887
0.000365984375
0.000366100183
0.000365418728
0.000365612685
0.00036625828
0.000366366694
0.000365698579
0.000365879103
0.000366530643
0.00036663202
0.000365976794
0.000366156933
0.000366799459
0.000366889128
0.000366248922
0.000366411274
0.000367065306
0.000367144197
0.000366517805
0.00036667574
0.000367325807
0.000367394571
0.00036678122
0.000366924988
0.00036757594
0.000367643802
0.000367040255
0.000367181756
0.000367820405
0.00036788638
0.000367291726
0.00036742966
0.000368056748
0.00036812255
0.000367537494
0.000367679897
0.000368287292
0.000368357101
0.000367779493
0.00036791587
0.000368511069
0.000368577267
0.000368008794
0.000368148808
0.000368732293
0.000368807134
0.000368237509
0.000368379028
0.00036895238
0.000369032744
0.000368460968
0.000368605512
0.000369169707
0.000369253249
0.000368680699
0.000368830553
0.00036938802
0.000369462858
0.000368899185
0.00036904224
0.000369610511
0.000369679302
0.000369123511
0.000369262493
0.000369826372
0.000369878284
0.000369335681
0.000369475021
0.000370033766
0.000370071671
0.00036954299
0.000369680198
0.00037022844
0.000370258706
0.000369747751
0.000369877857
0.000370411112
0.000370439313
0.000369944598
0.000370068579
0.000370587732
0.000370615142
0.000370135658
0.00037025493
0.000370759497
0.000370788168
0.000370320604
0.000370437255
0.00037092595
0.000370954093
0.00037049897
0.000370618234
0.000371086595
0.000371109898
0.000370670106
0.000370794599
0.000371241353
0.000371261674
0.00037083415
0.000370965945
0.000371390513
0.000371408847
0.000370992115
0.000371132836
0.00037153505
0.00037155136
0.000371147111
0.000371294405
0.000371667391
0.0003716884
0.000371301678
0.000371448422
0.000371797614
0.000371819656
0.000371455354
0.000371593731
0.000371925272
0.000371945332
0.000371608263
0.000371732113
0.000372049651
0.000372066172
0.000371757193
0.0003718656
0.000372169572
0.000372182671
0.000371899651
0.000371995063
0.000372284356
0.000372294993
0.000372034641
0.000372120739
0.000372393777
0.000372403212
0.000372162159
0.000372242661
0.000372497892
0.000372507242
0.000372282685
0.000372360103
0.00037259713
0.000372606757
0.000372397116
0.000372471805
0.000372691878
0.000372701585
0.000372506266
0.000372577196
0.000372782418
0.000372791724
0.000372610578
0.000372676481
0.000372868833
0.000372877289
0.000372710147
0.000372770423
0.000372951105
0.000372958553
0.000372804693
0.000372859635
0.000373029107
0.000373035744
0.000372893964
0.000372944409
0.000373102704
0.000373108746
0.000372978108
0.000373024856
0.000373172079
0.000373177717
0.000373057524
0.000373100891
0.000373237631
0.000373242859
0.000373132539
0.000373172479
0.00037329956
0.000373304244
0.000373203418
0.000373239578
0.000373357992
0.000373362016
0.000373270264
0.000373302632
0.000373413049
0.000373416656
0.000373333303
0.000373362433
0.000373465012
0.000373468233
0.000373392385
0.000373418896
0.000373515339
0.00037351903
0.000373452071
0.000373477457
0.000373572248
0.000373575224
0.000373512909
0.00037354156
0.0003736118
0.000373629089
0.000373606075
0.000373628034
0.000373641277
0.000373663689
0.000373668667
0.000373692959
0.000373700668
0.000373725888
0.000373734891
0.000373760589
0.000373771214
0.000373796846
0.000373809197
0.000373834107
0.000373848224
0.000373871669
0.000373887498
0.000373908666
0.000373926207
0.000373944144
0.000373960626
0.000373976946
0.000373992656
0.000374006109
0.000374021282
0.00037403328
0.000374044979
0.000374054746
0.000374063251
0.000374070474
0.000374076156
0.000374080936
0.000374084306
0.000374087054
0.000374088757
0.000374090067
0.00037409077
0.000374091267
0.000374091507
0.000374091445
0.000374091114
0.000374090853
0.000374090684
0.000374090576
0.000374090515
0.000374090482
0.000374090467
0.00037409046
0.000374090457
0.000374090456
0.000374090455
0.000374090455
0.000374090455
0.000374090455
0.000374090455
0.000374090455
0.000374090455
0.000374090455
0.000374090455
0.000374090455
0.000374090455
0.000374090455
0.000374090455
0.000374090455
0.000374090455
0.000374090455
0.000374090455
0.000374090455
0.000374090455
0.000374090455
0.000374090455
0.000374090455
0.000374090455
0.000374090455
)
;

boundaryField
{
    closed
    {
        type            calculated;
        value           nonuniform List<scalar> 0();
    }
    open
    {
        type            calculated;
        value           uniform 0.000374090455;
    }
    sides
    {
        type            empty;
    }
    procBoundary5to4
    {
        type            processor;
        value           uniform 0.000343975851;
    }
}


// ************************************************************************* //
