/*--------------------------------*- C++ -*----------------------------------*\
| =========                 |                                                 |
| \\      /  F ield         | OpenFOAM: The Open Source CFD Toolbox           |
|  \\    /   O peration     | Version:  2306                                  |
|   \\  /    A nd           | Website:  www.openfoam.com                      |
|    \\/     M anipulation  |                                                 |
\*---------------------------------------------------------------------------*/
FoamFile
{
    version     2.0;
    format      ascii;
    arch        "LSB;label=32;scalar=64";
    class       volScalarField;
    location    "0.00114";
    object      prefDh_H;
}
// * * * * * * * * * * * * * * * * * * * * * * * * * * * * * * * * * * * * * //

dimensions      [1 1 -3 0 0 0 0];

internalField   nonuniform List<scalar> 
531
(
23943.4905
23374.1246
22878.1344
22888.7026
23852.7527
23960.4862
23420.2708
23213.504
23851.4407
23968.9264
23421.5855
23231.0511
23855.4043
23949.9067
23384.7084
22978.3574
22986.568
23832.745
23959.6075
23409.168
23281.9829
23848.8313
23952.2317
23385.0305
23046.1872
23051.1881
23835.277
23962.1554
23404.2378
23309.7523
23849.0607
23956.2704
23385.6711
23082.0069
23084.8795
23854.2099
23968.6569
23386.5861
23207.0329
23067.5357
23174.8706
23846.9843
23965.5702
23878.1296
23974.9765
23951.984
23355.2232
23107.3063
23246.7653
23134.743
23157.9945
23872.6241
23945.4779
23547.1636
23151.3117
23110.9022
23858.8851
23943.6635
23399.4885
23073.2595
23070.7968
23848.261
23953.0959
23398.9763
23217.9676
22906.3315
22913.342
23836.2061
23944.1201
23911.1314
23951.6906
23934.5061
23412.0677
23253.227
23051.9755
23052.2728
23886.1273
23937.1918
23390.1729
23051.5269
23049.8558
23903.4325
23940.8429
23395.9415
23077.6334
23076.4022
23935.5023
23937.3128
23395.0295
23086.5897
23098.6168
23944.9427
23957.7758
23388.156
23217.7794
23114.2747
23114.6551
23944.1416
23959.9414
23334.8002
23175.257
23954.6966
23964.9686
23327.0366
23279.3175
23967.2457
23948.9617
23380.2007
23115.123
23238.015
23967.5426
23944.6854
23385.6558
23111.1912
23188.4051
23967.0568
23932.3563
23395.5049
23095.8201
23165.917
23963.6875
23948.1006
23398.7443
23194.9913
22988.8155
23030.5743
23957.4212
23953.2318
23244.5129
23161.2805
23963.2087
23957.6609
23235.7932
23173.7529
23966.6205
23958.852
23248.7679
23197.2826
23968.2973
23955.3319
23289.9217
23220.859
23978.0077
23935.3874
23382.8191
22951.1197
23008.4893
23956.3795
23943.896
23389.7099
23231.5625
23966.5915
23927.0319
23393.0111
22899.908
22947.6465
23924.9626
23913.267
23571.2499
22967.1692
22986.1147
23935.6614
23943.2546
23269.8031
23226.2202
23932.1156
23966.9415
23520.3732
23376.8342
23077.3484
23243.0642
23931.6804
23968.5023
23287.8017
23062.057
23964.6432
23953.2888
23405.5542
23272.9123
22886.8613
22903.1077
23940.0085
23930.8906
23927.3172
23407.5966
23206.9205
23949.9553
23940.8583
23428.2554
23340.5371
22938.9097
22965.8915
23928.0142
23940.0197
23916.3519
23428.1416
23181.5481
23188.6173
22898.1892
22900.5575
23950.4119
23927.9376
23438.5642
23146.3232
23154.2817
23943.81
23959.7441
23406.0285
23231.1467
23923.7197
23969.4991
23296.1644
23189.2585
23916.7967
23949.9007
23241.4968
23009.3171
23937.3443
23929.0172
23404.4212
22961.1466
22977.382
23950.7434
23918.0028
23398.3901
22911.4391
22946.8834
23940.2001
23939.393
23314.0326
23119.9219
23952.953
23923.0389
23385.4475
22896.4415
22944.3248
23939.4626
23955.3082
23266.3484
23120.836
23944.9157
23960.3666
23240.0348
23153.4434
23958.7321
23956.5276
23260.8921
23177.147
23977.8614
23936.5084
23379.352
22990.9511
23056.46
23961.7023
23948.841
23341.313
23205.2658
23989.6434
23943.5265
23381.6839
23064.3293
23125.149
23979.1622
23935.6044
23381.0908
23060.1339
23174.9093
23968.2413
23944.0655
23384.229
23179.1606
23015.8813
22977.4996
23487.8825
23938.4621
23928.3796
23937.4273
23875.115
23937.846
23766.8402
23283.8945
23117.667
23168.0249
23150.0004
22967.2821
23056.2629
23965.5994
23919.1435
23381.1182
23011.9175
23155.8925
23956.329
23940.4102
23334.6378
23328.7788
23964.4536
23433.007
23187.8643
23967.0863
23967.7865
23589.4776
23361.9902
23001.8667
23367.6806
23920.7805
23379.5395
23206.6909
23947.3138
23914.4959
23642.9221
22903.2053
22938.364
23947.8525
23917.8361
23519.0608
23086.6493
22999.163
23418.3101
23930.5746
23955.9822
23179.8055
22896.5436
23395.3284
23923.8179
23965.4256
23220.2828
22904.7763
23392.0848
23925.531
23968.698
23221.7685
22902.6479
23394.7152
23920.2855
23968.3028
23184.3423
22886.7748
23415.5233
23909.9397
23954.4814
23080.8396
22852.9744
23459.7423
23896.2986
23937.4495
22925.0619
22828.6319
23924.0032
23939.0239
23208.0776
23181.1859
23898.6821
23968.9905
23703.5383
23134.3006
22861.912
23366.0083
23933.4233
24016.8787
22912.8515
22744.5425
23901.4236
23987.4517
23911.2877
22564.3265
22490.4481
24020.43
24088.018
24102.7408
24157.2186
23063.5675
22844.6559
24085.5629
24177.5937
24124.831
22696.2366
22419.0047
23430.5521
24008.8209
23953.7674
23997.9801
23976.7903
23998.8299
23992.7864
24008.3367
24009.9778
24027.0791
24037.5901
24060.5412
24084.6447
24119.459
24172.1387
24235.6815
24366.8378
24566.5332
24591.6257
24455.9242
24325.0873
24206.379
24114.6675
24029.3341
23978.0009
23918.0069
23837.1284
23795.5633
23808.8013
23721.6481
23664.4193
23633.2086
23609.6599
23630.137
23543.7716
23418.4613
23273.0738
23147.9639
23271.1304
24791.3735
24595.1042
24352.0771
24086.2373
23836.8539
23570.0312
23304.7142
23040.6442
22750.4069
22718.3875
23682.0351
23277.8562
22969.1584
25957.9996
27055.1634
29963.2824
30885.9986
32111.7762
33846.2125
35100.1436
36643.1152
38590.3385
41164.332
44381.7644
47087.8935
50507.6234
53129.9181
55756.522
57794.5568
60220.6362
61885.2617
63570.8933
65233.361
66905.924
68222.1053
69518.5659
70553.032
71658.5594
72562.5189
73538.8053
74320.7154
75182.4481
75874.9809
76649.3803
77251.2508
77935.7411
78455.9772
79102.1022
79572.7176
80171.3129
80583.9643
81159.4044
81553.3131
82078.7854
82445.3178
82873.1878
83166.4506
83534.9756
83834.8863
84220.0714
84530.9545
84899.7266
85232.4455
85667.9084
85917.8364
86169.0418
86378.2316
86595.196
86785.1077
86977.8471
87147.7521
87345.6179
87532.2776
87725.99
87911.9931
88095.6045
88261.0533
88440.8795
88637.9593
88819.6404
89003.8514
89174.6762
89344.9187
89504.4423
89660.4413
89798.9052
89938.0145
90070.332
90203.1918
90329.897
90456.8045
90579.0361
90703.1243
90822.7249
90945.9097
91075.9058
91199.9922
91311.3342
91422.6495
91528.4664
91634.4327
91735.1161
91836.2827
91932.2076
92028.6434
92117.9934
92207.9502
92292.4909
92378.0627
92458.2564
92539.9122
92616.1792
92694.3252
92767.0457
92841.8465
)
;

boundaryField
{
    closed
    {
        type            calculated;
        value           nonuniform List<scalar> 0();
    }
    open
    {
        type            calculated;
        value           nonuniform List<scalar> 0();
    }
    sides
    {
        type            empty;
    }
    procBoundary4to3
    {
        type            processor;
        value           uniform 23935.2445;
    }
    procBoundary4to5
    {
        type            processor;
        value           uniform 92907.4069;
    }
}


// ************************************************************************* //
