/*--------------------------------*- C++ -*----------------------------------*\
| =========                 |                                                 |
| \\      /  F ield         | OpenFOAM: The Open Source CFD Toolbox           |
|  \\    /   O peration     | Version:  2306                                  |
|   \\  /    A nd           | Website:  www.openfoam.com                      |
|    \\/     M anipulation  |                                                 |
\*---------------------------------------------------------------------------*/
FoamFile
{
    version     2.0;
    format      ascii;
    arch        "LSB;label=32;scalar=64";
    class       volScalarField;
    location    "0.00114";
    object      Z;
}
// * * * * * * * * * * * * * * * * * * * * * * * * * * * * * * * * * * * * * //

dimensions      [0 0 0 0 0 0 0];

internalField   nonuniform List<scalar> 
531
(
0.0140840445
0.0145810817
0.0148868934
0.0148757824
0.014134898
0.0140772939
0.0146722794
0.0147609366
0.0141419561
0.0140727157
0.014687434
0.0147563747
0.0141421578
0.0140810962
0.014603418
0.0148536941
0.0148428537
0.0141446294
0.0140759448
0.0146448435
0.0147378307
0.0141433476
0.0140785925
0.0145764045
0.014829444
0.0148201146
0.0141421688
0.0140734875
0.0146302156
0.0147266636
0.0141417447
0.0140759811
0.0145562209
0.0148144774
0.0148077602
0.0141327697
0.0140722852
0.0145828988
0.014760591
0.0148215902
0.0147776538
0.0141343401
0.0140678057
0.014111829
0.0140649483
0.0140845979
0.0146561336
0.0148132633
0.0147484557
0.0148020234
0.0147871351
0.0141194606
0.0140752126
0.0143022666
0.0147859325
0.0148027704
0.0141370403
0.0140804432
0.0144894727
0.0148171863
0.0148123226
0.0141346615
0.0140757209
0.0145432808
0.0147626235
0.0148774977
0.0148697393
0.0141511733
0.0140807969
0.0141013769
0.0140738713
0.0140790013
0.0144623764
0.0147536805
0.0148233312
0.0148235907
0.0141195111
0.0140824909
0.0145343176
0.0148244065
0.0148227191
0.014107001
0.0140806778
0.0145082733
0.0148142501
0.0148146468
0.0140932146
0.0140813536
0.0144963465
0.0148120169
0.014803279
0.0140883374
0.0140739132
0.0145917803
0.0147610487
0.0148010063
0.0147974403
0.0140854104
0.0140744374
0.0147212782
0.0147728758
0.0140890849
0.0140721791
0.014724667
0.0147376746
0.0140817454
0.0140765945
0.0145880878
0.0148003016
0.0147534288
0.0140754369
0.0140771889
0.0145357897
0.0148015982
0.0147722428
0.0140781947
0.014081684
0.0144929772
0.0148104232
0.0147782919
0.0140798577
0.0140766251
0.0145741953
0.0147701392
0.01484876
0.0148248658
0.0140872477
0.0140791175
0.0147616543
0.0147781665
0.0140837355
0.0140759695
0.0147635762
0.0147720241
0.0140831135
0.0140754742
0.014757794
0.0147637675
0.0140826826
0.0140753985
0.0147408434
0.014759335
0.0140779583
0.0140835437
0.0146213306
0.0148601014
0.0148335255
0.014085275
0.014080468
0.0147052128
0.0147597502
0.0140803494
0.0140851569
0.0145780695
0.014879975
0.0148607267
0.0141037171
0.0140909653
0.0142845691
0.0148573413
0.0148475159
0.0140990592
0.0140800334
0.0147551675
0.0147576086
0.014099005
0.0140647774
0.0143248983
0.0146795474
0.0148234163
0.014748223
0.0140888604
0.0140695218
0.0147414487
0.0148144102
0.0140874679
0.0140741909
0.0144882483
0.0147463881
0.0148829262
0.0148765153
0.014099895
0.0140803056
0.014090813
0.014670624
0.0147723517
0.0140885779
0.0140737847
0.0144396948
0.0147208687
0.0148670726
0.0148530291
0.0141021712
0.0140776052
0.0140910206
0.0144329082
0.0147850812
0.0147767678
0.0148792427
0.0148773642
0.0140918626
0.0140848445
0.0144111613
0.0147930298
0.0147866493
0.0140875559
0.0140711167
0.0146986101
0.0147550314
0.0140980714
0.0140686953
0.0147393253
0.0147712659
0.0141025704
0.0140770391
0.0147555163
0.0148388999
0.0140977765
0.0140866083
0.0144884074
0.0148563935
0.0148529646
0.0140882004
0.0140902374
0.0145026385
0.0148754435
0.0148598481
0.0140932892
0.0140824581
0.0147286461
0.0148030101
0.0140875645
0.0140873127
0.0145399177
0.0148807588
0.0148574819
0.0140931505
0.0140779561
0.0147507688
0.0147953033
0.0140911264
0.0140737552
0.0147587474
0.0147827082
0.0140859758
0.0140747134
0.0147478387
0.014777273
0.0140768817
0.0140823566
0.0145928153
0.0148460114
0.0148173862
0.0140808204
0.0140784134
0.0147184129
0.0147672277
0.0140704006
0.0140786663
0.0145512866
0.0148170504
0.0147949129
0.0140728395
0.014082573
0.014533909
0.0148201197
0.0147746358
0.0140735903
0.0140777804
0.0145899133
0.0147781362
0.0148322129
0.0148474153
0.0143490708
0.0140858858
0.0140920371
0.0140842222
0.0141120135
0.0140792904
0.0141719012
0.0147413749
0.0148146056
0.0147836061
0.0147954735
0.0148536476
0.0148222102
0.0140816452
0.0140913125
0.0145871315
0.0148397134
0.0147806626
0.0140787441
0.0140810293
0.014724626
0.0147214476
0.0140825255
0.0144174187
0.0147682227
0.0140864197
0.014066214
0.0142729232
0.0147011155
0.014848474
0.0146193914
0.0140927241
0.0145660976
0.0147720264
0.0140927701
0.0140879245
0.0142398739
0.0148776003
0.0148678722
0.0140962598
0.014088855
0.014325159
0.0148103028
0.0148469349
0.0144339294
0.0140842547
0.0140845629
0.0147750996
0.0148821834
0.0144746948
0.014087247
0.0140784124
0.0147612266
0.0148780649
0.0144817631
0.0140869238
0.0140766473
0.0147605358
0.0148788377
0.0144750773
0.0140891762
0.0140778186
0.014774884
0.0148847163
0.0144374912
0.0140932767
0.014087322
0.0148125809
0.0148984514
0.0143773098
0.0140985512
0.0141011206
0.0148690005
0.0149033698
0.0141047723
0.0140819556
0.0147725986
0.0147746938
0.0141155695
0.014068795
0.0142077311
0.0147761292
0.0148925614
0.0144726385
0.0140911845
0.0140639503
0.0148658533
0.0149165115
0.0141346198
0.0140787454
0.0141330197
0.0149720324
0.0150002134
0.0141009264
0.0140538315
0.014055238
0.0140317884
0.0147541836
0.0148241393
0.0140665647
0.0140174189
0.0140361099
0.0148426186
0.0149532242
0.0143291188
0.0140520521
0.0140688708
0.0140384315
0.0140402025
0.0140189288
0.0140130643
0.0139942655
0.0139834743
0.0139642173
0.0139482613
0.0139267574
0.0139040398
0.0138780262
0.0138433711
0.0138071074
0.0137443302
0.0136603438
0.0135772499
0.0135401952
0.0135006102
0.0134599705
0.0134232484
0.0133818637
0.0133469552
0.0133065596
0.013258956
0.0131708964
0.0130126265
0.0129089614
0.0128248757
0.0127431803
0.0126694816
0.0126063301
0.012565814
0.0125545165
0.0125293096
0.0125156363
0.0123725291
0.0117212552
0.0116769835
0.0116703518
0.011641026
0.0116337005
0.0116079298
0.0116010784
0.0115814894
0.0115813632
0.0114820754
0.0110735823
0.0110785035
0.0110581999
0.0104256534
0.0105127845
0.010988672
0.0110680805
0.0111449806
0.0113571526
0.0114325104
0.0115459821
0.0116685384
0.0118327736
0.0120603406
0.012229378
0.0124971646
0.0126768107
0.0128983896
0.0130546907
0.013292113
0.0134353008
0.0136071666
0.0137765731
0.0139643307
0.0141070002
0.0142538903
0.0143693743
0.0144933256
0.0145956871
0.0147022484
0.0147893406
0.0148783098
0.0149503243
0.0150219005
0.0150752042
0.0151276788
0.015167379
0.0152184966
0.0152558494
0.015305198
0.0153359658
0.0153839814
0.0154145523
0.0154571211
0.0154845885
0.0155163047
0.0155363261
0.015561251
0.0155812029
0.0156069642
0.0156267331
0.0156484474
0.0156690117
0.0156958891
0.0157131524
0.0157273825
0.0157403645
0.0157519531
0.0157637677
0.0157738434
0.0157845047
0.0157956561
0.0158082466
0.015819636
0.0158325112
0.0158434645
0.0158545033
0.0158649178
0.0158778316
0.0158884754
0.0159005637
0.0159107971
0.0159219818
0.0159317218
0.0159419465
0.0159504003
0.0159594239
0.0159676988
0.0159763159
0.0159844566
0.0159928843
0.0160011163
0.0160094063
0.0160176826
0.0160259765
0.0160352303
0.0160436406
0.0160516543
0.0160591557
0.0160668945
0.0160740428
0.0160815148
0.0160883487
0.0160955623
0.0161020828
0.0161088818
0.0161149736
0.016121491
0.0161273121
0.0161335657
0.016139146
0.0161451515
0.0161505163
0.0161562875
0.0161614442
)
;

boundaryField
{
    closed
    {
        type            zeroGradient;
    }
    open
    {
        type            zeroGradient;
    }
    sides
    {
        type            empty;
    }
    procBoundary4to3
    {
        type            processor;
        value           uniform 0.0140859819;
    }
    procBoundary4to5
    {
        type            processor;
        value           uniform 0.0161667206;
    }
}


// ************************************************************************* //
