/*--------------------------------*- C++ -*----------------------------------*\
| =========                 |                                                 |
| \\      /  F ield         | OpenFOAM: The Open Source CFD Toolbox           |
|  \\    /   O peration     | Version:  2306                                  |
|   \\  /    A nd           | Website:  www.openfoam.com                      |
|    \\/     M anipulation  |                                                 |
\*---------------------------------------------------------------------------*/
FoamFile
{
    version     2.0;
    format      ascii;
    arch        "LSB;label=32;scalar=64";
    class       volScalarField;
    location    "0.00042";
    object      prefDPV_H2O;
}
// * * * * * * * * * * * * * * * * * * * * * * * * * * * * * * * * * * * * * //

dimensions      [1 -1 -1 0 0 0 0];

internalField   nonuniform List<scalar> 
531
(
-3.85647226e-07
-3.84290467e-07
-3.65067595e-07
-3.64030859e-07
-3.8580904e-07
-3.84079647e-07
-3.65686106e-07
-3.65707674e-07
-3.85248915e-07
-3.70650906e-07
-3.63860371e-07
-3.85282369e-07
-3.84372555e-07
-3.66061863e-07
-3.64993817e-07
-3.85162143e-07
-3.84364518e-07
-3.70801977e-07
-3.64073822e-07
-3.63950537e-07
-3.85233756e-07
-3.8418877e-07
-3.66239963e-07
-3.64784261e-07
-3.85570116e-07
-3.84097955e-07
-3.66056445e-07
-3.6490819e-07
-3.85286536e-07
-3.84312223e-07
-3.70986096e-07
-3.64110873e-07
-3.64036829e-07
-3.85238823e-07
-3.84218957e-07
-3.66501364e-07
-3.65124337e-07
-3.85204381e-07
-3.84298711e-07
-3.71675428e-07
-3.64232821e-07
-3.64116453e-07
-3.85424672e-07
-3.84192807e-07
-3.66247915e-07
-3.64785947e-07
-3.85613939e-07
-3.84128777e-07
-3.65988598e-07
-3.6483595e-07
-3.85345117e-07
-3.84348499e-07
-3.71430645e-07
-3.64156721e-07
-3.64043229e-07
-3.85466281e-07
-3.84211667e-07
-3.662528e-07
-3.64748024e-07
-3.85660642e-07
-3.84127535e-07
-3.66048668e-07
-3.64824813e-07
-3.8539921e-07
-3.8433269e-07
-3.71427643e-07
-3.64126348e-07
-3.64005675e-07
-3.85522575e-07
-3.84178891e-07
-3.66349756e-07
-3.6480083e-07
-3.85705577e-07
-3.8407821e-07
-3.66120351e-07
-3.64887982e-07
-3.85577577e-07
-3.84258291e-07
-3.73459972e-07
-3.64058774e-07
-3.63978927e-07
-3.85691137e-07
-3.84206824e-07
-3.66394248e-07
-3.64998275e-07
-3.85599974e-07
-3.84231101e-07
-3.73938808e-07
-3.64238711e-07
-3.64142028e-07
-3.85733401e-07
-3.84155334e-07
-3.66498093e-07
-3.65040391e-07
-3.85631632e-07
-3.84156996e-07
-3.73712314e-07
-3.64437231e-07
-3.64395861e-07
-3.85643511e-07
-3.84259347e-07
-3.73096983e-07
-3.64621873e-07
-3.64567901e-07
-3.85599611e-07
-3.84258343e-07
-3.73101911e-07
-3.64470908e-07
-3.64433069e-07
-3.85756782e-07
-3.84279672e-07
-3.75348281e-07
-3.64532675e-07
-3.64438569e-07
-3.85824357e-07
-3.84108355e-07
-3.66612687e-07
-3.65023457e-07
-3.85593652e-07
-3.84150203e-07
-3.72223483e-07
-3.64426585e-07
-3.6432269e-07
-3.85645677e-07
-3.84083909e-07
-3.66768432e-07
-3.65084129e-07
-3.85570516e-07
-3.84141186e-07
-3.72761254e-07
-3.64682698e-07
-3.64559544e-07
-3.85738374e-07
-3.83963566e-07
-3.66347884e-07
-3.66185244e-07
-3.86245702e-07
-3.68171268e-07
-3.6413886e-07
-3.85769831e-07
-3.84308773e-07
-3.66113469e-07
-3.64764905e-07
-3.85844264e-07
-3.84122166e-07
-3.65934748e-07
-3.64741338e-07
-3.85648425e-07
-3.8425158e-07
-3.73722613e-07
-3.64185205e-07
-3.64105497e-07
-3.85558216e-07
-3.84187873e-07
-3.66386078e-07
-3.64986007e-07
-3.8540676e-07
-3.8424137e-07
-3.73098168e-07
-3.6421041e-07
-3.64115591e-07
-3.85458687e-07
-3.84169063e-07
-3.66331371e-07
-3.64925971e-07
-3.85414614e-07
-3.84199421e-07
-3.73887775e-07
-3.6423345e-07
-3.64199573e-07
-3.85396878e-07
-3.8428418e-07
-3.74869597e-07
-3.64430558e-07
-3.64426611e-07
-3.85273502e-07
-3.84310763e-07
-3.73064477e-07
-3.64541843e-07
-3.6440946e-07
-3.85361775e-07
-3.84106287e-07
-3.66335849e-07
-3.64740506e-07
-3.85559176e-07
-3.84101271e-07
-3.65961844e-07
-3.64803686e-07
-3.85396318e-07
-3.84321707e-07
-3.73004697e-07
-3.64117637e-07
-3.6400999e-07
-3.85603469e-07
-3.84227825e-07
-3.66095234e-07
-3.64637968e-07
-3.85753952e-07
-3.84160105e-07
-3.65967236e-07
-3.64709909e-07
-3.85512633e-07
-3.84294632e-07
-3.71897829e-07
-3.64205168e-07
-3.64118404e-07
-3.85511591e-07
-3.84167388e-07
-3.66485012e-07
-3.64987889e-07
-3.85484e-07
-3.84182484e-07
-3.73015707e-07
-3.64348071e-07
-3.64236107e-07
-3.85631438e-07
-3.83985789e-07
-3.66415011e-07
-3.65213837e-07
-3.85742568e-07
-3.8361967e-07
-3.76082656e-07
-3.66477009e-07
-3.65885033e-07
-3.72410222e-07
-3.78892863e-07
-3.66787074e-07
-3.66973842e-07
-3.85005232e-07
-3.70085433e-07
-3.64566074e-07
-3.85732783e-07
-3.84124426e-07
-3.66349155e-07
-3.64877264e-07
-3.8576176e-07
-3.84282284e-07
-3.72789001e-07
-3.64538146e-07
-3.64378742e-07
-3.86130105e-07
-3.84202717e-07
-3.66376589e-07
-3.64493893e-07
-3.86430326e-07
-3.84244913e-07
-3.65920567e-07
-3.64227819e-07
-3.8659186e-07
-3.84275422e-07
-3.65957884e-07
-3.64427777e-07
-3.86466497e-07
-3.84251645e-07
-3.66192801e-07
-3.64687589e-07
-3.86284498e-07
-3.84339282e-07
-3.75523582e-07
-3.64208371e-07
-3.6411325e-07
-3.86440096e-07
-3.84286616e-07
-3.66412415e-07
-3.64792611e-07
-3.864346e-07
-3.84328697e-07
-3.78148901e-07
-3.64186734e-07
-3.64045455e-07
-3.86620429e-07
-3.84280526e-07
-3.66321408e-07
-3.64786126e-07
-3.86374341e-07
-3.84233353e-07
-3.7737724e-07
-3.64455305e-07
-3.64368143e-07
-3.86246692e-07
-3.84257965e-07
-3.72600838e-07
-3.64805708e-07
-3.64709292e-07
-3.85693563e-07
-3.84092407e-07
-3.70948772e-07
-3.6507179e-07
-3.65148713e-07
-3.84728724e-07
-3.84079426e-07
-3.70233403e-07
-3.64787702e-07
-3.64648291e-07
-3.85545755e-07
-3.84071329e-07
-3.66301772e-07
-3.64608222e-07
-3.85986808e-07
-3.84141649e-07
-3.66026545e-07
-3.64606221e-07
-3.85766235e-07
-3.84255714e-07
-3.72805874e-07
-3.64380068e-07
-3.64298233e-07
-3.85670583e-07
-3.84179349e-07
-3.66534703e-07
-3.64754041e-07
-3.85606003e-07
-3.84219623e-07
-3.73602025e-07
-3.6440645e-07
-3.64304963e-07
-3.85590313e-07
-3.84133703e-07
-3.66492033e-07
-3.64778154e-07
-3.85599294e-07
-3.8416254e-07
-3.74738121e-07
-3.64402187e-07
-3.64366323e-07
-3.85408312e-07
-3.84166182e-07
-3.72436263e-07
-3.64854473e-07
-3.64785605e-07
-3.85085984e-07
-3.84061469e-07
-3.70167915e-07
-3.64907897e-07
-3.64916329e-07
-3.84787363e-07
-3.84142983e-07
-3.72200494e-07
-3.64717636e-07
-3.64597277e-07
-3.85129463e-07
-3.84070272e-07
-3.66038078e-07
-3.64483722e-07
-3.85421968e-07
-3.84115655e-07
-3.65758417e-07
-3.6464213e-07
-3.85079417e-07
-3.84212554e-07
-3.71833558e-07
-3.64394704e-07
-3.64390163e-07
-3.84937003e-07
-3.8408597e-07
-3.66128346e-07
-3.64784792e-07
-3.84819712e-07
-3.84099054e-07
-3.72209169e-07
-3.6464009e-07
-3.64730194e-07
-3.84568771e-07
-3.84149825e-07
-3.69010532e-07
-3.64727248e-07
-3.73448095e-07
-3.84601379e-07
-3.66618061e-07
-3.65453577e-07
-3.84885513e-07
-3.70154114e-07
-3.64255153e-07
-3.84941918e-07
-3.84287223e-07
-3.78625741e-07
-3.64165746e-07
-3.64217172e-07
-3.84783229e-07
-3.84250991e-07
-3.72991323e-07
-3.64359044e-07
-3.64533026e-07
-3.84550106e-07
-3.84169677e-07
-3.73299894e-07
-3.64386519e-07
-3.64577754e-07
-3.843801e-07
-3.8415475e-07
-3.71194304e-07
-3.64652434e-07
-3.65162679e-07
-3.84280177e-07
-3.83963739e-07
-3.65708991e-07
-3.64408844e-07
-3.84259524e-07
-3.84144291e-07
-3.70192423e-07
-3.64619949e-07
-3.65051153e-07
-3.84253367e-07
-3.84007202e-07
-3.65732958e-07
-3.64477754e-07
-3.84209133e-07
-3.84141284e-07
-3.70624555e-07
-3.64625854e-07
-3.64825415e-07
-3.8419901e-07
-3.84054068e-07
-3.65840146e-07
-3.64536316e-07
-3.84096767e-07
-3.84109345e-07
-3.70071046e-07
-3.64589184e-07
-3.64809637e-07
-3.83979391e-07
-3.84108332e-07
-3.67732839e-07
-3.64610199e-07
-3.72585274e-07
-3.84127377e-07
-3.76778805e-07
-3.65823393e-07
-3.69111992e-07
-3.8020553e-07
-3.77311674e-07
-3.68752869e-07
-3.70688493e-07
-3.77442677e-07
-3.7493425e-07
-3.6809681e-07
-3.6984712e-07
-3.81989216e-07
-3.80443046e-07
-3.65551654e-07
-3.65523039e-07
-3.84498982e-07
-3.84008821e-07
-3.6494994e-07
-3.64382863e-07
-3.84611757e-07
-3.84219148e-07
-3.65009025e-07
-3.64628547e-07
-3.84171545e-07
-3.8430794e-07
-3.7032313e-07
-3.64547837e-07
-3.64765311e-07
-3.84291001e-07
-3.84202315e-07
-3.65388171e-07
-3.64520414e-07
-3.84310173e-07
-3.84272057e-07
-3.65030887e-07
-3.6463844e-07
-3.83922075e-07
-3.84307135e-07
-3.69924481e-07
-3.64551645e-07
-3.64798923e-07
-3.84197352e-07
-3.84205694e-07
-3.65308651e-07
-3.64528263e-07
-3.84270823e-07
-3.8429021e-07
-3.64955596e-07
-3.64722124e-07
-3.83900204e-07
-3.84311026e-07
-3.71172028e-07
-3.64308841e-07
-3.64670135e-07
-3.84251697e-07
-3.842464e-07
-3.65549611e-07
-3.64438527e-07
-3.85242051e-07
-3.84311614e-07
-3.65162134e-07
-3.64680351e-07
-3.84012788e-07
-3.84314934e-07
-3.72291059e-07
-3.63802816e-07
-3.6430967e-07
-3.84130278e-07
-3.84336128e-07
-3.73244623e-07
-3.63989226e-07
-3.64441282e-07
-3.84202158e-07
-3.84306859e-07
-3.74244789e-07
-3.64041995e-07
-3.64419283e-07
-3.84254448e-07
-3.84275355e-07
-3.7467973e-07
-3.64094283e-07
-3.64412205e-07
-3.84312205e-07
-3.84229705e-07
-3.74992615e-07
-3.64105092e-07
-3.64346921e-07
-3.84167971e-07
-3.84239094e-07
-3.72015498e-07
-3.64228649e-07
-3.64688441e-07
-3.85196483e-07
-3.84112844e-07
-3.82831962e-07
-3.63953052e-07
-3.6399173e-07
-3.84876799e-07
-3.84369488e-07
-3.70315412e-07
-3.64026536e-07
-3.65297802e-07
-3.84819326e-07
-3.83423691e-07
-3.83860989e-07
)
;

boundaryField
{
    closed
    {
        type            calculated;
        value           nonuniform List<scalar> 0();
    }
    open
    {
        type            calculated;
        value           nonuniform List<scalar> 0();
    }
    sides
    {
        type            empty;
    }
    procBoundary1to0
    {
        type            processor;
        value           uniform -3.64200149e-07;
    }
    procBoundary1to2
    {
        type            processor;
        value           uniform -3.70417719e-07;
    }
}


// ************************************************************************* //
