/*--------------------------------*- C++ -*----------------------------------*\
| =========                 |                                                 |
| \\      /  F ield         | OpenFOAM: The Open Source CFD Toolbox           |
|  \\    /   O peration     | Version:  2306                                  |
|   \\  /    A nd           | Website:  www.openfoam.com                      |
|    \\/     M anipulation  |                                                 |
\*---------------------------------------------------------------------------*/
FoamFile
{
    version     2.0;
    format      ascii;
    arch        "LSB;label=32;scalar=64";
    class       volScalarField;
    location    "0.00078";
    object      h;
}
// * * * * * * * * * * * * * * * * * * * * * * * * * * * * * * * * * * * * * //

dimensions      [0 2 -2 0 0 0 0];

internalField   nonuniform List<scalar> 
530
(
-197795.717
-221988.497
-221345.473
-189928.835
-191949.778
-209321.16
-213420.057
-190295.623
-185376.607
-192054.106
-206038.457
-200423.276
-180599.678
-185104.937
-199462.916
-199571.969
-176093.407
-179879.725
-193032.39
-193365.403
-171156.387
-174933.781
-187151.976
-187406.725
-166463.418
-170042.559
-181764.855
-181713.661
-162004.094
-165065.801
-176483.898
-176369.55
-157786.89
-160236.017
-171535.353
-171333.798
-153502.745
-155668.006
-166684.384
-166489.083
-149172.013
-151179.467
-161974.985
-161757.256
-144860.523
-146725.43
-157324.566
-157091.023
-140528.157
-142321.45
-152704.946
-152450.53
-136222.87
-137985.021
-148040.77
-147835.334
-131950.922
-133646.753
-143416.533
-143183.141
-127709.896
-129326.39
-138801.911
-138539.855
-123490.309
-125030.104
-134199.9
-133933.539
-119272.831
-120755.051
-129615.908
-129375.501
-115054.66
-116475.045
-125045.511
-124817.944
-110816.708
-112201.854
-120354.564
-120227.128
-106465.643
-107881.03
-115639.736
-115510.749
-102040.095
-103557.015
-110965.856
-110727.202
-97588.5586
-99209.9543
-106307.386
-105965.667
-93233.5183
-94821.926
-101612.347
-101247.995
-88946.641
-90434.8329
-96951.6036
-96589.5754
-84692.4121
-86092.3167
-92409.6879
-92073.3346
-80565.4413
-81761.6741
-87921.582
-87680.922
-76481.7999
-77465.1301
-83485.6524
-83306.1169
-72324.4156
-73271.7534
-79088.4967
-78932.5736
-68216.5714
-69149.3403
-74751.6231
-74608.3201
-64203.5563
-65094.1829
-70564.772
-70388.1757
-60352.4757
-61167.3008
-66589.4881
-66377.9797
-56575.1721
-57366.4134
-62731.927
-62488.1055
-52908.5809
-53679.5229
-58999.3332
-58713.2249
-49357.7074
-50115.3127
-55385.269
-55068.139
-45932.1899
-46671.9013
-51890.9178
-51563.3779
-42637.0063
-43354.7149
-48465.9118
-48178.337
-39414.4343
-40129.4322
-45110.8694
-44810.2763
-36303.4082
-37031.8362
-41868.4068
-41587.5947
-33323.7677
-34044.3755
-38747.1231
-38482.5791
-30457.9234
-31174.6405
-35773.4669
-35504.3337
-27687.8648
-28421.6301
-32952.1628
-32670.5213
-25016.1398
-25773.9562
-30311.1982
-29990.5211
-22455.8213
-23238.8231
-27851.869
-27455.4847
-20008.3331
-20816.4759
-25597.9972
-25146.7472
-17713.0688
-18589.6412
-23467.9761
-22906.1557
-15583.4816
-16484.4118
-21391.5833
-20747.5945
-13634.2603
-14578.201
-19407.3832
-18669.068
-11839.4154
-12832.947
-17513.5787
-16730.7326
-10185.3533
-11215.3921
-15704.391
-14936.7978
-8661.76397
-9675.55612
-13981.196
-13268.7126
-7262.34974
-8235.6675
-12344.5105
-11716.3513
-5986.23286
-6918.68712
-10779.186
-10198.1769
-4851.37034
-5667.53364
-9307.14491
-8837.12324
-3826.70153
-4573.30475
-8010.33893
-7569.69284
-2887.73309
-3568.39035
-6841.54464
-6438.69799
-2020.06792
-2660.60122
-5780.04377
-5422.11325
-1220.18337
-1812.39153
-4815.88467
-4497.62535
-491.251798
-1043.27992
-3939.51935
-3658.07092
164.469301
-351.795795
-3140.79269
-2895.90413
746.445802
262.461138
-2408.80932
-2205.5395
1247.75618
802.023934
-1793.17492
-1583.32004
1659.18801
1270.47757
-1239.58345
-1024.6053
2016.4551
1678.38464
-740.447635
-523.364341
2320.3872
2029.53655
-286.557989
-78.9533741
2571.24511
2335.81405
137.922195
303.93636
2760.00641
2620.68979
580.319587
654.935375
2803.86489
2859.1228
943.325825
945.734926
2873.63848
3023.32118
1245.56034
1209.95758
2950.21109
3134.58529
1497.43003
1441.02377
3021.51239
3212.69582
1709.14675
1639.20974
3080.15677
3268.30476
1886.56766
1807.35286
3125.56731
3305.5771
2034.05098
1948.58303
3158.1189
3327.31527
2155.21093
2066.14955
3178.71847
3335.65089
2253.71106
2162.6926
3188.0878
3332.79587
2332.73345
2240.77308
3187.3262
3320.53572
2395.02057
2302.81895
3177.68272
3300.42811
2442.98721
2351.05653
3160.44475
3273.86392
2478.76751
2387.50113
3136.8724
3242.09221
2504.24426
2413.96354
3108.15602
3206.23326
2521.07629
2432.06051
3075.39857
3167.28053
2530.73065
2443.22146
3039.61019
3126.09636
2534.49751
2448.7034
3001.68136
3083.42851
2533.48605
2449.62651
2962.36628
3039.93489
2528.68552
2446.96011
2922.28067
2996.19228
2521.05288
2441.46556
2881.88065
2952.71384
2511.61617
2433.60928
2840.99106
2910.41805
2500.9783
2424.06285
2800.4989
2869.14908
2489.46061
2413.49611
2760.46382
2829.48234
2478.27244
2401.53495
2720.76478
2792.0286
2466.04866
2390.16759
2683.45298
2755.27571
2453.6152
2379.05073
2647.76939
2720.0958
2441.71383
2368.20148
2613.53157
2686.74127
2430.35449
2357.72974
2581.08013
2655.31867
2419.49152
2347.73491
2550.55392
2625.85747
2409.19012
2338.30071
2521.98209
2598.33127
2399.44588
2329.51128
2495.37598
2572.65296
2390.13665
2321.52748
2470.81618
2548.5914
2380.95038
2314.72795
2448.50266
2525.85046
2371.43439
2309.98333
2428.88565
2503.49239
2360.31246
2311.24412
2413.05511
2475.18367
2346.96016
2338.73054
2402.95621
2419.66135
2332.46747
2388.0703
2394.92319
2323.60751
2319.21421
2405.56961
2389.57378
2304.94819
2309.43753
2406.13227
2385.30532
2294.92309
2302.03968
2398.57688
2377.42627
2290.34425
2297.11774
2387.95984
2368.3506
2287.45388
2293.4742
2376.73864
2359.10777
2285.46351
2290.68362
2365.73936
2350.17251
2284.02397
2288.46178
2355.31259
2341.75404
2282.96536
2286.64432
2345.58958
2333.9235
2282.56939
2285.43557
2336.50823
2326.74525
2283.30023
2285.51174
2328.00096
2318.92364
2303.16834
2299.89824
2314.91499
2308.96474
2306.65085
2302.36267
2304.17478
2300.39363
2300.57389
2297.41987
2297.10616
2294.48339
2293.69372
2291.53748
2290.41747
2288.695
2287.34189
2285.89327
2284.53931
2283.3671
2282.08658
2281.17816
2279.47158
2278.37467
2277.02251
2276.22164
2275.43283
2274.93018
2274.52999
2274.27316
2274.10346
2274.00111
2273.94433
2273.9144
2273.90099
2273.89551
2273.89396
2273.8938
2273.89402
2273.89428
2273.89445
2273.89454
2273.89458
2273.8946
2273.89461
2273.89461
2273.89461
2273.89461
2273.89461
2273.89461
2273.89461
2273.89461
2273.89461
2273.89461
2273.89461
2273.89461
2273.89461
2273.89461
2273.89461
2273.89461
2273.89461
2273.89461
2273.89461
2273.89461
2273.89461
2273.89461
2273.89461
2273.89461
2273.89461
2273.89461
2273.89461
2273.89461
2273.89461
2273.89461
2273.89461
2273.89461
2273.89461
)
;

boundaryField
{
    closed
    {
        type            lookUpEnthalpy;
        h0              nonuniform List<scalar> 0();
        value           nonuniform List<scalar> 0();
    }
    open
    {
        type            zeroGradient;
    }
    sides
    {
        type            empty;
    }
    procBoundary5to4
    {
        type            processor;
        value           uniform -192335.674;
    }
}


// ************************************************************************* //
