/*--------------------------------*- C++ -*----------------------------------*\
| =========                 |                                                 |
| \\      /  F ield         | OpenFOAM: The Open Source CFD Toolbox           |
|  \\    /   O peration     | Version:  2306                                  |
|   \\  /    A nd           | Website:  www.openfoam.com                      |
|    \\/     M anipulation  |                                                 |
\*---------------------------------------------------------------------------*/
FoamFile
{
    version     2.0;
    format      ascii;
    arch        "LSB;label=32;scalar=64";
    class       volScalarField;
    location    "0.00078";
    object      prefDh_H2;
}
// * * * * * * * * * * * * * * * * * * * * * * * * * * * * * * * * * * * * * //

dimensions      [1 1 -3 0 0 0 0];

internalField   nonuniform List<scalar> 
530
(
2918.83376
2965.9605
2966.63344
2938.73032
2943.05864
2988.96627
2987.9052
2972.48982
2964.5397
2986.03096
3009.14698
3008.02344
2983.52495
2985.64033
3027.0774
3027.22346
3001.03896
3002.85962
3044.59975
3041.63187
3016.47365
3018.70946
3059.10457
3056.19657
3031.08759
3033.18969
3071.43223
3070.07471
3045.27434
3046.77205
3083.50567
3082.78261
3057.63373
3059.89508
3094.21141
3094.3003
3069.18923
3071.65515
3105.08562
3105.28391
3080.73302
3083.23392
3115.73815
3116.18114
3092.3812
3094.89711
3126.62791
3127.25701
3104.10753
3106.77907
3137.98837
3138.78146
3116.07694
3118.9731
3150.19411
3150.7935
3128.60067
3131.39782
3162.79209
3163.49174
3142.02914
3144.70469
3175.897
3176.69778
3155.7768
3158.52612
3189.45738
3190.26143
3169.88054
3172.68138
3203.42648
3204.09057
3184.39199
3187.30639
3217.90102
3218.50664
3199.33781
3202.43561
3233.43098
3233.58424
3215.10654
3217.95251
3249.48538
3249.70188
3231.83635
3235.18996
3265.82464
3266.61511
3248.78946
3252.76216
3282.55582
3283.93452
3266.45214
3270.376
3300.033
3301.60087
3284.6308
3288.3675
3317.88646
3319.4251
3303.00005
3306.59998
3335.62978
3337.02806
3321.00427
3324.39222
3353.4702
3354.43665
3339.53385
3342.29892
3371.46355
3372.1672
3358.03811
3360.71705
3389.79768
3390.46496
3376.81309
3379.4306
3408.33134
3408.978
3395.77477
3398.29096
3426.58433
3427.39072
3414.41716
3417.05427
3444.15023
3445.17401
3432.35987
3435.12643
3461.5026
3462.75287
3450.201
3453.05765
3478.6317
3480.16669
3467.82683
3470.81208
3495.58714
3497.30133
3485.18183
3488.31747
3512.30302
3514.0329
3502.22567
3505.49711
3528.99035
3530.4733
3519.12079
3522.3239
3545.57391
3547.14401
3536.15938
3539.4419
3561.87491
3563.39646
3552.77935
3556.17639
3577.85528
3579.35236
3568.90719
3572.43187
3593.35076
3594.9714
3584.45929
3588.15066
3608.24684
3610.05737
3599.36465
3603.23569
3622.36649
3624.52787
3613.55515
3617.67486
3635.63568
3638.40321
3627.16698
3631.47679
3647.89462
3651.15168
3639.88968
3644.92372
3659.72063
3663.79475
3652.43414
3657.78171
3671.53328
3676.29457
3664.69751
3670.53684
3683.14409
3688.62295
3676.59133
3682.91653
3694.54705
3700.34788
3688.11016
3694.80237
3705.70282
3711.3579
3699.23218
3705.93042
3716.58311
3721.78699
3709.93001
3716.42691
3727.17304
3731.70641
3720.19423
3726.51191
3737.57028
3741.63278
3730.25554
3735.88654
3747.52099
3750.72872
3739.65441
3745.04199
3756.44146
3759.32854
3748.51765
3753.57848
3764.57691
3767.16348
3756.70328
3761.57449
3772.09807
3774.34361
3764.26078
3768.97008
3779.08201
3781.03031
3771.2574
3775.84533
3785.58619
3787.26351
3777.77321
3782.2482
3791.66222
3793.08111
3783.86271
3788.24319
3797.35402
3798.5017
3789.56422
3793.8548
3802.34576
3803.53508
3794.93643
3799.0934
3806.94637
3808.20207
3799.9487
3803.95662
3811.21279
3812.53621
3804.63021
3808.47637
3815.20408
3816.54185
3809.06213
3812.61223
3819.04318
3820.18731
3813.41846
3816.23803
3822.98797
3823.67923
3818.30187
3819.49509
3826.43468
3826.6732
3822.37159
3822.7205
3829.50161
3829.45278
3825.85113
3825.7976
3832.20249
3831.99369
3828.90754
3828.60686
3834.60277
3834.29177
3831.60931
3831.14847
3836.73892
3836.36006
3834.00001
3833.43825
3838.63781
3838.21563
3836.11799
3835.49334
3840.32442
3839.87483
3837.9932
3837.33475
3841.82117
3841.35377
3839.65634
3838.97878
3843.14776
3842.66843
3841.13189
3840.44339
3844.3217
3843.83409
3842.44073
3841.74591
3845.35865
3844.86524
3843.60103
3842.9026
3846.27272
3845.77536
3844.6288
3843.92848
3847.07668
3846.57697
3845.53823
3844.83736
3847.78215
3847.28158
3846.34201
3845.64185
3848.39971
3847.89977
3847.05155
3846.35351
3848.93901
3848.4412
3847.67715
3846.98286
3849.40884
3848.91469
3848.22812
3847.53954
3849.81748
3849.32812
3848.71361
3848.0318
3850.17281
3849.68838
3849.14251
3848.46668
3850.48428
3849.99957
3849.52864
3848.84521
3850.75688
3850.26882
3849.87057
3849.18085
3850.99498
3850.50182
3850.17852
3849.47393
3851.2083
3850.69787
3850.45791
3849.7281
3851.3871
3850.87409
3850.69819
3849.96087
3851.54011
3851.02868
3850.91132
3850.16888
3851.67377
3851.16316
3851.10251
3850.35388
3851.7899
3851.27983
3851.27291
3850.51818
3851.88994
3851.38093
3851.42441
3850.66412
3851.97577
3851.46859
3851.55889
3850.79405
3852.04872
3851.54498
3851.67763
3850.91067
3852.10921
3851.613
3851.78055
3851.01832
3852.15588
3851.678
3851.86579
3851.12351
3852.18574
3851.74976
3851.92867
3851.24062
3852.19004
3851.86127
3851.95931
3851.43121
3852.16503
3852.13297
3851.94631
3851.83809
3852.12142
3852.02033
3851.92493
3852.15477
3852.08095
3851.78375
3851.89276
3852.05283
3852.05911
3851.70983
3851.86221
3852.01996
3852.05117
3851.71282
3851.86921
3852.02754
3852.05808
3851.74671
3851.89103
3852.04348
3852.07041
3851.79006
3851.91903
3852.06194
3852.08475
3851.83569
3851.94886
3852.08066
3852.09938
3851.88061
3851.97841
3852.09884
3852.11382
3851.92412
3852.00742
3852.11918
3852.13042
3851.96956
3852.03841
3852.14824
3852.15634
3852.02626
3852.08831
3852.22269
3852.24463
3852.11757
3852.15666
3852.16201
3852.18771
3852.16375
3852.18431
3852.17292
3852.18811
3852.18081
3852.19183
3852.18841
3852.19622
3852.1956
3852.20103
3852.20238
3852.20615
3852.20891
3852.2114
3852.21509
3852.21677
3852.21309
3852.20847
3852.20194
3852.19839
3852.19435
3852.19194
3852.18972
3852.18835
3852.1873
3852.18665
3852.18623
3852.18599
3852.18585
3852.18578
3852.18574
3852.18572
3852.18571
3852.18571
3852.18571
3852.18571
3852.18571
3852.18571
3852.18571
3852.18571
3852.18571
3852.18571
3852.18571
3852.18571
3852.18571
3852.18571
3852.18571
3852.18571
3852.18571
3852.18571
3852.18571
3852.18571
3852.18571
3852.18571
3852.18571
3852.18571
3852.18571
3852.18571
3852.18571
3852.18571
3852.18571
3852.18571
3852.18571
3852.18571
3852.18571
3852.18571
3852.18571
3852.18571
3852.18571
3852.18571
3852.18571
)
;

boundaryField
{
    closed
    {
        type            calculated;
        value           nonuniform List<scalar> 0();
    }
    open
    {
        type            calculated;
        value           uniform 3852.18571;
    }
    sides
    {
        type            empty;
    }
    procBoundary5to4
    {
        type            processor;
        value           uniform 2915.29134;
    }
}


// ************************************************************************* //
