/*--------------------------------*- C++ -*----------------------------------*\
| =========                 |                                                 |
| \\      /  F ield         | OpenFOAM: The Open Source CFD Toolbox           |
|  \\    /   O peration     | Version:  2306                                  |
|   \\  /    A nd           | Website:  www.openfoam.com                      |
|    \\/     M anipulation  |                                                 |
\*---------------------------------------------------------------------------*/
FoamFile
{
    version     2.0;
    format      ascii;
    arch        "LSB;label=32;scalar=64";
    class       volScalarField;
    location    "0.00102";
    object      h;
}
// * * * * * * * * * * * * * * * * * * * * * * * * * * * * * * * * * * * * * //

dimensions      [0 2 -2 0 0 0 0];

internalField   nonuniform List<scalar> 
531
(
9309.67889
-1428.26088
-5642.93683
-2332.29475
8162.70302
9921.7953
9883.241
8701.84821
-2304.55017
-5962.19488
-4671.47104
-2807.14528
6245.62047
9545.00485
24.3734122
-3757.77087
5478.55635
9522.67976
326.787906
-3421.98792
6074.83988
9326.19252
-580.684345
-4997.57892
-2363.85183
7648.68407
9716.82657
659.34866
-2741.5798
6378.19186
9480.55845
-30.3268791
-4658.06589
-1873.04654
8680.11926
9500.07769
-319.402566
-4436.67934
-1383.50091
8011.54458
10496.8049
8908.07298
-190.926627
-4648.92778
-4032.73859
-1868.89288
7087.5856
9243.90879
-1141.15427
-5257.16945
-2638.92838
6263.40108
10367.62
8741.1704
-1483.70806
-5840.75984
-3409.51772
6465.02836
9256.47762
-38.2947407
-3904.51329
5169.71031
9276.40054
153.804014
-3677.81908
5221.39582
9306.09728
262.752359
-3466.01571
5411.00645
9346.92787
404.124988
-3261.08863
5831.96317
9113.37815
-554.912946
-5024.79506
-2591.00465
7130.82391
9147.02908
-483.061078
-4937.89725
-2597.682
7008.58462
9148.32871
-373.459383
-4905.52919
-2002.50101
7729.55916
10007.9805
10002.8065
8731.44127
-799.298179
-5324.77981
-4345.45107
-3904.22625
-2790.9577
6142.55913
9281.99614
619.686867
-3597.41967
4728.145
9241.09522
804.991453
-3436.44994
4768.01787
9284.30209
1006.9946
-3166.77588
4960.01466
9343.23333
1215.56261
-2900.43805
5325.22305
9157.49446
404.512254
-4556.23119
-2440.77638
6598.27713
9187.68163
551.081352
-4440.84769
-2472.61459
6493.73846
9162.75484
542.737871
-4518.34509
-2582.59073
6062.21787
9411.128
1787.42155
-2603.42922
4873.9249
9479.42944
2011.17294
-2361.11301
5039.04558
9276.04181
1090.57267
-4141.23947
-3689.09375
-1621.47224
5947.37019
9184.79816
817.734865
-4537.91018
-2714.57333
5762.11448
9332.28897
1934.40945
-2686.47936
4738.39129
9201.11599
1277.31112
-4344.12346
-2513.12527
5810.87366
9427.38026
2363.11593
-2337.75869
4685.45828
9311.03415
1669.6383
-4094.11757
-3643.30784
-1584.76858
5340.53417
9447.96643
2361.50828
-2509.18681
4492.06235
9248.27575
1691.30255
-4217.65088
-2588.49705
5552.17795
9253.67277
1876.59354
-4275.12355
-2724.11114
5348.99994
9210.14825
1782.22172
-4508.78029
-3080.64578
4952.76409
9152.02847
1748.54634
-4792.25424
-3087.81067
5491.38226
10090.7252
9963.79609
9026.87295
1674.34705
-5382.02004
-4948.9014
-3912.82536
-3044.23207
4763.68645
10362.4317
10224.284
9889.87806
9393.85654
2646.9991
-4546.06018
-4191.02531
-2315.1406
3505.28355
9593.90565
3329.36174
-4392.82102
-3597.0556
3561.87178
9586.63148
3708.30335
-4292.15314
-3563.94918
3458.76184
9657.93368
3996.27514
-4251.15251
-3580.47248
3125.20843
9836.76233
4835.06902
-2882.37142
2035.77834
9887.24522
4745.72632
-3967.09655
-3337.3145
3180.81126
9903.92098
4960.38594
-3881.30507
-3445.17528
2778.3467
9889.29839
5203.50576
-4707.27419
-4460.2389
-3450.4819
1597.65546
9773.67673
5053.40028
-4415.31113
1224.24811
10155.4661
10248.103
9682.791
9776.07687
4879.47572
-6048.99951
-5771.66683
-4262.85808
269.597068
9753.67121
5425.23791
-5834.79526
-5589.1293
233.448763
9839.06686
6269.81383
-4211.25766
-225.090918
10498.2327
10270.7804
6611.36866
-4680.40652
-4560.42774
910.861608
10073.6467
6933.70801
-4523.14305
-4414.10183
709.911574
10454.55
10356.845
7441.31693
-5308.89527
-5154.85476
-4111.72783
-4514.27988
519.87343
10166.9246
9965.33903
10064.549
7230.72385
-5064.82118
-5006.8228
-158.617066
10091.2961
7686.4743
-4910.52205
-4896.82033
-235.160262
10484.1597
10438.1957
8020.17836
-4582.5517
-4536.62699
106.401351
10637.1636
10574.257
8528.26841
-4067.26137
-3970.47983
-3053.00076
-367.358042
10307.8349
8155.41536
-4738.47446
-4704.63569
-4077.37461
-289.472493
10266.8137
10012.661
10206.8393
8090.59076
-4859.31739
-4869.67859
-4087.79453
-1290.51226
10132.0939
8505.16856
-5849.56027
-5758.86186
-1101.15124
10107.886
10000.2015
10156.9664
8449.01896
-5030.88171
-5010.04506
-4191.40777
-1806.06201
10178.4926
8486.01185
-4768.15008
-1849.49329
10063.5371
10423.1281
8917.58337
-5516.30664
-5808.15722
-1733.56848
10037.4604
9114.74518
-5749.47023
-5749.87137
-1449.90766
10092.2939
10073.5954
10152.623
9096.03282
-5577.96096
-5848.59893
-4534.56232
-5625.3447
-1958.36923
10040.2765
9985.78437
10092.1482
9094.49974
-5524.73886
-5821.06702
-2327.87184
10399.1928
10389.1471
9359.0269
-5144.82695
-5359.93144
-2075.24926
10147.4487
9108.41393
-4045.06057
-2754.69844
10194.0361
9183.98406
-5270.73304
-5469.82936
-5468.54209
-3275.39393
9662.28275
8670.12888
-7375.53663
-8298.63781
-3889.47735
8422.28495
8388.93924
7748.97303
7763.57112
6805.92199
7096.66313
4968.31992
-8165.90582
-6556.96149
5568.99623
4768.20872
4609.76827
4315.60731
3940.24082
3837.84471
3541.68454
3538.17627
3408.44367
3614.06951
3897.97716
4875.29402
5950.69879
6015.93903
5942.84067
5899.93172
5698.31381
5437.75322
5055.96487
4555.88701
3984.08633
3685.56208
4258.77727
5374.01676
5442.65454
5095.11165
4706.97922
3773.03947
2870.29809
1246.99579
-199.085649
-2349.53212
-3829.58637
-7146.78752
-5962.70541
3485.28352
3581.54826
125.159897
-983.272586
-4013.00494
-6429.09826
-10148.4251
-14529.7397
-18521.7154
-22385.8173
-25135.3441
-28655.4247
-32398.7735
-36390.9367
-42289.652
-45434.4044
-45191.6514
-48388.3552
-61417.4561
-66707.8442
-74302.7169
-78785.336
-84680.6266
-88818.8589
-92907.6298
-97465.3053
-101860.799
-105925.416
-109872.532
-113387.601
-116935.508
-120035.546
-123195.525
-126160.237
-129572.293
-133242.192
-135342.028
-138173.264
-144515.279
-148867.349
-146363.708
-148413.926
-161987.158
-165892.101
-157971.332
-159140.175
-178474.488
-182202.084
-173292.845
-174432.763
-188106.742
-190749.963
-188390.51
-189795.151
-196979.21
-198626.186
-202460.244
-203206.89
-212005.284
-215715.095
-213045.797
-208519.085
-236427.847
-246397.067
-205822.588
-191373.356
-269557.522
-278048.093
-203796.903
-196635.223
-293449.437
-288462.974
-221892.748
-210453.382
-288553.114
-278665.912
-228268.496
-213288.984
-276443.803
-268863.282
-226970.159
-213727.755
-263286.116
-259591.412
-221793.874
-210746.901
-241856.812
-250804.059
-228556.199
-208778.529
-224037.64
-243475.96
-239886.057
-207229.394
-216220.074
-236590.731
-235789.295
-205106.752
)
;

boundaryField
{
    closed
    {
        type            lookUpEnthalpy;
        h0              nonuniform List<scalar> 0();
        value           nonuniform List<scalar> 0();
    }
    open
    {
        type            zeroGradient;
    }
    sides
    {
        type            empty;
    }
    procBoundary4to3
    {
        type            processor;
        value           uniform 8300.8922;
    }
    procBoundary4to5
    {
        type            processor;
        value           uniform -209272.129;
    }
}


// ************************************************************************* //
