/*--------------------------------*- C++ -*----------------------------------*\
| =========                 |                                                 |
| \\      /  F ield         | OpenFOAM: The Open Source CFD Toolbox           |
|  \\    /   O peration     | Version:  2306                                  |
|   \\  /    A nd           | Website:  www.openfoam.com                      |
|    \\/     M anipulation  |                                                 |
\*---------------------------------------------------------------------------*/
FoamFile
{
    version     2.0;
    format      ascii;
    arch        "LSB;label=32;scalar=64";
    class       volScalarField;
    location    "0.00102";
    object      prefDZ_H2O;
}
// * * * * * * * * * * * * * * * * * * * * * * * * * * * * * * * * * * * * * //

dimensions      [1 -1 -1 0 0 0 0];

internalField   nonuniform List<scalar> 
531
(
-7.76467788e-07
-7.4093159e-07
-7.34444044e-07
-7.38726889e-07
-7.79129933e-07
-7.75053176e-07
-7.75084222e-07
-7.77888936e-07
-7.38780862e-07
-7.33687575e-07
-7.35336727e-07
-7.38348541e-07
-7.69726306e-07
-7.75707054e-07
-7.44742545e-07
-7.36916982e-07
-7.65666059e-07
-7.7582207e-07
-7.45583247e-07
-7.37498099e-07
-7.6850829e-07
-7.76471391e-07
-7.43059849e-07
-7.35369014e-07
-7.3869135e-07
-7.76380001e-07
-7.75378191e-07
-7.46399821e-07
-7.3857658e-07
-7.69681942e-07
-7.76233043e-07
-7.44544884e-07
-7.35996749e-07
-7.39863715e-07
-7.78244802e-07
-7.76098771e-07
-7.43727703e-07
-7.36348288e-07
-7.40999243e-07
-7.762745e-07
-7.73117554e-07
-7.78046604e-07
-7.44204613e-07
-7.35769655e-07
-7.36457588e-07
-7.39957439e-07
-7.7426084e-07
-7.76553597e-07
-7.41607426e-07
-7.34802529e-07
-7.37983546e-07
-7.67541935e-07
-7.73196284e-07
-7.78095046e-07
-7.40719885e-07
-7.33929632e-07
-7.37071021e-07
-7.70255177e-07
-7.76427853e-07
-7.44604424e-07
-7.36784182e-07
-7.64314471e-07
-7.76540254e-07
-7.45198663e-07
-7.37128251e-07
-7.64377022e-07
-7.76467945e-07
-7.45474314e-07
-7.37441986e-07
-7.64961408e-07
-7.76407875e-07
-7.45827622e-07
-7.37807299e-07
-7.66840339e-07
-7.77132174e-07
-7.43133135e-07
-7.35287215e-07
-7.38500869e-07
-7.73235599e-07
-7.77046126e-07
-7.43321374e-07
-7.35441608e-07
-7.38460095e-07
-7.72384008e-07
-7.77023255e-07
-7.43628581e-07
-7.35536306e-07
-7.39521261e-07
-7.75190153e-07
-7.75035104e-07
-7.74840303e-07
-7.78221836e-07
-7.42501166e-07
-7.34721231e-07
-7.35810165e-07
-7.36821158e-07
-7.38241866e-07
-7.68264118e-07
-7.76546283e-07
-7.46663714e-07
-7.37215333e-07
-7.61903676e-07
-7.76671695e-07
-7.47294421e-07
-7.3743385e-07
-7.6189772e-07
-7.76558396e-07
-7.47878429e-07
-7.37815186e-07
-7.62457044e-07
-7.76433648e-07
-7.48459199e-07
-7.38239698e-07
-7.63944486e-07
-7.77043229e-07
-7.45914435e-07
-7.35893815e-07
-7.38713884e-07
-7.70129464e-07
-7.77045924e-07
-7.46411162e-07
-7.36108149e-07
-7.3859754e-07
-7.6936659e-07
-7.77030038e-07
-7.46394915e-07
-7.35907323e-07
-7.38422029e-07
-7.67235472e-07
-7.76313499e-07
-7.50547636e-07
-7.38636676e-07
-7.6166517e-07
-7.7616016e-07
-7.51265121e-07
-7.38981904e-07
-7.6234738e-07
-7.76746452e-07
-7.48218945e-07
-7.36315075e-07
-7.37005258e-07
-7.40459376e-07
-7.66539388e-07
-7.76906558e-07
-7.47386265e-07
-7.35764916e-07
-7.38228478e-07
-7.65850305e-07
-7.76547226e-07
-7.51272729e-07
-7.38481249e-07
-7.61090086e-07
-7.7697329e-07
-7.48940809e-07
-7.36094832e-07
-7.38583539e-07
-7.65722708e-07
-7.76408811e-07
-7.52774591e-07
-7.39033952e-07
-7.60570176e-07
-7.76760194e-07
-7.50351146e-07
-7.36393396e-07
-7.37084389e-07
-7.4054344e-07
-7.63314652e-07
-7.76212169e-07
-7.52852142e-07
-7.38653448e-07
-7.5968043e-07
-7.76868543e-07
-7.5038328e-07
-7.36246345e-07
-7.38569843e-07
-7.64490541e-07
-7.77008372e-07
-7.51228047e-07
-7.36214555e-07
-7.38343989e-07
-7.63431759e-07
-7.7706998e-07
-7.50896816e-07
-7.35794538e-07
-7.37829037e-07
-7.61957594e-07
-7.77176645e-07
-7.51024511e-07
-7.35326271e-07
-7.37641787e-07
-7.63921132e-07
-7.74600346e-07
-7.74738571e-07
-7.77551245e-07
-7.50759845e-07
-7.34385688e-07
-7.34946042e-07
-7.3647363e-07
-7.37631189e-07
-7.61045882e-07
-7.73794195e-07
-7.74174527e-07
-7.74916071e-07
-7.76502551e-07
-7.54406176e-07
-7.35670236e-07
-7.362766e-07
-7.38834376e-07
-7.5564946e-07
-7.7583078e-07
-7.57134758e-07
-7.35853557e-07
-7.37217238e-07
-7.56072122e-07
-7.76039339e-07
-7.58962534e-07
-7.3608417e-07
-7.37250632e-07
-7.55476271e-07
-7.75798523e-07
-7.60018124e-07
-7.36113934e-07
-7.37284962e-07
-7.5427611e-07
-7.75322411e-07
-7.64102796e-07
-7.38162114e-07
-7.50288348e-07
-7.75143658e-07
-7.63017621e-07
-7.36570855e-07
-7.37732163e-07
-7.54297984e-07
-7.75261518e-07
-7.64035941e-07
-7.36738164e-07
-7.37621705e-07
-7.52897807e-07
-7.75318294e-07
-7.65850823e-07
-7.35538212e-07
-7.3599894e-07
-7.37303455e-07
-7.49162763e-07
-7.75229668e-07
-7.66144953e-07
-7.35742582e-07
-7.48070039e-07
-7.74226821e-07
-7.74060959e-07
-7.75590176e-07
-7.75435465e-07
-7.64586348e-07
-7.33399625e-07
-7.3388436e-07
-7.36093577e-07
-7.45306424e-07
-7.7527533e-07
-7.67170627e-07
-7.33609644e-07
-7.34295657e-07
-7.45236663e-07
-7.75197194e-07
-7.72196043e-07
-7.36184884e-07
-7.43936055e-07
-7.7349887e-07
-7.74168607e-07
-7.72561436e-07
-7.35473494e-07
-7.35908938e-07
-7.47041046e-07
-7.74665776e-07
-7.73980675e-07
-7.35663e-07
-7.36097742e-07
-7.46579175e-07
-7.738856e-07
-7.73860081e-07
-7.76898676e-07
-7.34506324e-07
-7.34886034e-07
-7.36162893e-07
-7.35672377e-07
-7.46130288e-07
-7.74161322e-07
-7.74942398e-07
-7.7450252e-07
-7.76120344e-07
-7.34812027e-07
-7.3521015e-07
-7.44133932e-07
-7.74512725e-07
-7.78370663e-07
-7.35018368e-07
-7.35302911e-07
-7.43970309e-07
-7.73689347e-07
-7.73540745e-07
-7.79920788e-07
-7.35526065e-07
-7.35840446e-07
-7.44876513e-07
-7.73310984e-07
-7.73345996e-07
-7.78805959e-07
-7.36450271e-07
-7.36701373e-07
-7.37913997e-07
-7.43566632e-07
-7.73866332e-07
-7.79760918e-07
-7.35294479e-07
-7.35603294e-07
-7.36254637e-07
-7.4379524e-07
-7.73882506e-07
-7.74995598e-07
-7.74149685e-07
-7.80073386e-07
-7.35155474e-07
-7.35412258e-07
-7.36316754e-07
-7.4129636e-07
-7.74191399e-07
-7.78760273e-07
-7.33515764e-07
-7.33996489e-07
-7.41711974e-07
-7.74471663e-07
-7.74793759e-07
-7.74455661e-07
-7.78892585e-07
-7.35031678e-07
-7.35123153e-07
-7.36285576e-07
-7.4008113e-07
-7.74196424e-07
-7.78558278e-07
-7.35300321e-07
-7.40000649e-07
-7.7444197e-07
-7.73764603e-07
-7.77339036e-07
-7.34213692e-07
-7.33887781e-07
-7.40198726e-07
-7.74638697e-07
-7.76939244e-07
-7.33797216e-07
-7.3387754e-07
-7.40859495e-07
-7.74359636e-07
-7.74458679e-07
-7.74306397e-07
-7.76855202e-07
-7.34072409e-07
-7.33694202e-07
-7.35445337e-07
-7.33919227e-07
-7.39551851e-07
-7.74149883e-07
-7.74264299e-07
-7.74036216e-07
-7.7643352e-07
-7.33861158e-07
-7.3350719e-07
-7.38598996e-07
-7.73051522e-07
-7.72852347e-07
-7.75345943e-07
-7.34112874e-07
-7.33841022e-07
-7.3915001e-07
-7.72851676e-07
-7.75260926e-07
-7.35185579e-07
-7.37319958e-07
-7.71862108e-07
-7.7435081e-07
-7.32747707e-07
-7.32354878e-07
-7.31952019e-07
-7.35773927e-07
-7.70607317e-07
-7.71334824e-07
-7.28204731e-07
-7.26603597e-07
-7.34659988e-07
-7.6675236e-07
-7.64552742e-07
-7.65214054e-07
-7.62218e-07
-7.63779371e-07
-7.59568084e-07
-7.62655568e-07
-7.20771168e-07
-7.30042005e-07
-7.52682844e-07
-7.52110784e-07
-7.4866795e-07
-7.46949256e-07
-7.44345784e-07
-7.42037236e-07
-7.39751004e-07
-7.37243046e-07
-7.35080501e-07
-7.32828413e-07
-7.31058431e-07
-7.3048778e-07
-7.29305706e-07
-7.26327454e-07
-7.2245508e-07
-7.18836178e-07
-7.14339287e-07
-7.10098034e-07
-7.04927488e-07
-6.99991664e-07
-6.94555903e-07
-6.90023623e-07
-6.88367911e-07
-6.86267376e-07
-6.8179564e-07
-6.76369026e-07
-6.69294976e-07
-6.63443255e-07
-6.53576068e-07
-6.47031431e-07
-6.32728011e-07
-6.27313467e-07
-6.1087067e-07
-6.05388458e-07
-5.92369268e-07
-6.15270065e-07
-5.97579146e-07
-5.89219259e-07
-5.70811214e-07
-5.60772707e-07
-5.42150374e-07
-5.29220118e-07
-5.09919243e-07
-4.93667299e-07
-4.81221795e-07
-4.68926595e-07
-4.56748866e-07
-4.43024373e-07
-4.27384236e-07
-3.91880024e-07
-5.29110368e-07
-3.40512827e-07
-2.60643617e-07
-2.54102903e-07
-1.73883058e-07
-1.32267388e-07
-8.12164074e-08
-3.0667105e-08
5.93067443e-08
1.2888956e-07
1.75116254e-07
2.27923442e-07
2.85874195e-07
3.49161359e-07
4.14246314e-07
4.88100085e-07
5.69350526e-07
6.43473914e-07
7.20296405e-07
7.93163159e-07
8.67705834e-07
9.15055973e-07
9.6589254e-07
1.06050129e-06
1.11810331e-06
1.09584793e-06
1.14175886e-06
1.26685714e-06
1.31460771e-06
1.26647358e-06
1.30072342e-06
1.4334764e-06
1.46555027e-06
1.44750161e-06
1.47704948e-06
1.53789411e-06
1.56629205e-06
1.58284842e-06
1.60738539e-06
1.62423243e-06
1.6472485e-06
1.66460535e-06
1.68856899e-06
1.69760458e-06
1.71975658e-06
1.73110334e-06
1.74923401e-06
1.78368684e-06
1.8319395e-06
1.76411552e-06
1.75576893e-06
1.91987399e-06
1.95783119e-06
1.80343455e-06
1.81384562e-06
2.01387776e-06
2.02115717e-06
1.85981829e-06
1.87507151e-06
2.01985246e-06
2.03362489e-06
1.91871691e-06
1.91540782e-06
2.03440761e-06
2.04424972e-06
1.95439325e-06
1.9492357e-06
2.04930308e-06
2.05331828e-06
1.9761533e-06
1.97123777e-06
2.04418348e-06
2.06164812e-06
2.02543451e-06
1.98942102e-06
2.0190763e-06
2.06818423e-06
2.06902225e-06
2.00491615e-06
2.02141519e-06
2.07423624e-06
2.07461575e-06
2.01661795e-06
)
;

boundaryField
{
    closed
    {
        type            calculated;
        value           nonuniform List<scalar> 0();
    }
    open
    {
        type            calculated;
        value           nonuniform List<scalar> 0();
    }
    sides
    {
        type            empty;
    }
    procBoundary4to3
    {
        type            processor;
        value           uniform -7.79418017e-07;
    }
    procBoundary4to5
    {
        type            processor;
        value           uniform 2.02550059e-06;
    }
}


// ************************************************************************* //
