/*--------------------------------*- C++ -*----------------------------------*\
| =========                 |                                                 |
| \\      /  F ield         | OpenFOAM: The Open Source CFD Toolbox           |
|  \\    /   O peration     | Version:  2306                                  |
|   \\  /    A nd           | Website:  www.openfoam.com                      |
|    \\/     M anipulation  |                                                 |
\*---------------------------------------------------------------------------*/
FoamFile
{
    version     2.0;
    format      ascii;
    arch        "LSB;label=32;scalar=64";
    class       volScalarField;
    location    "0.00148";
    object      p;
}
// * * * * * * * * * * * * * * * * * * * * * * * * * * * * * * * * * * * * * //

dimensions      [1 -1 -2 0 0 0 0];

internalField   nonuniform List<scalar> 
530
(
101449.283
101449.529
101449.805
101450.112
101450.453
101450.83
101451.245
101451.7
101452.198
101452.741
101453.334
101453.978
101454.677
101455.436
101456.257
101457.145
101458.104
101459.139
101460.253
101461.452
101462.738
101464.117
101465.59
101467.162
101468.833
101470.605
101472.479
101474.452
101476.522
101478.684
101480.934
101483.263
101485.663
101488.121
101490.625
101493.16
101495.71
101498.257
101500.78
101503.261
101505.676
101508.005
101510.224
101512.311
101514.243
101516
101517.561
101518.907
101520.02
101520.885
101521.489
101521.822
101521.876
101521.646
101521.131
101520.332
101519.254
101517.904
101516.293
101514.433
101512.343
101510.038
101507.542
101504.874
101502.061
101499.125
101496.095
101492.994
101489.851
101486.691
101483.54
101480.422
101477.361
101474.378
101471.496
101468.73
101466.1
101463.618
101461.298
101459.148
101457.177
101455.391
101453.792
101452.381
101451.157
101450.117
101449.256
101448.566
101448.041
101447.669
101447.439
101447.34
101447.358
101447.478
101447.686
101447.968
101448.306
101448.686
101449.092
101449.508
101449.92
101450.311
101450.669
101450.978
101451.227
101451.402
101451.493
101451.489
101451.38
101451.16
101450.82
101450.355
101449.759
101449.03
101448.165
101447.163
101446.024
101444.748
101443.339
101441.799
101440.133
101438.345
101436.441
101434.429
101432.315
101430.108
101427.815
101425.446
101423.01
101420.516
101417.974
101415.393
101412.782
101410.152
101407.511
101404.868
101402.233
101399.612
101397.015
101394.448
101391.918
101389.432
101386.996
101384.614
101382.291
101380.032
101377.839
101375.717
101373.667
101371.69
101369.79
101367.965
101366.218
101364.547
101362.952
101361.433
101359.989
101358.617
101357.317
101356.087
101354.924
101353.826
101352.79
101351.815
101350.898
101350.035
101349.225
101348.464
101347.75
101347.079
101346.45
101345.859
101345.305
101344.783
101344.292
101343.829
101343.392
101342.978
101342.586
101342.212
101341.855
101341.512
101341.182
101340.862
101340.551
101340.246
101339.946
101339.649
101339.353
101339.056
101338.757
101338.453
101338.144
101337.826
101337.499
101337.161
101336.81
101336.445
101336.063
101335.663
101335.244
101334.804
101334.341
101333.854
101333.341
101332.801
101332.234
101331.637
101331.01
101330.352
101329.663
101328.94
101328.185
101327.397
101326.576
101325.722
101324.835
101323.916
101322.967
101321.987
101320.979
101319.945
101318.885
101317.802
101316.698
101315.576
101314.44
101313.29
101312.132
101310.968
101309.802
101308.637
101307.477
101306.326
101305.189
101304.068
101302.969
101301.894
101300.848
101299.835
101298.858
101297.921
101297.029
101296.183
101295.387
101294.644
101293.957
101293.328
101292.76
101292.255
101291.813
101291.437
101291.127
101290.885
101290.711
101290.604
101290.566
101290.596
101290.692
101290.855
101291.083
101291.375
101291.73
101292.144
101292.618
101293.148
101293.732
101294.368
101295.054
101295.786
101296.563
101297.382
101298.24
101299.134
101300.061
101301.02
101302.006
101303.019
101304.055
101305.111
101306.186
101307.276
101308.381
101309.497
101310.623
101311.757
101312.897
101314.042
101315.19
101316.339
101317.489
101318.637
101319.784
101320.929
101322.069
101323.205
101324.337
101325.463
101326.583
101327.696
101328.803
101329.904
101330.997
101332.083
101333.163
101334.235
101335.3
101336.359
101337.41
101338.455
101339.494
101340.526
101341.553
101342.573
101343.588
101344.598
101345.602
101346.601
101347.596
101348.586
101349.572
101350.554
101351.532
101352.506
101353.477
101354.444
101355.408
101356.369
101357.326
101358.28
101359.232
101360.18
101361.126
101362.068
101363.008
101363.945
101364.879
101365.809
101366.737
101367.662
101368.583
101369.502
101370.417
101371.328
101372.236
101373.14
101374.04
101374.936
101375.829
101376.717
101377.6
101378.479
101379.353
101380.223
101381.087
101381.946
101382.8
101383.648
101384.491
101385.327
101386.158
101386.983
101387.801
101388.612
101389.418
101390.216
101391.007
101391.791
101392.568
101393.338
101394.1
101394.855
101395.601
101396.34
101397.071
101397.794
101398.508
101399.214
101399.912
101400.601
101401.281
101401.953
101402.616
101403.27
101403.915
101404.551
101405.177
101405.795
101406.403
101407.002
101407.592
101408.172
101408.743
101409.304
101409.855
101410.397
101410.93
101411.453
101411.966
101412.469
101412.963
101413.447
101413.922
101414.386
101414.841
101415.287
101415.722
101416.148
101416.565
101416.972
101417.369
101417.757
101418.135
101418.503
101418.863
101419.212
101419.553
101419.884
101420.206
101420.519
101420.822
101421.117
101421.402
101421.679
101421.946
101422.205
101422.455
101422.696
101422.929
101423.153
101423.369
101423.576
101423.775
101423.966
101424.149
101424.323
101424.489
101424.648
101424.798
101424.941
101425.075
101425.202
101425.321
101425.433
101425.537
101425.633
101425.721
101425.803
101425.876
101425.942
101426.001
101426.052
101426.096
101426.134
101426.166
101426.189
101426.203
101426.205
101426.191
101426.158
101426.103
101426.02
101425.904
101425.749
101425.546
101425.287
101424.96
101424.555
101424.055
101423.445
101422.706
101421.815
101420.749
101419.479
101417.976
101416.206
101414.131
101411.71
101408.898
101405.642
101401.883
101397.552
101392.576
101386.881
101380.398
101373.088
101364.964
101356.128
101346.827
101337.525
101328.952
101321.998
101317.312
101314.674
101312.658
101309.404
101304.113
101297.574
101290.938
101285.091
101281.505
101281.627
101286.033
101294.896
101307.43
101323.762
101345.92
101373.553
101405.599
101435.206
101467.927
101503.111
101510.448
101476.423
101424.971
101388.196
101383.838
101406.812
101437.767
101456.319
101455.545
101447.55
101446.666
101462.584
101496.346
101527.449
101500.56
101396.607
101329.509
101390.348
)
;

boundaryField
{
    closed
    {
        type            zeroGradient;
    }
    open
    {
        type            waveTransmissive;
        gamma           1.25;
        fieldInf        101325;
        lInf            1;
        value           uniform 101404.68;
    }
    sides
    {
        type            empty;
    }
    procBoundary5to4
    {
        type            processor;
        value           uniform 101449.064;
    }
}


// ************************************************************************* //
