/*--------------------------------*- C++ -*----------------------------------*\
| =========                 |                                                 |
| \\      /  F ield         | OpenFOAM: The Open Source CFD Toolbox           |
|  \\    /   O peration     | Version:  2306                                  |
|   \\  /    A nd           | Website:  www.openfoam.com                      |
|    \\/     M anipulation  |                                                 |
\*---------------------------------------------------------------------------*/
FoamFile
{
    version     2.0;
    format      ascii;
    arch        "LSB;label=32;scalar=64";
    class       volScalarField;
    location    "0.00148";
    object      prefDPV_H2;
}
// * * * * * * * * * * * * * * * * * * * * * * * * * * * * * * * * * * * * * //

dimensions      [1 -1 -1 0 0 0 0];

internalField   nonuniform List<scalar> 
530
(
-9.43344102e-05
-9.43925767e-05
-9.44464239e-05
-9.45024273e-05
-9.45541959e-05
-9.46081968e-05
-9.46580439e-05
-9.47101989e-05
-9.47574697e-05
-9.48052411e-05
-9.48491956e-05
-9.48953445e-05
-9.49377382e-05
-9.49823587e-05
-9.50232753e-05
-9.50664529e-05
-9.51059769e-05
-9.51477911e-05
-9.51860046e-05
-9.52265311e-05
-9.52635138e-05
-9.53028245e-05
-9.5338656e-05
-9.53768178e-05
-9.54115789e-05
-9.54479047e-05
-9.54802915e-05
-9.55149039e-05
-9.5546305e-05
-9.55799457e-05
-9.5610407e-05
-9.56431112e-05
-9.56726701e-05
-9.57044767e-05
-9.57331663e-05
-9.57641152e-05
-9.57928635e-05
-9.58244393e-05
-9.58526567e-05
-9.58833599e-05
-9.59107335e-05
-9.59406072e-05
-9.59671706e-05
-9.59962559e-05
-9.60220427e-05
-9.60503792e-05
-9.60754234e-05
-9.61030488e-05
-9.61273865e-05
-9.61543358e-05
-9.61780097e-05
-9.6203215e-05
-9.6225139e-05
-9.62496558e-05
-9.62709169e-05
-9.62947825e-05
-9.63153978e-05
-9.63386283e-05
-9.6358612e-05
-9.63812248e-05
-9.64005905e-05
-9.64226027e-05
-9.64413637e-05
-9.64627917e-05
-9.64809612e-05
-9.65018207e-05
-9.65194119e-05
-9.65397179e-05
-9.65567437e-05
-9.65765106e-05
-9.65929838e-05
-9.66122255e-05
-9.66281589e-05
-9.6646889e-05
-9.66622951e-05
-9.66805267e-05
-9.66954181e-05
-9.67131639e-05
-9.67275531e-05
-9.67448255e-05
-9.6758725e-05
-9.67755363e-05
-9.67889587e-05
-9.68053206e-05
-9.68182786e-05
-9.68342028e-05
-9.68467092e-05
-9.68622071e-05
-9.68742751e-05
-9.68893578e-05
-9.69010008e-05
-9.69156796e-05
-9.69269109e-05
-9.69411976e-05
-9.69520298e-05
-9.69659388e-05
-9.6976156e-05
-9.69892499e-05
-9.6998924e-05
-9.70116312e-05
-9.70208815e-05
-9.70332061e-05
-9.70420353e-05
-9.70539798e-05
-9.70623924e-05
-9.70739578e-05
-9.70819617e-05
-9.70931463e-05
-9.71007541e-05
-9.71115563e-05
-9.71187816e-05
-9.71292137e-05
-9.71360834e-05
-9.71456987e-05
-9.71523882e-05
-9.71616137e-05
-9.71683324e-05
-9.7176764e-05
-9.71834586e-05
-9.71911648e-05
-9.71978052e-05
-9.72048243e-05
-9.72113823e-05
-9.72177489e-05
-9.72241975e-05
-9.72299425e-05
-9.72362585e-05
-9.7241408e-05
-9.72475737e-05
-9.72521485e-05
-9.72581564e-05
-9.72621696e-05
-9.7267832e-05
-9.7271371e-05
-9.72768968e-05
-9.72799962e-05
-9.72852331e-05
-9.72879013e-05
-9.72928486e-05
-9.7295096e-05
-9.72997487e-05
-9.73015861e-05
-9.73059381e-05
-9.73073759e-05
-9.73114214e-05
-9.73124695e-05
-9.73162034e-05
-9.73168708e-05
-9.73202887e-05
-9.73205838e-05
-9.73236824e-05
-9.73236129e-05
-9.73263894e-05
-9.73259625e-05
-9.73284148e-05
-9.73276371e-05
-9.73297637e-05
-9.73286414e-05
-9.73304413e-05
-9.73289804e-05
-9.7330453e-05
-9.73286588e-05
-9.73298041e-05
-9.7327682e-05
-9.73285005e-05
-9.7326055e-05
-9.73265478e-05
-9.73237834e-05
-9.73239521e-05
-9.73208726e-05
-9.73207198e-05
-9.73173285e-05
-9.73168574e-05
-9.73131568e-05
-9.73123717e-05
-9.73083638e-05
-9.73072698e-05
-9.73029557e-05
-9.73015593e-05
-9.72969391e-05
-9.72952481e-05
-9.72903206e-05
-9.72883444e-05
-9.72831073e-05
-9.72808568e-05
-9.72753065e-05
-9.72727942e-05
-9.72669259e-05
-9.72641658e-05
-9.7257974e-05
-9.72549807e-05
-9.72484599e-05
-9.7245248e-05
-9.7238394e-05
-9.72349768e-05
-9.72277881e-05
-9.72241767e-05
-9.72166555e-05
-9.72128586e-05
-9.72050103e-05
-9.72010335e-05
-9.719291e-05
-9.71888506e-05
-9.71806811e-05
-9.71760469e-05
-9.71678922e-05
-9.7162761e-05
-9.71545824e-05
-9.71489893e-05
-9.71407602e-05
-9.71347372e-05
-9.71264336e-05
-9.71200097e-05
-9.71116119e-05
-9.7104812e-05
-9.70963028e-05
-9.70891499e-05
-9.7080514e-05
-9.70730288e-05
-9.7064253e-05
-9.70564545e-05
-9.70475275e-05
-9.70394325e-05
-9.70303457e-05
-9.70219688e-05
-9.70127158e-05
-9.70040697e-05
-9.6994646e-05
-9.69857419e-05
-9.69761447e-05
-9.69669922e-05
-9.69572202e-05
-9.69478281e-05
-9.69378808e-05
-9.69282569e-05
-9.69181349e-05
-9.69082867e-05
-9.6897991e-05
-9.68879253e-05
-9.68774576e-05
-9.68671809e-05
-9.68565433e-05
-9.68460619e-05
-9.68352567e-05
-9.68245769e-05
-9.68136067e-05
-9.68027345e-05
-9.67916021e-05
-9.67804788e-05
-9.67690172e-05
-9.67576152e-05
-9.67459975e-05
-9.67344211e-05
-9.67226507e-05
-9.67109059e-05
-9.66989865e-05
-9.66870791e-05
-9.66750146e-05
-9.66629504e-05
-9.66507448e-05
-9.66385297e-05
-9.66261871e-05
-9.66138268e-05
-9.66013515e-05
-9.65888516e-05
-9.65762478e-05
-9.65636141e-05
-9.65508864e-05
-9.65381244e-05
-9.65252773e-05
-9.65123927e-05
-9.64994308e-05
-9.64864292e-05
-9.64733572e-05
-9.64602442e-05
-9.64470669e-05
-9.6433848e-05
-9.64205702e-05
-9.64072509e-05
-9.63938778e-05
-9.63804634e-05
-9.63669999e-05
-9.63534959e-05
-9.63399473e-05
-9.63263589e-05
-9.63127303e-05
-9.62990628e-05
-9.62853595e-05
-9.62716292e-05
-9.62578667e-05
-9.62440623e-05
-9.62302218e-05
-9.62163425e-05
-9.62024299e-05
-9.61884812e-05
-9.61745024e-05
-9.616049e-05
-9.61464506e-05
-9.61323803e-05
-9.61182859e-05
-9.61041633e-05
-9.60900197e-05
-9.60758505e-05
-9.60616632e-05
-9.6047453e-05
-9.60332275e-05
-9.6018982e-05
-9.6004724e-05
-9.59904487e-05
-9.59761636e-05
-9.5961864e-05
-9.59475572e-05
-9.59332389e-05
-9.59189158e-05
-9.59045841e-05
-9.58902502e-05
-9.58759103e-05
-9.58615709e-05
-9.58472283e-05
-9.58328886e-05
-9.58185484e-05
-9.58042137e-05
-9.5789881e-05
-9.57755563e-05
-9.57612365e-05
-9.57469267e-05
-9.57326247e-05
-9.57183348e-05
-9.57040558e-05
-9.56897905e-05
-9.56755394e-05
-9.56613034e-05
-9.56470851e-05
-9.5632785e-05
-9.56183964e-05
-9.5604031e-05
-9.55896922e-05
-9.55753796e-05
-9.55610951e-05
-9.55468393e-05
-9.55326134e-05
-9.55184185e-05
-9.55042554e-05
-9.54901253e-05
-9.54760291e-05
-9.54619677e-05
-9.54479424e-05
-9.54339536e-05
-9.5420003e-05
-9.54060906e-05
-9.53922185e-05
-9.53783862e-05
-9.53645962e-05
-9.53508477e-05
-9.53371434e-05
-9.53234822e-05
-9.5309867e-05
-9.52962966e-05
-9.5282774e-05
-9.52692978e-05
-9.5255871e-05
-9.52424921e-05
-9.52291644e-05
-9.52158861e-05
-9.52026605e-05
-9.51894858e-05
-9.51763654e-05
-9.51632973e-05
-9.5150285e-05
-9.51373263e-05
-9.51244248e-05
-9.51115784e-05
-9.50987905e-05
-9.5086059e-05
-9.50733872e-05
-9.50607732e-05
-9.50482201e-05
-9.50357261e-05
-9.50232939e-05
-9.50109223e-05
-9.49986134e-05
-9.49863664e-05
-9.4974183e-05
-9.49620627e-05
-9.49500069e-05
-9.49380155e-05
-9.49260893e-05
-9.49142285e-05
-9.4902434e-05
-9.48907055e-05
-9.48790447e-05
-9.486745e-05
-9.48559248e-05
-9.48444851e-05
-9.48331254e-05
-9.48218306e-05
-9.48106039e-05
-9.47994437e-05
-9.47883519e-05
-9.4777328e-05
-9.47663731e-05
-9.47554869e-05
-9.47446705e-05
-9.47339234e-05
-9.47232471e-05
-9.47126406e-05
-9.47021056e-05
-9.46916409e-05
-9.46812484e-05
-9.46709268e-05
-9.4660678e-05
-9.46505004e-05
-9.46403962e-05
-9.46303637e-05
-9.4620405e-05
-9.46105184e-05
-9.46007059e-05
-9.45909659e-05
-9.45813003e-05
-9.45717075e-05
-9.45621894e-05
-9.45527444e-05
-9.45433741e-05
-9.45340773e-05
-9.45248553e-05
-9.45157068e-05
-9.45066333e-05
-9.44976335e-05
-9.44887086e-05
-9.44798576e-05
-9.44710814e-05
-9.4462379e-05
-9.44537516e-05
-9.44451978e-05
-9.44367189e-05
-9.44283136e-05
-9.4419983e-05
-9.44117259e-05
-9.44035433e-05
-9.43954341e-05
-9.43873991e-05
-9.43794372e-05
-9.43715494e-05
-9.43637345e-05
-9.43559931e-05
-9.43483246e-05
-9.43407291e-05
-9.43331221e-05
-9.4325514e-05
-9.43179802e-05
-9.43105208e-05
-9.4303135e-05
-9.42958155e-05
-9.42883033e-05
-9.42803436e-05
-9.42719164e-05
-9.42630031e-05
-9.42535848e-05
-9.42436442e-05
-9.42331647e-05
-9.42221317e-05
-9.42105325e-05
-9.41983569e-05
-9.41855981e-05
-9.41722528e-05
-9.41583226e-05
-9.41438138e-05
-9.41287397e-05
-9.41131194e-05
-9.40969814e-05
-9.40803613e-05
-9.40633067e-05
-9.4045873e-05
-9.40281304e-05
-9.40101573e-05
-9.39920487e-05
-9.39739071e-05
-9.39558521e-05
-9.39380088e-05
-9.39205171e-05
-9.3903518e-05
-9.38871621e-05
-9.38715933e-05
-9.38569557e-05
-9.38433773e-05
-9.38309724e-05
-9.38198289e-05
-9.38100062e-05
-9.38015291e-05
-9.37943826e-05
-9.37885165e-05
-9.37838388e-05
-9.37802323e-05
-9.37775501e-05
-9.37756394e-05
-9.37743392e-05
-9.37735059e-05
-9.37730075e-05
-9.37727337e-05
-9.37726329e-05
-9.37724597e-05
-9.37723295e-05
-9.37722627e-05
-9.37722337e-05
-9.37722215e-05
-9.37722173e-05
-9.3772216e-05
-9.37722154e-05
-9.37722153e-05
-9.37722152e-05
-9.37722152e-05
-9.37722152e-05
-9.37722152e-05
-9.37722152e-05
-9.37722152e-05
-9.37722152e-05
-9.37722152e-05
-9.37722152e-05
-9.37722152e-05
-9.37722152e-05
-9.37722152e-05
-9.37722152e-05
-9.37722152e-05
-9.37722152e-05
-9.37722152e-05
-9.37722152e-05
-9.37722152e-05
-9.37722152e-05
-9.37722152e-05
-9.37722152e-05
)
;

boundaryField
{
    closed
    {
        type            calculated;
        value           nonuniform List<scalar> 0();
    }
    open
    {
        type            calculated;
        value           uniform -9.37722152e-05;
    }
    sides
    {
        type            empty;
    }
    procBoundary5to4
    {
        type            processor;
        value           uniform -9.42783074e-05;
    }
}


// ************************************************************************* //
