/*--------------------------------*- C++ -*----------------------------------*\
| =========                 |                                                 |
| \\      /  F ield         | OpenFOAM: The Open Source CFD Toolbox           |
|  \\    /   O peration     | Version:  2306                                  |
|   \\  /    A nd           | Website:  www.openfoam.com                      |
|    \\/     M anipulation  |                                                 |
\*---------------------------------------------------------------------------*/
FoamFile
{
    version     2.0;
    format      ascii;
    arch        "LSB;label=32;scalar=64";
    class       volScalarField;
    location    "0.00064";
    object      prefDh_H2O;
}
// * * * * * * * * * * * * * * * * * * * * * * * * * * * * * * * * * * * * * //

dimensions      [1 1 -3 0 0 0 0];

internalField   nonuniform List<scalar> 
530
(
90.2716304
89.8245172
89.818845
89.8195228
89.819574
89.8195747
89.8195748
89.8195748
89.8195748
89.8195748
89.8195748
89.8195748
89.8195748
89.8195748
89.8195748
89.8195748
89.8195748
89.8195748
89.8195748
89.8195748
89.8195748
89.8195748
89.8195748
89.8195748
89.8195748
89.8195748
89.8195748
89.8195748
89.8195748
89.8195748
89.8195748
89.8195748
89.8195748
89.8195748
89.8195748
89.8195748
89.8195748
89.8195748
89.8195748
89.8195748
89.8195748
89.8195748
89.8195748
89.8195748
89.8195748
89.8195748
89.8195748
89.8195748
89.8195748
89.8195748
89.8195748
89.8195748
89.8195748
89.8195748
89.8195748
89.8195748
89.8195748
89.8195748
89.8195748
89.8195748
89.8195748
89.8195748
89.8195748
89.8195748
89.8195748
89.8195748
89.8195748
89.8195748
89.8195748
89.8195748
89.8195748
89.8195748
89.8195748
89.8195748
89.8195747
89.8195749
89.8195753
89.8195711
89.8195719
89.819583
89.8195917
89.8195151
89.8194691
89.8195327
89.8196708
89.8202921
89.8214548
89.8176482
89.7981135
89.7953304
89.9007524
89.971845
89.7680785
89.198729
89.2600445
91.1344244
91.0677203
89.3813247
88.0529762
87.9497915
90.1579687
92.3583347
92.2296015
92.3678304
88.1119504
87.8389017
87.7072765
87.8362708
92.395166
92.2773679
92.3956272
88.4505659
87.8680823
87.7459918
87.7525375
92.3633374
92.423233
92.2984303
92.4068376
88.0964089
87.7150625
88.6903566
92.3360493
92.2483627
88.0126632
87.6358823
89.4764787
92.3560592
90.4990454
87.9092754
88.6552533
92.2803039
92.2351524
88.0453133
87.6831684
90.2202056
92.3555915
89.8448606
87.9170072
88.8406113
92.3338681
92.2374004
87.9284003
87.6462048
91.8444931
92.373817
88.9420068
87.9036855
89.051639
92.3878625
92.2426967
87.8336351
87.5953651
92.8148715
92.3762468
88.1278149
87.8680608
92.6302137
92.3489279
88.7755279
87.9585391
89.1035586
92.3701951
92.2344409
87.8399172
87.6923599
92.344064
92.3442556
88.7533041
88.0022595
88.276715
92.2942875
92.2010258
88.6772169
87.9680579
87.859239
88.2979664
92.4629115
92.2724621
87.7186081
87.5770001
92.5403074
92.3951985
87.9450922
87.8741825
92.4108224
92.3623058
89.0110724
87.9828442
88.276724
92.3766938
92.2549422
88.0106212
87.7645651
92.3615879
92.3502557
88.8118715
87.870993
88.0192526
92.3073271
92.3409136
88.7967027
87.7758175
88.1182631
92.4601069
92.3546702
87.8705938
87.771277
92.5098441
92.3612167
88.0067327
87.861484
92.4988485
92.3373675
87.9958201
87.8633357
92.5080265
92.3409867
87.969848
87.8355342
92.52088
92.3548044
87.9351981
87.7832349
92.5313848
92.3635157
87.9152007
87.7767714
92.5279489
92.3569193
87.92693
87.8178755
92.495105
92.3558917
87.9692798
87.8423458
92.3860663
92.3943403
88.8466945
87.7676161
87.9295011
92.4619255
92.3274801
87.9428918
87.7764449
92.4914655
92.3621754
88.0217758
87.8469102
92.3882979
92.3835169
88.9254502
87.8213761
88.074549
92.4452288
92.2925322
87.9262984
87.7383327
92.4299819
92.3854325
88.7852573
87.8675934
88.3831553
92.4464004
92.2332518
87.9949335
87.8142439
92.5091268
92.2917313
89.820243
88.1221101
87.8392056
87.8115812
92.561951
92.3566484
88.0491192
87.833205
92.5445957
92.382732
90.2031469
87.8375911
87.8684299
92.5544748
92.2770856
92.4053021
88.7581752
87.9491854
87.7705916
87.8103402
92.6112004
92.3892895
89.4530727
87.8870538
87.8958556
92.4409184
92.3209238
89.8359017
87.9032605
87.9082498
92.517414
92.3241712
89.6238122
87.8580778
87.8667217
92.4972122
92.3511291
89.3916529
87.8099998
87.8659895
92.5292783
92.3137738
88.1258681
87.8746389
92.6763222
92.3682381
89.4969038
87.8506076
87.8800478
92.5928373
92.3040557
88.1163006
87.8827314
92.9083379
92.3487912
92.4075348
90.9984389
88.1852691
88.0751828
87.7419894
87.6999124
92.9649719
92.4158625
88.1194665
87.8931984
92.9316361
92.4298547
88.1759204
88.0413499
92.844208
92.3482975
89.6279936
87.8458892
88.0239856
92.6812295
92.6540752
88.0325818
88.1678239
92.6491462
92.5285889
88.0314147
88.1603519
92.6113361
92.2869991
89.272843
87.7970951
88.172082
92.6747572
92.3126411
88.8638747
87.72053
88.5918
92.7420651
89.1620361
87.9350659
92.4460054
92.3575432
92.5731752
88.1763931
87.8171368
88.4840494
92.7024307
92.4054871
88.7643597
87.7198337
88.7520597
92.77516
89.3075507
87.9476144
92.504361
92.4574133
90.8435681
87.935138
87.8463068
92.1627755
92.4470623
89.8195471
87.9708118
88.8498874
92.730541
89.4347829
87.951059
92.0520341
92.4883197
92.0530495
87.8677663
87.7107526
91.6232407
92.5076878
89.3584661
87.9092854
89.2201493
92.6663283
89.272051
87.9382587
92.3240884
92.4348622
88.6654078
87.9831012
92.0231596
92.4847275
91.2906765
87.8368594
87.6837574
91.0695186
92.5256051
88.6655816
87.8481629
91.7001
92.4469949
88.6619927
87.9256961
91.9544611
92.4189853
88.7165313
88.0141881
91.9753833
92.4408653
91.4643611
87.9411379
87.8021268
91.2012544
92.45668
88.8167816
88.015648
91.0555385
92.3352989
92.9178015
89.0326884
87.7345792
87.6963797
91.0061394
92.5088163
91.4353077
87.9193184
87.809536
90.8224825
92.4914575
92.1031715
87.980406
87.8398747
90.7719249
92.4853154
92.2261014
87.9943769
87.8343639
90.6997631
92.3836185
91.9176292
88.3235084
87.8118488
88.091165
92.7869941
92.2195243
92.3687907
89.8396639
87.8194284
87.6737913
89.9791423
92.5476362
91.8841378
87.9192882
87.7434811
90.5014108
92.5018188
89.0886072
87.9934973
91.4245936
92.4282112
91.6082367
87.9733453
87.7937147
90.5147613
92.4842284
89.0351212
87.9247395
91.5860913
92.4110754
88.8696111
88.0113489
91.7119562
92.4092367
91.2678021
87.9472592
87.7770941
90.4354592
92.4896843
88.9877838
87.8853253
91.5144233
92.4218743
88.8046649
87.9835387
91.7968317
92.4117207
91.0411579
87.9418553
87.7834617
90.4275398
92.4887295
88.9750339
87.8799525
91.5333649
92.4259454
88.770162
87.973905
91.8769095
92.4127965
90.9105651
87.9448171
87.7913428
90.4107942
92.4940581
88.986022
87.8464665
91.3125417
92.4392169
88.7722198
87.9038927
91.6092264
92.4201407
)
;

boundaryField
{
    closed
    {
        type            calculated;
        value           uniform 120.149889;
    }
    open
    {
        type            calculated;
        value           nonuniform List<scalar> 0();
    }
    sides
    {
        type            empty;
    }
    procBoundary0to1
    {
        type            processor;
        value           uniform 88.7195336;
    }
}


// ************************************************************************* //
