/*--------------------------------*- C++ -*----------------------------------*\
| =========                 |                                                 |
| \\      /  F ield         | OpenFOAM: The Open Source CFD Toolbox           |
|  \\    /   O peration     | Version:  2306                                  |
|   \\  /    A nd           | Website:  www.openfoam.com                      |
|    \\/     M anipulation  |                                                 |
\*---------------------------------------------------------------------------*/
FoamFile
{
    version     2.0;
    format      ascii;
    arch        "LSB;label=32;scalar=64";
    class       volScalarField;
    location    "0.00064";
    object      T;
}
// * * * * * * * * * * * * * * * * * * * * * * * * * * * * * * * * * * * * * //

dimensions      [0 0 0 1 0 0 0];

internalField   nonuniform List<scalar> 
530
(
337.152066
330.740819
329.5873
329.574588
329.57338
329.573354
329.573353
329.573353
329.573353
329.573353
329.573353
329.573353
329.573353
329.573353
329.573353
329.573353
329.573353
329.573353
329.573353
329.573353
329.573353
329.573353
329.573353
329.573353
329.573353
329.573353
329.573353
329.573353
329.573353
329.573353
329.573353
329.573353
329.573353
329.573353
329.573353
329.573353
329.573353
329.573353
329.573353
329.573353
329.573353
329.573353
329.573353
329.573353
329.573353
329.573353
329.573353
329.573353
329.573353
329.573353
329.573353
329.573353
329.573353
329.573353
329.573353
329.573353
329.573353
329.573353
329.573353
329.573353
329.573353
329.573353
329.573353
329.573353
329.573353
329.573353
329.573353
329.573353
329.573353
329.573353
329.573353
329.573353
329.573353
329.573354
329.573354
329.573359
329.573369
329.573378
329.573422
329.573519
329.573664
329.57388
329.574266
329.575388
329.576834
329.579746
329.585155
329.583742
329.565463
329.571888
329.733066
329.864207
329.592105
329.128402
329.182323
332.268893
332.104688
329.393039
326.454543
325.018353
330.193586
340.163032
340.105947
340.130621
327.216217
323.276544
321.823479
323.242326
340.19953
339.758334
340.025843
329.334228
323.516257
322.379456
321.974736
340.386979
339.748095
340.39905
339.895783
327.299355
321.597215
328.805274
340.0628
340.492435
326.101454
320.923774
329.24573
339.988325
330.798123
324.478238
328.772528
340.205127
340.524151
326.563288
321.59083
330.256765
339.924404
329.672418
324.419944
328.770881
339.917275
340.521849
324.562565
321.125454
334.201277
339.852366
329.054078
324.053756
328.876737
339.641095
340.564197
322.838256
320.54814
337.235103
339.976833
326.493093
323.697873
340.105316
339.696067
329.195959
324.766165
328.986417
339.868516
340.484007
323.653362
321.759549
340.499032
339.991247
328.851148
325.430427
328.944109
339.892867
340.392522
329.409521
325.533036
323.411453
328.957977
339.711262
340.354677
321.579681
320.075344
339.791214
339.823271
324.718552
323.635761
340.390362
339.600931
329.158671
324.970636
329.226688
339.897988
340.16169
325.877813
322.586563
340.427996
340.038927
329.03775
323.85879
325.878708
340.206125
339.80526
329.085397
322.215274
327.278551
339.683748
340.385062
323.577296
322.475083
339.600288
339.86226
325.305345
323.703514
339.683629
339.958832
325.158277
323.760252
339.669142
339.940714
324.789973
323.371825
339.663895
339.918028
324.335726
322.667343
339.690436
339.919274
324.096732
322.595243
339.735597
339.931918
324.348028
323.131238
339.91283
339.878043
325.190355
323.303519
340.20977
339.673694
329.119919
322.044656
324.770244
339.695001
340.141837
324.670262
322.657212
339.896136
339.899243
325.967888
323.360261
340.264961
339.693349
329.016931
322.817402
326.811472
339.816588
340.254872
324.747193
322.148526
340.289333
339.783966
328.887196
323.39739
328.842683
339.608397
340.582051
325.439003
323.363167
339.892491
339.969195
329.927681
327.249435
323.106142
323.105129
339.506613
339.9091
326.294964
323.186702
339.961025
339.647952
330.380332
323.144939
323.593983
339.771767
339.706699
339.73605
329.34008
324.448704
322.4073
322.662604
339.631066
339.616475
329.481947
323.892897
324.10351
339.833416
339.884463
329.859341
324.357052
324.374489
339.657063
339.952791
329.582763
323.795016
323.799607
339.767824
339.86763
329.309832
322.912208
323.936823
339.686956
340.210042
327.476835
323.940762
339.464544
339.769844
329.457961
323.279458
324.063021
339.352949
340.190205
327.015922
324.122941
338.772062
339.722113
339.388127
331.985476
327.647783
326.293969
321.360252
321.332298
338.250392
339.856156
326.866439
323.901176
338.241198
340.091642
327.937963
325.9117
338.576855
339.693797
329.688048
323.25752
325.477071
339.081907
339.81177
326.1208
327.235667
339.072841
336.244488
325.972935
327.521496
339.365358
340.193754
329.145176
322.78285
328.247918
339.259089
340.41488
328.832768
321.545554
328.854894
338.828582
329.248578
324.355372
336.122648
339.83994
336.293163
328.550906
322.133983
328.910155
338.825461
340.252803
328.694325
321.212328
328.698
338.594301
329.286807
324.360724
336.330835
339.387306
331.69317
324.180059
323.215391
335.205348
339.546919
329.937365
324.774312
329.001298
338.787289
329.427992
324.403441
334.871407
339.300769
334.714044
323.511325
321.163352
333.576096
339.495788
329.368858
323.956079
329.054164
339.056713
329.353489
324.465706
335.743719
339.649665
329.53682
324.924405
334.763521
339.252444
332.70163
323.022407
320.880772
332.048264
339.557231
329.237222
323.382332
333.796395
339.797356
329.43302
324.484774
334.555599
339.752505
329.528114
325.452357
334.613246
339.399651
333.124181
324.510579
322.522706
332.404052
339.683477
329.269127
325.669597
332.044404
339.763317
338.141941
329.311953
320.901042
321.135253
331.92531
339.327985
333.051134
324.274508
322.405629
331.470766
339.296361
334.874054
325.176648
322.691702
331.354775
339.294003
335.248711
325.381834
322.854891
331.200021
339.871452
334.337625
328.888917
321.920117
326.964215
339.192894
340.189245
339.3756
329.915529
323.146659
320.896627
329.804457
339.32221
334.260054
324.370108
321.574521
330.745616
339.492338
329.20223
325.119551
333.009799
339.528703
333.499014
325.216363
322.330624
330.777211
339.649889
329.149477
324.429285
333.463201
339.798811
329.299464
325.486649
333.82256
339.614314
332.635691
324.907173
322.177122
330.610074
339.671727
329.069724
323.896622
333.259211
339.787629
329.259052
325.106478
334.072435
339.609895
332.104782
324.806868
322.299923
330.61011
339.653702
329.089549
323.798584
333.312824
339.75467
329.291215
324.953431
334.309604
339.586507
331.819039
324.822719
322.414549
330.586903
339.631086
329.067088
323.352939
332.701442
339.804134
329.16434
324.158417
333.527634
339.757501
)
;

boundaryField
{
    closed
    {
        type            fixedValue;
        value           uniform 400;
    }
    open
    {
        type            zeroGradient;
    }
    sides
    {
        type            empty;
    }
    procBoundary0to1
    {
        type            processor;
        value           uniform 329.316568;
    }
}


// ************************************************************************* //
