/*--------------------------------*- C++ -*----------------------------------*\
| =========                 |                                                 |
| \\      /  F ield         | OpenFOAM: The Open Source CFD Toolbox           |
|  \\    /   O peration     | Version:  2306                                  |
|   \\  /    A nd           | Website:  www.openfoam.com                      |
|    \\/     M anipulation  |                                                 |
\*---------------------------------------------------------------------------*/
FoamFile
{
    version     2.0;
    format      ascii;
    arch        "LSB;label=32;scalar=64";
    class       volScalarField;
    location    "0.00082";
    object      prefDZ_H;
}
// * * * * * * * * * * * * * * * * * * * * * * * * * * * * * * * * * * * * * //

dimensions      [1 -1 -1 0 0 0 0];

internalField   nonuniform List<scalar> 
530
(
0.000377501488
0.000377802142
0.000378055476
0.000378338691
0.000378568294
0.0003788331
0.000379052447
0.000379307662
0.000379517319
0.000379763644
0.000379964085
0.000380202229
0.000380401592
0.000380649945
0.000380835445
0.000381064791
0.00038124105
0.00038146155
0.000381628842
0.000381841017
0.00038199967
0.00038220393
0.00038235436
0.000382551059
0.00038269375
0.000382883164
0.000383018778
0.000383200891
0.000383325636
0.000383487827
0.000383604229
0.000383755401
0.000383865706
0.000384008623
0.000384115285
0.000384252991
0.000384354737
0.000384485575
0.000384584355
0.000384706838
0.000384803706
0.00038491753
0.000385012777
0.000385118274
0.0003852119
0.000385309557
0.000385401508
0.000385491783
0.000385579523
0.000385657298
0.00038573944
0.000385810781
0.000385890302
0.000385955465
0.000386032297
0.000386091587
0.000386165654
0.000386219366
0.000386290602
0.000386339019
0.000386407345
0.000386450819
0.000386515873
0.000386554629
0.000386615867
0.000386650247
0.000386709067
0.00038673933
0.000386795066
0.000386821476
0.000386873983
0.000386896733
0.000386946038
0.000386965522
0.000387011825
0.00038702799
0.000387071146
0.000387083798
0.000387119685
0.000387125963
0.000387158658
0.000387161659
0.00038719117
0.00038719097
0.000387217341
0.000387213998
0.000387237287
0.000387230854
0.000387251124
0.000387241651
0.000387258967
0.000387246504
0.000387260931
0.000387245531
0.000387257133
0.000387238849
0.00038724769
0.000387226577
0.00038723272
0.00038720884
0.000387212344
0.00038718576
0.000387186687
0.000387157466
0.000387155872
0.000387124089
0.00038712003
0.000387085766
0.000387079293
0.000387042634
0.000387033796
0.000386994841
0.000386983679
0.000386942534
0.000386929082
0.000386885871
0.000386870152
0.00038682501
0.000386807039
0.000386760114
0.000386739893
0.000386691343
0.000386668868
0.000386618869
0.000386594128
0.000386542905
0.000386515887
0.000386462254
0.000386431728
0.000386377846
0.000386344635
0.000386289131
0.000386252921
0.000386196907
0.000386157921
0.000386101271
0.000386059763
0.000386002397
0.000385958559
0.000385900424
0.000385854377
0.00038579546
0.000385747297
0.000385687607
0.000385637414
0.000385576963
0.000385524831
0.000385463627
0.000385409653
0.000385347701
0.000385291511
0.000385228251
0.000385170431
0.00038510646
0.000385047127
0.000384982452
0.000384921709
0.000384856339
0.000384794284
0.000384728233
0.000384664961
0.000384598246
0.000384533849
0.000384466489
0.000384401054
0.000384333074
0.000384266685
0.000384198113
0.00038413085
0.000384061716
0.000383993656
0.000383923993
0.000383855209
0.000383785054
0.000383715616
0.000383645006
0.000383574984
0.000383503959
0.000383433419
0.000383362019
0.000383291025
0.000383219294
0.000383147906
0.000383075899
0.000383004123
0.000382931715
0.000382859467
0.000382786674
0.000382714018
0.000382640897
0.000382567898
0.000382494503
0.000382421223
0.00038234761
0.000382274111
0.000382200335
0.000382126677
0.000382052795
0.000381979037
0.000381905103
0.000381831304
0.000381757374
0.000381683591
0.00038160972
0.000381536008
0.000381462252
0.000381388666
0.00038131508
0.000381241673
0.000381168311
0.000381094743
0.000381021033
0.000380947612
0.000380874376
0.000380801445
0.000380728728
0.000380656328
0.000380584172
0.000380512345
0.000380440794
0.00038036958
0.000380298674
0.000380228116
0.000380157899
0.000380088039
0.000380018551
0.000379949788
0.000379881615
0.000379813777
0.000379746349
0.000379679255
0.000379612592
0.000379546262
0.00037948038
0.000379414833
0.00037934975
0.000379285003
0.000379220736
0.000379156805
0.000379093369
0.00037903027
0.000378967678
0.000378905426
0.000378843692
0.000378782299
0.000378721435
0.000378660915
0.000378600932
0.000378541297
0.000378482205
0.000378423466
0.000378365274
0.00037830744
0.000378250157
0.000378193237
0.000378136871
0.000378080872
0.00037802543
0.000377970359
0.000377915847
0.000377861709
0.000377808133
0.000377754932
0.000377702297
0.000377650036
0.000377598345
0.000377547027
0.000377496285
0.000377445911
0.000377396119
0.000377346764
0.000377298325
0.000377250224
0.000377202664
0.000377155459
0.000377108786
0.00037706248
0.000377016699
0.000376971297
0.000376926413
0.000376881917
0.000376837933
0.000376794345
0.000376751263
0.000376708584
0.000376666406
0.000376624635
0.000376583361
0.000376542498
0.000376502127
0.000376462171
0.000376422701
0.000376383649
0.000376345079
0.000376306927
0.000376269254
0.000376231998
0.000376194889
0.000376157498
0.000376120598
0.000376084147
0.000376048172
0.000376012652
0.000375977594
0.000375942995
0.000375908847
0.000375875159
0.000375841911
0.000375809123
0.000375776766
0.000375744868
0.00037571339
0.000375682372
0.000375651764
0.000375621613
0.000375591863
0.000375562569
0.000375533666
0.000375505216
0.000375477148
0.000375449531
0.000375422284
0.000375395487
0.000375369051
0.000375343061
0.000375317422
0.000375292225
0.000375267371
0.000375242954
0.000375218871
0.000375195222
0.000375171896
0.000375149
0.000375126419
0.000375104261
0.000375082411
0.000375060978
0.000375039844
0.000375019121
0.000374998691
0.000374978664
0.000374958922
0.000374939576
0.000374920509
0.00037490183
0.000374883423
0.000374865397
0.000374847635
0.000374830246
0.000374813116
0.00037479635
0.000374779837
0.00037476368
0.000374747769
0.000374732205
0.000374716882
0.000374701897
0.000374687148
0.000374672727
0.000374658538
0.000374644666
0.000374631022
0.000374617685
0.000374604572
0.000374591756
0.00037457916
0.00037456685
0.000374554756
0.000374542939
0.000374531334
0.000374519995
0.000374508865
0.00037449799
0.000374487321
0.000374476897
0.000374466675
0.000374456688
0.0003744469
0.000374437336
0.000374427969
0.000374418816
0.000374409856
0.000374401101
0.000374392536
0.000374384165
0.000374375981
0.000374367983
0.000374360168
0.000374352529
0.000374345071
0.00037433778
0.000374330666
0.000374323711
0.000374316929
0.000374310298
0.000374303837
0.000374297518
0.000374291366
0.000374285348
0.000374279494
0.000374273767
0.000374268199
0.000374262751
0.000374257459
0.000374252281
0.000374247253
0.000374242334
0.000374237561
0.00037423289
0.000374228362
0.000374223931
0.000374219637
0.000374215435
0.000374211366
0.000374207385
0.000374203532
0.000374199762
0.000374196115
0.000374192548
0.000374189099
0.000374185725
0.000374182465
0.000374179278
0.000374176198
0.000374173189
0.000374170282
0.000374167442
0.0003741647
0.000374162023
0.000374159437
0.000374156916
0.00037415448
0.000374152106
0.000374149814
0.000374147581
0.000374145424
0.000374143326
0.000374141298
0.000374139329
0.000374137424
0.000374135576
0.000374133788
0.000374132057
0.00037413038
0.000374128758
0.000374127186
0.00037412567
0.000374124198
0.00037412278
0.000374121403
0.00037412008
0.000374118792
0.000374117557
0.000374116309
0.000374115034
0.000374113708
0.000374112366
0.000374110975
0.000374109583
0.000374108146
0.000374106726
0.000374105269
0.000374103852
0.000374102408
0.000374101029
0.000374099637
0.000374098338
0.000374097042
0.000374095866
0.000374094715
0.000374093703
0.000374092743
0.000374091929
0.000374091201
0.000374090606
0.000374090134
0.000374089766
0.000374089549
0.000374089397
0.000374089403
0.000374089446
0.000374089611
0.00037408981
0.000374090051
0.000374090351
0.000374090628
0.000374090918
0.000374091187
0.000374091542
0.000374091125
0.000374090804
0.000374090629
0.000374090535
0.00037409049
0.000374090469
0.00037409046
0.000374090457
0.000374090456
0.000374090455
0.000374090455
0.000374090455
0.000374090455
0.000374090455
0.000374090455
0.000374090455
0.000374090455
0.000374090455
0.000374090455
0.000374090455
0.000374090455
0.000374090455
0.000374090455
0.000374090455
0.000374090455
0.000374090455
0.000374090455
0.000374090455
0.000374090455
0.000374090455
0.000374090455
0.000374090455
0.000374090455
0.000374090455
0.000374090455
0.000374090455
0.000374090455
0.000374090455
0.000374090455
0.000374090455
0.000374090455
)
;

boundaryField
{
    closed
    {
        type            calculated;
        value           nonuniform List<scalar> 0();
    }
    open
    {
        type            calculated;
        value           uniform 0.000374090455;
    }
    sides
    {
        type            empty;
    }
    procBoundary5to4
    {
        type            processor;
        value           uniform 0.000377235283;
    }
}


// ************************************************************************* //
