/*--------------------------------*- C++ -*----------------------------------*\
| =========                 |                                                 |
| \\      /  F ield         | OpenFOAM: The Open Source CFD Toolbox           |
|  \\    /   O peration     | Version:  2306                                  |
|   \\  /    A nd           | Website:  www.openfoam.com                      |
|    \\/     M anipulation  |                                                 |
\*---------------------------------------------------------------------------*/
FoamFile
{
    version     2.0;
    format      ascii;
    arch        "LSB;label=32;scalar=64";
    class       volScalarField;
    location    "0.00082";
    object      prefDh_H;
}
// * * * * * * * * * * * * * * * * * * * * * * * * * * * * * * * * * * * * * //

dimensions      [1 1 -3 0 0 0 0];

internalField   nonuniform List<scalar> 
530
(
92528.794
92617.6845
92692.562
92776.3315
92844.2307
92922.5864
92987.4567
93062.9841
93124.9914
93197.8968
93257.1788
93327.6711
93386.6722
93460.3054
93515.2561
93583.2744
93635.4851
93700.877
93750.4262
93813.3456
93860.3278
93920.8953
93965.4324
94023.752
94065.9857
94122.1383
94162.2641
94216.244
94253.1596
94301.2691
94335.7138
94380.5253
94413.1397
94455.48
94486.999
94527.7756
94557.8196
94596.5387
94625.6885
94661.9034
94690.4724
94724.093
94752.1661
94783.2918
94810.8671
94839.6445
94866.7048
94893.2697
94919.0672
94941.9117
94966.0272
94986.9412
95010.2539
95029.3125
95051.8017
95069.0953
95090.7381
95106.3543
95127.1307
95141.1534
95161.0403
95173.5733
95192.4651
95203.5737
95221.3123
95231.0903
95248.0995
95256.6137
95272.7015
95280.0283
95295.153
95301.3506
95315.5197
95320.7459
95334.0519
95338.258
95350.6232
95353.7506
95363.9557
95365.1572
95374.4046
95374.5963
95382.8877
95382.0933
95389.4407
95387.679
95394.0989
95391.386
95396.8969
95393.2486
95397.8695
95393.3016
95397.0515
95391.5802
95394.478
95388.12
95390.1845
95382.9575
95384.2071
95376.1296
95376.5822
95367.6743
95367.3476
95357.6304
95356.5414
95346.0379
95344.2031
95332.9381
95330.373
95318.3738
95315.0924
95302.3893
95298.4038
95285.0303
95280.3506
95266.3445
95260.9774
95246.3805
95240.3297
95225.1879
95218.4539
95202.8159
95195.397
95179.3173
95171.2094
95154.7569
95145.9562
95128.7635
95118.8894
95101.6322
95090.9355
95073.185
95061.5664
95043.6719
95031.1999
95013.1221
94999.8756
94981.5897
94967.628
94949.1172
94934.4787
94915.739
94900.4522
94881.4863
94865.5781
94846.3896
94829.8883
94810.4798
94793.4157
94773.7884
94756.1453
94736.2469
94718.1105
94698.0039
94679.4077
94659.095
94640.0703
94619.5546
94600.1319
94579.4171
94559.6257
94538.7169
94518.5851
94497.4886
94477.0434
94455.7664
94435.0337
94413.5846
94392.5892
94370.9773
94349.7428
94327.9782
94306.5275
94284.6211
94262.9761
94240.9393
94219.1211
94196.9661
94174.995
94152.7343
94130.6301
94108.2768
94086.0586
94063.6442
94041.3441
94018.833
93996.3972
93973.7795
93951.228
93928.5202
93905.8723
93883.0911
93860.3661
93837.5282
93814.7448
93791.867
93769.0434
93746.1425
93723.2968
93700.3895
93677.5393
93654.6424
93631.8049
93608.935
93586.1273
93563.3011
93540.5396
93517.7736
93495.0747
93472.3853
93449.7027
93427.0146
93404.424
93381.8865
93359.4506
93337.0769
93314.8081
93292.6111
93270.5219
93248.5146
93226.6175
93204.8127
93183.1205
93161.5306
93140.0564
93118.694
93097.5382
93076.5483
93055.6668
93034.9084
93014.2578
92993.7365
92973.323
92953.0442
92932.8733
92912.8423
92892.9193
92873.141
92853.4708
92833.9499
92814.5372
92795.2778
92776.127
92757.1332
92738.2484
92719.5238
92700.9089
92682.4568
92664.1153
92645.9387
92627.874
92609.9758
92592.1906
92574.5733
92557.0703
92539.7362
92522.5176
92505.4688
92488.5366
92471.7749
92455.1306
92438.6577
92422.3025
92406.1198
92390.0547
92374.1634
92358.389
92342.7899
92327.3067
92312.0004
92296.834
92281.9603
92267.1931
92252.5913
92238.1006
92223.7725
92209.5595
92195.5068
92181.5724
92167.7964
92154.1412
92140.6426
92127.2671
92114.0466
92100.9508
92088.0085
92075.1925
92062.5284
92049.9918
92037.6054
92025.3476
92013.2385
92001.2586
91989.426
91977.7228
91966.1658
91954.738
91943.3732
91931.9637
91920.7029
91909.5802
91898.6017
91887.7628
91877.0644
91866.5063
91856.0852
91845.8047
91835.6581
91825.6522
91815.777
91806.0424
91796.4355
91786.9688
91777.6268
91768.4246
91759.3441
91750.4029
91741.5802
91732.8963
91724.3279
91715.8975
91707.5797
91699.3989
91691.3278
91683.3927
91675.5644
91667.871
91660.2815
91652.8257
91645.4711
91638.2487
91631.1248
91624.1316
91617.2342
91610.4659
91603.791
91597.2433
91590.7865
91584.455
91578.2121
91572.0924
91566.0591
91560.1468
91554.3188
91548.6094
91542.9823
91537.4713
91532.0408
91526.7238
91521.4854
91516.358
91511.3074
91506.365
91501.4977
91496.736
91492.0477
91487.462
91482.9484
91478.5344
91474.1909
91469.9442
91465.7667
91461.6828
91457.6668
91453.7414
91449.8827
91446.1114
91442.4057
91438.7842
91435.2273
91431.7514
91428.3389
91425.0044
91421.7323
91418.535
91415.3991
91412.3349
91409.3311
91406.3959
91403.5202
91400.71
91397.9584
91395.2693
91392.6378
91390.0659
91387.5506
91385.0921
91382.6893
91380.3404
91378.0462
91375.8032
91373.614
91371.4734
91369.3854
91367.3436
91365.3533
91363.4068
91361.5107
91359.6561
91357.8508
91356.0847
91354.3669
91352.6861
91351.0524
91349.4537
91347.9008
91346.3812
91344.9061
91343.4624
91342.0619
91340.6913
91339.3625
91338.0621
91336.8019
91335.5689
91334.3746
91333.2062
91332.0751
91330.9686
91329.8979
91328.8508
91327.8379
91326.8476
91325.89
91324.9543
91324.0494
91323.1658
91322.3114
91321.4775
91320.6712
91319.8849
91319.1246
91318.3837
91317.6671
91316.9695
91316.2946
91315.6384
91315.0031
91314.3862
91313.7888
91313.2094
91312.6478
91312.1041
91311.5766
91311.0668
91310.5717
91310.0941
91309.6298
91309.1828
91308.7476
91308.3296
91307.9221
91307.5312
91307.1355
91306.7314
91306.3102
91305.8837
91305.4407
91304.9968
91304.5378
91304.0836
91303.6164
91303.1609
91302.6955
91302.2497
91301.798
91301.3746
91300.9506
91300.5628
91300.1815
91299.8423
91299.5184
91299.2387
91298.9852
91298.7723
91298.5976
91298.4542
91298.3591
91298.2837
91298.2589
91298.2459
91298.2728
91298.3118
91298.3656
91298.44
91298.5103
91298.5859
91298.6572
91298.7548
91298.6291
91298.5327
91298.4801
91298.452
91298.4383
91298.432
91298.4294
91298.4285
91298.428
91298.4279
91298.4278
91298.4278
91298.4278
91298.4278
91298.4278
91298.4278
91298.4278
91298.4278
91298.4278
91298.4278
91298.4278
91298.4278
91298.4278
91298.4278
91298.4278
91298.4278
91298.4278
91298.4278
91298.4278
91298.4278
91298.4278
91298.4278
91298.4278
91298.4278
91298.4278
91298.4278
91298.4278
91298.4278
91298.4278
91298.4278
91298.4278
)
;

boundaryField
{
    closed
    {
        type            calculated;
        value           nonuniform List<scalar> 0();
    }
    open
    {
        type            calculated;
        value           uniform 91298.4278;
    }
    sides
    {
        type            empty;
    }
    procBoundary5to4
    {
        type            processor;
        value           uniform 92450.1236;
    }
}


// ************************************************************************* //
