/*--------------------------------*- C++ -*----------------------------------*\
| =========                 |                                                 |
| \\      /  F ield         | OpenFOAM: The Open Source CFD Toolbox           |
|  \\    /   O peration     | Version:  2306                                  |
|   \\  /    A nd           | Website:  www.openfoam.com                      |
|    \\/     M anipulation  |                                                 |
\*---------------------------------------------------------------------------*/
FoamFile
{
    version     2.0;
    format      ascii;
    arch        "LSB;label=32;scalar=64";
    class       volScalarField;
    location    "0.00076";
    object      h;
}
// * * * * * * * * * * * * * * * * * * * * * * * * * * * * * * * * * * * * * //

dimensions      [0 2 -2 0 0 0 0];

internalField   nonuniform List<scalar> 
531
(
9248.33732
10179.7681
1780.6715
-5014.22725
-4964.00463
9128.13262
10496.2417
10379.3254
1271.0758
-3686.53578
-3654.36112
-5536.2121
-5521.87414
8946.44016
10155.3028
-2540.50766
-4146.33841
9000.17027
10306.5722
-2275.2421
-3877.16524
9092.21005
10317.4889
815.526801
-4587.35358
-4576.25032
9241.41244
10320.6624
-1625.76227
-3636.03727
9149.02421
10353.233
724.497166
-4523.33331
-4503.89709
9193.52571
10272.4045
2370.17209
-4748.38043
-4745.38969
9080.85382
10545.6787
10460.5378
530.480039
-3408.39978
-4730.70809
-4748.48256
8934.76368
10035.8084
-1029.29779
-6148.44076
-6125.11955
9073.57784
10376.7065
10324.2708
-1593.80303
-6093.57132
-6107.58291
8871.51183
10021.965
-3250.60846
-5073.68591
8693.97537
10125.462
-3527.01977
-4974.13795
8674.21114
10144.9808
-3389.38164
-4820.21777
8747.75042
10180.5156
-2828.05132
-4505.24307
8965.45401
10215.1165
-353.967214
-4757.32635
-4736.20978
9239.65297
10261.9324
912.448584
-4500.5907
-4482.98304
9229.3785
10246.1822
1895.18523
-5047.73718
-5076.58496
8735.1042
9651.87492
9886.75618
9420.64719
-2509.42883
-5193.15354
-4263.62009
-5581.57958
-5584.34575
8955.69067
10168.4181
-2699.07991
-4283.03779
8877.32287
10273.0058
-2931.15722
-4324.43469
8823.20674
10256.6084
-2987.62568
-4369.85822
8845.18271
10262.6209
-2543.4807
-4159.19401
9018.84806
10282.4142
-201.932189
-4489.57596
-4500.00608
9254.21059
10326.031
1891.9189
-4257.97647
-4280.78891
9180.36919
10202.8588
-351.930624
-5295.58959
-5315.91819
9034.60706
10145.9865
-2761.87939
-4572.36576
8873.88453
10266.675
-2587.7851
-3925.41955
9066.77555
10466.3283
1027.61415
-2970.35863
-4025.14114
-4043.56208
9158.79288
10290.8535
-302.166425
-4727.05871
-4716.89084
9157.36879
10244.8278
-1963.91284
-4138.42123
9157.39129
10245.1516
-317.770959
-4873.18624
-4876.76218
9190.16771
10277.0087
-1920.53066
-3684.64875
9226.2259
10488.8189
690.623934
-3072.10616
-4227.18357
-4212.41126
9095.13041
10316.1123
-2302.422
-4009.01403
9176.51117
10305.6743
-221.1646
-4457.74736
-4482.14187
9346.98939
10309.7856
662.934657
-4268.09593
-4260.0972
9336.63955
10302.8026
246.225506
-4472.30059
-4463.76288
9300.24329
10157.88
-542.381401
-5492.80938
-5479.08643
9059.69557
10159.9811
10173.9534
10223.3121
-798.513418
-5136.01215
-4580.993
-6893.19314
-6913.12044
8638.50646
10077.6429
9730.26707
10404.396
10383.8465
-1549.84085
-4190.07831
-4763.36695
-4797.52434
9306.82855
10281.3417
576.689622
-4199.73699
-4187.80946
9561.02903
10334.26
86.0554786
-4327.66462
-4329.10453
9541.05358
10246.8604
-677.899568
-4859.21293
-4841.29141
9465.68886
10238.5885
-2299.55147
-4179.26534
9501.83806
10296.7376
-727.182307
-4448.42666
-4455.49581
9641.82003
10321.4738
88.3060489
-4166.3215
-4154.92097
9722.77291
10475.9821
571.356073
-3075.06472
-3993.52653
-4006.29104
9428.15592
10350.1639
-3422.10217
-4331.05836
9165.48984
10258.4541
10147.5553
10237.1614
-810.785372
-4658.59809
-3989.35401
-5446.67491
-5460.12052
9496.2122
10104.6408
-1326.21631
-4986.96224
-4763.42286
9801.62865
10359.9878
-3276.51316
-3684.30686
9284.68111
10628.3737
10177.8564
-1699.77548
-5212.73607
-5210.43714
9789.41071
10177.5422
-77.6791342
-4818.16451
-3808.08458
9798.91841
10678.1337
10443.3668
-1088.19049
-4661.34403
-4120.85154
-6042.26124
-6033.89058
9311.62134
9999.94854
10170.5065
10042.6698
-1352.64011
-5218.47198
-5206.80734
9887.47083
10063.4123
-1457.83855
-5938.59373
-4637.98193
9594.99404
10569.0032
10140.5426
-1164.15103
-5761.5189
-4565.06867
9748.58082
10563.5548
10345.1275
-1385.28681
-3848.48308
-3979.59665
-3978.72409
9954.38311
10515.777
234.831877
-2895.99163
-3655.85477
-3732.32239
9730.25615
9726.6383
10193.1645
8595.61697
-3695.48552
-5275.02031
-4999.98315
-4932.58858
9805.49866
10088.8288
-2517.73397
-5568.90137
-5040.43968
9882.84502
10222.0766
10350.9879
10249.6719
-1827.25043
-4323.07371
-4997.01255
-5000.74063
9644.92203
10204.0596
-5034.4751
-4971.92686
9625.22197
10494.2978
9900.90314
-2329.82269
-5606.06469
-4989.65484
10233.0688
10213.9181
-1214.35642
-4636.77055
-3642.47256
10123.6551
10687.1549
10450.6972
1245.25589
-3405.30199
-3408.27623
-3932.44893
-5178.97546
-5154.76087
9888.11472
10138.2992
10177.6
10094.153
-3426.96905
-6772.87023
-5372.53287
9690.28005
10430.5716
9882.75105
-2450.65174
-5951.61647
-3821.15237
10079.5256
10394.4034
-3512.88192
-4116.59292
10369.5651
10391.3748
-282.890471
-3873.28911
-4272.02702
-4680.01967
10127.8398
9924.06052
-3709.61001
-7411.193
-5909.44923
9400.72923
10022.8914
9432.50347
10200.3719
9523.03308
-2969.3901
-6927.5506
-6539.77833
-7046.63328
9283.44474
8941.09809
-5548.25928
-9107.58032
-8119.54073
7115.48376
7195.10883
5695.74722
6073.57341
849.637466
4967.07279
4593.60225
4719.25071
5060.22609
4617.65071
4926.89504
4450.44536
4606.94466
4231.01599
4357.94361
4201.64231
4820.763
5526.23481
6237.78301
6079.36235
5992.71
5733.8731
5421.01252
4927.66653
4379.80845
3582.67781
3618.03072
4743.65805
5339.7753
4971.98376
4620.45713
3717.66771
2566.01335
871.916078
-1071.52549
-2870.69859
-5862.47679
-6535.89297
-1426.12372
3287.79356
242.525994
-1606.34944
-4697.55256
-7838.87885
-11678.5028
-16644.7884
-21135.1281
-22932.8674
-27504.6863
-30980.5967
-33586.3747
-38850.9497
-48332.6883
-54343.1385
-60944.2591
-64798.9516
-67059.6848
-73109.4661
-75778.779
-81628.8818
-84645.5193
-90381.7849
-93543.6543
-98854.6416
-101949.582
-106742.79
-109540.781
-114028.18
-116909.99
-121359.787
-124437.491
-128817.802
-132785.13
-137484.973
-139067.103
-142474.256
-150628.908
-155801.347
-150118.487
-151715.523
-169867.968
-174102.743
-160758.848
-163387.238
-185210.384
-187826.558
-174043.261
-178158.608
-191036
-192020.809
-188875.267
-192968.58
-198677.064
-203096.982
-203671.708
-202266.33
-214806.966
-228316.534
-211464.899
-187708.528
-236328.104
-263221.959
-205246.249
-183542.675
-261512.127
-282547.132
-207812.558
-196276.355
-274818.572
-273582.052
-220380.724
-198018.959
-262608.086
-260205.148
-219789.876
-196333.265
-228133.817
-247316.818
-229886.855
-196057.733
-205930.589
-237221.501
-236537.78
-195550.287
-200599.388
-227089.768
-228708.102
-194626.738
)
;

boundaryField
{
    closed
    {
        type            lookUpEnthalpy;
        h0              nonuniform List<scalar> 0();
        value           nonuniform List<scalar> 0();
    }
    open
    {
        type            zeroGradient;
    }
    sides
    {
        type            empty;
    }
    procBoundary4to3
    {
        type            processor;
        value           uniform -5059.8633;
    }
    procBoundary4to5
    {
        type            processor;
        value           uniform -193890.156;
    }
}


// ************************************************************************* //
