/*--------------------------------*- C++ -*----------------------------------*\
| =========                 |                                                 |
| \\      /  F ield         | OpenFOAM: The Open Source CFD Toolbox           |
|  \\    /   O peration     | Version:  2306                                  |
|   \\  /    A nd           | Website:  www.openfoam.com                      |
|    \\/     M anipulation  |                                                 |
\*---------------------------------------------------------------------------*/
FoamFile
{
    version     2.0;
    format      ascii;
    arch        "LSB;label=32;scalar=64";
    class       volScalarField;
    location    "0.00016";
    object      PV;
}
// * * * * * * * * * * * * * * * * * * * * * * * * * * * * * * * * * * * * * //

dimensions      [0 0 0 0 0 0 0];

internalField   nonuniform List<scalar> 
531
(
-0.00715973351
-0.0071597979
-0.00715976869
-0.00715972604
-0.00715973472
-0.00715975786
-0.00715975616
-0.00715974547
-0.00715974561
-0.00715974961
-0.00715974984
-0.00715974862
-0.00715974842
-0.00715974876
-0.00715974887
-0.0071597488
-0.00715974876
-0.00715974879
-0.00715974881
-0.00715974881
-0.00715974881
-0.00715974882
-0.00715974883
-0.00715974884
-0.00715974885
-0.00715974886
-0.00715974887
-0.00715974887
-0.00715974888
-0.00715974889
-0.0071597489
-0.00715974891
-0.00715974892
-0.00715974893
-0.00715974894
-0.00715974895
-0.00715974895
-0.00715974897
-0.00715974897
-0.00715974898
-0.00715974899
-0.007159749
-0.00715974901
-0.00715974902
-0.00715974903
-0.00715974904
-0.00715974905
-0.00715974906
-0.00715974907
-0.00715974907
-0.00715974909
-0.00715974909
-0.0071597491
-0.00715974911
-0.00715974912
-0.00715974913
-0.00715974914
-0.00715974915
-0.00715974915
-0.00715974917
-0.00715974917
-0.00715974918
-0.00715974919
-0.0071597492
-0.00715974921
-0.00715974921
-0.00715974922
-0.00715974923
-0.00715974924
-0.00715974925
-0.00715974925
-0.00715974926
-0.00715974927
-0.00715974928
-0.00715974929
-0.00715974929
-0.0071597493
-0.0071597493
-0.00715974931
-0.00715974932
-0.00715974933
-0.00715974933
-0.00715974934
-0.00715974935
-0.00715974935
-0.00715974936
-0.00715974937
-0.00715974937
-0.00715974938
-0.00715974939
-0.00715974939
-0.0071597494
-0.0071597494
-0.00715974941
-0.00715974942
-0.00715974942
-0.00715974943
-0.00715974943
-0.00715974944
-0.00715974944
-0.00715974945
-0.00715974945
-0.00715974946
-0.00715974946
-0.00715974947
-0.00715974947
-0.00715974948
-0.00715974948
-0.00715974948
-0.00715974949
-0.00715974949
-0.0071597495
-0.0071597495
-0.0071597495
-0.00715974951
-0.00715974951
-0.00715974951
-0.00715974952
-0.00715974952
-0.00715974952
-0.00715974952
-0.00715974952
-0.00715974952
-0.00715974953
-0.00715974953
-0.00715974953
-0.00715974953
-0.00715974953
-0.00715974953
-0.00715974953
-0.00715974953
-0.00715974953
-0.00715974953
-0.00715974954
-0.00715974953
-0.00715974954
-0.00715974954
-0.00715974954
-0.00715974954
-0.00715974954
-0.00715974954
-0.00715974953
-0.00715974954
-0.00715974953
-0.00715974953
-0.00715974954
-0.00715974953
-0.00715974953
-0.00715974953
-0.00715974953
-0.00715974953
-0.00715974953
-0.00715974953
-0.00715974953
-0.00715974953
-0.00715974953
-0.00715974953
-0.00715974954
-0.00715974954
-0.00715974954
-0.00715974954
-0.00715974954
-0.00715974954
-0.00715974954
-0.00715974955
-0.00715974955
-0.00715974955
-0.00715974955
-0.00715974956
-0.00715974956
-0.00715974956
-0.00715974957
-0.00715974957
-0.00715974958
-0.00715974958
-0.00715974958
-0.00715974959
-0.00715974959
-0.0071597496
-0.00715974961
-0.00715974961
-0.00715974962
-0.00715974962
-0.00715974963
-0.00715974964
-0.00715974964
-0.00715974965
-0.00715974966
-0.00715974966
-0.00715974967
-0.00715974968
-0.00715974969
-0.0071597497
-0.0071597497
-0.00715974971
-0.00715974972
-0.00715974973
-0.00715974974
-0.00715974975
-0.00715974975
-0.00715974976
-0.00715974977
-0.00715974978
-0.00715974979
-0.0071597498
-0.0071597498
-0.00715974981
-0.00715974982
-0.00715974983
-0.00715974984
-0.00715974984
-0.00715974985
-0.00715974986
-0.00715974987
-0.00715974987
-0.00715974988
-0.00715974989
-0.0071597499
-0.0071597499
-0.00715974991
-0.00715974992
-0.00715974992
-0.00715974993
-0.00715974994
-0.00715974994
-0.00715974995
-0.00715974996
-0.00715974996
-0.00715974997
-0.00715974997
-0.00715974998
-0.00715974999
-0.00715974999
-0.00715975
-0.00715975
-0.00715975001
-0.00715975001
-0.00715975002
-0.00715975002
-0.00715975003
-0.00715975003
-0.00715975004
-0.00715975004
-0.00715975005
-0.00715975005
-0.00715975006
-0.00715975006
-0.00715975007
-0.00715975007
-0.00715975008
-0.00715975008
-0.00715975009
-0.00715975009
-0.0071597501
-0.0071597501
-0.00715975011
-0.00715975011
-0.00715975012
-0.00715975012
-0.00715975013
-0.00715975013
-0.00715975014
-0.00715975014
-0.00715975015
-0.00715975015
-0.00715975016
-0.00715975017
-0.00715975017
-0.00715975018
-0.00715975019
-0.00715975019
-0.0071597502
-0.00715975021
-0.00715975021
-0.00715975022
-0.00715975023
-0.00715975023
-0.00715975024
-0.00715975025
-0.00715975026
-0.00715975026
-0.00715975027
-0.00715975028
-0.00715975029
-0.0071597503
-0.00715975031
-0.00715975031
-0.00715975032
-0.00715975033
-0.00715975034
-0.00715975035
-0.00715975036
-0.00715975037
-0.00715975038
-0.00715975039
-0.00715975039
-0.0071597504
-0.00715975041
-0.00715975042
-0.00715975043
-0.00715975044
-0.00715975045
-0.00715975046
-0.00715975047
-0.00715975048
-0.00715975049
-0.0071597505
-0.00715975051
-0.00715975052
-0.00715975053
-0.00715975054
-0.00715975055
-0.00715975056
-0.00715975057
-0.00715975058
-0.00715975059
-0.0071597506
-0.00715975061
-0.00715975062
-0.00715975063
-0.00715975064
-0.00715975065
-0.00715975066
-0.00715975068
-0.00715975069
-0.0071597507
-0.00715975071
-0.00715975072
-0.00715975073
-0.00715975074
-0.00715975075
-0.00715975076
-0.00715975077
-0.00715975078
-0.00715975079
-0.0071597508
-0.00715975081
-0.00715975082
-0.00715975083
-0.00715975084
-0.00715975085
-0.00715975086
-0.00715975087
-0.00715975088
-0.00715975089
-0.0071597509
-0.00715975091
-0.00715975092
-0.00715975093
-0.00715975094
-0.00715975095
-0.00715975096
-0.00715975097
-0.00715975098
-0.00715975099
-0.007159751
-0.00715975101
-0.00715975102
-0.00715975103
-0.00715975103
-0.00715975104
-0.00715975105
-0.00715975106
-0.00715975107
-0.00715975108
-0.00715975109
-0.0071597511
-0.00715975111
-0.00715975111
-0.00715975112
-0.00715975113
-0.00715975114
-0.00715975114
-0.00715975115
-0.00715975116
-0.00715975116
-0.00715975117
-0.00715975118
-0.00715975118
-0.00715975119
-0.00715975119
-0.0071597512
-0.0071597512
-0.00715975121
-0.00715975121
-0.00715975122
-0.00715975122
-0.00715975122
-0.00715975123
-0.00715975123
-0.00715975123
-0.00715975124
-0.00715975124
-0.00715975124
-0.00715975124
-0.00715975124
-0.00715975125
-0.00715975125
-0.00715975125
-0.00715975125
-0.00715975125
-0.00715975125
-0.00715975126
-0.00715975125
-0.00715975126
-0.00715975126
-0.00715975126
-0.00715975126
-0.00715975126
-0.00715975126
-0.00715975127
-0.00715975127
-0.00715975127
-0.00715975127
-0.00715975128
-0.00715975128
-0.00715975128
-0.00715975129
-0.00715975129
-0.00715975129
-0.0071597513
-0.0071597513
-0.00715975131
-0.00715975132
-0.00715975132
-0.00715975133
-0.00715975134
-0.00715975134
-0.00715975135
-0.00715975135
-0.00715975136
-0.00715975137
-0.00715975138
-0.00715975138
-0.00715975139
-0.0071597514
-0.00715975141
-0.00715975141
-0.00715975142
-0.00715975143
-0.00715975144
-0.00715975144
-0.00715975145
-0.00715975146
-0.00715975147
-0.00715975147
-0.00715975148
-0.00715975148
-0.00715975149
-0.00715975149
-0.0071597515
-0.00715975151
-0.00715975151
-0.00715975151
-0.00715975152
-0.00715975152
-0.00715975152
-0.00715975153
-0.00715975153
-0.00715975153
-0.00715975153
-0.00715975153
-0.00715975153
-0.00715975153
-0.00715975153
-0.00715975153
-0.00715975154
-0.00715975153
-0.00715975153
-0.00715975153
-0.00715975153
-0.00715975153
-0.00715975153
-0.00715975153
-0.00715975153
-0.00715975153
-0.00715975153
-0.00715975152
-0.00715975152
-0.00715975152
-0.00715975152
-0.00715975152
-0.00715975152
-0.00715975152
-0.00715975152
-0.00715975152
-0.00715975152
-0.00715975152
-0.00715975152
-0.00715975152
-0.00715975152
-0.00715975152
-0.00715975153
-0.00715975153
-0.00715975153
-0.00715975153
-0.00715975154
-0.00715975156
-0.00715975158
-0.00715975153
-0.00715975141
-0.00715975145
-0.00715975204
-0.00715975228
-0.00715975093
-0.007159749
-0.00715975032
-0.00715975857
-0.00715975938
-0.00715974235
-0.00715972752
-0.00715974545
-0.00715980321
-0.00715980119
-0.00715969326
-0.00715963324
-0.00715973753
-0.00715993765
-0.00715991492
-0.00715958133
-0.00715947509
-0.0071597427
-0.00716005345
-0.0071599731
-0.00715953167
-0.00715949749
-0.00715978646
-0.00715994082
-0.00715982505
-0.00715964905
-0.00715966686
)
;

boundaryField
{
    closed
    {
        type            zeroGradient;
    }
    open
    {
        type            zeroGradient;
    }
    sides
    {
        type            empty;
    }
    procBoundary3to2
    {
        type            processor;
        value           uniform -0.00715965804;
    }
    procBoundary3to4
    {
        type            processor;
        value           uniform -0.00715979396;
    }
}


// ************************************************************************* //
