/*--------------------------------*- C++ -*----------------------------------*\
| =========                 |                                                 |
| \\      /  F ield         | OpenFOAM: The Open Source CFD Toolbox           |
|  \\    /   O peration     | Version:  2306                                  |
|   \\  /    A nd           | Website:  www.openfoam.com                      |
|    \\/     M anipulation  |                                                 |
\*---------------------------------------------------------------------------*/
FoamFile
{
    version     2.0;
    format      ascii;
    arch        "LSB;label=32;scalar=64";
    class       surfaceScalarField;
    location    "0.00132";
    object      phi;
}
// * * * * * * * * * * * * * * * * * * * * * * * * * * * * * * * * * * * * * //

dimensions      [1 0 -1 0 0 0 0];

oriented        oriented;

internalField   nonuniform List<scalar> 
530
(
-2.27509803e-06
-2.17191006e-06
-2.09060448e-06
-1.99887908e-06
-1.94499104e-06
-1.86181594e-06
-1.85131589e-06
-1.81593495e-06
-1.75715925e-06
-1.4439071e-06
-1.25182299e-06
-1.1385779e-06
-1.0534547e-06
-7.73138547e-07
-7.10950586e-07
-6.72726559e-07
-5.33270267e-07
-4.82016006e-07
-5.31998676e-07
-4.49011453e-07
-4.60275243e-07
-4.2914171e-07
-1.97881999e-07
-1.05514315e-07
-8.67920696e-08
4.31612116e-10
-1.13516342e-08
-5.7680238e-09
2.412691e-07
5.33774697e-07
6.94704869e-07
8.57700688e-07
1.17379053e-06
1.40122374e-06
1.59359287e-06
1.68182534e-06
1.90619222e-06
2.26284486e-06
2.57670164e-06
2.84649198e-06
3.08154355e-06
3.41046143e-06
3.66217749e-06
3.70506737e-06
3.89426576e-06
4.1463095e-06
4.38983383e-06
4.62283597e-06
4.83028733e-06
5.16796176e-06
5.44481904e-06
5.74441076e-06
5.96124588e-06
5.83899059e-06
6.19902955e-06
6.76185863e-06
7.12716289e-06
7.53647156e-06
7.71414743e-06
8.18968289e-06
8.70767257e-06
9.11450985e-06
9.60748664e-06
1.00586146e-05
1.06659955e-05
1.13001569e-05
1.1931537e-05
1.25997544e-05
1.32228281e-05
1.32525778e-05
1.34462566e-05
1.40917103e-05
1.48763192e-05
1.56276005e-05
1.62926451e-05
1.72828293e-05
1.81967003e-05
1.89499586e-05
1.92119278e-05
2.0088932e-05
2.07629447e-05
2.14206788e-05
2.20459166e-05
2.20870768e-05
2.28821764e-05
2.35531215e-05
2.42890405e-05
2.3834986e-05
2.34722847e-05
2.38684431e-05
2.55892505e-05
2.61405333e-05
2.67910181e-05
2.61568041e-05
2.69457154e-05
2.76525696e-05
2.86583583e-05
2.95123071e-05
2.90283877e-05
2.91037655e-05
3.01625289e-05
3.10220795e-05
3.21424712e-05
3.17126192e-05
3.28733286e-05
3.39240538e-05
3.49809116e-05
3.40833811e-05
3.47413984e-05
3.71739203e-05
3.79352431e-05
3.88313623e-05
3.89993154e-05
3.88447225e-05
4.04540682e-05
4.1134566e-05
4.1841237e-05
4.1819789e-05
4.14733071e-05
4.32471197e-05
4.34369287e-05
4.3434872e-05
4.21179668e-05
4.18509943e-05
4.33240256e-05
4.29913505e-05
4.26799907e-05
4.21206347e-05
4.14320992e-05
4.08657506e-05
4.00513434e-05
3.83143196e-05
3.70258521e-05
3.74587066e-05
3.64585062e-05
3.50169366e-05
3.35226044e-05
3.36338068e-05
3.24185238e-05
3.08950224e-05
2.93629496e-05
2.92056046e-05
2.8037053e-05
2.64981612e-05
2.50400651e-05
2.39960898e-05
2.34565654e-05
2.25763223e-05
2.17672645e-05
2.08393079e-05
2.00084296e-05
1.9098853e-05
1.77774921e-05
1.68794937e-05
1.62121362e-05
1.58255237e-05
1.55268878e-05
1.49042075e-05
1.41178019e-05
1.34698002e-05
1.30045164e-05
1.29479046e-05
1.2589313e-05
1.2059171e-05
1.16468734e-05
1.1738483e-05
1.13786512e-05
1.0910517e-05
1.05706777e-05
1.02825309e-05
9.9899124e-06
1.00491449e-05
1.0025497e-05
9.83875474e-06
9.68963909e-06
9.48594638e-06
9.04515129e-06
8.90948744e-06
9.54338835e-06
9.45223468e-06
9.36132109e-06
9.21170155e-06
8.86159482e-06
8.65027871e-06
8.49827717e-06
8.5420085e-06
8.29589996e-06
7.91214863e-06
7.64743181e-06
7.42274418e-06
7.19529751e-06
6.92355863e-06
6.63363685e-06
6.24232427e-06
5.74514021e-06
5.39903841e-06
5.14962111e-06
5.12707529e-06
4.86457353e-06
4.57680788e-06
4.41113071e-06
4.15920798e-06
3.94310938e-06
3.88348498e-06
3.98319662e-06
3.78550323e-06
3.64303183e-06
3.63558988e-06
3.76561227e-06
3.6180482e-06
3.50695827e-06
3.53011201e-06
3.68643402e-06
3.59470762e-06
3.51398349e-06
3.56555102e-06
3.74683708e-06
3.70335379e-06
3.63661342e-06
3.71069291e-06
3.9790197e-06
4.09862605e-06
4.06889756e-06
3.97320416e-06
4.04550796e-06
4.26679663e-06
4.38894755e-06
4.3496204e-06
4.2190907e-06
4.26613786e-06
4.38430651e-06
4.29948334e-06
4.1625089e-06
4.18564335e-06
4.28854996e-06
4.32959027e-06
4.28044e-06
4.09996032e-06
4.1778916e-06
4.30059544e-06
4.25029105e-06
4.2262265e-06
4.41850346e-06
4.61979019e-06
4.63588768e-06
4.66852821e-06
4.92884445e-06
5.17251157e-06
5.21481555e-06
5.23168587e-06
5.45103751e-06
5.7085056e-06
5.84820385e-06
5.62174317e-06
5.52003606e-06
5.60426688e-06
5.56299412e-06
5.44403295e-06
5.1098889e-06
4.9915567e-06
4.83206547e-06
4.60476423e-06
4.18155823e-06
3.78804485e-06
3.51364848e-06
3.43895116e-06
3.16602037e-06
2.78481485e-06
2.4687159e-06
2.26367489e-06
2.1940163e-06
1.99040216e-06
1.79249448e-06
1.64328861e-06
1.51830912e-06
1.31765051e-06
1.16184485e-06
1.06676654e-06
9.32159417e-07
7.35501891e-07
4.80666356e-07
2.08454006e-07
-8.03632535e-08
-5.28125877e-07
-1.11894535e-06
-1.74125047e-06
-2.52051459e-06
-3.17642539e-06
-3.94692312e-06
-5.08527744e-06
-6.41836228e-06
-7.57508768e-06
-8.58967784e-06
-1.00135132e-05
-1.1908632e-05
-1.40448982e-05
-1.58109281e-05
-1.76033875e-05
-1.91585254e-05
-2.05470768e-05
-2.24798761e-05
-2.44703189e-05
-2.63768878e-05
-2.85637867e-05
-3.17072894e-05
-3.40013037e-05
-3.62076673e-05
-3.81089975e-05
-3.99572682e-05
-4.20940859e-05
-4.48352242e-05
-4.78350979e-05
-4.9975095e-05
-5.02062764e-05
-5.22151357e-05
-5.49261831e-05
-5.963109e-05
-6.0994449e-05
-6.08251989e-05
-5.99132774e-05
-6.09121407e-05
-6.33520684e-05
-6.58303803e-05
-6.39483115e-05
-6.16135741e-05
-6.06587391e-05
-6.07655088e-05
-6.07558284e-05
-5.71325286e-05
-5.36373051e-05
-5.11066365e-05
-4.9359383e-05
-4.66900778e-05
-4.33523133e-05
-4.02167961e-05
-3.75738043e-05
-3.54619402e-05
-3.28786898e-05
-2.9898582e-05
-2.53768419e-05
-2.33764848e-05
-2.19548086e-05
-2.05669661e-05
-1.89451082e-05
-1.61586179e-05
-1.5007529e-05
-1.46409639e-05
-1.36646725e-05
-1.17956309e-05
-1.09974954e-05
-1.0507897e-05
-1.0413157e-05
-9.51237087e-06
-8.57339006e-06
-7.97288544e-06
-7.53248064e-06
-7.25687149e-06
-6.91190576e-06
-6.48780005e-06
-6.28788202e-06
-6.01601999e-06
-5.54234892e-06
-5.12559714e-06
-4.8854735e-06
-4.71185989e-06
-4.7172805e-06
-4.21043136e-06
-3.96019386e-06
-3.77868738e-06
-3.59961584e-06
-3.5514481e-06
-3.50804976e-06
-3.32081481e-06
-3.09077334e-06
-2.97478088e-06
-2.86280403e-06
-2.75379882e-06
-2.5050597e-06
-2.3584856e-06
-2.25718807e-06
-2.14681971e-06
-2.0401924e-06
-1.93044508e-06
-1.81785163e-06
-1.70014254e-06
-1.57916978e-06
-1.45447418e-06
-1.32774232e-06
-1.19847361e-06
-1.07090376e-06
-9.31366658e-07
-7.86931933e-07
-7.29345961e-07
-6.7486606e-07
-6.32170376e-07
-5.95091285e-07
-5.64027677e-07
-5.38270724e-07
-5.13161497e-07
-4.94493235e-07
-4.83038693e-07
-4.81334538e-07
-4.43077129e-07
-4.66767432e-07
-4.8707743e-07
-5.2971065e-07
-5.67535417e-07
-6.2133206e-07
-6.73385865e-07
-7.73911354e-07
-8.7705081e-07
-9.7173235e-07
-1.07544408e-06
-9.98289479e-07
-1.06516985e-06
-1.14940929e-06
-1.25468725e-06
-1.33020708e-06
-1.40728539e-06
-1.44969984e-06
-1.4719678e-06
-1.46241507e-06
-1.40877141e-06
-1.2969323e-06
-9.78362695e-07
-9.32889057e-07
-7.40113436e-07
-4.74079906e-07
-5.79948442e-07
-5.74350673e-07
-1.70601178e-06
-1.54872646e-06
-1.46293922e-06
-8.88671381e-07
-7.00610219e-07
-4.51772494e-07
-2.37400646e-07
-4.80645213e-08
1.96670534e-07
3.71797393e-07
4.75992705e-07
6.13411921e-07
6.93471002e-07
7.66752487e-07
8.18263763e-07
8.61724433e-07
9.03338733e-07
9.33203711e-07
9.63611452e-07
9.85514913e-07
1.0005064e-06
1.00933594e-06
1.0139877e-06
1.01723933e-06
1.0171642e-06
1.01667878e-06
1.01367889e-06
1.01057778e-06
1.00589618e-06
1.00174665e-06
9.96855084e-07
9.92065377e-07
9.88267752e-07
9.83155471e-07
9.8187937e-07
9.76353354e-07
9.7628872e-07
9.73156643e-07
9.72989309e-07
9.71498088e-07
9.71314257e-07
9.69221172e-07
9.68050288e-07
9.66959079e-07
9.66406722e-07
9.65972612e-07
9.65918663e-07
9.6605806e-07
9.66837729e-07
9.68149873e-07
9.69260302e-07
9.70082982e-07
9.70942519e-07
9.72499958e-07
9.74156358e-07
9.76246824e-07
9.78788819e-07
9.81990609e-07
9.85758309e-07
9.90241278e-07
9.95035846e-07
1.00053522e-06
1.00666597e-06
1.01347632e-06
1.02091129e-06
1.02938962e-06
1.03828627e-06
1.04758449e-06
1.05715391e-06
1.06673041e-06
1.07644159e-06
1.08623483e-06
1.09597358e-06
1.10558039e-06
1.11484074e-06
1.12377454e-06
1.13229909e-06
1.14033309e-06
1.14781359e-06
1.15467426e-06
1.16078294e-06
1.16617712e-06
1.17085773e-06
1.17480004e-06
1.17801151e-06
1.18058744e-06
1.18245475e-06
1.18363983e-06
1.18418283e-06
1.18411374e-06
1.18347719e-06
1.18231973e-06
1.18069011e-06
1.17864009e-06
1.17621276e-06
1.1734635e-06
1.17042708e-06
1.16715467e-06
1.16367674e-06
1.15994463e-06
)
;

boundaryField
{
    closed
    {
        type            calculated;
        value           nonuniform List<scalar> 0();
    }
    open
    {
        type            calculated;
        value           nonuniform List<scalar> 0();
    }
    sides
    {
        type            empty;
        value           nonuniform List<scalar> 0();
    }
    procBoundary4to3
    {
        type            processor;
        value           uniform 2.52967908e-06;
    }
    procBoundary4to5
    {
        type            processor;
        value           uniform 1.15607534e-06;
    }
}


// ************************************************************************* //
