/*--------------------------------*- C++ -*----------------------------------*\
| =========                 |                                                 |
| \\      /  F ield         | OpenFOAM: The Open Source CFD Toolbox           |
|  \\    /   O peration     | Version:  2306                                  |
|   \\  /    A nd           | Website:  www.openfoam.com                      |
|    \\/     M anipulation  |                                                 |
\*---------------------------------------------------------------------------*/
FoamFile
{
    version     2.0;
    format      ascii;
    arch        "LSB;label=32;scalar=64";
    class       volScalarField;
    location    "0.0013";
    object      prefDh_H;
}
// * * * * * * * * * * * * * * * * * * * * * * * * * * * * * * * * * * * * * //

dimensions      [1 1 -3 0 0 0 0];

internalField   nonuniform List<scalar> 
531
(
23898.9065
23338.4273
23015.8151
22853.9956
22698.9348
23407.8438
23899.9221
23961.4809
23907.244
23933.8243
23233.8639
22832.9363
23924.2746
23909.9246
22972.4605
22869.9441
23909.5935
23910.6951
22895.5364
22925.8415
23923.6205
23906.0065
23899.5027
23180.1014
22885.1122
23925.9481
23916.8771
22981.7714
23022.7096
23924.696
23929.0103
23893.7999
23404.7332
22793.8608
22862.0475
23924.8747
23906.8863
23449.1648
22902.0528
22953.9024
23922.3639
23928.7648
23902.59
23398.8974
22982.3194
23014.266
23932.7637
23932.3452
23419.4483
23151.7882
22784.7676
22794.2463
23915.1484
23933.1066
23903.9866
23945.7853
23212.9619
23215.0472
23925.7264
23388.8854
22711.0176
23947.0366
23921.9227
23204.2439
23015.91
23928.299
23937.8951
23223.0105
23090.4378
23927.9853
23945.2529
23257.6876
23114.5155
23934.4755
23942.8451
23319.5386
23124.257
23948.3766
23925.7254
23392.441
22987.6897
22999.0404
23940.6331
23938.1739
23410.6829
23137.0592
22779.3239
22785.1908
23916.2861
23931.8646
23908.5045
23939.837
23923.8926
23400.0649
23233.3769
22919.4749
22926.8903
23908.9257
23939.8963
23147.651
22990.8207
23901.6632
23944.2933
23174.1453
23036.2175
23899.5929
23944.888
23228.6053
23086.3445
23901.9617
23943.081
23288.7366
23122.8695
23908.094
23937.08
23362.7545
23133.3339
23922.0699
23917.1483
23401.8066
22969.8343
22977.5943
23920.5027
23920.147
23404.522
22775.1882
22801.3363
23911.1351
23924.8789
23917.9704
23424.7244
23042.5269
23908.5407
23924.045
23373.5219
23020.5172
23907.4777
23905.8317
23410.0252
22697.1719
22722.3563
23890.0512
23913.3928
23906.0314
23257.7479
22924.2101
23884.0311
23923.506
23036.5204
22965.8379
23884.9968
23925.122
23908.8284
23333.9956
22965.8595
23888.6637
23923.2198
23343.1755
23114.5249
23888.5521
23921.8065
23425.681
23234.3369
22928.5586
22938.4623
23869.5487
23920.6332
23175.1533
23082.8132
23874.0473
23922.6073
23900.2553
23385.8887
22999.677
23891.8472
23900.9477
23410.6795
22732.8804
22756.4166
23875.0628
23916.3499
23905.1488
23298.9204
22984.9759
23892.1395
23911.2757
23405.9416
23045.4052
22934.1273
22732.7864
23353.424
23884.2465
23985.232
23912.3378
23959.6298
23935.8655
23395.9684
23023.7017
22682.3236
22638.576
23517.0858
23903.1255
23929.5851
23919.895
23917.151
23428.7818
23051.1278
23881.5322
23901.2084
23407.9204
22859.7489
22874.0212
23862.8887
23911.9381
23418.9431
22685.8928
22700.4717
23864.9739
23918.8836
23909.8212
23400.8198
22948.9754
23862.3472
23929.0454
23166.1524
23047.2763
23852.7328
23940.3686
23885.3266
23392.8649
22846.9478
22864.717
23853.603
23932.092
23435.6871
23141.9041
23862.1043
23921.9777
23421.5271
23254.7419
22982.7316
22983.4921
23843.365
23901.4692
23428.0341
22554.8907
22569.3902
23649.2805
23902.0835
23899.3999
23913.7299
23919.2366
23921.7341
23409.1428
22941.0844
23879.5744
23911.9511
23403.3134
22816.5123
22836.845
23858.1558
23922.4566
23410.311
22795.5263
22805.3557
23871.8936
23929.4683
23926.8456
23411.4073
23169.7777
23882.746
23930.9741
23406.8036
23248.2046
22888.2538
22895.6027
23836.7214
23922.7783
23853.4554
23927.4912
23633.5609
23190.3179
23075.1228
22744.5589
22752.115
23858.2555
23923.7199
23917.1454
23418.2888
23138.118
23872.5813
23923.3146
23413.2511
23231.291
22847.3818
22852.2239
23838.896
23925.2288
23878.3994
23935.8521
23277.329
23113.1308
23857.2613
23941.4149
23903.5524
23391.8333
22761.6263
22781.2613
23856.5886
23947.2357
23918.0681
23384.1944
23010.8823
23111.2688
22806.4583
22851.5156
23884.4426
23937.4444
23916.7906
23946.6656
23406.552
23075.9155
23887.7988
23935.5942
23410.767
23063.089
22705.5463
22704.6523
23845.5104
23909.6406
23883.2236
23910.9395
23503.3206
22951.3584
22946.2996
23864.399
23922.318
23405.3967
22801.9769
22818.1801
23897.3586
23937.9215
23932.1476
23401.2662
23094.5537
23901.5812
23938.1217
23396.37
23115.3494
22753.4129
22759.78
23886.2005
23969.0546
23937.7968
23997.5105
23976.6943
23331.4545
22994.8419
23077.715
22750.1409
23000.7782
23986.3508
24071.6161
24033.9911
24097.6115
23129.4687
22907.649
24047.9648
24142.3716
24125.7842
23158.2571
22787.1961
24136.4308
24210.6964
22965.7542
22837.5768
24086.4331
24194.1125
24190.0936
22859.5642
22583.9529
23994.9058
24016.4255
24048.2093
23934.7181
22596.4656
23749.8508
24040.826
23881.8518
24026.5063
23954.9094
24040.3309
24008.318
24068.1224
24059.8422
24111.6911
24126.9709
24186.9458
24243.5899
24346.4782
24526.9834
24641.0095
24513.7883
24406.1972
24291.493
24211.9417
24119.6622
24067.3933
24005.603
23978.5908
23886.6057
23835.7947
23823.2183
23860.467
23766.3594
23747.5322
23689.0967
23701.2077
23677.2893
23717.1129
23569.9002
23509.9673
23346.2952
23282.2773
23124.8881
23053.9193
23087.2
24790.3221
24497.2204
24362.8394
24060.7186
23922.4118
23600.7629
23455.9694
23093.4055
22923.0624
22672.1786
22696.3482
22759.4896
22787.8181
22853.1335
22885.73
22946.3877
22990.1764
24564.4231
25434.0324
26712.9227
26675.1266
30039.8031
31845.8248
33554.4767
34873.9908
36386.8123
37559.4046
39149.9078
40436.0427
42252.3622
43656.0736
45632.9958
47049.7219
49097.9576
50476.5864
52489.3627
53797.8489
55681.7593
56853.1889
58566.1272
59723.1924
61425.578
62431.0637
63898.6048
64732.6978
65997.2334
66668.556
67704.0081
68252.0774
69185.5525
69633.8526
70482.3819
70848.3036
71626.2644
71918.5926
72627.8802
72877.1289
73550.0099
73684.8172
74283.3218
74536.9457
75253.5948
75162.9723
75761.7342
75906.524
76779.3229
76906.7717
77801.8495
77246.6099
77796.884
78521.9361
79236.5029
78064.2093
78929.2657
79827.7178
79888.1038
79011.8448
79568.4132
80189.6158
80604.5306
79908.9276
80222.6295
80852.0269
81095.223
80549.2047
80788.2225
81383.8812
81553.1034
81035.8477
81229.1584
81807.2983
81911.2133
81424.7341
81573.7109
82147.3714
82191.334
81737.3218
81851.7668
82423.2646
82428.2568
81995.9746
82089.3843
82639.6863
82639.0742
)
;

boundaryField
{
    closed
    {
        type            calculated;
        value           nonuniform List<scalar> 0();
    }
    open
    {
        type            calculated;
        value           nonuniform List<scalar> 0();
    }
    sides
    {
        type            empty;
    }
    procBoundary4to3
    {
        type            processor;
        value           uniform 23944.5189;
    }
    procBoundary4to5
    {
        type            processor;
        value           uniform 82230.4277;
    }
}


// ************************************************************************* //
