/*--------------------------------*- C++ -*----------------------------------*\
| =========                 |                                                 |
| \\      /  F ield         | OpenFOAM: The Open Source CFD Toolbox           |
|  \\    /   O peration     | Version:  2306                                  |
|   \\  /    A nd           | Website:  www.openfoam.com                      |
|    \\/     M anipulation  |                                                 |
\*---------------------------------------------------------------------------*/
FoamFile
{
    version     2.0;
    format      ascii;
    arch        "LSB;label=32;scalar=64";
    class       volScalarField;
    location    "0.00096";
    object      H2O;
}
// * * * * * * * * * * * * * * * * * * * * * * * * * * * * * * * * * * * * * //

dimensions      [0 0 0 0 0 0 0];

internalField   nonuniform List<scalar> 
530
(
0.00110034863
0.00632072436
0.00684503641
0.00670680291
0.00695779211
0.00691245529
0.00107811475
0.00109148467
0.00672480066
0.00680521592
0.00105591898
0.00109594718
0.00674048931
0.00680597265
0.00105935294
0.00108343015
0.0065959916
0.00703769471
0.00681017376
0.00106397656
0.00113159871
0.00108990793
0.00634955419
0.00698048788
0.0067103422
0.00708352226
0.00689855169
0.00105763432
0.00111701497
0.00108605198
0.00664317954
0.00702057626
0.00697655587
0.00106824891
0.00107510577
0.00655996786
0.00709782844
0.00684652385
0.00105183761
0.0011257566
0.00108766472
0.00652531726
0.0069359035
0.0068929332
0.00108274297
0.00109142114
0.00641436809
0.00695041945
0.00671258601
0.00704861245
0.00687441018
0.00105667821
0.00112475903
0.00109969272
0.00653273664
0.00690117511
0.00685913499
0.00108463806
0.00110492981
0.00645087505
0.0068172542
0.00680005768
0.00108406961
0.00111055892
0.0064168436
0.00679308596
0.00678273758
0.00108240593
0.00111076352
0.00635733693
0.00679107258
0.00676275912
0.00109865066
0.00111444307
0.005454713
0.00686969946
0.00674294516
0.00701017897
0.00700247661
0.00105143557
0.00109596632
0.00687364443
0.00688671574
0.00101441386
0.00111893725
0.00105863366
0.00658956237
0.00721323227
0.00706220452
0.00104721031
0.00107139253
0.00684996702
0.00727014758
0.00720873102
0.00103445443
0.00106839268
0.00107714859
0.00106650864
0.00678180204
0.00717354631
0.00714485403
0.00716023679
0.00100683441
0.00107216853
0.00703792059
0.00713930526
0.00101420967
0.00107442896
0.00696536886
0.00712841917
0.00102844574
0.00106832252
0.00680639629
0.00725425164
0.0070175322
0.00103693507
0.00110422925
0.00109262299
0.00677839746
0.00708077255
0.00706012391
0.00106519395
0.00107796291
0.0067595951
0.00714033659
0.00704826671
0.00105318947
0.00108383146
0.0069261291
0.0070770128
0.00103111461
0.00106988589
0.00695539469
0.00730749803
0.00722761287
0.00103856619
0.00106359152
0.00706041925
0.00720219852
0.00101909792
0.00106292056
0.00708638115
0.00719798068
0.00101885779
0.00106447489
0.00708715521
0.00715989113
0.00102327503
0.00107143318
0.00704121449
0.0070823976
0.00103423271
0.00107870387
0.00694733484
0.00704184088
0.0010526625
0.00107747151
0.00678985826
0.00717018017
0.00684775954
0.00105074948
0.00112014409
0.00108336824
0.00669980479
0.00709892277
0.00686981504
0.00712462613
0.00703645763
0.00106627012
0.00107433458
0.00692901743
0.00701915009
0.00105961953
0.0010763826
0.00692400242
0.00696444868
0.00106313196
0.00108170174
0.00693516891
0.00697922148
0.00106746329
0.00107692479
0.00692227782
0.00715950245
0.00695469626
0.00108040785
0.00107771098
0.00111482694
0.00106195566
0.00659355584
0.00712349089
0.0068159564
0.00714927825
0.00700063084
0.00107065868
0.00106073989
0.00705329906
0.00733187133
0.00707741813
0.00105677785
0.00105306067
0.00714608031
0.00710406185
0.00106141906
0.00105709005
0.00725300435
0.00698540189
0.00104227844
0.00109202371
0.00104221922
0.00698488432
0.00708662515
0.00108752511
0.00106173301
0.00701868396
0.00670497276
0.00106376898
0.00669102524
0.00691345244
0.00112805415
0.00107446213
0.00670828805
0.00688150384
0.0067565658
0.00670262466
0.0011130269
0.00108017378
0.00682747215
0.00695273847
0.00670090308
0.00110128611
0.00106555558
0.00680276563
0.00675014842
0.00110885774
0.00106997348
0.00688581847
0.00701257953
0.00676169002
0.00109675708
0.00105174096
0.00688972077
0.00722207597
0.00666000771
0.00107276619
0.00112785823
0.0010191955
0.00673191946
0.00739673634
0.00646154047
0.00101397001
0.00692359097
0.0070494917
0.00109842636
0.00105086614
0.00109580324
0.00101311884
0.00704371286
0.00729664156
0.00699896963
0.0072632194
0.00686681045
0.00109016502
0.00110160408
0.0010357821
0.00694091694
0.00709130926
0.00670785991
0.00108999468
0.00103994764
0.00697074807
0.00722242326
0.00673671077
0.00108842698
0.00110218553
0.0010183409
0.00706320608
0.0072835457
0.00682093575
0.00107213019
0.000999876264
0.00701745195
0.00687426388
0.00108955085
0.00103090021
0.00705531196
0.00717730068
0.00674365561
0.00108497024
0.00101273296
0.00689727987
0.00679433215
0.00110384105
0.00102617655
0.00694368564
0.00730945866
0.00663390277
0.00106945485
0.00110943024
0.00100012226
0.00707049671
0.00731530886
0.00713530555
0.00691781253
0.00107578702
0.000983802053
0.00705537112
0.00685744508
0.00108729898
0.000996266731
0.00695458014
0.00680433731
0.00109571895
0.00102699145
0.00699248819
0.00722393213
0.00665152725
0.00109241845
0.00112122574
0.00100604911
0.00674120902
0.00666387106
0.00111487999
0.00105590703
0.00687703949
0.00688510858
0.00682544497
0.00658692827
0.00111173035
0.00103933168
0.006793561
0.00721464616
0.0061064703
0.00102386102
0.00673545347
0.00678279041
0.00111405409
0.00101057582
0.00689910082
0.00636145984
0.00103697079
0.00659210665
0.00683512989
0.00112414224
0.00102313678
0.00694244515
0.00716911695
0.006715161
0.00108130355
0.0010177676
0.00703064163
0.00741209373
0.00661900074
0.00105314452
0.00111177513
0.000983553012
0.00695642522
0.00695151756
0.00109372694
0.000983864256
0.00700213516
0.00689166044
0.00108494993
0.00102033448
0.00713213862
0.00727679227
0.0068065919
0.00107655611
0.00100371764
0.00691929888
0.0067879637
0.00110091033
0.0010423277
0.00693939239
0.00703967141
0.00661062923
0.00109840668
0.00105576534
0.00683761567
0.0069772109
0.00654962691
0.00110411644
0.00106354121
0.00678339147
0.00691856884
0.00652861259
0.00112224602
0.00105926511
0.00632655483
0.00714425474
0.00596489197
0.00103982551
0.00624929942
0.00683570542
0.0011408462
0.00104567127
0.00672123945
0.00697384787
0.00655016696
0.00111924807
0.0010773207
0.00626127937
0.00689130973
0.00648674654
0.0011124001
0.00107429766
0.00670985412
0.00691459104
0.00657921548
0.0011101164
0.00107115919
0.00672670988
0.00693789914
0.00660563307
0.00110597118
0.00106823837
0.00678131729
0.00698211433
0.00665896289
0.00109898235
0.00106087535
0.00686704655
0.00707131108
0.00673539788
0.00109037953
0.00104367108
0.00688012132
0.00682819151
0.00110304196
0.00105070175
0.00693267529
0.0071366783
0.00680077413
0.0010854621
0.00104197542
0.00691138916
0.0068652667
0.00110094475
0.00104992643
0.00694505881
0.00715052799
0.00681936052
0.00108512674
0.00104391345
0.00691432511
0.00687460282
0.00110108855
0.00105124671
0.00694502673
0.00715351653
0.00683102935
0.00108489979
0.0010454431
0.00692322729
0.00689336059
0.00109989507
0.00105028387
0.00696206243
0.00718468232
0.00686317446
0.00108050747
0.0010435126
0.00698014296
0.00695326403
0.00109307854
0.00104291636
0.00703700544
0.0072869502
0.00696241925
0.00107194139
0.001030159
0.00703643705
0.00700451105
0.00108591337
0.00103204924
0.00703693553
0.00696126936
0.00108582321
0.00103712466
0.00701920896
0.00697205305
0.00108998452
0.00104674783
0.00703023642
0.00724500265
0.00693749412
0.00108019985
0.00104285332
0.00692849026
0.00689899342
0.00110361862
0.00105479435
0.00683403763
0.00676282656
0.00110807605
0.00107356658
0.00686957527
0.00686060716
0.00703288353
0.00664833483
0.00104887089
0.00686169416
0.00707048705
0.00109935947
0.00103280968
0.00702711827
0.00700087441
0.00107676766
0.00104527199
0.00719470027
0.00682957055
0.0010381782
0.0011263617
0.00100786241
0.00656752934
0.0075127187
0.00660299319
0.00102673174
0.00695326365
0.00701656239
0.00107105098
0.00109622788
0.00104408424
0.0068825094
0.00719475231
0.00688004851
0.00108633717
0.00106582287
0.00690831932
0.0070796359
)
;

boundaryField
{
    closed
    {
        type            calculated;
        value           nonuniform List<scalar> 0();
    }
    open
    {
        type            calculated;
        value           nonuniform List<scalar> 0();
    }
    sides
    {
        type            empty;
    }
    procBoundary2to1
    {
        type            processor;
        value           uniform 0.00108617089;
    }
    procBoundary2to3
    {
        type            processor;
        value           uniform 0.0068643082;
    }
}


// ************************************************************************* //
