/*--------------------------------*- C++ -*----------------------------------*\
| =========                 |                                                 |
| \\      /  F ield         | OpenFOAM: The Open Source CFD Toolbox           |
|  \\    /   O peration     | Version:  2306                                  |
|   \\  /    A nd           | Website:  www.openfoam.com                      |
|    \\/     M anipulation  |                                                 |
\*---------------------------------------------------------------------------*/
FoamFile
{
    version     2.0;
    format      ascii;
    arch        "LSB;label=32;scalar=64";
    class       volScalarField;
    location    "0.00096";
    object      prefDh_H2;
}
// * * * * * * * * * * * * * * * * * * * * * * * * * * * * * * * * * * * * * //

dimensions      [1 1 -3 0 0 0 0];

internalField   nonuniform List<scalar> 
530
(
38.6984924
28.6556711
26.7152163
27.6219658
25.9365939
26.2096842
38.8643571
38.8973456
27.5456775
26.9541145
38.9319358
38.8152263
27.4287767
26.9660516
39.07926
38.6235413
28.3824942
25.385329
26.913049
38.9035881
38.9320489
38.6206763
28.6492012
25.7762995
27.6014267
25.0602124
26.3140314
38.9090694
38.8855724
38.6482657
28.0620106
25.498517
25.7777312
38.8592853
38.7418403
28.6441965
24.9603583
26.6797995
38.9296796
38.8213241
38.7339652
28.8595592
26.0830611
26.3611724
38.8929382
38.7406382
28.7659479
25.9847831
27.5942696
25.3025228
26.486752
38.8817623
38.8594722
38.7540373
28.8017386
26.3244738
26.5889187
38.8559503
38.800302
28.8243213
26.9074091
26.9996643
38.828689
38.7617615
28.76951
27.0829532
27.1086569
38.7140198
38.8896656
28.9106166
27.0778503
27.2711013
38.8806122
38.6890607
28.5271467
26.54274
27.383609
25.5753378
25.604213
38.5860457
38.7891024
26.5188917
26.4192323
38.6013708
38.6809355
38.6503326
28.4535252
24.1593348
25.2048854
38.602548
38.5846141
26.6661184
23.7613723
24.1825402
38.4086527
38.6444082
38.4809573
38.697205
27.1501511
24.4327626
24.6411544
24.5235174
38.2809107
38.6021803
25.3895314
24.6744342
38.3376699
38.5091563
25.8914144
24.755715
38.3898684
38.3942843
26.9784137
23.8767515
25.5217751
38.3548546
38.5162164
38.5304284
27.1767368
25.0960541
25.2291005
38.3294607
38.4723051
27.3106127
24.6782944
25.3119838
38.3188571
38.4983622
26.1648396
25.1166029
38.3457825
38.3775785
25.9415557
23.5004212
24.0498428
38.1932837
38.7229767
25.23572
24.229208
38.1639623
38.6616084
25.0496308
24.2611987
38.2578197
38.6217736
25.0385693
24.5292929
38.342492
38.5859244
25.3538673
25.0739422
38.4166155
38.5129503
26.0002264
25.3625439
38.483424
38.43098
27.07213
24.4706933
26.6823459
38.2732242
38.6813272
38.5234556
27.6954355
24.970851
26.529627
24.7910217
25.3772498
38.2659308
38.7911475
26.1478818
25.5054996
38.3095997
38.6749922
26.1725305
25.8934086
38.4382936
38.6178783
26.0880994
25.7934296
38.4944511
38.5848363
26.1692873
24.5383808
25.9508393
38.482792
38.5961383
38.5435383
38.6057216
28.4444516
24.7931416
26.9160027
24.6112259
25.6366365
38.4671014
38.6115658
25.2686793
23.3265484
25.1004184
38.4267539
38.6903677
24.6257478
24.9212754
38.6236049
38.6606638
23.871554
25.746656
38.8211962
38.5469346
38.8841107
25.7451907
25.0322613
38.6874326
38.7578208
25.4958944
27.6867134
39.0079269
27.7839412
26.2251054
38.6609482
38.7544839
27.6439544
26.4699322
27.3097625
27.7024868
38.8773829
38.5691766
26.8053418
25.9884408
27.6733201
38.5502531
38.8168633
27.0107923
27.3653152
38.6907114
38.6354457
26.4225851
25.5629265
27.2727611
38.6285128
38.6560274
26.3982008
24.0985733
27.9680571
38.5629164
38.6894438
38.4974243
27.4823541
22.8678605
28.8839267
38.4968527
26.1605867
25.3078223
38.7854985
38.2840981
38.6966132
38.2127165
25.3331144
23.5775006
25.6424697
23.8115638
26.5538401
38.5270784
38.5457844
38.4553252
26.0579342
25.0219677
27.6561998
38.4662442
38.5189276
25.8495618
24.0969276
27.4527796
38.6043037
38.6009995
38.5041709
25.2016846
23.667267
26.873622
38.5483519
38.4239344
25.5202168
26.5264095
38.6536087
38.3522822
25.2531196
24.4189709
27.4038426
38.4403603
38.3767104
26.3652145
27.0874454
38.5561822
38.307009
26.0335891
23.4863155
28.1580327
38.522936
38.5142435
38.4452328
25.1606822
23.4432695
24.70381
26.2221162
38.6546234
38.2363028
25.2499399
26.6605186
38.7624654
38.1745576
25.9430841
27.0222915
38.7871257
38.3872313
25.6786011
24.0862832
28.0081474
38.6503674
38.7868915
38.5194175
27.4179472
27.9664867
38.7676823
38.5478553
26.4811646
26.4470281
26.8313979
28.4857353
38.9064716
38.5133604
27.0407921
24.1540322
28.622914
38.5499384
27.4583604
27.1545735
38.7982
38.4471199
26.3236253
29.1285638
38.9091494
28.4747152
26.7662855
38.6441249
38.5843286
26.0330582
24.4719477
27.5837437
38.5370369
38.621892
25.4271635
22.7598469
28.2436792
38.6516143
38.6956384
38.4456818
25.9401172
25.9913968
38.7265719
38.2891188
25.6120614
26.4160367
38.8095899
38.3246986
24.710002
23.7169386
26.9546431
38.4885392
38.6055786
26.206562
27.116168
38.641664
38.4893536
26.0557313
25.3814102
28.3029234
38.5487668
38.6592178
26.7649073
25.8140005
28.7184002
38.5669436
38.7356376
27.1423825
26.2107416
28.8740628
38.8159291
38.6314043
28.7123312
24.6446602
28.5120284
38.6964536
28.6690393
26.7731283
38.984074
38.6828431
27.5226019
25.8286722
28.6762991
38.818922
38.9253415
28.6926078
26.3868386
28.7419407
38.8569206
38.8838732
27.6127935
26.2321155
28.4881735
38.788433
38.8967444
27.5054341
26.0703301
28.3167123
38.7665
38.8541707
27.1344447
25.7658508
27.9597575
38.732826
38.8022428
26.5469152
25.1476097
27.4423497
38.7061156
38.7475491
26.4607409
26.830397
38.8124507
38.5925843
26.0873154
24.6981147
26.9903123
38.5991029
38.7461748
26.25315
26.5755932
38.7314252
38.5651831
26.0083421
24.6024014
26.8701421
38.5588168
38.6920257
26.2362631
26.5162375
38.6945552
38.5116224
26.0112674
24.5835883
26.7929519
38.5032459
38.6688035
26.1793781
26.3877693
38.6375029
38.495388
25.8981368
24.3646845
26.5775198
38.4977433
38.6038874
25.7827956
25.9767393
38.6537303
38.4168781
25.375708
23.6452572
25.8882092
38.4257167
38.6634941
25.3945461
25.6171381
38.6367448
38.4683919
25.3780359
25.9276311
38.7717601
38.3887022
25.4948127
25.853834
38.7937446
38.3767731
25.4161042
23.9413893
26.0555135
38.4499288
38.6901104
26.1447096
26.3492391
38.6590378
38.4787255
26.7838156
27.3096688
38.7461791
38.3218625
26.5326383
26.635341
25.4061177
28.0947572
38.860988
26.6209051
25.1452349
38.5106142
38.5731488
25.4536239
25.6424691
38.6758337
38.5253271
24.2814156
26.8241842
38.7118866
38.5917024
38.6608226
28.6173473
22.0478942
28.3577449
38.6906912
25.956928
25.5252151
38.7858619
38.5271235
38.7510115
26.4602877
24.2857003
26.4657846
38.6322666
38.6327108
26.2720432
25.0937951
)
;

boundaryField
{
    closed
    {
        type            calculated;
        value           nonuniform List<scalar> 0();
    }
    open
    {
        type            calculated;
        value           nonuniform List<scalar> 0();
    }
    sides
    {
        type            empty;
    }
    procBoundary2to1
    {
        type            processor;
        value           uniform 38.9960291;
    }
    procBoundary2to3
    {
        type            processor;
        value           uniform 26.5673463;
    }
}


// ************************************************************************* //
