/*--------------------------------*- C++ -*----------------------------------*\
| =========                 |                                                 |
| \\      /  F ield         | OpenFOAM: The Open Source CFD Toolbox           |
|  \\    /   O peration     | Version:  2306                                  |
|   \\  /    A nd           | Website:  www.openfoam.com                      |
|    \\/     M anipulation  |                                                 |
\*---------------------------------------------------------------------------*/
FoamFile
{
    version     2.0;
    format      ascii;
    arch        "LSB;label=32;scalar=64";
    class       volScalarField;
    location    "0.00052";
    object      alpha;
}
// * * * * * * * * * * * * * * * * * * * * * * * * * * * * * * * * * * * * * //

dimensions      [1 -1 -1 0 0 0 0];

internalField   nonuniform List<scalar> 
531
(
3.54114719e-05
3.5364005e-05
3.67860943e-05
3.68389739e-05
3.57144092e-05
3.51619784e-05
3.59705701e-05
3.68012708e-05
3.60361402e-05
3.52219391e-05
3.54291698e-05
3.68082597e-05
3.67745525e-05
3.67858554e-05
3.67236065e-05
3.57225255e-05
3.5303499e-05
3.50864506e-05
3.56994078e-05
3.68109309e-05
3.5803398e-05
3.53159383e-05
3.64158923e-05
3.68136367e-05
3.59699984e-05
3.54829107e-05
3.55860765e-05
3.67850382e-05
3.68465653e-05
3.61221848e-05
3.56655978e-05
3.50768847e-05
3.5085789e-05
3.68059018e-05
3.68225596e-05
3.58994177e-05
3.53565834e-05
3.54632507e-05
3.68373711e-05
3.68387005e-05
3.57735585e-05
3.51608171e-05
3.56614288e-05
3.68103484e-05
3.68772818e-05
3.68158435e-05
3.58321198e-05
3.55197387e-05
3.54936669e-05
3.52309947e-05
3.51098842e-05
3.58479947e-05
3.67367209e-05
3.68462992e-05
3.68004605e-05
3.56758963e-05
3.50790357e-05
3.57122537e-05
3.67384286e-05
3.68421227e-05
3.54971022e-05
3.51400443e-05
3.65304305e-05
3.6822933e-05
3.58503657e-05
3.56517204e-05
3.57353735e-05
3.59652025e-05
3.60949388e-05
3.58169382e-05
3.57586605e-05
3.58189581e-05
3.58874793e-05
3.58609825e-05
3.58221995e-05
3.58243048e-05
3.58384671e-05
3.58391443e-05
3.58351103e-05
3.58334756e-05
3.583397e-05
3.58344294e-05
3.58343046e-05
3.5834051e-05
3.5833992e-05
3.58339949e-05
3.58339808e-05
3.58339472e-05
3.58339255e-05
3.58339215e-05
3.5833914e-05
3.58339049e-05
3.58338994e-05
3.58338967e-05
3.58338945e-05
3.58338921e-05
3.58338906e-05
3.58338896e-05
3.58338889e-05
3.58338884e-05
3.5833888e-05
3.58338877e-05
3.58338875e-05
3.58338874e-05
3.58338872e-05
3.58338872e-05
3.58338871e-05
3.58338871e-05
3.58338871e-05
3.5833887e-05
3.5833887e-05
3.5833887e-05
3.58338871e-05
3.58338871e-05
3.58338869e-05
3.58338868e-05
3.5833887e-05
3.58338874e-05
3.58338872e-05
3.58338864e-05
3.58338865e-05
3.58338879e-05
3.5833888e-05
3.58338862e-05
3.58338855e-05
3.58338873e-05
3.58338889e-05
3.58338876e-05
3.5833885e-05
3.58338854e-05
3.58338886e-05
3.58338889e-05
3.58338864e-05
3.58338853e-05
3.58338866e-05
3.58338882e-05
3.58338879e-05
3.58338863e-05
3.58338862e-05
3.58338871e-05
3.58338875e-05
3.58338871e-05
3.58338868e-05
3.58338868e-05
3.58338871e-05
3.58338871e-05
3.5833887e-05
3.5833887e-05
3.5833887e-05
3.5833887e-05
3.5833887e-05
3.5833887e-05
3.5833887e-05
3.5833887e-05
3.5833887e-05
3.5833887e-05
3.5833887e-05
3.5833887e-05
3.58338869e-05
3.5833887e-05
3.58338871e-05
3.58338871e-05
3.58338869e-05
3.58338869e-05
3.5833887e-05
3.58338871e-05
3.5833887e-05
3.58338869e-05
3.58338869e-05
3.58338871e-05
3.58338871e-05
3.5833887e-05
3.5833887e-05
3.5833887e-05
3.5833887e-05
3.5833887e-05
3.5833887e-05
3.5833887e-05
3.5833887e-05
3.5833887e-05
3.5833887e-05
3.5833887e-05
3.5833887e-05
3.5833887e-05
3.5833887e-05
3.5833887e-05
3.5833887e-05
3.5833887e-05
3.5833887e-05
3.5833887e-05
3.5833887e-05
3.5833887e-05
3.5833887e-05
3.5833887e-05
3.5833887e-05
3.5833887e-05
3.5833887e-05
3.5833887e-05
3.5833887e-05
3.5833887e-05
3.5833887e-05
3.5833887e-05
3.5833887e-05
3.5833887e-05
3.5833887e-05
3.5833887e-05
3.5833887e-05
3.5833887e-05
3.5833887e-05
3.5833887e-05
3.5833887e-05
3.5833887e-05
3.5833887e-05
3.5833887e-05
3.5833887e-05
3.5833887e-05
3.5833887e-05
3.5833887e-05
3.5833887e-05
3.5833887e-05
3.5833887e-05
3.5833887e-05
3.5833887e-05
3.5833887e-05
3.5833887e-05
3.5833887e-05
3.5833887e-05
3.5833887e-05
3.5833887e-05
3.5833887e-05
3.5833887e-05
3.5833887e-05
3.5833887e-05
3.5833887e-05
3.5833887e-05
3.5833887e-05
3.5833887e-05
3.5833887e-05
3.5833887e-05
3.5833887e-05
3.5833887e-05
3.5833887e-05
3.5833887e-05
3.5833887e-05
3.5833887e-05
3.5833887e-05
3.5833887e-05
3.5833887e-05
3.5833887e-05
3.5833887e-05
3.5833887e-05
3.5833887e-05
3.5833887e-05
3.5833887e-05
3.5833887e-05
3.5833887e-05
3.5833887e-05
3.5833887e-05
3.5833887e-05
3.5833887e-05
3.5833887e-05
3.5833887e-05
3.5833887e-05
3.5833887e-05
3.5833887e-05
3.5833887e-05
3.5833887e-05
3.5833887e-05
3.5833887e-05
3.5833887e-05
3.5833887e-05
3.5833887e-05
3.5833887e-05
3.5833887e-05
3.5833887e-05
3.5833887e-05
3.5833887e-05
3.5833887e-05
3.5833887e-05
3.5833887e-05
3.5833887e-05
3.5833887e-05
3.5833887e-05
3.5833887e-05
3.5833887e-05
3.5833887e-05
3.5833887e-05
3.5833887e-05
3.5833887e-05
3.5833887e-05
3.5833887e-05
3.5833887e-05
3.5833887e-05
3.5833887e-05
3.5833887e-05
3.5833887e-05
3.5833887e-05
3.5833887e-05
3.5833887e-05
3.5833887e-05
3.5833887e-05
3.5833887e-05
3.5833887e-05
3.5833887e-05
3.5833887e-05
3.5833887e-05
3.5833887e-05
3.5833887e-05
3.5833887e-05
3.5833887e-05
3.5833887e-05
3.5833887e-05
3.5833887e-05
3.5833887e-05
3.5833887e-05
3.5833887e-05
3.5833887e-05
3.5833887e-05
3.5833887e-05
3.5833887e-05
3.5833887e-05
3.5833887e-05
3.5833887e-05
3.5833887e-05
3.5833887e-05
3.5833887e-05
3.5833887e-05
3.5833887e-05
3.5833887e-05
3.5833887e-05
3.5833887e-05
3.5833887e-05
3.5833887e-05
3.5833887e-05
3.5833887e-05
3.5833887e-05
3.5833887e-05
3.5833887e-05
3.5833887e-05
3.5833887e-05
3.5833887e-05
3.5833887e-05
3.5833887e-05
3.5833887e-05
3.5833887e-05
3.5833887e-05
3.5833887e-05
3.5833887e-05
3.5833887e-05
3.5833887e-05
3.5833887e-05
3.5833887e-05
3.5833887e-05
3.5833887e-05
3.5833887e-05
3.5833887e-05
3.5833887e-05
3.5833887e-05
3.5833887e-05
3.5833887e-05
3.5833887e-05
3.5833887e-05
3.5833887e-05
3.5833887e-05
3.5833887e-05
3.5833887e-05
3.5833887e-05
3.5833887e-05
3.5833887e-05
3.5833887e-05
3.5833887e-05
3.5833887e-05
3.5833887e-05
3.5833887e-05
3.5833887e-05
3.5833887e-05
3.5833887e-05
3.5833887e-05
3.5833887e-05
3.5833887e-05
3.5833887e-05
3.5833887e-05
3.5833887e-05
3.58338869e-05
3.58338869e-05
3.58338873e-05
3.58338873e-05
3.58338865e-05
3.58338861e-05
3.58338877e-05
3.58338891e-05
3.58338866e-05
3.58338827e-05
3.58338859e-05
3.58338951e-05
3.58338925e-05
3.58338733e-05
3.58338728e-05
3.58339062e-05
3.58339123e-05
3.58338694e-05
3.5833847e-05
3.58338936e-05
3.58339427e-05
3.58339038e-05
3.58338191e-05
3.58338364e-05
3.5833958e-05
3.58339658e-05
3.58338363e-05
3.58337949e-05
3.58338957e-05
3.58339791e-05
3.58339206e-05
3.58338101e-05
3.5833825e-05
3.58339382e-05
3.58339489e-05
3.58338721e-05
3.58338385e-05
3.58338747e-05
3.58339178e-05
3.5833912e-05
3.58338792e-05
3.58338651e-05
3.5833862e-05
3.58338864e-05
3.58339574e-05
3.58339636e-05
3.58337453e-05
3.58336574e-05
3.58341237e-05
3.58346321e-05
3.58337606e-05
3.58319478e-05
3.58329654e-05
3.58394541e-05
3.58395752e-05
3.58227292e-05
3.58194073e-05
3.58540182e-05
3.58772233e-05
3.58169848e-05
3.57675868e-05
3.58316858e-05
3.60286321e-05
3.59236284e-05
3.57545439e-05
3.57444994e-05
3.65817007e-05
3.65707189e-05
3.54903698e-05
3.53620957e-05
3.64567356e-05
3.68146666e-05
3.58120658e-05
3.52297788e-05
3.56960996e-05
3.67716491e-05
3.63852546e-05
3.53571062e-05
3.56826928e-05
3.6771949e-05
3.64511848e-05
3.54598301e-05
3.56924415e-05
3.6790209e-05
3.68543596e-05
3.57425724e-05
3.5146678e-05
3.56366052e-05
3.66897888e-05
3.6854702e-05
3.65439466e-05
3.56918084e-05
3.55370643e-05
3.54994541e-05
3.53385938e-05
3.56983583e-05
3.67519553e-05
3.68467753e-05
3.58645726e-05
3.54281093e-05
3.56941877e-05
3.67627161e-05
3.68549502e-05
3.57972549e-05
3.52590353e-05
3.56943366e-05
3.67606917e-05
3.68452608e-05
3.57149469e-05
3.50597371e-05
3.546151e-05
3.67436603e-05
3.68500009e-05
3.57401915e-05
3.51745115e-05
3.56900164e-05
3.67257919e-05
3.68491503e-05
3.57202755e-05
3.53019599e-05
3.58505381e-05
3.67914931e-05
3.68080033e-05
3.56604549e-05
3.50429031e-05
3.56560982e-05
3.66062761e-05
3.68584222e-05
3.6803106e-05
3.57087121e-05
3.53188553e-05
3.51797356e-05
3.57039789e-05
3.67534736e-05
3.62064747e-05
3.55573282e-05
3.5718712e-05
3.67476892e-05
3.68428411e-05
3.56951088e-05
3.52024967e-05
3.62200073e-05
3.67997736e-05
3.58541626e-05
3.54699606e-05
3.57438159e-05
3.67608474e-05
3.67991076e-05
)
;

boundaryField
{
    closed
    {
        type            calculated;
        value           nonuniform List<scalar> 0();
    }
    open
    {
        type            calculated;
        value           nonuniform List<scalar> 0();
    }
    sides
    {
        type            empty;
    }
    procBoundary3to2
    {
        type            processor;
        value           uniform 3.68005247e-05;
    }
    procBoundary3to4
    {
        type            processor;
        value           uniform 3.55023556e-05;
    }
}


// ************************************************************************* //
