/*--------------------------------*- C++ -*----------------------------------*\
| =========                 |                                                 |
| \\      /  F ield         | OpenFOAM: The Open Source CFD Toolbox           |
|  \\    /   O peration     | Version:  2306                                  |
|   \\  /    A nd           | Website:  www.openfoam.com                      |
|    \\/     M anipulation  |                                                 |
\*---------------------------------------------------------------------------*/
FoamFile
{
    version     2.0;
    format      ascii;
    arch        "LSB;label=32;scalar=64";
    class       volScalarField;
    location    "0.00052";
    object      mu;
}
// * * * * * * * * * * * * * * * * * * * * * * * * * * * * * * * * * * * * * //

dimensions      [1 -1 -1 0 0 0 0];

internalField   nonuniform List<scalar> 
531
(
1.96001625e-05
1.9574524e-05
2.0260782e-05
2.03022989e-05
1.97551922e-05
1.94675489e-05
1.98584483e-05
2.0276318e-05
1.98894865e-05
1.94985811e-05
1.96102677e-05
2.02727872e-05
2.0261845e-05
2.02698519e-05
2.02161708e-05
1.97662041e-05
1.95427946e-05
1.94266719e-05
1.97541018e-05
2.02772141e-05
1.97871802e-05
1.95497928e-05
2.00684081e-05
2.02870618e-05
1.98598559e-05
1.96386245e-05
1.9695054e-05
2.0261669e-05
2.03114521e-05
1.99293672e-05
1.97390637e-05
1.94201968e-05
1.94269522e-05
2.02668242e-05
2.02927722e-05
1.98290191e-05
1.95717803e-05
1.96291276e-05
2.02939028e-05
2.03034464e-05
1.97738148e-05
1.94666638e-05
1.97288963e-05
2.02769708e-05
2.03298273e-05
2.02921485e-05
1.9799492e-05
1.96589751e-05
1.9644977e-05
1.95045315e-05
1.94380607e-05
1.9804024e-05
2.02329651e-05
2.03080146e-05
2.02756089e-05
1.97431108e-05
1.9420116e-05
1.97574406e-05
2.02346787e-05
2.03001314e-05
1.96465474e-05
1.94551452e-05
2.01233224e-05
2.02926353e-05
1.9808892e-05
1.9730413e-05
1.9772827e-05
1.9857287e-05
1.99165484e-05
1.97926765e-05
1.9770285e-05
1.97930677e-05
1.98223352e-05
1.98106357e-05
1.97939235e-05
1.97947229e-05
1.98006712e-05
1.98009199e-05
1.97991557e-05
1.97984286e-05
1.97986242e-05
1.97988048e-05
1.97987436e-05
1.97986264e-05
1.97985966e-05
1.97985935e-05
1.97985848e-05
1.97985681e-05
1.97985572e-05
1.97985542e-05
1.979855e-05
1.97985454e-05
1.97985426e-05
1.9798541e-05
1.97985398e-05
1.97985386e-05
1.97985378e-05
1.97985372e-05
1.97985368e-05
1.97985366e-05
1.97985363e-05
1.97985362e-05
1.97985361e-05
1.9798536e-05
1.9798536e-05
1.97985359e-05
1.97985359e-05
1.97985359e-05
1.97985359e-05
1.97985358e-05
1.97985358e-05
1.97985358e-05
1.97985358e-05
1.97985359e-05
1.97985358e-05
1.97985357e-05
1.97985358e-05
1.9798536e-05
1.97985359e-05
1.97985355e-05
1.97985356e-05
1.97985362e-05
1.97985362e-05
1.97985355e-05
1.97985352e-05
1.97985359e-05
1.97985366e-05
1.97985361e-05
1.9798535e-05
1.97985351e-05
1.97985365e-05
1.97985366e-05
1.97985356e-05
1.97985351e-05
1.97985357e-05
1.97985363e-05
1.97985362e-05
1.97985355e-05
1.97985355e-05
1.97985359e-05
1.9798536e-05
1.97985359e-05
1.97985357e-05
1.97985357e-05
1.97985359e-05
1.97985359e-05
1.97985358e-05
1.97985358e-05
1.97985358e-05
1.97985358e-05
1.97985358e-05
1.97985358e-05
1.97985358e-05
1.97985358e-05
1.97985358e-05
1.97985358e-05
1.97985358e-05
1.97985358e-05
1.97985358e-05
1.97985358e-05
1.97985358e-05
1.97985358e-05
1.97985358e-05
1.97985358e-05
1.97985358e-05
1.97985359e-05
1.97985358e-05
1.97985358e-05
1.97985358e-05
1.97985358e-05
1.97985358e-05
1.97985358e-05
1.97985358e-05
1.97985358e-05
1.97985358e-05
1.97985358e-05
1.97985358e-05
1.97985358e-05
1.97985358e-05
1.97985358e-05
1.97985358e-05
1.97985358e-05
1.97985358e-05
1.97985358e-05
1.97985358e-05
1.97985358e-05
1.97985358e-05
1.97985358e-05
1.97985358e-05
1.97985358e-05
1.97985358e-05
1.97985358e-05
1.97985358e-05
1.97985358e-05
1.97985358e-05
1.97985358e-05
1.97985358e-05
1.97985358e-05
1.97985358e-05
1.97985358e-05
1.97985358e-05
1.97985358e-05
1.97985358e-05
1.97985358e-05
1.97985358e-05
1.97985358e-05
1.97985358e-05
1.97985358e-05
1.97985358e-05
1.97985358e-05
1.97985358e-05
1.97985358e-05
1.97985358e-05
1.97985358e-05
1.97985358e-05
1.97985358e-05
1.97985358e-05
1.97985358e-05
1.97985358e-05
1.97985358e-05
1.97985358e-05
1.97985358e-05
1.97985358e-05
1.97985358e-05
1.97985358e-05
1.97985358e-05
1.97985358e-05
1.97985358e-05
1.97985358e-05
1.97985358e-05
1.97985358e-05
1.97985358e-05
1.97985358e-05
1.97985358e-05
1.97985358e-05
1.97985358e-05
1.97985358e-05
1.97985358e-05
1.97985358e-05
1.97985358e-05
1.97985358e-05
1.97985358e-05
1.97985358e-05
1.97985358e-05
1.97985358e-05
1.97985358e-05
1.97985358e-05
1.97985358e-05
1.97985358e-05
1.97985358e-05
1.97985358e-05
1.97985358e-05
1.97985358e-05
1.97985358e-05
1.97985358e-05
1.97985358e-05
1.97985358e-05
1.97985358e-05
1.97985358e-05
1.97985358e-05
1.97985358e-05
1.97985358e-05
1.97985358e-05
1.97985358e-05
1.97985358e-05
1.97985358e-05
1.97985358e-05
1.97985358e-05
1.97985358e-05
1.97985358e-05
1.97985358e-05
1.97985358e-05
1.97985358e-05
1.97985358e-05
1.97985358e-05
1.97985358e-05
1.97985358e-05
1.97985358e-05
1.97985358e-05
1.97985358e-05
1.97985358e-05
1.97985358e-05
1.97985358e-05
1.97985358e-05
1.97985358e-05
1.97985358e-05
1.97985358e-05
1.97985358e-05
1.97985358e-05
1.97985358e-05
1.97985358e-05
1.97985358e-05
1.97985358e-05
1.97985358e-05
1.97985358e-05
1.97985358e-05
1.97985358e-05
1.97985358e-05
1.97985358e-05
1.97985358e-05
1.97985358e-05
1.97985358e-05
1.97985358e-05
1.97985358e-05
1.97985358e-05
1.97985358e-05
1.97985358e-05
1.97985358e-05
1.97985358e-05
1.97985358e-05
1.97985358e-05
1.97985358e-05
1.97985358e-05
1.97985358e-05
1.97985358e-05
1.97985358e-05
1.97985358e-05
1.97985358e-05
1.97985358e-05
1.97985358e-05
1.97985358e-05
1.97985358e-05
1.97985358e-05
1.97985358e-05
1.97985358e-05
1.97985358e-05
1.97985358e-05
1.97985358e-05
1.97985358e-05
1.97985358e-05
1.97985358e-05
1.97985358e-05
1.97985358e-05
1.97985358e-05
1.97985358e-05
1.97985358e-05
1.97985358e-05
1.97985358e-05
1.97985358e-05
1.97985358e-05
1.97985358e-05
1.97985358e-05
1.97985358e-05
1.97985358e-05
1.97985358e-05
1.97985358e-05
1.97985358e-05
1.97985358e-05
1.97985358e-05
1.97985358e-05
1.97985358e-05
1.97985358e-05
1.97985358e-05
1.97985358e-05
1.97985358e-05
1.97985358e-05
1.97985358e-05
1.97985358e-05
1.97985358e-05
1.97985358e-05
1.97985358e-05
1.97985358e-05
1.97985358e-05
1.97985358e-05
1.97985358e-05
1.97985358e-05
1.97985358e-05
1.97985358e-05
1.97985358e-05
1.97985358e-05
1.97985358e-05
1.97985358e-05
1.97985358e-05
1.97985358e-05
1.97985358e-05
1.97985358e-05
1.97985358e-05
1.97985358e-05
1.97985358e-05
1.97985358e-05
1.97985358e-05
1.97985358e-05
1.97985358e-05
1.97985358e-05
1.97985358e-05
1.97985359e-05
1.9798536e-05
1.97985356e-05
1.97985354e-05
1.97985361e-05
1.97985367e-05
1.97985356e-05
1.9798534e-05
1.97985354e-05
1.97985393e-05
1.97985382e-05
1.97985299e-05
1.97985297e-05
1.9798544e-05
1.97985466e-05
1.97985283e-05
1.97985187e-05
1.97985386e-05
1.97985597e-05
1.9798543e-05
1.97985067e-05
1.97985141e-05
1.97985663e-05
1.97985696e-05
1.97985141e-05
1.97984963e-05
1.97985396e-05
1.97985753e-05
1.97985502e-05
1.97985029e-05
1.97985093e-05
1.97985578e-05
1.97985623e-05
1.97985294e-05
1.97985151e-05
1.97985306e-05
1.9798549e-05
1.97985465e-05
1.97985325e-05
1.97985265e-05
1.97985252e-05
1.97985356e-05
1.97985662e-05
1.97985689e-05
1.97984755e-05
1.97984384e-05
1.97986381e-05
1.97988582e-05
1.97984836e-05
1.97977147e-05
1.97981471e-05
1.98009506e-05
1.98010015e-05
1.97938379e-05
1.97924644e-05
1.98073155e-05
1.98175582e-05
1.97915512e-05
1.9772348e-05
1.97979384e-05
1.98860356e-05
1.98384571e-05
1.9782758e-05
1.97735841e-05
2.01468584e-05
2.014147e-05
1.96416768e-05
1.95735503e-05
2.00873682e-05
2.02862638e-05
1.97917148e-05
1.95029958e-05
1.97466899e-05
2.02533721e-05
2.00530032e-05
1.95711793e-05
1.97471583e-05
2.0252173e-05
2.00844473e-05
1.96266635e-05
1.9752531e-05
2.02642126e-05
2.03101521e-05
1.9760944e-05
1.94574551e-05
1.97238266e-05
2.01982959e-05
2.03159004e-05
2.01277242e-05
1.97460837e-05
1.96668143e-05
1.96492791e-05
1.95608925e-05
1.9755267e-05
2.02401354e-05
2.03090356e-05
1.98137629e-05
1.96099019e-05
1.97480141e-05
2.02482611e-05
2.03119899e-05
1.97846566e-05
1.95188565e-05
1.9750495e-05
2.02458896e-05
2.03027335e-05
1.97514513e-05
1.94110342e-05
1.96282406e-05
2.02317473e-05
2.03066886e-05
1.97613762e-05
1.94727904e-05
1.97512758e-05
2.02235402e-05
2.03060529e-05
1.97577026e-05
1.95416901e-05
1.98051607e-05
2.02706041e-05
2.02793676e-05
1.97301317e-05
1.94005115e-05
1.9734504e-05
2.01581763e-05
2.03177359e-05
2.02763253e-05
1.97505624e-05
1.9551014e-05
1.94768223e-05
1.97581175e-05
2.02398494e-05
1.99684887e-05
1.96786754e-05
1.97549354e-05
2.02404801e-05
2.03004038e-05
1.975192e-05
1.94884157e-05
1.99750598e-05
2.02764603e-05
1.98097048e-05
1.96319496e-05
1.97642859e-05
2.02485971e-05
2.02697499e-05
)
;

boundaryField
{
    closed
    {
        type            calculated;
        value           nonuniform List<scalar> 0();
    }
    open
    {
        type            calculated;
        value           nonuniform List<scalar> 0();
    }
    sides
    {
        type            empty;
    }
    procBoundary3to2
    {
        type            processor;
        value           uniform 2.02672495e-05;
    }
    procBoundary3to4
    {
        type            processor;
        value           uniform 1.9651471e-05;
    }
}


// ************************************************************************* //
