/*--------------------------------*- C++ -*----------------------------------*\
| =========                 |                                                 |
| \\      /  F ield         | OpenFOAM: The Open Source CFD Toolbox           |
|  \\    /   O peration     | Version:  2306                                  |
|   \\  /    A nd           | Website:  www.openfoam.com                      |
|    \\/     M anipulation  |                                                 |
\*---------------------------------------------------------------------------*/
FoamFile
{
    version     2.0;
    format      ascii;
    arch        "LSB;label=32;scalar=64";
    class       volScalarField;
    location    "0.00052";
    object      prefDh_H2O;
}
// * * * * * * * * * * * * * * * * * * * * * * * * * * * * * * * * * * * * * //

dimensions      [1 1 -3 0 0 0 0];

internalField   nonuniform List<scalar> 
531
(
88.0411466
88.0047912
92.7424674
92.3593707
88.7345274
87.7987337
90.5356876
92.5133117
90.7453899
87.877613
88.0417526
92.7598221
92.4926955
92.4394512
93.0481108
88.3908162
87.9354765
87.7441374
88.3754645
92.6636376
89.5545973
87.9381959
92.0962004
92.3897213
90.4318702
88.0992352
88.1635343
92.6935609
92.1993453
91.0719809
88.2032168
87.7703961
87.7275473
92.9126248
92.3677094
90.0598388
87.968589
88.0575608
92.606133
92.3165327
89.4177549
87.8042806
88.6263525
92.6608051
92.1655216
92.2634801
89.7162232
88.1171351
88.0948314
87.8582951
87.7937796
89.9308357
92.7391996
92.3074563
92.5215795
88.2921185
87.8040423
88.5583977
92.7145851
92.4893324
88.104188
87.7961558
92.4518782
92.3791526
89.7337524
88.2177672
88.404702
90.4342548
90.9841871
89.64731
89.1831601
89.6843362
90.0791981
89.9469034
89.7316143
89.7491408
89.8361238
89.8422559
89.8212763
89.8134462
89.8171462
89.8206516
89.8203659
89.8193935
89.819305
89.8195583
89.819627
89.8195607
89.8195265
89.8195731
89.8195849
89.8195695
89.8195646
89.8195726
89.8195753
89.8195737
89.8195733
89.819574
89.8195743
89.8195745
89.8195746
89.8195746
89.8195746
89.8195747
89.8195748
89.8195747
89.8195747
89.8195748
89.8195748
89.8195748
89.8195746
89.8195746
89.819575
89.8195752
89.8195745
89.8195737
89.8195749
89.8195769
89.8195757
89.8195712
89.8195718
89.8195798
89.8195804
89.8195701
89.8195662
89.8195765
89.8195857
89.8195783
89.8195634
89.8195657
89.819584
89.8195856
89.8195714
89.819565
89.8195726
89.8195818
89.8195797
89.8195709
89.8195704
89.8195756
89.8195774
89.8195756
89.8195735
89.8195738
89.8195752
89.8195753
89.8195748
89.8195746
89.8195747
89.8195748
89.8195748
89.8195748
89.8195748
89.8195747
89.8195747
89.8195748
89.819575
89.8195748
89.8195745
89.8195746
89.8195752
89.8195751
89.8195744
89.8195743
89.8195749
89.8195753
89.819575
89.8195743
89.8195743
89.8195751
89.8195752
89.8195747
89.8195745
89.8195747
89.8195749
89.8195749
89.8195747
89.8195747
89.8195748
89.8195748
89.8195748
89.8195748
89.8195748
89.8195748
89.8195748
89.8195748
89.8195748
89.8195748
89.8195748
89.8195748
89.8195748
89.8195748
89.8195748
89.8195748
89.8195748
89.8195748
89.8195748
89.8195748
89.8195748
89.8195748
89.8195748
89.8195748
89.8195748
89.8195748
89.8195748
89.8195748
89.8195748
89.8195748
89.8195748
89.8195748
89.8195748
89.8195748
89.8195748
89.8195748
89.8195748
89.8195748
89.8195748
89.8195748
89.8195748
89.8195748
89.8195748
89.8195748
89.8195748
89.8195748
89.8195748
89.8195748
89.8195748
89.8195748
89.8195748
89.8195748
89.8195748
89.8195748
89.8195748
89.8195748
89.8195748
89.8195748
89.8195748
89.8195748
89.8195748
89.8195748
89.8195748
89.8195748
89.8195748
89.8195748
89.8195748
89.8195748
89.8195748
89.8195748
89.8195748
89.8195748
89.8195748
89.8195748
89.8195748
89.8195748
89.8195748
89.8195748
89.8195748
89.8195748
89.8195748
89.8195748
89.8195748
89.8195747
89.8195747
89.8195748
89.8195749
89.8195748
89.8195746
89.8195747
89.8195749
89.8195749
89.8195747
89.8195747
89.8195747
89.8195749
89.8195748
89.8195747
89.8195747
89.8195748
89.8195748
89.8195748
89.8195748
89.8195748
89.8195748
89.8195748
89.8195748
89.8195748
89.8195748
89.8195748
89.8195748
89.8195748
89.8195748
89.8195748
89.8195748
89.8195748
89.8195747
89.8195748
89.8195748
89.8195748
89.8195747
89.8195747
89.8195748
89.8195748
89.8195748
89.8195747
89.8195747
89.8195748
89.8195748
89.8195748
89.8195748
89.8195748
89.8195748
89.8195748
89.8195748
89.8195748
89.8195748
89.8195748
89.8195748
89.8195748
89.8195748
89.8195748
89.8195748
89.8195748
89.8195748
89.8195748
89.8195748
89.8195748
89.8195748
89.8195748
89.8195748
89.8195748
89.8195748
89.8195748
89.8195748
89.8195748
89.8195748
89.8195748
89.8195748
89.8195748
89.8195748
89.8195748
89.8195748
89.8195748
89.8195748
89.8195748
89.8195748
89.8195748
89.8195748
89.8195748
89.8195748
89.8195748
89.8195748
89.8195748
89.8195747
89.8195748
89.8195748
89.8195748
89.8195747
89.8195747
89.8195749
89.8195749
89.8195747
89.8195746
89.8195747
89.8195749
89.8195749
89.8195747
89.8195747
89.8195748
89.8195748
89.8195748
89.8195748
89.8195748
89.8195748
89.8195748
89.8195748
89.8195748
89.8195748
89.8195748
89.8195748
89.8195747
89.8195747
89.819575
89.819575
89.8195741
89.8195741
89.8195763
89.8195768
89.8195721
89.8195696
89.8195786
89.8195865
89.8195723
89.8195502
89.8195688
89.819621
89.819606
89.8194967
89.8194939
89.8196837
89.8197184
89.8194745
89.8193474
89.8196123
89.8198913
89.8196703
89.8191886
89.8192873
89.8199785
89.8200225
89.8192868
89.819051
89.8196244
89.8200985
89.8197659
89.8191379
89.8192225
89.8198658
89.8199265
89.8194898
89.8192991
89.8195049
89.8197491
89.8197164
89.8195288
89.8194493
89.8194282
89.8195677
89.8199642
89.8199959
89.8187462
89.8182181
89.8208729
89.8236385
89.818749
89.8080095
89.8139942
89.8496372
89.850383
89.7516516
89.7300952
89.9257858
90.04184
89.709576
89.3261511
89.7881249
90.7148939
90.2515427
88.4229571
88.617473
92.6519751
92.6226997
88.1281864
88.0019381
92.2454791
92.4351198
89.5594192
87.8790508
88.6667338
92.7175251
92.0237571
87.9902703
88.2421009
92.7626151
92.2376369
88.0693992
88.2475181
92.7060702
92.3869878
89.2222546
87.8332667
88.1706066
93.0046937
92.2041796
92.5760149
88.5789815
88.1662314
88.072053
87.9831337
88.2866098
92.7867423
92.2827134
89.8798816
88.0360201
88.5450855
92.7195172
92.3374573
89.5142174
87.8997476
88.4211456
92.7599241
92.4620225
88.9444265
87.7552057
88.0549568
92.9085592
92.4199578
89.132269
87.8463757
88.2617392
92.8460046
92.4250693
88.7673375
87.9409698
89.9427843
92.5194996
92.5381734
88.5350451
87.7799958
88.1885662
92.7476063
92.2129126
92.5472148
88.8165882
87.9490238
87.8200306
88.2950876
92.8244469
91.4067018
88.1605377
88.8677139
92.6959771
92.4937353
88.3690834
87.8546106
91.4592595
92.4807834
89.7991131
88.0816405
89.0812411
92.6736701
92.6893711
)
;

boundaryField
{
    closed
    {
        type            calculated;
        value           nonuniform List<scalar> 0();
    }
    open
    {
        type            calculated;
        value           nonuniform List<scalar> 0();
    }
    sides
    {
        type            empty;
    }
    procBoundary3to2
    {
        type            processor;
        value           uniform 92.7982334;
    }
    procBoundary3to4
    {
        type            processor;
        value           uniform 88.0600274;
    }
}


// ************************************************************************* //
