/*--------------------------------*- C++ -*----------------------------------*\
| =========                 |                                                 |
| \\      /  F ield         | OpenFOAM: The Open Source CFD Toolbox           |
|  \\    /   O peration     | Version:  2306                                  |
|   \\  /    A nd           | Website:  www.openfoam.com                      |
|    \\/     M anipulation  |                                                 |
\*---------------------------------------------------------------------------*/
FoamFile
{
    version     2.0;
    format      ascii;
    arch        "LSB;label=32;scalar=64";
    class       volScalarField;
    location    "0.00052";
    object      prefDh_T;
}
// * * * * * * * * * * * * * * * * * * * * * * * * * * * * * * * * * * * * * //

dimensions      [1 1 -3 -1 0 0 0];

internalField   nonuniform List<scalar> 
531
(
-0.000546543312
-0.00053772517
-0.00073224647
-0.00074689129
-0.000590734829
-0.000499958246
-0.000604863126
-0.000737659319
-0.000614913915
-0.000511212868
-0.000549741545
-0.00073657582
-0.00073243278
-0.000735269401
-0.00071643749
-0.000601255492
-0.000526369571
-0.000485900122
-0.000596257483
-0.000738098901
-0.000590804101
-0.000528646069
-0.000669090637
-0.000741425247
-0.000607460962
-0.00055981519
-0.000578744144
-0.000732529395
-0.000750050653
-0.000626760521
-0.000593084005
-0.000484138418
-0.000485752814
-0.000734534679
-0.000743464139
-0.000600432357
-0.000536179146
-0.00055596979
-0.000744063565
-0.00074726796
-0.000587296245
-0.000499759272
-0.00058110801
-0.000738009229
-0.000756653774
-0.000743146177
-0.000593419365
-0.000566546481
-0.000561706973
-0.000512808709
-0.000490307336
-0.000591654655
-0.000722248283
-0.000748907641
-0.000737410765
-0.000592873834
-0.000484536172
-0.000594658489
-0.000722844909
-0.000746217262
-0.000562397206
-0.000495907771
-0.000686801017
-0.000743424674
-0.000597249447
-0.000590869437
-0.000603899104
-0.000606262275
-0.000622569398
-0.000591616985
-0.000589752894
-0.000591147114
-0.000597124651
-0.000594294773
-0.00059070099
-0.000590747163
-0.000591845992
-0.00059184797
-0.000591438087
-0.000591254798
-0.000591276155
-0.00059129426
-0.000591272266
-0.000591237635
-0.000591226059
-0.000591220242
-0.000591215176
-0.000591208999
-0.000591204762
-0.000591202632
-0.000591200569
-0.000591198831
-0.000591197678
-0.000591196831
-0.000591196252
-0.000591195731
-0.000591195385
-0.000591195138
-0.000591194961
-0.00059119483
-0.000591194736
-0.000591194667
-0.000591194618
-0.000591194585
-0.00059119456
-0.000591194542
-0.000591194528
-0.000591194521
-0.000591194516
-0.000591194512
-0.000591194505
-0.000591194503
-0.000591194508
-0.00059119451
-0.000591194498
-0.000591194485
-0.000591194503
-0.000591194534
-0.000591194515
-0.000591194445
-0.000591194454
-0.000591194579
-0.000591194589
-0.000591194428
-0.000591194366
-0.000591194528
-0.000591194672
-0.000591194557
-0.000591194323
-0.000591194358
-0.000591194645
-0.000591194671
-0.000591194448
-0.000591194347
-0.000591194467
-0.000591194612
-0.000591194578
-0.00059119444
-0.000591194432
-0.000591194514
-0.000591194543
-0.000591194514
-0.000591194481
-0.000591194486
-0.000591194508
-0.000591194509
-0.000591194501
-0.000591194498
-0.000591194499
-0.000591194502
-0.000591194502
-0.000591194502
-0.000591194502
-0.0005911945
-0.000591194499
-0.000591194502
-0.000591194504
-0.000591194501
-0.000591194496
-0.000591194498
-0.000591194507
-0.000591194506
-0.000591194496
-0.000591194493
-0.000591194503
-0.000591194509
-0.000591194504
-0.000591194494
-0.000591194494
-0.000591194506
-0.000591194507
-0.0005911945
-0.000591194497
-0.000591194499
-0.000591194503
-0.000591194503
-0.0005911945
-0.0005911945
-0.000591194501
-0.000591194501
-0.000591194501
-0.000591194501
-0.000591194501
-0.000591194501
-0.000591194501
-0.000591194501
-0.000591194501
-0.000591194501
-0.000591194501
-0.000591194501
-0.000591194501
-0.000591194501
-0.000591194501
-0.000591194501
-0.000591194501
-0.000591194501
-0.000591194501
-0.000591194501
-0.000591194501
-0.000591194501
-0.000591194501
-0.000591194501
-0.000591194501
-0.000591194501
-0.000591194501
-0.000591194501
-0.000591194501
-0.000591194501
-0.000591194501
-0.000591194501
-0.000591194501
-0.000591194501
-0.000591194501
-0.000591194501
-0.000591194501
-0.000591194501
-0.000591194501
-0.000591194501
-0.000591194501
-0.000591194501
-0.000591194501
-0.000591194501
-0.000591194501
-0.000591194501
-0.000591194501
-0.000591194501
-0.000591194501
-0.000591194501
-0.000591194501
-0.000591194501
-0.000591194501
-0.000591194501
-0.000591194501
-0.000591194501
-0.000591194501
-0.000591194501
-0.000591194501
-0.000591194501
-0.000591194501
-0.000591194501
-0.000591194501
-0.000591194501
-0.000591194501
-0.000591194501
-0.000591194501
-0.000591194501
-0.000591194501
-0.000591194501
-0.000591194501
-0.000591194501
-0.000591194501
-0.000591194501
-0.000591194501
-0.000591194501
-0.000591194501
-0.000591194501
-0.000591194501
-0.000591194501
-0.000591194501
-0.000591194502
-0.000591194502
-0.0005911945
-0.0005911945
-0.000591194501
-0.000591194503
-0.000591194501
-0.000591194499
-0.000591194499
-0.000591194503
-0.000591194503
-0.0005911945
-0.000591194499
-0.0005911945
-0.000591194502
-0.000591194502
-0.0005911945
-0.0005911945
-0.000591194501
-0.000591194501
-0.000591194501
-0.000591194501
-0.000591194501
-0.000591194501
-0.000591194501
-0.000591194501
-0.000591194501
-0.000591194501
-0.000591194501
-0.000591194501
-0.000591194501
-0.000591194501
-0.000591194501
-0.000591194501
-0.000591194501
-0.0005911945
-0.000591194501
-0.000591194502
-0.000591194502
-0.0005911945
-0.0005911945
-0.000591194501
-0.000591194502
-0.000591194501
-0.0005911945
-0.0005911945
-0.000591194501
-0.000591194501
-0.000591194501
-0.000591194501
-0.000591194501
-0.000591194501
-0.000591194501
-0.000591194501
-0.000591194501
-0.000591194501
-0.000591194501
-0.000591194501
-0.000591194501
-0.000591194501
-0.000591194501
-0.000591194501
-0.000591194501
-0.000591194501
-0.000591194501
-0.000591194501
-0.000591194501
-0.000591194501
-0.000591194501
-0.000591194501
-0.000591194501
-0.000591194501
-0.000591194501
-0.000591194501
-0.000591194501
-0.000591194501
-0.000591194501
-0.000591194501
-0.000591194501
-0.000591194501
-0.000591194501
-0.000591194501
-0.000591194501
-0.000591194501
-0.000591194501
-0.000591194501
-0.000591194501
-0.000591194501
-0.000591194501
-0.000591194501
-0.000591194501
-0.000591194501
-0.000591194501
-0.0005911945
-0.000591194501
-0.000591194502
-0.000591194501
-0.0005911945
-0.0005911945
-0.000591194502
-0.000591194503
-0.0005911945
-0.000591194499
-0.0005911945
-0.000591194503
-0.000591194502
-0.0005911945
-0.000591194499
-0.000591194501
-0.000591194502
-0.000591194501
-0.000591194501
-0.000591194501
-0.000591194501
-0.000591194501
-0.000591194501
-0.000591194501
-0.000591194501
-0.000591194501
-0.000591194501
-0.000591194499
-0.0005911945
-0.000591194505
-0.000591194504
-0.00059119449
-0.00059119449
-0.000591194525
-0.000591194532
-0.000591194459
-0.00059119442
-0.000591194561
-0.000591194685
-0.000591194462
-0.000591194115
-0.000591194407
-0.000591195227
-0.000591194991
-0.000591193275
-0.000591193231
-0.000591196211
-0.000591196756
-0.000591192927
-0.000591190931
-0.00059119509
-0.000591199472
-0.000591196002
-0.000591188439
-0.000591189988
-0.000591200841
-0.000591201533
-0.000591189981
-0.00059118628
-0.00059119528
-0.000591202727
-0.000591197502
-0.000591187645
-0.000591188972
-0.000591199073
-0.000591200027
-0.000591193171
-0.000591190182
-0.000591193412
-0.000591197264
-0.000591196744
-0.000591193849
-0.000591192578
-0.000591192382
-0.000591194533
-0.000591201067
-0.000591201696
-0.000591182451
-0.000591175344
-0.000591216825
-0.000591265374
-0.000591185977
-0.00059103534
-0.000591121017
-0.000591731655
-0.000591740984
-0.000590313436
-0.000590084975
-0.000593200117
-0.000595673124
-0.000590040777
-0.00058822189
-0.000591482451
-0.000613934972
-0.000601190279
-0.000607905606
-0.000600687802
-0.000693807918
-0.000691998436
-0.000561363079
-0.000537363232
-0.000674914123
-0.000741176402
-0.00059271067
-0.00051265916
-0.000588172237
-0.000729564324
-0.000663897942
-0.000536395736
-0.000596567064
-0.000729166571
-0.000673850934
-0.000555449724
-0.000598329029
-0.000733453368
-0.000749746331
-0.000585006415
-0.00049719488
-0.000587634615
-0.000710140804
-0.000751660639
-0.00068701922
-0.000589378218
-0.000570047467
-0.000562531827
-0.00053298923
-0.000598241213
-0.000724859167
-0.000749254166
-0.000596854927
-0.000549510633
-0.000590784146
-0.000727728815
-0.000750367473
-0.000590391939
-0.000518097389
-0.000593930515
-0.00072690669
-0.000747133172
-0.0005855746
-0.000480930272
-0.00055563778
-0.000721933379
-0.00074852472
-0.000586725649
-0.000502381046
-0.000596922758
-0.000718943712
-0.000748299705
-0.000591277082
-0.000526113473
-0.000591945393
-0.00073560751
-0.000738777322
-0.000583177815
-0.000477752497
-0.00059086212
-0.000697162255
-0.00075233113
-0.000737689324
-0.00058734163
-0.000529230542
-0.000503283097
-0.000599337197
-0.000724783651
-0.000637864762
-0.000573624772
-0.000588386118
-0.000724914778
-0.000746318899
-0.000595416513
-0.00050756829
-0.000639569089
-0.00073768378
-0.000596474557
-0.000557359039
-0.000588860291
-0.000727814616
-0.000735432551
)
;

boundaryField
{
    closed
    {
        type            calculated;
        value           nonuniform List<scalar> 0();
    }
    open
    {
        type            calculated;
        value           nonuniform List<scalar> 0();
    }
    sides
    {
        type            empty;
    }
    procBoundary3to2
    {
        type            processor;
        value           uniform -0.000734611286;
    }
    procBoundary3to4
    {
        type            processor;
        value           uniform -0.000562922632;
    }
}


// ************************************************************************* //
