/*--------------------------------*- C++ -*----------------------------------*\
| =========                 |                                                 |
| \\      /  F ield         | OpenFOAM: The Open Source CFD Toolbox           |
|  \\    /   O peration     | Version:  2306                                  |
|   \\  /    A nd           | Website:  www.openfoam.com                      |
|    \\/     M anipulation  |                                                 |
\*---------------------------------------------------------------------------*/
FoamFile
{
    version     2.0;
    format      ascii;
    arch        "LSB;label=32;scalar=64";
    class       volScalarField;
    location    "0.00052";
    object      prefDZ_H2;
}
// * * * * * * * * * * * * * * * * * * * * * * * * * * * * * * * * * * * * * //

dimensions      [1 -1 -1 0 0 0 0];

internalField   nonuniform List<scalar> 
531
(
6.18856653e-05
6.18154292e-05
6.34486754e-05
6.3590493e-05
6.22790206e-05
6.15257122e-05
6.24532263e-05
6.35072184e-05
6.25276135e-05
6.16085797e-05
6.19141899e-05
6.34815084e-05
6.34676156e-05
6.34936488e-05
6.33030531e-05
6.23329756e-05
6.17300007e-05
6.14135203e-05
6.22996063e-05
6.35001615e-05
6.23157386e-05
6.17496147e-05
6.29463106e-05
6.35454773e-05
6.24642091e-05
6.19908124e-05
6.21463558e-05
6.34543038e-05
6.36265784e-05
6.26193625e-05
6.22682955e-05
6.1393596e-05
6.14153349e-05
6.34548988e-05
6.35630263e-05
6.24012215e-05
6.18098965e-05
6.19665248e-05
6.35510129e-05
6.35964696e-05
6.22867996e-05
6.15228688e-05
6.22114417e-05
6.34996542e-05
6.36806893e-05
6.35679102e-05
6.23400383e-05
6.20472322e-05
6.20090361e-05
6.16265883e-05
6.14426566e-05
6.2338678e-05
6.33702429e-05
6.36099644e-05
6.35046862e-05
6.22738771e-05
6.13912913e-05
6.22970289e-05
6.33766578e-05
6.35760746e-05
6.20129014e-05
6.14908075e-05
6.30787554e-05
6.35619093e-05
6.23656092e-05
6.22429642e-05
6.23508748e-05
6.24567303e-05
6.25886867e-05
6.23252244e-05
6.22922838e-05
6.23238822e-05
6.23809115e-05
6.23564218e-05
6.23231799e-05
6.23242904e-05
6.23354352e-05
6.23357353e-05
6.233211e-05
6.23305618e-05
6.23308726e-05
6.23311534e-05
6.23309982e-05
6.23307294e-05
6.23306506e-05
6.2330625e-05
6.23305955e-05
6.23305526e-05
6.23305237e-05
6.23305121e-05
6.23304993e-05
6.23304874e-05
6.23304798e-05
6.23304747e-05
6.23304711e-05
6.23304676e-05
6.23304654e-05
6.23304638e-05
6.23304627e-05
6.23304619e-05
6.23304613e-05
6.23304608e-05
6.23304605e-05
6.23304603e-05
6.23304601e-05
6.233046e-05
6.23304599e-05
6.23304599e-05
6.23304598e-05
6.23304598e-05
6.23304598e-05
6.23304598e-05
6.23304598e-05
6.23304598e-05
6.23304597e-05
6.23304596e-05
6.23304598e-05
6.23304601e-05
6.23304599e-05
6.23304592e-05
6.23304593e-05
6.23304605e-05
6.23304606e-05
6.23304591e-05
6.23304585e-05
6.233046e-05
6.23304614e-05
6.23304603e-05
6.23304581e-05
6.23304584e-05
6.23304611e-05
6.23304614e-05
6.23304593e-05
6.23304583e-05
6.23304594e-05
6.23304608e-05
6.23304605e-05
6.23304592e-05
6.23304591e-05
6.23304599e-05
6.23304601e-05
6.23304599e-05
6.23304596e-05
6.23304596e-05
6.23304598e-05
6.23304598e-05
6.23304597e-05
6.23304597e-05
6.23304597e-05
6.23304598e-05
6.23304598e-05
6.23304598e-05
6.23304598e-05
6.23304597e-05
6.23304597e-05
6.23304598e-05
6.23304598e-05
6.23304598e-05
6.23304597e-05
6.23304597e-05
6.23304598e-05
6.23304598e-05
6.23304597e-05
6.23304597e-05
6.23304598e-05
6.23304598e-05
6.23304598e-05
6.23304597e-05
6.23304597e-05
6.23304598e-05
6.23304598e-05
6.23304597e-05
6.23304597e-05
6.23304597e-05
6.23304598e-05
6.23304598e-05
6.23304597e-05
6.23304597e-05
6.23304597e-05
6.23304598e-05
6.23304598e-05
6.23304597e-05
6.23304597e-05
6.23304597e-05
6.23304597e-05
6.23304597e-05
6.23304597e-05
6.23304597e-05
6.23304597e-05
6.23304597e-05
6.23304597e-05
6.23304597e-05
6.23304597e-05
6.23304597e-05
6.23304597e-05
6.23304597e-05
6.23304597e-05
6.23304597e-05
6.23304597e-05
6.23304597e-05
6.23304597e-05
6.23304597e-05
6.23304597e-05
6.23304597e-05
6.23304597e-05
6.23304597e-05
6.23304597e-05
6.23304597e-05
6.23304597e-05
6.23304597e-05
6.23304597e-05
6.23304597e-05
6.23304597e-05
6.23304597e-05
6.23304597e-05
6.23304597e-05
6.23304597e-05
6.23304597e-05
6.23304597e-05
6.23304597e-05
6.23304597e-05
6.23304597e-05
6.23304597e-05
6.23304597e-05
6.23304597e-05
6.23304597e-05
6.23304597e-05
6.23304597e-05
6.23304597e-05
6.23304597e-05
6.23304597e-05
6.23304597e-05
6.23304597e-05
6.23304597e-05
6.23304597e-05
6.23304597e-05
6.23304597e-05
6.23304597e-05
6.23304597e-05
6.23304597e-05
6.23304597e-05
6.23304597e-05
6.23304597e-05
6.23304597e-05
6.23304597e-05
6.23304597e-05
6.23304597e-05
6.23304597e-05
6.23304597e-05
6.23304597e-05
6.23304597e-05
6.23304597e-05
6.23304597e-05
6.23304597e-05
6.23304597e-05
6.23304597e-05
6.23304597e-05
6.23304597e-05
6.23304597e-05
6.23304598e-05
6.23304598e-05
6.23304597e-05
6.23304597e-05
6.23304598e-05
6.23304598e-05
6.23304598e-05
6.23304597e-05
6.23304597e-05
6.23304598e-05
6.23304598e-05
6.23304597e-05
6.23304597e-05
6.23304597e-05
6.23304598e-05
6.23304598e-05
6.23304597e-05
6.23304597e-05
6.23304597e-05
6.23304598e-05
6.23304598e-05
6.23304597e-05
6.23304597e-05
6.23304597e-05
6.23304597e-05
6.23304597e-05
6.23304597e-05
6.23304597e-05
6.23304597e-05
6.23304597e-05
6.23304597e-05
6.23304597e-05
6.23304598e-05
6.23304598e-05
6.23304597e-05
6.23304597e-05
6.23304597e-05
6.23304598e-05
6.23304598e-05
6.23304597e-05
6.23304597e-05
6.23304598e-05
6.23304598e-05
6.23304598e-05
6.23304597e-05
6.23304597e-05
6.23304598e-05
6.23304598e-05
6.23304597e-05
6.23304597e-05
6.23304597e-05
6.23304597e-05
6.23304597e-05
6.23304597e-05
6.23304597e-05
6.23304597e-05
6.23304597e-05
6.23304597e-05
6.23304597e-05
6.23304597e-05
6.23304597e-05
6.23304597e-05
6.23304597e-05
6.23304597e-05
6.23304597e-05
6.23304597e-05
6.23304597e-05
6.23304597e-05
6.23304597e-05
6.23304597e-05
6.23304597e-05
6.23304597e-05
6.23304597e-05
6.23304597e-05
6.23304597e-05
6.23304597e-05
6.23304597e-05
6.23304597e-05
6.23304597e-05
6.23304597e-05
6.23304597e-05
6.23304597e-05
6.23304597e-05
6.23304597e-05
6.23304597e-05
6.23304597e-05
6.23304597e-05
6.23304597e-05
6.23304597e-05
6.23304597e-05
6.23304597e-05
6.23304598e-05
6.23304597e-05
6.23304597e-05
6.23304597e-05
6.23304598e-05
6.23304598e-05
6.23304597e-05
6.23304597e-05
6.23304598e-05
6.23304598e-05
6.23304597e-05
6.23304597e-05
6.23304597e-05
6.23304598e-05
6.23304598e-05
6.23304597e-05
6.23304597e-05
6.23304597e-05
6.23304598e-05
6.23304598e-05
6.23304597e-05
6.23304597e-05
6.23304597e-05
6.23304598e-05
6.23304597e-05
6.23304597e-05
6.23304597e-05
6.23304598e-05
6.23304597e-05
6.23304597e-05
6.23304597e-05
6.23304598e-05
6.23304598e-05
6.23304597e-05
6.23304596e-05
6.233046e-05
6.233046e-05
6.23304594e-05
6.2330459e-05
6.23304603e-05
6.23304615e-05
6.23304594e-05
6.23304561e-05
6.23304589e-05
6.23304666e-05
6.23304644e-05
6.23304482e-05
6.23304478e-05
6.23304759e-05
6.2330481e-05
6.23304449e-05
6.23304261e-05
6.23304653e-05
6.23305066e-05
6.23304739e-05
6.23304026e-05
6.23304172e-05
6.23305195e-05
6.23305261e-05
6.23304171e-05
6.23303822e-05
6.23304671e-05
6.23305373e-05
6.2330488e-05
6.23303951e-05
6.23304076e-05
6.23305029e-05
6.23305119e-05
6.23304472e-05
6.2330419e-05
6.23304495e-05
6.23304857e-05
6.23304808e-05
6.23304534e-05
6.23304415e-05
6.23304392e-05
6.23304596e-05
6.23305203e-05
6.23305259e-05
6.23303433e-05
6.23302727e-05
6.23306645e-05
6.2331107e-05
6.23303661e-05
6.23288922e-05
6.23297247e-05
6.23353321e-05
6.23354273e-05
6.23216066e-05
6.23191306e-05
6.23483792e-05
6.23698039e-05
6.23178949e-05
6.22886922e-05
6.23308488e-05
6.25198266e-05
6.24153151e-05
6.2377884e-05
6.23389986e-05
6.31324912e-05
6.31191362e-05
6.19976643e-05
6.1812852e-05
6.29903742e-05
6.35403254e-05
6.2328313e-05
6.16209708e-05
6.22593359e-05
6.34293182e-05
6.29074785e-05
6.18068669e-05
6.22887976e-05
6.34230513e-05
6.29826332e-05
6.19588354e-05
6.23036491e-05
6.34606966e-05
6.36109348e-05
6.22631475e-05
6.14950511e-05
6.22272292e-05
6.32552981e-05
6.36388471e-05
6.3083277e-05
6.2263404e-05
6.20663805e-05
6.20225888e-05
6.17782285e-05
6.23087742e-05
6.33874806e-05
6.36144292e-05
6.23697715e-05
6.19135076e-05
6.22711247e-05
6.34147417e-05
6.36192905e-05
6.23112377e-05
6.16645319e-05
6.22863476e-05
6.34054592e-05
6.35851737e-05
6.22545316e-05
6.13686293e-05
6.19641776e-05
6.33559937e-05
6.35990393e-05
6.22703264e-05
6.15375959e-05
6.22990753e-05
6.33367837e-05
6.35969158e-05
6.22839884e-05
6.17265412e-05
6.23411174e-05
6.34906694e-05
6.35142543e-05
6.22209786e-05
6.13373489e-05
6.22562536e-05
6.31583572e-05
6.36434798e-05
6.35050763e-05
6.22604482e-05
6.17524013e-05
6.15506156e-05
6.23163131e-05
6.33842661e-05
6.27082696e-05
6.21002518e-05
6.22694992e-05
6.33942461e-05
6.35765638e-05
6.22938286e-05
6.15812595e-05
6.27233253e-05
6.35096959e-05
6.23635878e-05
6.19730254e-05
6.22819687e-05
6.34186168e-05
6.34774168e-05
)
;

boundaryField
{
    closed
    {
        type            calculated;
        value           nonuniform List<scalar> 0();
    }
    open
    {
        type            calculated;
        value           nonuniform List<scalar> 0();
    }
    sides
    {
        type            empty;
    }
    procBoundary3to2
    {
        type            processor;
        value           uniform 6.34634015e-05;
    }
    procBoundary3to4
    {
        type            processor;
        value           uniform 6.20295185e-05;
    }
}


// ************************************************************************* //
