/*--------------------------------*- C++ -*----------------------------------*\
| =========                 |                                                 |
| \\      /  F ield         | OpenFOAM: The Open Source CFD Toolbox           |
|  \\    /   O peration     | Version:  2306                                  |
|   \\  /    A nd           | Website:  www.openfoam.com                      |
|    \\/     M anipulation  |                                                 |
\*---------------------------------------------------------------------------*/
FoamFile
{
    version     2.0;
    format      ascii;
    arch        "LSB;label=32;scalar=64";
    class       volScalarField;
    location    "0.00104";
    object      h;
}
// * * * * * * * * * * * * * * * * * * * * * * * * * * * * * * * * * * * * * //

dimensions      [0 2 -2 0 0 0 0];

internalField   nonuniform List<scalar> 
531
(
9346.5764
-1051.67679
-6896.02601
-5334.73066
9066.19775
9489.11904
-2103.65486
-3606.2027
8256.91142
9616.14122
-2324.84565
-3351.09557
8434.19309
9782.54782
-1244.81149
-6103.43553
-4909.05513
9172.50434
9868.65613
-1448.96575
-3003.55065
8653.79565
9994.0831
-777.381492
-5659.59665
-4514.31219
9283.83598
10127.8304
-1072.97912
-2688.6462
8858.4914
10164.5404
-324.069682
-5254.06474
-3915.35944
9378.02733
10156.4926
-642.92626
-4461.05632
-5489.68468
-3404.25895
8802.63036
10391.9789
9561.00309
10382.1868
10351.5289
-1799.22845
-4793.61679
-4005.4473
-5452.07678
-3499.54197
8767.6986
10594.0374
9799.15759
-1301.37954
-5464.8172
-3034.16589
9470.50849
9923.21954
-768.765067
-5177.00616
-2879.37742
9608.26947
9910.32068
-1353.09939
-4716.86006
-5372.77232
-3395.66121
9154.50377
10285.6233
9417.7882
10377.3401
9756.16782
-1548.3887
-4302.86724
-4778.92467
-2786.8146
9793.38992
9831.49691
-1877.17119
-5381.64934
-1980.81683
9887.38263
9870.43058
-1508.2977
-5049.49191
-1559.40046
9989.16226
9814.54187
-1354.43827
-4891.27744
-1475.45682
10028.1766
9728.60324
-1527.65054
-4544.96877
-4846.60428
-2846.34092
9762.75745
8902.46443
-3112.98246
-2345.46146
9740.02208
8845.78413
-2951.0307
-1818.92191
9721.77836
9316.79257
-2096.34879
-5247.90943
-1316.29696
9810.99579
9489.67074
-616.948491
-4200.64964
-158.723167
10017.9272
9414.69407
-963.84098
-4500.47765
-1022.76735
9811.73746
9177.96427
-1202.31661
-4832.64428
-4875.2316
-2668.14289
9003.52611
8527.3675
-2839.54181
-3006.85841
8443.66566
8747.12779
-2802.87742
-3229.77216
8292.7619
8796.05759
-2594.39601
-2996.1366
8346.85138
8825.83914
-2201.32944
-2388.3476
8498.32766
8895.31003
-2085.42052
-5766.75192
-2284.24095
9240.33264
8753.71919
-1940.71825
-1924.58166
8697.46434
9096.37561
-1482.82964
-5413.92633
-1569.90151
9368.60928
8970.24109
-1849.71075
-5431.78445
-1833.50939
9415.25964
8812.4885
-1453.30348
-1142.72052
9020.10494
9311.60612
-1196.58499
-4836.59416
-1116.78661
9734.25109
9320.94751
-1039.84831
-4579.60054
-1174.45686
9801.23552
9403.99622
-673.275768
-4753.78316
-4966.74108
-2732.68189
9366.12885
10431.8782
8755.12397
-1710.84421
-1749.24003
9077.20175
9516.2811
-386.820673
-4438.09398
-4589.78001
-1996.06011
9492.76885
10545.8622
9522.70016
-779.118281
-4111.70604
-3994.33149
-5291.72367
-3952.3504
9059.33553
9370.34406
-2313.5602
-3443.4235
8058.26159
9427.18433
-2191.99256
-3563.03523
8037.73582
9589.59117
-1723.66978
-2944.44456
8182.55788
9829.93938
935.823307
-4466.90779
-2996.41628
9376.28196
9923.46988
894.934722
-4909.69957
-3973.44397
9174.9829
9753.46854
383.962901
-5556.16817
-4859.00807
9016.10868
9556.69374
-1734.17971
-4157.72458
6024.51724
9613.28867
1783.75539
-5343.07568
-4730.42912
9017.13978
9556.72028
-1558.75701
-4431.52325
5561.1579
9374.09581
-930.677098
-3953.12815
6888.96948
9609.85796
-1005.16642
-3501.71764
7029.04713
9682.47076
1264.36472
-5524.78996
-5143.54109
8842.13972
9745.57486
-453.537898
-3074.717
6690.76181
9831.21035
2676.53031
-4865.68162
-4526.37932
8532.99147
9876.80914
2376.93918
-4725.15084
-4423.90577
8593.10215
9855.64653
1830.67079
-4051.20803
-4717.39813
-4908.3935
4095.04791
9583.8796
9762.41151
9640.59233
10005.1421
9910.64987
3199.7536
-3394.61534
-3692.93301
-3880.43769
-3903.44721
-4867.56011
-4322.0928
8368.7603
9620.62407
1264.52042
-4918.14526
-4222.35051
8267.3159
9467.46696
196.099119
-2467.37719
6428.10192
9294.46723
197.76962
-2023.77346
7150.66403
9425.17477
391.427503
-5202.80957
-3566.10654
8399.38399
9006.36556
-1096.47475
-1928.00761
8222.50491
9502.57791
176.300047
-4697.67507
-2375.71608
8629.02561
9469.86212
-21.0405637
-4609.79157
-2182.16884
8655.73688
9520.3205
104.267992
-4523.04135
-2135.32071
8646.44194
9526.5154
234.424239
-4475.09571
-2113.29967
8626.13006
9503.87665
269.268284
-4460.54003
-2064.89162
8607.02187
9456.84119
185.685419
-4483.31716
-2047.16902
8569.05659
9372.8668
-49.721844
-4596.55485
-2086.11252
8494.02197
9251.36214
-497.902708
-4943.45654
-2291.1891
8356.58522
8271.33976
-1300.39674
-1235.59371
8564.34205
9120.4321
-763.650092
-4595.6886
-1655.40694
8417.67462
9001.93594
-728.161231
-4839.29393
-1798.83515
8251.04092
8681.28576
-1897.46856
-5987.46939
-2141.98457
7504.13005
9301.14706
9252.70636
3096.46888
-4887.03673
-2966.79906
7663.46134
7709.87386
-4468.26893
-8132.36714
-2898.71065
6512.58579
7419.38581
1809.45394
-7014.29076
-4329.72106
5257.63236
6027.38383
5722.92077
5719.5998
5387.41814
5250.04358
4899.725
4725.14154
4405.49627
4207.99117
3944.67225
3758.31603
3622.79958
3629.37164
3809.84639
4494.33833
5732.83904
5944.86464
5881.9644
5843.31809
5652.64162
5390.75979
4984.29316
4415.96675
4047.30274
4266.31698
5445.03843
5815.04369
5651.81435
5087.63623
4413.48923
3007.78187
1686.57524
-362.558732
-2030.87568
-1285.70406
6504.91786
8316.13803
6499.05689
4736.14024
3016.82484
639.762976
-1647.58033
-4479.97119
-7595.82196
-7933.62137
-7017.56378
-8506.34294
-12386.0275
-11845.1243
-12179.8057
-16181.928
-19938.3316
-20442.5801
-24230.1412
-25384.0441
-27524.119
-28843.2648
-29091.4494
-28832.7913
-28732.2608
-29140.4824
-30352.2489
-32561.3259
-35096.3795
-37960.4247
-41300.0161
-45495.2707
-49991.2682
-53859.0796
-58276.9647
-61867.0324
-65608.3479
-68652.3006
-71737.7187
-74380.9402
-76825.7107
-79133.8718
-81347.7162
-83947.0852
-86426.0332
-88913.97
-90294.3781
-91304.0941
-91412.1249
-91079.1399
-90055.005
-88724.2357
-86979.7113
-85040.3188
-83483.1919
-81672.1696
-80071.3098
-77896.1168
-75140.0589
-71677.3733
-68613.2363
-64370.2407
-61640.6905
-59461.8165
-57786.5071
-56239.7415
-54775.2246
-53338.7656
-51943.0459
-50606.0843
-49223.8195
-47622.4006
-45877.5341
-44180.4013
-42356.6165
-40540.3596
-38593.2364
-36969.4839
-35168.7202
-33669.1444
-32012.1202
-30626.9352
-29024.4203
-27679.3504
-26210.5299
-25213.3099
-23971.2451
-22981.5143
-21761.6642
-20784.3394
-19614.8235
-18656.4674
-17360.5732
-16202.3701
-14832.6497
-13736.4082
-12446.9224
-11658.0729
-10674.3147
-9938.45079
-8985.30378
-8284.68989
-7363.39041
-6686.05405
-5798.59007
-5214.18906
-4467.13606
-3945.13201
-3222.50491
-2721.35888
-2022.27624
)
;

boundaryField
{
    closed
    {
        type            lookUpEnthalpy;
        h0              nonuniform List<scalar> 0();
        value           nonuniform List<scalar> 0();
    }
    open
    {
        type            zeroGradient;
    }
    sides
    {
        type            empty;
    }
    procBoundary4to3
    {
        type            processor;
        value           uniform 9663.66263;
    }
    procBoundary4to5
    {
        type            processor;
        value           uniform -1535.48886;
    }
}


// ************************************************************************* //
