/*--------------------------------*- C++ -*----------------------------------*\
| =========                 |                                                 |
| \\      /  F ield         | OpenFOAM: The Open Source CFD Toolbox           |
|  \\    /   O peration     | Version:  2306                                  |
|   \\  /    A nd           | Website:  www.openfoam.com                      |
|    \\/     M anipulation  |                                                 |
\*---------------------------------------------------------------------------*/
FoamFile
{
    version     2.0;
    format      ascii;
    arch        "LSB;label=32;scalar=64";
    class       volScalarField;
    location    "0.0006";
    object      H2;
}
// * * * * * * * * * * * * * * * * * * * * * * * * * * * * * * * * * * * * * //

dimensions      [0 0 0 0 0 0 0];

internalField   nonuniform List<scalar> 
530
(
0.0106877262
0.0110534299
0.0110630705
0.0106863053
0.0106967907
0.011073849
0.0108658404
0.010681061
0.0108471638
0.0110377831
0.0107717867
0.0106814289
0.0108800331
0.0110222204
0.011008061
0.0107105218
0.0106718266
0.0106855059
0.0110743235
0.0110219872
0.010754983
0.0106594329
0.0107654407
0.0110646846
0.0107583964
0.0106796257
0.0109512885
0.0110255569
0.0108709601
0.0106824544
0.0106780087
0.0110050849
0.0110065718
0.0110661346
0.0107357386
0.0106557445
0.0106482143
0.0109383863
0.0110331246
0.0108685189
0.0106659437
0.010655503
0.0109584282
0.0110319461
0.0107184335
0.0106739767
0.0109901194
0.0110243528
0.0107194659
0.0106827639
0.0110180574
0.0110172594
0.0108813132
0.0106767326
0.0106694539
0.0109113202
0.0110268212
0.0109230369
0.0106745663
0.01066869
0.0110399138
0.0110214989
0.0108389835
0.0106654324
0.0106619273
0.011058088
0.0110221145
0.0108343904
0.0106644355
0.0106585349
0.0110470878
0.0110277574
0.0106980413
0.010670521
0.0110470279
0.0110245333
0.0106992941
0.0106729615
0.0110561469
0.0110228363
0.010699012
0.0106788526
0.0110762775
0.0110164522
0.0108242672
0.0106636135
0.0106593861
0.011072861
0.0110061043
0.0108579605
0.0107127301
0.0107270586
0.01073695
0.010693689
0.0106909229
0.011046611
0.0110075977
0.0108696217
0.0106644403
0.0106602526
0.0110806244
0.0110263155
0.0106927581
0.0106733486
0.0110790101
0.0110247442
0.0106974526
0.0106814366
0.0110768095
0.0110142754
0.0108548126
0.0106744176
0.0106696607
0.0110755722
0.0110103401
0.0108826226
0.0106924161
0.0106585905
0.0106551597
0.0110641282
0.01103753
0.0106920079
0.0106811661
0.011069696
0.0110186971
0.0108082305
0.0106654322
0.0106654009
0.0110577847
0.0110358148
0.0106927479
0.0106849871
0.0110623626
0.0110187391
0.0107980703
0.0106627483
0.0106604544
0.0110678579
0.0110460446
0.010689007
0.0106800329
0.0110670793
0.0110415817
0.0106891838
0.0106842184
0.0110620084
0.0110443155
0.0106892729
0.0106894571
0.0110532235
0.0110519015
0.0106908356
0.0106939408
0.0110446028
0.0110190249
0.0107876372
0.0106651615
0.0106612179
0.010930693
0.0110397938
0.0106898918
0.0106886558
0.0110588514
0.011059991
0.0106835705
0.0106880908
0.011054556
0.0110698307
0.0106849481
0.0106924286
0.0110536509
0.0110637105
0.0106874282
0.0106981411
0.011050436
0.0110434413
0.0106960029
0.0107049684
0.0110495964
0.0110130671
0.010829179
0.0106928761
0.01066844
0.0106775122
0.0109627279
0.0109312441
0.0106878621
0.0107126896
0.0110523153
0.0110113475
0.0106918569
0.0107064999
0.011054282
0.0110253308
0.0107606909
0.0106635386
0.0106831017
0.0110744663
0.0109929008
0.0106903283
0.0107037089
0.0110608782
0.0110287302
0.0107601708
0.0106636097
0.0106820931
0.011073353
0.0109762182
0.0106844637
0.0107043146
0.01106552
0.0109756971
0.0106886825
0.0107162269
0.0110612853
0.0109693967
0.0106911165
0.010714149
0.011060911
0.011028922
0.0107591182
0.0106696041
0.0106924723
0.0110735688
0.0110409232
0.0107376377
0.0106629976
0.0106969303
0.0110744281
0.0109464919
0.0106894212
0.0107131176
0.011065598
0.0110272655
0.0107805232
0.0106778365
0.0107075869
0.0110683624
0.0110280391
0.0108145726
0.0106762192
0.0106570381
0.0107008619
0.0110748821
0.0109131452
0.010684717
0.0107258974
0.0110615251
0.0110380408
0.010726166
0.0106652438
0.0107280215
0.0110640641
0.0108903878
0.0106839888
0.0107563682
0.0110513696
0.0110325787
0.0106976173
0.0106820607
0.0108450673
0.0110302304
0.0110497223
0.0107024806
0.0106675526
0.0107415325
0.0110529319
0.0110684311
0.0107278908
0.0106748478
0.0106604978
0.0106735736
0.0110357487
0.0110141104
0.0108529418
0.0106810213
0.010803625
0.0110430206
0.0108286136
0.0106831179
0.0108177216
0.0110409111
0.0109812552
0.0106799525
0.0106574262
0.0107949229
0.011046127
0.0108006895
0.0106796419
0.0108496834
0.0110366755
0.0109515555
0.0106766147
0.0106570714
0.0108202308
0.0110416681
0.0107736497
0.0106687975
0.0108681224
0.0110330506
0.0107594214
0.0106704583
0.0108964038
0.0110282844
0.0107479081
0.0106704749
0.010924052
0.0110241348
0.010740917
0.0106721901
0.0109543693
0.0110188003
0.0107368184
0.0106806763
0.0109921003
0.0110100947
0.0108932414
0.0107089986
0.0106582067
0.0106504876
0.0109310413
0.0110272737
0.0107128825
0.0106703134
0.0110246796
0.0110225907
0.0108692089
0.0106663793
0.0106580378
0.0109969594
0.0110215602
0.0107131377
0.0106676336
0.0110293601
0.0110181356
0.0107129342
0.0106674153
0.0110095034
0.0110187524
0.0107125765
0.0106677387
0.0110391522
0.0110163833
0.0107103599
0.0106757291
0.0110604784
0.0110186573
0.0108389233
0.010662315
0.0106559556
0.0109571283
0.0110225947
0.0107169232
0.0106747688
0.0110168754
0.0110201127
0.0108612905
0.0106637551
0.0106567949
0.0109693705
0.0110210436
0.0107174296
0.010675414
0.0110008413
0.0110204806
0.0108724588
0.0106622986
0.0106555581
0.0110647418
0.0110152663
0.0107419069
0.0106804749
0.0107924627
0.011016201
0.0110182176
0.0107295273
0.0106496565
0.0106469185
0.0110680226
0.0110215971
0.0108478637
0.010662193
0.0106561085
0.0110433731
0.011018559
0.0107075355
0.0106692563
0.0110468999
0.0110148203
0.0107131218
0.0106761757
0.0109996797
0.0110168066
0.0108740825
0.0106668585
0.0106633666
0.0110156804
0.0110192592
0.0108588685
0.0106665138
0.0106634061
0.0110062314
0.0110197232
0.0108856924
0.0106677685
0.0106647408
0.011077972
0.011018138
0.0108421813
0.0106646462
0.010662692
0.011063328
0.0110190406
0.0108175641
0.010660594
0.0106553697
0.0110663445
0.0110162487
0.0106969432
0.0106785099
0.0110580234
0.011015337
0.0107961603
0.0106586764
0.0106542081
0.011064804
0.0110177235
0.0106945257
0.0106776352
0.011052336
0.0110151436
0.0107894982
0.0106600407
0.0106554633
0.011055922
0.0110186022
0.0106945303
0.0106803505
0.0110467585
0.0110153306
0.0107852738
0.010659427
0.0106548331
0.0110547848
0.0110203719
0.010692166
0.0106799799
0.0110454217
0.0110157597
0.0107769387
0.0106588487
0.0106556624
0.0110497643
0.0110219057
0.010691166
0.01068114
0.0110429873
0.0110167462
0.0107722345
0.0106571727
0.0106535818
0.011051984
0.0110249343
0.0106918565
0.0106710251
0.0110553132
0.0110207684
0.0106903062
0.0106719515
0.0110533651
0.0110213877
0.0106888122
0.0106809686
0.0110426361
0.0110172237
0.010775893
0.0106597776
0.0106577706
0.0110505272
0.011029488
0.0106898905
0.0106830015
0.0110420935
0.0110171011
0.0107776368
0.0106610841
0.0106597335
0.0110523834
0.0110316924
0.0106906193
0.0106844658
0.0110441181
0.0110169397
0.0107773432
0.0106614169
0.0106576349
0.0110679696
0.0110348251
0.0106940154
0.0106765389
0.0110610589
0.0110301316
0.0106913473
0.0106746093
0.0110665908
0.0110328726
0.0106924319
0.01068164
0.0110605907
0.011017857
0.0108099805
0.0106681678
0.010665364
0.0110776107
0.0110425107
0.0106953057
0.0106827866
0.011073306
0.0110169649
0.0108223681
0.0106710517
0.0106686587
0.0109668991
0.0110242839
0.0108556584
0.0106678278
0.01066319
0.0110525776
0.011042211
0.0107001688
)
;

boundaryField
{
    closed
    {
        type            calculated;
        value           nonuniform List<scalar> 0();
    }
    open
    {
        type            calculated;
        value           nonuniform List<scalar> 0();
    }
    sides
    {
        type            empty;
    }
    procBoundary2to1
    {
        type            processor;
        value           uniform 0.0106882351;
    }
    procBoundary2to3
    {
        type            processor;
        value           uniform 0.0106844756;
    }
}


// ************************************************************************* //
