/*--------------------------------*- C++ -*----------------------------------*\
| =========                 |                                                 |
| \\      /  F ield         | OpenFOAM: The Open Source CFD Toolbox           |
|  \\    /   O peration     | Version:  2306                                  |
|   \\  /    A nd           | Website:  www.openfoam.com                      |
|    \\/     M anipulation  |                                                 |
\*---------------------------------------------------------------------------*/
FoamFile
{
    version     2.0;
    format      ascii;
    arch        "LSB;label=32;scalar=64";
    class       volScalarField;
    location    "0.0006";
    object      p;
}
// * * * * * * * * * * * * * * * * * * * * * * * * * * * * * * * * * * * * * //

dimensions      [1 -1 -2 0 0 0 0];

internalField   nonuniform List<scalar> 
530
(
101932.376
101934.645
101937.231
101942.621
101945.304
101949.041
101952.512
101955.714
101958.921
101961.75
101964.404
101966.766
101969.003
101971.025
101972.772
101973.881
101975.14
101976.482
101977.657
101978.389
101979.17
101979.792
101980.21
101980.218
101980.185
101979.925
101979.45
101979.037
101978.389
101977.268
101975.846
101974.279
101973.233
101971.938
101969.786
101967.835
101965.724
101963.435
101961.319
101959.023
101956.263
101953.175
101949.995
101947.025
101943.954
101940.728
101937.151
101933.832
101930.443
101926.982
101923.238
101919.961
101916.576
101912.837
101908.827
101904.798
101901.076
101897.27
101892.96
101888.436
101883.878
101880.022
101876.133
101872.035
101867.739
101863.387
101860.165
101856.978
101853.658
101850.17
101846.591
101843.614
101840.675
101837.324
101833.886
101830.897
101827.921
101824.53
101821.031
101817.968
101814.916
101811.465
101807.883
101805.183
101802.444
101799.536
101796.546
101793.358
101790.16
101787.042
101783.836
101780.652
101777.493
101774.381
101771.298
101766.532
101763.286
101760.126
101756.814
101753.503
101750.17
101746.892
101743.761
101740.489
101737.182
101733.945
101730.848
101727.613
101724.356
101721.189
101718.109
101714.994
101711.902
101708.776
101705.711
101702.732
101699.72
101696.633
101693.697
101691.058
101688.304
101685.687
101682.958
101680.22
101677.572
101675.017
101672.483
101669.937
101667.57
101665.219
101663.049
101660.815
101658.612
101656.49
101654.483
101652.559
101650.739
101649.186
101647.602
101646.207
101644.838
101643.516
101642.274
101641.213
101640.191
101639.22
101638.317
101637.592
101636.929
101636.297
101635.706
101636.127
101635.701
101634.45
101633.952
101633.587
101633.347
101633.17
101633.119
101633.227
101633.232
101633.377
101633.715
101634.068
101634.596
101635.35
101636.201
101636.985
101639
101641.157
101643.411
101645.527
101647.159
101648.98
101652.699
101656.298
101659.548
101663.11
101666.619
101670.056
101673.624
101677.371
101681.278
101685.294
101689.321
101693.304
101697.378
101701.788
101706.244
101710.781
101715.246
101720.226
101725.3
101730.405
101735.815
101741.541
101747.539
101753.56
101759.544
101765.61
101772.275
101779.035
101785.792
101792.854
101800.23
101807.895
101815.449
101822.66
101829.924
101837.718
101845.427
101853.051
101860.655
101868.71
101876.601
101884.336
101891.971
101899.992
101907.798
101915.327
101922.953
101930.66
101938.415
101945.887
101953.043
101960.311
101967.613
101974.905
101981.815
101988.483
101994.948
102001.719
102008.188
102014.401
102020.734
102027.116
102033.55
102039.7
102045.636
102051.702
102057.87
102064.128
102070.487
102076.462
102082.302
102087.963
102093.907
102099.44
102104.692
102110.047
102115.234
102120.256
102124.717
102128.964
102132.832
102136.829
102140.314
102143.454
102145.776
102150.406
102155.102
102158.949
102162.345
102167.375
102172.496
102177.305
102181.247
102184.752
102188.542
102192.515
102196.307
102199.848
102203.018
102205.912
102208.519
102210.55
102212.334
102213.547
102214.455
102214.707
102214.727
102214.256
102213.369
102211.507
102209.408
102207.318
102204.611
102201.702
102198.104
102194.145
102189.949
102185.395
102179.828
102173.819
102167.792
102161.434
102154.97
102147.901
102140.39
102132.918
102125.356
102117.316
102108.842
102100.629
102092.362
102083.75
102074.73
102066.175
102057.596
102048.802
102039.641
102031.117
102022.598
102013.982
102005.07
101997.027
101988.938
101980.371
101971.886
101963.195
101954.416
101946.314
101938.262
101930.257
101922
101914.761
101907.541
101900.013
101892.224
101884.472
101877.699
101871.109
101864.834
101858.52
101853.058
101847.809
101842.872
101837.91
101833.592
101829.436
101825.526
101821.534
101818.062
101814.664
101812.459
101810.125
101808.131
101806.131
101804.024
101801.742
101799.361
101797.221
101795.067
101792.932
101790.639
101788.64
101786.616
101784.446
101782.134
101779.754
101777.652
101775.565
101773.524
101771.367
101769.498
101767.628
101765.623
101763.539
101761.391
101759.605
101757.874
101756.153
101754.38
101752.575
101750.706
101748.894
101747.053
101745.14
101743.307
101741.354
101739.442
101737.452
101735.312
101733.039
101731.054
101729.038
101727.727
101726.265
101724.906
101723.55
101722.222
101720.766
101719.475
101718.156
101716.708
101715.169
101713.558
101712.191
101710.811
101709.33
101707.75
101706.094
101704.693
101703.274
101701.718
101700.158
101698.532
101696.872
101695.238
101693.572
101691.888
101690.115
101688.294
101686.488
101684.633
101682.756
101680.79
101678.792
101676.851
101674.774
101672.631
101670.511
101668.423
101666.292
101664.076
101661.742
101659.443
101657.22
101654.847
101652.397
101649.934
101647.467
101644.94
101642.4
101641.194
101638.954
101636.734
101634.37
101631.92
101629.475
101627.02
101624.503
101621.968
101620.691
101618.484
101616.309
101613.979
101611.584
101609.242
101606.91
101604.539
101602.123
101599.602
101597.164
101594.808
101592.305
101589.794
101587.401
101585.077
101582.793
101580.519
101577.189
101574.743
101572.406
101569.931
101567.45
101565.079
101562.8
101560.399
101557.995
101555.703
101553.516
101551.222
101548.945
101546.784
101544.697
101542.648
101540.604
101538.709
101536.865
101535.154
101533.385
101531.648
101530.002
101528.434
101526.919
101525.423
101524.047
101522.706
101521.49
101520.256
101519.039
101517.854
101516.715
101515.608
101514.546
101514.371
101513.584
101512.891
101512.244
101511.602
101510.992
101510.467
101509.97
101509.48
101509.013
101508.641
101508.322
101508.013
101507.705
101507.462
101507.275
101507.17
101507.834
101507.898
101508.068
101508.381
101508.713
101509.02
101509.408
101509.893
101510.444
101510.996
101511.556
101512.17
101512.861
101513.697
101514.536
101515.232
101516.041
)
;

boundaryField
{
    closed
    {
        type            zeroGradient;
    }
    open
    {
        type            waveTransmissive;
        gamma           1.25;
        fieldInf        101325;
        lInf            1;
        value           nonuniform List<scalar> 0();
    }
    sides
    {
        type            empty;
    }
    procBoundary2to1
    {
        type            processor;
        value           uniform 101929.992;
    }
    procBoundary2to3
    {
        type            processor;
        value           uniform 101517.05;
    }
}


// ************************************************************************* //
