/*--------------------------------*- C++ -*----------------------------------*\
| =========                 |                                                 |
| \\      /  F ield         | OpenFOAM: The Open Source CFD Toolbox           |
|  \\    /   O peration     | Version:  2306                                  |
|   \\  /    A nd           | Website:  www.openfoam.com                      |
|    \\/     M anipulation  |                                                 |
\*---------------------------------------------------------------------------*/
FoamFile
{
    version     2.0;
    format      ascii;
    arch        "LSB;label=32;scalar=64";
    class       volScalarField;
    location    "0.0006";
    object      prefDPV_H2;
}
// * * * * * * * * * * * * * * * * * * * * * * * * * * * * * * * * * * * * * //

dimensions      [1 -1 -1 0 0 0 0];

internalField   nonuniform List<scalar> 
530
(
-3.07714146e-05
-3.13412225e-05
-3.13624634e-05
-3.07938053e-05
-3.09259697e-05
-3.14092101e-05
-3.09986228e-05
-3.07420519e-05
-3.09616976e-05
-3.14987182e-05
-3.090341e-05
-3.0765798e-05
-3.10132602e-05
-3.15071858e-05
-3.12407257e-05
-3.08922705e-05
-3.05826613e-05
-3.07987664e-05
-3.13944459e-05
-3.1531133e-05
-3.0891681e-05
-3.04867136e-05
-3.08821693e-05
-3.14432394e-05
-3.08883405e-05
-3.07029565e-05
-3.11392183e-05
-3.1490548e-05
-3.10115441e-05
-3.07174669e-05
-3.0702156e-05
-3.12410759e-05
-3.15290057e-05
-3.13552384e-05
-3.09029393e-05
-3.0393646e-05
-3.03906452e-05
-3.11146745e-05
-3.14798338e-05
-3.10102545e-05
-3.0547858e-05
-3.04646076e-05
-3.11522023e-05
-3.1510873e-05
-3.09228757e-05
-3.06599331e-05
-3.12134671e-05
-3.15208396e-05
-3.09344593e-05
-3.07554558e-05
-3.12713912e-05
-3.15013231e-05
-3.10283094e-05
-3.06952109e-05
-3.06137725e-05
-3.10663123e-05
-3.1486534e-05
-3.1089071e-05
-3.06522518e-05
-3.05979494e-05
-3.13176067e-05
-3.15002653e-05
-3.09760889e-05
-3.05463496e-05
-3.05296832e-05
-3.13562289e-05
-3.15000622e-05
-3.09717917e-05
-3.05250945e-05
-3.04965143e-05
-3.13306767e-05
-3.15251417e-05
-3.0918444e-05
-3.06234847e-05
-3.13306789e-05
-3.15261968e-05
-3.09213049e-05
-3.06540497e-05
-3.13496216e-05
-3.15354131e-05
-3.09280096e-05
-3.07220537e-05
-3.13956828e-05
-3.15130993e-05
-3.09579485e-05
-3.05475657e-05
-3.05430606e-05
-3.14397867e-05
-3.15613353e-05
-3.09923109e-05
-3.0896522e-05
-3.09153621e-05
-3.09011212e-05
-3.08956266e-05
-3.08826232e-05
-3.14875386e-05
-3.15433267e-05
-3.10076024e-05
-3.0569458e-05
-3.0539809e-05
-3.1408408e-05
-3.1542075e-05
-3.08622298e-05
-3.06598951e-05
-3.13986462e-05
-3.15368765e-05
-3.08984723e-05
-3.07446656e-05
-3.14178067e-05
-3.15115126e-05
-3.09921142e-05
-3.0634431e-05
-3.06307634e-05
-3.14138837e-05
-3.15384893e-05
-3.10307175e-05
-3.08911838e-05
-3.04380224e-05
-3.04289685e-05
-3.1444666e-05
-3.15118549e-05
-3.08376488e-05
-3.07132419e-05
-3.14302423e-05
-3.15038336e-05
-3.09467262e-05
-3.05306498e-05
-3.05467468e-05
-3.14562436e-05
-3.15180279e-05
-3.08482733e-05
-3.07550683e-05
-3.14440455e-05
-3.15051772e-05
-3.09392572e-05
-3.04907029e-05
-3.04830224e-05
-3.1439767e-05
-3.14943834e-05
-3.07956163e-05
-3.06766587e-05
-3.14268786e-05
-3.14988581e-05
-3.08017733e-05
-3.07241515e-05
-3.14389295e-05
-3.14944547e-05
-3.08134883e-05
-3.07765208e-05
-3.14619035e-05
-3.14785203e-05
-3.08332653e-05
-3.08475537e-05
-3.14856666e-05
-3.15212417e-05
-3.09292361e-05
-3.05570946e-05
-3.05063547e-05
-3.11009704e-05
-3.13139196e-05
-3.0855687e-05
-3.07920416e-05
-3.14550961e-05
-3.14608823e-05
-3.07365065e-05
-3.07706948e-05
-3.14638871e-05
-3.14291183e-05
-3.07548133e-05
-3.083633e-05
-3.14655302e-05
-3.13646185e-05
-3.07908298e-05
-3.09269339e-05
-3.14694916e-05
-3.1320779e-05
-3.08840106e-05
-3.09235723e-05
-3.14554838e-05
-3.15471776e-05
-3.09644449e-05
-3.08941029e-05
-3.05954513e-05
-3.06985357e-05
-3.11596019e-05
-3.1102015e-05
-3.08066985e-05
-3.08981142e-05
-3.1457523e-05
-3.12542211e-05
-3.08408919e-05
-3.09168007e-05
-3.14568249e-05
-3.15123603e-05
-3.08981833e-05
-3.04954009e-05
-3.08233636e-05
-3.14098954e-05
-3.12179281e-05
-3.07969601e-05
-3.09191307e-05
-3.14321909e-05
-3.14992121e-05
-3.09019672e-05
-3.04890438e-05
-3.0805625e-05
-3.13862133e-05
-3.11855425e-05
-3.0746998e-05
-3.08975944e-05
-3.14245068e-05
-3.11837403e-05
-3.08107816e-05
-3.089015e-05
-3.14324505e-05
-3.11715877e-05
-3.08401183e-05
-3.08976548e-05
-3.14304869e-05
-3.15047123e-05
-3.08950668e-05
-3.05677266e-05
-3.09017061e-05
-3.14011388e-05
-3.14829199e-05
-3.08867176e-05
-3.04971714e-05
-3.08781956e-05
-3.13981026e-05
-3.11292842e-05
-3.08112579e-05
-3.08893931e-05
-3.14089861e-05
-3.15096622e-05
-3.09114637e-05
-3.06639867e-05
-3.08912455e-05
-3.13891776e-05
-3.15079421e-05
-3.09505573e-05
-3.07111708e-05
-3.04712945e-05
-3.08762084e-05
-3.13976585e-05
-3.10709472e-05
-3.07713872e-05
-3.08775765e-05
-3.14172714e-05
-3.14828343e-05
-3.08850438e-05
-3.05416999e-05
-3.08586928e-05
-3.1423155e-05
-3.10340643e-05
-3.07927653e-05
-3.08726343e-05
-3.14405105e-05
-3.12930707e-05
-3.09245137e-05
-3.07222233e-05
-3.09687242e-05
-3.14727697e-05
-3.1416583e-05
-3.08859103e-05
-3.05661925e-05
-3.08669657e-05
-3.14324179e-05
-3.13976232e-05
-3.09090396e-05
-3.06983447e-05
-3.05139185e-05
-3.06959737e-05
-3.13039325e-05
-3.15483942e-05
-3.09870895e-05
-3.07937202e-05
-3.09074482e-05
-3.14676485e-05
-3.0953196e-05
-3.07745345e-05
-3.09259089e-05
-3.14574203e-05
-3.11903738e-05
-3.07762364e-05
-3.04848458e-05
-3.08984974e-05
-3.14573754e-05
-3.09262732e-05
-3.07274824e-05
-3.09673113e-05
-3.14619361e-05
-3.11367494e-05
-3.07199566e-05
-3.04851194e-05
-3.09283796e-05
-3.14719277e-05
-3.09084089e-05
-3.06310793e-05
-3.0993824e-05
-3.14930192e-05
-3.09074765e-05
-3.06526922e-05
-3.10401375e-05
-3.15039934e-05
-3.09106266e-05
-3.06578519e-05
-3.10884849e-05
-3.15146762e-05
-3.09188665e-05
-3.06811074e-05
-3.11446669e-05
-3.15241957e-05
-3.09321238e-05
-3.07674909e-05
-3.12186185e-05
-3.15230434e-05
-3.10462038e-05
-3.09224301e-05
-3.045284e-05
-3.04412004e-05
-3.11012259e-05
-3.15077971e-05
-3.09311039e-05
-3.06232856e-05
-3.12879958e-05
-3.14865345e-05
-3.1013364e-05
-3.05438855e-05
-3.05044948e-05
-3.12282711e-05
-3.15182532e-05
-3.09562014e-05
-3.06201826e-05
-3.12960191e-05
-3.15266477e-05
-3.09586402e-05
-3.06208255e-05
-3.12538616e-05
-3.15273036e-05
-3.09604792e-05
-3.06266397e-05
-3.13167584e-05
-3.15289119e-05
-3.09680396e-05
-3.06912542e-05
-3.13641432e-05
-3.15011937e-05
-3.09788279e-05
-3.05265263e-05
-3.04949969e-05
-3.11497685e-05
-3.15179514e-05
-3.09392529e-05
-3.06764683e-05
-3.1270008e-05
-3.14953616e-05
-3.10015957e-05
-3.05408321e-05
-3.05069916e-05
-3.11732851e-05
-3.15222168e-05
-3.09383469e-05
-3.06856915e-05
-3.12363203e-05
-3.14917481e-05
-3.10148305e-05
-3.05026506e-05
-3.04966187e-05
-3.13734602e-05
-3.15372726e-05
-3.092497e-05
-3.07606199e-05
-3.0923287e-05
-3.15048342e-05
-3.15292695e-05
-3.09081961e-05
-3.03420071e-05
-3.03676718e-05
-3.14457812e-05
-3.14934718e-05
-3.09859783e-05
-3.04985261e-05
-3.04996143e-05
-3.13250005e-05
-3.15326533e-05
-3.0969702e-05
-3.06457228e-05
-3.13324363e-05
-3.15384346e-05
-3.0951313e-05
-3.07076438e-05
-3.12336714e-05
-3.15047472e-05
-3.10158747e-05
-3.05743237e-05
-3.0563459e-05
-3.12668577e-05
-3.15017329e-05
-3.0997241e-05
-3.05666785e-05
-3.0558283e-05
-3.12466253e-05
-3.14948965e-05
-3.10324639e-05
-3.05624531e-05
-3.05580446e-05
-3.14288314e-05
-3.14984112e-05
-3.09803744e-05
-3.05416942e-05
-3.0536914e-05
-3.14628886e-05
-3.14999429e-05
-3.09544169e-05
-3.0490192e-05
-3.04899788e-05
-3.14388344e-05
-3.15398037e-05
-3.08903274e-05
-3.07256368e-05
-3.14721808e-05
-3.15100073e-05
-3.09372422e-05
-3.04747405e-05
-3.04822397e-05
-3.14419236e-05
-3.15398328e-05
-3.08728306e-05
-3.07130607e-05
-3.14819023e-05
-3.1510087e-05
-3.09325537e-05
-3.04920518e-05
-3.04879462e-05
-3.14603635e-05
-3.1539536e-05
-3.08811294e-05
-3.07361306e-05
-3.14896183e-05
-3.15096182e-05
-3.09291824e-05
-3.04813396e-05
-3.0478787e-05
-3.14644401e-05
-3.15393769e-05
-3.08529191e-05
-3.07303547e-05
-3.14945898e-05
-3.15100714e-05
-3.09249467e-05
-3.04763989e-05
-3.04811168e-05
-3.14749423e-05
-3.1537718e-05
-3.08453888e-05
-3.07375493e-05
-3.14971907e-05
-3.15086514e-05
-3.09228455e-05
-3.04492239e-05
-3.0453671e-05
-3.14721152e-05
-3.15288206e-05
-3.08212972e-05
-3.06267832e-05
-3.14658132e-05
-3.15289896e-05
-3.08023435e-05
-3.06391133e-05
-3.14684914e-05
-3.15354992e-05
-3.08077955e-05
-3.07338809e-05
-3.14986429e-05
-3.15091947e-05
-3.09239381e-05
-3.04704352e-05
-3.04865029e-05
-3.14769963e-05
-3.15277659e-05
-3.08176354e-05
-3.07457488e-05
-3.14986391e-05
-3.15093688e-05
-3.09239082e-05
-3.04809817e-05
-3.05035555e-05
-3.14718756e-05
-3.15238417e-05
-3.08193844e-05
-3.07597971e-05
-3.14953415e-05
-3.1510889e-05
-3.09248198e-05
-3.0476567e-05
-3.04786359e-05
-3.14336099e-05
-3.15117991e-05
-3.08224686e-05
-3.06541115e-05
-3.14523456e-05
-3.15153658e-05
-3.07907861e-05
-3.06348834e-05
-3.14360915e-05
-3.15149335e-05
-3.08028899e-05
-3.07260088e-05
-3.14688426e-05
-3.15097668e-05
-3.09483818e-05
-3.05474027e-05
-3.05481389e-05
-3.14032813e-05
-3.14996739e-05
-3.0831375e-05
-3.07325018e-05
-3.14408415e-05
-3.15157071e-05
-3.09578484e-05
-3.0621869e-05
-3.06175654e-05
-3.11678971e-05
-3.15090949e-05
-3.09897406e-05
-3.05635544e-05
-3.05415889e-05
-3.13424344e-05
-3.15140007e-05
-3.0924656e-05
)
;

boundaryField
{
    closed
    {
        type            calculated;
        value           nonuniform List<scalar> 0();
    }
    open
    {
        type            calculated;
        value           nonuniform List<scalar> 0();
    }
    sides
    {
        type            empty;
    }
    procBoundary2to1
    {
        type            processor;
        value           uniform -3.08150048e-05;
    }
    procBoundary2to3
    {
        type            processor;
        value           uniform -3.0792677e-05;
    }
}


// ************************************************************************* //
