/*--------------------------------*- C++ -*----------------------------------*\
| =========                 |                                                 |
| \\      /  F ield         | OpenFOAM: The Open Source CFD Toolbox           |
|  \\    /   O peration     | Version:  2306                                  |
|   \\  /    A nd           | Website:  www.openfoam.com                      |
|    \\/     M anipulation  |                                                 |
\*---------------------------------------------------------------------------*/
FoamFile
{
    version     2.0;
    format      ascii;
    arch        "LSB;label=32;scalar=64";
    class       volScalarField;
    location    "0.0006";
    object      rho;
}
// * * * * * * * * * * * * * * * * * * * * * * * * * * * * * * * * * * * * * //

dimensions      [1 -3 0 0 0 0 0];

internalField   nonuniform List<scalar> 
530
(
0.950865936
0.915037479
0.913913841
0.949883713
0.943629645
0.911744426
0.93480899
0.952454626
0.936876968
0.908834653
0.941876389
0.951423348
0.933857717
0.908909691
0.92083292
0.944572561
0.960189449
0.949956912
0.912624955
0.907950685
0.943050806
0.964757453
0.94302197
0.910769127
0.943057123
0.954541019
0.926645946
0.909620376
0.934408733
0.953835594
0.954534524
0.920893139
0.908349138
0.91445077
0.943245759
0.969029097
0.969156662
0.927889998
0.909749836
0.934377464
0.961650075
0.965547666
0.9256585
0.908314476
0.942887918
0.956202679
0.922110708
0.907942334
0.942299422
0.951553935
0.918797598
0.908820092
0.932858767
0.954270673
0.958084596
0.930161661
0.909068598
0.928889114
0.956121959
0.958642211
0.915922821
0.908412442
0.935960859
0.960926231
0.96166906
0.913640328
0.90823004
0.936112031
0.961756299
0.96306751
0.914853564
0.906876049
0.943032933
0.956954185
0.914740746
0.906791258
0.942786638
0.955389051
0.91359114
0.906319192
0.942341861
0.952050994
0.911012625
0.907309412
0.936482049
0.960181868
0.960358704
0.909061183
0.905341369
0.933831826
0.942577762
0.941349219
0.941490273
0.943483088
0.944058945
0.907372504
0.905840997
0.932592903
0.958744012
0.960108532
0.909845033
0.905321118
0.944795404
0.954324025
0.910185098
0.905464874
0.942970104
0.950200893
0.909298108
0.906678611
0.933335295
0.955296651
0.955427429
0.9093556
0.905473379
0.930768667
0.942994841
0.964368752
0.964767437
0.9081382
0.905839597
0.945427578
0.951278525
0.908532851
0.906518229
0.936310183
0.959784682
0.959001103
0.907576935
0.905408447
0.944713696
0.949098185
0.907915475
0.906271699
0.936763677
0.961475699
0.961818899
0.907889049
0.906031531
0.94704988
0.952653822
0.908409074
0.905894205
0.946710697
0.950372151
0.907969822
0.905985239
0.946118437
0.947874935
0.907159363
0.906471753
0.945169225
0.94450119
0.906321002
0.905375631
0.937313074
0.958166859
0.960554351
0.925709848
0.913833099
0.944063129
0.947098915
0.907299519
0.907028463
0.949730171
0.9481311
0.907042959
0.908191664
0.94890648
0.945079048
0.907057547
0.911191026
0.947278729
0.940851036
0.907044055
0.913657992
0.942992032
0.940737605
0.907788344
0.904721212
0.934882495
0.942650849
0.956810807
0.951985052
0.922878174
0.926204296
0.946991348
0.941760883
0.907992435
0.917792391
0.945546392
0.941462001
0.908147514
0.906471853
0.940357941
0.96209646
0.946629691
0.909952631
0.920248317
0.948105017
0.941955851
0.909534144
0.907452143
0.940766991
0.962950826
0.948036465
0.911555354
0.922628839
0.951059362
0.943334611
0.910351295
0.923001619
0.948321031
0.943474115
0.910385534
0.923969797
0.947221748
0.943561502
0.910757336
0.908366142
0.942257856
0.960473835
0.944532952
0.912069962
0.90936454
0.943683641
0.964150453
0.945582326
0.912502347
0.927323041
0.949552663
0.944844304
0.91247255
0.90907416
0.941784897
0.956832632
0.945267096
0.91354407
0.909408801
0.93940444
0.954863565
0.966283048
0.9464026
0.913357923
0.931569097
0.952303817
0.945676676
0.913025385
0.910787015
0.945542486
0.963440445
0.946536107
0.912939473
0.934202564
0.951692691
0.945149465
0.912622594
0.919499985
0.945427781
0.955226306
0.93853148
0.911884061
0.913888856
0.946885099
0.962822015
0.946272727
0.913301361
0.914476834
0.945325049
0.956731403
0.965517153
0.95690784
0.919487177
0.909413197
0.938080513
0.952352631
0.94282396
0.912298439
0.940268855
0.95332658
0.941648403
0.912794336
0.92586261
0.953196646
0.967016625
0.943429303
0.912590282
0.942172035
0.955410171
0.938744972
0.912479851
0.928702653
0.955585489
0.966666628
0.941030908
0.911679933
0.943387552
0.959505017
0.936583762
0.910714531
0.943666756
0.958191886
0.933536992
0.910063326
0.943662063
0.957630545
0.930413195
0.909391457
0.943288943
0.95619848
0.926895793
0.908791688
0.942624273
0.951778549
0.922447332
0.908736938
0.932433097
0.943573773
0.966281035
0.966746182
0.928590172
0.908547436
0.942727204
0.957836321
0.91790457
0.909287491
0.933775578
0.961308035
0.963087022
0.920821868
0.907617383
0.941170192
0.957360756
0.916877846
0.907115587
0.940871896
0.957123057
0.918991422
0.906899943
0.940646687
0.956684488
0.915416483
0.906746746
0.940308052
0.953515169
0.912764956
0.90779652
0.93522579
0.961217409
0.962678248
0.924427562
0.906889724
0.940960576
0.954032599
0.917687999
0.90783986
0.933383116
0.960358326
0.961926549
0.922929114
0.90656774
0.940795924
0.953414167
0.919357151
0.90781585
0.932307812
0.961981858
0.962239732
0.911826287
0.905892877
0.940260221
0.949700534
0.938461723
0.907201004
0.906089648
0.941230849
0.969358056
0.968140572
0.908467699
0.907465315
0.934017245
0.961909888
0.96183195
0.914165774
0.905761667
0.93955423
0.954863399
0.913700698
0.905544316
0.939987907
0.951891177
0.91904367
0.906895793
0.931750921
0.958141007
0.958633384
0.91715922
0.906904169
0.932931805
0.958432489
0.958808653
0.918194764
0.907119992
0.93058076
0.958562692
0.958751027
0.908567435
0.906935666
0.934026809
0.959461539
0.959668469
0.907366171
0.906772861
0.935793913
0.961802043
0.961789397
0.908245988
0.905042494
0.942856331
0.950600447
0.906932955
0.906267218
0.93703452
0.962355125
0.961976807
0.90797858
0.904835352
0.943495905
0.951009255
0.906465637
0.906084795
0.937253999
0.961338624
0.961503771
0.907207391
0.904645654
0.942908369
0.949731413
0.906079732
0.905918268
0.937340964
0.961649334
0.961742019
0.906875601
0.904429882
0.944053547
0.949814211
0.90571588
0.905708698
0.937611353
0.961692625
0.961445176
0.906351972
0.904276209
0.944207544
0.949274497
0.905465814
0.905552363
0.937656114
0.96276388
0.962532286
0.906222461
0.904388692
0.945153624
0.954286744
0.906329555
0.904390452
0.945959081
0.953615744
0.906174942
0.904014031
0.945604745
0.949064375
0.905047535
0.905156142
0.93711151
0.961387454
0.960611233
0.905703337
0.90399271
0.944970571
0.948342539
0.904905929
0.905001893
0.936899214
0.960743455
0.959666332
0.905749493
0.903984386
0.944764128
0.947558573
0.904888551
0.904832195
0.936768948
0.960843835
0.960734917
0.906946147
0.904347312
0.944555611
0.952467479
0.906276776
0.90427859
0.946026485
0.95335021
0.906827668
0.904216934
0.945439348
0.949040553
0.905548843
0.904768886
0.934643404
0.957439621
0.957400112
0.907966654
0.904640425
0.944093645
0.948737596
0.906463809
0.904546605
0.933862292
0.953955359
0.954157324
0.92079326
0.904685471
0.931490034
0.956730839
0.957767134
0.91123482
0.904099124
0.939744955
)
;

boundaryField
{
    closed
    {
        type            calculated;
        value           nonuniform List<scalar> 0();
    }
    open
    {
        type            calculated;
        value           nonuniform List<scalar> 0();
    }
    sides
    {
        type            empty;
    }
    procBoundary2to1
    {
        type            processor;
        value           uniform 0.948761655;
    }
    procBoundary2to3
    {
        type            processor;
        value           uniform 0.945961778;
    }
}


// ************************************************************************* //
