/*--------------------------------*- C++ -*----------------------------------*\
| =========                 |                                                 |
| \\      /  F ield         | OpenFOAM: The Open Source CFD Toolbox           |
|  \\    /   O peration     | Version:  2306                                  |
|   \\  /    A nd           | Website:  www.openfoam.com                      |
|    \\/     M anipulation  |                                                 |
\*---------------------------------------------------------------------------*/
FoamFile
{
    version     2.0;
    format      ascii;
    arch        "LSB;label=32;scalar=64";
    class       volScalarField;
    location    "0.001";
    object      mu;
}
// * * * * * * * * * * * * * * * * * * * * * * * * * * * * * * * * * * * * * //

dimensions      [1 -1 -1 0 0 0 0];

internalField   nonuniform List<scalar> 
530
(
5.98646123e-05
5.99042039e-05
5.99404033e-05
5.99784218e-05
6.0013106e-05
6.00484351e-05
6.00795661e-05
6.01126654e-05
6.01424452e-05
6.01743691e-05
6.02028928e-05
6.02336971e-05
6.02610427e-05
6.02923146e-05
6.03202626e-05
6.03512039e-05
6.03779414e-05
6.04078272e-05
6.04325712e-05
6.045954e-05
6.04823544e-05
6.05083115e-05
6.05301263e-05
6.05552135e-05
6.0576088e-05
6.0600265e-05
6.06201932e-05
6.06434942e-05
6.06625244e-05
6.06849761e-05
6.07031615e-05
6.07247845e-05
6.07421825e-05
6.07629927e-05
6.07796619e-05
6.07996747e-05
6.08156711e-05
6.08346804e-05
6.08490587e-05
6.08663967e-05
6.08800594e-05
6.08966695e-05
6.09096124e-05
6.09255666e-05
6.09377533e-05
6.09531465e-05
6.09645268e-05
6.09794585e-05
6.0989989e-05
6.10045757e-05
6.10142155e-05
6.10274697e-05
6.10367182e-05
6.10496228e-05
6.10589361e-05
6.10706788e-05
6.10798944e-05
6.10906721e-05
6.10996721e-05
6.11096217e-05
6.11183262e-05
6.11275451e-05
6.1135914e-05
6.1144465e-05
6.11524898e-05
6.11604082e-05
6.11676297e-05
6.11741646e-05
6.11807708e-05
6.11866484e-05
6.11929336e-05
6.11981352e-05
6.12041396e-05
6.12086356e-05
6.12144056e-05
6.12181645e-05
6.12237422e-05
6.12267421e-05
6.12319578e-05
6.12345754e-05
6.12392954e-05
6.12414991e-05
6.1245781e-05
6.12475122e-05
6.12513964e-05
6.12526271e-05
6.12561465e-05
6.12568663e-05
6.12600373e-05
6.12602506e-05
6.12630779e-05
6.1262798e-05
6.12652798e-05
6.12645246e-05
6.12666569e-05
6.12654455e-05
6.1267224e-05
6.12655754e-05
6.12669971e-05
6.12649291e-05
6.12659925e-05
6.12635218e-05
6.12642269e-05
6.12613693e-05
6.12617175e-05
6.12584879e-05
6.12584817e-05
6.12548949e-05
6.12545374e-05
6.12506081e-05
6.12499029e-05
6.12456461e-05
6.12445971e-05
6.12400269e-05
6.12385522e-05
6.12333454e-05
6.12312645e-05
6.12257246e-05
6.12232981e-05
6.12174342e-05
6.12146607e-05
6.12084823e-05
6.1205361e-05
6.11988781e-05
6.11954074e-05
6.11886318e-05
6.11848072e-05
6.11777548e-05
6.11735671e-05
6.11662586e-05
6.11616942e-05
6.11541544e-05
6.11491975e-05
6.11414514e-05
6.1136091e-05
6.11281551e-05
6.1122395e-05
6.11142669e-05
6.11081362e-05
6.10997861e-05
6.10933399e-05
6.10847128e-05
6.10780111e-05
6.10690456e-05
6.10621077e-05
6.10527566e-05
6.10456934e-05
6.10365727e-05
6.10292136e-05
6.1019454e-05
6.10114854e-05
6.10017348e-05
6.09934497e-05
6.09835074e-05
6.09749777e-05
6.09647957e-05
6.09560383e-05
6.0945618e-05
6.09366326e-05
6.09259916e-05
6.09167701e-05
6.09059303e-05
6.0896464e-05
6.08854453e-05
6.08757292e-05
6.08645469e-05
6.08545813e-05
6.08432463e-05
6.08330359e-05
6.08215555e-05
6.0811108e-05
6.07994876e-05
6.07888124e-05
6.07770564e-05
6.07661639e-05
6.07542565e-05
6.07431046e-05
6.07310342e-05
6.07196882e-05
6.07074992e-05
6.06959697e-05
6.06836671e-05
6.06719648e-05
6.06595538e-05
6.06476891e-05
6.06351752e-05
6.06231582e-05
6.06105473e-05
6.05983881e-05
6.05856862e-05
6.05733948e-05
6.05606081e-05
6.05481943e-05
6.05353293e-05
6.05228028e-05
6.05098662e-05
6.04972368e-05
6.04842353e-05
6.04715127e-05
6.04584533e-05
6.0445647e-05
6.04325368e-05
6.04196565e-05
6.04065029e-05
6.03935579e-05
6.03803684e-05
6.03673681e-05
6.03541506e-05
6.03411042e-05
6.03278667e-05
6.03147846e-05
6.03015446e-05
6.02884353e-05
6.02751718e-05
6.02620279e-05
6.024875e-05
6.0235582e-05
6.02222986e-05
6.0209118e-05
6.01958105e-05
6.01825872e-05
6.01692748e-05
6.01560436e-05
6.01427354e-05
6.01295038e-05
6.0116206e-05
6.01029806e-05
6.00896997e-05
6.0076487e-05
6.00632294e-05
6.00500358e-05
6.00368078e-05
6.00236398e-05
6.00104472e-05
5.99973112e-05
5.99841598e-05
5.99710622e-05
5.99579575e-05
5.99449044e-05
5.99318519e-05
5.99188493e-05
5.99058544e-05
5.98928838e-05
5.98798807e-05
5.98669344e-05
5.98540134e-05
5.98411495e-05
5.98283151e-05
5.9815538e-05
5.98027944e-05
5.97901085e-05
5.97774598e-05
5.97648692e-05
5.97523193e-05
5.9739828e-05
5.97273809e-05
5.97149929e-05
5.97026521e-05
5.96903711e-05
5.96781401e-05
5.96659698e-05
5.96538521e-05
5.96417959e-05
5.96297947e-05
5.96178561e-05
5.96059744e-05
5.95941565e-05
5.95823975e-05
5.95707033e-05
5.95590697e-05
5.95475023e-05
5.95359969e-05
5.95245588e-05
5.95131842e-05
5.95018782e-05
5.94906368e-05
5.94794653e-05
5.94683595e-05
5.94573248e-05
5.94463568e-05
5.9435461e-05
5.94246329e-05
5.94138781e-05
5.94031917e-05
5.93925799e-05
5.93820371e-05
5.93715699e-05
5.93611723e-05
5.93508514e-05
5.93406006e-05
5.93304274e-05
5.93203247e-05
5.93103007e-05
5.93003474e-05
5.92904738e-05
5.92806709e-05
5.92709488e-05
5.92612973e-05
5.92517277e-05
5.92422286e-05
5.92328122e-05
5.92234667e-05
5.9214246e-05
5.92050964e-05
5.9196027e-05
5.91870254e-05
5.91781046e-05
5.91692523e-05
5.91604809e-05
5.91517786e-05
5.91431576e-05
5.9134606e-05
5.91261359e-05
5.91177356e-05
5.9109417e-05
5.91011684e-05
5.90930017e-05
5.9084905e-05
5.90768904e-05
5.9068946e-05
5.90610836e-05
5.90532913e-05
5.90455811e-05
5.9037941e-05
5.90303828e-05
5.90228946e-05
5.90154882e-05
5.90081515e-05
5.90008965e-05
5.89937109e-05
5.89866068e-05
5.89795719e-05
5.8972618e-05
5.8965733e-05
5.89589286e-05
5.8952193e-05
5.89455371e-05
5.8938884e-05
5.89322687e-05
5.89257236e-05
5.89192596e-05
5.8912865e-05
5.8906551e-05
5.89003058e-05
5.88941402e-05
5.88880429e-05
5.88820244e-05
5.88760737e-05
5.88702007e-05
5.88643949e-05
5.88586659e-05
5.88530035e-05
5.88474168e-05
5.88418961e-05
5.88364502e-05
5.88310695e-05
5.88257625e-05
5.882052e-05
5.88153502e-05
5.88102442e-05
5.88052098e-05
5.88002384e-05
5.87953375e-05
5.87904988e-05
5.87857295e-05
5.87810216e-05
5.87763821e-05
5.8771803e-05
5.87672912e-05
5.8762839e-05
5.87584529e-05
5.87541256e-05
5.87498632e-05
5.87456587e-05
5.8741518e-05
5.87374343e-05
5.87334133e-05
5.87294482e-05
5.87255447e-05
5.87216963e-05
5.87179082e-05
5.87141743e-05
5.87104996e-05
5.8706878e-05
5.87033146e-05
5.86998032e-05
5.86963489e-05
5.86929456e-05
5.86895983e-05
5.8686301e-05
5.86830584e-05
5.86798649e-05
5.8676725e-05
5.86736331e-05
5.86705937e-05
5.86676013e-05
5.86646603e-05
5.86617652e-05
5.86589204e-05
5.86561204e-05
5.86533697e-05
5.86506627e-05
5.86480038e-05
5.86453877e-05
5.86428186e-05
5.86402911e-05
5.86378097e-05
5.86353688e-05
5.86329728e-05
5.86306163e-05
5.86283038e-05
5.86260296e-05
5.86237983e-05
5.86216043e-05
5.86194522e-05
5.86173363e-05
5.86152613e-05
5.86132215e-05
5.86112215e-05
5.86092557e-05
5.86073287e-05
5.86054349e-05
5.86035788e-05
5.8601755e-05
5.85999679e-05
5.8598212e-05
5.85964919e-05
5.85948021e-05
5.85931471e-05
5.85915213e-05
5.85899294e-05
5.85883658e-05
5.85868352e-05
5.8585332e-05
5.85838607e-05
5.85824159e-05
5.85810022e-05
5.85796141e-05
5.85782562e-05
5.8576923e-05
5.85756191e-05
5.85743391e-05
5.85730874e-05
5.85718588e-05
5.85706577e-05
5.8569479e-05
5.85683268e-05
5.85671962e-05
5.85660913e-05
5.85650074e-05
5.85639482e-05
5.85629092e-05
5.85618931e-05
5.856086e-05
5.85597808e-05
5.85586509e-05
5.85574748e-05
5.85562483e-05
5.8554977e-05
5.85536575e-05
5.85522967e-05
5.85508918e-05
5.85494515e-05
5.85479742e-05
5.85464699e-05
5.85449389e-05
5.85433923e-05
5.85418329e-05
5.85402724e-05
5.85387162e-05
5.85371763e-05
5.8535661e-05
5.85341814e-05
5.85327485e-05
5.85313715e-05
5.85300635e-05
5.85288303e-05
5.85276858e-05
5.85266316e-05
5.85256801e-05
5.85248286e-05
5.85240857e-05
5.85234445e-05
5.85229079e-05
5.85224658e-05
5.85221152e-05
5.85218436e-05
5.85216433e-05
5.85215016e-05
5.85214088e-05
5.85213517e-05
5.85213275e-05
5.85213249e-05
5.85212782e-05
5.85211979e-05
5.85211556e-05
5.85211354e-05
5.85211262e-05
5.85211224e-05
5.85211211e-05
5.85211206e-05
5.85211203e-05
5.85211203e-05
5.85211203e-05
5.85211203e-05
5.85211203e-05
5.85211203e-05
5.85211203e-05
5.85211203e-05
5.85211203e-05
5.85211203e-05
5.85211203e-05
5.85211203e-05
5.85211203e-05
5.85211203e-05
5.85211203e-05
5.85211203e-05
5.85211203e-05
5.85211203e-05
5.85211203e-05
5.85211203e-05
5.85211203e-05
5.85211203e-05
5.85211203e-05
5.85211203e-05
5.85211203e-05
5.85211203e-05
5.85211203e-05
5.85211203e-05
5.85211203e-05
)
;

boundaryField
{
    closed
    {
        type            calculated;
        value           nonuniform List<scalar> 0();
    }
    open
    {
        type            calculated;
        value           uniform 5.85211203e-05;
    }
    sides
    {
        type            empty;
    }
    procBoundary5to4
    {
        type            processor;
        value           uniform 5.98267174e-05;
    }
}


// ************************************************************************* //
