/*--------------------------------*- C++ -*----------------------------------*\
| =========                 |                                                 |
| \\      /  F ield         | OpenFOAM: The Open Source CFD Toolbox           |
|  \\    /   O peration     | Version:  2306                                  |
|   \\  /    A nd           | Website:  www.openfoam.com                      |
|    \\/     M anipulation  |                                                 |
\*---------------------------------------------------------------------------*/
FoamFile
{
    version     2.0;
    format      ascii;
    arch        "LSB;label=32;scalar=64";
    class       volScalarField;
    location    "0.00012";
    object      prefDPV_H2O;
}
// * * * * * * * * * * * * * * * * * * * * * * * * * * * * * * * * * * * * * //

dimensions      [1 -1 -1 0 0 0 0];

internalField   nonuniform List<scalar> 
530
(
1.02122458e-06
1.02322363e-06
1.02527031e-06
1.02721251e-06
1.02913648e-06
1.03103429e-06
1.03288324e-06
1.03475045e-06
1.03649442e-06
1.0383145e-06
1.03996596e-06
1.04174691e-06
1.04329351e-06
1.04497856e-06
1.04641557e-06
1.04807398e-06
1.04944487e-06
1.05108052e-06
1.05239185e-06
1.05400872e-06
1.05526656e-06
1.05683587e-06
1.05799459e-06
1.05951561e-06
1.06062955e-06
1.06213636e-06
1.06320808e-06
1.0647024e-06
1.06573416e-06
1.06721745e-06
1.06821162e-06
1.06965785e-06
1.07057404e-06
1.07197096e-06
1.07285209e-06
1.07423584e-06
1.07508257e-06
1.07645295e-06
1.07726577e-06
1.07862243e-06
1.0794019e-06
1.08074442e-06
1.08149157e-06
1.08275767e-06
1.08343828e-06
1.08468386e-06
1.08533401e-06
1.08656276e-06
1.0871788e-06
1.08837319e-06
1.08897987e-06
1.09014086e-06
1.09073718e-06
1.09185667e-06
1.09243971e-06
1.09348215e-06
1.0940376e-06
1.09499515e-06
1.0955549e-06
1.09645988e-06
1.09702341e-06
1.0978775e-06
1.09842906e-06
1.09921127e-06
1.09975783e-06
1.10049652e-06
1.10103906e-06
1.10173771e-06
1.10227419e-06
1.10292233e-06
1.10341008e-06
1.10399121e-06
1.104469e-06
1.10502134e-06
1.10548835e-06
1.10601382e-06
1.10646979e-06
1.10697017e-06
1.10741496e-06
1.10789206e-06
1.10832554e-06
1.108785e-06
1.1092172e-06
1.10966426e-06
1.11008443e-06
1.11051411e-06
1.11091785e-06
1.11130697e-06
1.11168022e-06
1.11205334e-06
1.11241542e-06
1.11277377e-06
1.11312443e-06
1.1134689e-06
1.11380816e-06
1.11413932e-06
1.11446732e-06
1.11478561e-06
1.11510252e-06
1.11540833e-06
1.11571428e-06
1.11600802e-06
1.11630299e-06
1.11658527e-06
1.11686895e-06
1.11714058e-06
1.11741258e-06
1.11767445e-06
1.11793472e-06
1.11820358e-06
1.11848338e-06
1.11875216e-06
1.11901946e-06
1.11927385e-06
1.1195276e-06
1.11976819e-06
1.12000778e-06
1.12023492e-06
1.12046024e-06
1.12067405e-06
1.12088526e-06
1.12108584e-06
1.12128322e-06
1.12147071e-06
1.1216546e-06
1.12182926e-06
1.12200003e-06
1.1221622e-06
1.1223203e-06
1.12247037e-06
1.12261627e-06
1.1227547e-06
1.12288892e-06
1.12301622e-06
1.12313931e-06
1.12325601e-06
1.12336855e-06
1.12347519e-06
1.12357779e-06
1.12367495e-06
1.12376819e-06
1.12385645e-06
1.12394096e-06
1.12402089e-06
1.12409726e-06
1.12416945e-06
1.12423827e-06
1.12430328e-06
1.12436512e-06
1.1244235e-06
1.12447893e-06
1.12453121e-06
1.12458076e-06
1.12462745e-06
1.12467162e-06
1.12471322e-06
1.1247525e-06
1.12478945e-06
1.12482429e-06
1.12485703e-06
1.12488786e-06
1.1249168e-06
1.12494401e-06
1.12496953e-06
1.12499348e-06
1.12501593e-06
1.12503697e-06
1.12505666e-06
1.12507509e-06
1.12509234e-06
1.12510845e-06
1.1251235e-06
1.12513756e-06
1.12515067e-06
1.1251629e-06
1.1251743e-06
1.12518492e-06
1.12519481e-06
1.125204e-06
1.12521256e-06
1.12522051e-06
1.12522789e-06
1.12523475e-06
1.12524111e-06
1.12524701e-06
1.12525248e-06
1.12525754e-06
1.12526223e-06
1.12526657e-06
1.12527059e-06
1.1252743e-06
1.12527773e-06
1.1252809e-06
1.12528382e-06
1.12528652e-06
1.12528901e-06
1.1252913e-06
1.12529341e-06
1.12529536e-06
1.12529715e-06
1.12529879e-06
1.12530032e-06
1.1253017e-06
1.12530299e-06
1.12530417e-06
1.12530521e-06
1.12530584e-06
1.12530544e-06
1.12530508e-06
1.12530478e-06
1.12530453e-06
1.12530432e-06
1.12530414e-06
1.12530399e-06
1.12530386e-06
1.12530376e-06
1.12530367e-06
1.12530359e-06
1.12530353e-06
1.12530348e-06
1.12530343e-06
1.1253034e-06
1.12530337e-06
1.12530334e-06
1.12530332e-06
1.1253033e-06
1.12530329e-06
1.12530328e-06
1.12530327e-06
1.12530326e-06
1.12530325e-06
1.12530325e-06
1.12530324e-06
1.12530324e-06
1.12530324e-06
1.12530323e-06
1.12530323e-06
1.12530323e-06
1.12530323e-06
1.12530323e-06
1.12530323e-06
1.12530322e-06
1.12530322e-06
1.12530322e-06
1.12530322e-06
1.12530322e-06
1.12530322e-06
1.12530322e-06
1.12530322e-06
1.12530322e-06
1.12530322e-06
1.12530322e-06
1.12530322e-06
1.12530322e-06
1.12530322e-06
1.12530322e-06
1.12530322e-06
1.12530322e-06
1.12530322e-06
1.12530322e-06
1.12530322e-06
1.12530322e-06
1.12530322e-06
1.12530322e-06
1.12530322e-06
1.12530322e-06
1.12530322e-06
1.12530322e-06
1.12530322e-06
1.12530322e-06
1.12530322e-06
1.12530322e-06
1.12530322e-06
1.12530322e-06
1.12530322e-06
1.12530322e-06
1.12530322e-06
1.12530322e-06
1.12530322e-06
1.12530322e-06
1.12530322e-06
1.12530322e-06
1.12530322e-06
1.12530322e-06
1.12530322e-06
1.12530322e-06
1.12530322e-06
1.12530322e-06
1.12530322e-06
1.12530322e-06
1.12530322e-06
1.12530322e-06
1.12530322e-06
1.12530322e-06
1.12530322e-06
1.12530322e-06
1.12530322e-06
1.12530322e-06
1.12530322e-06
1.12530322e-06
1.12530322e-06
1.12530322e-06
1.12530322e-06
1.12530322e-06
1.12530322e-06
1.12530322e-06
1.12530322e-06
1.12530322e-06
1.12530322e-06
1.12530322e-06
1.12530322e-06
1.12530322e-06
1.12530322e-06
1.12530322e-06
1.12530322e-06
1.12530322e-06
1.12530322e-06
1.12530322e-06
1.12530322e-06
1.12530322e-06
1.12530322e-06
1.12530322e-06
1.12530322e-06
1.12530322e-06
1.12530322e-06
1.12530322e-06
1.12530322e-06
1.12530322e-06
1.12530322e-06
1.12530322e-06
1.12530322e-06
1.12530322e-06
1.12530322e-06
1.12530322e-06
1.12530322e-06
1.12530322e-06
1.12530322e-06
1.12530322e-06
1.12530322e-06
1.12530322e-06
1.12530322e-06
1.12530322e-06
1.12530322e-06
1.12530322e-06
1.12530322e-06
1.12530322e-06
1.12530322e-06
1.12530322e-06
1.12530322e-06
1.12530322e-06
1.12530322e-06
1.12530322e-06
1.12530322e-06
1.12530322e-06
1.12530322e-06
1.12530322e-06
1.12530322e-06
1.12530322e-06
1.12530322e-06
1.12530322e-06
1.12530322e-06
1.12530322e-06
1.12530322e-06
1.12530322e-06
1.12530322e-06
1.12530322e-06
1.12530322e-06
1.12530322e-06
1.12530322e-06
1.12530322e-06
1.12530322e-06
1.12530322e-06
1.12530322e-06
1.12530322e-06
1.12530322e-06
1.12530322e-06
1.12530322e-06
1.12530322e-06
1.12530322e-06
1.12530322e-06
1.12530322e-06
1.12530322e-06
1.12530322e-06
1.12530322e-06
1.12530322e-06
1.12530322e-06
1.12530322e-06
1.12530322e-06
1.12530322e-06
1.12530322e-06
1.12530322e-06
1.12530322e-06
1.12530322e-06
1.12530322e-06
1.12530322e-06
1.12530322e-06
1.12530322e-06
1.12530322e-06
1.12530322e-06
1.12530322e-06
1.12530322e-06
1.12530322e-06
1.12530322e-06
1.12530322e-06
1.12530322e-06
1.12530322e-06
1.12530322e-06
1.12530322e-06
1.12530322e-06
1.12530322e-06
1.12530322e-06
1.12530322e-06
1.12530322e-06
1.12530322e-06
1.12530322e-06
1.12530322e-06
1.12530322e-06
1.12530322e-06
1.12530322e-06
1.12530322e-06
1.12530322e-06
1.12530322e-06
1.12530322e-06
1.12530322e-06
1.12530322e-06
1.12530322e-06
1.12530322e-06
1.12530322e-06
1.12530322e-06
1.12530322e-06
1.12530322e-06
1.12530322e-06
1.12530322e-06
1.12530322e-06
1.12530322e-06
1.12530322e-06
1.12530322e-06
1.12530322e-06
1.12530322e-06
1.12530322e-06
1.12530322e-06
1.12530322e-06
1.12530322e-06
1.12530322e-06
1.12530322e-06
1.12530322e-06
1.12530322e-06
1.12530322e-06
1.12530322e-06
1.12530322e-06
1.12530322e-06
1.12530322e-06
1.12530322e-06
1.12530322e-06
1.12530322e-06
1.12530322e-06
1.12530322e-06
1.12530322e-06
1.12530322e-06
1.12530322e-06
1.12530322e-06
1.12530322e-06
1.12530322e-06
1.12530322e-06
1.12530322e-06
1.12530322e-06
1.12530322e-06
1.12530322e-06
1.12530322e-06
1.12530322e-06
1.12530322e-06
1.12530322e-06
1.12530322e-06
1.12530322e-06
1.12530322e-06
1.12530322e-06
1.12530322e-06
1.12530322e-06
1.12530322e-06
1.12530322e-06
1.12530322e-06
1.12530322e-06
1.12530322e-06
1.12530322e-06
1.12530322e-06
1.12530322e-06
1.12530322e-06
1.12530322e-06
1.12530322e-06
1.12530322e-06
1.12530322e-06
1.12530322e-06
1.12530322e-06
1.12530322e-06
1.12530322e-06
1.12530322e-06
1.12530322e-06
1.12530322e-06
1.12530322e-06
1.12530322e-06
1.12530322e-06
1.12530322e-06
1.12530322e-06
1.12530322e-06
1.12530322e-06
1.12530322e-06
1.12530322e-06
1.12530322e-06
1.12530322e-06
1.12530322e-06
1.12530322e-06
1.12530322e-06
1.12530322e-06
1.12530322e-06
1.12530322e-06
1.12530322e-06
1.12530322e-06
1.12530322e-06
1.12530322e-06
1.12530322e-06
1.12530322e-06
1.12530322e-06
1.12530322e-06
1.12530322e-06
1.12530322e-06
1.12530322e-06
1.12530322e-06
1.12530322e-06
1.12530322e-06
1.12530322e-06
)
;

boundaryField
{
    closed
    {
        type            calculated;
        value           nonuniform List<scalar> 0();
    }
    open
    {
        type            calculated;
        value           uniform 1.12530322e-06;
    }
    sides
    {
        type            empty;
    }
    procBoundary5to4
    {
        type            processor;
        value           uniform 1.01904927e-06;
    }
}


// ************************************************************************* //
