/*--------------------------------*- C++ -*----------------------------------*\
| =========                 |                                                 |
| \\      /  F ield         | OpenFOAM: The Open Source CFD Toolbox           |
|  \\    /   O peration     | Version:  2306                                  |
|   \\  /    A nd           | Website:  www.openfoam.com                      |
|    \\/     M anipulation  |                                                 |
\*---------------------------------------------------------------------------*/
FoamFile
{
    version     2.0;
    format      ascii;
    arch        "LSB;label=32;scalar=64";
    class       volScalarField;
    location    "0.00012";
    object      T;
}
// * * * * * * * * * * * * * * * * * * * * * * * * * * * * * * * * * * * * * //

dimensions      [0 0 0 1 0 0 0];

internalField   nonuniform List<scalar> 
530
(
1606.08485
1607.154
1608.0946
1609.13908
1610.00863
1611.03331
1611.88547
1612.90832
1613.70955
1614.70349
1615.46986
1616.44519
1617.15271
1618.01475
1618.64225
1619.49848
1620.11167
1620.96774
1621.5727
1622.43475
1623.03683
1623.85902
1624.37941
1625.15349
1625.67138
1626.45124
1626.96656
1627.75495
1628.26734
1629.06628
1629.57617
1630.34323
1630.78183
1631.49149
1631.92158
1632.62998
1633.05017
1633.75608
1634.16471
1634.86664
1635.26228
1635.95889
1636.34093
1636.93506
1637.24416
1637.81896
1638.10936
1638.66679
1638.93419
1639.46582
1639.72414
1640.22885
1640.47514
1640.94954
1641.17993
1641.57855
1641.75223
1642.06813
1642.23193
1642.51253
1642.6654
1642.91305
1643.03943
1643.23105
1643.34181
1643.50674
1643.60581
1643.74667
1643.83444
1643.9359
1643.95667
1643.9942
1644.00295
1644.02781
1644.02622
1644.04002
1644.03058
1644.03501
1644.01999
1644.01702
1643.99824
1643.99486
1643.986
1643.98828
1643.97697
1643.97915
1643.95917
1643.92187
1643.87497
1643.83874
1643.79833
1643.76531
1643.73133
1643.70311
1643.6758
1643.65326
1643.63296
1643.61659
1643.60354
1643.59364
1643.58786
1643.58473
1643.58593
1643.58987
1643.59755
1643.60872
1643.62285
1643.64052
1643.66243
1643.68484
1643.71525
1643.74829
1643.78612
1643.82591
1643.87044
1643.91551
1643.96517
1644.01453
1644.06786
1644.12048
1644.17629
1644.23113
1644.2884
1644.34447
1644.40229
1644.45872
1644.51632
1644.57235
1644.62904
1644.68403
1644.73925
1644.79268
1644.84596
1644.8974
1644.94838
1644.99749
1645.0459
1645.09244
1645.13808
1645.18188
1645.22464
1645.2656
1645.30542
1645.3435
1645.38036
1645.41557
1645.44953
1645.48191
1645.51304
1645.54267
1645.57108
1645.59807
1645.62387
1645.64836
1645.6717
1645.69382
1645.71485
1645.73475
1645.75362
1645.77146
1645.78834
1645.80427
1645.81932
1645.8335
1645.84686
1645.85944
1645.87127
1645.8824
1645.89284
1645.90264
1645.91184
1645.92045
1645.92852
1645.93607
1645.94312
1645.94972
1645.95588
1645.96163
1645.96699
1645.97199
1645.97664
1645.98097
1645.985
1645.98875
1645.99223
1645.99546
1645.99846
1646.00124
1646.00382
1646.00621
1646.00842
1646.01047
1646.01236
1646.01412
1646.01573
1646.01723
1646.01861
1646.01988
1646.02105
1646.02214
1646.02313
1646.02406
1646.0249
1646.02568
1646.0264
1646.02704
1646.02718
1646.02623
1646.02539
1646.0247
1646.02411
1646.02361
1646.02319
1646.02283
1646.02253
1646.02228
1646.02207
1646.0219
1646.02175
1646.02162
1646.02152
1646.02143
1646.02136
1646.0213
1646.02125
1646.02121
1646.02117
1646.02114
1646.02112
1646.0211
1646.02108
1646.02107
1646.02106
1646.02105
1646.02104
1646.02103
1646.02103
1646.02102
1646.02102
1646.02102
1646.02102
1646.02101
1646.02101
1646.02101
1646.02101
1646.02101
1646.02101
1646.02101
1646.02101
1646.02101
1646.02101
1646.02101
1646.02101
1646.02101
1646.02101
1646.02101
1646.02101
1646.021
1646.021
1646.021
1646.021
1646.021
1646.021
1646.021
1646.021
1646.021
1646.021
1646.021
1646.021
1646.021
1646.021
1646.021
1646.021
1646.021
1646.021
1646.021
1646.021
1646.021
1646.021
1646.021
1646.021
1646.021
1646.021
1646.021
1646.021
1646.021
1646.021
1646.021
1646.021
1646.021
1646.021
1646.021
1646.021
1646.021
1646.021
1646.021
1646.021
1646.021
1646.021
1646.021
1646.021
1646.021
1646.021
1646.021
1646.021
1646.021
1646.021
1646.021
1646.021
1646.021
1646.021
1646.021
1646.021
1646.021
1646.021
1646.021
1646.021
1646.021
1646.021
1646.021
1646.021
1646.021
1646.021
1646.021
1646.021
1646.021
1646.021
1646.021
1646.021
1646.021
1646.021
1646.021
1646.021
1646.021
1646.021
1646.021
1646.021
1646.021
1646.021
1646.021
1646.021
1646.021
1646.021
1646.021
1646.021
1646.021
1646.021
1646.021
1646.021
1646.021
1646.021
1646.021
1646.021
1646.021
1646.021
1646.021
1646.021
1646.021
1646.021
1646.021
1646.021
1646.021
1646.021
1646.021
1646.021
1646.021
1646.021
1646.021
1646.021
1646.021
1646.021
1646.021
1646.021
1646.021
1646.021
1646.021
1646.021
1646.021
1646.021
1646.021
1646.021
1646.021
1646.021
1646.021
1646.021
1646.021
1646.021
1646.021
1646.021
1646.021
1646.021
1646.021
1646.021
1646.021
1646.021
1646.021
1646.021
1646.021
1646.021
1646.021
1646.021
1646.021
1646.021
1646.021
1646.021
1646.021
1646.021
1646.021
1646.021
1646.021
1646.021
1646.021
1646.021
1646.021
1646.021
1646.021
1646.021
1646.021
1646.021
1646.021
1646.021
1646.021
1646.021
1646.021
1646.021
1646.021
1646.021
1646.021
1646.021
1646.021
1646.021
1646.021
1646.021
1646.021
1646.021
1646.021
1646.021
1646.021
1646.021
1646.021
1646.021
1646.021
1646.021
1646.021
1646.021
1646.021
1646.021
1646.021
1646.021
1646.021
1646.021
1646.021
1646.021
1646.021
1646.021
1646.021
1646.021
1646.021
1646.021
1646.021
1646.021
1646.021
1646.021
1646.021
1646.021
1646.021
1646.021
1646.021
1646.021
1646.021
1646.021
1646.021
1646.021
1646.021
1646.021
1646.021
1646.021
1646.021
1646.021
1646.021
1646.021
1646.021
1646.021
1646.021
1646.021
1646.021
1646.021
1646.021
1646.021
1646.021
1646.021
1646.021
1646.021
1646.021
1646.021
1646.021
1646.021
1646.021
1646.021
1646.021
1646.021
1646.021
1646.021
1646.021
1646.021
1646.021
1646.021
1646.021
1646.021
1646.021
1646.021
1646.021
1646.021
1646.021
1646.021
1646.021
1646.021
1646.021
1646.021
1646.021
1646.021
1646.021
1646.021
1646.021
1646.021
1646.021
1646.021
1646.021
1646.021
1646.021
)
;

boundaryField
{
    closed
    {
        type            fixedValue;
        value           nonuniform List<scalar> 0();
    }
    open
    {
        type            zeroGradient;
    }
    sides
    {
        type            empty;
    }
    procBoundary5to4
    {
        type            processor;
        value           uniform 1605.07007;
    }
}


// ************************************************************************* //
