/*--------------------------------*- C++ -*----------------------------------*\
| =========                 |                                                 |
| \\      /  F ield         | OpenFOAM: The Open Source CFD Toolbox           |
|  \\    /   O peration     | Version:  2306                                  |
|   \\  /    A nd           | Website:  www.openfoam.com                      |
|    \\/     M anipulation  |                                                 |
\*---------------------------------------------------------------------------*/
FoamFile
{
    version     2.0;
    format      ascii;
    arch        "LSB;label=32;scalar=64";
    class       volScalarField;
    location    "0.00056";
    object      Z;
}
// * * * * * * * * * * * * * * * * * * * * * * * * * * * * * * * * * * * * * //

dimensions      [0 0 0 0 0 0 0];

internalField   nonuniform List<scalar> 
530
(
0.0148121363
0.0143050722
0.0140838625
0.0146321882
0.0147953128
0.0142215915
0.0140798547
0.014675149
0.0147749323
0.0141347807
0.0140843366
0.0144359177
0.0148299212
0.0148259735
0.0142146491
0.0140893434
0.0143641503
0.0148109628
0.014827642
0.0143004513
0.0140830261
0.0146687574
0.0147834157
0.0141475318
0.0140764688
0.0146405958
0.0147736432
0.0143924228
0.0140818247
0.0140772388
0.0144671051
0.0147742169
0.0148751404
0.0148735547
0.0141360124
0.0140969662
0.0144571728
0.0148655323
0.014850325
0.0141399839
0.0140798278
0.01470892
0.0147751718
0.0141319981
0.0140741947
0.0147017044
0.0147703106
0.0141252534
0.0140838051
0.014454317
0.0148411234
0.0148386011
0.0141285265
0.0140887916
0.0143833631
0.0148280209
0.0148243877
0.0141286615
0.0140886482
0.0144486032
0.0148451179
0.0148408702
0.0141257133
0.0140914499
0.0144484235
0.0148567517
0.0148440717
0.014131789
0.0140802204
0.0147268028
0.0148006727
0.0141329312
0.0140764512
0.0147416441
0.0148041487
0.014130627
0.0140767498
0.0147252199
0.0147878962
0.0141200072
0.0140831381
0.0144912847
0.0148411038
0.0148389379
0.0141119116
0.0140874831
0.0144660533
0.0148303201
0.0146570969
0.0141045408
0.0145769879
0.0148225756
0.0141092713
0.014092089
0.014477418
0.0148565977
0.0148394345
0.0141194226
0.0140759375
0.0147217199
0.014786601
0.014117935
0.0140721771
0.0147169976
0.0147713814
0.0141110871
0.0140796413
0.0144693895
0.0148121297
0.014801026
0.0141075794
0.0140731114
0.014466732
0.0147151665
0.0148536257
0.014836568
0.0141135464
0.014078279
0.0147214402
0.0147815711
0.0141078293
0.0140848239
0.0145129105
0.0148523574
0.0148341935
0.0141102876
0.0140786449
0.014704677
0.0147731451
0.0141046632
0.0140855806
0.0145401174
0.0148725453
0.014849854
0.0141176744
0.0140796257
0.0147450042
0.0148048747
0.014122487
0.0140762842
0.0147513625
0.0148000188
0.0141232931
0.0140761125
0.0147464526
0.0147948288
0.0141168249
0.0140766928
0.014726153
0.0147817346
0.0141036327
0.0140872347
0.0145799445
0.0148893671
0.0148601968
0.0141245167
0.0140815769
0.014753435
0.0148166706
0.0141361725
0.0140787729
0.0147560155
0.0148102448
0.0141353747
0.0140781005
0.0147536258
0.0148045245
0.0141297314
0.0140764105
0.0147468067
0.0147927209
0.0141202141
0.0140731615
0.0147166164
0.0147533095
0.0141080642
0.014071866
0.014527666
0.0147360671
0.0148399032
0.0148253976
0.0141169303
0.0140782628
0.0147461867
0.0147996317
0.0141200753
0.0140759411
0.0147320392
0.0147792618
0.0141099668
0.0140836164
0.014563409
0.0148536289
0.0148425733
0.0141090805
0.0140772143
0.0147117565
0.0147740753
0.0141096947
0.0140828746
0.0145660335
0.0148574199
0.0148458479
0.0141165971
0.0140780919
0.0147400207
0.0148058867
0.0141257592
0.014075324
0.0147447766
0.0147908806
0.0141249749
0.0140748419
0.0147261368
0.0147734416
0.0141178524
0.0140804447
0.0145015012
0.0148403775
0.0148354236
0.0141174538
0.0140825873
0.0145180055
0.0148352859
0.0148273507
0.014112474
0.0140730144
0.0147043911
0.0147628707
0.0141194834
0.0140760592
0.0144852656
0.0147931771
0.0147914575
0.014110626
0.0140717508
0.0144543655
0.0147367948
0.0148289649
0.0148177421
0.0141319766
0.0140747969
0.0147234528
0.0147811767
0.0141261309
0.01407923
0.0145110088
0.0148229701
0.0148175104
0.0141168671
0.0140706117
0.0147229788
0.0147831484
0.0141373728
0.014069689
0.0147176207
0.0147586647
0.0141475522
0.0140690755
0.0142763449
0.0146956239
0.0148280227
0.0147972801
0.0141099316
0.0140710427
0.0145299895
0.0147555081
0.0148667696
0.0148463993
0.0141332791
0.0140772726
0.014089454
0.0147245273
0.0148238506
0.0141455
0.0140826697
0.0147235094
0.0147744572
0.0141352369
0.0140830888
0.014590485
0.0148474519
0.0148224241
0.0141153982
0.0140744412
0.0147135246
0.014761699
0.01413351
0.0140806515
0.0145896091
0.0148508252
0.0148268232
0.0141181985
0.0140790681
0.0147398287
0.01480213
0.0141467823
0.0140818895
0.0147390165
0.0147977928
0.0141483199
0.0140822387
0.0147373182
0.0147951731
0.0141470385
0.0140817709
0.0147277944
0.0147843049
0.0141438424
0.0140771497
0.0147016669
0.0147432189
0.014131488
0.0140747507
0.0145444222
0.0147727413
0.0148265228
0.0148285716
0.0141195858
0.0140799835
0.0147376948
0.0147812608
0.0141289075
0.0140822246
0.0145527285
0.0148258049
0.0147824583
0.0141120307
0.0140775155
0.0147406114
0.0147873595
0.0141381982
0.0140829045
0.0147495996
0.0147953866
0.0141384859
0.0140840005
0.0147525707
0.0147972541
0.0141336492
0.0140849978
0.0147281952
0.0147466974
0.0141098747
0.0140789412
0.014660521
0.0148582853
0.014785896
0.0141054941
0.0140836366
0.0147341338
0.0147374795
0.0140975686
0.0140770701
0.0146618549
0.0148532039
0.0147626367
0.0141006746
0.0140869714
0.0147442191
0.0147394946
0.0140927225
0.0140758458
0.0146571142
0.0148440856
0.0147404337
0.0140960961
0.0140782141
0.0147397566
0.0147415361
0.0140886247
0.0140683632
0.0145025618
0.0147489699
0.0147970889
0.0147158477
0.0140805886
0.0140729839
0.0146437881
0.0148435877
0.0147246763
0.0140944436
0.0140939674
0.0147817497
0.0147686776
0.0140872224
0.0141180953
0.0147725373
0.0147453796
0.0140762313
0.0140726268
0.0146273323
0.0148229786
0.0146985834
0.0140796826
0.0140678848
0.0146484806
0.0148292464
0.0147039336
0.0140793359
0.0140679573
0.0146088543
0.0148159125
0.0146912945
0.0140778469
0.0140688307
0.0146282714
0.0148275195
0.014700703
0.014078733
0.0140707667
0.0146470807
0.0148473764
0.0147291663
0.0140884858
0.0140952078
0.0147736865
0.0147387798
0.0140730797
0.0140768747
0.0146490695
0.0148577687
0.0147308382
0.0140893894
0.0141120371
0.0147826831
0.0147318936
0.0140736116
0.0140763958
0.01464442
0.0148549921
0.0147032385
0.014089615
0.0141481499
0.0147767292
0.0147019406
0.0140747088
0.0140756098
0.0146467703
0.0148626462
0.0146933282
0.014092888
0.0142040124
0.0147883512
0.0146797828
0.0140769562
0.0140745355
0.0146557736
0.0148618466
0.0146621363
0.0140934397
0.014251987
0.0147865133
0.0146427721
0.0140769117
0.0140758722
0.014674424
0.0148729212
0.0146577939
0.0140956639
0.0142838638
0.0148032792
0.0145687369
0.0140865272
0.0143584736
0.0147911013
0.0145205299
0.0140842726
0.0143599439
0.0147860246
0.0145933131
0.0140761027
0.0140770311
0.0146958615
0.0148757795
0.0146146087
0.0140937647
0.0143317107
0.0147892278
0.0145912599
0.0140772006
0.0140777012
0.0146960758
0.0148712646
0.0145977352
0.0140930063
0.014354246
0.0147839578
0.0145739924
0.0140768478
0.0140809398
0.0147056193
0.0148875362
0.0145979533
0.0140958109
0.0143920584
0.0148020503
0.0144548395
0.014087169
0.0144653864
0.0148081792
0.0144484115
0.0140845288
0.0144592488
0.0147793568
0.0145075794
0.0140749272
0.0140949666
0.0147145694
0.0148852706
0.0145391661
0.0140922349
0.0144565043
0.014777154
0.0144774103
0.0140743568
0.0141022807
0.0147062717
0.0148740037
0.0146268996
0.0140862151
0.0140799974
0.0146885619
0.0148643197
0.0145669018
0.0140937547
0.0143658616
0.0147837467
0.0145741678
0.0140768141
)
;

boundaryField
{
    closed
    {
        type            zeroGradient;
    }
    open
    {
        type            zeroGradient;
    }
    sides
    {
        type            empty;
    }
    procBoundary2to1
    {
        type            processor;
        value           uniform 0.0146044536;
    }
    procBoundary2to3
    {
        type            processor;
        value           uniform 0.0140688577;
    }
}


// ************************************************************************* //
