/*--------------------------------*- C++ -*----------------------------------*\
| =========                 |                                                 |
| \\      /  F ield         | OpenFOAM: The Open Source CFD Toolbox           |
|  \\    /   O peration     | Version:  2306                                  |
|   \\  /    A nd           | Website:  www.openfoam.com                      |
|    \\/     M anipulation  |                                                 |
\*---------------------------------------------------------------------------*/
FoamFile
{
    version     2.0;
    format      ascii;
    arch        "LSB;label=32;scalar=64";
    class       volScalarField;
    location    "0.00094";
    object      alpha;
}
// * * * * * * * * * * * * * * * * * * * * * * * * * * * * * * * * * * * * * //

dimensions      [1 -1 -1 0 0 0 0];

internalField   nonuniform List<scalar> 
531
(
3.64724189e-05
3.68073906e-05
3.59470837e-05
3.52613758e-05
3.52451011e-05
3.64674461e-05
3.68090332e-05
3.59101915e-05
3.51802463e-05
3.51872246e-05
3.65591879e-05
3.68424102e-05
3.57913122e-05
3.5528201e-05
3.63964674e-05
3.68508068e-05
3.57622326e-05
3.54763738e-05
3.64566499e-05
3.68269291e-05
3.57849549e-05
3.50566368e-05
3.50721198e-05
3.67423589e-05
3.68065306e-05
3.58597983e-05
3.51662359e-05
3.52239466e-05
3.67365855e-05
3.68330043e-05
3.67745172e-05
3.68493304e-05
3.68220906e-05
3.58423352e-05
3.53450762e-05
3.5350375e-05
3.54037439e-05
3.52677984e-05
3.52714986e-05
3.67804734e-05
3.67956736e-05
3.58805645e-05
3.52260409e-05
3.53789952e-05
3.67840677e-05
3.68515976e-05
3.68133068e-05
3.56927943e-05
3.50899629e-05
3.52331269e-05
3.6760503e-05
3.68579476e-05
3.57835627e-05
3.55146841e-05
3.670816e-05
3.6861768e-05
3.57410636e-05
3.52657504e-05
3.51682064e-05
3.53563928e-05
3.67378027e-05
3.68209792e-05
3.678232e-05
3.68486267e-05
3.68477488e-05
3.56753839e-05
3.5216063e-05
3.51674602e-05
3.53103028e-05
3.67943277e-05
3.68183649e-05
3.57835919e-05
3.52356466e-05
3.54706311e-05
3.67876704e-05
3.68455012e-05
3.57776317e-05
3.52409481e-05
3.55345641e-05
3.67887723e-05
3.68460893e-05
3.57623944e-05
3.52087122e-05
3.55241225e-05
3.67883941e-05
3.68479496e-05
3.57519328e-05
3.52032647e-05
3.5563736e-05
3.67881576e-05
3.68503327e-05
3.57483855e-05
3.52217842e-05
3.56030701e-05
3.6786609e-05
3.68504398e-05
3.57488445e-05
3.5236645e-05
3.562196e-05
3.67847821e-05
3.68499352e-05
3.57475191e-05
3.52356654e-05
3.56175799e-05
3.67837044e-05
3.68511562e-05
3.57423044e-05
3.52048443e-05
3.55962292e-05
3.67915189e-05
3.6834582e-05
3.57232268e-05
3.51178181e-05
3.56389227e-05
3.67556625e-05
3.68359131e-05
3.68419887e-05
3.56669738e-05
3.52186679e-05
3.52144124e-05
3.56083653e-05
3.67957235e-05
3.68356348e-05
3.57089181e-05
3.52128533e-05
3.56265921e-05
3.67641768e-05
3.68670074e-05
3.5718435e-05
3.54374208e-05
3.67519534e-05
3.68295845e-05
3.57353734e-05
3.51890496e-05
3.56111298e-05
3.67878287e-05
3.68650007e-05
3.56899179e-05
3.51728328e-05
3.56785153e-05
3.67821906e-05
3.68885223e-05
3.57010757e-05
3.56117442e-05
3.67688435e-05
3.68470276e-05
3.56892266e-05
3.52249002e-05
3.56904384e-05
3.67930135e-05
3.68698904e-05
3.56832924e-05
3.52330728e-05
3.57026235e-05
3.6792732e-05
3.68677337e-05
3.5685918e-05
3.52490158e-05
3.57097465e-05
3.67916659e-05
3.68646233e-05
3.56868035e-05
3.52577187e-05
3.57103976e-05
3.6783187e-05
3.68695002e-05
3.56861055e-05
3.52764766e-05
3.53105245e-05
3.57476654e-05
3.67989235e-05
3.68670845e-05
3.57124377e-05
3.57413166e-05
3.67771957e-05
3.68542289e-05
3.56740372e-05
3.52132891e-05
3.57118373e-05
3.6781794e-05
3.68665946e-05
3.56819648e-05
3.51894855e-05
3.57205576e-05
3.67839686e-05
3.68598625e-05
3.56663849e-05
3.51529823e-05
3.57229384e-05
3.67790939e-05
3.68361617e-05
3.57148475e-05
3.57662423e-05
3.67882523e-05
3.6831303e-05
3.56381741e-05
3.52088673e-05
3.5731713e-05
3.67752376e-05
3.68345322e-05
3.56700044e-05
3.52054878e-05
3.57400794e-05
3.67752843e-05
3.68194089e-05
3.56012927e-05
3.5181558e-05
3.57341666e-05
3.67814351e-05
3.67300504e-05
3.5714362e-05
3.57633846e-05
3.68005932e-05
3.67619149e-05
3.55288745e-05
3.52290253e-05
3.57555105e-05
3.6778151e-05
3.67748394e-05
3.55356834e-05
3.52215363e-05
3.57629065e-05
3.67843771e-05
3.63674946e-05
3.55775773e-05
3.57047864e-05
3.67726856e-05
3.68594187e-05
3.62620707e-05
3.56463428e-05
3.55472161e-05
3.57290853e-05
3.58044136e-05
3.5802792e-05
3.57689028e-05
3.5705972e-05
3.55921673e-05
3.57661382e-05
3.6809742e-05
3.68529964e-05
3.6086253e-05
3.55842754e-05
3.57454611e-05
3.68151598e-05
3.64296098e-05
3.52690522e-05
3.51323357e-05
3.5761979e-05
3.68008206e-05
3.62655217e-05
3.548397e-05
3.5726225e-05
3.68241415e-05
3.61777426e-05
3.5439879e-05
3.57420246e-05
3.68290127e-05
3.61455281e-05
3.54746318e-05
3.57750379e-05
3.68247123e-05
3.61384013e-05
3.51532667e-05
3.51833705e-05
3.58597729e-05
3.68244918e-05
3.61148011e-05
3.55692005e-05
3.58291557e-05
3.68350806e-05
3.60610362e-05
3.51735968e-05
3.53042992e-05
3.59612996e-05
3.68338977e-05
3.60056332e-05
3.56147841e-05
3.59132664e-05
3.68335146e-05
3.59626083e-05
3.5213473e-05
3.54337747e-05
3.61375696e-05
3.68161027e-05
3.59214877e-05
3.52065725e-05
3.54179173e-05
3.61190914e-05
3.68315113e-05
3.58818537e-05
3.56927462e-05
3.60625129e-05
3.68262947e-05
3.58528058e-05
3.5220734e-05
3.55168688e-05
3.62740217e-05
3.68132533e-05
3.58330881e-05
3.52098118e-05
3.54844495e-05
3.62290938e-05
3.68279689e-05
3.58210558e-05
3.57297291e-05
3.61825161e-05
3.68215326e-05
3.57947404e-05
3.5221712e-05
3.55658234e-05
3.63648014e-05
3.68106087e-05
3.57917292e-05
3.52185642e-05
3.55433732e-05
3.63215739e-05
3.68225743e-05
3.57992808e-05
3.57374876e-05
3.62771571e-05
3.6813358e-05
3.57729076e-05
3.52625577e-05
3.56583174e-05
3.64824052e-05
3.68042759e-05
3.57790491e-05
3.5298566e-05
3.56685013e-05
3.65093291e-05
3.67984819e-05
3.57655418e-05
3.52765122e-05
3.56515977e-05
3.6442369e-05
3.68033115e-05
3.57900565e-05
3.57368289e-05
3.63422934e-05
3.68178783e-05
3.60358664e-05
3.55112312e-05
3.55339369e-05
3.56005275e-05
3.560242e-05
3.5729723e-05
3.67367217e-05
3.67694285e-05
3.57666953e-05
3.53198559e-05
3.568385e-05
3.64118567e-05
3.67609999e-05
3.57487397e-05
3.57428999e-05
3.6257132e-05
3.67579545e-05
3.57356549e-05
3.57351056e-05
3.62766912e-05
3.67403424e-05
3.57016576e-05
3.51583016e-05
3.56148487e-05
3.63571634e-05
3.67310868e-05
3.57487338e-05
3.5745193e-05
3.6254761e-05
3.67256414e-05
3.57134368e-05
3.51993048e-05
3.56324201e-05
3.63269794e-05
3.6718679e-05
3.57631781e-05
3.57466944e-05
3.62074639e-05
3.67219733e-05
3.57277152e-05
3.51919397e-05
3.55912056e-05
3.62540307e-05
3.6715648e-05
3.57768696e-05
3.5743655e-05
3.61184288e-05
3.67322441e-05
3.57508045e-05
3.51163243e-05
3.54543838e-05
3.61274634e-05
3.67250453e-05
3.57933858e-05
3.56678631e-05
3.59702803e-05
3.6746941e-05
3.58181335e-05
3.56269872e-05
3.59208011e-05
3.67616704e-05
3.58697179e-05
3.56268096e-05
3.588452e-05
3.67919349e-05
3.59858055e-05
3.50754416e-05
3.52290475e-05
3.58836975e-05
3.67828733e-05
3.60638198e-05
3.56192427e-05
3.57866207e-05
3.68132503e-05
3.61725948e-05
3.56501176e-05
3.57783128e-05
3.68388829e-05
3.65001616e-05
3.51754793e-05
3.51912481e-05
3.57724283e-05
3.68205242e-05
3.65254456e-05
3.57464771e-05
3.57601915e-05
3.68500802e-05
3.67328908e-05
3.54631994e-05
3.53180555e-05
3.57911304e-05
3.68192952e-05
3.67975024e-05
3.55672738e-05
3.53711425e-05
3.53803426e-05
3.57581251e-05
3.68433475e-05
3.68129897e-05
3.55792445e-05
3.50991094e-05
3.56617945e-05
3.68147149e-05
3.68489338e-05
3.56612615e-05
3.55962447e-05
3.67944279e-05
3.68340345e-05
3.56850223e-05
3.55899916e-05
3.67583918e-05
3.68232517e-05
3.57438285e-05
3.56399959e-05
3.67464676e-05
3.67732821e-05
3.56922522e-05
3.5006235e-05
3.53458085e-05
3.66989656e-05
3.68033409e-05
3.57450211e-05
3.56045121e-05
3.6482367e-05
3.67941717e-05
3.57301771e-05
3.56154121e-05
3.63971764e-05
3.67831288e-05
3.57321627e-05
3.56691767e-05
3.63379671e-05
3.67721656e-05
3.57476662e-05
3.57851175e-05
3.63223249e-05
3.67403659e-05
3.57496201e-05
3.53014075e-05
3.54970205e-05
3.64659985e-05
3.67478006e-05
3.57898609e-05
3.53844278e-05
3.55400718e-05
3.64426104e-05
3.67473208e-05
3.57966787e-05
3.54152466e-05
3.55921041e-05
3.62535808e-05
3.67674456e-05
3.68051708e-05
3.6810548e-05
3.57921419e-05
3.55140277e-05
3.53323812e-05
3.54510629e-05
3.63259522e-05
3.67204127e-05
3.58364096e-05
3.5457076e-05
3.55024927e-05
3.63189054e-05
3.67238773e-05
3.5860222e-05
3.55149248e-05
3.55879122e-05
3.63551977e-05
3.67343725e-05
3.58713766e-05
3.55519528e-05
3.56388747e-05
3.63770159e-05
3.67301336e-05
3.58657219e-05
3.55412285e-05
3.56044263e-05
3.63493771e-05
3.67121443e-05
3.5844654e-05
3.54879078e-05
3.55277681e-05
3.63041237e-05
3.66573024e-05
3.58004626e-05
3.5409251e-05
3.55043267e-05
3.61561735e-05
3.67587207e-05
3.68264808e-05
)
;

boundaryField
{
    closed
    {
        type            calculated;
        value           nonuniform List<scalar> 0();
    }
    open
    {
        type            calculated;
        value           nonuniform List<scalar> 0();
    }
    sides
    {
        type            empty;
    }
    procBoundary3to2
    {
        type            processor;
        value           uniform 3.53012655e-05;
    }
    procBoundary3to4
    {
        type            processor;
        value           uniform 3.68276315e-05;
    }
}


// ************************************************************************* //
