/*--------------------------------*- C++ -*----------------------------------*\
| =========                 |                                                 |
| \\      /  F ield         | OpenFOAM: The Open Source CFD Toolbox           |
|  \\    /   O peration     | Version:  2306                                  |
|   \\  /    A nd           | Website:  www.openfoam.com                      |
|    \\/     M anipulation  |                                                 |
\*---------------------------------------------------------------------------*/
FoamFile
{
    version     2.0;
    format      ascii;
    arch        "LSB;label=32;scalar=64";
    class       volScalarField;
    location    "0.00094";
    object      rho;
}
// * * * * * * * * * * * * * * * * * * * * * * * * * * * * * * * * * * * * * //

dimensions      [1 -3 0 0 0 0 0];

internalField   nonuniform List<scalar> 
531
(
0.916538638
0.905209821
0.933165692
0.95623094
0.956777805
0.916950379
0.905428811
0.934570626
0.959291857
0.958933696
0.914319056
0.904398391
0.938564015
0.947317158
0.919536529
0.904229596
0.939577035
0.949259802
0.917730495
0.905215014
0.938902889
0.963887568
0.963263796
0.908862125
0.905985161
0.936605014
0.960265391
0.958125359
0.909067928
0.905034418
0.907318632
0.904449287
0.905445589
0.937253126
0.954046114
0.953865789
0.952170389
0.95691067
0.956809503
0.907569171
0.906561785
0.936198869
0.958463915
0.953039454
0.907528611
0.904548174
0.905959134
0.942186041
0.963211172
0.958114491
0.908410398
0.904540822
0.939588329
0.948508143
0.91050809
0.904584122
0.94101398
0.957239581
0.960857799
0.954341904
0.909621627
0.90613685
0.907758763
0.905196964
0.905274222
0.943261737
0.959300891
0.960958535
0.956247505
0.907662499
0.906476706
0.940008508
0.958781233
0.950658221
0.907931362
0.905554132
0.940252415
0.95860636
0.948491868
0.907891569
0.905549305
0.94074055
0.959712034
0.948829822
0.907866369
0.905430045
0.940989021
0.959787382
0.94732701
0.907722552
0.905191421
0.940938056
0.958977423
0.945796479
0.907603316
0.905035845
0.940784665
0.958338618
0.945027383
0.907547839
0.904946704
0.940716414
0.958259177
0.945066767
0.907466427
0.90479055
0.940757914
0.959180389
0.945730633
0.907107855
0.905330502
0.941297756
0.962270457
0.944165345
0.908479534
0.905089799
0.904929412
0.942818145
0.958501699
0.958550011
0.945171355
0.906659051
0.904986867
0.941435767
0.958612864
0.944250471
0.907733625
0.903814694
0.941130471
0.950766571
0.908379624
0.905129642
0.94046419
0.959248645
0.944593697
0.906662837
0.903638948
0.941658355
0.959496028
0.942016415
0.906586104
0.90262121
0.941147211
0.944244981
0.907154561
0.903986271
0.94140837
0.95748762
0.94132182
0.905981176
0.90303354
0.941447329
0.957028922
0.94077581
0.905818628
0.902960428
0.94120305
0.956339864
0.940405118
0.905718808
0.902963742
0.941060113
0.955979717
0.94029801
0.90596634
0.902753431
0.94106087
0.955247208
0.954098921
0.939191729
0.905408735
0.902978526
0.940310343
0.939469953
0.906423726
0.903483611
0.941586633
0.957738229
0.940490637
0.906308154
0.903247636
0.941536769
0.958765532
0.940456349
0.906483815
0.903791607
0.942298165
0.960316455
0.940681782
0.906937222
0.905066089
0.94113859
0.939641379
0.906917716
0.905420545
0.943825144
0.959038004
0.940960694
0.907625854
0.905592772
0.943041425
0.959426966
0.940969008
0.907899577
0.906447199
0.945666731
0.960479815
0.941365912
0.907843328
0.910062471
0.942136828
0.940689616
0.907387805
0.909061269
0.948617777
0.959325644
0.941163661
0.908462108
0.908830535
0.948695527
0.959889843
0.941197435
0.908532306
0.922306985
0.947718297
0.943295889
0.909237954
0.905816159
0.92587063
0.945400192
0.949097136
0.942799403
0.940470448
0.940526049
0.941663547
0.943665615
0.947705711
0.941758887
0.908154597
0.906427787
0.931732051
0.947988516
0.942542163
0.908086436
0.921033887
0.958841409
0.9637594
0.942056019
0.908620635
0.926179646
0.951565552
0.943158058
0.90772664
0.928877984
0.952985061
0.942573299
0.90743731
0.929794711
0.95169813
0.941423251
0.90747482
0.929908174
0.962597596
0.961594017
0.938579956
0.907250977
0.930444988
0.948131076
0.939354772
0.906675218
0.931926613
0.961473936
0.95691489
0.934868487
0.906355109
0.933282347
0.945896392
0.936003847
0.906015192
0.934223029
0.959289508
0.951534025
0.928407865
0.906111447
0.934927876
0.958945326
0.951455148
0.928413013
0.905010903
0.935642906
0.941677182
0.929812474
0.904912756
0.936253486
0.957702476
0.947349659
0.922942315
0.905191795
0.936683689
0.957930835
0.948315124
0.924235882
0.904569851
0.936990976
0.939935169
0.925626427
0.904795612
0.937764191
0.957439228
0.945418175
0.919899551
0.905169151
0.937829474
0.957536931
0.946171332
0.921246255
0.904745346
0.93762792
0.939660495
0.922661542
0.905163151
0.938511284
0.956183413
0.942348693
0.916379851
0.905614947
0.938457399
0.955111325
0.942134066
0.915678237
0.90598804
0.939019189
0.955985493
0.942841563
0.917863319
0.905898263
0.938309312
0.940025082
0.920972557
0.905168823
0.930528086
0.947771152
0.946963294
0.94456187
0.944601952
0.940007132
0.90810852
0.906776181
0.938622041
0.95399623
0.941155493
0.91812765
0.906740212
0.938644994
0.938786012
0.92242958
0.906346915
0.938453877
0.93838209
0.921150163
0.906304717
0.938740125
0.95744008
0.941334084
0.917582238
0.905533395
0.936081479
0.936009828
0.919712966
0.904629265
0.93597597
0.953485251
0.938095431
0.91579537
0.903145595
0.932567443
0.93276249
0.917903458
0.901388716
0.931912282
0.949915126
0.935642439
0.914132992
0.899263285
0.927909564
0.92852953
0.91630259
0.896657179
0.926632636
0.947771027
0.935699761
0.913533802
0.894545577
0.922927667
0.926746984
0.916676567
0.892166245
0.920630389
0.926668423
0.916869216
0.890399844
0.917882729
0.925583891
0.9170019
0.888383264
0.913468342
0.943404668
0.938084686
0.916192095
0.88795994
0.910429814
0.924569581
0.918903395
0.886644113
0.906988802
0.923469747
0.919235049
0.885902315
0.897353891
0.940077596
0.939866698
0.920452466
0.887625062
0.897751877
0.922133573
0.921974621
0.887718694
0.8924599
0.933113467
0.938496336
0.922852165
0.890617981
0.891941917
0.931610641
0.938558437
0.938627959
0.926172271
0.89193023
0.893389424
0.933155423
0.94999607
0.931069381
0.894590008
0.893644922
0.932034046
0.934531634
0.896433386
0.89513688
0.932102438
0.935596393
0.898549909
0.896197483
0.930670985
0.934444485
0.899448355
0.898327574
0.932368285
0.956097452
0.944466214
0.901025684
0.897243963
0.930655541
0.935586096
0.907572772
0.897435555
0.930931057
0.935058504
0.910092697
0.897776302
0.930820297
0.933253441
0.91201539
0.898305933
0.930508069
0.929491487
0.912729874
0.899687725
0.930701872
0.946339534
0.939769367
0.908822928
0.900011439
0.930211536
0.944403767
0.939294731
0.910604367
0.901149767
0.931211152
0.944610012
0.938711213
0.917825746
0.901581361
0.900391715
0.900537942
0.933380136
0.943060884
0.949725932
0.946125197
0.917975405
0.905944392
0.933891876
0.947163458
0.945899458
0.919633789
0.907143348
0.934431345
0.946402454
0.944074501
0.919549405
0.907716564
0.93509024
0.946147212
0.94331405
0.919847806
0.908849086
0.936303653
0.947588509
0.945653174
0.921880055
0.910780568
0.938340231
0.950912545
0.949931709
0.924974835
0.914232268
0.941456733
0.955248398
0.952169477
0.931047098
0.911856487
0.909443024
)
;

boundaryField
{
    closed
    {
        type            calculated;
        value           nonuniform List<scalar> 0();
    }
    open
    {
        type            calculated;
        value           nonuniform List<scalar> 0();
    }
    sides
    {
        type            empty;
    }
    procBoundary3to2
    {
        type            processor;
        value           uniform 0.95459386;
    }
    procBoundary3to4
    {
        type            processor;
        value           uniform 0.909615165;
    }
}


// ************************************************************************* //
