/*--------------------------------*- C++ -*----------------------------------*\
| =========                 |                                                 |
| \\      /  F ield         | OpenFOAM: The Open Source CFD Toolbox           |
|  \\    /   O peration     | Version:  2306                                  |
|   \\  /    A nd           | Website:  www.openfoam.com                      |
|    \\/     M anipulation  |                                                 |
\*---------------------------------------------------------------------------*/
FoamFile
{
    version     2.0;
    format      ascii;
    arch        "LSB;label=32;scalar=64";
    class       volScalarField;
    location    "0.00124";
    object      prefDPV_T;
}
// * * * * * * * * * * * * * * * * * * * * * * * * * * * * * * * * * * * * * //

dimensions      [1 -1 -1 -1 0 0 0];

internalField   nonuniform List<scalar> 
531
(
5.89438631e-10
5.9410158e-10
6.08793731e-10
6.08815899e-10
5.89976367e-10
5.89349051e-10
5.93806387e-10
6.08944779e-10
6.08839016e-10
5.89942979e-10
5.89145578e-10
5.91943953e-10
6.09094508e-10
6.09026523e-10
5.90213212e-10
5.90919523e-10
6.08827204e-10
6.09809428e-10
5.90408095e-10
5.91765112e-10
6.0891407e-10
6.08754594e-10
5.89979223e-10
5.89266451e-10
5.92902005e-10
6.09557827e-10
6.09009748e-10
5.89709957e-10
5.88291668e-10
5.90140035e-10
6.10508004e-10
6.09050278e-10
6.09567916e-10
6.09579237e-10
6.09124563e-10
6.09664913e-10
5.90394665e-10
5.89478781e-10
5.89890654e-10
5.89444852e-10
5.91410114e-10
6.09934726e-10
6.08925813e-10
5.89885968e-10
5.88864537e-10
5.90889625e-10
6.10513266e-10
6.0810181e-10
6.08743009e-10
5.90287497e-10
5.89142733e-10
5.95574049e-10
6.09834037e-10
6.0201453e-10
5.90663456e-10
5.95310753e-10
6.09204147e-10
6.08670221e-10
5.91655289e-10
5.89898001e-10
5.90022901e-10
5.89877603e-10
5.92746565e-10
6.09983629e-10
6.08335544e-10
6.08732555e-10
6.08544794e-10
6.01165014e-10
5.89829935e-10
5.89540018e-10
5.92065893e-10
6.10115803e-10
6.09012536e-10
5.90634004e-10
5.89222868e-10
5.92799939e-10
6.10206899e-10
6.09009372e-10
5.91172195e-10
5.89424723e-10
5.93208261e-10
6.10145068e-10
6.09000219e-10
5.91363094e-10
5.89448116e-10
5.93323423e-10
6.10110413e-10
6.08981575e-10
5.91526991e-10
5.89514639e-10
5.93929507e-10
6.09921286e-10
6.08922615e-10
5.92700531e-10
5.89221382e-10
5.90294448e-10
6.10622144e-10
6.08804287e-10
5.96731568e-10
5.89711665e-10
5.90236775e-10
6.10341414e-10
6.08769278e-10
5.9552207e-10
5.89765553e-10
5.90267693e-10
6.10056185e-10
6.08611886e-10
5.9453242e-10
5.89788744e-10
5.90525473e-10
6.09778487e-10
6.08703428e-10
5.94836997e-10
5.89162743e-10
5.89825939e-10
6.10537118e-10
6.08173072e-10
6.08612246e-10
5.93189293e-10
5.89180631e-10
5.89140073e-10
5.98961616e-10
6.09673783e-10
6.06260015e-10
5.88987831e-10
5.88960868e-10
6.10527779e-10
6.09110803e-10
5.90597668e-10
5.90349047e-10
6.10064318e-10
6.08985123e-10
5.98769848e-10
5.89090591e-10
5.89557661e-10
6.09758091e-10
6.08992645e-10
6.01797389e-10
5.89041993e-10
5.89213263e-10
6.08932622e-10
6.08748559e-10
5.92150553e-10
5.90263599e-10
5.93622451e-10
6.08340009e-10
6.08307827e-10
5.94909059e-10
5.89237674e-10
5.89700614e-10
6.08656635e-10
6.08875877e-10
5.9608544e-10
5.89437592e-10
5.89944614e-10
6.08610452e-10
6.08920517e-10
5.95337189e-10
5.89406927e-10
5.89907101e-10
6.08649769e-10
6.08886128e-10
5.95418587e-10
5.89800703e-10
5.90264462e-10
6.08625026e-10
6.09241263e-10
5.92265975e-10
5.88538924e-10
5.89116955e-10
6.08952565e-10
6.09025757e-10
5.93055046e-10
5.90283249e-10
5.93409024e-10
6.08396235e-10
6.08441168e-10
5.95201497e-10
5.89363607e-10
5.90025815e-10
6.08832682e-10
6.09038666e-10
5.9478207e-10
5.89436126e-10
5.89897507e-10
6.09091822e-10
6.09013053e-10
5.9177551e-10
5.8962826e-10
6.02722069e-10
6.09173627e-10
5.94933287e-10
5.90088079e-10
5.95433344e-10
6.08667533e-10
6.08714448e-10
5.91999954e-10
5.89227853e-10
5.93746836e-10
6.09213928e-10
6.09148005e-10
5.90786394e-10
5.89230928e-10
5.90933096e-10
6.09710449e-10
6.0885969e-10
5.90671142e-10
5.89007879e-10
6.07331462e-10
6.09348335e-10
5.91395986e-10
5.90404523e-10
6.1137723e-10
6.090214e-10
5.99511901e-10
5.89824127e-10
5.89760503e-10
6.11896683e-10
6.09155438e-10
5.98761756e-10
5.89591431e-10
5.89488929e-10
6.10475649e-10
6.09231822e-10
5.99934288e-10
5.89789734e-10
5.8963436e-10
6.04878255e-10
6.09188548e-10
6.10181238e-10
6.08710373e-10
6.10135508e-10
5.91306251e-10
5.90553628e-10
5.90208982e-10
5.90235102e-10
5.89194847e-10
5.8919039e-10
6.00926614e-10
6.09164807e-10
6.08939523e-10
5.95966092e-10
5.90125333e-10
5.98963497e-10
6.09561421e-10
6.0864883e-10
5.90162451e-10
5.89335127e-10
5.98252307e-10
6.09713524e-10
5.97375775e-10
5.90172762e-10
6.00344635e-10
6.09287812e-10
5.97189437e-10
5.90357394e-10
6.01773279e-10
6.090379e-10
5.96626825e-10
5.90576438e-10
6.02715233e-10
6.08714002e-10
6.05887338e-10
5.91258704e-10
5.90853883e-10
5.94703531e-10
5.9255247e-10
5.90966729e-10
6.0045175e-10
6.09125748e-10
6.08580976e-10
6.03071946e-10
5.90234528e-10
5.90309676e-10
5.99190558e-10
5.96100683e-10
5.90901753e-10
5.96559333e-10
6.09336838e-10
6.09112718e-10
5.93279531e-10
5.89574394e-10
5.93975772e-10
6.10284813e-10
6.11033707e-10
5.90545652e-10
5.89383418e-10
5.9465126e-10
6.1037101e-10
6.01944858e-10
5.9053408e-10
5.93518791e-10
6.10161121e-10
6.0952326e-10
5.92499134e-10
5.89811076e-10
5.94784274e-10
6.10276012e-10
6.11631043e-10
5.90602131e-10
5.89573475e-10
5.94786613e-10
6.1035914e-10
6.02014409e-10
5.90605496e-10
5.93773151e-10
6.10143143e-10
6.09491167e-10
5.92576205e-10
5.89836509e-10
5.94623215e-10
6.10258575e-10
6.11816336e-10
5.9077114e-10
5.89621689e-10
5.93918391e-10
6.10649389e-10
6.03672167e-10
5.90418351e-10
5.90824787e-10
6.11443352e-10
6.08585764e-10
6.0310105e-10
5.90050492e-10
5.90613253e-10
6.11464398e-10
6.0880217e-10
5.99884485e-10
5.89744969e-10
5.89119074e-10
5.9594436e-10
6.10205188e-10
6.02632793e-10
5.9054019e-10
5.94270173e-10
6.10266683e-10
6.02781387e-10
5.90904361e-10
5.94630946e-10
6.10864022e-10
6.08300473e-10
6.09051486e-10
5.9155905e-10
5.90417811e-10
5.90095512e-10
5.89514865e-10
5.89409261e-10
6.08553716e-10
6.09248885e-10
6.01196247e-10
5.90020878e-10
5.92608952e-10
6.10728606e-10
6.03534934e-10
5.90439981e-10
5.94062663e-10
6.10324675e-10
6.03280213e-10
5.9105096e-10
5.9474539e-10
6.09913277e-10
6.09657398e-10
5.92514853e-10
5.89799079e-10
5.93863921e-10
6.10493575e-10
6.03645509e-10
5.90648975e-10
5.94676516e-10
6.1011149e-10
6.09600371e-10
5.90579402e-10
5.89566464e-10
5.94171757e-10
6.10421188e-10
6.03560963e-10
5.90708692e-10
5.94911122e-10
6.10134572e-10
6.08769595e-10
5.90511324e-10
5.89527711e-10
5.94365213e-10
6.10431985e-10
6.03131384e-10
5.90654132e-10
5.95084832e-10
6.10211247e-10
6.07313585e-10
5.90340702e-10
5.89338277e-10
5.94263175e-10
6.10519009e-10
6.0257124e-10
5.90301423e-10
5.94592464e-10
6.10278347e-10
6.0248057e-10
5.9051434e-10
5.95569856e-10
6.1003606e-10
6.02023648e-10
5.90836221e-10
5.96709965e-10
6.09939304e-10
6.05850851e-10
5.90273757e-10
5.89389389e-10
5.95862739e-10
6.10160547e-10
6.00566234e-10
5.90264731e-10
5.96264842e-10
6.0989346e-10
6.00395441e-10
5.90809337e-10
5.97932805e-10
6.09688534e-10
6.06586613e-10
5.90510531e-10
5.89701584e-10
5.97821863e-10
6.09823964e-10
5.98956929e-10
5.90465273e-10
5.95677262e-10
6.09639516e-10
6.0906331e-10
5.93503702e-10
5.90095072e-10
5.98629549e-10
6.09654385e-10
6.01301694e-10
5.90882674e-10
5.89811111e-10
5.89728134e-10
5.99607563e-10
6.09836821e-10
6.01013989e-10
5.89726208e-10
5.89166176e-10
5.99811693e-10
6.09622266e-10
5.96663628e-10
5.90075722e-10
6.00436377e-10
6.09332118e-10
5.96367856e-10
5.90293535e-10
6.03018217e-10
6.0893232e-10
5.95666676e-10
5.90686729e-10
6.05656549e-10
6.0849955e-10
6.03628186e-10
5.9184931e-10
5.90443421e-10
5.90558702e-10
6.00035161e-10
5.93949934e-10
5.90807482e-10
6.10131784e-10
6.08436951e-10
5.94262e-10
5.90115513e-10
6.05878485e-10
6.08833224e-10
5.94180003e-10
5.90176186e-10
6.06701856e-10
6.08800333e-10
5.93972636e-10
5.90552217e-10
6.09292319e-10
6.08924357e-10
5.99392902e-10
5.89954297e-10
5.89789576e-10
6.08083497e-10
6.09198503e-10
5.98449511e-10
5.89719546e-10
5.89495799e-10
6.09626516e-10
6.08813777e-10
5.97943666e-10
5.90854208e-10
5.89628003e-10
5.89474469e-10
6.06937644e-10
6.09390771e-10
6.09533467e-10
6.09216212e-10
5.99103742e-10
5.89553008e-10
5.89354576e-10
6.10563449e-10
6.0929539e-10
5.96894644e-10
5.89500032e-10
5.89298709e-10
6.12478924e-10
6.09178931e-10
5.98174629e-10
5.89792479e-10
5.89586441e-10
6.12543253e-10
6.09099376e-10
5.98441754e-10
5.8983472e-10
5.89620373e-10
6.12548724e-10
6.09075519e-10
5.98174407e-10
5.89741669e-10
5.89542004e-10
6.12513478e-10
6.09059347e-10
5.98100269e-10
5.8976497e-10
5.8950759e-10
6.12434109e-10
6.08728648e-10
5.96723396e-10
5.90549809e-10
5.89336849e-10
5.89107356e-10
6.11837752e-10
6.08975262e-10
)
;

boundaryField
{
    closed
    {
        type            calculated;
        value           nonuniform List<scalar> 0();
    }
    open
    {
        type            calculated;
        value           nonuniform List<scalar> 0();
    }
    sides
    {
        type            empty;
    }
    procBoundary3to2
    {
        type            processor;
        value           uniform 5.90097355e-10;
    }
    procBoundary3to4
    {
        type            processor;
        value           uniform 6.09968949e-10;
    }
}


// ************************************************************************* //
