/*--------------------------------*- C++ -*----------------------------------*\
| =========                 |                                                 |
| \\      /  F ield         | OpenFOAM: The Open Source CFD Toolbox           |
|  \\    /   O peration     | Version:  2306                                  |
|   \\  /    A nd           | Website:  www.openfoam.com                      |
|    \\/     M anipulation  |                                                 |
\*---------------------------------------------------------------------------*/
FoamFile
{
    version     2.0;
    format      ascii;
    arch        "LSB;label=32;scalar=64";
    class       volVectorField;
    location    "0.00126";
    object      U;
}
// * * * * * * * * * * * * * * * * * * * * * * * * * * * * * * * * * * * * * //

dimensions      [0 1 -1 0 0 0 0];

internalField   nonuniform List<vector> 
531
(
(0.2500468 0 0)
(0.242804979 0 0)
(0.247997158 0 0)
(0.256879793 0 0)
(0.256578491 0 0)
(0.250062717 0 0)
(0.243800636 0 0)
(0.245280628 0 0)
(0.249181683 0 0)
(0.247857624 0 0)
(0.246177387 0 0)
(0.251900368 0 0)
(0.257233693 0 0)
(0.252230556 0 0)
(0.24416705 0 0)
(0.24295329 0 0)
(0.248133109 0 0)
(0.249849901 0 0)
(0.2445325 0 0)
(0.238872601 0 0)
(0.236826358 0 0)
(0.242503665 0 0)
(0.250770162 0 0)
(0.251694461 0 0)
(0.245983622 0 0)
(0.239244273 0 0)
(0.235744857 0 0)
(0.234693246 0 0)
(0.240933368 0 0)
(0.244470938 0 0)
(0.235712913 0 0)
(0.232331627 0 0)
(0.237863136 0 0)
(0.242718761 0 0)
(0.242454184 0 0)
(0.23878541 0 0)
(0.232230317 0 0)
(0.226793966 0 0)
(0.230749814 0 0)
(0.238472475 0 0)
(0.238307113 0 0)
(0.230804057 0 0)
(0.223543774 0 0)
(0.224538487 0 0)
(0.231902139 0 0)
(0.236589516 0 0)
(0.233582183 0 0)
(0.226480834 0 0)
(0.221096911 0 0)
(0.223358683 0 0)
(0.227803724 0 0)
(0.225817884 0 0)
(0.223701287 0 0)
(0.227927912 0 0)
(0.228184431 0 0)
(0.222124312 0 0)
(0.220633464 0 0)
(0.225015903 0 0)
(0.225896929 0 0)
(0.220919737 0 0)
(0.214481551 0 0)
(0.210353589 0 0)
(0.212176471 0 0)
(0.218690979 0 0)
(0.222663851 0 0)
(0.219923309 0 0)
(0.21323125 0 0)
(0.208444585 0 0)
(0.209345787 0 0)
(0.215951626 0 0)
(0.218708752 0 0)
(0.212141357 0 0)
(0.20655827 0 0)
(0.207879754 0 0)
(0.213879151 0 0)
(0.214327444 0 0)
(0.208438069 0 0)
(0.206985213 0 0)
(0.211133812 0 0)
(0.210460932 0 0)
(0.204610515 0 0)
(0.204284918 0 0)
(0.208787378 0 0)
(0.210529769 0 0)
(0.208011869 0 0)
(0.202241305 0 0)
(0.196546464 0 0)
(0.193947112 0 0)
(0.195348892 0 0)
(0.201749641 0 0)
(0.20628087 0 0)
(0.203747684 0 0)
(0.197250965 0 0)
(0.192395406 0 0)
(0.192496087 0 0)
(0.198069877 0 0)
(0.200094403 0 0)
(0.193692026 0 0)
(0.188708147 0 0)
(0.190709881 0 0)
(0.197179914 0 0)
(0.19740801 0 0)
(0.191577024 0 0)
(0.190262702 0 0)
(0.194088859 0 0)
(0.193000564 0 0)
(0.187509192 0 0)
(0.187552517 0 0)
(0.191378874 0 0)
(0.192156646 0 0)
(0.1906329 0 0)
(0.185738001 0 0)
(0.179995835 0 0)
(0.177431065 0 0)
(0.178048235 0 0)
(0.18385416 0 0)
(0.18827506 0 0)
(0.186298129 0 0)
(0.180732063 0 0)
(0.175009887 0 0)
(0.173458508 0 0)
(0.177094259 0 0)
(0.179429628 0 0)
(0.179258727 0 0)
(0.176697283 0 0)
(0.170749194 0 0)
(0.165362824 0 0)
(0.164427413 0 0)
(0.168611044 0 0)
(0.174089131 0 0)
(0.173006992 0 0)
(0.164726621 0 0)
(0.157674239 0 0)
(0.159698984 0 0)
(0.166589575 0 0)
(0.169151003 0 0)
(0.166629608 0 0)
(0.161121881 0 0)
(0.158428892 0 0)
(0.159732914 0 0)
(0.160054269 0 0)
(0.158815095 0 0)
(0.155292399 0 0)
(0.150604295 0 0)
(0.146118093 0 0)
(0.143646525 0 0)
(0.145285702 0 0)
(0.149940851 0 0)
(0.15143088 0 0)
(0.149978531 0 0)
(0.144882221 0 0)
(0.140143247 0 0)
(0.141776287 0 0)
(0.147762528 0 0)
(0.150224306 0 0)
(0.150185997 0 0)
(0.148248781 0 0)
(0.142697088 0 0)
(0.136744391 0 0)
(0.134755879 0 0)
(0.139271771 0 0)
(0.144679596 0 0)
(0.144865946 0 0)
(0.144356505 0 0)
(0.142518837 0 0)
(0.138294391 0 0)
(0.133247114 0 0)
(0.129121025 0 0)
(0.127351336 0 0)
(0.128523098 0 0)
(0.132239869 0 0)
(0.133875713 0 0)
(0.134146277 0 0)
(0.132928146 0 0)
(0.128670002 0 0)
(0.123346455 0 0)
(0.119344082 0 0)
(0.118082534 0 0)
(0.119618763 0 0)
(0.123301238 0 0)
(0.12493605 0 0)
(0.125372292 0 0)
(0.124011941 0 0)
(0.118763691 0 0)
(0.113223008 0 0)
(0.112316402 0 0)
(0.118474824 0 0)
(0.124575443 0 0)
(0.124635508 0 0)
(0.123180746 0 0)
(0.119173681 0 0)
(0.117275943 0 0)
(0.119020853 0 0)
(0.117623986 0 0)
(0.112965583 0 0)
(0.110780231 0 0)
(0.112565353 0 0)
(0.111574538 0 0)
(0.10764947 0 0)
(0.105292243 0 0)
(0.105820366 0 0)
(0.106413161 0 0)
(0.105521374 0 0)
(0.102077071 0 0)
(0.0995061011 0 0)
(0.100295157 0 0)
(0.103738108 0 0)
(0.106672714 0 0)
(0.103876336 0 0)
(0.102226667 0 0)
(0.104399631 0 0)
(0.103444767 0 0)
(0.100458142 0 0)
(0.0995378934 0 0)
(0.101218449 0 0)
(0.100447499 0 0)
(0.0966748107 0 0)
(0.0926923207 0 0)
(0.0920668669 0 0)
(0.0951059617 0 0)
(0.0986974023 0 0)
(0.099679701 0 0)
(0.0994444017 0 0)
(0.0963068633 0 0)
(0.091959734 0 0)
(0.0911610484 0 0)
(0.0943518217 0 0)
(0.0981787545 0 0)
(0.0995885265 0 0)
(0.0999883379 0 0)
(0.097206402 0 0)
(0.0936145173 0 0)
(0.096410203 0 0)
(0.101157287 0 0)
(0.0992792707 0 0)
(0.0980413992 0 0)
(0.0998333923 0 0)
(0.100354806 0 0)
(0.100498318 0 0)
(0.0979341783 0 0)
(0.0943141792 0 0)
(0.0940717299 0 0)
(0.0981967261 0 0)
(0.103105582 0 0)
(0.105128229 0 0)
(0.106406299 0 0)
(0.106017519 0 0)
(0.102337011 0 0)
(0.0979691553 0 0)
(0.0973506888 0 0)
(0.100404377 0 0)
(0.104091028 0 0)
(0.106090877 0 0)
(0.106519082 0 0)
(0.104306529 0 0)
(0.101719828 0 0)
(0.102705957 0 0)
(0.105829267 0 0)
(0.106482687 0 0)
(0.103179453 0 0)
(0.100090514 0 0)
(0.103583359 0 0)
(0.108460455 0 0)
(0.107356501 0 0)
(0.105988075 0 0)
(0.108067511 0 0)
(0.10827582 0 0)
(0.104475785 0 0)
(0.102423829 0 0)
(0.104882438 0 0)
(0.105342047 0 0)
(0.101205932 0 0)
(0.0990772572 0 0)
(0.101631592 0 0)
(0.103126535 0 0)
(0.100596638 0 0)
(0.0980011245 0 0)
(0.0999133007 0 0)
(0.103902094 0 0)
(0.105569599 0 0)
(0.103288358 0 0)
(0.0987874521 0 0)
(0.0968867861 0 0)
(0.100376706 0 0)
(0.103726808 0 0)
(0.100114343 0 0)
(0.096559881 0 0)
(0.0989922465 0 0)
(0.102040737 0 0)
(0.102634534 0 0)
(0.100246544 0 0)
(0.0986293983 0 0)
(0.100442978 0 0)
(0.102021641 0 0)
(0.0998249964 0 0)
(0.0958362177 0 0)
(0.0948360809 0 0)
(0.098629135 0 0)
(0.103647137 0 0)
(0.107921114 0 0)
(0.110081509 0 0)
(0.109772057 0 0)
(0.106874446 0 0)
(0.104803698 0 0)
(0.108258157 0 0)
(0.113920436 0 0)
(0.115846653 0 0)
(0.11157671 0 0)
(0.108927429 0 0)
(0.11171769 0 0)
(0.114408923 0 0)
(0.112090656 0 0)
(0.108558718 0 0)
(0.110701926 0 0)
(0.116170637 0 0)
(0.120440796 0 0)
(0.119212571 0 0)
(0.115667231 0 0)
(0.114420807 0 0)
(0.115572879 0 0)
(0.112131311 0 0)
(0.108479197 0 0)
(0.112027307 0 0)
(0.1190182 0 0)
(0.122447628 0 0)
(0.121099655 0 0)
(0.1153295 0 0)
(0.112966748 0 0)
(0.115647808 0 0)
(0.112627087 0 0)
(0.107818016 0 0)
(0.111011096 0 0)
(0.119051013 0 0)
(0.122975505 0 0)
(0.12190809 0 0)
(0.115656059 0 0)
(0.112138457 0 0)
(0.114340854 0 0)
(0.111625875 0 0)
(0.107238706 0 0)
(0.110459958 0 0)
(0.1189158 0 0)
(0.122934994 0 0)
(0.122134801 0 0)
(0.116356183 0 0)
(0.113075898 0 0)
(0.115527257 0 0)
(0.114660124 0 0)
(0.111906474 0 0)
(0.115177993 0 0)
(0.122122845 0 0)
(0.123418311 0 0)
(0.122054307 0 0)
(0.119578067 0 0)
(0.122055406 0 0)
(0.1276431 0 0)
(0.132068644 0 0)
(0.129776358 0 0)
(0.125920765 0 0)
(0.129364785 0 0)
(0.137305713 0 0)
(0.144212983 0 0)
(0.142442609 0 0)
(0.139309399 0 0)
(0.140107272 0 0)
(0.144445606 0 0)
(0.147780513 0 0)
(0.14831156 0 0)
(0.151629951 0 0)
(0.156274069 0 0)
(0.150997378 0 0)
(0.146967404 0 0)
(0.151375324 0 0)
(0.155253055 0 0)
(0.149899138 0 0)
(0.146192893 0 0)
(0.151005913 0 0)
(0.15439523 0 0)
(0.148171726 0 0)
(0.143452524 0 0)
(0.149072056 0 0)
(0.158237847 0 0)
(0.161712621 0 0)
(0.160386435 0 0)
(0.155485514 0 0)
(0.154704569 0 0)
(0.16120223 0 0)
(0.167761526 0 0)
(0.166829038 0 0)
(0.163287743 0 0)
(0.162707317 0 0)
(0.164139774 0 0)
(0.169666898 0 0)
(0.177549133 0 0)
(0.175746893 0 0)
(0.171484277 0 0)
(0.171907106 0 0)
(0.177489575 0 0)
(0.183062103 0 0)
(0.179959457 0 0)
(0.175315489 0 0)
(0.177247673 0 0)
(0.184253687 0 0)
(0.187980029 0 0)
(0.181328749 0 0)
(0.177486537 0 0)
(0.184531067 0 0)
(0.194507077 0 0)
(0.198274599 0 0)
(0.19972063 0 0)
(0.196519837 0 0)
(0.190055116 0 0)
(0.188839944 0 0)
(0.196552858 0 0)
(0.202014488 0 0)
(0.195247783 0 0)
(0.191905479 0 0)
(0.199029452 0 0)
(0.206475251 0 0)
(0.202499305 0 0)
(0.196573124 0 0)
(0.199415961 0 0)
(0.209882349 0 0)
(0.220348788 0 0)
(0.217843061 0 0)
(0.210366444 0 0)
(0.208714112 0 0)
(0.216766709 0 0)
(0.224010604 0 0)
(0.219433597 0 0)
(0.213080022 0 0)
(0.215761813 0 0)
(0.22646965 0 0)
(0.237023475 0 0)
(0.234362023 0 0)
(0.226870891 0 0)
(0.225452625 0 0)
(0.233698191 0 0)
(0.240386296 0 0)
(0.236082682 0 0)
(0.229873082 0 0)
(0.230569125 0 0)
(0.238747264 0 0)
(0.24524475 0 0)
(0.238772371 0 0)
(0.235513783 0 0)
(0.242231044 0 0)
(0.247950411 0 0)
(0.243803621 0 0)
(0.237967825 0 0)
(0.23820429 0 0)
(0.245796171 0 0)
(0.25229987 0 0)
(0.249017193 0 0)
(0.249377378 0 0)
(0.256827431 0 0)
(0.262601228 0 0)
(0.258208641 0 0)
(0.251994684 0 0)
(0.252202729 0 0)
(0.260633952 0 0)
(0.266418976 0 0)
(0.259355948 0 0)
(0.256746425 0 0)
(0.265762656 0 0)
(0.275049852 0 0)
(0.270781441 0 0)
(0.262006511 0 0)
(0.261628037 0 0)
(0.271937351 0 0)
(0.277914143 0 0)
(0.270369562 0 0)
(0.267303711 0 0)
(0.275623454 0 0)
(0.282314147 0 0)
(0.278752805 0 0)
(0.272220514 0 0)
(0.267731476 0 0)
(0.274072965 0 0)
(0.285088262 0 0)
(0.291671978 0 0)
(0.29025973 0 0)
(0.280785726 0 0)
(0.276558849 0 0)
(0.286683831 0 0)
(0.297126922 0 0)
(0.293679577 0 0)
(0.283698399 0 0)
(0.2817607 0 0)
(0.291644133 0 0)
(0.297472041 0 0)
(0.289422827 0 0)
(0.286900713 0 0)
(0.296213917 0 0)
(0.302642322 0 0)
(0.295678314 0 0)
(0.286940904 0 0)
(0.285879587 0 0)
(0.295191311 0 0)
(0.301597261 0 0)
(0.293802581 0 0)
(0.291185402 0 0)
(0.299615391 0 0)
(0.30317706 0 0)
(0.294882871 0 0)
(0.292254154 0 0)
(0.301904203 0 0)
(0.310801065 0 0)
(0.305951352 0 0)
(0.295756988 0 0)
(0.29404544 0 0)
(0.303905942 0 0)
(0.310385024 0 0)
(0.302028434 0 0)
(0.291708035 0 0)
(0.291716574 0 0)
(0.303026953 0 0)
(0.313624661 0 0)
(0.310360894 0 0)
(0.299760689 0 0)
(0.296713435 0 0)
(0.306911036 0 0)
(0.310735406 0 0)
(0.301412444 0 0)
(0.298891677 0 0)
(0.309557638 0 0)
(0.318908353 0 0)
(0.313772408 0 0)
(0.302826991 0 0)
(0.300629333 0 0)
(0.310300905 0 0)
)
;

boundaryField
{
    closed
    {
        type            noSlip;
    }
    open
    {
        type            inletOutlet;
        inletValue      nonuniform List<vector> 0();
        value           nonuniform List<vector> 0();
    }
    sides
    {
        type            empty;
    }
    procBoundary3to2
    {
        type            processor;
        value           uniform (0.257301214 0 0);
    }
    procBoundary3to4
    {
        type            processor;
        value           uniform (0.31664428 0 0);
    }
}


// ************************************************************************* //
