/*--------------------------------*- C++ -*----------------------------------*\
| =========                 |                                                 |
| \\      /  F ield         | OpenFOAM: The Open Source CFD Toolbox           |
|  \\    /   O peration     | Version:  2306                                  |
|   \\  /    A nd           | Website:  www.openfoam.com                      |
|    \\/     M anipulation  |                                                 |
\*---------------------------------------------------------------------------*/
FoamFile
{
    version     2.0;
    format      ascii;
    arch        "LSB;label=32;scalar=64";
    class       volScalarField;
    location    "0.00068";
    object      prefDZ_H2;
}
// * * * * * * * * * * * * * * * * * * * * * * * * * * * * * * * * * * * * * //

dimensions      [1 -1 -1 0 0 0 0];

internalField   nonuniform List<scalar> 
531
(
6.35382353e-05
6.35823766e-05
6.22824892e-05
6.14763455e-05
6.23164911e-05
6.34650992e-05
6.35788573e-05
6.19069756e-05
6.16173808e-05
6.33341682e-05
6.3558854e-05
6.25472902e-05
6.22923235e-05
6.15369497e-05
6.15515183e-05
6.35240116e-05
6.35953175e-05
6.22731662e-05
6.16035419e-05
6.21608313e-05
6.35224297e-05
6.36334515e-05
6.2332626e-05
6.17594717e-05
6.20472659e-05
6.35183328e-05
6.35622948e-05
6.23934277e-05
6.15672929e-05
6.16176707e-05
6.3348508e-05
6.35906293e-05
6.34375881e-05
6.22652105e-05
6.1337308e-05
6.17597228e-05
6.34583378e-05
6.35326739e-05
6.23261714e-05
6.11990294e-05
6.14168075e-05
6.34437308e-05
6.35801745e-05
6.35318599e-05
6.22859763e-05
6.14299605e-05
6.18227184e-05
6.34567097e-05
6.35584899e-05
6.23278245e-05
6.13172246e-05
6.15644622e-05
6.34496649e-05
6.35801374e-05
6.20040081e-05
6.13570102e-05
6.34066061e-05
6.35306816e-05
6.23449248e-05
6.17748449e-05
6.20165063e-05
6.35222255e-05
6.36022242e-05
6.22759968e-05
6.16055892e-05
6.22733694e-05
6.35197023e-05
6.36302629e-05
6.2309413e-05
6.16407031e-05
6.20614746e-05
6.35041256e-05
6.35470359e-05
6.23337243e-05
6.1298005e-05
6.13865858e-05
6.33380969e-05
6.35736756e-05
6.34208695e-05
6.22656154e-05
6.13609781e-05
6.20718065e-05
6.34939634e-05
6.36229203e-05
6.22762303e-05
6.1438337e-05
6.20528677e-05
6.34873602e-05
6.36226635e-05
6.24637452e-05
6.22138711e-05
6.20949377e-05
6.16711381e-05
6.22034619e-05
6.35231117e-05
6.36358e-05
6.23081901e-05
6.16810981e-05
6.26538652e-05
6.35797676e-05
6.23067672e-05
6.17510084e-05
6.2360481e-05
6.359062e-05
6.22791528e-05
6.18601807e-05
6.26329e-05
6.36237579e-05
6.30879977e-05
6.22496474e-05
6.23876922e-05
6.22802592e-05
6.21232643e-05
6.21186418e-05
6.34902156e-05
6.35860393e-05
6.25757066e-05
6.18144077e-05
6.18198068e-05
6.35242444e-05
6.35996082e-05
6.35832609e-05
6.22949926e-05
6.19039483e-05
6.20124367e-05
6.16100411e-05
6.18203676e-05
6.35166001e-05
6.35912568e-05
6.24377155e-05
6.18960007e-05
6.20037281e-05
6.35407687e-05
6.36198925e-05
6.25553693e-05
6.19774116e-05
6.16529183e-05
6.22626871e-05
6.35274186e-05
6.36294672e-05
6.25506315e-05
6.21915197e-05
6.2062862e-05
6.13770755e-05
6.13943616e-05
6.33911523e-05
6.35227653e-05
6.30466371e-05
6.1827028e-05
6.17221673e-05
6.34457023e-05
6.35445552e-05
6.35069824e-05
6.24813461e-05
6.22082522e-05
6.20812918e-05
6.15861461e-05
6.15332858e-05
6.24682854e-05
6.35393638e-05
6.35977889e-05
6.35494085e-05
6.24594802e-05
6.21014256e-05
6.20598336e-05
6.15067214e-05
6.15063928e-05
6.27353749e-05
6.35360019e-05
6.35496345e-05
6.3540895e-05
6.24100489e-05
6.20598737e-05
6.20510231e-05
6.1333796e-05
6.13428226e-05
6.34221178e-05
6.35481407e-05
6.35001498e-05
6.35861987e-05
6.23233082e-05
6.22125887e-05
6.23502365e-05
6.23370727e-05
6.20080707e-05
6.23118778e-05
6.34507509e-05
6.35719151e-05
6.29354006e-05
6.16721284e-05
6.15305475e-05
6.34735852e-05
6.3529637e-05
6.23727513e-05
6.15879681e-05
6.15813408e-05
6.34309785e-05
6.35768814e-05
6.2039452e-05
6.15620426e-05
6.34571839e-05
6.35242966e-05
6.23604062e-05
6.16059454e-05
6.16330641e-05
6.34719618e-05
6.35794722e-05
6.20244361e-05
6.15545943e-05
6.34496407e-05
6.35419525e-05
6.23537738e-05
6.16400695e-05
6.16768763e-05
6.35392323e-05
6.36113485e-05
6.22643412e-05
6.16657064e-05
6.22899453e-05
6.35447224e-05
6.36199793e-05
6.23684073e-05
6.21094904e-05
6.2079469e-05
6.16194812e-05
6.19968435e-05
6.34334878e-05
6.35498303e-05
6.28048574e-05
6.16827174e-05
6.15980958e-05
6.33957547e-05
6.35331803e-05
6.25615242e-05
6.16664921e-05
6.16356426e-05
6.34342799e-05
6.35219323e-05
6.23286399e-05
6.15517916e-05
6.20749642e-05
6.33955367e-05
6.3625818e-05
6.35284932e-05
6.22559209e-05
6.17624722e-05
6.19477326e-05
6.14256018e-05
6.20676027e-05
6.3435445e-05
6.35027342e-05
6.35076689e-05
6.35189787e-05
6.23363904e-05
6.093085e-05
6.09851748e-05
6.34642763e-05
6.35025853e-05
6.23502696e-05
6.14588284e-05
6.15683805e-05
6.34429234e-05
6.35816775e-05
6.20923054e-05
6.16561643e-05
6.33488767e-05
6.35731744e-05
6.21048971e-05
6.17128283e-05
6.3348149e-05
6.35744193e-05
6.2101199e-05
6.1690935e-05
6.34197147e-05
6.35543738e-05
6.23089058e-05
6.17375397e-05
6.23009242e-05
6.34776109e-05
6.36285794e-05
6.21944659e-05
6.14711358e-05
6.2759808e-05
6.35016212e-05
6.2394902e-05
6.16097563e-05
6.17331221e-05
6.34906674e-05
6.35996621e-05
6.23290116e-05
6.16018655e-05
6.27871657e-05
6.35119326e-05
6.2445984e-05
6.1556482e-05
6.18468088e-05
6.34844246e-05
6.35735971e-05
6.35126122e-05
6.25266362e-05
6.23813557e-05
6.20150101e-05
6.14119279e-05
6.14072463e-05
6.27011636e-05
6.34714773e-05
6.28724136e-05
6.16880824e-05
6.16575293e-05
6.3412129e-05
6.3503772e-05
6.2465466e-05
6.1633992e-05
6.16355033e-05
6.34668522e-05
6.35463152e-05
6.23158062e-05
6.17126803e-05
6.2318825e-05
6.34547031e-05
6.35960293e-05
6.18312422e-05
6.14132971e-05
6.34586387e-05
6.35234899e-05
6.23258295e-05
6.16363278e-05
6.23433237e-05
6.34475979e-05
6.36010822e-05
6.19009153e-05
6.14617044e-05
6.34394782e-05
6.35233073e-05
6.23352328e-05
6.1662299e-05
6.22791827e-05
6.34714243e-05
6.35956512e-05
6.20898594e-05
6.15128056e-05
6.31387977e-05
6.35141468e-05
6.23376364e-05
6.16516628e-05
6.21595531e-05
6.349152e-05
6.35910667e-05
6.22566139e-05
6.15690473e-05
6.28974734e-05
6.35153579e-05
6.2345174e-05
6.16667586e-05
6.21788571e-05
6.35359763e-05
6.35681967e-05
6.23005093e-05
6.15280201e-05
6.23354038e-05
6.3494538e-05
6.35643998e-05
6.20972337e-05
6.13254433e-05
6.24675368e-05
6.35078614e-05
6.2271832e-05
6.15856654e-05
6.26519483e-05
6.35361167e-05
6.2293037e-05
6.17250975e-05
6.27562627e-05
6.35557988e-05
6.23196931e-05
6.1870741e-05
6.28920355e-05
6.35171574e-05
6.23828258e-05
6.16654245e-05
6.19715124e-05
6.35455531e-05
6.35520138e-05
6.22896263e-05
6.15171583e-05
6.23007068e-05
6.3481802e-05
6.22599942e-05
6.16232006e-05
6.27446102e-05
6.35363966e-05
6.23254528e-05
6.16892777e-05
6.30403595e-05
6.35644736e-05
6.23855119e-05
6.19216849e-05
6.32511584e-05
6.35266585e-05
6.23793531e-05
6.16571731e-05
6.18682038e-05
6.35173927e-05
6.35401728e-05
6.24085361e-05
6.17242685e-05
6.18444806e-05
6.34767001e-05
6.35961291e-05
6.25243266e-05
6.22599871e-05
6.15193368e-05
6.17820115e-05
6.35257353e-05
6.35378173e-05
6.23441277e-05
6.1596055e-05
6.18809209e-05
6.35240571e-05
6.35451844e-05
6.23480878e-05
6.15843507e-05
6.18676232e-05
6.35229045e-05
6.35450663e-05
6.23366536e-05
6.15705642e-05
6.18907725e-05
6.35181516e-05
6.35487133e-05
6.2331596e-05
6.15956153e-05
6.19872607e-05
6.35187993e-05
6.35572813e-05
6.230626e-05
6.15603965e-05
6.22705842e-05
6.34579245e-05
6.34923101e-05
6.19120416e-05
6.18257453e-05
6.34524905e-05
6.35255163e-05
6.23174908e-05
6.15847028e-05
6.22413019e-05
6.34404912e-05
6.34966291e-05
6.19566555e-05
6.18380611e-05
6.34148782e-05
6.35249956e-05
6.23256254e-05
6.16170389e-05
6.21790719e-05
6.34249106e-05
6.35057179e-05
6.20293652e-05
6.18795859e-05
6.33433262e-05
6.35192073e-05
6.23566398e-05
6.16413596e-05
6.18855232e-05
6.34430435e-05
6.35280337e-05
6.23205013e-05
6.15347639e-05
6.20598328e-05
6.34078443e-05
6.34901611e-05
6.21210221e-05
6.191933e-05
6.3111465e-05
6.35579019e-05
6.24494056e-05
6.20322741e-05
6.17455809e-05
6.22851985e-05
6.34901489e-05
6.35586184e-05
6.23515633e-05
6.16962938e-05
6.19560012e-05
6.34023793e-05
6.35100076e-05
6.23160109e-05
6.14535046e-05
6.18931404e-05
6.33314267e-05
6.34098312e-05
6.2132484e-05
6.19449701e-05
6.3134435e-05
6.34865804e-05
6.23238848e-05
6.15089229e-05
6.20529188e-05
6.33301427e-05
6.33109668e-05
6.20233603e-05
6.20076154e-05
6.33335274e-05
6.33500179e-05
6.21891557e-05
6.21120267e-05
6.3298154e-05
6.34487243e-05
6.23649036e-05
6.209294e-05
6.26689272e-05
6.35379278e-05
6.2849325e-05
6.22947262e-05
6.14146977e-05
6.22675123e-05
6.33162697e-05
6.32502936e-05
6.21314833e-05
6.19299801e-05
6.27936367e-05
6.34981316e-05
6.24372131e-05
6.17710271e-05
6.18665425e-05
6.3119626e-05
6.35030511e-05
6.23211502e-05
6.16650757e-05
6.22280477e-05
)
;

boundaryField
{
    closed
    {
        type            calculated;
        value           nonuniform List<scalar> 0();
    }
    open
    {
        type            calculated;
        value           nonuniform List<scalar> 0();
    }
    sides
    {
        type            empty;
    }
    procBoundary3to2
    {
        type            processor;
        value           uniform 6.18216948e-05;
    }
    procBoundary3to4
    {
        type            processor;
        value           uniform 6.33246668e-05;
    }
}


// ************************************************************************* //
