/*--------------------------------*- C++ -*----------------------------------*\
| =========                 |                                                 |
| \\      /  F ield         | OpenFOAM: The Open Source CFD Toolbox           |
|  \\    /   O peration     | Version:  2306                                  |
|   \\  /    A nd           | Website:  www.openfoam.com                      |
|    \\/     M anipulation  |                                                 |
\*---------------------------------------------------------------------------*/
FoamFile
{
    version     2.0;
    format      ascii;
    arch        "LSB;label=32;scalar=64";
    class       volScalarField;
    location    "0.00184";
    object      p;
}
// * * * * * * * * * * * * * * * * * * * * * * * * * * * * * * * * * * * * * //

dimensions      [1 -1 -2 0 0 0 0];

internalField   nonuniform List<scalar> 
531
(
101452.947
101452.651
101452.4
101452.184
101451.929
101451.615
101451.283
101450.951
101450.603
101450.264
101450.799
101450.586
101450.39
101450.198
101450.008
101449.779
101449.521
101449.299
101449.052
101448.735
101448.407
101448.015
101447.574
101447.569
101447.421
101447.179
101446.888
101446.629
101447.317
101447.227
101447.151
101447.09
101446.979
101446.834
101446.683
101446.543
101446.406
101446.244
101446.077
101445.862
101445.621
101445.437
101445.263
101445.059
101444.812
101444.622
101444.462
101444.274
101444.04
101443.868
101443.73
101443.569
101443.377
101443.204
101443.036
101442.894
101442.765
101442.611
101442.415
101442.262
101442.123
101441.929
101441.724
101441.556
101441.363
101441.125
101440.869
101440.575
101440.263
101439.917
101439.586
101440.128
101439.909
101439.67
101439.387
101439.076
101439.642
101439.47
101439.336
101439.24
101439.102
101438.905
101438.761
101438.642
101438.486
101438.309
101438.122
101437.917
101437.785
101437.638
101437.449
101437.261
101437.063
101436.863
101436.647
101436.399
101436.189
101436.809
101436.741
101436.687
101436.636
101436.587
101436.508
101436.413
101436.376
101436.325
101436.223
101436.171
101436.15
101436.106
101436.035
101435.972
101435.931
101435.894
101435.827
101435.732
101435.544
101435.338
101435.197
101435.078
101434.912
101434.737
101434.612
101434.483
101434.262
101434.043
101434.389
101434.101
101433.801
101433.423
101433.051
101433.238
101433.46
101433.617
101433.743
101433.906
101434.094
101434.287
101434.468
101433.696
101433.588
101433.555
101433.48
101433.39
101433.286
101432.586
101432.67
101432.693
101432.656
101432.628
101432.559
101432.449
101432.295
101431.505
101431.524
101431.519
101431.431
101431.321
101431.143
101430.917
101431.114
101431.177
101431.167
101431.138
101431.136
101431.143
101431.068
101431.045
101431.01
101430.895
101430.805
101430.731
101430.613
101430.424
101430.256
101430.138
101430.099
101430.151
101430.094
101430.032
101429.982
101429.937
101429.916
101429.859
101429.74
101429.642
101429.585
101429.58
101429.625
101429.589
101429.569
101429.574
101429.59
101429.607
101429.594
101429.547
101429.409
101429.255
101429.162
101429.1
101429.015
101428.886
101428.813
101428.787
101428.736
101428.633
101428.585
101428.589
101428.563
101428.49
101428.425
101428.345
101428.224
101428.083
101427.919
101427.694
101427.412
101427.078
101426.774
101427.438
101427.31
101427.143
101427.011
101426.982
101426.951
101426.889
101426.829
101426.791
101426.773
101426.698
101426.537
101426.365
101426.186
101426.018
101426.694
101426.628
101426.571
101426.55
101426.484
101426.352
101426.227
101426.113
101426.023
101426.782
101426.862
101426.986
101427.134
101427.282
101426.513
101426.37
101426.304
101426.261
101426.188
101426.117
101426.103
101426.087
101426.015
101425.987
101426.005
101426
101425.953
101425.954
101425.998
101426.025
101426.021
101426.061
101426.133
101426.216
101426.284
101425.408
101425.082
101424.751
101424.887
101425.063
101425.144
101425.168
101425.219
101425.279
101425.3
101425.276
101425.294
101425.335
101425.346
101425.323
101425.353
101425.415
101425.462
101425.506
101425.581
101425.705
101425.886
101426.114
101426.39
101425.782
101425.867
101426.009
101426.15
101426.352
101426.572
101425.755
101425.618
101425.529
101425.451
101425.438
101425.42
101425.359
101425.36
101425.38
101425.369
101425.41
101425.495
101425.565
101425.62
101425.736
101425.977
101426.271
101426.603
101425.981
101425.997
101426.081
101426.802
101426.769
101426.683
101426.603
101426.631
101426.698
101426.716
101426.774
101426.855
101426.981
101427.156
101427.346
101426.524
101426.313
101426.117
101425.952
101425.801
101426.548
101426.507
101426.49
101426.501
101426.607
101426.812
101426.868
101426.945
101427.707
101427.804
101427.864
101427.917
101428.045
101428.241
101428.454
101427.628
101427.456
101427.343
101427.844
101428.003
101428.135
101428.265
101428.476
101428.764
101429.09
101428.518
101428.6
101428.764
101429.018
101429.291
101428.608
101428.532
101428.481
101428.465
101428.476
101429.349
101429.471
101429.621
101429.842
101430.039
101430.187
101430.369
101430.568
101430.744
101430.899
101430.952
101430.986
101431.049
101431.086
101431.096
101431.104
101431.118
101431.125
101431.076
101431
101430.984
101431.014
101431.032
101431.02
101431.073
101431.187
101431.304
101431.409
101431.593
101431.851
101432.148
101431.53
101431.552
101431.65
101431.79
101431.916
101431.988
101432.099
101432.236
101432.372
101432.454
101432.485
101432.565
101432.658
101432.685
101432.717
101432.737
101432.712
101432.562
101432.354
101432.169
101432.023
101431.929
101432.755
101432.816
101432.886
101432.949
101433.022
101433.076
101433.054
101433.049
101433.146
101433.165
101433.122
101433.018
101432.907
101432.818
101432.746
101432.683
101432.61
101432.478
101432.379
101432.408
101432.493
101432.558
101432.601
101432.696
101432.829
101432.987
101433.194
101432.628
101432.617
101432.655
101432.712
101432.747
101432.737
101432.756
101432.784
101432.786
101432.756
101432.632
101432.482
101432.394
101432.337
101432.252
101432.111
101432.024
101431.972
101431.889
101431.749
101431.608
101431.497
101431.456
101431.392
101431.27
101431.197
101431.168
101431.104
101430.958
101430.835
101430.737
101430.703
101430.71
101430.59
101430.461
101430.403
101430.303
101429.6
101429.659
101429.673
101429.667
101429.694
101429.697
101429.661
101429.625
101429.617
101429.642
101429.667
101429.736
101429.829
101428.975
101428.756
101428.615
101428.479
101428.314
101428.095
101427.875
101427.683
101427.556
101427.402
101427.206
101427.058
101426.937
101426.787
101426.601
101426.415
101426.252
101426.096
101425.921
101425.779
101425.62
101425.431
101425.289
101425.205
101425.148
101425.099
101425.01
101424.933
101424.888
)
;

boundaryField
{
    closed
    {
        type            zeroGradient;
    }
    open
    {
        type            waveTransmissive;
        gamma           1.25;
        fieldInf        101325;
        lInf            1;
        value           nonuniform List<scalar> 0();
    }
    sides
    {
        type            empty;
    }
    procBoundary1to0
    {
        type            processor;
        value           uniform 101453.172;
    }
    procBoundary1to2
    {
        type            processor;
        value           uniform 101424.873;
    }
}


// ************************************************************************* //
