/*--------------------------------*- C++ -*----------------------------------*\
| =========                 |                                                 |
| \\      /  F ield         | OpenFOAM: The Open Source CFD Toolbox           |
|  \\    /   O peration     | Version:  2306                                  |
|   \\  /    A nd           | Website:  www.openfoam.com                      |
|    \\/     M anipulation  |                                                 |
\*---------------------------------------------------------------------------*/
FoamFile
{
    version     2.0;
    format      ascii;
    arch        "LSB;label=32;scalar=64";
    class       volScalarField;
    location    "0.00184";
    object      prefDh_T;
}
// * * * * * * * * * * * * * * * * * * * * * * * * * * * * * * * * * * * * * //

dimensions      [1 1 -3 -1 0 0 0];

internalField   nonuniform List<scalar> 
531
(
-0.000734359331
-0.000740145482
-0.00056801725
-0.00054322287
-0.000732369872
-0.000742838051
-0.000734754198
-0.000594279143
-0.000492540471
-0.000492632317
-0.000733698478
-0.000739669688
-0.000599682061
-0.000469501699
-0.00047951157
-0.000735806188
-0.000602813219
-0.000469004591
-0.000730391426
-0.000738936272
-0.000731562346
-0.000741664807
-0.000734381165
-0.000594373712
-0.000541993531
-0.00054300571
-0.000457147552
-0.000458801063
-0.000728118359
-0.000740964378
-0.000544192837
-0.000526986296
-0.00073102244
-0.000738904375
-0.000735770731
-0.000600012275
-0.000531649801
-0.000483097384
-0.000484485307
-0.000726847333
-0.000739558024
-0.00054483514
-0.000495671532
-0.000726029244
-0.000741143817
-0.000535667342
-0.000489092309
-0.000725129102
-0.00074178111
-0.000516238011
-0.000482174966
-0.000724412993
-0.000741952996
-0.000728508695
-0.000743408121
-0.000611043779
-0.000533661281
-0.000730802219
-0.00074276145
-0.00057597029
-0.000571695138
-0.000731199373
-0.00059902597
-0.000492156975
-0.000734847965
-0.000736024023
-0.000736846649
-0.00059861957
-0.000536716103
-0.000491275317
-0.000490334887
-0.000735458355
-0.000736461198
-0.000604632777
-0.00042212555
-0.000426758005
-0.000727324464
-0.000742069759
-0.000545287795
-0.0004765616
-0.000728009941
-0.00074202813
-0.000516915903
-0.000493379915
-0.00073145118
-0.000738535004
-0.000737450444
-0.000564665116
-0.000494845533
-0.000729176917
-0.000739399583
-0.000731089872
-0.000740635794
-0.00060231889
-0.000571464445
-0.000519000868
-0.00051836646
-0.000735326938
-0.000739104082
-0.000600551092
-0.000477303865
-0.00049302125
-0.000735671663
-0.00060371373
-0.000476795556
-0.000733301929
-0.000739083556
-0.000556793613
-0.000540344977
-0.000734442093
-0.000740017039
-0.000738419598
-0.00059768803
-0.000531342383
-0.000485514776
-0.0004865225
-0.000730912044
-0.000742068666
-0.000539062671
-0.000535895362
-0.000730914888
-0.00060192442
-0.000439052936
-0.000734754035
-0.000734961811
-0.000736089067
-0.000587281796
-0.000525046809
-0.000734770752
-0.00073817684
-0.000737336168
-0.000603307969
-0.000533112356
-0.000735510194
-0.000739101231
-0.000601668542
-0.00055211385
-0.000493588849
-0.00049466315
-0.000733255191
-0.000599918101
-0.000454773276
-0.000732878933
-0.000735007661
-0.000735993936
-0.000567469441
-0.0005141047
-0.000731063731
-0.00058543312
-0.000419886177
-0.00073185665
-0.000733335153
-0.000734243152
-0.000568222585
-0.00048653537
-0.00072820281
-0.000739129049
-0.000729927385
-0.00074137786
-0.000734152103
-0.00059512932
-0.000542799971
-0.000550419191
-0.00047003468
-0.000470943122
-0.000731164727
-0.000606044596
-0.000446058845
-0.000731803675
-0.000733782838
-0.000572058877
-0.000478048939
-0.000731904119
-0.000732073059
-0.000607401892
-0.000414193358
-0.000418594497
-0.000724142122
-0.000735758331
-0.000728126615
-0.000736956477
-0.000612710476
-0.00049018642
-0.000733872405
-0.00073346485
-0.00060510125
-0.000423412276
-0.000427076312
-0.000725780762
-0.000737151857
-0.000728576483
-0.000738275262
-0.000604093584
-0.000531788871
-0.000481698814
-0.0004833596
-0.000725732839
-0.000739655839
-0.000551804377
-0.000501539874
-0.000725122581
-0.000740785265
-0.000547108017
-0.000503945106
-0.00072444821
-0.000740945351
-0.000530579182
-0.000513663563
-0.000724622317
-0.000741179881
-0.000728353706
-0.000742460768
-0.00073500871
-0.000595405713
-0.000546752199
-0.000530179314
-0.000509503348
-0.000412825553
-0.000412961099
-0.000733814909
-0.00073689725
-0.000737538584
-0.000565407883
-0.000498295574
-0.000735166556
-0.000739085083
-0.000738408008
-0.000586923337
-0.000499331735
-0.000737164676
-0.000736169498
-0.000599758202
-0.000467304196
-0.000469587971
-0.000730518772
-0.00074183937
-0.000598159212
-0.000521475692
-0.000734762064
-0.000738764585
-0.000601217735
-0.000489099098
-0.000489126616
-0.000736456254
-0.000737959955
-0.000598419606
-0.000483965907
-0.000486012053
-0.000731687872
-0.000742423562
-0.000588698945
-0.000573910678
-0.000733515442
-0.000596739617
-0.000481617764
-0.000734157543
-0.000740435172
-0.000595227366
-0.000533195359
-0.00073312255
-0.000743182909
-0.000593132746
-0.000543182742
-0.000736154933
-0.000742122525
-0.000603984318
-0.000546345648
-0.000477653115
-0.000478340744
-0.000734989192
-0.000738534643
-0.000738222642
-0.000605573039
-0.000511564047
-0.000733116259
-0.000743342213
-0.000582907044
-0.00052456377
-0.000730831828
-0.000744607349
-0.000570892093
-0.000527565733
-0.000730745688
-0.000744692328
-0.00055801893
-0.000539016213
-0.000734044833
-0.000743716116
-0.00073841761
-0.000599181353
-0.000521384466
-0.000467516805
-0.000468320668
-0.000733747336
-0.000740552686
-0.000735509016
-0.000603050112
-0.000435681793
-0.000439615101
-0.000727856431
-0.000737741989
-0.000732383161
-0.000561580312
-0.000457870901
-0.000734540886
-0.000724122457
-0.000600913661
-0.000720592078
-0.000744538215
-0.000548907185
-0.000519848022
-0.000727863301
-0.000740421847
-0.000613891003
-0.000525327456
-0.000452441306
-0.000454610804
-0.000729049126
-0.000735246727
-0.000734699278
-0.000581109388
-0.000528423227
-0.000729483793
-0.000603621087
-0.000420500228
-0.000728904417
-0.000732731621
-0.000731913745
-0.000734271379
-0.000598553621
-0.000466991261
-0.000469034217
-0.00073044893
-0.000736638793
-0.000603159858
-0.000469955768
-0.000471316341
-0.000732135722
-0.000737501802
-0.000603801864
-0.000450794848
-0.00045188301
-0.000732405301
-0.0007380161
-0.000737551136
-0.000608972291
-0.000511700827
-0.000734774396
-0.000737818644
-0.00060127361
-0.000467667199
-0.000470148033
-0.000731074972
-0.000738939145
-0.000738397104
-0.000608319584
-0.000532135566
-0.000736045287
-0.000737639502
-0.00059886866
-0.000495356824
-0.000496693735
-0.000731748524
-0.000739160214
-0.000601473011
-0.0004917343
-0.000492400818
-0.000734304135
-0.000737213996
-0.000598657815
-0.000480781838
-0.000482441708
-0.000729488594
-0.000743281843
-0.000592640469
-0.000527440459
-0.000733308676
-0.00074315241
-0.00060775708
-0.000520812897
-0.000454364358
-0.000456955531
-0.000727174122
-0.000742098096
-0.00073155113
-0.000744642944
-0.000736973607
-0.000593996827
-0.000491605254
-0.000493740249
-0.00072941824
-0.000744920901
-0.000591033076
-0.000530595796
-0.000731907633
-0.000743398699
-0.000591510926
-0.000527994002
-0.000734928775
-0.000738931303
-0.000599359742
-0.000484853086
-0.000486785431
-0.000729340689
-0.000743073097
-0.000596812255
-0.000523388509
-0.000733270822
-0.000740071381
-0.000603667437
-0.000482172046
-0.000483250855
-0.000732141736
-0.000732444814
-0.000598848471
-0.000730221649
-0.000742454127
-0.000605396693
-0.000507876782
-0.000508526365
-0.000734508027
-0.000738866531
-0.000600178138
-0.000477855126
-0.00047885542
-0.000733441592
-0.000741116645
-0.000602966086
-0.000439688788
-0.000443141916
-0.000737150426
-0.000741356403
-0.000741378797
-0.000590488457
-0.000530649093
-0.000737198082
-0.000743695127
-0.000740376159
-0.000595418478
-0.000471752709
-0.000491509572
-0.000738282614
-0.000741276285
-0.000740809574
-0.000598689058
-0.000544134291
-0.000736551132
-0.000743143146
-0.000600369284
-0.000558906297
-0.000523064014
-0.000521956151
-0.000733398662
-0.000743069166
-0.000591740705
-0.000542265072
-0.000734306123
-0.000742807948
-0.000606512294
-0.000533861174
-0.000484376872
-0.00048526734
-0.000729450632
-0.000741732108
-0.00055013721
-0.00050510809
-0.000728935357
-0.000741704987
-0.000527898873
-0.000514097861
-0.000731179681
-0.000739746384
-0.000738028168
-0.000585115979
-0.000487587766
-0.000731467886
-0.000738802997
-0.000558014407
-0.000479692612
-0.000732589845
-0.000737377513
-0.000594113307
-0.000402915267
-0.00040514635
-0.000730327083
-0.00073872227
-0.000734279767
-0.000740366359
-0.000740121594
-0.000588759397
-0.000559113857
-0.000734287216
-0.000602461262
-0.000497658069
-0.000733958002
-0.000738917248
-0.000737824368
-0.000601586809
-0.00050579348
-0.000524050386
-0.000446857063
-0.000449747777
-0.000725848781
-0.000739736218
-0.000529708774
-0.000503689248
-0.000730428003
-0.00073881207
-0.000737822949
-0.000589066161
-0.000501884808
-0.000730912223
-0.000740119774
-0.000564653577
-0.000550114334
-0.000732067198
-0.000739840323
-0.00073752606
-0.000597132799
-0.000540802623
-0.000511369604
-0.000508278763
-0.000733484301
-0.000739430167
-0.000604866609
-0.000443782896
-0.000452590861
-0.000735629848
-0.000742280574
-0.000740082116
-0.000601190342
)
;

boundaryField
{
    closed
    {
        type            calculated;
        value           nonuniform List<scalar> 0();
    }
    open
    {
        type            calculated;
        value           nonuniform List<scalar> 0();
    }
    sides
    {
        type            empty;
    }
    procBoundary1to0
    {
        type            processor;
        value           uniform -0.000464345491;
    }
    procBoundary1to2
    {
        type            processor;
        value           uniform -0.000462190235;
    }
}


// ************************************************************************* //
