/*--------------------------------*- C++ -*----------------------------------*\
| =========                 |                                                 |
| \\      /  F ield         | OpenFOAM: The Open Source CFD Toolbox           |
|  \\    /   O peration     | Version:  2306                                  |
|   \\  /    A nd           | Website:  www.openfoam.com                      |
|    \\/     M anipulation  |                                                 |
\*---------------------------------------------------------------------------*/
FoamFile
{
    version     2.0;
    format      ascii;
    arch        "LSB;label=32;scalar=64";
    class       volScalarField;
    location    "0.00184";
    object      prefDZ_H2;
}
// * * * * * * * * * * * * * * * * * * * * * * * * * * * * * * * * * * * * * //

dimensions      [1 -1 -1 0 0 0 0];

internalField   nonuniform List<scalar> 
531
(
6.34619383e-05
6.35356934e-05
6.205505e-05
6.18654336e-05
6.34422924e-05
6.35668539e-05
6.34908199e-05
6.23130321e-05
6.14602212e-05
6.14681433e-05
6.34633589e-05
6.35296497e-05
6.23445123e-05
6.12823491e-05
6.13621027e-05
6.34794407e-05
6.23323075e-05
6.12790301e-05
6.34201425e-05
6.35264679e-05
6.3453297e-05
6.35546819e-05
6.34935592e-05
6.23219289e-05
6.18481509e-05
6.18638848e-05
6.11823263e-05
6.12029222e-05
6.34084472e-05
6.35415997e-05
6.18640145e-05
6.17366381e-05
6.34291434e-05
6.35337168e-05
6.34987114e-05
6.23536693e-05
6.1769652e-05
6.13857447e-05
6.14018374e-05
6.33972966e-05
6.35296759e-05
6.18673925e-05
6.14911146e-05
6.33889941e-05
6.35428983e-05
6.17945924e-05
6.14405364e-05
6.33796825e-05
6.35476615e-05
6.16417807e-05
6.13869832e-05
6.33669789e-05
6.3548706e-05
6.34286559e-05
6.35621482e-05
6.23906814e-05
6.17905833e-05
6.34354856e-05
6.35622548e-05
6.21148154e-05
6.20890681e-05
6.34357914e-05
6.23288968e-05
6.14575218e-05
6.34636199e-05
6.35083074e-05
6.35071432e-05
6.23509721e-05
6.1810064e-05
6.14522104e-05
6.14472154e-05
6.34703193e-05
6.35000497e-05
6.2352766e-05
6.09086937e-05
6.09529281e-05
6.34028441e-05
6.35466177e-05
6.1872044e-05
6.13427136e-05
6.34032217e-05
6.35494447e-05
6.16506514e-05
6.14739159e-05
6.34281005e-05
6.35248208e-05
6.3509864e-05
6.20282895e-05
6.1482816e-05
6.34115366e-05
6.35299608e-05
6.34537786e-05
6.35432901e-05
6.24057246e-05
6.20873061e-05
6.16678432e-05
6.16687276e-05
6.34753818e-05
6.35265254e-05
6.23454619e-05
6.1342788e-05
6.14681303e-05
6.34795521e-05
6.2355107e-05
6.13398382e-05
6.34541107e-05
6.35273932e-05
6.19662466e-05
6.18411742e-05
6.34592545e-05
6.35435459e-05
6.35210677e-05
6.23431078e-05
6.17698603e-05
6.14068023e-05
6.14197378e-05
6.3431954e-05
6.35525268e-05
6.18253451e-05
6.18085467e-05
6.34274096e-05
6.23313808e-05
6.10418789e-05
6.34564876e-05
6.34939808e-05
6.34939863e-05
6.22085346e-05
6.17183952e-05
6.34619388e-05
6.35270937e-05
6.35101409e-05
6.23581727e-05
6.17827021e-05
6.3479062e-05
6.35305619e-05
6.23513709e-05
6.19303983e-05
6.14704961e-05
6.14800784e-05
6.3453452e-05
6.23104601e-05
6.11657759e-05
6.34414462e-05
6.34938572e-05
6.34944201e-05
6.2050669e-05
6.16331184e-05
6.34276173e-05
6.21978492e-05
6.08923853e-05
6.34276974e-05
6.34784201e-05
6.3474866e-05
6.20554034e-05
6.14164011e-05
6.33996272e-05
6.35289458e-05
6.34388311e-05
6.3552608e-05
6.3491958e-05
6.2330333e-05
6.18555087e-05
6.19204711e-05
6.12841302e-05
6.12954377e-05
6.34364077e-05
6.23648141e-05
6.10959356e-05
6.34398665e-05
6.34786614e-05
6.2085544e-05
6.13470667e-05
6.34429385e-05
6.34622051e-05
6.23746758e-05
6.08441989e-05
6.08857477e-05
6.33724776e-05
6.34934023e-05
6.34286849e-05
6.35050968e-05
6.24083705e-05
6.14431672e-05
6.34619703e-05
6.34748745e-05
6.23617755e-05
6.09167223e-05
6.09525986e-05
6.33878288e-05
6.35066749e-05
6.34346078e-05
6.3519277e-05
6.23797997e-05
6.17718695e-05
6.13728393e-05
6.13933391e-05
6.33880816e-05
6.35306473e-05
6.19200981e-05
6.15368921e-05
6.33820966e-05
6.35408325e-05
6.18823903e-05
6.15563075e-05
6.33754877e-05
6.35428977e-05
6.17526625e-05
6.16326348e-05
6.33696324e-05
6.35474688e-05
6.34256434e-05
6.3562102e-05
6.34997305e-05
6.23211529e-05
6.18882012e-05
6.1761232e-05
6.15965658e-05
6.08401562e-05
6.0841837e-05
6.34499563e-05
6.35078424e-05
6.35078176e-05
6.20363246e-05
6.15098535e-05
6.34622542e-05
6.35307858e-05
6.35199007e-05
6.22070346e-05
6.15168401e-05
6.34882139e-05
6.34999862e-05
6.23316874e-05
6.12612827e-05
6.12877472e-05
6.34349515e-05
6.35488295e-05
6.22905038e-05
6.16927506e-05
6.34697778e-05
6.35242223e-05
6.23446847e-05
6.14345497e-05
6.14387021e-05
6.34866197e-05
6.35160245e-05
6.23301195e-05
6.13933719e-05
6.14165073e-05
6.34461945e-05
6.35574235e-05
6.22161411e-05
6.2106385e-05
6.34556327e-05
6.23272607e-05
6.13776153e-05
6.34637171e-05
6.35383949e-05
6.22681575e-05
6.17863515e-05
6.34551216e-05
6.35641694e-05
6.22526903e-05
6.18653705e-05
6.34818501e-05
6.35558157e-05
6.23556091e-05
6.18870123e-05
6.13468126e-05
6.13536976e-05
6.34634565e-05
6.3527531e-05
6.35132611e-05
6.2366739e-05
6.16156602e-05
6.34545208e-05
6.35633628e-05
6.21699644e-05
6.1720513e-05
6.3433007e-05
6.35748504e-05
6.2074301e-05
6.17446946e-05
6.34307869e-05
6.35763765e-05
6.19742443e-05
6.18347858e-05
6.34550268e-05
6.3573245e-05
6.35225441e-05
6.23285701e-05
6.16905522e-05
6.12682575e-05
6.1276013e-05
6.34518117e-05
6.35431131e-05
6.34948804e-05
6.23457882e-05
6.10147562e-05
6.10517521e-05
6.34057689e-05
6.35158242e-05
6.34711503e-05
6.20065261e-05
6.11864869e-05
6.34631147e-05
6.3384974e-05
6.23260815e-05
6.33391529e-05
6.35779411e-05
6.18955301e-05
6.16822069e-05
6.34069917e-05
6.35388962e-05
6.24144725e-05
6.17196563e-05
6.11459618e-05
6.11662725e-05
6.34098922e-05
6.34966503e-05
6.34865405e-05
6.21567113e-05
6.17452706e-05
6.34139933e-05
6.23401703e-05
6.08962535e-05
6.34039148e-05
6.34677516e-05
6.34584226e-05
6.34821141e-05
6.23390096e-05
6.12592447e-05
6.12812316e-05
6.34326774e-05
6.35031904e-05
6.23560157e-05
6.12827038e-05
6.129866e-05
6.34471239e-05
6.35093811e-05
6.2358948e-05
6.11342694e-05
6.11462687e-05
6.34480052e-05
6.35215657e-05
6.35138092e-05
6.23805561e-05
6.16143614e-05
6.34686362e-05
6.35144261e-05
6.2343921e-05
6.12661448e-05
6.12903282e-05
6.34371978e-05
6.35300416e-05
6.35237553e-05
6.23763265e-05
6.17750962e-05
6.34805103e-05
6.35156209e-05
6.23306213e-05
6.14820227e-05
6.14994401e-05
6.34458833e-05
6.35267051e-05
6.23482204e-05
6.14553282e-05
6.14641492e-05
6.34673483e-05
6.35097258e-05
6.23276246e-05
6.13671798e-05
6.13892924e-05
6.34264128e-05
6.35620092e-05
6.22472873e-05
6.17421342e-05
6.34560332e-05
6.35620756e-05
6.23740674e-05
6.16882249e-05
6.11630635e-05
6.11886363e-05
6.33927689e-05
6.35519063e-05
6.34538456e-05
6.35786474e-05
6.35146392e-05
6.2297411e-05
6.14531917e-05
6.14803983e-05
6.34238548e-05
6.35761472e-05
6.22347936e-05
6.1767818e-05
6.34437571e-05
6.35650618e-05
6.22406191e-05
6.17449699e-05
6.34705187e-05
6.35256603e-05
6.23290532e-05
6.13998292e-05
6.14236254e-05
6.34246502e-05
6.35601472e-05
6.22809677e-05
6.17091893e-05
6.3456644e-05
6.3534797e-05
6.2354477e-05
6.13803735e-05
6.13914135e-05
6.34464351e-05
6.346097e-05
6.23236506e-05
6.34293555e-05
6.35608799e-05
6.23648265e-05
6.15830529e-05
6.1591327e-05
6.34689475e-05
6.35240119e-05
6.23331308e-05
6.134635e-05
6.13605134e-05
6.34593202e-05
6.35391315e-05
6.23473924e-05
6.10503806e-05
6.1079942e-05
6.34886387e-05
6.3547917e-05
6.35427201e-05
6.2238929e-05
6.17675969e-05
6.34839478e-05
6.35730902e-05
6.35371844e-05
6.2312167e-05
6.13016301e-05
6.14591957e-05
6.3501609e-05
6.3552133e-05
6.35399187e-05
6.23315484e-05
6.18730338e-05
6.34900513e-05
6.356558e-05
6.23412148e-05
6.19888155e-05
6.17021538e-05
6.16987899e-05
6.34606688e-05
6.35632759e-05
6.22425881e-05
6.18584388e-05
6.34686074e-05
6.35610356e-05
6.23678245e-05
6.17906036e-05
6.13982175e-05
6.14103267e-05
6.34216251e-05
6.35483586e-05
6.19121832e-05
6.15662767e-05
6.34152711e-05
6.35495557e-05
6.17377159e-05
6.16364819e-05
6.34289958e-05
6.35371597e-05
6.35138835e-05
6.21922078e-05
6.14257088e-05
6.34391327e-05
6.35225343e-05
6.19767815e-05
6.1363926e-05
6.34482762e-05
6.35064634e-05
6.22657753e-05
6.07610698e-05
6.0782203e-05
6.34281753e-05
6.35206492e-05
6.34776338e-05
6.35399249e-05
6.35383718e-05
6.22227015e-05
6.19888057e-05
6.34630755e-05
6.23440007e-05
6.15027081e-05
6.34600563e-05
6.35317323e-05
6.35192765e-05
6.2339627e-05
6.15651241e-05
6.17144808e-05
6.11024561e-05
6.11316632e-05
6.33902845e-05
6.3530194e-05
6.17509667e-05
6.15535627e-05
6.34227258e-05
6.35290757e-05
6.35118388e-05
6.22226748e-05
6.15381533e-05
6.34360672e-05
6.35378118e-05
6.20270799e-05
6.19181752e-05
6.34438662e-05
6.35429747e-05
6.3516563e-05
6.23403696e-05
6.18437331e-05
6.16103784e-05
6.15896429e-05
6.34571314e-05
6.35266407e-05
6.23528709e-05
6.10812006e-05
6.11543864e-05
6.34796206e-05
6.355741e-05
6.35374561e-05
6.23309175e-05
)
;

boundaryField
{
    closed
    {
        type            calculated;
        value           nonuniform List<scalar> 0();
    }
    open
    {
        type            calculated;
        value           nonuniform List<scalar> 0();
    }
    sides
    {
        type            empty;
    }
    procBoundary1to0
    {
        type            processor;
        value           uniform 6.12424725e-05;
    }
    procBoundary1to2
    {
        type            processor;
        value           uniform 6.12253042e-05;
    }
}


// ************************************************************************* //
