/*--------------------------------*- C++ -*----------------------------------*\
| =========                 |                                                 |
| \\      /  F ield         | OpenFOAM: The Open Source CFD Toolbox           |
|  \\    /   O peration     | Version:  2306                                  |
|   \\  /    A nd           | Website:  www.openfoam.com                      |
|    \\/     M anipulation  |                                                 |
\*---------------------------------------------------------------------------*/
FoamFile
{
    version     2.0;
    format      ascii;
    arch        "LSB;label=32;scalar=64";
    class       volScalarField;
    location    "0.00184";
    object      prefDPV_H2;
}
// * * * * * * * * * * * * * * * * * * * * * * * * * * * * * * * * * * * * * //

dimensions      [1 -1 -1 0 0 0 0];

internalField   nonuniform List<scalar> 
531
(
-3.1480073e-05
-3.1516659e-05
-3.07821909e-05
-3.06881324e-05
-3.14703277e-05
-3.1532116e-05
-3.14943996e-05
-3.0910162e-05
-3.04871282e-05
-3.04910579e-05
-3.14807777e-05
-3.1513661e-05
-3.09257777e-05
-3.03988954e-05
-3.04384569e-05
-3.1488755e-05
-3.09197236e-05
-3.0397249e-05
-3.14593403e-05
-3.15120826e-05
-3.14757865e-05
-3.15260781e-05
-3.14957584e-05
-3.09145753e-05
-3.06795594e-05
-3.06873641e-05
-3.03492794e-05
-3.03594959e-05
-3.14535389e-05
-3.15195887e-05
-3.06874284e-05
-3.06242438e-05
-3.14638052e-05
-3.15156785e-05
-3.14983142e-05
-3.093032e-05
-3.06406203e-05
-3.04501844e-05
-3.04581671e-05
-3.14480077e-05
-3.1513674e-05
-3.06891041e-05
-3.05024528e-05
-3.14438893e-05
-3.15202329e-05
-3.06529919e-05
-3.04773636e-05
-3.14392703e-05
-3.15225956e-05
-3.05771902e-05
-3.04507987e-05
-3.14329687e-05
-3.15231138e-05
-3.14635633e-05
-3.15297818e-05
-3.09486797e-05
-3.06510032e-05
-3.14669512e-05
-3.15298346e-05
-3.08118373e-05
-3.07990655e-05
-3.14671029e-05
-3.09180317e-05
-3.04857891e-05
-3.14809071e-05
-3.15030742e-05
-3.15024967e-05
-3.09289821e-05
-3.06606665e-05
-3.04831545e-05
-3.04806767e-05
-3.14842303e-05
-3.1498978e-05
-3.09298719e-05
-3.02135449e-05
-3.02354872e-05
-3.14507595e-05
-3.15220779e-05
-3.06914115e-05
-3.0428839e-05
-3.14509468e-05
-3.15234802e-05
-3.05815904e-05
-3.04939214e-05
-3.14632878e-05
-3.15112656e-05
-3.15038463e-05
-3.07689165e-05
-3.04983363e-05
-3.14550714e-05
-3.15138153e-05
-3.14760254e-05
-3.15204272e-05
-3.09561418e-05
-3.07981914e-05
-3.05901184e-05
-3.05905571e-05
-3.14867416e-05
-3.15121112e-05
-3.09262488e-05
-3.04288758e-05
-3.04910515e-05
-3.14888102e-05
-3.09310332e-05
-3.04274126e-05
-3.14761901e-05
-3.15125416e-05
-3.07381403e-05
-3.06760986e-05
-3.14787417e-05
-3.15205541e-05
-3.15094039e-05
-3.0925081e-05
-3.06407236e-05
-3.04606299e-05
-3.04670466e-05
-3.14651993e-05
-3.15250091e-05
-3.06682466e-05
-3.06599138e-05
-3.14629451e-05
-3.09192639e-05
-3.02796109e-05
-3.14773692e-05
-3.14959675e-05
-3.14959703e-05
-3.08583265e-05
-3.06151945e-05
-3.14800732e-05
-3.15123931e-05
-3.15039837e-05
-3.09325539e-05
-3.06470937e-05
-3.14885671e-05
-3.15141135e-05
-3.09291799e-05
-3.07203579e-05
-3.0492225e-05
-3.04969783e-05
-3.14758633e-05
-3.09088862e-05
-3.03410696e-05
-3.14699079e-05
-3.14959062e-05
-3.14961855e-05
-3.07800177e-05
-3.05728932e-05
-3.14630482e-05
-3.0853026e-05
-3.02054552e-05
-3.14630879e-05
-3.14882487e-05
-3.14864857e-05
-3.07823662e-05
-3.04653914e-05
-3.14491638e-05
-3.15133118e-05
-3.14686107e-05
-3.15250493e-05
-3.14949641e-05
-3.09187441e-05
-3.06832092e-05
-3.07154336e-05
-3.03997788e-05
-3.04053879e-05
-3.14674086e-05
-3.09358483e-05
-3.03064256e-05
-3.14691243e-05
-3.14883684e-05
-3.07973174e-05
-3.04309983e-05
-3.14706482e-05
-3.14802053e-05
-3.09407402e-05
-3.01815525e-05
-3.02021626e-05
-3.14356963e-05
-3.14956806e-05
-3.14635777e-05
-3.15014816e-05
-3.09574544e-05
-3.04786686e-05
-3.14800888e-05
-3.14864899e-05
-3.0934341e-05
-3.02175275e-05
-3.02353238e-05
-3.14433112e-05
-3.15022644e-05
-3.14665158e-05
-3.15085156e-05
-3.09432819e-05
-3.06417202e-05
-3.04437827e-05
-3.04539516e-05
-3.14434366e-05
-3.15141558e-05
-3.07152485e-05
-3.05251605e-05
-3.14404678e-05
-3.15192082e-05
-3.06965437e-05
-3.05347915e-05
-3.14371894e-05
-3.15202326e-05
-3.06321927e-05
-3.05726533e-05
-3.1434285e-05
-3.15225001e-05
-3.1462069e-05
-3.15297588e-05
-3.14988197e-05
-3.09141904e-05
-3.06994262e-05
-3.06364435e-05
-3.05547614e-05
-3.01795471e-05
-3.01803809e-05
-3.14741294e-05
-3.15028436e-05
-3.15028313e-05
-3.07729023e-05
-3.05117481e-05
-3.14802297e-05
-3.15142245e-05
-3.1508825e-05
-3.08575824e-05
-3.05152138e-05
-3.14931069e-05
-3.14989465e-05
-3.09194159e-05
-3.03884455e-05
-3.0401573e-05
-3.14666863e-05
-3.1523175e-05
-3.0898987e-05
-3.06024736e-05
-3.14839617e-05
-3.15109687e-05
-3.09258632e-05
-3.04743939e-05
-3.04764537e-05
-3.14923161e-05
-3.15069022e-05
-3.09186382e-05
-3.04539678e-05
-3.0465444e-05
-3.14722633e-05
-3.1527438e-05
-3.08620996e-05
-3.08076555e-05
-3.14769451e-05
-3.09172201e-05
-3.04461518e-05
-3.14809553e-05
-3.1517999e-05
-3.08879022e-05
-3.0648904e-05
-3.14766915e-05
-3.15307844e-05
-3.08802297e-05
-3.06881011e-05
-3.14899502e-05
-3.15266405e-05
-3.09312822e-05
-3.06988364e-05
-3.04308723e-05
-3.04342876e-05
-3.14808261e-05
-3.151261e-05
-3.15055315e-05
-3.09368032e-05
-3.05642332e-05
-3.14763935e-05
-3.15303842e-05
-3.08391938e-05
-3.0616245e-05
-3.14657217e-05
-3.15360826e-05
-3.07917403e-05
-3.06282402e-05
-3.14646204e-05
-3.15368396e-05
-3.07421075e-05
-3.06729296e-05
-3.14766445e-05
-3.15352862e-05
-3.15101363e-05
-3.09178696e-05
-3.06013831e-05
-3.03919052e-05
-3.03957524e-05
-3.14750497e-05
-3.15203395e-05
-3.14964138e-05
-3.09264106e-05
-3.02661568e-05
-3.02845085e-05
-3.14522103e-05
-3.15068029e-05
-3.14846426e-05
-3.07581208e-05
-3.03513432e-05
-3.14806565e-05
-3.14418951e-05
-3.09166352e-05
-3.14191657e-05
-3.15376158e-05
-3.07030617e-05
-3.05972434e-05
-3.14528169e-05
-3.15182477e-05
-3.09604812e-05
-3.06158201e-05
-3.03312409e-05
-3.0341316e-05
-3.14542557e-05
-3.14972917e-05
-3.14922768e-05
-3.08326197e-05
-3.06285259e-05
-3.145629e-05
-3.09236239e-05
-3.0207374e-05
-3.14512906e-05
-3.14829566e-05
-3.1478329e-05
-3.14900811e-05
-3.09230481e-05
-3.03874345e-05
-3.0398341e-05
-3.14655582e-05
-3.15005359e-05
-3.09314839e-05
-3.03990713e-05
-3.04069863e-05
-3.14727243e-05
-3.15036068e-05
-3.09329385e-05
-3.03254409e-05
-3.03313931e-05
-3.14731615e-05
-3.1509651e-05
-3.15058033e-05
-3.09436571e-05
-3.05635889e-05
-3.14833954e-05
-3.15061094e-05
-3.09254844e-05
-3.03908573e-05
-3.04028534e-05
-3.14678005e-05
-3.15138554e-05
-3.15107371e-05
-3.0941559e-05
-3.06433208e-05
-3.14892856e-05
-3.1506702e-05
-3.09188871e-05
-3.04979428e-05
-3.05065826e-05
-3.14721089e-05
-3.15122003e-05
-3.09276171e-05
-3.0484701e-05
-3.04890767e-05
-3.14827566e-05
-3.15037778e-05
-3.09174006e-05
-3.04409753e-05
-3.04519442e-05
-3.14624507e-05
-3.15297128e-05
-3.08775496e-05
-3.06269701e-05
-3.14771438e-05
-3.15297457e-05
-3.09404384e-05
-3.06002286e-05
-3.03397241e-05
-3.03524095e-05
-3.14457618e-05
-3.15247013e-05
-3.14760586e-05
-3.15379661e-05
-3.15062151e-05
-3.09024133e-05
-3.04836412e-05
-3.0497137e-05
-3.14611818e-05
-3.15367259e-05
-3.08713521e-05
-3.06397105e-05
-3.14710542e-05
-3.1531227e-05
-3.08742418e-05
-3.06283768e-05
-3.14843292e-05
-3.15116821e-05
-3.09181093e-05
-3.04571709e-05
-3.0468975e-05
-3.14615763e-05
-3.15287892e-05
-3.08942566e-05
-3.06106279e-05
-3.14774468e-05
-3.15162143e-05
-3.09307207e-05
-3.044752e-05
-3.04529964e-05
-3.14723827e-05
-3.14795927e-05
-3.09154293e-05
-3.14639104e-05
-3.15291526e-05
-3.09358545e-05
-3.05480584e-05
-3.05521627e-05
-3.14835498e-05
-3.15108644e-05
-3.0920132e-05
-3.04306428e-05
-3.04376685e-05
-3.14787743e-05
-3.15183644e-05
-3.09272064e-05
-3.02838282e-05
-3.0298492e-05
-3.14933176e-05
-3.15227224e-05
-3.15201445e-05
-3.08734035e-05
-3.06396008e-05
-3.14909907e-05
-3.15352095e-05
-3.15173985e-05
-3.09097329e-05
-3.04084596e-05
-3.04866195e-05
-3.14997515e-05
-3.15248137e-05
-3.15187549e-05
-3.0919347e-05
-3.06919024e-05
-3.14940183e-05
-3.15314841e-05
-3.0924142e-05
-3.07493356e-05
-3.0607138e-05
-3.06054693e-05
-3.14794432e-05
-3.15303411e-05
-3.08752186e-05
-3.06846626e-05
-3.14833812e-05
-3.15292298e-05
-3.09373416e-05
-3.06510132e-05
-3.04563715e-05
-3.04623782e-05
-3.14600758e-05
-3.15229415e-05
-3.07113224e-05
-3.05397366e-05
-3.14569239e-05
-3.15235353e-05
-3.06247785e-05
-3.05745617e-05
-3.1463732e-05
-3.15173863e-05
-3.15058402e-05
-3.08502276e-05
-3.04700084e-05
-3.14687603e-05
-3.15101314e-05
-3.07433661e-05
-3.04393613e-05
-3.14732959e-05
-3.15021595e-05
-3.08867205e-05
-3.01403166e-05
-3.01507996e-05
-3.14633249e-05
-3.15091963e-05
-3.14878587e-05
-3.15187579e-05
-3.15179875e-05
-3.08653539e-05
-3.07493307e-05
-3.14806371e-05
-3.09255239e-05
-3.05082037e-05
-3.14791394e-05
-3.1514694e-05
-3.15085154e-05
-3.09233544e-05
-3.05391649e-05
-3.06132528e-05
-3.03096601e-05
-3.03241481e-05
-3.14445294e-05
-3.15139309e-05
-3.06313515e-05
-3.05334299e-05
-3.14606218e-05
-3.15133763e-05
-3.15048259e-05
-3.08653406e-05
-3.05257861e-05
-3.14672397e-05
-3.15177097e-05
-3.07683165e-05
-3.07142947e-05
-3.14711084e-05
-3.15202708e-05
-3.15071693e-05
-3.09237227e-05
-3.06773679e-05
-3.05616131e-05
-3.05513274e-05
-3.14776885e-05
-3.15121684e-05
-3.09299239e-05
-3.02991164e-05
-3.03354199e-05
-3.14888442e-05
-3.15274314e-05
-3.15175333e-05
-3.0919034e-05
)
;

boundaryField
{
    closed
    {
        type            calculated;
        value           nonuniform List<scalar> 0();
    }
    open
    {
        type            calculated;
        value           nonuniform List<scalar> 0();
    }
    sides
    {
        type            empty;
    }
    procBoundary1to0
    {
        type            processor;
        value           uniform -3.03791147e-05;
    }
    procBoundary1to2
    {
        type            processor;
        value           uniform -3.03705984e-05;
    }
}


// ************************************************************************* //
