/*--------------------------------*- C++ -*----------------------------------*\
| =========                 |                                                 |
| \\      /  F ield         | OpenFOAM: The Open Source CFD Toolbox           |
|  \\    /   O peration     | Version:  2306                                  |
|   \\  /    A nd           | Website:  www.openfoam.com                      |
|    \\/     M anipulation  |                                                 |
\*---------------------------------------------------------------------------*/
FoamFile
{
    version     2.0;
    format      ascii;
    arch        "LSB;label=32;scalar=64";
    class       volScalarField;
    location    "8e-05";
    object      sourcePV;
}
// * * * * * * * * * * * * * * * * * * * * * * * * * * * * * * * * * * * * * //

dimensions      [1 -3 -1 0 0 0 0];

internalField   nonuniform List<scalar> 
3816
(
0.0815256304
0.081613795
0.0815305631
0.0815304546
0.0815304428
0.0815304428
0.0815304428
0.0815304428
0.0815304428
0.0815304428
0.0815304428
0.0815304428
0.0815304428
0.0815304428
0.0815304428
0.0815304428
0.0815304428
0.0815304428
0.0815304428
0.0815304428
0.0815304428
0.0815304428
0.0815304428
0.0815304428
0.0815304428
0.0815304428
0.0815304428
0.0815304428
0.0815304428
0.0815304428
0.0815304428
0.0815304428
0.0815304428
0.0815304428
0.0815304428
0.0815304428
0.0815304428
0.0815304428
0.0815304428
0.0815304428
0.0815304428
0.0815304428
0.0815304428
0.0815304428
0.0815304428
0.0815304428
0.0815304428
0.0815304428
0.0815304428
0.0815304428
0.0815304428
0.0815304428
0.0815304428
0.0815304428
0.0815304428
0.0815304428
0.0815304428
0.0815304428
0.0815304428
0.0815304428
0.0815304428
0.0815304428
0.0815304428
0.0815304428
0.0815304428
0.0815304428
0.0815304428
0.0815304428
0.0815304428
0.0815304428
0.0815304428
0.0815304428
0.0815304428
0.0815304428
0.0815304428
0.0815304428
0.0815304428
0.0815304428
0.0815304428
0.0815304428
0.0815304428
0.0815304429
0.081530443
0.0815304435
0.081530445
0.0815304494
0.0815304613
0.0815304908
0.0815305589
0.0815307048
0.0815309972
0.0815315436
0.0815324705
0.0815339924
0.0815369026
0.0815402287
0.0815377971
0.0815601743
0.0816252147
0.0814832733
0.0811448053
0.0818945307
0.0832472154
0.0804338521
0.077861443
0.0921662599
0.125605656
0.135363218
0.104081673
0.00428023295
0.00533236746
0.0629085382
0.156086097
0.129644855
0.00391935857
0.00625185417
0.00386994117
0.143656768
0.160081244
0.0767597843
0.00561201351
0.0147677209
0.159688782
0.160739077
0.0655484859
0.00548268235
0.0309685113
0.15944993
0.1209364
0.00451360553
0.00612999277
0.00295774895
0.166371991
0.181755533
0.151033217
0.162946906
0.133164952
0.00529885649
0.00620370561
0.00575104041
0.00602530879
0.0670743624
0.155123262
0.153633626
0.140635129
0.141237749
0.0826185778
0.0060504273
0.00636328137
0.142879554
0.147049744
0.00565292379
0.00634130473
0.164483599
0.0934314749
0.00566626707
0.136961534
0.15013741
0.00600030734
0.00561721035
0.156222847
0.158398103
0.138787383
0.109966927
0.00630205293
0.00553039357
0.136364594
0.131588323
0.00619946107
0.00477577413
0.146667123
0.136761148
0.0060001248
0.00480901829
0.1639084
0.165328725
0.0863786707
0.00573736679
0.00377052232
0.149251166
0.131410268
0.00586347647
0.00305522021
0.151247736
0.134178183
0.00579031741
0.00249850824
0.156251017
0.134535862
0.00559558101
0.00360781231
0.167514133
0.0871995344
0.0024177987
0.139291972
0.128776115
0.00592444434
0.00636479084
0.15027259
0.127938046
0.00570169283
0.0120903735
0.156086271
0.128110598
0.00555632131
0.0175018336
0.15952207
0.127952308
0.00545442521
0.0219186192
0.161741522
0.127678768
0.00539352838
0.0239123898
0.162867188
0.128156033
0.00536733577
0.0225272114
0.163863343
0.129650955
0.00521560133
0.0146191592
0.176216836
0.100243302
0.00304491104
0.162586037
0.164224871
0.126927012
0.100755276
0.00649401032
0.00337374302
0.105574817
0.00415532142
0.00349128169
0.171676673
0.1719495
0.133476443
0.0956433984
0.00623306373
0.00479907742
0.139539597
0.132107729
0.00610684302
0.00489844067
0.146992381
0.141476008
0.0059397851
0.00498915835
0.152355293
0.147574102
0.00573527748
0.00505463784
0.155421443
0.151942093
0.00555294238
0.0051897849
0.157258492
0.155242886
0.00543050595
0.00530064054
0.158189125
0.157893334
0.00531747455
0.00544126978
0.159823963
0.159208271
0.00528790625
0.00602577472
0.171896878
0.104002475
0.00530054138
0.132753846
0.15347208
0.00554970312
0.00577651937
0.147970733
0.153788269
0.00533575785
0.00574625818
0.153464631
0.157037395
0.00525172943
0.00568281458
0.15662194
0.159660078
0.00518942175
0.00564262562
0.158720534
0.161822803
0.00512336958
0.00567461597
0.161749911
0.161863631
0.00499115001
0.00606646049
0.172609208
0.136534415
0.00528838142
0.135707196
0.163238269
0.140764325
0.122481781
0.00609847053
0.00643827735
0.134297508
0.1418306
0.00591740708
0.00599316166
0.146751251
0.148993805
0.00573274251
0.00543133631
0.154418479
0.150069084
0.00558149052
0.0052140635
0.166298542
0.125873082
0.00501640683
0.142148394
0.157409654
0.13520607
0.109134407
0.00631621616
0.00456661457
0.135552465
0.126968582
0.00618551478
0.00364398116
0.145853724
0.13163006
0.00599949079
0.00288948953
0.152238123
0.134178807
0.00583280716
0.00274853673
0.156611031
0.135794312
0.00568750396
0.00564914275
0.160278732
0.133575546
0.00549061773
0.00878787958
0.16809129
0.0831272098
0.00316967231
0.140107773
0.128056054
0.00583393446
0.0106812791
0.151856444
0.124151206
0.00549200689
0.0192943427
0.163467701
0.0715865838
0.00695456601
0.138783979
0.123105835
0.00581909516
0.0162577589
0.150128153
0.12160796
0.00562296171
0.0220516578
0.155547206
0.122082628
0.00550928814
0.0252989398
0.158819607
0.122993404
0.00544427675
0.0266054596
0.160674494
0.124018025
0.00539373909
0.0262581219
0.162547758
0.123697709
0.00516037798
0.0267980762
0.176669311
0.0967228123
0.00317651138
0.162984488
0.164304373
0.126022314
0.0898660597
0.0062204314
0.00365265253
0.13782552
0.119752524
0.0057914505
0.0161373502
0.153388854
0.112515159
0.00520895845
0.0691061739
0.168654571
0.0994429121
0.00590818509
0.00582101344
0.0810636945
0.15309974
0.111222793
0.0056861097
0.0218455434
0.152216562
0.125508743
0.00580051742
0.00273891509
0.154205829
0.138298179
0.00583896645
0.0037469128
0.156900308
0.144333642
0.00584142384
0.00411892417
0.158884279
0.147931138
0.00583423788
0.00437481771
0.160334098
0.150535202
0.00582205741
0.00452412432
0.161451755
0.152598074
0.00580041205
0.00464039258
0.162603907
0.15417825
0.00573820114
0.00480003739
0.165122554
0.152784456
0.00551264533
0.00530937718
0.178421934
0.118242519
0.00513094174
0.156147162
0.161658611
0.131849404
0.101130886
0.0063140904
0.00592418139
0.140385226
0.138272638
0.00611246846
0.00560150578
0.151927657
0.145109627
0.0058683967
0.00563006429
0.17007192
0.113135437
0.00524668049
0.149985676
0.158761511
0.132705704
0.100415878
0.00631765859
0.00546042015
0.140424776
0.135549231
0.00605570798
0.00515776108
0.157423918
0.157033192
0.132666571
0.0936818511
0.00638204988
0.00488251373
0.138286065
0.131523987
0.00613344213
0.00421865877
0.150666455
0.137991349
0.00580294548
0.00376611178
0.167172956
0.0981698951
0.00443724071
0.156187431
0.156697204
0.124709083
0.0845014589
0.00639685082
0.00365386479
0.136434732
0.124409957
0.00616296542
0.00310568551
0.146195045
0.129721429
0.00598654769
0.00270585315
0.152332475
0.133567956
0.00585365527
0.0024389398
0.156303267
0.136288078
0.00575200809
0.00227096304
0.159099166
0.138156729
0.00566666653
0.00323322342
0.161260738
0.139276143
0.00558297303
0.00488314261
0.163396779
0.140059467
0.00548337277
0.0051572503
0.166464191
0.139421983
0.00521347617
0.00227858083
0.181985419
0.103810227
0.00316151968
0.165040088
0.165956464
0.125805712
0.088533891
0.00621513552
0.00350330228
0.139824237
0.125519675
0.00599536596
0.00327526037
0.149048628
0.133603873
0.00585320825
0.00314249337
0.155221679
0.137168773
0.00570572961
0.00241703854
0.159355228
0.134753086
0.00556263878
0.0155962781
0.162100148
0.128839041
0.00545678151
0.026884667
0.164538899
0.125633743
0.00537005982
0.0319460149
0.168125161
0.124616382
0.00511444647
0.0354516945
0.185398923
0.0805292603
0.003957218
0.153376388
0.0905172221
0.00482460308
0.133281741
0.136574677
0.00613099611
0.00467530289
0.14829808
0.142095586
0.00591120215
0.00433887716
0.155881136
0.146618376
0.00573062215
0.00419240808
0.162759229
0.150998809
0.00542931463
0.00424361193
0.178134443
0.0681746849
0.00474302211
0.145822776
0.14662106
0.00596339389
0.00451936408
0.152694623
0.146291
0.00589004973
0.00436059931
0.157205922
0.147677687
0.0058316263
0.00418015975
0.159903139
0.148787502
0.0057887141
0.00401336379
0.161653273
0.149571105
0.00575677655
0.00387710444
0.162815414
0.150101594
0.00572792522
0.00381017521
0.163302884
0.149398191
0.00566954269
0.00388244998
0.164553037
0.145355336
0.00543971164
0.00418657922
0.179072743
0.104138183
0.00406165188
0.150047161
0.150201517
0.00582224237
0.00386251347
0.162206955
0.153370801
0.00568965998
0.00389398828
0.165317462
0.154131375
0.0056904602
0.00414331486
0.163767756
0.151669861
0.00574676052
0.00449109205
0.160234733
0.148572708
0.00575681547
0.0048079535
0.161424043
0.146729007
0.00560312079
0.00528550068
0.174410581
0.0951857884
0.00521890239
0.142848758
0.145063291
0.00591628431
0.00573592269
0.162728677
0.104969919
0.00548446679
0.148611939
0.15686889
0.125097962
0.0800639011
0.00639507516
0.00612246054
0.143560063
0.145656811
0.00612209614
0.00580867166
0.152149059
0.151012077
0.00600717334
0.00571721454
0.15652063
0.154258854
0.00593113065
0.0056348017
0.158962397
0.156267285
0.00587891041
0.00555792356
0.160560806
0.15725068
0.00584983722
0.00547080913
0.161534249
0.157370276
0.00583177274
0.00535081051
0.161917096
0.156873247
0.00582138461
0.00519550795
0.16200767
0.155946721
0.00581478506
0.00500221111
0.161958798
0.154698344
0.00580941537
0.00477332666
0.161799062
0.153189042
0.00580383146
0.0045147547
0.16158988
0.151510563
0.00579654811
0.00423373055
0.161386705
0.149742027
0.00578654358
0.0039373439
0.161215877
0.14796958
0.00577262028
0.00363108108
0.161143913
0.146284332
0.00575339754
0.00332024697
0.161213128
0.144755133
0.00572802787
0.00301095402
0.161451735
0.143452629
0.00569688432
0.0027124268
0.161836873
0.142402772
0.00566158997
0.00243805568
0.16234924
0.141565422
0.00562457029
0.00397747882
0.162925977
0.14078931
0.00558795118
0.0057193013
0.163460225
0.140021199
0.00555310021
0.00729721363
0.163899009
0.139312714
0.00551937366
0.00844933968
0.164291557
0.138772131
0.00548019236
0.00898004168
0.165090431
0.13832721
0.00541312878
0.00876065607
0.167503949
0.135595082
0.00518065197
0.00556115113
0.181886214
0.106420302
0.00268087402
0.164189094
0.165182809
0.129856187
0.0886730408
0.00597063569
0.00283149941
0.150269929
0.150189562
0.0489115753
0.00610128734
0.00699561449
0.113976221
0.00370563141
0.00257200224
0.187370724
0.0701851685
0.00448140635
0.144555924
0.135098938
0.00557518797
0.00276990023
0.169870655
0.0912492479
0.00287375386
0.139509019
0.135658414
0.00585809108
0.00264646945
0.156066274
0.136203914
0.00561345219
0.00659053497
0.160659166
0.134210823
0.00547750018
0.0152276189
0.163776971
0.131852703
0.00535398903
0.0248062039
0.167241577
0.131007123
0.00528943105
0.0300161334
0.168352714
0.136541179
0.00544900695
0.00327368035
0.16925958
0.170772229
0.127269505
0.0935702357
0.00633782285
0.00393589704
0.137040894
0.130170989
0.00644387664
0.00312531698
0.112425363
0.00406128218
0.00366218391
0.179176041
0.135801906
0.00531044169
0.00335285965
0.164434305
0.140225587
0.00561188517
0.00321842659
0.161032271
0.141919909
0.00568081525
0.00311521462
0.160924991
0.143165558
0.00566654354
0.00301246794
0.162590377
0.144298468
0.00558759993
0.00294374355
0.166314929
0.142754805
0.00534577036
0.00308151159
0.179778923
0.101928247
0.00344170411
0.161787286
0.162526827
0.121276146
0.0830847594
0.0063308747
0.00371809257
0.138101503
0.126393566
0.00609440203
0.00336984649
0.148124629
0.132946965
0.00594061846
0.00315235969
0.154350982
0.137362328
0.00579597123
0.00309833053
0.159125623
0.138471071
0.00545395901
0.00322367137
0.177442014
0.098511901
0.0029931106
0.146805348
0.147360805
0.0057452501
0.00332174355
0.168652681
0.170072957
0.122881864
0.0890445977
0.00636707632
0.00420492924
0.138728097
0.130026602
0.00611237158
0.00397347179
0.149482442
0.138494087
0.00594121781
0.00386121629
0.156775707
0.144939845
0.00576314149
0.00383541327
0.163590712
0.148933873
0.00544789553
0.00398281884
0.178614894
0.0730885503
0.00438388352
0.147603238
0.148047918
0.00590591714
0.00411634454
0.157139519
0.14966422
0.00572223374
0.00415880479
0.165053553
0.150174025
0.00539034289
0.00453399789
0.182616459
0.113319717
0.00458962336
0.163173525
0.165803113
0.130694247
0.0971716531
0.00615411262
0.00527588122
0.147404215
0.140707071
0.00576861506
0.00511549319
0.167568612
0.0769710643
0.00507595742
0.160214377
0.163313426
0.116351829
0.0750823847
0.00646281272
0.00566094821
0.13925034
0.142169903
0.00618987883
0.00551250207
0.149667901
0.147943692
0.00602129019
0.00549407145
0.156907939
0.153624653
0.00584500662
0.00552707255
0.164634184
0.157267017
0.00561840776
0.00586243544
0.177036896
0.0828498868
0.00589462936
0.144645525
0.119905793
0.0060769224
0.136792168
0.144292044
0.00601101284
0.00616107014
0.152147931
0.148993314
0.00592365176
0.00644273415
0.153806155
0.115223661
0.00586830364
0.123961827
0.15664775
0.00595230315
0.00593276914
0.157577891
0.15693068
0.0057724079
0.00590957616
0.158264564
0.159156423
0.0057365371
0.00586880785
0.159638158
0.160492372
0.0057218371
0.00583801602
0.161014932
0.161535292
0.00571150801
0.0057830587
0.162242544
0.162930352
0.00570236646
0.00573408288
0.162462295
0.161900606
0.00572749925
0.00591068201
0.162324918
0.140817505
0.00557536004
0.106682876
0.167383201
0.0139145712
0.00551691006
0.156984738
0.164122468
0.00604280146
0.00539402039
0.148415058
0.14361351
0.101288051
0.151292465
0.133104836
0.00595173814
0.00672664202
0.00547854315
0.119315326
0.157629212
0.119342375
0.00580853127
0.00563978897
0.152692328
0.148741251
0.00558192699
0.00525592914
0.175652609
0.107105197
0.00414809307
0.132541969
0.165616636
0.122101397
0.0873603705
0.00652188799
0.00529964329
0.136207002
0.134789749
0.00620895804
0.00454013038
0.148460776
0.140805203
0.00601263567
0.00442403458
0.153752551
0.128800923
0.00538148846
0.105938634
0.148458086
0.00625095134
0.00396788998
0.159724176
0.151069454
0.00581306342
0.00399022773
0.158361041
0.149681648
0.00576397357
0.00398731837
0.160823194
0.151091023
0.00574119621
0.00402449975
0.162099894
0.151826847
0.0057543403
0.00412268163
0.161474616
0.151327006
0.005791578
0.00426831353
0.159893223
0.150225328
0.00583162474
0.00443302296
0.1587488
0.149922245
0.00585228766
0.00459747559
0.159006615
0.150663742
0.00585336308
0.00475606781
0.159614466
0.152318351
0.00583885485
0.00489966166
0.160902118
0.154541248
0.005809592
0.00503549773
0.162362429
0.156747054
0.00577046274
0.00517117575
0.163866657
0.158638861
0.00571820024
0.00530226481
0.16556068
0.159779747
0.00562428936
0.00542181744
0.168373692
0.157676875
0.00535872452
0.00579487179
0.182486182
0.0982828646
0.00514000971
0.139313774
0.154718061
0.00586706576
0.00404256778
0.152754449
0.164354871
0.131934716
0.11755429
0.00639047212
0.00551271497
0.111012969
0.0044272173
0.00530554814
0.169840758
0.15141349
0.00501386822
0.00417106112
0.161940092
0.153097253
0.00513011943
0.00382523393
0.162457137
0.154495315
0.00505216673
0.00397693592
0.164417745
0.155019243
0.00476909558
0.00465329976
0.179057495
0.107347881
0.00411860595
0.135318487
0.155297797
0.0045886322
0.00548947662
0.174940519
0.127002725
0.00446831446
0.15790547
0.172272908
0.0415582379
0.00543368284
0.00456405119
0.00555868675
0.00447482105
0.16023127
0.165521636
0.142118315
0.13939413
0.134467757
0.10674015
0.0065480687
0.00425440875
0.122908192
0.00468227847
0.00405168534
0.165776021
0.165780343
0.13335608
0.11142731
0.0065061779
0.00390005626
0.105340244
0.00475733238
0.00349202927
0.170362314
0.134629367
0.00548642815
0.00306931634
0.164421218
0.136322141
0.00554878004
0.00304901419
0.170538328
0.0977925383
0.00298941263
0.143565987
0.136029654
0.00599407141
0.00292651516
0.152329251
0.135162509
0.00574732883
0.00283949413
0.166550112
0.167611579
0.149881076
0.143902823
0.144747897
0.0903502144
0.0059601181
0.00627201432
0.0029775428
0.146641767
0.12565627
0.00565480818
0.00608208298
0.00265331886
0.152653295
0.139670581
0.00575479203
0.00308200832
0.165149872
0.107103352
0.00320346809
0.142383041
0.136429202
0.00604488901
0.00314334937
0.15144262
0.13810867
0.00592644759
0.00317491392
0.155244376
0.140263801
0.00588844368
0.00329718789
0.156543936
0.14166905
0.00589597113
0.00349563127
0.156481782
0.141848444
0.00593139661
0.0037850929
0.156457233
0.13830543
0.00591228045
0.00442254229
0.163552636
0.16512594
0.106167806
0.00572392998
0.00484096299
0.155272052
0.137963943
0.00593284869
0.00474445502
0.15420631
0.144324889
0.00600726598
0.00487678639
0.154193861
0.143645522
0.00591996993
0.00514062463
0.165580933
0.16746125
0.145632732
0.153274082
0.108895418
0.0058559742
0.00646623882
0.00551893435
0.148798934
0.164971207
0.11288034
0.00558179722
0.00619542885
0.166419534
0.0736330604
0.00547852034
0.147564641
0.154283651
0.00598407669
0.00559995108
0.156735711
0.157328725
0.00583238778
0.00559619448
0.161278294
0.160286571
0.00574922287
0.00558014867
0.163239336
0.162064705
0.00571733768
0.00558040818
0.164497272
0.163366878
0.00570030822
0.0055742881
0.165859599
0.164902715
0.00569781555
0.00558649306
0.166348717
0.165126645
0.00571087183
0.005663835
0.164972089
0.161976613
0.00572288424
0.00582585359
0.163965775
0.152380339
0.00571320805
0.00622473895
0.168673358
0.124833761
0.00577733771
0.141788259
0.154105796
0.00608717691
0.00591593928
0.15233104
0.15422392
0.00594219436
0.00575078024
0.156118553
0.155812133
0.00588360247
0.00562785708
0.158295961
0.157140587
0.00584652398
0.00550612148
0.159764937
0.158041479
0.0058160899
0.00538790717
0.160390661
0.157555161
0.00580784613
0.00533080283
0.161182126
0.151237865
0.00573476089
0.00544323755
0.167580925
0.131361383
0.00543205753
0.145611948
0.153485092
0.00604013627
0.00495960006
0.154255701
0.150972678
0.0058964916
0.00482939767
0.158348354
0.145883469
0.00580435472
0.00487786826
0.166449991
0.125390904
0.00479180975
0.145401367
0.146860217
0.00608291707
0.00444055226
0.153314067
0.1410833
0.00588673788
0.00447491523
0.164986531
0.120153331
0.00423271549
0.144620587
0.143312468
0.0060923044
0.0041147402
0.153629987
0.1378308
0.00587784091
0.00423089232
0.163589675
0.115460059
0.00418221644
0.145039724
0.11537075
0.00428427477
0.136919869
0.132656026
0.0062627336
0.00418209834
0.147310711
0.137233106
0.00615004623
0.00413621443
0.150869645
0.13846955
0.00616434634
0.00429516984
0.148678441
0.133764714
0.00619919038
0.00471777129
0.149976535
0.151443257
0.130256167
0.13909563
0.0915800273
0.00615363462
0.00504324061
0.15148851
0.152214768
0.13572388
0.116702274
0.00660932173
0.00469832905
0.109985511
0.00502184893
0.00511901821
0.163659072
0.13950081
0.00572233855
0.00480134959
0.159163555
0.145264697
0.00582957001
0.00478126628
0.158642471
0.142905481
0.00569002376
0.00506255692
0.168864799
0.117716154
0.00508809508
0.153831811
0.155927822
0.136348631
0.115890117
0.00627895039
0.00552280016
0.140573708
0.13462717
0.00622065843
0.00522406613
0.14825262
0.142349481
0.00610489721
0.00504766383
0.154800956
0.148211889
0.00599442283
0.00496187231
0.158924239
0.150658369
0.00588928874
0.00500693247
0.160985364
0.146787413
0.00566659328
0.00533575934
0.171712524
0.116560222
0.00525940006
0.144903316
0.146573686
0.0060849858
0.00503028467
0.151745143
0.148318547
0.00601656654
0.00493009747
0.15473521
0.148572709
0.00596094444
0.00487785755
0.157061794
0.148639438
0.00588592562
0.00491175761
0.159393822
0.144685085
0.00568675525
0.00517405591
0.17172544
0.118937056
0.00496116239
0.145614662
0.147080609
0.00610245795
0.00492972569
0.153295894
0.147596949
0.00606962942
0.00497558669
0.152891899
0.142094315
0.00605036624
0.0051123076
0.155458732
0.156204853
0.140216149
0.136989654
0.13519443
0.108524642
0.00643820299
0.00556797999
0.140324766
0.13226133
0.0063774918
0.00544918236
0.143041857
0.131395328
0.00626412785
0.00545736687
0.15254665
0.153609802
0.0994009794
0.00608520634
0.00574320133
0.146912436
0.146999363
0.102476669
0.00630438093
0.00561848542
0.143032789
0.143692522
0.131270841
0.133266978
0.126179145
0.0805745306
0.00657392163
0.00576688575
0.140379192
0.141105115
0.0514459898
0.00660771849
0.00554984344
0.0974927519
0.155657402
0.1294011
0.0058872043
0.00542160649
0.163499353
0.154809668
0.00585615029
0.00514033345
0.165216452
0.154106234
0.0058561093
0.00559681521
0.161483537
0.119961874
0.00554784784
0.00631003866
0.0052994473
0.157695799
0.15818089
0.147664547
0.12506032
0.0061029253
0.00603837382
0.154607486
0.156264404
0.0972943274
0.00587562857
0.00636784219
0.165661287
0.100516202
0.00571421493
0.146618101
0.151059522
0.00614196931
0.00572086861
0.155072288
0.155679623
0.00604108021
0.0057187443
0.159866438
0.158060039
0.0060800089
0.00583542288
0.157427713
0.154071162
0.006311357
0.00606260316
0.14482155
0.147656533
0.118884104
0.136394594
0.0834102362
0.00643554119
0.00680665739
0.0063881102
0.124047552
0.143801406
0.129997153
0.0803320588
0.00692553396
0.00621974318
0.129381245
0.155369873
0.136293866
0.154693497
0.133186887
0.00597803737
0.00651662059
0.151992211
0.142798473
0.00598923964
0.00621637701
0.158798148
0.134625262
0.00569336949
0.00600750387
0.00546653968
0.164369736
0.165962389
0.161357098
0.141830609
0.00570853168
0.00612271339
0.00531069515
0.152784027
0.151070844
0.00628536575
0.00547497639
0.142677794
0.156371334
0.119036177
0.00604822941
0.00535792954
0.151718872
0.134730522
0.00630508603
0.00508731968
0.142782191
0.143351078
0.117441192
0.143089199
0.119334691
0.00610582691
0.00443031615
0.156904928
0.136712216
0.00580355937
0.00399198714
0.168658671
0.120192881
0.00355165815
0.147105574
0.135912219
0.00571846211
0.00595249704
0.00300309684
0.16121849
0.139096371
0.00579961526
0.0060717339
0.00434011181
0.15694951
0.156698554
0.142026076
0.14248451
0.136480461
0.0808929905
0.00638299129
0.00566488251
0.00625187552
0.0038188888
0.146167633
0.146946188
0.141490885
0.112331003
0.00606703369
0.0033825825
0.155018926
0.136173246
0.0059543024
0.00331491364
0.155432158
0.139763554
0.00609635738
0.0038440872
0.147114179
0.128555683
0.0829472012
0.124001405
0.114491954
0.0982695908
0.106907165
0.080993271
0.124047684
0.106547687
0.00638530159
0.00574250579
0.00601793642
0.00480893331
0.162136183
0.162588554
0.152038833
0.152010358
0.153883085
0.121160151
0.00612657311
0.00644933783
0.00544634962
0.00620970907
0.00490405942
0.148713074
0.165780624
0.12613971
0.00570750656
0.00555475685
0.149878945
0.144982797
0.0059993305
0.0052789715
0.15359567
0.150141385
0.00598135537
0.00527254621
0.157939418
0.154305653
0.00592139849
0.00535648562
0.16095652
0.157074779
0.00579440179
0.00547448827
0.167054864
0.160870372
0.005542121
0.00553337307
0.175104572
0.171000528
0.00509543413
0.00565177527
0.169758591
0.1671853
0.00494395954
0.00602289262
0.11830732
0.144347967
0.120656567
0.122407417
0.134941092
0.0899687736
0.00620345719
0.00662824948
0.00609368634
0.0065832531
0.0060198719
0.133764432
0.162064792
0.153373696
0.155433311
0.161851107
0.15104926
0.00556232112
0.00609906473
0.00624116793
0.00618612466
0.11796054
0.157102361
0.142294983
0.163080748
0.151672761
0.00520218194
0.00620506952
0.00600932291
0.0657378385
0.152340398
0.105609264
0.0366175626
0.124791286
0.145891335
0.0051245446
0.00614497326
0.139016529
0.150996699
0.00478757689
0.00599447487
0.146542335
0.157958805
0.00465795019
0.0056244069
0.152281443
0.158595966
0.00478365131
0.00516400244
0.156596002
0.132476117
0.00527966484
0.106085935
0.161997648
0.0048247881
0.00567845974
0.147807031
0.170440604
0.00383477179
0.00555191072
0.152375849
0.163092251
0.00468032093
0.00526395379
0.155676634
0.122235633
0.00546672474
0.110751685
0.157455175
0.00542191689
0.00598651898
0.142809338
0.15309176
0.00561080606
0.00621434157
0.109305398
0.134651346
0.0953015891
0.128915892
0.13844916
0.00564039935
0.00639665615
0.13930296
0.146010156
0.00578792562
0.00633474991
0.0982401377
0.13318997
0.11203336
0.141259648
0.13967431
0.0057397053
0.0063288855
0.144205343
0.152914737
0.00585595492
0.00626689624
0.104682576
0.137763989
0.121740485
0.138731306
0.143372939
0.0521076404
0.00606116491
0.00610243093
0.0060300047
0.0898237764
0.158872247
0.157099268
0.157003668
0.172059535
0.155076447
0.00499870075
0.00595665595
0.00543582296
0.00600696529
0.0589363795
0.151170375
0.132898143
0.00566232369
0.00546099302
0.150226848
0.150860573
0.00535589607
0.00607734886
0.0614522574
0.146693162
0.14815983
0.161310478
0.148221288
0.00545793233
0.00613338715
0.148352225
0.144547097
0.00434143329
0.00607649613
0.00445635099
0.149926098
0.165837042
0.00524514523
0.0055316703
0.155883174
0.161811468
0.00523349272
0.00558442581
0.158868413
0.16255552
0.00524557529
0.00550905831
0.160739447
0.163128106
0.00528877545
0.00543636567
0.16177415
0.163193181
0.00535733288
0.00540628309
0.161118359
0.161489618
0.00547628339
0.00545104324
0.157651761
0.156797194
0.00575115311
0.00578135815
0.155915575
0.128353676
0.0369397304
0.136350033
0.120034376
0.00569255194
0.116813551
0.144349221
0.00560614114
0.00411807885
0.172643372
0.17559952
0.00437716478
0.00547610381
0.00533187967
0.00573567892
0.0911275895
0.15299445
0.160066199
0.159276259
0.016947493
0.0056341442
0.0836494086
0.159898677
0.154727284
0.00534271119
0.00572513404
0.0994064384
0.168112354
0.154185053
0.00440977223
0.00610086954
0.125919035
0.14687218
0.00347944383
0.00619256038
0.112713901
0.139208289
0.0736378477
0.0723996216
0.124920014
0.0803388823
0.0868097684
0.124003056
0.0488695657
0.00622586443
0.00577414519
0.121564022
0.168973452
0.172978343
0.15963434
0.00282611434
0.00582227934
0.00419581406
0.00596345875
0.00584474717
0.128984562
0.16559126
0.160115572
0.150042352
0.00448189459
0.00606220198
0.115740477
0.130053532
0.0825622425
0.100174394
0.141325151
0.153826425
0.13801802
0.00401845148
0.00582013582
0.0936655206
0.0623722836
0.00571108534
0.117138156
0.143490856
0.0821202006
0.102758026
0.166397702
0.140868929
0.00413984683
0.00554991296
0.00486716938
0.00466068187
0.005588649
0.00454364206
0.139137427
0.180663921
0.160983317
0.14014356
0.0318186886
0.00523753672
0.00577223018
0.00438544805
0.12119337
0.175118777
0.155449138
0.139609853
0.0574501893
0.00517691299
0.0863893125
0.148309082
0.0767676084
0.00542033929
0.0652635294
0.0822829476
0.00407101504
0.09114966
0.166250526
0.0745969893
0.0042564535
0.0825683059
0.157456881
0.0845559197
0.00443223143
0.0762521977
0.157645581
0.092629522
0.00455380376
0.067929272
0.161155135
0.101098784
0.00462245929
0.0581495777
0.171860541
0.102985423
0.0352514301
0.149353865
0.116684218
0.00577400085
0.0057173664
0.0230028598
0.15646746
0.133290549
0.00567569292
0.00861354751
0.157234306
0.13523995
0.00574219039
0.00297574268
0.162181268
0.126748222
0.00390325586
0.145958734
0.143624913
0.00605689964
0.00418869006
0.151681638
0.142652259
0.00604689674
0.00509218091
0.156747224
0.160162671
0.142836086
0.155952952
0.120970542
0.00629375315
0.00630823457
0.00589367977
0.00507375176
0.156352695
0.158394932
0.16301457
0.137988174
0.00554546526
0.0060371501
0.00530397565
0.0059122839
0.00437776466
0.162980404
0.167013699
0.164549601
0.134462578
0.00551914914
0.00604692332
0.00338032201
0.147786023
0.137663073
0.00593337141
0.0042190608
0.163284057
0.163859915
0.128005811
0.00559386513
0.00291811959
0.154541518
0.135429783
0.0056864231
0.00259415953
0.158347092
0.139172095
0.00561193947
0.00253144112
0.163245841
0.141027235
0.00547029847
0.00247328557
0.172855456
0.129036826
0.00343202612
0.168558019
0.17008867
0.155156206
0.127971283
0.00572288893
0.00339343317
0.154070398
0.127706354
0.00562066635
0.00462686825
0.0055153617
0.00273073709
0.164787681
0.14356362
0.00530600335
0.00582066075
0.00320433085
0.159090609
0.155338183
0.0057297403
0.00365068656
0.160531943
0.151268571
0.00573826273
0.00399518447
0.160027634
0.150620968
0.00575861058
0.00429652332
0.15992438
0.151564566
0.00577254444
0.00457069628
0.160304662
0.153069307
0.00577837585
0.00482385976
0.160863673
0.154380726
0.00573545447
0.00508364085
0.163117378
0.153803834
0.00545984735
0.00553507339
0.178129524
0.135703173
0.00512821367
0.148523538
0.16023372
0.00575523448
0.00546195393
0.158797311
0.15715332
0.00557814655
0.00580864603
0.169832293
0.140824623
0.00543399986
0.153740516
0.160725042
0.150275643
0.126737209
0.00574624769
0.00588865954
0.00590078762
0.00565581866
0.150396394
0.158270349
0.00540523014
0.00580678539
0.153817427
0.154728941
0.00530709033
0.00602731853
0.163121761
0.142764203
0.00549946362
0.145592234
0.159756057
0.150037518
0.139426766
0.00565025055
0.00635752235
0.147469737
0.144112999
0.00546476882
0.00621430519
0.00555067294
0.143392993
0.166880551
0.00575327919
0.00536567324
0.139084595
0.00477188398
0.00625461249
0.172950205
0.162134825
0.00527199115
0.00589111173
0.161531245
0.163144648
0.00533700213
0.00577228465
0.160762175
0.162956656
0.0054257092
0.00566801396
0.163973236
0.160212941
0.00533250997
0.00564482324
0.174741068
0.145698672
0.00526449503
0.147704667
0.160965496
0.00561803634
0.00535978814
0.00543929367
0.0047665101
0.170800535
0.171673978
0.00543170836
0.0043723
0.170312115
0.161705314
0.00536538051
0.00436089598
0.176047609
0.144790851
0.00474960378
0.159618303
0.167453691
0.15944606
0.131436716
0.00558294279
0.00606930738
0.00399051975
0.152983431
0.140673508
0.00520170708
0.00580779947
0.00365465544
0.158819537
0.153767025
0.00550811991
0.0038841827
0.174316732
0.131808854
0.00426768727
0.158519713
0.179249734
0.116594511
0.00530264805
0.00516771091
0.00530561823
0.00317077134
0.173599752
0.162588976
0.00531831197
0.00331356944
0.177824001
0.178338208
0.16665254
0.123633275