/*--------------------------------*- C++ -*----------------------------------*\
| =========                 |                                                 |
| \\      /  F ield         | OpenFOAM: The Open Source CFD Toolbox           |
|  \\    /   O peration     | Version:  2306                                  |
|   \\  /    A nd           | Website:  www.openfoam.com                      |
|    \\/     M anipulation  |                                                 |
\*---------------------------------------------------------------------------*/
FoamFile
{
    version     2.0;
    format      ascii;
    arch        "LSB;label=32;scalar=64";
    class       volScalarField;
    location    "8e-05";
    object      T;
}
// * * * * * * * * * * * * * * * * * * * * * * * * * * * * * * * * * * * * * //

dimensions      [0 0 0 1 0 0 0];

internalField   nonuniform List<scalar> 
3816
(
330.177893
329.691235
329.573483
329.57337
329.573353
329.573353
329.573353
329.573353
329.573353
329.573353
329.573353
329.573353
329.573353
329.573353
329.573353
329.573353
329.573353
329.573353
329.573353
329.573353
329.573353
329.573353
329.573353
329.573353
329.573353
329.573353
329.573353
329.573353
329.573353
329.573353
329.573353
329.573353
329.573353
329.573353
329.573353
329.573353
329.573353
329.573353
329.573353
329.573353
329.573353
329.573353
329.573353
329.573353
329.573353
329.573353
329.573353
329.573353
329.573353
329.573353
329.573353
329.573353
329.573353
329.573353
329.573353
329.573353
329.573353
329.573353
329.573353
329.573353
329.573353
329.573353
329.573353
329.573353
329.573353
329.573353
329.573353
329.573353
329.573353
329.573353
329.573353
329.573353
329.573353
329.573353
329.573353
329.573353
329.573353
329.573353
329.573353
329.573353
329.573353
329.573353
329.573353
329.573354
329.573356
329.573363
329.573382
329.573428
329.573535
329.573764
329.57422
329.575069
329.576547
329.578952
329.582623
329.587922
329.595695
329.604557
329.612521
329.631838
329.663064
329.642369
329.594836
329.747621
329.891775
329.33948
329.007597
328.20492
328.756511
339.276946
339.607385
330.784951
324.353639
328.643371
338.758998
340.307095
337.840616
326.488573
323.599332
330.09977
339.757978
336.467122
323.549974
323.462068
330.770104
339.518948
334.250581
323.700979
329.284563
338.626462
339.888518
338.728284
322.217594
319.337002
325.163729
323.076356
328.479007
339.596637
339.925795
339.893894
339.970978
330.628986
324.366308
324.677386
327.066065
327.047662
329.666494
339.648149
340.600394
326.759622
325.64823
339.932282
340.529677
322.585331
329.244552
340.183338
327.680844
325.259328
340.126062
339.897816
324.163832
323.736765
327.435634
329.156584
339.938593
339.608634
327.851077
328.608091
340.090558
339.265531
325.904139
327.710567
340.164969
339.368363
322.676348
322.489631
329.636924
339.675278
338.776565
325.555638
328.759636
339.802978
338.484448
325.130539
328.3758
339.889013
338.244594
324.170704
328.376334
339.82792
337.991056
322.111685
329.781757
338.118724
327.35289
329.580412
339.908591
337.59941
325.291205
329.759315
339.906838
336.777293
324.206132
329.667794
339.868197
336.026811
323.56602
329.630138
339.824783
335.428156
323.154015
329.625726
339.791517
335.169975
322.947982
329.51648
339.763023
335.372998
322.779643
329.289905
339.552415
336.53994
320.436906
329.483668
338.936768
323.054115
322.87189
329.51843
329.91951
340.075853
338.96594
329.246727
338.856727
339.78585
321.334769
321.300808
328.526169
329.763527
339.888411
340.120367
327.284439
328.969376
340.040836
340.097923
325.854572
327.229633
340.057632
340.129876
324.84052
326.052806
339.965602
340.104344
324.26684
325.182956
339.850433
340.109044
323.933226
324.50751
339.764937
340.113948
323.777167
323.949271
339.655779
340.201816
323.50822
323.614493
339.655598
340.539946
321.190462
329.180464
340.133903
328.501101
324.737707
339.678193
340.085931
325.753441
324.657028
339.716041
340.086312
324.724721
324.047912
339.728753
340.046136
324.142925
323.553047
339.710493
340.033631
323.766627
323.129293
339.659859
340.103412
323.209163
323.068676
339.691297
340.248933
321.071941
327.778999
340.201762
327.945613
322.851193
327.122028
329.20935
339.853437
340.283894
328.329887
326.703203
340.098216
340.161212
326.007083
325.387721
340.051423
339.85494
324.549369
325.164607
340.079547
339.544948
322.257859
329.024867
339.877977
326.774607
323.903416
328.055667
329.135857
339.972771
339.000254
327.983503
329.254778
340.112137
338.633277
326.043429
328.760844
340.10569
338.292758
324.861669
328.425592
340.058315
338.087872
324.059567
328.193201
340.007552
337.770085
323.387471
328.613563
339.852309
337.296839
322.01056
329.930259
338.10979
327.21285
329.707821
339.921525
337.055362
325.010563
329.914004
339.737261
335.786927
322.927514
330.473377
337.527094
327.495634
330.111229
339.882632
336.208987
325.329287
329.857129
339.902801
335.411879
324.312509
329.696109
339.889319
334.990559
323.697851
329.594783
339.875057
334.829368
323.353314
329.554616
339.828143
334.881662
323.028022
329.545123
339.562146
334.817642
320.337825
329.476001
339.002393
322.996104
322.846986
329.714339
329.98204
339.77474
339.294096
327.694345
330.003743
339.730698
336.220409
324.78032
329.213155
339.716664
330.325602
321.806044
329.093432
340.342503
339.978423
329.569917
324.804007
329.130574
339.801945
335.409112
324.972739
330.120443
339.923187
338.703563
324.549761
327.973607
340.055718
339.471847
324.012065
326.772887
340.106271
339.667871
323.62742
326.035673
340.11411
339.770157
323.35196
325.497453
340.10065
339.804732
323.143813
325.06786
340.065599
339.831469
322.938899
324.717326
339.971678
339.93313
322.492419
324.876071
339.846281
340.143998
319.93038
329.334996
340.061463
324.242974
323.160237
328.801352
329.258193
339.785787
340.190119
327.156663
327.352338
339.947213
340.105256
324.976646
326.064865
340.02306
340.034823
321.517247
329.014107
340.013611
325.314868
323.655146
328.545182
329.184865
339.905598
339.77177
327.10135
327.817755
340.115345
339.684762
323.909095
323.975728
328.487128
329.379682
339.982889
339.386867
327.476355
328.632104
340.067697
339.129767
325.180118
327.504718
340.032559
339.069829
322.085109
329.360528
339.433466
324.221745
324.124558
329.39415
329.852898
339.915788
338.720554
327.81548
329.742042
340.073449
338.565364
325.982452
329.326428
340.095811
338.411832
324.844974
328.706408
340.068581
338.314171
324.115503
328.267333
340.022667
338.272113
323.60587
327.956019
339.966193
338.132735
323.215168
327.749095
339.898988
337.902374
322.829065
327.583772
339.808115
337.891516
322.27697
327.700943
339.540323
338.655974
319.274367
329.604788
339.058266
322.612223
322.520703
329.693866
330.026374
339.785949
339.118059
327.282354
330.310256
339.947855
339.016597
325.524312
328.832406
340.002546
339.034134
324.360772
328.177781
339.965902
338.530571
323.590694
328.546013
339.906128
336.29219
323.086713
329.420694
339.850849
334.749218
322.635515
329.451234
339.770304
334.108115
321.97455
329.30021
339.516803
333.661091
318.578733
329.998457
339.840293
324.847957
329.764578
339.839483
328.555984
328.175346
339.881042
339.748262
325.681258
327.163818
339.923341
339.593275
324.261087
326.312683
339.831657
339.539358
322.99056
325.411287
339.630262
339.793184
320.010347
330.66611
339.785739
326.273465
326.184681
339.735191
339.426284
324.869231
326.258776
339.898175
339.334873
323.988336
325.9919
339.938055
339.234142
323.469493
325.780278
339.945322
339.135412
323.134567
325.626904
339.944245
339.071685
322.914439
325.512575
339.918824
339.070739
322.836506
325.614677
339.812286
339.15175
322.634157
326.30563
339.688498
339.276593
319.828041
329.405568
339.177424
325.395296
325.449084
339.752004
339.084691
323.061829
324.904088
339.831739
339.065624
322.457287
324.748694
339.847405
339.184082
322.754454
325.180321
339.835769
339.357442
323.439815
325.710376
339.797128
339.611604
323.223266
325.967333
339.841571
339.839388
320.699458
329.486169
339.995498
326.732154
326.222122
339.7959
340.055687
322.966429
329.260662
339.928729
325.587684
324.084916
329.433535
329.88804
339.818854
340.264994
326.55895
326.083397
339.982791
340.106124
324.903819
325.129171
340.04013
340.024137
324.079061
324.542432
340.027234
339.961585
323.624529
324.179896
340.00329
339.904985
323.328009
324.006632
339.983248
339.847485
323.147777
323.996456
339.96795
339.777918
323.078169
324.105199
339.956231
339.688777
323.063355
324.29733
339.94644
339.576631
323.07458
324.55218
339.937715
339.441029
323.10661
324.85775
339.929684
339.285165
323.14778
325.195995
339.922405
339.11451
323.187542
325.551532
339.915696
338.934857
323.220984
325.908116
339.909041
338.751504
323.235656
326.248944
339.90163
338.569385
323.22381
326.561733
339.892633
338.39387
323.180309
326.833721
339.881703
338.231997
323.10952
327.060159
339.869765
338.094364
323.014784
327.242621
339.858642
337.895514
322.908028
327.402022
339.847773
337.670337
322.809968
327.549697
339.834184
337.463391
322.731609
327.681317
339.813344
337.316795
322.664782
327.778461
339.780912
337.264469
322.523595
327.856572
339.72568
337.319303
322.082948
328.383041
339.520538
337.851156
319.295665
329.563274
338.678302
322.774952
322.65916
329.198055
329.959271
339.643148
338.916522
325.463664
325.513791
332.154966
339.645122
337.472691
329.333173
338.490883
339.081881
318.17563
330.539609
337.891164
326.481285
328.581972
339.533316
338.947714
321.713587
329.721739
338.756161
327.385544
328.496362
339.87674
338.682251
324.230858
328.366164
339.851192
337.607925
323.373442
328.647368
339.776009
336.330506
322.791526
328.942313
339.722224
335.010675
322.129156
328.986044
339.707681
334.316902
321.910114
328.059001
339.758527
339.088753
321.736134
321.56857
329.582564
330.019534
339.911799
339.039814
327.711993
329.498418
340.174116
338.641191
329.035872
338.90179
339.431402
319.848773
328.128419
339.517516
339.102913
322.676582
327.415333
339.813024
338.902156
323.286813
327.138203
339.877875
338.788562
323.297543
326.914648
339.879887
338.7311
322.983436
326.684739
339.830722
338.766629
322.29226
326.909136
339.673496
338.941456
319.699836
329.505877
338.975287
323.210405
323.138609
329.585857
330.05916
339.789001
339.023684
327.566985
329.957516
340.007688
338.889279
325.657505
328.786256
340.054197
338.851983
324.49522
327.961583
339.980724
338.930165
323.64779
327.705747
339.659695
339.169143
320.180363
329.413906
338.935904
325.962271
326.083563
339.875474
339.115917
321.829858
321.673709
329.466548
329.92909
339.874566
339.381963
327.4351
329.327271
340.035241
339.334265
325.402008
327.75885
340.058875
339.349952
324.0439
326.529587
339.961193
339.421893
322.797471
325.716032
339.726137
339.674426
319.91329
330.355839
339.697705
325.909669
325.909251
339.780047
339.437353
324.025013
325.606247
339.836323
339.52543
322.53676
325.430956
339.675162
339.812426
319.123836
329.419183
339.792754
322.939938
322.433064
329.080301
329.52022
339.657494
340.046821
325.913552
327.083774
339.78796
340.135152
322.039822
330.097002
339.859885
323.457155
322.92108
329.438443
330.25108
339.807699
340.19429
327.348348
326.862936
340.018782
340.119792
325.356066
325.785086
340.075105
340.168479
323.996964
324.682075
340.047378
340.300837
322.542148
323.924031
340.093642
340.536878
320.131305
329.702525
340.588322
326.266783
329.147237
340.344724
327.749109
326.259559
339.938723
340.632416
324.885554
325.320879
340.060607
340.642113
324.558957
329.009902
340.228639
329.149191
324.04716
340.264722
340.122801
323.879028
323.995971
339.943239
340.1441
323.767344
323.57421
339.973155
340.116036
323.501105
323.32737
339.998394
340.078475
323.249335
323.133004
339.997853
340.042781
323.027053
322.858685
339.975222
340.056725
322.999133
323.028946
339.969408
340.027558
323.037798
326.969658
339.923965
329.442769
322.066054
336.386015
339.551631
324.137886
322.743766
340.111678
339.549059
325.465507
326.713203
328.957308
325.249601
328.149955
339.822904
340.367478
339.510046
328.804851
324.04572
328.803075
339.622793
339.971009
324.95426
325.374154
339.537684
339.901423
320.537195
328.928274
339.668808
328.463392
322.507842
329.189961
329.737943
339.984384
339.480041
327.875159
328.083199
340.146878
339.283376
325.557847
327.031188
340.175588
339.313705
324.602907
329.032386
339.940708
328.986183
325.573345
340.4004
339.15447
323.436666
325.228145
340.041527
339.015805
323.768286
325.53091
339.942849
339.016216
323.301547
325.273455
339.973812
339.064667
323.049195
325.13653
339.986229
339.121082
323.165624
325.236171
339.972907
339.173625
323.467409
325.449343
339.952212
339.232347
323.686807
325.505412
339.929041
339.30923
323.639019
325.353585
339.925518
339.426967
323.522191
325.024704
339.935808
339.541487
323.277651
324.589937
339.931363
339.65249
323.004116
324.157668
339.91214
339.773317
322.725686
323.782517
339.872472
339.899452
322.418124
323.555137
339.77191
340.067603
321.913796
323.93058
339.583867
340.485238
319.146298
329.391931
339.966817
327.353041
324.735848
339.784904
339.269919
324.76862
322.864063
328.677515
329.93822
339.923272
339.934193
329.064249
339.256961
340.629711
321.676985
325.271224
339.283715
339.719602
323.146573
325.061901
339.505536
339.466115
323.026793
324.799658
339.470961
339.568352
322.680824
324.654318
339.22114
340.157956
319.839013
329.382896
339.722332
328.071113
324.516156
338.952948
340.434848
320.647746
329.651183
339.935533
323.976494
321.192571
332.843329
339.159038
338.765666
339.307012
339.399375
323.49188
322.578454
326.86232
327.53919
328.172515
329.616264
340.203607
339.65934
329.11131
339.436582
339.671135
322.424423
322.475626
328.476891
329.703718
340.056745
338.964567
329.18233
339.170906
339.148806
321.551795
328.241151
339.743549
338.879517
322.639294
327.943102
339.833783
338.627787
321.497004
329.416303
338.515911
326.517018
328.073851
339.921846
338.370979
324.900264
328.284309
339.864714
338.174198
322.221521
322.126125
325.378646
326.544729
326.334479
329.639435
339.718454
339.807496
338.441363
325.974268
329.438603
339.785386
339.887731
338.47447
324.845432
327.355651
339.838187
338.474574
322.547792
329.334335
338.591473
326.739494
328.00989
339.985642
338.598182
325.031355
327.761399
340.024868
338.61687
324.314152
327.382611
340.039244
338.720693
324.065908
327.128622
340.060851
338.861508
324.067557
327.091999
340.118908
339.061657
324.051671
327.71999
340.173697
339.287912
322.718247
322.590734
329.15142
339.741673
339.873802
324.366216
327.634775
340.01008
339.80864
324.510525
326.506241
340.098432
339.797881
324.489772
326.663826
340.151453
339.793277
322.328378
322.119412
326.025371
324.83962
329.025393
339.650193
340.124072
339.943431
325.459426
322.592605
328.982975
339.627677
340.642882
322.268822
330.177711
340.063173
325.749491
324.603652
340.016479
340.061091
324.01912
324.013813
340.025122
340.046646
323.172782
323.446529
339.973328
340.008895
322.815046
323.106471
339.931134
339.972986
322.586638
322.855774
339.905699
339.947842
322.334055
322.554102
339.889615
339.955109
322.248645
322.496095
339.85815
339.999839
322.525298
323.07345
339.82461
340.044135
322.725127
324.853585
339.906245
340.000293
321.793017
329.393489
340.207605
326.900086
324.51056
339.854903
340.053133
324.926164
324.506515
339.905221
339.909363
324.193991
324.222789
339.947757
339.827789
323.775186
323.974383
339.967071
339.774609
323.496088
323.796797
339.96613
339.737755
323.381161
323.875568
339.958754
339.695243
323.230686
325.052368
340.016006
339.53308
321.984582
328.721698
340.118226
326.183478
324.587164
339.965868
339.580473
324.533114
325.087179
339.984657
339.477389
323.752376
326.047046
340.051174
339.315541
322.202599
329.245053
339.705205
326.175689
325.821193
340.028729
339.380071
324.67366
326.960276
340.062165
339.215051
322.505267
329.186422
339.388271
326.281837
326.548971
340.077038
339.291519
324.603085
327.628144
340.028653
339.205074
322.802573
329.281962
339.38063
326.336938
329.184657
339.33622
327.678347
328.644745
340.182964
339.371741
325.727372
327.8247
340.260303
339.404619
325.045131
327.614052
340.314838
339.475723
325.439641
328.491444
340.313549
339.607684
325.222768
325.188979
328.83761
327.400397
329.431303
339.957601
340.040676
325.021451
325.001983
327.88661
329.509526
340.280111
339.623771
328.960931
339.459336
340.230528
322.843964
327.309889
339.86343
339.99905
323.616803
326.307759
339.966475
339.922058
323.723309
326.748839
339.85759
340.025614
321.793946
329.403886
340.055038
324.689635
324.278616
327.946593
329.321528
339.942693
340.168298
327.053192
328.246367
340.139828
339.987226
325.57712
326.854217
340.213877
339.941175
324.345466
325.750652
340.20996
339.942671
323.588623
325.271465
340.104474
339.976276
323.252234
325.947056
339.915119
340.092119
321.225975
329.25079
340.130003
326.326491
325.993259
339.933138
339.861232
324.985064
325.723431
340.041039
339.725334
324.410371
325.687508
340.043865
339.682167
323.981901
325.65773
339.983485
339.727826
323.571262
326.338302
339.905375
339.843194
321.226
329.215513
339.942839
326.140288
325.860213
340.053695
339.848911
324.653339
325.780488
340.157455
339.790236
324.717689
326.82877
340.158392
339.702563
324.241144
324.230438
327.059474
327.752028
327.968053
329.173856
340.211974
340.026842
326.991136
328.500485
340.317789
340.000464
326.47148
328.688479
340.37384
339.864629
324.694183
324.666048
329.056189
340.010521
340.138012
325.83894
325.809584
329.141749
340.231324
339.995119
326.469626
326.479354
328.58623
328.36448
328.999408
329.843931
340.112666
340.011515
327.113439
326.820634
331.902605
340.377437
339.723005
328.964435
324.284117
328.741215
340.171309
340.33262
322.715506
324.293207
340.221789
340.237524
322.394966
324.441056
340.140402
340.247285
323.13631
329.028387
340.127836
340.083671
340.155936
323.853506
323.754868
325.74761
329.125105
340.174998
340.182961
324.343798
324.1483
329.046151
339.970519
340.600871
322.361818
329.069004
340.185499
325.862416
325.112836
340.174194
340.181491
324.291984
324.24805
340.265056
340.234072
323.355067
323.770201
340.423639
340.365602
323.753995
324.476306
340.587403
340.391899
325.983641
325.683492
328.626758
327.74372
329.44377
340.154436
340.658317
340.361086
328.503302
326.370848
328.503138
329.75032
340.73046
340.343706
328.550527
324.302657
327.467682
324.464025
328.031638
340.012523
340.652071
324.967381
326.44679
339.977301
340.177678
323.682547
328.136381
340.118799
339.746095
340.022164
322.669224
322.294357
323.2482
326.776133
339.907195
339.958234
339.738284
324.765023
325.087412
340.200931
339.778931
326.524134
324.161853
328.80781
340.107641
339.851064
324.90134
327.899288
340.417672
339.672372
326.410061
326.502393
328.650688
326.536675
328.747169
340.18394
339.464852
323.965931
327.660902
340.063696
339.109722
321.836793
329.049811
338.969368
325.8089
327.890564
339.881581
339.989715
338.850606
323.205824
327.291666
339.913503
339.945791
339.370894
324.076921
324.127456
326.75513
326.690376
327.677959
329.903903
340.129222
339.413448
340.010595
338.940491
326.022306
326.042257
326.845679
329.399033
340.211938
339.127919
324.295237
328.173507
340.272902
339.070894
324.19945
327.463283
340.372513
339.564571
325.675862
329.366206
329.543381
329.20482
328.866806
329.123818
328.922407
329.661805
328.891472
328.972686
340.422446
339.943109
340.13792
339.861235
323.067081
323.015392
324.990028
324.917011
324.635043
329.017365
339.836342
340.163412
339.678201
339.93836
339.67781
325.586298
322.496551
329.300873
339.584607
340.262011
325.430073
326.341195
339.922555
339.962825
324.635912
325.427418
340.081022
339.902382
323.790579
324.626741
340.102429
339.947977
323.231043
324.070852
340.019709
340.029216
322.102364
323.323409
339.797226
339.925878
320.598104
321.350704
339.822443
340.04917
321.69294
322.034929
340.283246
340.220809
329.117564
326.241534
328.896177
328.870382
327.864057
329.235215
340.347948
340.467455
340.418752
340.458285
340.449252
328.023856
323.020218
324.570216
324.307143
323.046264
325.162224
340.058686
339.993733
340.160146
340.043982
328.940069
324.045963
326.633107
322.944201
324.968488
339.62386
339.974403
339.745763
330.718182
324.954143
329.163492
333.467205
329.23837
326.166192
339.70368
340.022413
327.398325
325.069999
339.670852
340.201479
326.003463
323.81134
339.596466
340.142683
324.908934
323.82325
339.575048
340.167569
324.065626
328.680198
340.012333
329.255619
323.064934
340.025146
340.001809
325.893828
321.460537
339.583732
339.802325
325.107972
322.973619
339.440814
340.072566
324.325999
329.539281
340.006748
329.153839
323.90099
340.550093
340.192611
326.501925
324.684688
340.657649
340.13004
328.856817
328.138469
329.108716
329.166675
327.220143
340.495476
340.457819
327.130534
325.945527
340.696146
340.128856
329.048369
328.434075
328.932917
326.950844
327.047657
340.555737
340.456783
326.201054
324.635319
340.819229
340.321156
328.870345
327.504378
328.964541
327.369849
326.394468
331.819184
340.326321
340.247869
340.255281
329.447113
323.608624
324.006741
324.018163
321.191322
324.42848
339.812884
339.755789
339.652589
339.804881
331.287576
325.144186
328.621536
339.948509
340.337942
325.293932
325.275146
339.949519
339.669416
331.048464
325.968939
325.670672
323.260632
325.596012
339.792593
340.277315
325.859131
326.327768
339.643773
339.623256
339.444305
325.427343
322.475947
340.100843
339.675676
324.336938
323.128472
340.054007
339.943053
323.780741
322.972086
340.020128
339.919882
323.4148
322.868931
340.037561
339.905784
323.196413
322.857737
340.068971
339.911453
323.29522
323.182551
340.13171
339.938699
323.906466
324.066119
340.256192
340.319775
324.246665
329.301087
333.448838
327.84512
329.406985
340.53406
329.337139
326.668605
339.862937
339.19446
321.080802
320.574297
339.837217
339.514173
339.809672
339.828769
329.609749
324.810551
323.546226
323.664566
336.108358
339.611509
329.840574
323.51412
324.514433
340.020863
339.680044
329.192877
322.007095
324.517542
339.719568
340.248732
329.871159
325.789007
339.48674
340.396366
329.309443
327.183831
330.143711
330.210337
329.080415
329.699785
329.637486
328.85529
332.147459
340.180205
340.205532
328.970054
321.768525
321.065408
323.644398
338.502053
339.796453
339.029103
340.066401
340.093398
329.005386
322.523487
323.498064
325.561219
339.573251
340.142024
329.105859
328.95731
329.72604
329.401149
326.891891
324.79937
327.647932
339.493103
340.19977
329.415061
330.92239
340.55725
328.80872
326.347995
329.672272
328.917074
322.322057
326.947779
339.156028
339.606612
339.338187
339.310812
339.901341
339.877419
327.201583
319.539307
323.297354
327.389155
334.008431
339.216155
339.99629
339.477737
328.737734
320.652004
324.233301
327.452614
331.368354
339.590802
329.329323
325.729522
330.020358
339.83531
330.696526
329.602206
339.238875
328.887886
322.415098
330.045849
338.905076
329.309747
324.092229
329.528189
339.0285
329.704858
324.01151
329.234394
339.151984
330.326331
323.312517
329.058107
339.208679
331.203838
321.261704
328.921775
333.705904
325.425346
329.016041
339.833893
339.789047
335.270249
324.140832
328.415121
339.821761
337.148717
323.972097
328.141435
339.974762
337.97499
323.045822
329.351436
338.910729
326.111388
326.444303
340.010329
338.8859
324.965207
326.676166
340.225659
339.352133
324.007815
323.501636
326.522885
324.282013
328.890528
340.194947
340.155489
339.868041
339.493858
324.213042
323.715372
322.923599
327.337097
339.929159
339.967995
339.692395
339.813244
339.142811
322.942814
322.159069
322.618513
328.053723
339.717401
339.782184
338.380312
325.795317
327.745018
339.901963
338.735194
322.871224
322.882087
329.337563
339.543724
338.253375
324.570552
328.319044
339.732542
338.080945
323.812551
327.685356
339.800761
338.069435
322.864461
327.378109
339.757226
338.298757
321.069295
329.35628
338.912894
321.922373
321.618283
324.495184
329.484901
339.732094
339.11527
324.635132
329.7674
339.798012
338.776422
339.704878
338.773392
322.611493
326.799195
339.428637
339.608043
339.270698
323.669083
324.627114
339.824035
339.203565
323.379183
325.433884
339.859361
339.313195
323.472624
325.543937
339.867804
339.46283
323.489326
325.334276
339.881758
339.613161
323.412068
325.012926
339.894334
339.749529
323.304263
324.723622
339.854879
339.912874
322.901818
324.753968
339.646687
340.218196
320.006545
328.056561
340.195852
325.668846
323.464218
339.739857
340.169135
323.693861
324.025313
339.801655
340.217373
321.578587
327.119357
340.206881
324.700393
323.330413
325.396942
329.506428
339.725187
340.051134
339.813042
340.263731
325.273196
323.78866
339.628135
340.059392
324.655716
324.451174
339.655996
340.013849
322.8461
326.765452
340.200695
326.222575
323.46579
325.468492
327.214128
339.572363
340.245112
325.890113
326.38738
339.82997
339.92804
339.908645
326.509755
322.185761
339.967828
339.707707
327.206114
339.592205
340.284519
321.054723
322.95755
339.491996
340.15572
323.276936
322.813725
339.59021
340.009573
323.421038
322.866465
339.686859
339.897947
322.792822
323.386288
339.759469
339.660789
320.665624
326.153103
339.842277
325.844619
323.303782
339.873177
339.729718
339.655838
339.50004
321.447632
321.243586
339.749461
339.052769
321.536932
323.196978
339.754437
338.856114
320.413409
326.392112
339.517994
323.657146
322.082278
323.680209
328.760014
339.663624
339.644244
338.873539
324.855858
327.157274
339.535637
339.544825
338.928436
323.785234
324.738289
339.507328
338.883503
320.797171
328.733898
339.124037
323.803305
319.826199
329.410723
339.448982
339.192511
339.458171
338.689502
320.916228
323.146493
339.461776
338.837246
320.082899
320.006036
322.297753
329.681319
339.531004
339.158912
339.438708
339.025632
320.196315
326.243829
339.325247
339.408066
339.368648
319.403679
319.331807
323.504697
329.507623
339.42681
339.830773
339.182278
339.745682
339.308137
322.571185
323.009934
339.6608
339.516237
321.147611
321.066344
324.308045
329.675838
339.608612
340.161665
321.202378
329.44873
340.08191
324.020314
323.441278
326.748803
329.345664
339.455973
339.916435
339.652038
339.813258
340.067926
321.577597
321.171455
325.370828
329.47639
339.706096
339.777541
340.087938
323.352121
321.731193
329.199486
339.668514
340.489197
324.969939
326.610039
339.910584
340.241783
324.935224
325.593291
340.025578
340.125752
324.410501
325.000511
340.059605
340.067345
323.916336
324.599763
340.060519
340.001146
323.560038
324.31892
340.041677
339.939906
323.295212
324.135911
340.00329
339.896813
323.107418
324.095159
339.912786
339.907658
322.741426
324.571652
339.812971
339.896749
320.409015
328.062466
340.13374
323.603771
322.71565
325.727299
328.788265
339.694939
340.107165
325.324723
326.630533
339.805538
339.964793
324.093617
326.711687
339.881237
339.85711
339.792139
339.837363
319.977698
319.926554
322.641774
327.62047
339.761794
339.827595
339.747907
339.882588
339.689752
319.990533
317.592391
326.041126
339.840842
339.861474
322.180102
326.141725
339.891798
339.793972
322.946477
321.883778
328.676284
339.955591
340.001042
339.867678
339.936268
320.467035
320.143328
325.17565
322.563478
329.187181
339.890475
340.063631
339.838784
340.010541
322.178713
321.606338
326.081641
323.384685
329.17645
339.912098
340.03177
339.919765
339.97341
322.657026
320.752847
325.836268
339.887878
340.087545
323.101131
324.921512
339.825181
340.203757
323.490228
325.2729
339.952368
340.081263
321.995069
327.724685
340.123417
326.442684
324.984677
340.316551
339.757384
340.349924
324.408586
323.026387
339.770097
340.162758
323.425436
323.200585
339.818119
340.03335
322.284703
323.827201
339.953872
339.828908
320.742051
325.17489
340.160943
324.691138
323.438755
324.19425
326.323419
339.9521
339.754279
340.012938
339.765696
340.027324
323.016843
322.857032
322.770131
325.780861
339.988631
339.703324
340.013839
339.669861
322.942475
320.258934
324.886282
339.768081
339.893631
321.909148
325.484238
339.863226
339.717787
321.942348
326.524387
339.998157
325.443751
324.581106
325.174129
327.527147
339.963652
339.813435
339.882929
339.427612
323.166113
324.793719
340.002768
339.73574
339.978302
339.363208
319.56925
317.470337
324.501697
339.801911
338.976476
321.098574
322.976324
322.312263
327.793872
339.818389
339.931825
338.988099
324.343615
327.381643
339.805915
339.870666
339.430514
321.595985
321.434622
327.937654
340.16752
338.717623
328.411532
339.157454
339.00299
323.911849
324.728974
325.505599
329.418023
339.919827
339.037505
326.32164
329.843843
340.004006
338.983475
324.397699
324.371816
329.246938
339.789326
339.27022
324.017826
323.990896
329.293202
339.844099
339.307358
339.87957
338.894774
320.236422
319.954675
329.264453
339.549698
339.657147
320.461849
329.269719
339.553576
323.681402
321.430839
329.530686
339.645529
339.429277
339.699723
339.466654
320.883049
320.596145
329.41692
339.777612
339.870583
323.389138
323.31123
326.822603
329.929239
340.256894
339.469319
328.966405
339.218685
340.328276
322.85765
327.452158
339.630874
340.148175
323.589104
326.982464
339.680525
340.325424
320.664696
329.331376
340.253376
326.444475
325.023735
339.85557
340.085194
322.477104
322.082429
325.176133
326.588224
326.30997
329.414081
339.532397
339.915858
339.724083
339.926804
339.863296
321.348313
317.615858
327.394875
339.65421
339.761768
339.960186
323.773164
323.844369
339.896447
339.499653
340.050517
322.538582
321.151966
322.766964
328.326259
339.543561
339.706984
339.637249
339.75427
322.323739
318.070418
325.096188
339.337183
340.080325
323.200717
323.088153
323.275788
328.614117
339.382095
339.681302
339.61832
339.754084
339.77688
321.771915
321.501487
340.090555
339.324133
339.986711
319.416698
322.571634
339.579087
322.402383
319.456026
325.298115
322.759807
329.309734
339.518552
339.919242
339.429988
339.967764
339.280049
321.628446
318.766283
326.865689
339.608129
339.450269
322.158436
327.110678
339.66172
339.702707
339.626243
339.241823
321.243149
321.125531
323.498307
328.064852
339.67302
339.159411
323.760262
327.865311
339.735352
339.071502
321.568318
329.249057
339.447079
324.477137