/*--------------------------------*- C++ -*----------------------------------*\
| =========                 |                                                 |
| \\      /  F ield         | OpenFOAM: The Open Source CFD Toolbox           |
|  \\    /   O peration     | Version:  2306                                  |
|   \\  /    A nd           | Website:  www.openfoam.com                      |
|    \\/     M anipulation  |                                                 |
\*---------------------------------------------------------------------------*/
FoamFile
{
    version     2.0;
    format      ascii;
    arch        "LSB;label=32;scalar=64";
    class       volScalarField;
    location    "0.00196";
    object      mu;
}
// * * * * * * * * * * * * * * * * * * * * * * * * * * * * * * * * * * * * * //

dimensions      [1 -1 -1 0 0 0 0];

internalField   nonuniform List<scalar> 
531
(
1.97954854e-05
1.95122948e-05
1.95137355e-05
2.02699547e-05
2.02859624e-05
1.97916155e-05
1.94940315e-05
1.94938351e-05
2.02902567e-05
2.02908956e-05
1.97673794e-05
1.94667968e-05
1.95958035e-05
2.02935636e-05
2.03026276e-05
1.97757451e-05
1.93963233e-05
1.96629897e-05
2.02761055e-05
1.97798019e-05
1.9536248e-05
2.02629339e-05
2.02956875e-05
1.97839809e-05
1.96324681e-05
2.02522225e-05
2.03040684e-05
1.98852378e-05
1.97541182e-05
1.95301726e-05
1.95319182e-05
2.0267937e-05
2.02949411e-05
2.02913047e-05
1.98086566e-05
1.96704994e-05
1.95609634e-05
1.95524833e-05
1.92735854e-05
1.9280068e-05
2.02370801e-05
2.02934145e-05
2.02643065e-05
2.0298343e-05
2.02973783e-05
1.97886479e-05
1.96448235e-05
2.02592924e-05
2.03217982e-05
1.98189258e-05
1.96636515e-05
1.95278232e-05
1.95294615e-05
2.02409811e-05
2.03097885e-05
1.9786076e-05
1.96195369e-05
2.02366275e-05
2.03039549e-05
1.97320204e-05
1.95159086e-05
2.01979881e-05
2.02881425e-05
2.02605936e-05
2.02848108e-05
1.97833051e-05
1.95431575e-05
1.95233751e-05
1.94872035e-05
1.92159758e-05
1.92189078e-05
2.01630896e-05
2.02664925e-05
2.02673512e-05
1.9790508e-05
1.95793977e-05
2.0216801e-05
2.02781259e-05
2.02766384e-05
1.97806647e-05
1.94723225e-05
2.0223253e-05
2.02734408e-05
1.97973037e-05
1.9402385e-05
1.94087626e-05
2.02040794e-05
2.02823194e-05
1.98034628e-05
1.93179164e-05
1.93227853e-05
2.02057086e-05
2.02856166e-05
2.02831015e-05
1.9779098e-05
1.96104053e-05
2.02301779e-05
2.02847243e-05
1.98114719e-05
1.97341638e-05
1.94694888e-05
1.94716889e-05
2.02213058e-05
2.02868526e-05
1.97695738e-05
1.95168941e-05
2.02228604e-05
2.02778647e-05
1.98144362e-05
1.94462672e-05
1.94457197e-05
2.02179548e-05
2.02820227e-05
1.98030549e-05
1.94258554e-05
1.94286895e-05
2.02189297e-05
2.02886103e-05
1.97839136e-05
1.96005331e-05
1.93643659e-05
1.93694369e-05
2.02048766e-05
2.02866378e-05
2.02636037e-05
2.02916686e-05
1.97784603e-05
1.95380926e-05
2.02351623e-05
2.02887325e-05
1.97795995e-05
1.95338542e-05
2.02364364e-05
2.0279871e-05
1.9805247e-05
1.94485671e-05
1.94514136e-05
2.0228597e-05
2.02828655e-05
1.98017427e-05
1.94320136e-05
1.94352699e-05
2.02314536e-05
2.02917874e-05
1.98035597e-05
1.96660569e-05
1.95191568e-05
1.95207023e-05
2.023393e-05
2.02844603e-05
2.02818378e-05
1.97150621e-05
1.94573841e-05
2.02425317e-05
2.02792957e-05
1.96945704e-05
1.95000071e-05
2.0232774e-05
2.02572275e-05
1.98371725e-05
1.93591153e-05
1.93662729e-05
2.02108742e-05
2.02676749e-05
2.02653074e-05
1.95717112e-05
1.93054759e-05
2.02258404e-05
2.02668311e-05
1.97260024e-05
1.96097283e-05
2.02364747e-05
2.02730457e-05
1.98016642e-05
1.9731613e-05
1.94992652e-05
1.95021029e-05
2.02392226e-05
2.02772102e-05
1.978626e-05
1.92317102e-05
1.92382563e-05
2.02410047e-05
2.02789739e-05
2.02782406e-05
1.97335949e-05
1.9427307e-05
2.02443234e-05
2.02835721e-05
1.9568577e-05
1.94659499e-05
2.02442583e-05
2.0282058e-05
2.02766431e-05
1.97876531e-05
1.97171009e-05
2.02529507e-05
1.97831651e-05
1.94508464e-05
2.02471897e-05
2.02774214e-05
2.02574441e-05
1.98502834e-05
1.93195496e-05
1.93285559e-05
2.02370366e-05
2.02780456e-05
1.97892908e-05
1.92000595e-05
1.92068134e-05
2.02486591e-05
2.02746942e-05
2.02748033e-05
1.97647001e-05
1.96619062e-05
2.02451525e-05
1.97837865e-05
1.94094909e-05
2.02119464e-05
2.0267729e-05
2.02556979e-05
1.98383598e-05
1.93369394e-05
1.93439937e-05
2.02354e-05
2.02704792e-05
1.97883992e-05
1.93100305e-05
1.93211152e-05
2.02374376e-05
2.02813328e-05
1.97855543e-05
1.95139327e-05
1.93667821e-05
1.9311918e-05
1.98195212e-05
2.02715244e-05
2.03056979e-05
2.0284119e-05
2.02925034e-05
2.02907914e-05
2.02892386e-05
1.97832087e-05
1.96213671e-05
1.94614133e-05
1.94630457e-05
2.02212519e-05
2.02783176e-05
1.95660341e-05
1.93749689e-05
2.01140009e-05
2.02678436e-05
2.0268188e-05
1.97329713e-05
1.95700266e-05
2.02064912e-05
1.97680622e-05
1.91914325e-05
2.02258888e-05
2.02598571e-05
1.97838223e-05
1.93958355e-05
1.94719279e-05
2.02311178e-05
2.02757532e-05
2.0259482e-05
1.96121026e-05
1.93298506e-05
2.01123566e-05
2.02641256e-05
2.02713665e-05
2.02654777e-05
1.97699848e-05
1.93955845e-05
1.94799048e-05
1.92136939e-05
1.92258663e-05
2.01276801e-05
2.0274735e-05
2.02591562e-05
2.02836657e-05
1.98003822e-05
1.97100484e-05
2.02273822e-05
2.02872603e-05
1.98054272e-05
1.9737786e-05
1.94534632e-05
1.9457402e-05
2.02243256e-05
2.02870924e-05
1.97533474e-05
1.94780626e-05
2.02232756e-05
2.02768639e-05
1.97912682e-05
1.93665287e-05
1.93729632e-05
2.02093602e-05
2.02809285e-05
1.97818103e-05
1.94674067e-05
2.02204023e-05
2.02697374e-05
1.97919588e-05
1.93164458e-05
1.93247893e-05
2.02030445e-05
2.02808072e-05
1.96146736e-05
1.94877223e-05
2.02046281e-05
2.02722318e-05
2.02683044e-05
1.97000075e-05
1.94181818e-05
2.01813266e-05
2.0257147e-05
2.02471538e-05
2.02686167e-05
1.94334831e-05
1.92237388e-05
2.0187611e-05
2.02721586e-05
1.96318159e-05
1.94809447e-05
2.02204435e-05
2.02832275e-05
1.97405564e-05
1.95900665e-05
2.02373336e-05
2.02833646e-05
1.97798173e-05
1.96507991e-05
1.94051459e-05
1.94068839e-05
2.02436889e-05
2.02848082e-05
1.96329531e-05
1.94511293e-05
2.02602918e-05
2.02791043e-05
1.97690628e-05
1.94631049e-05
1.95481201e-05
2.02671541e-05
2.02810567e-05
2.0279373e-05
2.02829602e-05
1.97935202e-05
1.93389283e-05
1.93390103e-05
2.0266349e-05
2.02760803e-05
1.97708752e-05
1.92304531e-05
1.92560131e-05
2.02678748e-05
2.02865399e-05
1.95595532e-05
1.94234163e-05
2.02749113e-05
2.02847116e-05
1.94838076e-05
1.94829427e-05
2.02859523e-05
2.02832837e-05
2.02823446e-05
1.96989846e-05
1.94789702e-05
2.02974206e-05
2.02789749e-05
1.96668752e-05
1.95037572e-05
2.03049855e-05
2.02749814e-05
1.97711886e-05
1.93518402e-05
1.93807266e-05
2.02931439e-05
2.02849828e-05
1.96548583e-05
1.94787598e-05
2.03071391e-05
2.02775218e-05
1.97718331e-05
1.93563668e-05
1.93974885e-05
2.02955036e-05
2.02823836e-05
1.96526382e-05
1.94828921e-05
2.03126602e-05
2.02729486e-05
1.97689774e-05
1.93350212e-05
1.93908739e-05
2.02907495e-05
2.0292891e-05
1.95985191e-05
1.95095002e-05
2.0300223e-05
2.02904709e-05
1.96048663e-05
1.95517644e-05
2.03053339e-05
2.02853581e-05
1.96429066e-05
1.95418153e-05
2.03179108e-05
2.02752352e-05
1.97691934e-05
1.9331826e-05
1.94114573e-05
2.02962178e-05
2.02965874e-05
1.95586468e-05
1.95128171e-05
2.03042776e-05
2.02924969e-05
1.95297599e-05
1.95898561e-05
2.03059454e-05
2.02836867e-05
2.02831564e-05
1.96753222e-05
1.9562804e-05
2.03170962e-05
2.02669538e-05
1.98618478e-05
1.93973021e-05
1.94685136e-05
2.03051023e-05
2.02909968e-05
1.9621778e-05
1.96502689e-05
2.03144535e-05
2.02877335e-05
1.98015619e-05
1.97640339e-05
1.95184952e-05
1.95675034e-05
2.03113716e-05
2.02862321e-05
1.97749961e-05
1.96731067e-05
1.9442536e-05
1.9547334e-05
2.03064265e-05
1.97624165e-05
1.93118997e-05
2.03276865e-05
2.02832639e-05
1.95933748e-05
1.95137233e-05
2.03220606e-05
2.02829051e-05
1.97719291e-05
1.96015847e-05
1.93906666e-05
1.94385467e-05
2.0143638e-05
2.02863022e-05
2.02587054e-05
2.02881058e-05
2.02650181e-05
1.96764463e-05
1.94582241e-05
2.03378998e-05
2.0269775e-05
1.97605077e-05
1.92720308e-05
1.94663744e-05
2.02952318e-05
1.97448576e-05
1.9260859e-05
2.03509872e-05
2.02711511e-05
1.9755199e-05
1.94001877e-05
1.95356074e-05
2.0296541e-05
2.02907108e-05
2.02825025e-05
1.97619988e-05
1.96281108e-05
2.03351271e-05
2.02770179e-05
1.97941446e-05
1.93141639e-05
1.94458013e-05
2.03046807e-05
2.02942371e-05
2.02739561e-05
1.97733758e-05
1.95731654e-05
1.92740187e-05
1.93497506e-05
2.0309151e-05
2.02813464e-05
2.02814218e-05
1.97724737e-05
1.94970097e-05
2.03158255e-05
2.02854123e-05
1.96943982e-05
1.9656047e-05
2.03130359e-05
2.02824696e-05
1.97969545e-05
1.97593435e-05
1.94926338e-05
1.94981859e-05
2.0310061e-05
2.02696677e-05
1.97882572e-05
1.93929111e-05
1.94463848e-05
2.03053504e-05
2.02670447e-05
1.97934797e-05
1.93762882e-05
1.94244643e-05
2.03019115e-05
2.02667159e-05
1.97896061e-05
1.92565221e-05
1.93320397e-05
2.01744763e-05
2.02727948e-05
2.02709792e-05
)
;

boundaryField
{
    closed
    {
        type            calculated;
        value           nonuniform List<scalar> 0();
    }
    open
    {
        type            calculated;
        value           nonuniform List<scalar> 0();
    }
    sides
    {
        type            empty;
    }
    procBoundary3to2
    {
        type            processor;
        value           uniform 2.02854296e-05;
    }
    procBoundary3to4
    {
        type            processor;
        value           uniform 2.0271435e-05;
    }
}


// ************************************************************************* //
