/*--------------------------------*- C++ -*----------------------------------*\
| =========                 |                                                 |
| \\      /  F ield         | OpenFOAM: The Open Source CFD Toolbox           |
|  \\    /   O peration     | Version:  2306                                  |
|   \\  /    A nd           | Website:  www.openfoam.com                      |
|    \\/     M anipulation  |                                                 |
\*---------------------------------------------------------------------------*/
FoamFile
{
    version     2.0;
    format      ascii;
    arch        "LSB;label=32;scalar=64";
    class       volVectorField;
    location    "0.00196";
    object      U;
}
// * * * * * * * * * * * * * * * * * * * * * * * * * * * * * * * * * * * * * //

dimensions      [0 1 -1 0 0 0 0];

internalField   nonuniform List<vector> 
531
(
(0.455668594 0 0)
(0.450552139 0 0)
(0.451372125 0 0)
(0.4706693 0 0)
(0.478033217 0 0)
(0.46759584 0 0)
(0.465171655 0 0)
(0.468791785 0 0)
(0.48371808 0 0)
(0.484405089 0 0)
(0.473291935 0 0)
(0.472982991 0 0)
(0.467978676 0 0)
(0.475140785 0 0)
(0.47847577 0 0)
(0.467974596 0 0)
(0.468765254 0 0)
(0.468423472 0 0)
(0.470314432 0 0)
(0.468051883 0 0)
(0.458462731 0 0)
(0.475681371 0 0)
(0.487743498 0 0)
(0.473838762 0 0)
(0.468454735 0 0)
(0.485498579 0 0)
(0.499235878 0 0)
(0.493761958 0 0)
(0.490502838 0 0)
(0.486798706 0 0)
(0.484745178 0 0)
(0.497966606 0 0)
(0.513779705 0 0)
(0.507653353 0 0)
(0.502448274 0 0)
(0.507794449 0 0)
(0.513300737 0 0)
(0.513918019 0 0)
(0.508239927 0 0)
(0.499846264 0 0)
(0.520759223 0 0)
(0.549241795 0 0)
(0.551008653 0 0)
(0.552593715 0 0)
(0.546158196 0 0)
(0.539107601 0 0)
(0.543349769 0 0)
(0.566892624 0 0)
(0.582119615 0 0)
(0.577237832 0 0)
(0.582042706 0 0)
(0.584958187 0 0)
(0.583136556 0 0)
(0.604320376 0 0)
(0.618558377 0 0)
(0.609946706 0 0)
(0.613688045 0 0)
(0.638715522 0 0)
(0.652791829 0 0)
(0.647062869 0 0)
(0.654342103 0 0)
(0.66981638 0 0)
(0.684999382 0 0)
(0.691703587 0 0)
(0.686156204 0 0)
(0.679254546 0 0)
(0.68555584 0 0)
(0.696469094 0 0)
(0.701372507 0 0)
(0.698559321 0 0)
(0.710705782 0 0)
(0.72789267 0 0)
(0.732190722 0 0)
(0.730654192 0 0)
(0.720629009 0 0)
(0.723494978 0 0)
(0.746954104 0 0)
(0.768920718 0 0)
(0.762557851 0 0)
(0.747996125 0 0)
(0.753262296 0 0)
(0.788041151 0 0)
(0.80206712 0 0)
(0.787195857 0 0)
(0.783099561 0 0)
(0.792626651 0 0)
(0.819154917 0 0)
(0.81909004 0 0)
(0.798359538 0 0)
(0.788655829 0 0)
(0.803582394 0 0)
(0.828373516 0 0)
(0.832007945 0 0)
(0.824239075 0 0)
(0.807933008 0 0)
(0.811558651 0 0)
(0.838267138 0 0)
(0.841811403 0 0)
(0.828480515 0 0)
(0.833018698 0 0)
(0.832444614 0 0)
(0.827839034 0 0)
(0.853179923 0 0)
(0.860969566 0 0)
(0.848760768 0 0)
(0.856436663 0 0)
(0.881911166 0 0)
(0.882227182 0 0)
(0.861268815 0 0)
(0.854229844 0 0)
(0.860373334 0 0)
(0.889715203 0 0)
(0.888111006 0 0)
(0.866079912 0 0)
(0.859402242 0 0)
(0.857463864 0 0)
(0.884198988 0 0)
(0.887296653 0 0)
(0.862540086 0 0)
(0.857152631 0 0)
(0.84911352 0 0)
(0.851013715 0 0)
(0.861313902 0 0)
(0.84942712 0 0)
(0.845432852 0 0)
(0.830016583 0 0)
(0.804856518 0 0)
(0.80125818 0 0)
(0.825694358 0 0)
(0.82631101 0 0)
(0.805149101 0 0)
(0.803278471 0 0)
(0.827587309 0 0)
(0.82457472 0 0)
(0.802128995 0 0)
(0.792835357 0 0)
(0.796723219 0 0)
(0.821306691 0 0)
(0.814234546 0 0)
(0.787315919 0 0)
(0.773932142 0 0)
(0.777717382 0 0)
(0.800716938 0 0)
(0.791368251 0 0)
(0.769957194 0 0)
(0.767516795 0 0)
(0.759191046 0 0)
(0.756585671 0 0)
(0.770982411 0 0)
(0.76621676 0 0)
(0.753048414 0 0)
(0.735680457 0 0)
(0.73612046 0 0)
(0.757621548 0 0)
(0.749730087 0 0)
(0.733050516 0 0)
(0.738075731 0 0)
(0.754804764 0 0)
(0.748102507 0 0)
(0.723950158 0 0)
(0.709329897 0 0)
(0.712854888 0 0)
(0.7248899 0 0)
(0.715210637 0 0)
(0.694915101 0 0)
(0.675283832 0 0)
(0.678123519 0 0)
(0.701400219 0 0)
(0.698146342 0 0)
(0.6792188 0 0)
(0.679251436 0 0)
(0.689198385 0 0)
(0.680365292 0 0)
(0.659674311 0 0)
(0.652301798 0 0)
(0.638717854 0 0)
(0.628755397 0 0)
(0.641884752 0 0)
(0.634271552 0 0)
(0.604066548 0 0)
(0.585076206 0 0)
(0.58053653 0 0)
(0.598735047 0 0)
(0.604601801 0 0)
(0.587034738 0 0)
(0.564434257 0 0)
(0.556149705 0 0)
(0.574666667 0 0)
(0.568905402 0 0)
(0.546850998 0 0)
(0.546542083 0 0)
(0.562099843 0 0)
(0.570170123 0 0)
(0.556690405 0 0)
(0.539533936 0 0)
(0.537315008 0 0)
(0.539313328 0 0)
(0.522884471 0 0)
(0.506293342 0 0)
(0.517707173 0 0)
(0.525217629 0 0)
(0.508856852 0 0)
(0.488959782 0 0)
(0.474802578 0 0)
(0.465857476 0 0)
(0.484791826 0 0)
(0.486649315 0 0)
(0.458372374 0 0)
(0.442134799 0 0)
(0.432628052 0 0)
(0.446545984 0 0)
(0.460200485 0 0)
(0.443564172 0 0)
(0.424202043 0 0)
(0.417961946 0 0)
(0.423294514 0 0)
(0.416115873 0 0)
(0.397895555 0 0)
(0.41000525 0 0)
(0.426812557 0 0)
(0.410124428 0 0)
(0.391836977 0 0)
(0.380701416 0 0)
(0.36700469 0 0)
(0.384833079 0 0)
(0.398469261 0 0)
(0.377311485 0 0)
(0.363810751 0 0)
(0.35208998 0 0)
(0.370757863 0 0)
(0.386430176 0 0)
(0.370329585 0 0)
(0.362456956 0 0)
(0.367185212 0 0)
(0.378142475 0 0)
(0.373103829 0 0)
(0.36763873 0 0)
(0.37373272 0 0)
(0.376831592 0 0)
(0.377411292 0 0)
(0.377981474 0 0)
(0.368444911 0 0)
(0.362315678 0 0)
(0.360694613 0 0)
(0.355063349 0 0)
(0.347624594 0 0)
(0.360014273 0 0)
(0.373654553 0 0)
(0.36482173 0 0)
(0.361554823 0 0)
(0.364768144 0 0)
(0.37639116 0 0)
(0.372143157 0 0)
(0.367404902 0 0)
(0.372109139 0 0)
(0.383109006 0 0)
(0.391361669 0 0)
(0.377939827 0 0)
(0.406826736 0 0)
(0.442750125 0 0)
(0.429301085 0 0)
(0.42634979 0 0)
(0.42280382 0 0)
(0.431278195 0 0)
(0.451848277 0 0)
(0.443581574 0 0)
(0.441048976 0 0)
(0.452196909 0 0)
(0.455431583 0 0)
(0.465304405 0 0)
(0.473071595 0 0)
(0.469209819 0 0)
(0.464035478 0 0)
(0.466833794 0 0)
(0.468989348 0 0)
(0.471442456 0 0)
(0.481863076 0 0)
(0.490280115 0 0)
(0.500242842 0 0)
(0.507030677 0 0)
(0.501678858 0 0)
(0.499530337 0 0)
(0.506524446 0 0)
(0.527804818 0 0)
(0.541205428 0 0)
(0.539205271 0 0)
(0.543600474 0 0)
(0.543700418 0 0)
(0.544169811 0 0)
(0.570130593 0 0)
(0.588468183 0 0)
(0.583383306 0 0)
(0.588860552 0 0)
(0.613598734 0 0)
(0.62771558 0 0)
(0.615309982 0 0)
(0.611460164 0 0)
(0.622535815 0 0)
(0.652921228 0 0)
(0.665290084 0 0)
(0.662024707 0 0)
(0.671153166 0 0)
(0.697219331 0 0)
(0.706284136 0 0)
(0.689330404 0 0)
(0.684453952 0 0)
(0.697925588 0 0)
(0.720238124 0 0)
(0.710370034 0 0)
(0.700175031 0 0)
(0.71599586 0 0)
(0.731353052 0 0)
(0.736584347 0 0)
(0.719580486 0 0)
(0.705118587 0 0)
(0.714171712 0 0)
(0.717819713 0 0)
(0.710016718 0 0)
(0.70521642 0 0)
(0.684688164 0 0)
(0.678386183 0 0)
(0.699671818 0 0)
(0.709362112 0 0)
(0.688949961 0 0)
(0.672807634 0 0)
(0.68255968 0 0)
(0.695451915 0 0)
(0.683394443 0 0)
(0.667734601 0 0)
(0.675846708 0 0)
(0.685964213 0 0)
(0.670348219 0 0)
(0.64613586 0 0)
(0.637796885 0 0)
(0.625154721 0 0)
(0.624388745 0 0)
(0.638775282 0 0)
(0.620251336 0 0)
(0.604086248 0 0)
(0.61526435 0 0)
(0.62631143 0 0)
(0.60772478 0 0)
(0.580509714 0 0)
(0.570526922 0 0)
(0.561320059 0 0)
(0.556649897 0 0)
(0.546920685 0 0)
(0.536766191 0 0)
(0.518914247 0 0)
(0.493790855 0 0)
(0.481920929 0 0)
(0.486837268 0 0)
(0.498514508 0 0)
(0.479828861 0 0)
(0.452245743 0 0)
(0.437461732 0 0)
(0.431675355 0 0)
(0.437245432 0 0)
(0.421205278 0 0)
(0.404103105 0 0)
(0.40944821 0 0)
(0.415143331 0 0)
(0.394128327 0 0)
(0.376635869 0 0)
(0.384820179 0 0)
(0.386280694 0 0)
(0.371113617 0 0)
(0.358633519 0 0)
(0.346310862 0 0)
(0.345265515 0 0)
(0.347160857 0 0)
(0.33069898 0 0)
(0.315628489 0 0)
(0.313291286 0 0)
(0.316169212 0 0)
(0.3008554 0 0)
(0.281393258 0 0)
(0.269246536 0 0)
(0.265621871 0 0)
(0.267483593 0 0)
(0.257462016 0 0)
(0.244805749 0 0)
(0.239065015 0 0)
(0.24098513 0 0)
(0.230888183 0 0)
(0.216824061 0 0)
(0.205159618 0 0)
(0.203280051 0 0)
(0.204505956 0 0)
(0.196445249 0 0)
(0.185508918 0 0)
(0.178445777 0 0)
(0.179006469 0 0)
(0.170758052 0 0)
(0.159180222 0 0)
(0.14836526 0 0)
(0.148525905 0 0)
(0.149386491 0 0)
(0.142619448 0 0)
(0.132629563 0 0)
(0.125830242 0 0)
(0.125546452 0 0)
(0.118540272 0 0)
(0.108834939 0 0)
(0.103152855 0 0)
(0.102299957 0 0)
(0.0969990297 0 0)
(0.0885613487 0 0)
(0.0818537039 0 0)
(0.0807572054 0 0)
(0.0772338138 0 0)
(0.0701687907 0 0)
(0.0626805382 0 0)
(0.0656130417 0 0)
(0.0666698387 0 0)
(0.0635035821 0 0)
(0.0568952679 0 0)
(0.0496121661 0 0)
(0.0479147384 0 0)
(0.046404492 0 0)
(0.0402202482 0 0)
(0.0320049369 0 0)
(0.0318877791 0 0)
(0.0289815844 0 0)
(0.0311808869 0 0)
(0.0285085506 0 0)
(0.018644694 0 0)
(0.0165127935 0 0)
(0.0157587369 0 0)
(0.0133395333 0 0)
(0.0102872388 0 0)
(0.0118511349 0 0)
(0.00958824893 0 0)
(0.012015108 0 0)
(0.00748717784 0 0)
(-0.000165920723 0 0)
(0.000659149092 0 0)
(-4.84693608e-05 0 0)
(-0.000481612393 0 0)
(-0.00902484405 0 0)
(-0.0091923989 0 0)
(-0.00104626172 0 0)
(-9.6023818e-05 0 0)
(0.000355814279 0 0)
(0.000593965779 0 0)
(-0.0048005966 0 0)
(-0.0057878985 0 0)
(0.0027589453 0 0)
(0.00967626711 0 0)
(0.00623771588 0 0)
(0.00549347809 0 0)
(0.00576540891 0 0)
(0.00847010305 0 0)
(0.0078599699 0 0)
(0.00227785871 0 0)
(0.004047491 0 0)
(0.00513862127 0 0)
(0.0055669498 0 0)
(0.00285868099 0 0)
(5.22183658e-05 0 0)
(-0.0122490697 0 0)
(0.0149314962 0 0)
(0.0385835257 0 0)
(0.0263195922 0 0)
(0.0287426602 0 0)
(0.0321474632 0 0)
(0.0279510663 0 0)
(0.0225023615 0 0)
(0.0236431538 0 0)
(0.023621208 0 0)
(0.0246281737 0 0)
(0.0156756077 0 0)
(0.0249687087 0 0)
(0.0369614558 0 0)
(0.0298557009 0 0)
(0.0286195635 0 0)
(0.0297540651 0 0)
(0.0298794088 0 0)
(0.0300576945 0 0)
(0.0225148712 0 0)
(0.0276312841 0 0)
(0.0338106202 0 0)
(0.0308256479 0 0)
(0.0358891676 0 0)
(0.03521576 0 0)
(0.0290347331 0 0)
(0.0281863975 0 0)
(0.0287341195 0 0)
(0.0265048829 0 0)
(0.0199691705 0 0)
(0.0241215131 0 0)
(0.0325523783 0 0)
(0.0297589124 0 0)
(0.0342974958 0 0)
(0.0372797096 0 0)
(0.027283442 0 0)
(0.0241287787 0 0)
(0.0301302318 0 0)
(0.0369284164 0 0)
(0.039170204 0 0)
(0.0424266443 0 0)
(0.0442208942 0 0)
(0.0368495207 0 0)
(0.0375458178 0 0)
(0.0403120401 0 0)
(0.0327123809 0 0)
(0.0262749024 0 0)
(0.0299028992 0 0)
(0.031683052 0 0)
(0.0280110497 0 0)
(0.0210165981 0 0)
(0.0212444456 0 0)
(0.0253815846 0 0)
(0.0278609617 0 0)
(0.0306213909 0 0)
(0.0269677276 0 0)
(0.0237736154 0 0)
(0.0261651711 0 0)
(0.0312984846 0 0)
(0.033952317 0 0)
(0.0297827075 0 0)
(0.0262301565 0 0)
(0.0277849362 0 0)
(0.0330576523 0 0)
(0.0354622437 0 0)
(0.0313417736 0 0)
(0.0207784034 0 0)
(0.0058904271 0 0)
(0.0364889426 0 0)
(0.0663566622 0 0)
(0.0556363691 0 0)
)
;

boundaryField
{
    closed
    {
        type            noSlip;
    }
    open
    {
        type            inletOutlet;
        inletValue      nonuniform List<vector> 0();
        value           nonuniform List<vector> 0();
    }
    sides
    {
        type            empty;
    }
    procBoundary3to2
    {
        type            processor;
        value           uniform (0.467129592 0 0);
    }
    procBoundary3to4
    {
        type            processor;
        value           uniform (0.0522424952 0 0);
    }
}


// ************************************************************************* //
