/*--------------------------------*- C++ -*----------------------------------*\
| =========                 |                                                 |
| \\      /  F ield         | OpenFOAM: The Open Source CFD Toolbox           |
|  \\    /   O peration     | Version:  2306                                  |
|   \\  /    A nd           | Website:  www.openfoam.com                      |
|    \\/     M anipulation  |                                                 |
\*---------------------------------------------------------------------------*/
FoamFile
{
    version     2.0;
    format      ascii;
    arch        "LSB;label=32;scalar=64";
    class       volScalarField;
    location    "0.00084";
    object      p;
}
// * * * * * * * * * * * * * * * * * * * * * * * * * * * * * * * * * * * * * //

dimensions      [1 -1 -2 0 0 0 0];

internalField   nonuniform List<scalar> 
531
(
101453.768
101453.474
101453.208
101452.959
101452.718
101452.487
101452.238
101451.994
101451.77
101451.552
101451.319
101451.083
101450.88
101451.165
101451.057
101450.97
101450.904
101450.827
101450.73
101450.665
101450.614
101450.558
101450.485
101450.447
101450.438
101450.46
101450.008
101449.871
101449.749
101449.768
101449.76
101449.702
101449.652
101449.602
101449.568
101449.995
101450.024
101450.063
101450.106
101450.155
101450.213
101450.29
101450.388
101450.237
101450.143
101450.073
101450.026
101449.974
101449.887
101449.821
101449.768
101449.72
101449.654
101449.542
101449.414
101449.291
101449.144
101448.996
101449.327
101449.232
101449.146
101449.075
101448.976
101448.841
101448.725
101448.604
101448.452
101448.265
101448.095
101447.916
101447.704
101447.456
101447.222
101446.975
101446.695
101446.375
101446.059
101445.745
101445.45
101445.676
101445.485
101445.313
101445.147
101445.008
101444.365
101444.079
101443.815
101443.568
101443.326
101443.108
101442.886
101442.712
101442.55
101442.063
101441.608
101441.167
101440.73
101440.293
101439.803
101439.322
101438.89
101438.462
101438.027
101437.581
101437.174
101436.772
101436.358
101435.927
101435.53
101435.133
101434.716
101434.275
101433.86
101433.439
101432.99
101432.496
101432.01
101431.52
101431.047
101431.156
101430.755
101430.348
101429.922
101429.511
101429.688
101429.347
101429
101428.623
101428.256
101428.479
101428.204
101427.958
101427.729
101427.487
101427.229
101427.01
101426.798
101426.573
101426.325
101426.106
101425.892
101425.668
101425.465
101425.238
101424.967
101424.714
101424.469
101424.258
101424.681
101424.581
101424.504
101424.456
101424.398
101424.323
101424.294
101424.294
101424.311
101423.699
101423.529
101423.397
101423.306
101423.185
101423.015
101422.86
101422.701
101422.517
101422.354
101422.774
101422.68
101422.598
101422.538
101422.446
101422.298
101422.16
101422.022
101421.904
101422.387
101422.348
101422.311
101422.245
101422.152
101421.982
101421.809
101421.672
101421.56
101421.455
101421.319
101421.181
101421.091
101421.05
101421.028
101420.348
101420.129
101419.93
101419.686
101419.448
101419.204
101418.931
101418.635
101418.373
101418.78
101418.668
101418.577
101418.582
101418.617
101418.359
101418.169
101418.016
101417.918
101417.835
101417.753
101417.729
101417.748
101417.793
101417.261
101417.136
101417.045
101416.985
101416.952
101417.476
101417.545
101417.663
101417.81
101417.99
101417.612
101417.644
101417.727
101417.849
101417.959
101418.017
101418.092
101418.176
101418.279
101418.891
101419.034
101419.19
101419.352
101419.541
101420.226
101420.494
101420.801
101421.138
101421.51
101421.922
101421.863
101422.146
101422.468
101422.838
101423.192
101423.5
101423.808
101424.102
101424.395
101424.681
101424.947
101425.191
101425.453
101426.206
101426.516
101426.826
101427.166
101427.497
101427.788
101428.037
101428.305
101428.598
101428.863
101429.094
101429.315
101429.534
101429.745
101429.927
101429.594
101429.565
101429.543
101429.529
101429.49
101429.41
101429.28
101429.118
101428.929
101428.707
101428.426
101428.092
101427.718
101427.763
101427.427
101427.067
101426.685
101426.283
101425.868
101425.444
101425.045
101424.585
101424.123
101423.653
101423.165
101422.679
101422.172
101421.654
101421.124
101420.593
101420.044
101419.499
101418.939
101418.355
101417.716
101417.057
101416.37
101415.692
101415.512
101414.922
101414.337
101413.74
101413.125
101412.54
101412.517
101412.064
101411.612
101411.199
101410.806
101410.431
101410.058
101409.717
101409.377
101409.033
101408.739
101408.482
101408.309
101408.231
101408.107
101408.008
101407.949
101407.924
101407.928
101407.947
101408.027
101408.74
101408.981
101409.284
101409.689
101410.114
101410.526
101410.976
101411.495
101412.053
101412.634
101413.174
101413.687
101414.259
101414.886
101415.572
101416.818
101417.62
101418.469
101419.378
101420.339
101421.345
101422.384
101423.43
101424.53
101426.139
101427.325
101428.55
101429.82
101431.128
101432.477
101433.873
101435.21
101436.515
101437.834
101439.2
101440.571
101441.931
101442.851
101443.966
101445.08
101446.263
101447.386
101448.378
101449.324
101450.224
101451.053
101451.787
101452.414
101452.887
101453.264
101453.581
101453.764
101453.785
101453.664
101453.418
101453.013
101452.463
101451.745
101450.881
101449.839
101448.624
101447.278
101445.791
101444.189
101442.312
101440.289
101438.205
101436.044
101433.815
101431.522
101429.185
101426.821
101424.459
101422.123
101419.845
101417.656
101415.591
101413.685
101411.983
101410.516
101409.31
101408.391
101407.818
101407.615
101407.83
101408.5
101409.666
101411.356
101413.599
101416.426
101419.843
101423.822
101428.417
101433.609
101439.375
101445.683
101452.489
101459.788
101467.526
101475.673
101484.171
101493.091
101502.499
101511.765
101521.379
101531.528
101542.435
101554.432
101568.497
101585.246
101605.43
101632.117
101667.961
101716.543
101783.033
101863.712
101814.339
101696.166
101654.192
101626.355
101605.516
101588.922
101577.154
101568.004
101560.361
101553.853
101548.281
101543.329
101538.713
101534.341
101529.978
101525.591
101521.155
101516.593
101511.846
101506.996
101501.922
101498.221
101500.364
101493.576
101478.853
101474.848
101480.687
101479.02
101472.128
101482.759
101509.557
101524.508
101531.801
101536.253
101533.597
101532.29
101535.45
101528.294
101510.05
101497.68
101494.337
101488.399
101475.062
101467.26
101476.521
101478.667
101457.93
101446.242
101458.249
101470.214
101477.697
101494.743
101521.578
101548.776
101568.283
101578.62
101596.713
101624.712
101640.205
101647.123
101655.01
101664.073
101667.941
101664.009
101659.425
101663.797
101665.741
101658.548
101651.469
101647.795
101645.416
101646.826
101647.154
101640.352
101634.779
101633.796
101629.064
101620.736
)
;

boundaryField
{
    closed
    {
        type            zeroGradient;
    }
    open
    {
        type            waveTransmissive;
        gamma           1.25;
        fieldInf        101325;
        lInf            1;
        value           nonuniform List<scalar> 0();
    }
    sides
    {
        type            empty;
    }
    procBoundary4to3
    {
        type            processor;
        value           uniform 101454.382;
    }
    procBoundary4to5
    {
        type            processor;
        value           uniform 101615.656;
    }
}


// ************************************************************************* //
