/*--------------------------------*- C++ -*----------------------------------*\
| =========                 |                                                 |
| \\      /  F ield         | OpenFOAM: The Open Source CFD Toolbox           |
|  \\    /   O peration     | Version:  2306                                  |
|   \\  /    A nd           | Website:  www.openfoam.com                      |
|    \\/     M anipulation  |                                                 |
\*---------------------------------------------------------------------------*/
FoamFile
{
    version     2.0;
    format      ascii;
    arch        "LSB;label=32;scalar=64";
    class       volScalarField;
    location    "0.00014";
    object      h;
}
// * * * * * * * * * * * * * * * * * * * * * * * * * * * * * * * * * * * * * //

dimensions      [0 2 -2 0 0 0 0];

internalField   nonuniform List<scalar> 
530
(
2273.86935
2273.90283
2273.91292
2273.8938
2273.88369
2273.89294
2273.90005
2273.89651
2273.89213
2273.89334
2273.89561
2273.89553
2273.89407
2273.89405
2273.89475
2273.89506
2273.89468
2273.89424
2273.89442
2273.89488
2273.89476
2273.89446
2273.89456
2273.89475
2273.89457
2273.8944
2273.89466
2273.8949
2273.89455
2273.89436
2273.89469
2273.89486
2273.89439
2273.89435
2273.89493
2273.89502
2273.89416
2273.89417
2273.89512
2273.89515
2273.89388
2273.89397
2273.89552
2273.89555
2273.89357
2273.89352
2273.89542
2273.89576
2273.89423
2273.89358
2273.89455
2273.89534
2273.89513
2273.89412
2273.89411
2273.89449
2273.89502
2273.89521
2273.89442
2273.89385
2273.89441
2273.89532
2273.89536
2273.89399
2273.89382
2273.89458
2273.89516
2273.89515
2273.8944
2273.89407
2273.89445
2273.89497
2273.89479
2273.89445
2273.8946
2273.89478
2273.89442
2273.89426
2273.89492
2273.89523
2273.89427
2273.89384
2273.89486
2273.89552
2273.89451
2273.89358
2273.89453
2273.89574
2273.89508
2273.89327
2273.89373
2273.8959
2273.8959
2273.89366
2273.89322
2273.89484
2273.89596
2273.89523
2273.89335
2273.89352
2273.89545
2273.89568
2273.89435
2273.89374
2273.89451
2273.89517
2273.89479
2273.8944
2273.8945
2273.89457
2273.89452
2273.89479
2273.895
2273.89435
2273.89397
2273.89485
2273.89546
2273.8944
2273.89363
2273.89479
2273.89585
2273.89459
2273.89291
2273.89433
2273.89664
2273.89567
2273.89231
2273.89267
2273.8968
2273.89698
2273.89332
2273.89208
2273.8949
2273.89682
2273.89527
2273.89288
2273.89359
2273.89561
2273.89546
2273.89419
2273.89424
2273.89467
2273.89459
2273.89449
2273.89487
2273.89494
2273.89435
2273.89417
2273.89456
2273.89501
2273.895
2273.89451
2273.89407
2273.89421
2273.89517
2273.89535
2273.89419
2273.89384
2273.89478
2273.89519
2273.89454
2273.89434
2273.89474
2273.89465
2273.89419
2273.89466
2273.89548
2273.89476
2273.8933
2273.89402
2273.8961
2273.89584
2273.89313
2273.89315
2273.89558
2273.8961
2273.89429
2273.89313
2273.89431
2273.89589
2273.89565
2273.89367
2273.8934
2273.89447
2273.89579
2273.89581
2273.89377
2273.89294
2273.89463
2273.89643
2273.89544
2273.89279
2273.89329
2273.89625
2273.89628
2273.89316
2273.89274
2273.89572
2273.89665
2273.89404
2273.89248
2273.89459
2273.89641
2273.89518
2273.89325
2273.89394
2273.89537
2273.89509
2273.89419
2273.89439
2273.89503
2273.89479
2273.89399
2273.89411
2273.89536
2273.89554
2273.89413
2273.89339
2273.89446
2273.89597
2273.89554
2273.89322
2273.89332
2273.89563
2273.89595
2273.89412
2273.89336
2273.89467
2273.89558
2273.89491
2273.89397
2273.89424
2273.89483
2273.89477
2273.89469
2273.89484
2273.89451
2273.89395
2273.89442
2273.89567
2273.89547
2273.89321
2273.89327
2273.89586
2273.89632
2273.8938
2273.8926
2273.89494
2273.89663
2273.89492
2273.89267
2273.89384
2273.89618
2273.89576
2273.89342
2273.89351
2273.89518
2273.89537
2273.8946
2273.89432
2273.8944
2273.89441
2273.89467
2273.89519
2273.89498
2273.89387
2273.8939
2273.89503
2273.89547
2273.89479
2273.89388
2273.89397
2273.8949
2273.89529
2273.89494
2273.89407
2273.89409
2273.8948
2273.89511
2273.89461
2273.89422
2273.89454
2273.89498
2273.89464
2273.89422
2273.89457
2273.89512
2273.89469
2273.89404
2273.89439
2273.89516
2273.89503
2273.89412
2273.89419
2273.89486
2273.89499
2273.89441
2273.89442
2273.89478
2273.89469
2273.89435
2273.89453
2273.89499
2273.89473
2273.8942
2273.89442
2273.89499
2273.89481
2273.89437
2273.89446
2273.89469
2273.89463
2273.89462
2273.89477
2273.89463
2273.8943
2273.8945
2273.89501
2273.89477
2273.89422
2273.89445
2273.89502
2273.89471
2273.89412
2273.89446
2273.89528
2273.89509
2273.89373
2273.8938
2273.8954
2273.89556
2273.89418
2273.89378
2273.89468
2273.89517
2273.89466
2273.89434
2273.89459
2273.89468
2273.89451
2273.8946
2273.8949
2273.89467
2273.89416
2273.89431
2273.89513
2273.89528
2273.89431
2273.89377
2273.89411
2273.89546
2273.89562
2273.89441
2273.89341
2273.89394
2273.89572
2273.89578
2273.89392
2273.89343
2273.89475
2273.89557
2273.89485
2273.8939
2273.89428
2273.89509
2273.89499
2273.89416
2273.89421
2273.89498
2273.89508
2273.89445
2273.89417
2273.89432
2273.89488
2273.89516
2273.89491
2273.89392
2273.89387
2273.89511
2273.89566
2273.89445
2273.89348
2273.89441
2273.89567
2273.89518
2273.8936
2273.89377
2273.89544
2273.89551
2273.89422
2273.89379
2273.8945
2273.89533
2273.89525
2273.89391
2273.89377
2273.89496
2273.89553
2273.89462
2273.8938
2273.89431
2273.89516
2273.89513
2273.89423
2273.89422
2273.89458
2273.89478
2273.89491
2273.89483
2273.89409
2273.89397
2273.89519
2273.8958
2273.89421
2273.89293
2273.89446
2273.89665
2273.89567
2273.8924
2273.89276
2273.89654
2273.89666
2273.89351
2273.89263
2273.89496
2273.89617
2273.89482
2273.89358
2273.89417
2273.89507
2273.89514
2273.89459
2273.89427
2273.89425
2273.89455
2273.89514
2273.8951
2273.89408
2273.89401
2273.89488
2273.89517
2273.8945
2273.89428
2273.89464
2273.89474
2273.89447
2273.89454
2273.89496
2273.89482
2273.89409
2273.89414
2273.8951
2273.89525
2273.89445
2273.89396
2273.89435
2273.89511
2273.89517
2273.89436
2273.89399
2273.89454
2273.89528
2273.89497
2273.89383
2273.89403
2273.89545
2273.89544
2273.8937
2273.89365
2273.89539
2273.89564
2273.8941
2273.89365
2273.89472
2273.8954
2273.89487
2273.89412
2273.89417
2273.8947
2273.895
2273.89488
2273.89424
2273.89419
2273.89497
2273.89521
2273.89422
2273.89379
2273.89492
2273.89569
2273.89454
2273.89343
2273.89438
2273.89563
2273.89511
2273.89382
2273.89415
2273.89505
2273.8949
2273.89433
2273.89451
2273.89493
2273.89461
2273.89417
2273.89463
2273.89527
2273.89452
2273.89325
2273.89457
2273.89828
2273.89724
2273.88506
2273.88428
2273.91095
2273.9246
2273.88074
2273.82763
2273.87391
2274.0104
2273.99372
2273.74882
2273.70916
2273.99294
2274.15188
2273.90953
2273.61647
2273.74929
2274.13702
2274.10819
2273.73422
2273.70277
)
;

boundaryField
{
    closed
    {
        type            lookUpEnthalpy;
        h0              nonuniform List<scalar> 0();
        value           nonuniform List<scalar> 0();
    }
    open
    {
        type            zeroGradient;
    }
    sides
    {
        type            empty;
    }
    procBoundary2to1
    {
        type            processor;
        value           uniform 2273.87378;
    }
    procBoundary2to3
    {
        type            processor;
        value           uniform 2273.95668;
    }
}


// ************************************************************************* //
