/*--------------------------------*- C++ -*----------------------------------*\
| =========                 |                                                 |
| \\      /  F ield         | OpenFOAM: The Open Source CFD Toolbox           |
|  \\    /   O peration     | Version:  2306                                  |
|   \\  /    A nd           | Website:  www.openfoam.com                      |
|    \\/     M anipulation  |                                                 |
\*---------------------------------------------------------------------------*/
FoamFile
{
    version     2.0;
    format      ascii;
    arch        "LSB;label=32;scalar=64";
    class       surfaceScalarField;
    location    "0.00154";
    object      phi;
}
// * * * * * * * * * * * * * * * * * * * * * * * * * * * * * * * * * * * * * //

dimensions      [1 0 -1 0 0 0 0];

oriented        oriented;

internalField   nonuniform List<scalar> 
529
(
1.65780612e-06
1.66056682e-06
1.66307897e-06
1.66535496e-06
1.66740744e-06
1.66925282e-06
1.6709065e-06
1.67236571e-06
1.67366426e-06
1.67481779e-06
1.67583791e-06
1.67673674e-06
1.67752344e-06
1.67820636e-06
1.67879233e-06
1.67928635e-06
1.67969341e-06
1.6800159e-06
1.68025757e-06
1.68041902e-06
1.68050328e-06
1.68050987e-06
1.6804416e-06
1.68029746e-06
1.68006902e-06
1.67976587e-06
1.67939117e-06
1.67894351e-06
1.6784261e-06
1.67783789e-06
1.67718213e-06
1.67645815e-06
1.67566927e-06
1.67481528e-06
1.67389954e-06
1.67292242e-06
1.67188741e-06
1.67079563e-06
1.66965083e-06
1.66845509e-06
1.66720387e-06
1.66590927e-06
1.66457649e-06
1.66321035e-06
1.66181744e-06
1.66040441e-06
1.6589798e-06
1.65755264e-06
1.65613365e-06
1.65472461e-06
1.65334875e-06
1.65202158e-06
1.65075961e-06
1.64958126e-06
1.64850656e-06
1.64755707e-06
1.64675599e-06
1.64612767e-06
1.64569798e-06
1.64549324e-06
1.64554107e-06
1.64586858e-06
1.6465038e-06
1.64747313e-06
1.64880328e-06
1.65051815e-06
1.6526412e-06
1.65519189e-06
1.65818844e-06
1.66164396e-06
1.66556951e-06
1.66997017e-06
1.67484825e-06
1.68019944e-06
1.6860162e-06
1.69228401e-06
1.69898499e-06
1.70609421e-06
1.71358356e-06
1.72141819e-06
1.72956057e-06
1.73796699e-06
1.74659193e-06
1.7553844e-06
1.76429274e-06
1.77326075e-06
1.78223275e-06
1.79114959e-06
1.79995391e-06
1.8085859e-06
1.81698874e-06
1.82510438e-06
1.83287839e-06
1.84025674e-06
1.84718509e-06
1.85361905e-06
1.8595148e-06
1.86483019e-06
1.86952902e-06
1.87357685e-06
1.87694577e-06
1.87961005e-06
1.88155065e-06
1.88275096e-06
1.88320132e-06
1.88289428e-06
1.88182989e-06
1.88000965e-06
1.87744344e-06
1.87414126e-06
1.87012271e-06
1.86540565e-06
1.86001897e-06
1.85398765e-06
1.84734907e-06
1.8401346e-06
1.83238874e-06
1.82414934e-06
1.81546496e-06
1.80638375e-06
1.79694968e-06
1.78720888e-06
1.77721631e-06
1.76702888e-06
1.75669547e-06
1.74626726e-06
1.73579495e-06
1.72532891e-06
1.71491638e-06
1.70460605e-06
1.69444012e-06
1.68446388e-06
1.67471383e-06
1.66523037e-06
1.65604388e-06
1.64718884e-06
1.63868941e-06
1.63057328e-06
1.62285933e-06
1.61556705e-06
1.60870865e-06
1.60229853e-06
1.59634315e-06
1.59085024e-06
1.58581983e-06
1.58125506e-06
1.57715067e-06
1.57350517e-06
1.57030892e-06
1.56755636e-06
1.56523427e-06
1.56333369e-06
1.56183857e-06
1.56073726e-06
1.56001153e-06
1.55964772e-06
1.55962607e-06
1.55993147e-06
1.56054322e-06
1.5614453e-06
1.56261653e-06
1.5640405e-06
1.56569599e-06
1.56756662e-06
1.56963149e-06
1.57187465e-06
1.57427585e-06
1.57681991e-06
1.57948752e-06
1.58226458e-06
1.58513298e-06
1.58807992e-06
1.59108874e-06
1.59414816e-06
1.59724314e-06
1.6003641e-06
1.60349776e-06
1.60663635e-06
1.60976848e-06
1.61288823e-06
1.61598615e-06
1.6190582e-06
1.62209686e-06
1.62509994e-06
1.62806176e-06
1.63098193e-06
1.63385645e-06
1.63668662e-06
1.63946993e-06
1.64220922e-06
1.64490323e-06
1.64755608e-06
1.65016761e-06
1.65274283e-06
1.65528263e-06
1.65779233e-06
1.66027399e-06
1.66273248e-06
1.66517139e-06
1.6675924e-06
1.67000305e-06
1.67240339e-06
1.67480266e-06
1.67719588e-06
1.67959543e-06
1.68199633e-06
1.68446544e-06
1.6868095e-06
1.68928492e-06
1.69173521e-06
1.69420468e-06
1.69668499e-06
1.69918841e-06
1.70170338e-06
1.7042389e-06
1.70678588e-06
1.70934963e-06
1.71192307e-06
1.71450856e-06
1.71710026e-06
1.71969841e-06
1.72229785e-06
1.72489742e-06
1.72749229e-06
1.73008046e-06
1.73265728e-06
1.73522029e-06
1.73776504e-06
1.7402889e-06
1.74278766e-06
1.74525873e-06
1.74769825e-06
1.75010386e-06
1.75247213e-06
1.75480104e-06
1.75708769e-06
1.75933052e-06
1.76152719e-06
1.7636767e-06
1.7657773e-06
1.76782855e-06
1.76982933e-06
1.77177978e-06
1.77367937e-06
1.77552881e-06
1.77732812e-06
1.77907852e-06
1.7807805e-06
1.78243573e-06
1.78404511e-06
1.78561063e-06
1.78713351e-06
1.78861596e-06
1.79005939e-06
1.79146611e-06
1.7928376e-06
1.79417616e-06
1.79549635e-06
1.79678727e-06
1.79805016e-06
1.79928688e-06
1.80049839e-06
1.80168614e-06
1.80285071e-06
1.80399303e-06
1.8051132e-06
1.80621156e-06
1.80728764e-06
1.80834113e-06
1.80937092e-06
1.81037601e-06
1.8113546e-06
1.81230498e-06
1.81322467e-06
1.81411121e-06
1.81496147e-06
1.81577228e-06
1.81653986e-06
1.81726041e-06
1.81792955e-06
1.81854291e-06
1.81909561e-06
1.81958281e-06
1.81999923e-06
1.82033966e-06
1.82059856e-06
1.82077052e-06
1.82084985e-06
1.82083107e-06
1.82070854e-06
1.82047689e-06
1.82013067e-06
1.81966478e-06
1.81907415e-06
1.81835414e-06
1.81750025e-06
1.81650847e-06
1.81537736e-06
1.81410156e-06
1.81267815e-06
1.81110494e-06
1.80938007e-06
1.80750245e-06
1.80547144e-06
1.80328719e-06
1.80095036e-06
1.79846244e-06
1.79582551e-06
1.79304248e-06
1.7901169e-06
1.78705312e-06
1.7838562e-06
1.78053198e-06
1.77708698e-06
1.77352851e-06
1.76986453e-06
1.76610375e-06
1.76225548e-06
1.75832973e-06
1.75433709e-06
1.75028872e-06
1.74619631e-06
1.74207204e-06
1.73792852e-06
1.73377877e-06
1.7296361e-06
1.72551412e-06
1.72142665e-06
1.71738768e-06
1.71341126e-06
1.70951147e-06
1.70570237e-06
1.70199788e-06
1.69841178e-06
1.69495755e-06
1.69164844e-06
1.68849722e-06
1.68551633e-06
1.68271761e-06
1.68011241e-06
1.67771137e-06
1.67552456e-06
1.6735612e-06
1.67182984e-06
1.6703558e-06
1.66912811e-06
1.66815258e-06
1.66743426e-06
1.66697705e-06
1.66678404e-06
1.66685715e-06
1.66719741e-06
1.66780473e-06
1.66867805e-06
1.66981524e-06
1.67121318e-06
1.67286775e-06
1.67477382e-06
1.67692533e-06
1.67931528e-06
1.68193576e-06
1.68477803e-06
1.68783251e-06
1.69108886e-06
1.69453605e-06
1.69816235e-06
1.70195544e-06
1.70590246e-06
1.70999006e-06
1.71420445e-06
1.71853151e-06
1.72295682e-06
1.72746573e-06
1.73204342e-06
1.736675e-06
1.74134552e-06
1.7460401e-06
1.75074394e-06
1.75544238e-06
1.76012102e-06
1.7647657e-06
1.76936259e-06
1.77389825e-06
1.77835965e-06
1.78273426e-06
1.78701001e-06
1.79117542e-06
1.79521956e-06
1.79913212e-06
1.80290342e-06
1.80652443e-06
1.8099868e-06
1.81328285e-06
1.81640559e-06
1.81934872e-06
1.82210668e-06
1.82467453e-06
1.82704811e-06
1.82922382e-06
1.83119885e-06
1.83297093e-06
1.83453853e-06
1.83590059e-06
1.83705679e-06
1.83800957e-06
1.83875739e-06
1.83930133e-06
1.83964311e-06
1.83978474e-06
1.83972874e-06
1.83947788e-06
1.83903535e-06
1.83840455e-06
1.83758917e-06
1.83659309e-06
1.83542035e-06
1.83407515e-06
1.83256175e-06
1.8308845e-06
1.82904774e-06
1.82705581e-06
1.82491301e-06
1.82262355e-06
1.82019152e-06
1.81762089e-06
1.81491546e-06
1.81207882e-06
1.80911438e-06
1.80602529e-06
1.80281445e-06
1.79948451e-06
1.79603785e-06
1.79247654e-06
1.78880237e-06
1.78501684e-06
1.78112115e-06
1.77711622e-06
1.77300268e-06
1.76878088e-06
1.7644509e-06
1.76001259e-06
1.75546557e-06
1.75080923e-06
1.7460428e-06
1.74116532e-06
1.73617573e-06
1.73107284e-06
1.72585539e-06
1.7205221e-06
1.71507166e-06
1.70950281e-06
1.70381433e-06
1.69799275e-06
1.69162087e-06
1.68463842e-06
1.67697785e-06
1.66856364e-06
1.65931177e-06
1.64912913e-06
1.63793448e-06
1.62559734e-06
1.61200008e-06
1.5970206e-06
1.58053714e-06
1.56243555e-06
1.54261993e-06
1.52102768e-06
1.49764957e-06
1.47255526e-06
1.44592394e-06
1.4180786e-06
1.38951996e-06
1.3609542e-06
1.33330547e-06
1.30770197e-06
1.28542362e-06
1.26780275e-06
1.25607607e-06
1.25119907e-06
1.25365027e-06
1.26326868e-06
1.27917484e-06
1.29982183e-06
1.32320607e-06
1.34724014e-06
1.37025473e-06
1.39155748e-06
1.41191808e-06
1.43376293e-06
1.46078979e-06
1.49683475e-06
1.54414188e-06
1.60146966e-06
1.66253199e-06
1.71747043e-06
1.7586251e-06
1.78696605e-06
1.8124844e-06
1.84945308e-06
1.91128975e-06
1.99240503e-06
2.08370055e-06
2.17541121e-06
2.2807939e-06
2.39961209e-06
2.57874252e-06
2.70495205e-06
2.81530054e-06
2.8673685e-06
2.73466402e-06
2.43896475e-06
2.06822616e-06
1.85231773e-06
1.97458549e-06
2.34069096e-06
2.67044369e-06
2.57039592e-06
2.13927772e-06
1.72217755e-06
1.52788269e-06
1.49720355e-06
1.48780654e-06
1.56726432e-06
1.79144707e-06
2.04000618e-06
2.26103333e-06
2.56133674e-06
2.7405929e-06
2.53529314e-06
)
;

boundaryField
{
    closed
    {
        type            calculated;
        value           nonuniform List<scalar> 0();
    }
    open
    {
        type            calculated;
        value           uniform 2.29617957e-06;
    }
    sides
    {
        type            empty;
        value           nonuniform List<scalar> 0();
    }
    procBoundary5to4
    {
        type            processor;
        value           uniform -1.6547883e-06;
    }
}


// ************************************************************************* //
