/*--------------------------------*- C++ -*----------------------------------*\
| =========                 |                                                 |
| \\      /  F ield         | OpenFOAM: The Open Source CFD Toolbox           |
|  \\    /   O peration     | Version:  2306                                  |
|   \\  /    A nd           | Website:  www.openfoam.com                      |
|    \\/     M anipulation  |                                                 |
\*---------------------------------------------------------------------------*/
FoamFile
{
    version     2.0;
    format      ascii;
    arch        "LSB;label=32;scalar=64";
    class       surfaceScalarField;
    location    "0.00182";
    object      phi;
}
// * * * * * * * * * * * * * * * * * * * * * * * * * * * * * * * * * * * * * //

dimensions      [1 0 -1 0 0 0 0];

oriented        oriented;

internalField   nonuniform List<scalar> 
530
(
8.10874521e-07
8.09860186e-07
8.1267859e-07
8.19402597e-07
8.13262142e-07
8.16065357e-07
8.15271594e-07
8.19720907e-07
8.23094566e-07
8.10527501e-07
8.13774816e-07
8.02335996e-07
8.05574494e-07
8.07052619e-07
7.9794216e-07
7.96354019e-07
8.06297837e-07
8.1067591e-07
8.11603315e-07
8.14227334e-07
8.15798433e-07
8.18893904e-07
8.21226722e-07
8.243492e-07
8.23720882e-07
8.35217363e-07
8.373038e-07
8.41495828e-07
8.27044459e-07
8.2698034e-07
8.37548065e-07
8.38545878e-07
8.21390586e-07
8.02916508e-07
8.25651291e-07
8.2431816e-07
8.23261155e-07
8.14218696e-07
8.06243535e-07
8.1742319e-07
8.16404909e-07
8.18838866e-07
8.16571026e-07
8.13624326e-07
8.09980087e-07
8.09293292e-07
8.03983934e-07
7.96949496e-07
7.8811378e-07
7.97628488e-07
7.94030117e-07
7.9167384e-07
7.84229077e-07
7.71547611e-07
7.64430803e-07
7.55097364e-07
7.47349639e-07
7.51149732e-07
7.42425019e-07
7.01935983e-07
6.86464148e-07
6.91928813e-07
6.81295578e-07
6.65836437e-07
6.50245416e-07
6.37611523e-07
6.2442016e-07
6.2809413e-07
6.16886413e-07
6.05110384e-07
5.94003229e-07
5.74602463e-07
5.67726218e-07
5.47738904e-07
5.44278759e-07
5.56484062e-07
5.50324245e-07
5.54453018e-07
5.50305005e-07
4.92549155e-07
4.88622345e-07
5.06038733e-07
5.0643796e-07
5.11262404e-07
5.16800143e-07
5.14549457e-07
5.31488702e-07
5.57891759e-07
5.71272631e-07
5.80802749e-07
5.8853283e-07
6.21418519e-07
6.51329052e-07
6.73010556e-07
6.49792929e-07
6.67935483e-07
7.10117671e-07
7.36508907e-07
7.80443751e-07
8.1044822e-07
8.43284289e-07
8.69929862e-07
9.20137233e-07
9.53315448e-07
9.77866161e-07
9.99023856e-07
1.02814504e-06
1.06129032e-06
1.08980577e-06
1.10973211e-06
1.12854589e-06
1.158345e-06
1.18913791e-06
1.23045917e-06
1.25802111e-06
1.29221698e-06
1.31753337e-06
1.32233811e-06
1.3480273e-06
1.39045362e-06
1.4129568e-06
1.40892692e-06
1.42138159e-06
1.44091718e-06
1.46452581e-06
1.48062779e-06
1.47783754e-06
1.49528488e-06
1.5229222e-06
1.53683961e-06
1.5608415e-06
1.5771382e-06
1.60419479e-06
1.61537434e-06
1.62789923e-06
1.61474582e-06
1.62785696e-06
1.63720853e-06
1.64915619e-06
1.6366257e-06
1.6381999e-06
1.64206878e-06
1.63528503e-06
1.6291929e-06
1.63736164e-06
1.6774748e-06
1.66325517e-06
1.62909745e-06
1.63300023e-06
1.63731996e-06
1.64993829e-06
1.65289727e-06
1.6524855e-06
1.65258293e-06
1.67644473e-06
1.68462393e-06
1.68250901e-06
1.67968215e-06
1.68594706e-06
1.68576597e-06
1.69855768e-06
1.67509803e-06
1.66239923e-06
1.65586699e-06
1.65147442e-06
1.62939833e-06
1.61080953e-06
1.61988285e-06
1.61085714e-06
1.60330387e-06
1.5711451e-06
1.54702653e-06
1.55939606e-06
1.55234915e-06
1.54753002e-06
1.53766483e-06
1.53228973e-06
1.53055382e-06
1.53751505e-06
1.51795613e-06
1.48016968e-06
1.52276838e-06
1.5137245e-06
1.51502592e-06
1.48024962e-06
1.45820429e-06
1.49548278e-06
1.49398921e-06
1.49810763e-06
1.49804913e-06
1.50434446e-06
1.49947895e-06
1.5392175e-06
1.54125382e-06
1.54787164e-06
1.55582747e-06
1.52474245e-06
1.49947013e-06
1.54192667e-06
1.54476601e-06
1.54923872e-06
1.55234218e-06
1.56448522e-06
1.57726979e-06
1.55438284e-06
1.52635188e-06
1.58016783e-06
1.58291211e-06
1.59467543e-06
1.60915904e-06
1.58629406e-06
1.57743008e-06
1.62400482e-06
1.63516609e-06
1.58809451e-06
1.59540295e-06
1.65154987e-06
1.6645781e-06
1.61394248e-06
1.62923755e-06
1.69062367e-06
1.70357557e-06
1.70203917e-06
1.67959001e-06
1.69557639e-06
1.76428147e-06
1.77823168e-06
1.80477893e-06
1.79189216e-06
1.76612322e-06
1.84708387e-06
1.86690943e-06
1.88874528e-06
1.90078642e-06
1.95840226e-06
1.97886184e-06
2.00947882e-06
2.04282407e-06
2.03917725e-06
2.01430674e-06
2.07897583e-06
2.10775266e-06
2.09159218e-06
2.14403277e-06
2.1600209e-06
2.15729549e-06
2.17650356e-06
2.22345754e-06
2.24378264e-06
2.23971237e-06
2.26330944e-06
2.31535857e-06
2.3302523e-06
2.33955636e-06
2.33150021e-06
2.36039711e-06
2.40233845e-06
2.41881036e-06
2.41788117e-06
2.43507791e-06
2.47332026e-06
2.48676636e-06
2.48294796e-06
2.50469129e-06
2.55493985e-06
2.53050524e-06
2.48659521e-06
2.53726289e-06
2.53562543e-06
2.55565798e-06
2.52859404e-06
2.55214588e-06
2.58209086e-06
2.59220636e-06
2.58695258e-06
2.59432901e-06
2.6413328e-06
2.68070962e-06
2.68960699e-06
2.70876922e-06
2.71726978e-06
2.66891577e-06
2.64993316e-06
2.65876561e-06
2.66569237e-06
2.65619117e-06
2.65725925e-06
2.65175428e-06
2.67087596e-06
2.68454994e-06
2.70585549e-06
2.70880319e-06
2.72903266e-06
2.71200674e-06
2.68813997e-06
2.70436471e-06
2.71876966e-06
2.68769655e-06
2.71738198e-06
2.75393987e-06
2.76735416e-06
2.79106707e-06
2.74229631e-06
2.68327226e-06
2.70010487e-06
2.70519951e-06
2.69249995e-06
2.7032898e-06
2.67994973e-06
2.69699715e-06
2.67552616e-06
2.67287971e-06
2.66983282e-06
2.67503511e-06
2.70737938e-06
2.71006493e-06
2.70984707e-06
2.70481637e-06
2.69300265e-06
2.7057435e-06
2.71734186e-06
2.71532258e-06
2.71121994e-06
2.72337779e-06
2.71122637e-06
2.68481499e-06
2.6668164e-06
2.6634297e-06
2.62888418e-06
2.6422283e-06
2.61278221e-06
2.61305079e-06
2.58459019e-06
2.5789275e-06
2.59242072e-06
2.56450736e-06
2.54983248e-06
2.5308702e-06
2.52884449e-06
2.54354628e-06
2.53885222e-06
2.52136928e-06
2.51164907e-06
2.53365553e-06
2.51528198e-06
2.4717237e-06
2.47682413e-06
2.46698512e-06
2.50017507e-06
2.4937961e-06
2.46095835e-06
2.45217328e-06
2.48161726e-06
2.46828059e-06
2.4095432e-06
2.37889039e-06
2.36322333e-06
2.34373424e-06
2.32941812e-06
2.30756611e-06
2.29510216e-06
2.4430086e-06
2.43726259e-06
2.38449425e-06
2.3728672e-06
2.35320811e-06
2.34331079e-06
2.33374497e-06
2.32695763e-06
2.32140943e-06
2.31695819e-06
2.31301102e-06
2.30923457e-06
2.30562568e-06
2.30094529e-06
2.29781117e-06
2.29217184e-06
2.28918627e-06
2.2882202e-06
2.27842381e-06
2.26379866e-06
2.25279705e-06
2.23886811e-06
2.22587351e-06
2.21327626e-06
2.20041579e-06
2.18942763e-06
2.17760086e-06
2.16870385e-06
2.1545131e-06
2.14619199e-06
2.14877499e-06
2.14262353e-06
2.13028217e-06
2.12197723e-06
2.11006e-06
2.09764933e-06
2.08583048e-06
2.06993746e-06
2.05503901e-06
2.01748422e-06
2.00510274e-06
1.96428056e-06
1.94159322e-06
1.90609766e-06
1.89304362e-06
1.84207391e-06
1.82486054e-06
1.77293077e-06
1.75247568e-06
1.70713595e-06
1.68412072e-06
1.64686925e-06
1.6215416e-06
1.59020482e-06
1.57504465e-06
1.56690405e-06
1.54997534e-06
1.51433046e-06
1.50193321e-06
1.61634283e-06
1.60534105e-06
1.59032198e-06
1.53338282e-06
1.54524712e-06
1.53947324e-06
1.56422833e-06
1.56378983e-06
1.58286479e-06
1.59809303e-06
1.61627969e-06
1.63639836e-06
1.67376078e-06
1.73741769e-06
1.74513954e-06
1.76372603e-06
1.7639773e-06
1.77470375e-06
1.77788464e-06
1.78358285e-06
1.78507333e-06
1.78899998e-06
1.79009736e-06
1.79303601e-06
1.7939424e-06
1.79565997e-06
1.79589789e-06
1.79683413e-06
1.79611023e-06
1.79654782e-06
1.79559267e-06
1.79563925e-06
1.79450892e-06
1.79426257e-06
1.79300265e-06
1.79261607e-06
1.79121852e-06
1.79061907e-06
1.78904825e-06
1.78835908e-06
1.78660534e-06
1.78562479e-06
1.78390293e-06
1.78274456e-06
1.78107267e-06
1.779806e-06
1.77821514e-06
1.77693477e-06
1.7750945e-06
1.77346962e-06
1.77160309e-06
1.76994527e-06
1.7680654e-06
1.76641389e-06
1.76451148e-06
1.76278715e-06
1.76095984e-06
1.75935406e-06
1.75752177e-06
1.75589792e-06
1.75398859e-06
1.75225001e-06
1.75034843e-06
1.74856795e-06
1.74665491e-06
1.74485681e-06
1.74295156e-06
1.74113465e-06
1.73923521e-06
1.73741262e-06
1.73552634e-06
1.73365021e-06
1.731729e-06
1.72985016e-06
1.72793922e-06
1.72607824e-06
1.72424939e-06
1.72244181e-06
1.72062191e-06
1.71881985e-06
1.71701511e-06
1.71522703e-06
1.71344438e-06
1.71163082e-06
1.70982941e-06
1.7080483e-06
1.70628243e-06
1.70453867e-06
1.70281223e-06
1.70110974e-06
1.69942306e-06
1.69775879e-06
1.69611377e-06
1.69448949e-06
1.69288382e-06
1.69129647e-06
1.68972574e-06
1.68816974e-06
1.68662763e-06
1.68505622e-06
1.68349259e-06
1.68193211e-06
1.68037223e-06
1.6788161e-06
1.67725579e-06
1.67569369e-06
1.67412302e-06
1.67254536e-06
1.6709554e-06
1.66935415e-06
)
;

boundaryField
{
    closed
    {
        type            calculated;
        value           nonuniform List<scalar> 0();
    }
    open
    {
        type            calculated;
        value           nonuniform List<scalar> 0();
    }
    sides
    {
        type            empty;
        value           nonuniform List<scalar> 0();
    }
    procBoundary4to3
    {
        type            processor;
        value           uniform -8.08591274e-07;
    }
    procBoundary4to5
    {
        type            processor;
        value           uniform 1.66774091e-06;
    }
}


// ************************************************************************* //
