/*--------------------------------*- C++ -*----------------------------------*\
| =========                 |                                                 |
| \\      /  F ield         | OpenFOAM: The Open Source CFD Toolbox           |
|  \\    /   O peration     | Version:  2306                                  |
|   \\  /    A nd           | Website:  www.openfoam.com                      |
|    \\/     M anipulation  |                                                 |
\*---------------------------------------------------------------------------*/
FoamFile
{
    version     2.0;
    format      ascii;
    arch        "LSB;label=32;scalar=64";
    class       volScalarField;
    location    "0.00182";
    object      prefDh_H;
}
// * * * * * * * * * * * * * * * * * * * * * * * * * * * * * * * * * * * * * //

dimensions      [1 1 -3 0 0 0 0];

internalField   nonuniform List<scalar> 
531
(
23389.7809
23025.9962
23095.4315
22742.8162
22756.8691
23925.7604
23944.4415
23933.9471
23947.271
23942.2141
23196.2035
22997.4802
23945.9722
23930.4827
23281.4433
22707.463
22799.8437
23917.2744
23943.2756
23928.8618
23945.2026
23941.7794
23406.9049
23142.2013
23009.077
23010.6093
23919.369
23939.6536
23105.0256
23028.824
23918.6062
23942.3183
23043.7074
23045.9795
23926.6574
23940.8137
23931.3819
23251.4319
22999.7444
23935.3618
23933.9871
23941.274
23939.1871
23389.7209
23111.4018
23108.7065
22999.0114
22702.6168
22705.7563
23923.1079
23943.5849
23925.8101
23955.3252
23933.0754
23391.433
23048.3631
23054.8492
23928.622
23956.871
23394.6195
23233.6727
23939.4907
23948.3841
23401.6751
23249.5377
23109.5623
23110.7482
23939.6289
23947.1923
23931.8905
23390.6078
23033.822
23107.7806
22768.1851
22784.7854
23914.8536
23944.8242
23912.328
23951.8176
23257.9951
23175.9137
23935.2222
23950.0794
23922.5238
23396.1777
22985.8327
22996.3378
23938.1497
23928.534
23410.0376
22915.5512
22936.298
23917.1893
23935.9999
23180.0621
23033.6027
23920.1417
23924.1617
23920.0593
23920.0092
23403.6717
22844.9808
23063.3184
23915.0348
23407.4823
22830.9999
23943.734
23899.1386
23335.1069
22734.8404
22778.4916
23894.3969
23924.9697
23900.1332
23929.2286
23339.028
22982.7515
23938.5797
23914.0718
23342.6992
22789.1599
22824.4624
23900.7054
23942.5076
23126.1609
23042.6865
23896.9103
23944.7531
23901.0874
23950.6932
23925.536
23396.8245
23182.0531
23042.9072
23044.8974
23929.614
23918.6739
23402.926
22845.1268
23060.2255
23899.8057
23406.1676
22855.8608
23924.1475
23887.1669
23334.9176
22617.9978
22663.4203
23859.4322
23916.6002
23868.5773
23923.6213
23895.1365
23933.402
23235.083
23044.0439
23903.5927
23937.7215
23916.5004
23413.6959
22965.0424
22867.0414
22870.1302
23886.4963
23921.7228
23177.1847
22990.0181
23901.872
23915.6605
23396.2065
22801.9969
22816.9434
23880.1887
23932.9501
23899.8933
23943.1983
23931.5115
23394.3914
23266.3667
23070.9232
23072.6157
23920.1897
23929.8799
23398.2202
22775.4877
22794.2526
23881.5376
23945.1677
23899.3498
23951.1684
23417.0607
23168.4487
23912.1266
23949.6474
23407.142
23163.111
22983.1021
22989.1254
23881.4285
23939.8427
23897.703
23947.1717
23423.5778
23276.4046
23116.3758
23120.7151
23903.9854
23951.3967
23412.8653
23144.882
22962.0715
22970.9967
23881.902
23949.54
23244.2838
23062.8965
23877.8358
23955.0214
23230.2304
23131.7842
23891.7829
23950.5638
23933.9592
23402.279
23133.6935
23910.0387
23930.7453
23389.764
23006.4167
23017.176
23882.9004
23954.5488
23437.1383
23246.0134
23891.7932
23947.0737
23403.2973
23264.7436
23084.2136
23084.7446
23899.1143
23410.757
22993.9817
23872.2404
23939.1778
23284.1921
23084.446
23863.1781
23948.0588
23212.637
23107.5208
23870.7895
23942.0999
23931.9356
23387.0066
23056.5077
23869.6822
23944.4453
23261.9125
23147.5752
23870.7729
23947.9842
23926.5449
23394.5075
23021.2168
22852.078
22856.8226
23871.3409
23933.6894
23929.6358
23299.1627
23011.6248
23855.5598
23934.4501
23897.7427
23938.3002
23411.8487
23210.0794
23231.7642
23089.2136
23065.0993
22810.2882
22825.1128
23842.0505
23940.8047
23889.6079
23948.0034
23939.0627
23400.4017
23198.4009
23891.197
23937.75
23391.6688
23029.232
23034.2468
23881.5389
23949.4975
23938.7351
23384.961
23175.2704
23126.6799
23028.1624
22695.4062
22705.5048
23848.0385
23939.5575
23893.1627
23956.1838
23931.1947
23377.9822
22902.8328
22917.55
23866.1651
23956.5703
23279.2579
23139.5578
23885.5119
23957.9504
23953.4545
23393.9276
23110.2486
23907.4376
23953.9973
23376.2411
22972.6352
22978.2144
23919.3301
23984.5008
23971.8899
23351.1793
23040.8765
23045.5416
23941.3844
24005.4373
23342.7771
22974.1204
22978.524
23976.5157
24049.8488
23322.4669
23060.7519
24021.053
24087.5227
23273.9857
22898.5681
22900.82
24096.9537
24171.8349
23182.929
22898.112
24139.7406
24196.4519
23113.7408
22660.5929
22672.9253
24069.2954
24145.3851
24108.6022
24143.5417
24103.2452
24141.9885
23009.6962
22662.165
23920.7721
24089.0353
24014.1087
24081.7253
24047.4086
24085.0327
24067.2783
24097.6049
24088.888
24121.9298
24127.1789
24169.5068
24198.9519
24269.451
24350.3703
24531.8563
24662.8999
24524.1814
24429.1844
24306.059
24226.6064
24128.0231
24069.331
24000.7513
23967.612
23911.023
23849.9592
23796.3514
23857.85
23772.9418
23712.2375
23675.3958
23633.2414
23642.2347
23623.1738
23672.6816
23497.1576
23456.9537
23269.5086
23232.7978
23121.6501
24930.668
24737.0549
24634.8379
24309.3006
24173.8157
23870.1077
23700.953
23418.8817
23213.2227
22947.4487
22697.2299
22718.7283
23422.337
23205.7866
22883.0763
22897.9683
24002.9105
26008.1411
26046.9357
26822.8713
27614.8225
32750.5164
33405.8535
34619.5988
35592.9119
36958.7945
38583.7222
40723.443
43246.8337
46257.0999
50349.1512
52537.1503
54384.0774
56967.5085
59011.4138
60921.3766
62309.2754
63845.9999
65115.6794
66530.9253
67783.3809
69215.9191
70314.0809
71542.2908
72333.8295
73212.4557
73925.6841
74732.9149
75377.7357
76127.5501
76713.1247
77401.737
77915.6307
78533.7666
78978.7493
79554.4296
79936.6815
80485.692
80845.2832
81365.8714
81712.4512
82227.5592
82594.9774
83159.9643
83450.4176
83772.839
84001.4125
84281.8813
84494.7851
84748.1498
84941.3365
85168.5814
85368.0408
85631.3845
85853.612
86118.362
86338.6757
86577.3682
86768.5338
86980.8699
87154.4304
87344.4183
87505.8252
87681.6896
87836.0471
88002.4915
88151.0765
88303.6182
88435.9416
88576.726
88703.5861
88845.7729
88993.221
89150.7436
89291.8953
89434.1579
89563.3551
89693.2709
89812.6612
89924.1472
90026.177
90130.2201
90227.8596
90326.8492
90420.5227
90514.9764
90606.3101
90698.5336
90787.78
90877.3686
90964.5607
91051.753
91137.0898
91222.1212
91305.8037
91385.1176
91458.1574
91533.7559
91609.5187
91682.4631
91755.33
91825.1381
91895.2997
91962.2227
92029.8618
92094.1328
92159.4264
)
;

boundaryField
{
    closed
    {
        type            calculated;
        value           nonuniform List<scalar> 0();
    }
    open
    {
        type            calculated;
        value           nonuniform List<scalar> 0();
    }
    sides
    {
        type            empty;
    }
    procBoundary4to3
    {
        type            processor;
        value           uniform 23942.5749;
    }
    procBoundary4to5
    {
        type            processor;
        value           uniform 92221.2612;
    }
}


// ************************************************************************* //
