/*--------------------------------*- C++ -*----------------------------------*\
| =========                 |                                                 |
| \\      /  F ield         | OpenFOAM: The Open Source CFD Toolbox           |
|  \\    /   O peration     | Version:  2306                                  |
|   \\  /    A nd           | Website:  www.openfoam.com                      |
|    \\/     M anipulation  |                                                 |
\*---------------------------------------------------------------------------*/
FoamFile
{
    version     2.0;
    format      ascii;
    arch        "LSB;label=32;scalar=64";
    class       volScalarField;
    location    "0.00066";
    object      alpha;
}
// * * * * * * * * * * * * * * * * * * * * * * * * * * * * * * * * * * * * * //

dimensions      [1 -1 -1 0 0 0 0];

internalField   nonuniform List<scalar> 
530
(
3.65018171e-05
3.59325261e-05
3.58351202e-05
3.58339919e-05
3.58338895e-05
3.58338871e-05
3.5833887e-05
3.5833887e-05
3.5833887e-05
3.5833887e-05
3.5833887e-05
3.5833887e-05
3.5833887e-05
3.5833887e-05
3.5833887e-05
3.5833887e-05
3.5833887e-05
3.5833887e-05
3.5833887e-05
3.5833887e-05
3.5833887e-05
3.5833887e-05
3.5833887e-05
3.5833887e-05
3.5833887e-05
3.5833887e-05
3.5833887e-05
3.5833887e-05
3.5833887e-05
3.5833887e-05
3.5833887e-05
3.5833887e-05
3.5833887e-05
3.5833887e-05
3.5833887e-05
3.5833887e-05
3.5833887e-05
3.5833887e-05
3.5833887e-05
3.5833887e-05
3.5833887e-05
3.5833887e-05
3.5833887e-05
3.5833887e-05
3.5833887e-05
3.5833887e-05
3.5833887e-05
3.5833887e-05
3.5833887e-05
3.5833887e-05
3.5833887e-05
3.5833887e-05
3.5833887e-05
3.5833887e-05
3.5833887e-05
3.5833887e-05
3.5833887e-05
3.5833887e-05
3.5833887e-05
3.5833887e-05
3.5833887e-05
3.5833887e-05
3.5833887e-05
3.5833887e-05
3.5833887e-05
3.5833887e-05
3.5833887e-05
3.5833887e-05
3.5833887e-05
3.5833887e-05
3.5833887e-05
3.5833887e-05
3.5833887e-05
3.5833887e-05
3.5833887e-05
3.58338873e-05
3.58338874e-05
3.58338885e-05
3.58338904e-05
3.58338916e-05
3.58339031e-05
3.58339205e-05
3.58339406e-05
3.58339551e-05
3.58340347e-05
3.58342126e-05
3.58344592e-05
3.583477e-05
3.58352851e-05
3.58349501e-05
3.58319373e-05
3.5832552e-05
3.58513386e-05
3.58763766e-05
3.58633711e-05
3.57558041e-05
3.57281983e-05
3.57856111e-05
3.68871461e-05
3.68434801e-05
3.57473646e-05
3.53358725e-05
3.53573344e-05
3.56998554e-05
3.68087646e-05
3.6846496e-05
3.68220395e-05
3.57390177e-05
3.52320942e-05
3.52331543e-05
3.56999923e-05
3.68041652e-05
3.68556706e-05
3.68750752e-05
3.57369413e-05
3.52947902e-05
3.52529228e-05
3.56577525e-05
3.67722536e-05
3.68712654e-05
3.5657135e-05
3.5692221e-05
3.65547039e-05
3.68213261e-05
3.5690934e-05
3.51028285e-05
3.5306094e-05
3.6497473e-05
3.68301883e-05
3.57055929e-05
3.55376237e-05
3.60123897e-05
3.6780302e-05
3.57903635e-05
3.55874783e-05
3.59032464e-05
3.67505111e-05
3.58652058e-05
3.56062794e-05
3.58306922e-05
3.67259895e-05
3.5935525e-05
3.56249523e-05
3.57853112e-05
3.67036217e-05
3.60148214e-05
3.56660894e-05
3.57641496e-05
3.66901067e-05
3.60887853e-05
3.57302406e-05
3.57741219e-05
3.66795004e-05
3.62132946e-05
3.54981369e-05
3.51235018e-05
3.57416213e-05
3.67122272e-05
3.61813447e-05
3.57332939e-05
3.57506419e-05
3.66620445e-05
3.62844944e-05
3.55421628e-05
3.5110772e-05
3.57252475e-05
3.66923121e-05
3.62141597e-05
3.5669365e-05
3.57258863e-05
3.66478272e-05
3.62171756e-05
3.56841871e-05
3.57308161e-05
3.66730536e-05
3.62333422e-05
3.5670588e-05
3.57282519e-05
3.6699114e-05
3.62497765e-05
3.56663407e-05
3.57279874e-05
3.67305189e-05
3.62709563e-05
3.57349138e-05
3.57420818e-05
3.67407474e-05
3.63793242e-05
3.55402615e-05
3.50668141e-05
3.57094243e-05
3.67539613e-05
3.62954157e-05
3.56173955e-05
3.57269073e-05
3.67635337e-05
3.63088938e-05
3.57463628e-05
3.57562242e-05
3.67680998e-05
3.644355e-05
3.56002331e-05
3.51125821e-05
3.57223824e-05
3.6776361e-05
3.63316406e-05
3.56824642e-05
3.57484088e-05
3.67838974e-05
3.64562663e-05
3.55585411e-05
3.50490531e-05
3.57148392e-05
3.6780749e-05
3.63230624e-05
3.55306099e-05
3.57254973e-05
3.67931834e-05
3.63303622e-05
3.55541121e-05
3.57322381e-05
3.67999754e-05
3.63514937e-05
3.55583609e-05
3.57344919e-05
3.6809063e-05
3.63626106e-05
3.56133866e-05
3.57493897e-05
3.68129701e-05
3.6542294e-05
3.55017769e-05
3.49723381e-05
3.57036189e-05
3.68000737e-05
3.63599008e-05
3.54528393e-05
3.57214075e-05
3.68138334e-05
3.640483e-05
3.55251122e-05
3.57360481e-05
3.68239825e-05
3.6437637e-05
3.56124153e-05
3.57609324e-05
3.68323043e-05
3.66994409e-05
3.55157983e-05
3.49710995e-05
3.5709175e-05
3.6813565e-05
3.65091136e-05
3.5508431e-05
3.57425665e-05
3.68402496e-05
3.6551261e-05
3.56682211e-05
3.57691334e-05
3.68471443e-05
3.67726494e-05
3.56092422e-05
3.50974797e-05
3.57290281e-05
3.68312132e-05
3.6768184e-05
3.57450512e-05
3.57693293e-05
3.68451901e-05
3.68092658e-05
3.57415563e-05
3.55558806e-05
3.54716068e-05
3.52511071e-05
3.57268485e-05
3.68445739e-05
3.67991941e-05
3.56105102e-05
3.51093155e-05
3.57181863e-05
3.68343951e-05
3.68009443e-05
3.56786732e-05
3.57586697e-05
3.68675556e-05
3.679892e-05
3.57317204e-05
3.57641413e-05
3.68638485e-05
3.68173389e-05
3.57384451e-05
3.55284651e-05
3.55414831e-05
3.53876301e-05
3.51237818e-05
3.56651289e-05
3.68035152e-05
3.68640777e-05
3.64448111e-05
3.57061893e-05
3.57681864e-05
3.68793846e-05
3.6808972e-05
3.57214932e-05
3.57554675e-05
3.68758981e-05
3.6802216e-05
3.56449364e-05
3.51124585e-05
3.57100863e-05
3.68512325e-05
3.68146158e-05
3.55965136e-05
3.50194726e-05
3.56983794e-05
3.68448202e-05
3.68246227e-05
3.56786104e-05
3.57464762e-05
3.68727763e-05
3.6804185e-05
3.57044091e-05
3.51908957e-05
3.57164795e-05
3.6850375e-05
3.68213922e-05
3.5712191e-05
3.52194007e-05
3.57181731e-05
3.68495395e-05
3.68255286e-05
3.57180659e-05
3.52903941e-05
3.57244556e-05
3.68457383e-05
3.68394287e-05
3.57614955e-05
3.54687899e-05
3.53504322e-05
3.57288548e-05
3.68612795e-05
3.68240202e-05
3.57097975e-05
3.51843718e-05
3.57194829e-05
3.6847961e-05
3.68295726e-05
3.57061757e-05
3.50818095e-05
3.57035733e-05
3.68389355e-05
3.68599884e-05
3.55858553e-05
3.5649184e-05
3.68670806e-05
3.68534523e-05
3.56800094e-05
3.57445084e-05
3.68751845e-05
3.68289954e-05
3.56938969e-05
3.51083798e-05
3.57091325e-05
3.6851577e-05
3.68473403e-05
3.56696995e-05
3.50187957e-05
3.56153726e-05
3.68389922e-05
3.68813242e-05
3.56286875e-05
3.56706858e-05
3.68665423e-05
3.68352243e-05
3.56982658e-05
3.50653315e-05
3.56250739e-05
3.68302792e-05
3.68796847e-05
3.56731752e-05
3.56889488e-05
3.68478522e-05
3.68327596e-05
3.57014875e-05
3.51420589e-05
3.57164751e-05
3.68261499e-05
3.68460416e-05
3.57100377e-05
3.50997412e-05
3.5678533e-05
3.68220807e-05
3.68414227e-05
3.57068654e-05
3.50014741e-05
3.55379207e-05
3.68054079e-05
3.68665837e-05
3.55899269e-05
3.55425412e-05
3.68053221e-05
3.68553538e-05
3.56484515e-05
3.5631215e-05
3.68173604e-05
3.6828015e-05
3.56917456e-05
3.49467742e-05
3.54841268e-05
3.67998096e-05
3.68639496e-05
3.55401614e-05
3.55028264e-05
3.67989754e-05
3.68533174e-05
3.56122263e-05
3.5607313e-05
3.68138696e-05
3.68269519e-05
3.56942985e-05
3.49805977e-05
3.55249696e-05
3.67991591e-05
3.68638275e-05
3.56008013e-05
3.55859711e-05
3.68088779e-05
3.68228163e-05
3.56989537e-05
3.49963134e-05
3.5544875e-05
3.67965406e-05
3.68610609e-05
3.55951145e-05
3.55757218e-05
3.6805306e-05
3.68200379e-05
3.56972252e-05
3.49627698e-05
3.54931467e-05
3.67914773e-05
3.68599799e-05
3.55235377e-05
3.54686395e-05
3.67800424e-05
3.68441745e-05
3.55503588e-05
3.55161107e-05
3.67860376e-05
3.68485193e-05
3.55833641e-05
3.55505859e-05
3.67970257e-05
3.68222093e-05
3.56982952e-05
3.50146124e-05
3.54726597e-05
3.67991037e-05
3.68765664e-05
3.56332823e-05
3.55419243e-05
3.67829947e-05
3.68262614e-05
3.57047614e-05
3.5138124e-05
3.55766684e-05
3.68038787e-05
3.68429373e-05
3.57048734e-05
3.50928132e-05
3.54967564e-05
3.67946497e-05
3.68761571e-05
3.56957112e-05
3.55874279e-05
3.67635242e-05
3.68279881e-05
3.57075201e-05
3.51307888e-05
3.55012059e-05
3.67853131e-05
3.68782935e-05
3.56933344e-05
3.5605742e-05
3.67468214e-05
3.68346519e-05
3.57183784e-05
3.52200287e-05
3.55847988e-05
3.67791083e-05
3.68456665e-05
3.56984512e-05
3.50201713e-05
3.50927506e-05
3.62449701e-05
3.68054479e-05
3.68051839e-05
3.68213432e-05
3.58187321e-05
3.55707596e-05
3.55722002e-05
3.55433667e-05
3.52896001e-05
3.53992451e-05
3.67629958e-05
3.68653269e-05
3.57299553e-05
3.57072104e-05
3.67058251e-05
3.68454373e-05
3.57634298e-05
3.5352979e-05
3.5586961e-05
3.6746852e-05
3.6859172e-05
3.57819117e-05
3.54691097e-05
3.52930199e-05
3.53105016e-05
3.67254623e-05
3.68722669e-05
3.57083631e-05
3.56756955e-05
3.66280285e-05
3.68448262e-05
3.57728722e-05
3.53093436e-05
3.54659447e-05
3.67377216e-05
3.6852167e-05
)
;

boundaryField
{
    closed
    {
        type            calculated;
        value           uniform 5.12920497e-05;
    }
    open
    {
        type            calculated;
        value           nonuniform List<scalar> 0();
    }
    sides
    {
        type            empty;
    }
    procBoundary0to1
    {
        type            processor;
        value           uniform 3.57840429e-05;
    }
}


// ************************************************************************* //
