/*--------------------------------*- C++ -*----------------------------------*\
| =========                 |                                                 |
| \\      /  F ield         | OpenFOAM: The Open Source CFD Toolbox           |
|  \\    /   O peration     | Version:  2306                                  |
|   \\  /    A nd           | Website:  www.openfoam.com                      |
|    \\/     M anipulation  |                                                 |
\*---------------------------------------------------------------------------*/
FoamFile
{
    version     2.0;
    format      ascii;
    arch        "LSB;label=32;scalar=64";
    class       volScalarField;
    location    "0.00066";
    object      prefDPV_H2;
}
// * * * * * * * * * * * * * * * * * * * * * * * * * * * * * * * * * * * * * //

dimensions      [1 -1 -1 0 0 0 0];

internalField   nonuniform List<scalar> 
530
(
-3.13945795e-05
-3.09926133e-05
-3.09197805e-05
-3.09188891e-05
-3.09188089e-05
-3.09188071e-05
-3.0918807e-05
-3.0918807e-05
-3.0918807e-05
-3.0918807e-05
-3.0918807e-05
-3.0918807e-05
-3.0918807e-05
-3.0918807e-05
-3.0918807e-05
-3.0918807e-05
-3.0918807e-05
-3.0918807e-05
-3.0918807e-05
-3.0918807e-05
-3.0918807e-05
-3.0918807e-05
-3.0918807e-05
-3.0918807e-05
-3.0918807e-05
-3.0918807e-05
-3.0918807e-05
-3.0918807e-05
-3.0918807e-05
-3.0918807e-05
-3.0918807e-05
-3.0918807e-05
-3.0918807e-05
-3.0918807e-05
-3.0918807e-05
-3.0918807e-05
-3.0918807e-05
-3.0918807e-05
-3.0918807e-05
-3.0918807e-05
-3.0918807e-05
-3.0918807e-05
-3.0918807e-05
-3.0918807e-05
-3.0918807e-05
-3.0918807e-05
-3.0918807e-05
-3.0918807e-05
-3.0918807e-05
-3.0918807e-05
-3.0918807e-05
-3.0918807e-05
-3.0918807e-05
-3.0918807e-05
-3.0918807e-05
-3.0918807e-05
-3.0918807e-05
-3.0918807e-05
-3.0918807e-05
-3.0918807e-05
-3.0918807e-05
-3.0918807e-05
-3.0918807e-05
-3.0918807e-05
-3.0918807e-05
-3.0918807e-05
-3.0918807e-05
-3.0918807e-05
-3.0918807e-05
-3.0918807e-05
-3.0918807e-05
-3.0918807e-05
-3.0918807e-05
-3.0918807e-05
-3.0918807e-05
-3.09188072e-05
-3.09188073e-05
-3.09188081e-05
-3.09188095e-05
-3.09188111e-05
-3.09188191e-05
-3.09188308e-05
-3.09188465e-05
-3.09188685e-05
-3.09189269e-05
-3.09190474e-05
-3.09192153e-05
-3.09194205e-05
-3.09197689e-05
-3.09197971e-05
-3.09188873e-05
-3.09195005e-05
-3.09279326e-05
-3.09392361e-05
-3.09352588e-05
-3.08994849e-05
-3.09120605e-05
-3.09085602e-05
-3.15797551e-05
-3.15270419e-05
-3.09388605e-05
-3.0644316e-05
-3.06584735e-05
-3.09109521e-05
-3.15067714e-05
-3.15625372e-05
-3.15159923e-05
-3.08989185e-05
-3.0569361e-05
-3.05720767e-05
-3.08993441e-05
-3.15051571e-05
-3.15720677e-05
-3.15747436e-05
-3.08952982e-05
-3.06142041e-05
-3.05860226e-05
-3.08768046e-05
-3.14655404e-05
-3.15563344e-05
-3.08696339e-05
-3.09018736e-05
-3.12990658e-05
-3.15217391e-05
-3.08720819e-05
-3.04736104e-05
-3.06187141e-05
-3.12669901e-05
-3.15132575e-05
-3.08621176e-05
-3.07900805e-05
-3.10046704e-05
-3.14639405e-05
-3.08953807e-05
-3.08268923e-05
-3.09516802e-05
-3.14320039e-05
-3.09291623e-05
-3.08409795e-05
-3.09196807e-05
-3.1405293e-05
-3.09634388e-05
-3.08550289e-05
-3.09020934e-05
-3.13868443e-05
-3.10039873e-05
-3.08854437e-05
-3.08958244e-05
-3.13788791e-05
-3.10429072e-05
-3.09266724e-05
-3.09001882e-05
-3.13712775e-05
-3.11098806e-05
-3.0765162e-05
-3.04866908e-05
-3.08896607e-05
-3.13917856e-05
-3.10925452e-05
-3.09291659e-05
-3.0896432e-05
-3.13614484e-05
-3.11484666e-05
-3.07968577e-05
-3.04767392e-05
-3.08903246e-05
-3.13803186e-05
-3.1110413e-05
-3.08866632e-05
-3.08956805e-05
-3.13546256e-05
-3.11120557e-05
-3.08967543e-05
-3.08988021e-05
-3.13691792e-05
-3.11208986e-05
-3.08865969e-05
-3.08982199e-05
-3.13844186e-05
-3.11299269e-05
-3.08833113e-05
-3.08982612e-05
-3.14084372e-05
-3.11416086e-05
-3.09328273e-05
-3.09011381e-05
-3.1425132e-05
-3.12008925e-05
-3.07950661e-05
-3.0444716e-05
-3.08894384e-05
-3.14332909e-05
-3.11551963e-05
-3.08470867e-05
-3.09005981e-05
-3.14441123e-05
-3.11625687e-05
-3.09404605e-05
-3.09097217e-05
-3.14569715e-05
-3.12366508e-05
-3.08381547e-05
-3.0477598e-05
-3.08945199e-05
-3.14604102e-05
-3.11752977e-05
-3.0894029e-05
-3.09097024e-05
-3.14727843e-05
-3.12438863e-05
-3.08078069e-05
-3.04311725e-05
-3.08939662e-05
-3.14650106e-05
-3.11705422e-05
-3.0783073e-05
-3.09049217e-05
-3.1477889e-05
-3.1174525e-05
-3.07999892e-05
-3.09076137e-05
-3.14865614e-05
-3.11863119e-05
-3.08033487e-05
-3.09087502e-05
-3.14964612e-05
-3.11925945e-05
-3.08436034e-05
-3.09160913e-05
-3.15040362e-05
-3.12929878e-05
-3.07667981e-05
-3.03753981e-05
-3.08924909e-05
-3.14848791e-05
-3.11913312e-05
-3.07266341e-05
-3.09093875e-05
-3.14999334e-05
-3.12164548e-05
-3.07793829e-05
-3.09154795e-05
-3.15123925e-05
-3.12349933e-05
-3.08433584e-05
-3.09299037e-05
-3.15244154e-05
-3.13838498e-05
-3.07768698e-05
-3.0373999e-05
-3.0898317e-05
-3.15001655e-05
-3.12762062e-05
-3.0767918e-05
-3.09269612e-05
-3.15289487e-05
-3.13000177e-05
-3.0884921e-05
-3.09351479e-05
-3.15420105e-05
-3.14593741e-05
-3.08445416e-05
-3.04668008e-05
-3.09100706e-05
-3.1522615e-05
-3.14392884e-05
-3.09368213e-05
-3.09288499e-05
-3.15456072e-05
-3.15079854e-05
-3.09165316e-05
-3.08019251e-05
-3.07449833e-05
-3.05808522e-05
-3.09114193e-05
-3.15370101e-05
-3.14893776e-05
-3.08450453e-05
-3.04762025e-05
-3.09080212e-05
-3.15262963e-05
-3.14782718e-05
-3.08932843e-05
-3.09405568e-05
-3.15617795e-05
-3.14801693e-05
-3.09169066e-05
-3.09205744e-05
-3.15642808e-05
-3.15178419e-05
-3.09037047e-05
-3.07846493e-05
-3.07943198e-05
-3.06849411e-05
-3.04879385e-05
-3.08783188e-05
-3.14907889e-05
-3.1574679e-05
-3.12383109e-05
-3.09022643e-05
-3.0941056e-05
-3.15746437e-05
-3.14917362e-05
-3.09219338e-05
-3.09324543e-05
-3.15722422e-05
-3.14958924e-05
-3.08713299e-05
-3.04794509e-05
-3.0903666e-05
-3.1543279e-05
-3.1504667e-05
-3.08353227e-05
-3.04117919e-05
-3.09062368e-05
-3.1535426e-05
-3.15046262e-05
-3.08935943e-05
-3.09322987e-05
-3.15697869e-05
-3.1499791e-05
-3.09127631e-05
-3.05368889e-05
-3.09020882e-05
-3.15470549e-05
-3.15169463e-05
-3.09153777e-05
-3.05581393e-05
-3.09017984e-05
-3.15481308e-05
-3.15236028e-05
-3.09109089e-05
-3.06100119e-05
-3.0900238e-05
-3.15493235e-05
-3.15427127e-05
-3.09178979e-05
-3.07419128e-05
-3.06551669e-05
-3.09202601e-05
-3.15587759e-05
-3.15230772e-05
-3.09134489e-05
-3.05328129e-05
-3.09092923e-05
-3.15466816e-05
-3.1528147e-05
-3.09154651e-05
-3.04579649e-05
-3.0913968e-05
-3.1535018e-05
-3.15499878e-05
-3.08264824e-05
-3.08720738e-05
-3.15667681e-05
-3.15462361e-05
-3.08961937e-05
-3.09389456e-05
-3.15767106e-05
-3.15312715e-05
-3.0906286e-05
-3.04780323e-05
-3.09140246e-05
-3.15493806e-05
-3.15456299e-05
-3.08892526e-05
-3.04128758e-05
-3.08495345e-05
-3.15356364e-05
-3.15733821e-05
-3.08581775e-05
-3.08873185e-05
-3.15683559e-05
-3.15388135e-05
-3.09087465e-05
-3.04464093e-05
-3.08562106e-05
-3.15281726e-05
-3.15731689e-05
-3.08906414e-05
-3.09006448e-05
-3.15493069e-05
-3.15379112e-05
-3.09043273e-05
-3.05024083e-05
-3.0921556e-05
-3.15254523e-05
-3.15477767e-05
-3.09105363e-05
-3.04717542e-05
-3.08943926e-05
-3.15202106e-05
-3.15421251e-05
-3.09122858e-05
-3.03997697e-05
-3.07919154e-05
-3.15017515e-05
-3.15602182e-05
-3.08300803e-05
-3.07936568e-05
-3.15019183e-05
-3.1551617e-05
-3.08734637e-05
-3.08578555e-05
-3.15144208e-05
-3.15322124e-05
-3.09050447e-05
-3.03600523e-05
-3.07527744e-05
-3.14952418e-05
-3.15552683e-05
-3.07941734e-05
-3.07643631e-05
-3.14949839e-05
-3.15475356e-05
-3.08472914e-05
-3.08404414e-05
-3.15112485e-05
-3.15321623e-05
-3.0905068e-05
-3.03848634e-05
-3.07822376e-05
-3.14957396e-05
-3.15550775e-05
-3.08384568e-05
-3.08249749e-05
-3.15064252e-05
-3.15283228e-05
-3.09061171e-05
-3.03961558e-05
-3.07964997e-05
-3.14932003e-05
-3.15521188e-05
-3.08342549e-05
-3.08173724e-05
-3.15020201e-05
-3.1525761e-05
-3.09054769e-05
-3.03717069e-05
-3.07589745e-05
-3.1486392e-05
-3.15503161e-05
-3.07817132e-05
-3.07390961e-05
-3.14739031e-05
-3.15375244e-05
-3.08017173e-05
-3.0773271e-05
-3.14803641e-05
-3.15415541e-05
-3.08265489e-05
-3.07994155e-05
-3.14909492e-05
-3.15290026e-05
-3.09026255e-05
-3.04104066e-05
-3.07447602e-05
-3.14935988e-05
-3.15698282e-05
-3.08630111e-05
-3.0794418e-05
-3.14760861e-05
-3.15339257e-05
-3.09001965e-05
-3.05008756e-05
-3.08208494e-05
-3.1500929e-05
-3.15480752e-05
-3.09001267e-05
-3.04679847e-05
-3.07626906e-05
-3.14898546e-05
-3.15745746e-05
-3.09063237e-05
-3.08282783e-05
-3.14555681e-05
-3.15359581e-05
-3.08962654e-05
-3.04952572e-05
-3.07663034e-05
-3.14801771e-05
-3.15774762e-05
-3.09000365e-05
-3.08421004e-05
-3.14377961e-05
-3.15427939e-05
-3.08937891e-05
-3.05607908e-05
-3.08268198e-05
-3.14750972e-05
-3.15491181e-05
-3.08922673e-05
-3.04152772e-05
-3.04687888e-05
-3.11273185e-05
-3.15082628e-05
-3.15142345e-05
-3.15283967e-05
-3.09234543e-05
-3.08157839e-05
-3.08168137e-05
-3.07960927e-05
-3.06116669e-05
-3.06907071e-05
-3.14565989e-05
-3.15710148e-05
-3.08921086e-05
-3.0902186e-05
-3.13961799e-05
-3.15559716e-05
-3.08990049e-05
-3.06584961e-05
-3.08292768e-05
-3.14437348e-05
-3.15674184e-05
-3.09085035e-05
-3.07443208e-05
-3.06154513e-05
-3.06271736e-05
-3.14111638e-05
-3.15754373e-05
-3.08840567e-05
-3.08946233e-05
-3.13424096e-05
-3.15528743e-05
-3.09012222e-05
-3.06271367e-05
-3.0740382e-05
-3.14270926e-05
-3.1558333e-05
)
;

boundaryField
{
    closed
    {
        type            calculated;
        value           uniform -4.03566858e-05;
    }
    open
    {
        type            calculated;
        value           nonuniform List<scalar> 0();
    }
    sides
    {
        type            empty;
    }
    procBoundary0to1
    {
        type            processor;
        value           uniform -3.09052351e-05;
    }
}


// ************************************************************************* //
