/*--------------------------------*- C++ -*----------------------------------*\
| =========                 |                                                 |
| \\      /  F ield         | OpenFOAM: The Open Source CFD Toolbox           |
|  \\    /   O peration     | Version:  2306                                  |
|   \\  /    A nd           | Website:  www.openfoam.com                      |
|    \\/     M anipulation  |                                                 |
\*---------------------------------------------------------------------------*/
FoamFile
{
    version     2.0;
    format      ascii;
    arch        "LSB;label=32;scalar=64";
    class       volScalarField;
    location    "0.00066";
    object      prefDh_H2O;
}
// * * * * * * * * * * * * * * * * * * * * * * * * * * * * * * * * * * * * * //

dimensions      [1 1 -3 0 0 0 0];

internalField   nonuniform List<scalar> 
530
(
90.3001575
89.8258241
89.8187631
89.8195172
89.8195739
89.8195747
89.8195748
89.8195748
89.8195748
89.8195748
89.8195748
89.8195748
89.8195748
89.8195748
89.8195748
89.8195748
89.8195748
89.8195748
89.8195748
89.8195748
89.8195748
89.8195748
89.8195748
89.8195748
89.8195748
89.8195748
89.8195748
89.8195748
89.8195748
89.8195748
89.8195748
89.8195748
89.8195748
89.8195748
89.8195748
89.8195748
89.8195748
89.8195748
89.8195748
89.8195748
89.8195748
89.8195748
89.8195748
89.8195748
89.8195748
89.8195748
89.8195748
89.8195748
89.8195748
89.8195748
89.8195748
89.8195748
89.8195748
89.8195748
89.8195748
89.8195748
89.8195748
89.8195748
89.8195748
89.8195748
89.8195748
89.8195748
89.8195748
89.8195748
89.8195748
89.8195748
89.8195748
89.8195748
89.8195748
89.8195748
89.8195748
89.8195748
89.8195748
89.8195748
89.8195748
89.8195747
89.8195745
89.8195751
89.8195757
89.8195643
89.819575
89.819598
89.8195863
89.8193979
89.8194211
89.8196432
89.8199374
89.8204173
89.8210708
89.8163039
89.7932592
89.7906783
89.8873797
90.0152824
89.9164631
89.1534881
88.5952249
89.3784308
92.3897387
92.6338856
88.3904197
87.9647319
87.9992193
88.2571731
92.5362359
92.1879056
92.5537584
88.9508916
87.8717059
87.8503985
88.4520386
92.5088805
92.1574378
92.3283947
88.9852517
87.9328694
87.8719126
88.255336
92.7017724
92.5358475
88.407546
88.2847655
92.5996148
92.4687206
88.7928249
87.7841168
87.9847948
92.4097703
92.6776815
89.1454883
88.1460296
90.6438572
92.8093292
89.6618103
88.1823297
90.1473664
92.9213534
90.0445985
88.1938358
89.7638447
93.0192102
90.3621272
88.2046783
89.4836381
93.0271804
90.6886136
88.2345293
89.3206755
92.9884167
90.9749395
88.3777759
89.3736808
92.9786782
91.4308918
88.0705872
87.8241027
89.1389044
93.053857
91.3185265
88.374705
89.1394051
92.921538
91.6884851
88.1117073
87.8217139
88.9208237
92.9926056
91.4359152
88.249899
88.8393353
92.8569794
91.4464596
88.2700447
88.8493572
92.9341426
91.5036499
88.2613155
88.8267446
93.0107195
91.5612526
88.2598259
88.8227199
93.0252619
91.6346979
88.3223332
88.9524434
92.909599
92.0155295
88.1145467
87.7860791
88.7360052
92.9408931
91.7180947
88.2249671
88.7700832
92.8973603
91.7652985
88.3396293
88.9873855
92.7728502
92.2325191
88.1715493
87.8285857
88.814532
92.8147895
91.8413823
88.2845803
88.8891318
92.7285572
92.2731519
88.1362003
87.7788636
88.7286724
92.7996824
91.8121532
88.1612639
88.6801887
92.7589882
91.8378506
88.1831175
88.7202032
92.714677
91.9088971
88.1837209
88.7296404
92.6783483
91.9451311
88.2278053
88.7948686
92.6180007
92.5452304
88.0847934
87.7156782
88.6119039
92.738403
91.9327067
88.094243
88.55428
92.6825215
92.0824003
88.1531762
88.6370742
92.6230268
92.1888783
88.2218993
88.7100052
92.5498841
93.0233137
88.0981175
87.7206142
88.5847412
92.676524
92.4084629
88.1316278
88.5279438
92.5736581
92.5449336
88.2587984
88.7258748
92.4712598
92.7890874
88.1810511
87.8139292
88.6388229
92.5624938
93.0121429
88.3952345
88.8332606
92.4019358
92.525234
88.6888823
88.1773974
88.0577169
87.9144133
88.5889173
92.5111964
92.6683748
88.1866792
87.8143738
88.5364969
92.5468669
92.8367956
88.2594755
88.5043056
92.4228109
92.7895658
88.558847
88.9059388
92.3495272
92.4786521
88.8636699
88.1246661
88.1335088
87.9749636
87.8121227
88.3634506
92.6955224
92.211925
92.2227859
88.4813922
88.6156446
92.3757485
92.7410709
88.3465981
88.5987975
92.370887
92.6128691
88.2027001
87.8056943
88.5070914
92.4978261
92.6270803
88.1697445
87.7292809
88.3170333
92.5351768
92.7345727
88.2555759
88.4883275
92.3706434
92.5813729
88.2843075
87.8662264
88.6138609
92.4377837
92.5339913
88.3386666
87.8839665
88.6400198
92.4143661
92.488477
88.4869011
87.9405343
88.7451947
92.3577293
92.3794349
88.9172685
88.0666307
87.9740264
88.4669913
92.3962726
92.4794542
88.340648
87.8530513
88.531646
92.4170404
92.4704327
88.2596703
87.7709034
88.2532116
92.4778272
92.5009249
88.1725096
88.231681
92.3505152
92.4816786
88.2397459
88.3531177
92.3030598
92.4221851
88.2598536
87.7842328
88.3227137
92.4192806
92.4245837
88.2249111
87.7101232
88.1805121
92.4700999
92.413468
88.2031825
88.2543372
92.3233791
92.387082
88.2738628
87.7522452
88.1929286
92.4776325
92.3988315
88.2401305
88.2694949
92.3805128
92.3729342
88.3878928
87.8135765
88.2898041
92.4701955
92.3818001
88.3921186
87.7770126
88.2462937
92.4973646
92.4086306
88.3231264
87.7018314
88.1284264
92.5680184
92.4334729
88.169034
88.1502055
92.5648562
92.4294698
88.2102653
88.2288666
92.5249645
92.39905
88.2534466
87.6560418
88.0828907
92.5959345
92.472059
88.1234349
88.1210788
92.5905015
92.4627239
88.1773277
88.2088365
92.5304294
92.388382
88.2851583
87.6813569
88.120255
92.5822841
92.4733257
88.1732418
88.1900669
92.542109
92.3959566
88.3262465
87.6959308
88.1395524
92.5885303
92.483657
88.1690951
88.1829867
92.5633116
92.400808
88.3151596
87.6689411
88.0945337
92.6261773
92.496408
88.1133421
88.0966725
92.6723025
92.4999984
88.1307348
88.1407153
92.6492908
92.4920936
88.14992
88.1580547
92.6240373
92.3803276
88.3760599
87.6999187
88.0695493
92.610532
92.4105583
88.1910046
88.1363343
92.6744247
92.3572702
88.4978603
87.7948837
88.1532198
92.5627714
92.3446521
88.5004333
87.7564668
88.0855442
92.6134083
92.3422212
88.2820358
88.1667316
92.7428755
92.348326
88.598101
87.7920657
88.0851808
92.6440711
92.3259297
88.3567453
88.1769234
92.8038677
92.327376
88.7762472
87.8592604
88.1595438
92.6462409
92.3597288
88.5505453
87.6947879
87.7465338
91.5442779
92.4807458
92.3975258
92.3792456
89.5477054
88.1565674
88.1579924
88.1306856
87.9144418
88.01475
92.723344
92.2745939
88.9504138
88.495547
92.926466
92.2649951
89.2580575
87.9595435
88.1517844
92.7242023
92.257366
89.3325044
88.0428815
87.9026308
87.9285654
92.9344522
92.289076
88.8125399
88.2192801
92.8084671
92.30018
89.3404216
87.9184947
88.058249
92.850844
92.304984
)
;

boundaryField
{
    closed
    {
        type            calculated;
        value           uniform 120.152737;
    }
    open
    {
        type            calculated;
        value           nonuniform List<scalar> 0();
    }
    sides
    {
        type            empty;
    }
    procBoundary0to1
    {
        type            processor;
        value           uniform 89.414531;
    }
}


// ************************************************************************* //
