/*--------------------------------*- C++ -*----------------------------------*\
| =========                 |                                                 |
| \\      /  F ield         | OpenFOAM: The Open Source CFD Toolbox           |
|  \\    /   O peration     | Version:  2306                                  |
|   \\  /    A nd           | Website:  www.openfoam.com                      |
|    \\/     M anipulation  |                                                 |
\*---------------------------------------------------------------------------*/
FoamFile
{
    version     2.0;
    format      ascii;
    arch        "LSB;label=32;scalar=64";
    class       volVectorField;
    location    "0.00134";
    object      U;
}
// * * * * * * * * * * * * * * * * * * * * * * * * * * * * * * * * * * * * * //

dimensions      [0 1 -1 0 0 0 0];

internalField   nonuniform List<vector> 
531
(
(-0.06403853 0 0)
(-0.0710483838 0 0)
(-0.0767683987 0 0)
(-0.0835649429 0 0)
(-0.0836779959 0 0)
(-0.0842310471 0 0)
(-0.0900603042 0 0)
(-0.0877611741 0 0)
(-0.0922417784 0 0)
(-0.103436541 0 0)
(-0.0990893346 0 0)
(-0.104207456 0 0)
(-0.13190568 0 0)
(-0.124489199 0 0)
(-0.108359718 0 0)
(-0.107604209 0 0)
(-0.0954600675 0 0)
(-0.0918023772 0 0)
(-0.0977757948 0 0)
(-0.0874854005 0 0)
(-0.0759030116 0 0)
(-0.0784913104 0 0)
(-0.0563941473 0 0)
(-0.0291499248 0 0)
(-0.0174280718 0 0)
(0.00507415729 0 0)
(0.0180170718 0 0)
(0.031031979 0 0)
(0.0547770395 0 0)
(0.0929527974 0 0)
(0.122879303 0 0)
(0.125900712 0 0)
(0.152709268 0 0)
(0.197940632 0 0)
(0.229071105 0 0)
(0.255644027 0 0)
(0.287856611 0 0)
(0.337386867 0 0)
(0.392685776 0 0)
(0.429379518 0 0)
(0.464199773 0 0)
(0.512136171 0 0)
(0.561560839 0 0)
(0.607810699 0 0)
(0.648654738 0 0)
(0.699764816 0 0)
(0.761476147 0 0)
(0.817979285 0 0)
(0.875295277 0 0)
(0.935539026 0 0)
(1.0052704 0 0)
(1.07929178 0 0)
(1.12894247 0 0)
(1.15651741 0 0)
(1.21416804 0 0)
(1.28727572 0 0)
(1.34789487 0 0)
(1.41099204 0 0)
(1.47647979 0 0)
(1.52511067 0 0)
(1.57152488 0 0)
(1.63177315 0 0)
(1.66901685 0 0)
(1.7328144 0 0)
(1.80299484 0 0)
(1.82920623 0 0)
(1.8862292 0 0)
(1.96106025 0 0)
(2.02621655 0 0)
(2.0827525 0 0)
(2.1370416 0 0)
(2.21640272 0 0)
(2.28256051 0 0)
(2.3315119 0 0)
(2.35976661 0 0)
(2.36289456 0 0)
(2.40251499 0 0)
(2.40871636 0 0)
(2.44649005 0 0)
(2.48659994 0 0)
(2.47001204 0 0)
(2.48853658 0 0)
(2.48924233 0 0)
(2.51656505 0 0)
(2.54117125 0 0)
(2.524503 0 0)
(2.55399745 0 0)
(2.6038954 0 0)
(2.63846878 0 0)
(2.69674356 0 0)
(2.72895638 0 0)
(2.69827526 0 0)
(2.71621059 0 0)
(2.73620056 0 0)
(2.6979265 0 0)
(2.66621011 0 0)
(2.68078044 0 0)
(2.7035662 0 0)
(2.71594062 0 0)
(2.7189341 0 0)
(2.65394013 0 0)
(2.58729511 0 0)
(2.57158981 0 0)
(2.56594359 0 0)
(2.49865512 0 0)
(2.43470107 0 0)
(2.41412729 0 0)
(2.39594898 0 0)
(2.38231094 0 0)
(2.34228931 0 0)
(2.27389251 0 0)
(2.23686075 0 0)
(2.22634758 0 0)
(2.15625739 0 0)
(2.0280053 0 0)
(1.94614949 0 0)
(1.89949306 0 0)
(1.87748331 0 0)
(1.8038467 0 0)
(1.67925832 0 0)
(1.59696611 0 0)
(1.54803973 0 0)
(1.50567952 0 0)
(1.44986946 0 0)
(1.39058839 0 0)
(1.33988679 0 0)
(1.31091741 0 0)
(1.2859527 0 0)
(1.25752093 0 0)
(1.2280156 0 0)
(1.19833505 0 0)
(1.17205384 0 0)
(1.156723 0 0)
(1.14251512 0 0)
(1.12437546 0 0)
(1.12825648 0 0)
(1.13073819 0 0)
(1.09143353 0 0)
(1.07754836 0 0)
(1.0883906 0 0)
(1.0945508 0 0)
(1.05969217 0 0)
(1.04391788 0 0)
(1.05549981 0 0)
(1.05172107 0 0)
(1.04030832 0 0)
(1.05369637 0 0)
(1.05100177 0 0)
(1.04119915 0 0)
(1.0399785 0 0)
(1.04317556 0 0)
(1.04411748 0 0)
(1.05478581 0 0)
(1.04692727 0 0)
(1.03641952 0 0)
(1.04439552 0 0)
(1.04593016 0 0)
(1.04101076 0 0)
(1.06753193 0 0)
(1.06992549 0 0)
(1.05974362 0 0)
(1.06018597 0 0)
(1.04999835 0 0)
(1.04927553 0 0)
(1.05415291 0 0)
(1.0343592 0 0)
(1.01985322 0 0)
(1.03056332 0 0)
(1.02938696 0 0)
(1.02639064 0 0)
(1.04334876 0 0)
(1.04041192 0 0)
(1.02723512 0 0)
(1.02967721 0 0)
(1.03058394 0 0)
(1.01662258 0 0)
(1.01365046 0 0)
(1.0031965 0 0)
(0.973903057 0 0)
(0.961225678 0 0)
(0.957271641 0 0)
(0.94217905 0 0)
(0.91618975 0 0)
(0.899915272 0 0)
(0.897327399 0 0)
(0.870639872 0 0)
(0.84476897 0 0)
(0.836065329 0 0)
(0.818671658 0 0)
(0.800033225 0 0)
(0.807839533 0 0)
(0.806958957 0 0)
(0.788428528 0 0)
(0.776877755 0 0)
(0.774988956 0 0)
(0.782461422 0 0)
(0.790635677 0 0)
(0.779266886 0 0)
(0.780329074 0 0)
(0.798176415 0 0)
(0.8044262 0 0)
(0.801317963 0 0)
(0.804371946 0 0)
(0.817614353 0 0)
(0.813031679 0 0)
(0.796813356 0 0)
(0.803767324 0 0)
(0.813502331 0 0)
(0.803115578 0 0)
(0.789072016 0 0)
(0.79457425 0 0)
(0.80346049 0 0)
(0.791916296 0 0)
(0.773746702 0 0)
(0.77315812 0 0)
(0.779111889 0 0)
(0.764652485 0 0)
(0.740737977 0 0)
(0.731686601 0 0)
(0.745476788 0 0)
(0.73913534 0 0)
(0.709484606 0 0)
(0.696414286 0 0)
(0.680184379 0 0)
(0.67809103 0 0)
(0.664565301 0 0)
(0.63346461 0 0)
(0.620323606 0 0)
(0.605651287 0 0)
(0.604172047 0 0)
(0.592536193 0 0)
(0.564104058 0 0)
(0.551340257 0 0)
(0.557015116 0 0)
(0.547213999 0 0)
(0.518014131 0 0)
(0.503227601 0 0)
(0.488835289 0 0)
(0.484566133 0 0)
(0.472852264 0 0)
(0.447504961 0 0)
(0.434549747 0 0)
(0.436579701 0 0)
(0.427554098 0 0)
(0.400069448 0 0)
(0.383504296 0 0)
(0.383264167 0 0)
(0.37448471 0 0)
(0.347855942 0 0)
(0.329063925 0 0)
(0.327463581 0 0)
(0.319236752 0 0)
(0.297832677 0 0)
(0.286789392 0 0)
(0.275376283 0 0)
(0.27055382 0 0)
(0.263590619 0 0)
(0.248809845 0 0)
(0.237441136 0 0)
(0.241082418 0 0)
(0.242230339 0 0)
(0.228931701 0 0)
(0.226771937 0 0)
(0.230312649 0 0)
(0.22885127 0 0)
(0.227301456 0 0)
(0.224361419 0 0)
(0.220452815 0 0)
(0.220554531 0 0)
(0.221348261 0 0)
(0.226703815 0 0)
(0.228755553 0 0)
(0.226867743 0 0)
(0.230946269 0 0)
(0.237457583 0 0)
(0.243598168 0 0)
(0.247489374 0 0)
(0.251148329 0 0)
(0.262157047 0 0)
(0.273762992 0 0)
(0.278073773 0 0)
(0.283004667 0 0)
(0.288008749 0 0)
(0.287517907 0 0)
(0.290083165 0 0)
(0.293938846 0 0)
(0.293455407 0 0)
(0.295594847 0 0)
(0.304556273 0 0)
(0.304457909 0 0)
(0.295322063 0 0)
(0.29609086 0 0)
(0.294383601 0 0)
(0.297594151 0 0)
(0.296144745 0 0)
(0.288053775 0 0)
(0.288331395 0 0)
(0.287750516 0 0)
(0.283604993 0 0)
(0.278914073 0 0)
(0.286057179 0 0)
(0.294076223 0 0)
(0.296539071 0 0)
(0.300677911 0 0)
(0.299075706 0 0)
(0.294095595 0 0)
(0.295575567 0 0)
(0.303063137 0 0)
(0.313631543 0 0)
(0.319462737 0 0)
(0.31875183 0 0)
(0.328299981 0 0)
(0.335827428 0 0)
(0.337526381 0 0)
(0.347993447 0 0)
(0.353062436 0 0)
(0.356609197 0 0)
(0.354356813 0 0)
(0.360187651 0 0)
(0.363986737 0 0)
(0.368949491 0 0)
(0.368673904 0 0)
(0.359683303 0 0)
(0.363913191 0 0)
(0.365938287 0 0)
(0.368195093 0 0)
(0.365570152 0 0)
(0.354310976 0 0)
(0.356465343 0 0)
(0.35442584 0 0)
(0.350932498 0 0)
(0.345008513 0 0)
(0.330034784 0 0)
(0.326498443 0 0)
(0.331672005 0 0)
(0.336679999 0 0)
(0.328257906 0 0)
(0.310130397 0 0)
(0.302283618 0 0)
(0.303843896 0 0)
(0.305168554 0 0)
(0.294130174 0 0)
(0.275433182 0 0)
(0.268097025 0 0)
(0.255139625 0 0)
(0.230952378 0 0)
(0.232811462 0 0)
(0.233513034 0 0)
(0.206183213 0 0)
(0.189261152 0 0)
(0.181799744 0 0)
(0.166382606 0 0)
(0.156427152 0 0)
(0.156483886 0 0)
(0.147046767 0 0)
(0.142596257 0 0)
(0.138118279 0 0)
(0.122496572 0 0)
(0.108618939 0 0)
(0.098849855 0 0)
(0.0898774829 0 0)
(0.0780046122 0 0)
(0.0739750373 0 0)
(0.0629207871 0 0)
(0.0579200058 0 0)
(0.0491402346 0 0)
(0.0289047051 0 0)
(0.0236792008 0 0)
(0.0226501798 0 0)
(0.0158577939 0 0)
(0.0192524116 0 0)
(0.0114103512 0 0)
(-0.00284142659 0 0)
(-0.000143882281 0 0)
(0.00196081783 0 0)
(0.00457858521 0 0)
(0.00963404458 0 0)
(0.0150602401 0 0)
(0.0212183134 0 0)
(0.0277848466 0 0)
(0.0343932857 0 0)
(0.0405277701 0 0)
(0.0459020562 0 0)
(0.0498357239 0 0)
(0.0518180331 0 0)
(0.0515261297 0 0)
(0.0484539297 0 0)
(0.0422509834 0 0)
(0.0327057749 0 0)
(0.0186019409 0 0)
(0.00626114337 0 0)
(-0.0179192523 0 0)
(-0.0542334701 0 0)
(-0.0896405319 0 0)
(-0.126708742 0 0)
(-0.1631976 0 0)
(-0.197321965 0 0)
(-0.22747209 0 0)
(-0.25174628 0 0)
(-0.270708495 0 0)
(-0.283862121 0 0)
(-0.282995571 0 0)
(-0.279886607 0 0)
(-0.27644284 0 0)
(-0.266048965 0 0)
(-0.254574216 0 0)
(-0.240025172 0 0)
(-0.224224744 0 0)
(-0.211037806 0 0)
(-0.203157334 0 0)
(-0.194250783 0 0)
(-0.188365563 0 0)
(-0.171883133 0 0)
(-0.169712235 0 0)
(-0.165296615 0 0)
(-0.165741555 0 0)
(-0.162826234 0 0)
(-0.159982927 0 0)
(-0.158230849 0 0)
(-0.158108932 0 0)
(-0.162250918 0 0)
(-0.175157989 0 0)
(-0.194047564 0 0)
(-0.2284986 0 0)
(-0.288639468 0 0)
(-0.359156954 0 0)
(-0.376881529 0 0)
(-0.592098538 0 0)
(-0.918317866 0 0)
(-0.231780287 0 0)
(0.267228264 0 0)
(0.13471655 0 0)
(0.369913808 0 0)
(0.269456633 0 0)
(0.23144988 0 0)
(0.199003725 0 0)
(0.181559489 0 0)
(0.186592956 0 0)
(0.223885356 0 0)
(0.276228507 0 0)
(0.319928927 0 0)
(0.376532261 0 0)
(0.439982635 0 0)
(0.495567104 0 0)
(0.544282561 0 0)
(0.591901507 0 0)
(0.639325042 0 0)
(0.689743324 0 0)
(0.739873628 0 0)
(0.788416875 0 0)
(0.832740561 0 0)
(0.87334299 0 0)
(0.910351136 0 0)
(0.945851599 0 0)
(0.980059034 0 0)
(1.01315156 0 0)
(1.04477983 0 0)
(1.07512926 0 0)
(1.10424359 0 0)
(1.13237565 0 0)
(1.15936203 0 0)
(1.18538046 0 0)
(1.21044217 0 0)
(1.23483602 0 0)
(1.25835405 0 0)
(1.2814875 0 0)
(1.30421448 0 0)
(1.32630335 0 0)
(1.34733671 0 0)
(1.36758212 0 0)
(1.38651511 0 0)
(1.40370857 0 0)
(1.41929719 0 0)
(1.43419386 0 0)
(1.44864424 0 0)
(1.46261869 0 0)
(1.4761077 0 0)
(1.48934317 0 0)
(1.50253182 0 0)
(1.51545948 0 0)
(1.5276088 0 0)
(1.53869602 0 0)
(1.54874761 0 0)
(1.55779607 0 0)
(1.56566818 0 0)
(1.57224246 0 0)
(1.5774893 0 0)
(1.58130576 0 0)
(1.58349095 0 0)
(1.58373349 0 0)
(1.58186492 0 0)
(1.57786036 0 0)
(1.57173678 0 0)
(1.56347318 0 0)
(1.55331 0 0)
(1.54145576 0 0)
(1.5278065 0 0)
(1.51227033 0 0)
(1.49497625 0 0)
(1.47602688 0 0)
(1.45584894 0 0)
(1.43482097 0 0)
(1.41329546 0 0)
(1.39150124 0 0)
(1.36970523 0 0)
(1.34820102 0 0)
(1.32733872 0 0)
(1.3073515 0 0)
(1.2884692 0 0)
(1.27081808 0 0)
(1.25450499 0 0)
(1.23965311 0 0)
(1.22640822 0 0)
(1.21482878 0 0)
(1.20497874 0 0)
(1.19691261 0 0)
(1.19059376 0 0)
(1.18590488 0 0)
(1.18274678 0 0)
(1.18102912 0 0)
(1.18066129 0 0)
(1.18155249 0 0)
(1.18359868 0 0)
(1.18669933 0 0)
(1.19074315 0 0)
(1.19563029 0 0)
(1.20124933 0 0)
(1.2074824 0 0)
(1.21417432 0 0)
(1.22123229 0 0)
(1.22860699 0 0)
)
;

boundaryField
{
    closed
    {
        type            noSlip;
    }
    open
    {
        type            inletOutlet;
        inletValue      nonuniform List<vector> 0();
        value           nonuniform List<vector> 0();
    }
    sides
    {
        type            empty;
    }
    procBoundary4to3
    {
        type            processor;
        value           uniform (-0.05521629 0 0);
    }
    procBoundary4to5
    {
        type            processor;
        value           uniform (1.23624029 0 0);
    }
}


// ************************************************************************* //
