/*--------------------------------*- C++ -*----------------------------------*\
| =========                 |                                                 |
| \\      /  F ield         | OpenFOAM: The Open Source CFD Toolbox           |
|  \\    /   O peration     | Version:  2306                                  |
|   \\  /    A nd           | Website:  www.openfoam.com                      |
|    \\/     M anipulation  |                                                 |
\*---------------------------------------------------------------------------*/
FoamFile
{
    version     2.0;
    format      ascii;
    arch        "LSB;label=32;scalar=64";
    class       volScalarField;
    location    "0.00104";
    object      PV;
}
// * * * * * * * * * * * * * * * * * * * * * * * * * * * * * * * * * * * * * //

dimensions      [0 0 0 0 0 0 0];

internalField   nonuniform List<scalar> 
530
(
-0.00695725018
-0.00712416183
-0.00718171835
-0.00716983206
-0.00718939898
-0.00717965193
-0.00695990228
-0.00695571395
-0.00714974832
-0.00717074233
-0.00695977333
-0.00695642054
-0.00716661679
-0.00718219848
-0.00695785565
-0.00695947859
-0.00713295044
-0.00720349268
-0.00718245902
-0.00695958749
-0.00695922422
-0.00695970765
-0.00716005704
-0.0071949173
-0.0072277373
-0.00722762108
-0.00696270051
-0.00696382043
-0.00696236711
-0.00696315317
-0.00713850971
-0.00721145208
-0.00720583319
-0.00695903421
-0.00696229232
-0.00712413093
-0.00720267711
-0.00718067354
-0.00696086967
-0.00695707313
-0.00696139415
-0.00713224375
-0.00720205643
-0.00719762753
-0.00695975223
-0.00695875545
-0.00715692185
-0.00719247784
-0.00722206341
-0.00722006824
-0.0069625364
-0.00696257706
-0.00696235666
-0.00696206491
-0.00713226931
-0.00720698932
-0.0071963429
-0.00695866349
-0.0069606527
-0.00712550416
-0.00719299921
-0.00718744946
-0.006957226
-0.00695943048
-0.00711813447
-0.00719045098
-0.00718462419
-0.00695618009
-0.00695849488
-0.00711447475
-0.00719007931
-0.00717797683
-0.00695496534
-0.00695728975
-0.00712260021
-0.0071828887
-0.00717004354
-0.00719123573
-0.00717573419
-0.00695987984
-0.00695574937
-0.0071614396
-0.00716876071
-0.00695996396
-0.00695636548
-0.0069618626
-0.00714535123
-0.00721148097
-0.0072083671
-0.00695785466
-0.00696146481
-0.00713210056
-0.00721284592
-0.00718108148
-0.00696096855
-0.00695678046
-0.00696034835
-0.00695599812
-0.00713799891
-0.00719796115
-0.0072083405
-0.00720411853
-0.00696294458
-0.00695910991
-0.00717608075
-0.00718634233
-0.00696195222
-0.00695999466
-0.00717677032
-0.0071929088
-0.00695821591
-0.0069618344
-0.00714519163
-0.00721434269
-0.00719319229
-0.00696171372
-0.0069587915
-0.0069623026
-0.00714526021
-0.00720682665
-0.00720359091
-0.00695945745
-0.00696128677
-0.00713865119
-0.00720552311
-0.00720024348
-0.00696037091
-0.00695993872
-0.00716820889
-0.00719065616
-0.00695668347
-0.00696118066
-0.00715097888
-0.00721453931
-0.00720542022
-0.00696262997
-0.00695791035
-0.00717531243
-0.00718667987
-0.00696252517
-0.00695681441
-0.00718208804
-0.00718846867
-0.00696350597
-0.00695718456
-0.00718294312
-0.00718862198
-0.00696355519
-0.00695830635
-0.00718176863
-0.00718835428
-0.00696236983
-0.00695987823
-0.00717835134
-0.00719305481
-0.00695845932
-0.0069620562
-0.0071453049
-0.00721443529
-0.00719065094
-0.00696109718
-0.00695667456
-0.00696161472
-0.00714647622
-0.00719614358
-0.00717915655
-0.00720171484
-0.00719266922
-0.00696294075
-0.00695746851
-0.00716353009
-0.00717685554
-0.00696406427
-0.00695744952
-0.00717772606
-0.00718396894
-0.00696660655
-0.00695958675
-0.00718839512
-0.00719439454
-0.00696651648
-0.00696177647
-0.00720378376
-0.00721681458
-0.00701025015
-0.00696158458
-0.00696301859
-0.00695874745
-0.0069618159
-0.00716371885
-0.00721594171
-0.00719181412
-0.00721038196
-0.00720544222
-0.00695931148
-0.00696298955
-0.00713866152
-0.00720775726
-0.0071977782
-0.00696178289
-0.00695817977
-0.00717396936
-0.0071834995
-0.00696110185
-0.00695802347
-0.00718553519
-0.00718423892
-0.00695997399
-0.00696042906
-0.00696100247
-0.0071690947
-0.00719374688
-0.00695849079
-0.0069590752
-0.0071808383
-0.00717581965
-0.00695903013
-0.00713536475
-0.00719870113
-0.0069560331
-0.00695979022
-0.007151922
-0.00718428359
-0.00718854635
-0.00718863951
-0.00695733047
-0.00696162563
-0.00712884789
-0.00719550292
-0.00717726786
-0.00696022662
-0.00695696603
-0.00716257651
-0.00717889739
-0.00695639592
-0.00695849453
-0.00714705298
-0.00720178847
-0.00719274138
-0.00695734274
-0.00695938146
-0.00713444395
-0.0071960935
-0.00717382344
-0.00695880527
-0.00696055469
-0.00705987117
-0.00720358386
-0.00719760584
-0.00696007798
-0.00695647199
-0.00717788933
-0.00717641907
-0.00695932993
-0.00695713231
-0.00696114724
-0.00711589744
-0.0071827605
-0.00717765131
-0.00717523709
-0.00719107114
-0.00715897722
-0.00695650774
-0.00695455145
-0.00695873013
-0.00714523417
-0.00720321041
-0.00719377937
-0.00695590365
-0.00695986447
-0.00714148587
-0.00720942768
-0.00717472027
-0.00695923712
-0.00695582646
-0.00696156322
-0.00714868108
-0.0072119662
-0.00718985171
-0.00696058418
-0.00695767573
-0.00717444641
-0.00718679712
-0.00695727244
-0.00695994532
-0.00715453054
-0.00720742173
-0.00718593862
-0.00696073947
-0.00695841
-0.00717242588
-0.00718620232
-0.00695721015
-0.00695953061
-0.00715330046
-0.00721583288
-0.00717565749
-0.00695829292
-0.00695678243
-0.00695827397
-0.00715935521
-0.00719672511
-0.00719531958
-0.00719322532
-0.00696182752
-0.00695863728
-0.00717196797
-0.00718132769
-0.00696183585
-0.0069590508
-0.00718127418
-0.00719070891
-0.00695912903
-0.0069605668
-0.00717087075
-0.00721595017
-0.00709914115
-0.0069607131
-0.00695741909
-0.00695919856
-0.00717206855
-0.00719318721
-0.00696067956
-0.00696048951
-0.00716999949
-0.00719234396
-0.00719704872
-0.00719345191
-0.00696463331
-0.00695931345
-0.00719347213
-0.00720294271
-0.00696345399
-0.00695787802
-0.00719220601
-0.00719204565
-0.00696227977
-0.0069584786
-0.00718274177
-0.00716854319
-0.00695895144
-0.00714625969
-0.00719349832
-0.00695804127
-0.0069612285
-0.00716217738
-0.00721112487
-0.00718507329
-0.00695950535
-0.00695880651
-0.00716594999
-0.00721342543
-0.00711782306
-0.0069595715
-0.00695724415
-0.00695748113
-0.00717039031
-0.00719527008
-0.00696154803
-0.00695946607
-0.00718233315
-0.00719311117
-0.00695945451
-0.00696109141
-0.00716613522
-0.00721036799
-0.00717454111
-0.00696245308
-0.00695573657
-0.00717472652
-0.00718078645
-0.00696028055
-0.00695765303
-0.00716315359
-0.0072022183
-0.00716896945
-0.00695858198
-0.00695776494
-0.00715810305
-0.0071993408
-0.00716728416
-0.0069603702
-0.00695789042
-0.00717479678
-0.00720288484
-0.00706820082
-0.00696313382
-0.00701561528
-0.00720307043
-0.00720450917
-0.00696553348
-0.00695957908
-0.00717860684
-0.00718792643
-0.00696172838
-0.00695913465
-0.00716519101
-0.00720065559
-0.00713701943
-0.0069600457
-0.00695487044
-0.00715819251
-0.00719546363
-0.00713995252
-0.00695851398
-0.00695524648
-0.00715784751
-0.00719681168
-0.0071482608
-0.0069587379
-0.00695500187
-0.00715826901
-0.00719755
-0.00715205165
-0.00695870777
-0.00695491398
-0.00715895173
-0.00719894765
-0.0071590967
-0.00695867598
-0.00695574706
-0.00715827172
-0.00719899976
-0.00715665926
-0.00696177221
-0.00695393978
-0.00716875217
-0.00717809658
-0.00696274823
-0.00695739809
-0.00716545838
-0.0072062118
-0.00716074229
-0.0069632118
-0.0069542452
-0.00716999599
-0.00717894365
-0.00696380517
-0.0069577066
-0.00716738996
-0.00720767899
-0.00716217383
-0.00696373196
-0.00695477486
-0.00717009054
-0.00717905777
-0.00696411075
-0.00695806509
-0.0071691577
-0.00720879462
-0.00716291207
-0.00696415767
-0.00695513553
-0.00717104391
-0.00717911578
-0.00696446497
-0.00695857505
-0.0071711804
-0.00721112498
-0.00716584184
-0.00696421178
-0.00695518791
-0.00717332642
-0.00718050663
-0.00696392712
-0.00695837521
-0.00717479553
-0.00721338981
-0.0071667443
-0.00696463995
-0.00695557324
-0.00717234172
-0.0071801121
-0.00696564888
-0.0069573376
-0.0071769824
-0.00718387057
-0.00696479601
-0.00695811953
-0.00718121029
-0.00718586321
-0.00696212484
-0.00696029828
-0.00717997059
-0.00721390171
-0.00715628293
-0.00696570973
-0.00695650262
-0.0071736625
-0.00717881365
-0.00696520043
-0.00695877088
-0.00718427152
-0.00718731837
-0.00696360216
-0.00696152014
-0.00720703046
-0.00724066996
-0.00719683779
-0.00696469955
-0.00695875647
-0.00718663141
-0.00718877638
-0.00696149532
-0.00695834158
-0.00717881833
-0.00718012261
-0.00695799108
-0.00695743299
-0.00717012163
-0.00716580748
-0.0069559638
-0.00696051681
-0.00717280438
-0.00721520619
-0.00717446631
-0.0069623301
-0.00695522817
-0.00719178648
-0.00718035116
-0.00696074429
-0.00695885743
-0.00695947708
-0.00718597619
-0.00722490354
-0.00714804257
-0.00696030027
-0.0069569864
-0.00718667689
-0.00720700385
)
;

boundaryField
{
    closed
    {
        type            zeroGradient;
    }
    open
    {
        type            zeroGradient;
    }
    sides
    {
        type            empty;
    }
    procBoundary2to1
    {
        type            processor;
        value           uniform -0.00695589615;
    }
    procBoundary2to3
    {
        type            processor;
        value           uniform -0.00714274006;
    }
}


// ************************************************************************* //
