/*--------------------------------*- C++ -*----------------------------------*\
| =========                 |                                                 |
| \\      /  F ield         | OpenFOAM: The Open Source CFD Toolbox           |
|  \\    /   O peration     | Version:  2306                                  |
|   \\  /    A nd           | Website:  www.openfoam.com                      |
|    \\/     M anipulation  |                                                 |
\*---------------------------------------------------------------------------*/
FoamFile
{
    version     2.0;
    format      ascii;
    arch        "LSB;label=32;scalar=64";
    class       volVectorField;
    location    "0.00104";
    object      U;
}
// * * * * * * * * * * * * * * * * * * * * * * * * * * * * * * * * * * * * * //

dimensions      [0 1 -1 0 0 0 0];

internalField   nonuniform List<vector> 
530
(
(0.215999004 0 0)
(0.211470768 0 0)
(0.208243508 0 0)
(0.207248363 0 0)
(0.206302768 0 0)
(0.204846979 0 0)
(0.205599145 0 0)
(0.205029528 0 0)
(0.199933062 0 0)
(0.198182027 0 0)
(0.201560287 0 0)
(0.201373149 0 0)
(0.195239265 0 0)
(0.192582129 0 0)
(0.195780347 0 0)
(0.196495273 0 0)
(0.191523141 0 0)
(0.187076954 0 0)
(0.186585866 0 0)
(0.188823649 0 0)
(0.190664072 0 0)
(0.187916814 0 0)
(0.18301958 0 0)
(0.178149007 0 0)
(0.175949805 0 0)
(0.180874197 0 0)
(0.188011574 0 0)
(0.191731367 0 0)
(0.192875651 0 0)
(0.190537418 0 0)
(0.185090101 0 0)
(0.180556339 0 0)
(0.181234916 0 0)
(0.184931658 0 0)
(0.185933774 0 0)
(0.181650011 0 0)
(0.177217757 0 0)
(0.17651793 0 0)
(0.178850822 0 0)
(0.180812856 0 0)
(0.178453737 0 0)
(0.174214539 0 0)
(0.171476253 0 0)
(0.17308835 0 0)
(0.177194742 0 0)
(0.178721531 0 0)
(0.174359052 0 0)
(0.168417225 0 0)
(0.165336503 0 0)
(0.169537326 0 0)
(0.175694917 0 0)
(0.179142241 0 0)
(0.180617554 0 0)
(0.17887365 0 0)
(0.174298617 0 0)
(0.170738246 0 0)
(0.171501814 0 0)
(0.174586344 0 0)
(0.175585045 0 0)
(0.172031305 0 0)
(0.168468577 0 0)
(0.168552815 0 0)
(0.170812981 0 0)
(0.171569555 0 0)
(0.168396967 0 0)
(0.165366473 0 0)
(0.165541728 0 0)
(0.167591851 0 0)
(0.168356295 0 0)
(0.165532838 0 0)
(0.163074336 0 0)
(0.163094763 0 0)
(0.164670851 0 0)
(0.164993973 0 0)
(0.16223374 0 0)
(0.160516661 0 0)
(0.16107698 0 0)
(0.161843147 0 0)
(0.161306708 0 0)
(0.162003438 0 0)
(0.162382397 0 0)
(0.159275274 0 0)
(0.158758217 0 0)
(0.162632899 0 0)
(0.165953363 0 0)
(0.165031935 0 0)
(0.161772141 0 0)
(0.158872926 0 0)
(0.16072774 0 0)
(0.165867329 0 0)
(0.168913661 0 0)
(0.165812761 0 0)
(0.161911433 0 0)
(0.16024201 0 0)
(0.162056937 0 0)
(0.165520246 0 0)
(0.166410344 0 0)
(0.164306785 0 0)
(0.160835023 0 0)
(0.158884385 0 0)
(0.159586974 0 0)
(0.164355581 0 0)
(0.170393378 0 0)
(0.17157047 0 0)
(0.164763309 0 0)
(0.159963015 0 0)
(0.16309793 0 0)
(0.164440002 0 0)
(0.159087249 0 0)
(0.156092894 0 0)
(0.159385357 0 0)
(0.16155648 0 0)
(0.15795519 0 0)
(0.154157648 0 0)
(0.155552809 0 0)
(0.159822106 0 0)
(0.163078643 0 0)
(0.161537986 0 0)
(0.158028621 0 0)
(0.15561673 0 0)
(0.161495313 0 0)
(0.167579004 0 0)
(0.167453698 0 0)
(0.163912558 0 0)
(0.159906625 0 0)
(0.161136736 0 0)
(0.165503125 0 0)
(0.166954331 0 0)
(0.162001163 0 0)
(0.158876016 0 0)
(0.161504907 0 0)
(0.163362795 0 0)
(0.159270104 0 0)
(0.155173532 0 0)
(0.157165508 0 0)
(0.16187632 0 0)
(0.163297029 0 0)
(0.157526356 0 0)
(0.153687481 0 0)
(0.15657278 0 0)
(0.157601605 0 0)
(0.150897298 0 0)
(0.146650354 0 0)
(0.150100859 0 0)
(0.151600225 0 0)
(0.144741188 0 0)
(0.139865546 0 0)
(0.142906957 0 0)
(0.144471198 0 0)
(0.137571442 0 0)
(0.132181773 0 0)
(0.134778715 0 0)
(0.136492363 0 0)
(0.129937882 0 0)
(0.124350561 0 0)
(0.12599213 0 0)
(0.128680767 0 0)
(0.125514187 0 0)
(0.121406406 0 0)
(0.122115421 0 0)
(0.124854418 0 0)
(0.127574338 0 0)
(0.12478251 0 0)
(0.12225348 0 0)
(0.120767981 0 0)
(0.120268803 0 0)
(0.11995485 0 0)
(0.119782389 0 0)
(0.119843842 0 0)
(0.120669626 0 0)
(0.118359498 0 0)
(0.116427009 0 0)
(0.117604531 0 0)
(0.1185077 0 0)
(0.110880599 0 0)
(0.104114293 0 0)
(0.105656199 0 0)
(0.107280285 0 0)
(0.0990671571 0 0)
(0.0908903612 0 0)
(0.0920633424 0 0)
(0.0946775783 0 0)
(0.0886511517 0 0)
(0.0815466114 0 0)
(0.0828623334 0 0)
(0.0881241672 0 0)
(0.0892622655 0 0)
(0.08783985 0 0)
(0.0833445705 0 0)
(0.0787220043 0 0)
(0.0766176078 0 0)
(0.0762173013 0 0)
(0.0759622622 0 0)
(0.0754685295 0 0)
(0.0738950793 0 0)
(0.0755535264 0 0)
(0.0739766807 0 0)
(0.0699923912 0 0)
(0.071359954 0 0)
(0.0728902628 0 0)
(0.0737372033 0 0)
(0.0664987547 0 0)
(0.0584973688 0 0)
(0.0587350255 0 0)
(0.0611518538 0 0)
(0.0525427314 0 0)
(0.0425581853 0 0)
(0.0437957481 0 0)
(0.0499414385 0 0)
(0.0466133777 0 0)
(0.0396887017 0 0)
(0.0335205571 0 0)
(0.0330614548 0 0)
(0.0368814569 0 0)
(0.0297555817 0 0)
(0.0198818328 0 0)
(0.0190130524 0 0)
(0.0249509544 0 0)
(0.022236338 0 0)
(0.0187685466 0 0)
(0.024018538 0 0)
(0.0245486868 0 0)
(0.0202062914 0 0)
(0.0177199742 0 0)
(0.0191543859 0 0)
(0.0194175044 0 0)
(0.02360749 0 0)
(0.0238410849 0 0)
(0.0206126504 0 0)
(0.0213162056 0 0)
(0.0221037776 0 0)
(0.0241091809 0 0)
(0.0189845831 0 0)
(0.0121375428 0 0)
(0.0125566799 0 0)
(0.0182210356 0 0)
(0.0190193272 0 0)
(0.0168663489 0 0)
(0.0197414504 0 0)
(0.0209763347 0 0)
(0.0238041839 0 0)
(0.0246913389 0 0)
(0.0218991964 0 0)
(0.0206976719 0 0)
(0.0203426842 0 0)
(0.022235335 0 0)
(0.0207674278 0 0)
(0.017058904 0 0)
(0.0165427742 0 0)
(0.018516589 0 0)
(0.0229565955 0 0)
(0.0139248192 0 0)
(0.00247917997 0 0)
(0.00372124313 0 0)
(0.0103367 0 0)
(0.00917171647 0 0)
(0.0101457345 0 0)
(0.00848299895 0 0)
(0.00792553509 0 0)
(0.00942477975 0 0)
(0.010961499 0 0)
(0.0105405433 0 0)
(0.0099219865 0 0)
(0.01285824 0 0)
(0.00969619333 0 0)
(0.0100488378 0 0)
(0.0109218599 0 0)
(0.0150543382 0 0)
(0.0165050441 0 0)
(0.0199625578 0 0)
(0.0214023629 0 0)
(0.0202091489 0 0)
(0.0207779964 0 0)
(0.0221970741 0 0)
(0.0255107834 0 0)
(0.023117574 0 0)
(0.0234033652 0 0)
(0.0242920662 0 0)
(0.0278058022 0 0)
(0.0302946717 0 0)
(0.0330479174 0 0)
(0.0282218103 0 0)
(0.0214540455 0 0)
(0.0228595736 0 0)
(0.0289783513 0 0)
(0.0302760932 0 0)
(0.0295545046 0 0)
(0.0320900788 0 0)
(0.0343035716 0 0)
(0.0369946684 0 0)
(0.0326745599 0 0)
(0.0266652705 0 0)
(0.0282749159 0 0)
(0.0343474038 0 0)
(0.0357203273 0 0)
(0.0359378764 0 0)
(0.03731467 0 0)
(0.0398020686 0 0)
(0.0438438895 0 0)
(0.0426384555 0 0)
(0.0444271018 0 0)
(0.0460314095 0 0)
(0.0469683443 0 0)
(0.0495084144 0 0)
(0.0521348774 0 0)
(0.0575291196 0 0)
(0.0525851398 0 0)
(0.0464829066 0 0)
(0.0489263727 0 0)
(0.0536072144 0 0)
(0.0495993507 0 0)
(0.0443337864 0 0)
(0.0472490049 0 0)
(0.0536942802 0 0)
(0.0540892932 0 0)
(0.0537768166 0 0)
(0.0548374526 0 0)
(0.0573965108 0 0)
(0.061507641 0 0)
(0.059977796 0 0)
(0.0571409761 0 0)
(0.0564611218 0 0)
(0.0609247369 0 0)
(0.0678636849 0 0)
(0.0665531759 0 0)
(0.0622534824 0 0)
(0.0620958606 0 0)
(0.0634184907 0 0)
(0.0658639338 0 0)
(0.0705649071 0 0)
(0.0677189325 0 0)
(0.0655600801 0 0)
(0.0705853325 0 0)
(0.0762111451 0 0)
(0.0727788656 0 0)
(0.0691618982 0 0)
(0.073877832 0 0)
(0.0797859585 0 0)
(0.0789751918 0 0)
(0.0748726253 0 0)
(0.0742329349 0 0)
(0.0786656353 0 0)
(0.0799767031 0 0)
(0.0821928611 0 0)
(0.0881058167 0 0)
(0.0877422042 0 0)
(0.0868969928 0 0)
(0.0892156814 0 0)
(0.0917920955 0 0)
(0.0957630376 0 0)
(0.0981507845 0 0)
(0.101191791 0 0)
(0.104559124 0 0)
(0.109187279 0 0)
(0.11437864 0 0)
(0.114019503 0 0)
(0.112168661 0 0)
(0.113310577 0 0)
(0.119584753 0 0)
(0.125190997 0 0)
(0.123649184 0 0)
(0.1229192 0 0)
(0.128160237 0 0)
(0.133868137 0 0)
(0.134511789 0 0)
(0.135469689 0 0)
(0.137281932 0 0)
(0.139648995 0 0)
(0.142029249 0 0)
(0.141339851 0 0)
(0.142683278 0 0)
(0.148749883 0 0)
(0.15375261 0 0)
(0.155038204 0 0)
(0.157841318 0 0)
(0.158995084 0 0)
(0.160235065 0 0)
(0.162731041 0 0)
(0.16219616 0 0)
(0.163516158 0 0)
(0.164549332 0 0)
(0.166073077 0 0)
(0.168611761 0 0)
(0.171628513 0 0)
(0.177548345 0 0)
(0.178831275 0 0)
(0.179319898 0 0)
(0.192827063 0 0)
(0.204436815 0 0)
(0.206020793 0 0)
(0.210424786 0 0)
(0.212525444 0 0)
(0.211240411 0 0)
(0.214766764 0 0)
(0.222822814 0 0)
(0.226804256 0 0)
(0.229366718 0 0)
(0.236681052 0 0)
(0.244583211 0 0)
(0.25309905 0 0)
(0.256569421 0 0)
(0.253136594 0 0)
(0.255304861 0 0)
(0.264378092 0 0)
(0.274004718 0 0)
(0.277990079 0 0)
(0.274247999 0 0)
(0.276512204 0 0)
(0.286419263 0 0)
(0.296900348 0 0)
(0.30081652 0 0)
(0.301441786 0 0)
(0.30840037 0 0)
(0.318608509 0 0)
(0.329492652 0 0)
(0.3326176 0 0)
(0.335648867 0 0)
(0.346069227 0 0)
(0.357147561 0 0)
(0.369072052 0 0)
(0.371605932 0 0)
(0.373936727 0 0)
(0.384505736 0 0)
(0.395338822 0 0)
(0.407611968 0 0)
(0.410420581 0 0)
(0.410102081 0 0)
(0.420178224 0 0)
(0.433053941 0 0)
(0.434150495 0 0)
(0.43636004 0 0)
(0.449741992 0 0)
(0.4496617 0 0)
(0.450280359 0 0)
(0.45385674 0 0)
(0.454190151 0 0)
(0.465817188 0 0)
(0.4795171 0 0)
(0.479477667 0 0)
(0.481197445 0 0)
(0.495353463 0 0)
(0.493660973 0 0)
(0.492184505 0 0)
(0.493904026 0 0)
(0.493219574 0 0)
(0.505016053 0 0)
(0.517335989 0 0)
(0.514408877 0 0)
(0.514506613 0 0)
(0.528529247 0 0)
(0.524620432 0 0)
(0.520763369 0 0)
(0.519920591 0 0)
(0.516134847 0 0)
(0.526061192 0 0)
(0.536224043 0 0)
(0.530750796 0 0)
(0.528834635 0 0)
(0.541164459 0 0)
(0.535116698 0 0)
(0.529084114 0 0)
(0.525444865 0 0)
(0.518889691 0 0)
(0.526263923 0 0)
(0.533172979 0 0)
(0.524613788 0 0)
(0.520732193 0 0)
(0.531602682 0 0)
(0.523094024 0 0)
(0.514328357 0 0)
(0.508780548 0 0)
(0.5008506 0 0)
(0.505108661 0 0)
(0.508548926 0 0)
(0.49897182 0 0)
(0.489630885 0 0)
(0.493205704 0 0)
(0.495802499 0 0)
(0.485129341 0 0)
(0.474378273 0 0)
(0.47854299 0 0)
(0.479919679 0 0)
(0.465827206 0 0)
(0.458969665 0 0)
(0.468694233 0 0)
(0.473959704 0 0)
(0.478422963 0 0)
(0.471662879 0 0)
(0.462344322 0 0)
(0.462499713 0 0)
(0.460308654 0 0)
(0.446934148 0 0)
(0.434708247 0 0)
(0.434623059 0 0)
(0.431398817 0 0)
(0.41525153 0 0)
(0.406095814 0 0)
(0.415647793 0 0)
(0.402333293 0 0)
(0.391388015 0 0)
(0.381412211 0 0)
(0.369077957 0 0)
(0.36532636 0 0)
(0.358800624 0 0)
(0.343844228 0 0)
(0.331511109 0 0)
(0.326843594 0 0)
(0.317922998 0 0)
(0.306034899 0 0)
(0.29194674 0 0)
(0.274914302 0 0)
(0.260958205 0 0)
(0.251592548 0 0)
(0.240177539 0 0)
(0.234081737 0 0)
(0.221157025 0 0)
(0.208206952 0 0)
(0.199916401 0 0)
(0.189632149 0 0)
(0.179528374 0 0)
(0.168897552 0 0)
(0.157388726 0 0)
(0.152043009 0 0)
(0.144872714 0 0)
(0.140377236 0 0)
(0.135899922 0 0)
(0.130620139 0 0)
(0.122198979 0 0)
(0.114367981 0 0)
(0.112646997 0 0)
)
;

boundaryField
{
    closed
    {
        type            noSlip;
    }
    open
    {
        type            inletOutlet;
        inletValue      nonuniform List<vector> 0();
        value           nonuniform List<vector> 0();
    }
    sides
    {
        type            empty;
    }
    procBoundary2to1
    {
        type            processor;
        value           uniform (0.215911315 0 0);
    }
    procBoundary2to3
    {
        type            processor;
        value           uniform (0.107311304 0 0);
    }
}


// ************************************************************************* //
