/*--------------------------------*- C++ -*----------------------------------*\
| =========                 |                                                 |
| \\      /  F ield         | OpenFOAM: The Open Source CFD Toolbox           |
|  \\    /   O peration     | Version:  2306                                  |
|   \\  /    A nd           | Website:  www.openfoam.com                      |
|    \\/     M anipulation  |                                                 |
\*---------------------------------------------------------------------------*/
FoamFile
{
    version     2.0;
    format      ascii;
    arch        "LSB;label=32;scalar=64";
    class       volScalarField;
    location    "0.00062";
    object      H2;
}
// * * * * * * * * * * * * * * * * * * * * * * * * * * * * * * * * * * * * * //

dimensions      [0 0 0 0 0 0 0];

internalField   nonuniform List<scalar> 
530
(
0.0108749878
0.0108103933
0.0108035029
0.0108034639
0.0108034604
0.0108034603
0.0108034603
0.0108034603
0.0108034603
0.0108034603
0.0108034603
0.0108034603
0.0108034603
0.0108034603
0.0108034603
0.0108034603
0.0108034603
0.0108034603
0.0108034603
0.0108034603
0.0108034603
0.0108034603
0.0108034603
0.0108034603
0.0108034603
0.0108034603
0.0108034603
0.0108034603
0.0108034603
0.0108034603
0.0108034603
0.0108034603
0.0108034603
0.0108034603
0.0108034603
0.0108034603
0.0108034603
0.0108034603
0.0108034603
0.0108034603
0.0108034603
0.0108034603
0.0108034603
0.0108034603
0.0108034603
0.0108034603
0.0108034603
0.0108034603
0.0108034603
0.0108034603
0.0108034603
0.0108034603
0.0108034603
0.0108034603
0.0108034603
0.0108034603
0.0108034603
0.0108034603
0.0108034603
0.0108034603
0.0108034603
0.0108034603
0.0108034603
0.0108034603
0.0108034603
0.0108034603
0.0108034603
0.0108034603
0.0108034603
0.0108034603
0.0108034603
0.0108034603
0.0108034603
0.0108034603
0.0108034603
0.0108034603
0.0108034603
0.0108034604
0.0108034604
0.0108034603
0.0108034615
0.0108034632
0.0108034577
0.0108034604
0.0108034789
0.0108034972
0.0108034973
0.0108034523
0.0108032409
0.0108031645
0.0108042942
0.0108077053
0.0108074005
0.0107894902
0.0107801654
0.0108039459
0.0108680059
0.0108629078
0.0107553266
0.0106887411
0.010685731
0.0108671391
0.0110066328
0.0110197778
0.0107849491
0.0106723141
0.0106597501
0.0106694335
0.0110284448
0.0110093994
0.011028873
0.0108419809
0.0106841642
0.0106655931
0.0106752234
0.0110329749
0.0110377698
0.0106993218
0.0106985861
0.0110251691
0.0110260851
0.0107313029
0.0106558001
0.0106659513
0.011037028
0.0110395378
0.0106885887
0.01068567
0.0110303954
0.0110353929
0.0106840502
0.0106831875
0.0110310442
0.0110357383
0.0106817686
0.0106805364
0.0110326708
0.0110363734
0.0106813207
0.0106799232
0.011032758
0.0110360609
0.0106831808
0.0106822904
0.0110305226
0.0110345512
0.010685113
0.0106884199
0.0110236619
0.0110291237
0.0107113238
0.0106524835
0.0106670923
0.0110377345
0.0110348048
0.0106885571
0.0106903585
0.0110194855
0.0110266079
0.0107121012
0.010651827
0.0106673072
0.0110373017
0.0110311948
0.0106836661
0.0106809512
0.0110257359
0.0110251676
0.0106793784
0.0106789466
0.0110243938
0.0110238094
0.0106771638
0.0106766296
0.0110248077
0.0110234756
0.0106771828
0.0106767235
0.0110236558
0.0110221787
0.0106777267
0.0106820488
0.0110156589
0.011021453
0.010701447
0.0106462152
0.0106650026
0.0110338443
0.011023959
0.0106823059
0.0106791716
0.0110253408
0.0110171014
0.0106828923
0.0106866473
0.0110169115
0.0110173333
0.0107103161
0.0106508682
0.0106688301
0.0110330741
0.0110174443
0.0106838036
0.0106844445
0.0110219824
0.0110177158
0.0107090606
0.0106483975
0.0106658653
0.0110373566
0.0110195271
0.0106823611
0.0106759541
0.0110404053
0.0110176493
0.0106834618
0.0106765526
0.0110440141
0.0110175025
0.0106840392
0.0106763645
0.0110473697
0.0110177518
0.0106847472
0.0106815607
0.0110434699
0.0110196465
0.010707325
0.0106441682
0.0106598258
0.0110479516
0.0110220022
0.0106861468
0.0106745395
0.0110611619
0.0110192053
0.010690381
0.0106776196
0.0110635837
0.0110181529
0.0106913038
0.0106833701
0.0110599064
0.0110171435
0.010718435
0.0106470973
0.0106590178
0.0110544371
0.0110205015
0.0106948381
0.0106791636
0.0110749255
0.0110169148
0.0107047337
0.0106885703
0.0110697012
0.0110126884
0.0107401318
0.0106575299
0.0106655295
0.0110564204
0.0110130657
0.010724446
0.0106954629
0.0110729964
0.0110044249
0.0107793484
0.0106882778
0.0106815126
0.0106676467
0.0106708117
0.0110599024
0.0110133084
0.0107688314
0.0106629316
0.010666688
0.0110647825
0.0110122454
0.0107351177
0.0106885284
0.0110449207
0.0110088852
0.0107445483
0.0107018106
0.0110550721
0.0110037535
0.0107968572
0.0106799533
0.0106812789
0.0106739287
0.0106621355
0.0106747418
0.0110752072
0.0110004459
0.0110037079
0.0107462972
0.0106912342
0.0110156945
0.011011936
0.010741395
0.0106881877
0.0110188625
0.011015612
0.0107718202
0.0106578779
0.0106579052
0.0110770014
0.0110175229
0.0107715085
0.0106577448
0.0106558005
0.0110674193
0.011013125
0.0107438378
0.010688731
0.0110183249
0.0110136564
0.0107836787
0.0106660605
0.0106661425
0.0110717167
0.0110130342
0.0107931592
0.0106683864
0.010669383
0.0110701586
0.0110112334
0.0108064518
0.0106746516
0.010674131
0.0110685895
0.0110058094
0.0108258749
0.0106862892
0.0106745942
0.0106732727
0.011062935
0.0110132597
0.0107994546
0.0106697583
0.0106689146
0.01107428
0.0110146592
0.0107910903
0.0106637408
0.010659953
0.011048122
0.0110117652
0.0107439844
0.010681764
0.0110131863
0.0110093195
0.0107433322
0.0106881069
0.0110337302
0.0110133307
0.0107728512
0.0106605448
0.0106590711
0.0110777462
0.0110165191
0.0107756796
0.0106589396
0.0106554838
0.0110675149
0.0110094149
0.0107378209
0.0106859163
0.0110476845
0.0110128466
0.0107680002
0.010660748
0.0106567323
0.0110714762
0.0110084722
0.0107364213
0.010686335
0.011056949
0.0110111892
0.0107704765
0.0106638267
0.0106631734
0.0110658421
0.0110140317
0.0107765961
0.0106623233
0.010662134
0.0110645905
0.0110156905
0.0107678624
0.0106583251
0.0106548791
0.0110751892
0.01101046
0.0107232709
0.0106767075
0.0110564967
0.0110082126
0.0107216747
0.010681136
0.0110679782
0.0110154331
0.0107507941
0.0106522614
0.0106480644
0.0110738019
0.0110125757
0.010717431
0.010673003
0.0110543491
0.0110094366
0.0107199866
0.0106799024
0.0110653194
0.0110155897
0.0107573427
0.0106554626
0.0106509641
0.011064422
0.01101197
0.0107251827
0.010679855
0.0110590084
0.0110157657
0.0107662409
0.0106578665
0.0106528864
0.0110496961
0.011012756
0.0107291093
0.0106800303
0.0110457925
0.0110174424
0.0107718956
0.0106555306
0.0106494872
0.0110208864
0.0110162997
0.010729163
0.0106728241
0.0110068057
0.0110146848
0.0107293329
0.0106737476
0.0109958054
0.0110158127
0.0107333102
0.0106773722
0.0109960785
0.0110219809
0.0108011167
0.0106589998
0.010650636
0.0109647878
0.0110197997
0.0107536473
0.0106812742
0.0109749418
0.0110211275
0.0108329163
0.0106665937
0.0106584689
0.0109511364
0.0110248232
0.0108535092
0.0106694192
0.0106580783
0.0109334408
0.011021043
0.0107729876
0.0106836262
0.0109459592
0.0110229265
0.0108609093
0.0106707457
0.0106586934
0.010917614
0.0110226762
0.0107782465
0.0106840443
0.0109308817
0.0110224646
0.0108864863
0.0106777702
0.0106662055
0.010911089
0.0110229946
0.0108809827
0.0106757121
0.0106548772
0.0106779517
0.0110612811
0.011012682
0.0110155197
0.0109936821
0.0107112789
0.0106867063
0.0106827509
0.0106737838
0.010669093
0.0108682555
0.0110220269
0.0108489377
0.0107144038
0.0109221862
0.0110178255
0.0109464741
0.0106834163
0.0106693955
0.0108540468
0.0110241653
0.0109422778
0.0107042708
0.0106675012
0.010660429
0.0108272985
0.0110285426
0.0108426755
0.010693115
0.0108784775
0.0110220759
0.0109541891
0.0106827077
0.0106701751
0.0108375902
0.0110298876
0.0109928982
0.0106801849
0.0106645516
0.0108082636
)
;

boundaryField
{
    closed
    {
        type            calculated;
        value           uniform 0.014444782;
    }
    open
    {
        type            calculated;
        value           nonuniform List<scalar> 0();
    }
    sides
    {
        type            empty;
    }
    procBoundary0to1
    {
        type            processor;
        value           uniform 0.0110355777;
    }
}


// ************************************************************************* //
