/*--------------------------------*- C++ -*----------------------------------*\
| =========                 |                                                 |
| \\      /  F ield         | OpenFOAM: The Open Source CFD Toolbox           |
|  \\    /   O peration     | Version:  2306                                  |
|   \\  /    A nd           | Website:  www.openfoam.com                      |
|    \\/     M anipulation  |                                                 |
\*---------------------------------------------------------------------------*/
FoamFile
{
    version     2.0;
    format      ascii;
    arch        "LSB;label=32;scalar=64";
    class       volScalarField;
    location    "0.0001";
    object      h;
}
// * * * * * * * * * * * * * * * * * * * * * * * * * * * * * * * * * * * * * //

dimensions      [0 2 -2 0 0 0 0];

internalField   nonuniform List<scalar> 
3810
(
-3153.18558
-575.084022
10582.2501
9630.6632
-2940.65847
1308.36274
9605.93345
-2674.8205
-2516.61766
10517.5031
9324.65309
-3797.07657
-3020.81321
10374.2583
9316.88084
-4037.2528
-3020.06242
10356.6653
9388.65476
-4011.8001
-2795.53954
10368.1569
9813.86295
-4375.05092
-4899.51707
-538.477485
10191.0564
9762.38606
-5148.92839
-5155.27403
-4190.17811
-4855.75956
-2589.90175
10305.9081
9700.3061
-3737.20755
-2966.15136
10437.2369
9744.44619
-3771.41423
-3251.29521
10393.3387
9769.49268
-4103.63115
-3661.26041
10326.3811
9805.76305
-4401.06695
-4033.68733
10267.545
9861.73077
-4690.20967
-4420.27178
10191.3526
9907.71383
-5121.614
-4949.89019
10122.9692
9966.95036
-5331.181
-5216.72154
10132.847
10105.6151
-4915.96816
-4769.5835
10184.0828
10250.346
-4171.95608
-4240.72877
10297.6886
10297.6943
-2901.93205
-5189.38564
-2880.24239
10039.006
10763.8395
-3972.10936
-1680.95696
10015.9655
-2042.90685
-5058.56513
10109.8462
10106.0103
-2727.63274
-5832.23345
-4414.47226
9909.525
10377.5784
-3093.82631
-3878.49395
9740.87646
10413.5094
-3051.34541
-3741.9892
9678.85723
10445.457
-2830.8163
-3543.18887
9681.4623
10416.2699
-1814.73394
-3756.98194
-4185.01691
-4197.37939
9791.77446
10334.523
-1205.5859
-4215.51041
-4551.09404
-4553.16924
9514.334
10368.9856
-1781.01448
-3530.67969
9198.97832
10370.1622
-2511.24315
-3878.66789
8921.61448
10282.1194
-2777.09415
-4299.26897
8758.18764
10034.892
-1143.70939
-6134.7088
-5393.91318
9209.2579
10240.8805
-1748.63634
-3933.69911
8443.56072
10216.3141
-2277.28333
-4225.97723
8147.489
10146.185
-2462.9945
-4458.39412
7950.41861
10027.7658
-914.504432
-4697.85497
-4929.46928
-1368.89711
9443.15563
10419.9531
2114.07845
-4629.0569
-3741.18758
8986.27177
10373.1495
-658.550912
-4006.0808
7129.71542
10089.4869
-1405.3468
-4049.79754
6895.63574
10161.3949
-1685.12017
-3559.82205
6960.81882
10348.0177
10330.2144
-672.78345
-4814.6671
-4935.743
-4886.30451
8659.50417
10261.2533
371.117625
-4495.05665
-2052.9185
9318.16759
10440.0234
-1502.43347
-4226.64883
8066.18604
10112.4431
-1954.1327
-4625.94855
-4485.34715
-4207.58173
9549.92978
10474.2938
-1991.14182
-3487.11704
9278.86628
10391.3937
-2744.92959
-3887.70444
-3919.39035
-1894.2436
10059.5843
10310.0013
-5531.2078
-4955.77013
8264.07358
10234.4246
9001.59138
-4839.91136
-5863.96952
2058.26691
10234.3722
9431.70814
-3836.91613
981.57018
9268.50933
-2657.326
-2271.84205
10397.4489
8474.47167
-4045.80654
-2447.08131
10174.3961
8162.07313
-4430.24716
-2591.2945
10085.4761
7937.98187
-4712.29046
-2510.70491
10065.1906
8005.02204
-4969.14927
1296.94458
8143.75308
-3019.89269
-1764.4375
10171.207
8292.78437
-5960.54791
-5961.02776
-231.744111
9970.50394
7947.02167
-4462.81975
-1940.23359
10126.3363
8286.85599
-4726.03498
-4713.06586
-2944.93623
1253.93771
10316.5566
8179.03598
-3978.57624
-2003.49409
10066.5298
8161.74395
-5626.0596
-5612.02908
-3183.25618
750.232673
10364.7593
8468.78703
-3501.75858
-1602.66424
10186.7398
8232.37172
-5062.1979
2717.96342
8539.74798
-2677.96899
-2214.23072
10327.6453
8231.06296
-4138.77788
-2064.74975
10052.2833
6668.98332
-4773.23852
-1396.04517
9942.21693
5803.43256
-5043.01934
-808.01474
9883.84222
4970.69017
-5208.69099
-410.671329
9872.16722
4744.71761
-5085.35097
-105.713093
10235.6016
10554.3252
9562.04239
862.105507
-6917.62274
-6305.16253
-514.972005
9924.79785
9165.93239
-4712.46542
-3331.66221
10174.0533
9516.7794
-4124.95638
-3418.23517
9998.32203
9546.4197
-5686.91423
-6258.1234
-3762.43158
-3800.05291
596.041356
10284.8188
10114.5502
-2722.76358
-3214.37785
9776.56082
10111.9807
-2706.6226
-3293.6484
9305.97388
10051.2645
-3179.81474
-5422.94118
-975.94488
9644.07462
10334.2888
-1696.40789
-3344.19612
8529.52891
10253.2265
-1235.43128
-3271.42114
8049.4525
10231.2265
-1159.11154
-3538.53862
7441.53757
9980.14277
-1233.66255
-5357.85533
-4642.49212
-3864.60036
-4162.15434
-3477.75048
8835.46862
10518.0911
525.99971
-1970.04787
6434.57487
10454.4492
9654.15935
-2302.63765
-3673.95609
8145.00974
9018.60012
-3027.50048
-1852.58485
9265.88971
3648.34029
-4116.57316
4648.32819
9945.43186
2531.90383
-3805.79308
-5221.29301
-5555.00999
3719.11913
10019.6507
1627.72832
-3065.75913
4275.16351
10405.778
10209.2885
2452.91838
-3392.93985
5195.59174
10304.4997
3576.07408
-3634.41859
-4122.94857
-4174.0718
-4996.87641
-5180.81865
2836.64266
10226.7455
6201.85472
-3230.36112
-1665.93762
10300.8231
9719.29919
-3191.12641
-2961.86192
10278.1289
10054.9371
-3254.95897
-3245.48002
10135.4632
10156.2085
-3201.66718
-3365.67295
9990.07662
10175.5674
-3271.32335
-3692.96302
9716.36754
9949.98885
-1223.51195
-6254.60329
-4876.43402
10025.3679
9842.60299
-1353.44062
-6224.66546
-4725.11731
10068.6833
10062.6586
-2052.66256
-4427.79146
-4734.19915
-3514.3368
9983.9609
10689.0909
10129.6727
-872.673946
-3195.22951
10604.6916
10273.5501
-2469.16146
-4880.51613
-2448.98247
10129.439
10794.6412
9922.84272
-1963.32885
-4898.05328
-3470.32954
-5095.81079
-2789.8095
10145.2142
10520.7523
9491.37582
-4445.06119
-6169.12885
-4518.25717
-5863.85607
-2279.12665
10017.857
10500.1234
8565.89826
-4073.94058
-2991.92086
10106.621
9010.83263
-6074.02152
-6627.10211
-1625.8771
10341.8362
10330.0869
9374.97265
10237.2631
7192.87227
-3839.61242
-2094.64862
9966.82316
8157.90874
-5137.58597
-5126.34051
-4446.47381
-256.041525
9907.0711
7766.35406
-3672.84531
-1605.99042
9789.59615
7971.04549
-3895.11166
-2436.85384
9400.38734
8637.06319
-5045.89773
-6134.44896
-1427.10439
9445.1187
8368.3141
-3647.62952
-3427.88192
8444.61138
9472.36486
-638.007139
-2711.48376
5306.76455
10153.6465
5386.87121
-4006.65683
-718.068927
9933.64896
7460.43457
-3858.44085
-1599.19498
9708.07813
7378.06723
-5556.39388
-5529.18542
-3639.84149
2039.34426
10010.2024
6485.90458
-5178.68426
-5158.71074
3060.13967
9992.16755
6167.18704
-3151.18978
963.331028
10090.9409
5448.43493
-3129.64569
1249.22888
10101.9289
5662.71543
-3247.40597
1024.33057
9978.15678
5617.12493
-5285.05117
-5217.75133
2595.25636
9898.2894
6710.49119
-5318.21485
-5297.09919
3202.94267
10050.6983
7717.10614
-5096.24632
-5085.28962
-3545.34029
-3356.56382
-2715.19286
2765.54251
10274.0206
7561.9908
-4202.13374
3398.17458
8181.55937
-2124.72463
-862.28913
10427.3729
7999.69028
-3512.5483
-1557.11122
10300.5585
8160.76851
-3501.95476
-1198.29364
10423.2329
8504.1479
-2753.71081
824.037861
10410.6783
8643.2027
-4595.20126
-4595.68261
-2980.85489
-2541.04216
3799.7755
10546.3287
8535.95526
-3242.11728
-1748.69435
10370.0661
8658.87489
-3923.9058
2279.48989
9110.71758
-3083.92288
-2711.05927
10220.1208
9606.90745
-3477.70772
-4147.5934
2274.06997
10125.4659
8711.39183
-5899.62035
-5905.13668
-3687.72596
-10.1769823
10163.0638
8933.18755
-5793.79386
-4597.49829
10320.1803
9736.25264
-3155.42373
-3984.31214
4064.50127
10256.5589
9735.8202
-5793.94875
-6284.85587
-2858.75201
7102.70869
10546.7638
9203.01049
10456.6551
9315.15653
-3911.60763
-4140.89387
10092.7838
10057.9213
-5641.83891
-5899.6358
-4464.27373
-4556.31932
-3624.03799
-4787.83645
-2577.46399
9890.33233
10570.8769
3439.00435
-3745.82313
-2764.59741
10032.8799
10172.8572
-3447.21039
-3941.33893
9550.1311
10098.9443
-3331.03275
-3830.20905
9414.89557
10046.7097
-3203.20716
-3828.73841
9256.45633
10090.279
-3009.39096
-3803.34954
9096.78134
10127.0831
-2744.20707
-3755.99289
8883.1545
10176.985
-2423.92803
-3713.96116
8604.02711
10179.7397
-2236.29399
-3881.84187
8103.56361
9944.94401
-2355.27477
-5397.60044
-4969.43317
-3614.49084
8958.43824
10340.8577
-374.92652
-3392.37481
6944.60912
10096.6895
-286.89765
-3372.0707
6366.95158
9873.81439
427.233843
-5530.8516
-5226.74705
8123.58552
10193.6753
1125.60776
-3056.81727
5719.21154
9858.98229
1606.34507
-5303.62945
-5337.27647
8111.35726
10071.5165
1312.98323
-4097.57232
-5301.85337
-5286.63364
8054.00871
10107.8526
-321.712098
-4238.37659
6712.50937
9836.57941
-193.315583
-5837.04307
-5722.14882
4025.28212
10001.6033
10086.7663
10343.767
10156.6124
841.427722
-4822.31524
-3895.68388
-4302.9551
-588.316846
10141.634
9240.5384
-4301.46834
-5662.79451
-760.365434
10151.8909
9143.54302
-3276.439
-2285.77124
10186.6395
8626.05582
-3753.48929
-1916.89878
9978.43893
8431.7851
-5903.60264
-5888.15841
-679.480128
9976.40925
7861.71579
-4321.35521
-1825.52468
10115.9262
7332.20467
-3915.34903
-975.980008
9986.13852
6462.26825
-4723.37062
1735.26813
6944.93721
-2656.63544
446.746224
9841.01776
3732.97253
-3346.53481
2051.527
9833.13839
5653.19673
-5750.39848
-5612.29755
2965.54617
9424.11879
3578.4984
-3598.48921
2442.53882
9649.82938
3666.04075
-3264.71952
1871.55061
9917.36778
7547.20602
-5335.95884
-5316.40134
1222.5001
9630.04191
8394.02145
-4642.05244
-5300.33796
1065.90848
9395.96114
5824.49743
-3026.80552
1007.78314
9759.86989
5635.52544
-3296.02247
256.334657
9758.65226
8633.09986
-3212.74556
-4879.61883
-4337.33003
-4450.75597
-4284.29944
-3519.50224
5133.75261
10029.7479
9701.6032
9780.2827
4927.01961
-3236.43543
1209.20282
10161.7737
7168.23696
-5355.69864
-5277.01173
2068.20904
10006.5654
7572.94606
-4244.9786
34.1648999
10163.1256
9990.39709
10052.7019
8446.94288
-6330.01398
-6305.38013
243.055503
9917.93641
8337.44928
-5714.93946
-5663.88159
-4241.11758
-5130.01387
188.866623
10209.7868
10296.7448
10326.9344
9316.57286
-4116.30201
-4978.26094
-125.580579
10217.3351
9634.88405
-5045.33705
-5010.821
-3880.82286
-5607.66725
-1414.08328
10249.7393
10628.4062
9235.35279
-3787.03295
-3525.19471
10459.9579
9411.43784
-3757.46412
-3071.54421
10449.3245
10004.0486
-4057.70302
-4046.51965
-3925.10457
-2612.86526
10491.2057
10044.5757
-2976.06956
-2487.35792
10624.2209
10225.6878
-2768.6511
-2546.3256
10670.8685
10329.4445
-2779.96183
-4028.58354
-3889.44313
-3942.87447
-5035.67796
-3478.23201
10227.1768
10345.2026
10460.9751
10186.8495
-2112.63824
-5127.06951
-2814.29573
10214.7487
10516.9364
-3847.05974
-4143.74681
10223.3054
10351.722
-3844.0499
-4105.06604
10105.3013
10445.8583
-3448.01577
-3287.20019
10047.4542
1335.18872
-4042.18979
10108.9758
10471.5044
-2331.94352
-2939.63939
9964.92549
10656.182
1899.87923
-2724.49309
-2612.94319
-3466.96102
-3471.24903
9780.6932
10486.8328
205.13242
-3601.17326
-3617.27191
-4042.84133
-5220.37828
-5215.746
9179.49197
10047.5753
-974.8483
-5780.78891
-5785.22728
9085.2194
10135.9634
10107.1042
10255.2379
-865.257342
-3786.73142
9046.84644
10445.4029
-1706.17453
-2976.76761
9066.04796
10534.2143
809.906275
-3165.2622
-3085.79666
-4058.88462
-1789.83128
9814.64789
10486.4818
-913.962189
-3654.69523
8769.66082
10362.1392
163.257253
-3498.05476
-4921.57398
-4848.20068
8883.4451
5131.10939
-4039.61338
8269.62566
10243.2416
-2413.60439
-3987.37638
8479.39913
10277.8727
-2013.60258
-3647.699
8545.21881
10288.1264
-2030.72624
-3903.28335
8530.32642
10142.8342
1793.34858
-5717.12482
-5723.21722
8598.3796
10129.231
-1563.15908
-3803.21514
8542.72116
10277.7347
1662.28074
-3933.3994
-3921.47353
-6039.63118
-6042.21302
8572.01034
10158.5176
-1110.14966
-3375.9697
8688.31868
10365.3924
-1662.77592
-3478.01573
8670.98964
10325.2649
-1674.76346
-3720.09576
8729.11923
10171.4199
1635.97974
-5634.71199
-5624.35002
8852.65612
10203.3009
2632.73268
-3572.75071
-3565.77425
-5411.81517
-5411.1381
8903.85655
10352.5859
3606.87923
-2971.16249
-1295.5876
10010.7022
9871.20505
-2646.75504
-3246.35785
9410.69374
9935.97296
-2974.0179
-2769.70336
9666.7697
6987.16924
-4016.96514
-5426.16575
-276.157402
9809.59547
9325.50278
-3526.99667
-3978.02423
9202.24671
9719.49064
-3317.0719
-3882.89581
9207.65157
9208.39408
-4094.51011
-2576.49412
9460.10631
4599.18931
-5099.43075
-4829.79467
-5254.14672
-5291.03606
4197.35696
9918.4655
10091.9577
10214.756
4357.50093
-3840.67022
-1918.58337
9931.65852
9674.06099
-2239.47911
-2291.55763
9846.19817
10376.4095
-2037.89805
-3977.60003
-4155.24654
-3202.54406
8426.3076
10580.8446
2700.01658
-2821.29444
3930.6678
10291.1261
1157.69284
-3710.96162
6464.50112
10199.7393
-1407.8096
-4223.53701
8155.98025
10030.7149
-1648.17205
-5333.44074
-4334.01397
-4716.07869
-4320.91121
-5232.10392
-2795.46144
8622.46705
10741.8553
9263.08227
-1311.25237
-3222.53545
9211.027
9697.39985
-2724.22672
-2161.36236
7365.39863
3398.71095
-3048.56368
6649.93292
9485.32815
-2590.441
-2737.53471
9169.05356
8971.36502
-3113.38911
-2752.39935
9196.60128
8684.23441
-3260.69075
-2806.14311
9058.84228
8402.07326
-3802.94345
-3699.8419
8439.03312
8554.98553
1916.07905
5038.52879
8266.20828
-3012.69615
-2586.98789
9060.1064
8386.64494
-3953.77863
-5144.76272
-3975.18495
-737.791239
8836.22005
8524.14338
-3200.59713
-5444.14894
-789.157481
9054.08217
8336.13161
-2375.63465
-2086.37813
8610.98219
8637.16321
-2258.48775
-2319.66829
8206.97961
8384.72403
-2946.49995
-5128.03523
-4012.98558
-1642.64235
7223.87681
9007.86805
-79.7768599
-2399.66247
6091.42289
8979.86826
-10.8656668
-3245.30036
5008.42069
8770.42947
-348.058901
-4513.96274
3353.698
9303.77918
2639.2503
-3708.85129
2165.14614
9836.58832
4947.90696
-3113.04032
1570.24781
10061.8885
6071.99429
-4856.98334
-4599.59786
2746.11813
10153.0554
7818.16828
-4837.9259
-4761.86331
1921.61172
10173.331
8200.42952
-4646.72445
-4619.31973
-3765.47089
-455.352016
10330.1887
8621.88871
-3546.90363
-2007.12792
10423.3526
9021.53875
-3443.97215
-2128.92012
10427.878
9430.38771
-3728.07341
36.0361325
10068.3475
-1509.60717
-2652.22994
10626.4933
9788.72176
-3520.90668
-2824.18904
10497.9896
10190.441
-3580.5892
-4342.94666
-3505.21592
-4250.99575
-3651.74039
-4222.18288
-3123.13674
10449.9833
10474.3596
-3187.22948
-3371.39947
10377.4421
10416.9635
-3511.43732
-3832.45811
10097.2288
10345.4234
-3877.05202
-4278.3823
9836.10336
10272.622
-4150.99673
-4699.63999
9607.18534
10226.1874
-4310.03156
-4900.47417
9416.64798
10196.17
-4494.39583
-5185.2054
9090.13095
9981.37619
9814.48077
9864.39474
-4301.3587
-6811.22642
-7412.14547
-6851.29916
9020.68985
10129.4917
9582.97569
10374.8635
10036.1124
-2484.73738
-4538.89628
9497.88026
10244.3501
-1432.69884
-4191.32914
-3430.94267
-4661.13916
-4666.15081
9575.98865
10371.8454
3452.27507
-3977.02457
-4079.80016
-5744.10481
-5746.34369
9024.19785
10208.2089
9792.65938
10389.7248
4969.35178
-3176.7095
-3889.96467
-3526.22055
-4307.35644
-2599.77958
9810.48847
10577.4922
-1061.27071
-3512.77563
8852.354
10342.6392
-2242.3713
-3907.06075
8528.52297
10262.6049
-2331.54536
-4182.99663
8214.55814
10155.4587
-2457.31448
-4661.12409
7798.22399
10061.6443
-2591.7252
-4645.41712
7451.02886
10189.8294
-1751.88563
-2850.19981
7602.30443
2377.77322
-4899.80774
6832.07125
10099.879
-779.126105
-3396.37377
6964.08209
7261.43757
-3609.96623
-6937.4876
-6990.25785
3567.65783
9824.24089
9806.50528
1164.84136
-4355.65187
5541.9724
9839.58875
376.668035
-4285.83024
5445.57794
9768.50649
4548.57337
-5102.43925
-5834.626
3053.60817
9722.32941
10123.0935
4659.04924
-2371.47493
-5821.99503
-5955.54159
3770.105
9915.94323
6794.37425
-906.510567
-1268.5946
-3117.54242
-3210.45442
4868.92288
9888.72286
9367.14969
9998.74767
10035.7855
-3192.99734
-6217.37657
2369.2524
9658.96897
6175.85188
-2743.31576
-3620.71899
-4971.14151
-5535.77284
1611.53793
9650.25724
3075.54211
-3125.68597
4279.05177
10178.6084
7536.03818
-2429.72217
-5159.87033
-489.781592
9594.26693
6167.45635
-3240.72207
1499.85913
9921.37647
5004.78259
-3599.06574
-123.81537
9856.8399
9451.20889
-2503.77725
-5805.2038
-2061.29479
9625.20145
9891.11075
-1012.35386
-4200.22749
-3601.38196
-4085.98513
-4674.59475
566.43337
10025.6894
7235.2098
-2301.16956
739.672741
10238.7635
9250.93959
-2685.05983
-3264.96406
9373.98919
10249.5192
-1938.28357
-3666.60275
8824.06922
10243.9607
-1895.7136
-3874.87849
8799.28023
10152.4665
-2550.03139
-2621.2054
9849.68669
6454.07426
-3515.53893
3006.80729
10191.3144
-493.24177
-2655.91905
9289.99536
5237.15097
-4655.71984
5823.8732
9892.14382
-345.054145
-5008.99433
-4070.63771
-5436.19121
-4705.23006
9859.05253
10039.5412
-1643.57238
-3096.09015
9416.21128
9692.7082
-3443.86551
-3734.62915
8842.34831
9908.7052
9606.43179
9290.5185
-3559.31948
-5983.91398
-5390.95899
-3650.2286
10123.9132
9399.36737
-2922.24244
-2196.08434
10266.0763
9793.91564
-3528.94174
-4860.55356
-987.239692
10175.1587
9740.88598
-4574.07167
-4631.77669
-4666.68112
-2015.25326
10047.703
9605.99347
-5584.11499
-5706.4373
-4103.74223
-4604.73638
1268.84623
10236.8222
10101.1232
10258.216
9621.56805
-4363.22223
-4849.08472
2422.81928
10278.842
8743.84029
-4256.58932
975.091793
10070.5106
-972.258386
-4514.00198
9491.03645
9826.26704
-3893.01166
-6090.12673
-1700.70095
9984.12024
10208.9369
-3450.26439
-3718.93976
9967.31017
10009.899
-3777.33053
-3674.90924
9996.37392
9858.78375
-4028.02929
-3719.00626
9855.49536
9488.54471
-5304.68481
-5997.62017
-2951.31577
4436.17635
10515.9557
10156.6288
1925.82406
-5367.95946
-4208.47161
7418.29536
9771.76751
507.704946
-6179.33134
-3873.66847
9531.56693
9820.3494
-2989.38507
-3563.25948
9360.00896
9618.14135
-3565.96734
-3474.0872
9735.47004
9445.57922
-3846.14595
-3394.49931
9806.64786
9263.27552
-4053.73141
-3371.50479
9826.76406
9122.79393
-4192.91078
-3324.97465
9792.89863
9073.76353
-4325.26756
-3549.53937
9566.78043
9194.85844
-5058.27568
-6408.17856
-5306.24952
-2457.48428
9525.10746
9287.42954
-3922.5874
-3727.5153
9507.26401
9570.96413
-3231.09292
-3470.42025
8663.21708
10017.8743
-35.619435
-2873.59974
4072.54531
10303.8929
6858.89668
-3956.46466
-4333.28166
-2735.9657
-1437.42443
7158.70112
10379.7077
5964.06564
-3904.47381
-2617.51575
9798.00861
9395.93912
-4444.71426
-4809.78337
9072.02991
9879.91551
-479.224978
-5427.00966
-5483.20641
-3745.43682
9681.74703
10309.2967
-2622.49702
-3635.35153
9440.88021
10299.9881
-2310.61206
-3758.84446
7663.50911
10182.3184
-596.756397
-4245.634
6722.17961
8095.56503
-3357.8729
-3077.91583
9834.25339
8536.19006
-3991.77589
-1816.26536
9993.87297
10496.1869
9746.51169
2114.40986
-5824.26355
-5557.51137
-5698.68018
-1727.54469
9829.26042
10317.4575
10025.8612
9717.07962
1525.35062
-5724.23907
-5590.49947
-1263.23781
9892.28092
8646.66412
-5646.66753
-5599.08929
-1187.44714
10029.1589
7918.70496
-3760.75908
-899.198822
10022.0928
8175.98368
-5593.38846
-5539.45905
907.456354
9925.64317
8016.35914
-5096.56709
-5152.80682
-4225.79601
1310.80067
9613.12713
5379.93058
-3075.82076
1081.50282
9623.59999
5239.44468
-3148.0899
807.089101
9518.09992
5525.2494
-3254.51424
261.056791
9433.75354
5979.97881
-3206.70107
-261.098055
9361.70299
6474.61426
-3062.1921
-351.523693
9194.38634
6335.10239
-2770.58903
1626.28064
8386.80472
353.750811
-3144.44942
8465.0975
8800.80613
-2213.35023
-2560.09497
8723.75873
8885.45362
-2758.67016
-4936.24445
-4078.73034
-3639.62638
4155.40095
10019.0303
6227.30539
-4746.37904
-3656.36796
8517.02364
9675.09009
1899.27521
-3254.897
1953.05772
10011.3007
6517.86172
-5935.97987
-5903.03392
-3129.957
4213.95951
10094.8713
6621.88166
-4966.4509
-4675.06242
4211.47101
10169.4875
7266.86041
-3021.93074
-61.2401202
10325.6761
7333.06504
-2981.20986
-181.586781
10283.1704
7244.18828
-3333.31749
-299.114627
10079.639
6827.31855
-5440.40375
-5414.15973
-3936.22754
-3664.4419
-2614.628
4202.2377
10392.5619
7677.15998
-3114.24866
-711.95635
10071.5701
7804.07689
-7169.62311
-7138.98565
541.912932
9952.01112
9976.82273
9400.6587
3598.28472
-6128.59649
-1365.15885
10155.1843
9418.36872
-2858.70457
-3899.58341
6885.13192
9369.42687
-2943.99854
-5377.16577
-4438.48787
-4090.70844
5863.54449
10084.0326
10031.1657
9426.15979
10022.8784
8564.23458
-6935.47988
-7148.76874
-4920.19631
-6107.25784
-1600.46341
9953.83529
10554.6782
8773.88387
-3883.78948
-3774.66517
10341.4475
9224.79808
-4064.57488
-3195.99326
10306.6858
9387.54379
-4424.69688
-3739.89966
10184.3516
9418.01489
-5274.20425
-4166.30854
10151.6605
9902.55259
-5005.25288
-5097.52384
-5398.07667
-4177.17378
8462.46826
10255.2151
9183.19786
10083.9234
9427.5575
9974.74662
9528.45408
-6478.84868
-7290.61141
-5106.26403
-6112.51798
-3929.63082
10150.4089
10224.2568
-3144.35943
-5337.5781
-2530.34599
10089.484
10550.3033
-3471.64727
-3727.40498
10060.0863
10299.2471
-3304.52251
-4939.66546
9991.77183
9582.85746
-3106.73506
9082.04333
10287.8001
-3913.6901
-5591.3814
-2399.18729
9856.01482
10471.2546
-2890.6237
-4519.03172
-3950.435
-3501.62551
-3920.35459
-2393.03769
9982.60856
10520.2213
-2590.71406
-3846.96791
9319.30225
10307.9007
-2947.9068
-4029.25475
9193.11266
10298.6141
-2924.56371
-4004.15276
9124.0181
10316.4088
-2795.28754
-3890.77294
9077.46976
10334.7636
-2671.47598
-3833.34076
9002.22666
10323.1017
-2799.15169
-3929.01517
8851.71934
10387.695
-3005.17911
-3455.70664
8993.11977
10253.2301
10177.9899
10066.1042
-1648.04358
-6270.83244
-5244.69186
-5155.05726
-5470.3915
-4797.43209
9430.8268
10372.9247
-2219.15331
-3393.46638
9034.25933
10346.2729
-1307.39406
-4282.5609
-611.772815
9819.51126
10341.9885
-1719.26927
-5625.875
-3743.24416
9218.59261
10275.2917
-4096.46647
-5460.29078
8500.19761
10090.7773
-2905.97346
-4385.87292
8700.48261
10199.4599
-3171.20565
-4582.19335
8729.83263
10175.8767
-2555.3268
-4660.6354
-5998.1041
-4937.93983
8515.12123
10375.9479
9977.02418
-3274.55793
-4890.6532
9057.16362
10275.7324
272.72337
-4053.40027
-2016.2366
9860.45608
10529.0388
-2542.1903
-4016.17758
9244.41712
10178.2897
-2133.26909
-5495.00756
-1669.49248
9797.71286
10274.3252
-2093.13349
-6532.63046
-3904.99787
9326.98805
10022.8134
10025.9888
9777.30396
-2621.5848
-5838.76613
-3754.14935
-4578.81606
-3170.61293
10010.2205
10551.1238
-2240.36297
-3550.4972
9649.14231
10384.4198
-3328.16463
-4221.46779
9667.08799
10082.1232
-2711.7048
-6193.98044
-4821.81465
9850.50036
10472.5357
-2377.4163
-1990.92371
9891.65853
-438.508447
-4479.28574
9807.7585
10286.394
-3412.83551
-4097.11178
9713.1645
10286.8725
-3795.1373
-4303.54159
9721.03977
10234.208
-3908.82464
-4239.24471
9846.65634
10291.9896
-3304.29213
-3583.86432
5906.6977
10600.227
9908.93704
-2503.91194
-2541.31414
9861.19552
1694.21954
-6283.33502
-4318.7635
10212.7785
9911.43006
-1456.25024
-5948.79097
-3698.10331
10201.5718
10047.7614
-1920.79682
-4345.84251
-5046.85019
-3001.61355
9946.36315
10305.4059
10228.1109
9903.47818
-611.250373
-4590.14433
-3164.41669
-3905.34973
-198.509455
10201.5637
9110.66444
-5655.72627
-5607.31091
-3597.79577
-3692.03568
1816.74257
10414.7292
8701.79248
-3422.18965
-1483.89686
10357.8868
8363.85918
-3670.61699
-1456.71156
10103.887
7935.41555
-5615.78006
-5612.78522
2568.78189
9936.48873
7718.58876
-5511.71198
-5524.68071
3006.97188
10126.7759
7904.20624
-3390.92744
2195.90355
9714.021
134.884232
-3048.7626
8257.94359
9270.75619
-2859.08054
-2607.28492
9562.69796
8716.08254
-3722.59533
-2599.1228
9749.24267
8437.8448
-4174.20415
-2737.1714
9796.52831
8302.55754
-4352.32162
-2769.77122
9854.78669
8332.87468
-4187.55512
-2351.82687
9820.28062
8764.63426
-5716.80967
-5708.87346
-4261.57198
-44.3456817
10063.9673
9390.82577
-3132.00401
-5004.53506
854.557673
9993.22874
9147.47951
-4353.47164
-5372.7182
552.888092
10110.8203
10569.4547
8801.25507
-2924.88728
-5468.15309
-4322.47439
-389.311275
9853.07627
8682.72658
-3110.36336
-1959.98934
10086.2445
10518.2749
8572.83702
-3416.82844
-5946.9575
-4887.699
-1630.36608
9451.88199
8639.68086
-4296.46913
-3950.0882
8666.90997
9195.2271
2654.72082
5283.71877
8960.57256
-2285.68552
-5923.07317
-2366.46112
8191.1291
9609.30201
121.726855
-5290.6313
-3394.53886
6083.24205
9862.71396
3062.98817
-3478.62797
2479.09461
9987.08275
4423.06265
-3445.6972
2057.0042
9723.06978
3257.70832
-5906.5876
-5514.0177
-4449.05462
1070.89562
9824.35551
6112.4165
-5002.66484
311.413753
10143.7439
10175.1141
10283.0799
8893.51172
-2201.38873
-5911.72617
-4736.87149
-5523.7788
-1549.75549
10647.398
10646.1103
9147.40903
-3176.7316
-6370.93333
-2146.29361
10090.0857
9287.68002
-4157.99065
-3445.81684
10166.6935
9974.94631
-3610.70325
-3497.07795
10090.3236
10071.7136
-2036.12727
-5953.59102
-5294.93138
9825.10488
10228.7111
-2642.43948
-3868.71019
9258.47012
10389.7462
-2144.04408
-3356.82619
8926.79859
10435.4084
-1628.39459
-3222.57488
8674.36928
10296.4588
1849.4857
-5072.55221
-4979.57393
8530.85966
10285.524
1802.1258
-2958.76357
-5487.23047
-5427.81939
8161.824
9986.56523
2020.73153
-5539.02114
-5418.67274
6283.56259
9907.77743
9747.14669
10021.8157
3241.3585
-4982.20388
-5167.17281
-6591.00275
-6869.2999
3824.98946
9823.81651
-964.359181
-4163.44161
8499.05043
10281.3051
-2135.71349
-3661.36607
8937.76562
10335.7961
-2400.76561
-3709.09403
9135.72165
10287.768
-2902.68738
-4020.27211
9208.96895
10168.0288
-3527.7608
-4501.56548
8273.20992
10195.9352
4471.82469
-5522.45655
-4745.99857
8516.848
10206.6836
-3072.99964
-2061.22265
9738.25637
1291.71224
-5212.07392
10094.3113
9912.99354
168.244516
-5069.15836
-5021.36701
2399.21241
9969.01756
10335.1889
9331.47025
10371.7484
8542.71468
-3663.32077
-5200.89414
-4281.11056
-4527.07388
-5849.57181
-4360.3987
10225.4752
10130.1229
-106.160061
-3493.24828
-4935.44203
-3850.57432
10220.1293
9955.52203
-3211.60023
-2945.85836
10197.1689
9698.23026
-6083.86696
-5480.82397
8997.84751
10050.9554
2414.92309
-5472.49325
-4928.04388
6350.56278
10110.7722
-3025.0272
-3615.21819
10298.0142
10092.0434
-3876.72136
-3669.43131
10239.7688
10013.7763
-4109.59991
-3740.45876
10344.894
9869.02262
-4431.98635
-7082.34423
-4484.26482
9928.56175
10151.1982
-3582.11582
-3414.53922
10307.926
10257.387
-4927.88887
1516.32658
10214.8797
-1841.99104
-3427.81519
10461.7288
10463.8979
1463.59655
-3908.59533
-3649.50996
-4649.41008
-4017.91961
10392.2439
10451.337
-1923.62658
-3043.79253
10457.1752
10646.423
-1741.25863
-70.9013531
10410.9782
2185.43103
-4402.18601
10166.6043
10219.6296
71.8869664
-5907.66967
-4617.59834
9935.73113
10328.0013
-2812.93224
-3795.97525
10011.3852
10379.2673
896.906344
-4609.58537
-4609.62196
9962.99457
10311.6585
-2154.16984
-3993.45054
9641.62058
10288.9602
-3076.75696
-4722.71582
9492.31137
10154.6641
-990.15714
-4944.19643
-4140.30582
-5624.74322
-5636.07331
9279.90896
10164.6204
-1719.24283
-4201.93932
9375.68902
10147.1215
-520.598976
-5918.02836
-5529.31246
9225.02859
10477.3186
10280.7359
-516.571456
-4214.15646
-4891.979
-4893.04453
8965.08481
10291.3185
-2025.0081
-3528.89788
9004.01709
10415.2732
-2125.95171
-3542.98013
8898.23568
10382.3352
-2268.67799
-3731.39899
8786.90801
10315.2914
-2541.83702
-4113.08984
8730.68009
10238.8334
-1341.70479
-4191.88256
-5411.8081
-5405.84424
8773.21509
10056.2595
5.5456376
-5469.25324
-4856.26379
9257.9054
10551.0963
10442.2263
80.8004799
-4900.22127
-4891.40832
9438.37387
10357.565
-1502.09265
-3372.81316
9184.46263
10419.2334
-2132.00493
-3852.91028
9199.71849
10026.8876
-3926.14637
-2204.06595
9803.58448
5728.81932
-4310.11656
-5414.88899
-864.3428
10017.2414
10471.3662
-1583.23061
-4322.14453
9529.56875
10302.5971
1624.36768
-3911.29806
-3978.19029
-4030.18348
-4997.68171
-3963.49237
9974.10786
10296.6501
-3251.83124
-4523.55645
9858.80045
10284.7013
-3064.23339
-3619.16365
9935.9081
10210.0357
-4528.352
-4493.32875
9343.48908
9995.44831
9426.03626
9813.18158
10065.7017
9685.18849
-2095.91943
-5903.22024
-4379.72233
-4819.90981
-4999.43139
-4389.1948
10350.1578
10041.81
-2982.47987
-4435.37881
-4296.6428
-3638.93842
10396.9852
10130.1536
-3186.84202
-3158.89256
10579.4182
10121.5226
-2404.30721
-543.326166
10509.5805
4806.915
-3679.50357
-544.346739
10441.0187
10240.3809
-3605.27192
-414.745049
10089.452
987.511238
-5286.36956
-3806.80944
-4499.21706
-2640.9623
10395.8578
10209.2446
-1975.07314
-5795.73902
-3158.9697
10167.7452
10081.2021
-2389.34886
-6400.70418
-3030.59747
10030.497
10376.8249
-349.972081
-4568.55708
9575.03914
10149.9741
-3683.56897
-3826.98562
9985.68982
10172.0891
-3246.62685
-223.139538
9937.08136
1041.56486
-4755.16092
-5508.61242
-3421.7514
8691.64937
10705.0424
9758.20099
-472.477287
-5098.12591
-260.533547
9864.41511
10200.6091
-3613.78601
-5024.41526
8890.48623
10019.6544
-3467.04486
-4448.70277
8987.68846
10237.2308
-2797.14794
-2171.28879
9526.70562
1565.55366
-3731.38766
9248.68495
10200.3119
-1168.42536
-4273.91285
178.988885
9870.15544
10088.9087
-3363.7742
-5695.86812
123.759924
9672.76352
9975.2073
-4180.57939
-5571.54001
-4538.82301
72.351854
9830.98373
9981.58916
-3898.85478
-5701.37018
28.8150941
9944.28201
10081.6565
-2805.61383
-3564.24327
9485.37896
10132.9528
-2962.41136
-3546.55877
9518.78549
10122.0997
-3099.67158
-3565.56833
9720.48455
9807.67423
-4366.49427
-5239.56409
-3135.45187
4260.26509
10353.8594
9251.0378
-5017.19654
-5164.06765
2961.21923
10264.4001
8881.41591
-4069.21045
-3245.3958
9788.47759
8561.75074
-3881.6275
-1858.53474
10006.4933
6965.99301
-5004.75819
-5009.0241
3791.11395
10292.7408
8048.84486
-2664.35839
-83.9820078
10211.3686
7084.64139
-5012.35652
-5011.29676
-2932.08725
2308.41868
10339.4107
6256.92526
309.396483
8880.56654
6353.53159
-5903.41684
-1487.60115
9836.38753
9932.7639
4393.69146
-5981.65631
-5836.60156
-4365.6692
-4221.91813
-3342.63136
-2645.25077
3881.95203
10351.4552
10357.9168
7058.79227
-3397.31118
-848.62211
10077.3011
7070.6931
-5824.24822
-5743.85649
1016.50568
9956.66974
7168.98212
-4010.92663
-913.887518
10133.803
7181.27474
-3621.50418
-268.217651
10276.7891
7433.15018
-3332.4617
-2838.50014
5752.57107
10365.7024
7002.11182
-2969.99477
302.28228
10109.7339
6484.71903