/*--------------------------------*- C++ -*----------------------------------*\
| =========                 |                                                 |
| \\      /  F ield         | OpenFOAM: The Open Source CFD Toolbox           |
|  \\    /   O peration     | Version:  2306                                  |
|   \\  /    A nd           | Website:  www.openfoam.com                      |
|    \\/     M anipulation  |                                                 |
\*---------------------------------------------------------------------------*/
FoamFile
{
    version     2.0;
    format      ascii;
    arch        "LSB;label=32;scalar=64";
    class       volScalarField;
    location    "0.0001";
    object      prefDh_H;
}
// * * * * * * * * * * * * * * * * * * * * * * * * * * * * * * * * * * * * * //

dimensions      [1 1 -3 0 0 0 0];

internalField   nonuniform List<scalar> 
3810
(
23289.6865
23373.8854
23981.0317
23941.6505
23314.0012
23385.1601
23937.3126
23344.8661
23362.9752
23976.6364
23933.0802
23215.4402
23305.8882
23980.4101
23919.3605
23187.6786
23306.3345
23979.3087
23919.14
23190.5919
23332.4457
23974.2388
23932.9515
23147.9159
23082.1251
23377.4282
23944.3615
23933.2403
23054.2571
23052.4911
23169.0747
23088.7544
23355.0551
23952.0047
23938.9627
23222.1569
23312.7821
23955.7274
23930.8084
23218.2201
23279.2697
23958.5592
23934.1035
23179.2457
23230.7869
23959.4586
23939.2814
23144.195
23186.6705
23959.5314
23944.8011
23110.0106
23140.8733
23960.5666
23951.4876
23058.9646
23078.1501
23962.8807
23959.1573
23034.3673
23046.9246
23965.3269
23963.1451
23084.1716
23100.2313
23970.155
23955.0706
23172.0908
23162.4525
23982.3626
23950.9871
23316.6536
23047.0521
23319.1203
23949.7795
23995.5319
23194.7255
23362.7063
23961.7032
23360.7463
23064.948
23991.9698
23946.8914
23336.0433
22966.5863
23144.0978
23932.5872
23978.454
23297.841
23206.0278
23935.5623
23977.766
23302.8636
23221.8182
23937.4432
23972.5135
23328.6077
23244.9031
23952.4881
23965.8386
23397.327
23219.8703
23169.0373
23167.9248
23949.7354
23957.0182
23388.4779
23165.905
23124.5596
23126.1836
23921.8201
23962.8278
23422.2865
23246.35
23923.615
23973.077
23367.1351
23205.877
23912.7728
23963.9953
23335.4915
23155.706
23930.3073
23940.8551
23388.9555
22925.2775
23024.2624
23907.1088
23961.1218
23436.2837
23199.5097
23883.3916
23974.1383
23395.8684
23165.3252
23867.5747
23966.047
23373.5432
23137.4503
23877.0131
23962.1571
23401.8816
23109.4012
23077.974
23379.3517
23913.5835
23959.9694
23399.2819
23113.5017
23221.8047
23881.6195
23977.8632
23423.9462
23191.2906
23755.6885
23972.155
23433.6278
23185.8389
23725.449
23956.1964
23430.524
23243.0095
23760.7584
23963.4399
23956.4634
23373.3904
23094.2931
23078.1235
23083.3201
23877.974
23938.9289
23377.1101
23130.3344
23371.3453
23899.6487
23989.5478
23418.1482
23165.7916
23867.5482
23975.3237
23406.3929
23118.0978
23131.9688
23166.8311
23915.0459
23966.1981
23419.2737
23251.3043
23922.7639
23975.9361
23338.6233
23204.9054
23199.6469
23381.3795
23928.3157
23954.4256
22996.9671
23080.3137
23868.4968
23959.8496
23858.5945
23093.0186
22960.7933
23396.0595
23940.3488
23903.224
23210.0058
23385.4995
23892.8522
23347.283
23393.8631
23971.9487
23863.8793
23186.4568
23374.7578
23967.9687
23852.9372
23141.1755
23357.9552
23963.9424
23852.0515
23107.4032
23367.693
23947.987
23859.2679
23070.6656
23396.0922
23859.5762
23305.988
23446.4395
23955.8555
23866.9609
22955.0011
22943.3002
23394.6172
23937.9935
23886.2868
23136.0783
23435.4745
23953.7202
23878.8756
23104.3122
23098.6457
23314.5904
23412.0525
23959.7651
23887.2088
23193.7697
23428.199
23952.8305
23883.1531
22994.8149
22986.0056
23287.1138
23411.4821
23953.882
23895.979
23249.7447
23444.6183
23937.1442
23891.068
23059.1846
23419.191
23885.9176
23346.5242
23403.6135
23955.4267
23886.6373
23174.835
23420.4802
23953.8065
23692.0658
23099.1474
23407.4375
23947.6005
23607.7933
23066.025
23385.1777
23942.5198
23535.9365
23045.6951
23374.5683
23947.2121
23520.5134
23062.3754
23368.4442
23958.6745
24002.3199
23952.3866
23360.9781
22834.4324
22916.9107
23404.5588
23945.287
23959.955
23105.1122
23269.2879
23938.0584
23951.3216
23175.9045
23259.0335
23934.3769
23949.2829
22988.9633
22910.7959
23218.9991
23213.5302
23380.7282
23928.3451
23995.1126
23339.881
23283.1809
23908.8804
23980.8395
23341.3176
23274.1213
23892.2835
23963.6276
23285.4001
23017.9767
23362.4751
23895.1823
23998.3686
23402.8986
23267.6797
23823.0444
23978.3374
23412.0618
23276.3049
23798.8019
23969.0938
23416.5356
23245.485
23779.4198
23958.0568
23374.8082
23029.8891
23115.854
23207.3485
23170.504
23252.6126
23873.3095
23985.5935
23398.456
23372.2742
23667.1506
23965.6028
23949.3559
23388.5276
23227.7393
23850.2935
23926.1186
23305.5827
23404.7137
23926.7786
23443.7821
23177.5225
23529.2417
23960.9589
23407.141
23214.2337
23046.2528
23005.2555
23454.3021
23949.0337
23385.9306
23300.7704
23485.869
23958.3154
23955.183
23406.1917
23262.4836
23550.3289
23961.3124
23440.4357
23234.2461
23176.2852
23170.1697
23073.2483
23049.4069
23413.225
23945.5857
23620.9455
23281.5944
23409.3418
23968.0507
23964.9258
23286.0277
23312.9274
23970.2483
23955.7141
23278.692
23279.5484
23973.6596
23957.5497
23285.0128
23265.5094
23979.0209
23954.037
23276.858
23227.4623
23997.1148
23938.4094
23389.196
22919.6585
23087.3749
23983.7718
23934.0355
23376.0466
22922.4466
23107.1291
23973.7094
23952.6804
23391.3741
23140.6101
23104.5996
23248.2931
23967.7442
23963.547
23953.3944
23368.8838
23285.6877
24006.5469
23943.3065
23361.1727
23084.2113
23366.937
23947.7894
23982.7196
23939.7318
23373.7753
23081.2874
23252.9418
23057.4127
23330.4598
23942.6458
23965.9419
23932.8677
23139.1611
22923.7568
23131.2373
22960.7726
23376.9075
23925.6523
23968.7054
23892.8605
23183.0974
23310.0531
23969.5406
23889.5073
22944.8715
22861.9825
23365.4135
23944.5852
23972.6501
23893.1435
23952.3701
23757.0092
23210.1039
23416.7727
23958.3495
23824.0092
23052.6008
23049.3155
23136.6363
23400.4461
23950.6251
23811.1456
23229.1944
23435.4415
23946.8846
23801.7465
23201.6963
23375.4861
23939.6055
23858.4785
23061.7001
22918.5739
23374.1483
23935.2997
23853.9273
23230.6221
23258.4597
23851.5549
23912.7724
23392.2868
23341.862
23523.9439
23937.0696
23580.1075
23190.0621
23407.3
23955.1145
23779.0949
23207.2481
23432.9624
23946.4282
23762.759
23001.1214
22997.0731
23233.5125
23412.1283
23940.4335
23690.0996
23048.5286
23045.1255
23426.6088
23923.0718
23660.4727
23290.9697
23402.487
23948.0433
23572.6486
23293.0096
23403.0121
23955.6819
23596.7324
23279.3985
23404.1587
23943.9868
23601.9289
23037.2604
23040.067
23415.3788
23922.91
23749.1428
23031.2434
23029.5719
23431.0393
23926.6526
23842.912
23058.3368
23055.2901
23244.702
23266.8404
23340.2031
23420.0583
23956.9964
23863.9923
23165.7928
23434.0964
23859.9095
23395.7622
23427.7424
23978.8392
23869.5203
23248.1225
23428.8014
23988.3313
23872.7787
23249.184
23424.7416
23988.1618
23875.9603
23334.6518
23413.8253
23968.2422
23873.2339
23121.2303
23117.1695
23310.3182
23360.9797
23449.2674
23967.1759
23905.1747
23279.4664
23392.2612
23980.5795
23912.0876
23200.7261
23401.1997
23914.0902
23297.878
23339.8454
23995.9948
23935.3714
23252.5665
23173.3777
23402.1966
23947.356
23904.5906
22963.0159
22961.2886
23227.839
23383.2882
23953.6097
23923.3347
22978.7309
23120.37
23963.7183
23929.7121
23290.3494
23191.9562
23460.4693
23932.531
23922.3169
22974.9354
22900.1093
23324.1396
23675.4014
23960.7045
23890.799
23959.3284
23932.696
23201.8282
23172.0926
23946.5113
23943.4146
22996.1661
22956.4042
23136.4833
23121.617
23235.5206
23094.9649
23356.3892
23955.0781
23969.5305
23435.3344
23221.3482
23334.6609
23952.8555
23994.154
23255.9457
23198.5252
23918.0962
23974.2384
23269.6047
23211.2012
23904.7737
23970.9595
23284.4838
23211.3175
23892.9769
23969.52
23306.9653
23214.4137
23880.958
23971.2565
23337.6908
23220.0652
23865.2117
23970.7202
23375.0808
23225.0061
23842.2599
23966.7898
23397.5128
23205.2623
23820.6068
23960.6208
23380.062
23023.7936
23073.4576
23236.152
23859.9748
23971.5389
23398.2335
23262.2682
23714.6744
23963.0685
23400.6239
23264.9616
23671.7741
23933.3332
23378.0039
22998.0099
23040.8138
23814.2176
23953.5633
23406.9854
23301.7049
23604.0683
23926.8045
23394.7178
23025.2845
23026.4937
23833.1164
23941.7536
23406.5556
23179.0024
23025.7962
23032.5595
23847.2989
23932.9891
23417.8584
23162.1452
23731.4501
23942.5907
23387.6352
22967.2254
22984.1526
23462.0415
23952.2951
23955.5255
23967.544
23939.6376
23371.6281
23092.3873
23203.9868
23154.0832
23384.964
23949.8028
23936.9816
23155.0443
22984.1469
23385.607
23938.4311
23903.013
23276.2509
23391.6591
23967.7059
23877.3284
23220.3414
23427.8441
23963.4888
23851.2363
22963.085
22952.9612
23397.6038
23934.017
23850.1683
23152.395
23443.0944
23946.6115
23780.2344
23200.8907
23424.7422
23936.2118
23695.2625
23100.7698
23392.7421
23751.1483
23347.8586
23390.4195
23949.2043
23452.1142
23267.8064
23403.1824
23950.149
23605.2598
22981.0398
22988.7778
23418.2184
23911.5882
23446.9372
23238.0812
23402.6598
23933.4713
23448.8353
23277.6231
23402.9311
23948.7248
23796.4979
23026.9932
23020.4813
23391.9914
23930.6769
23861.1697
23110.3334
23023.0122
23382.6503
23916.6634
23606.9131
23305.9039
23392.0526
23937.8707
23582.2741
23273.987
23388.4783
23964.1046
23841.9185
23283.7327
23081.7295
23151.6679
23137.1236
23157.4225
23247.6657
23508.6631
23946.9523
23921.6461
23931.7468
23545.9541
23280.913
23410.5302
23936.5553
23725.7011
23027.5275
23030.7765
23406.9291
23934.565
23824.7134
23162.2723
23397.3312
23956.9174
23918.0134
23948.8924
23862.3296
22907.4592
22903.9495
23388.1438
23932.8277
23843.5663
22984.7369
22986.7491
23163.2169
23056.4539
23374.0433
23962.4678
23950.1555
23957.8157
23911.475
23177.2397
23073.003
23383.4155
23950.4648
23907.2511
23066.7881
23068.3883
23205.6869
22997.6161
23369.6105
23964.814
23972.4305
23913.0139
23216.5916
23247.0442
23974.6118
23905.2565
23220.0169
23300.0422
23974.4035
23942.5297
23184.9845
23186.0623
23200.5252
23351.2211
23978.0584
23952.8789
23309.6193
23365.997
23986.7841
23960.4126
23332.6906
23359.0929
23988.8183
23969.6007
23331.7166
23188.3186
23204.7765
23198.4221
23071.5018
23252.3614
23996.8503
23964.3751
23998.6901
23962.7852
23357.9372
23057.1662
23325.9923
23965.967
23997.9159
23209.6203
23175.5881
23973.1301
23988.7814
23210.0091
23179.8914
23977.4158
23980.5664
23255.25
23274.1518
23974.3205
23378.1764
23187.2159
23970.7054
23983.7352
23371.2353
23314.2433
23966.5086
23970.0437
23387.4758
23339.2584
23351.3003
23253.8669
23253.1548
23938.0549
23968.2626
23377.8495
23238.184
23236.3103
23186.4668
23045.3284
23046.6567
23924.5406
23946.1843
23378.8034
22973.4661
22979.9764
23910.6823
23969.2422
23940.4302
23981.4502
23390.5496
23216.5896
23925.1174
23984.707
23404.0201
23309.7523
23929.9745
23971.19
23381.1792
23288.8609
23296.8536
23183.8891
23358.4519
23931.1009
24003.606
23398.0238
23231.7577
23924.6263
23969.0564
23391.364
23250.2125
23078.5873
23086.6526
23901.9515
23509.7783
23186.8334
23884.305
23969.9452
23379.3008
23193.2106
23886.0421
23970.0419
23426.8965
23232.7631
23893.2406
23960.8272
23423.929
23202.2336
23916.1387
23928.2799
23402.8209
22974.8336
22982.3934
23902.605
23949.9895
23429.5649
23214.3457
23924.9209
23950.4093
23399.135
23197.9253
23200.1374
22933.7787
22943.9493
23902.3442
23955.1454
23435.4132
23264.3463
23911.1659
23975.3939
23434.1648
23252.4025
23920.2194
23970.701
23425.5873
23224.2089
23932.0416
23941.9144
23402.9898
22989.8565
22992.1896
23936.9625
23933.3551
23414.8441
23241.0948
23242.1284
23016.6659
23020.2178
23930.161
23944.0527
23441.3777
23311.8786
23396.2932
23944.2697
23982.2005
23348.9735
23279.8076
23918.7264
23977.0421
23311.1556
23336.2975
23945.3094
23675.2107
23189.9952
23014.5705
23372.7461
23923.628
23960.8881
23246.8163
23191.8163
23896.8539
23957.2812
23271.4762
23203.1979
23895.3734
23947.1028
23179.8132
23358.4129
23922.7772
23491.2639
23059.4048
23093.4439
23040.5209
23037.73
23478.3732
23941.2091
23950.4036
23955.7662
23476.1069
23210.2159
23394.4677
23937.3198
23994.5537
23384.9691
23389.6385
23921.8682
23977.3865
23399.9652
23193.993
23169.022
23284.9835
23903.5796
23955.8501
23415.4545
23327.9206
23458.6891
23967.1927
23387.572
23225.3923
23668.1007
23973.6018
23418.8645
23165.5552
23890.7674
23963.1796
23400.204
23030.6358
23152.9661
23103.2498
23154.8524
23032.6631
23328.9536
23877.8309
23982.0366
23881.3552
23387.1827
23282.6725
23960.9787
23923.7894
23342.1176
23384.585
23743.6329
23433.8334
23303.2742
23652.985
23915.4317
23357.5487
23338.6347
23942.622
23885.8056
23295.5545
23337.5043
23932.5774
23863.0552
23277.7768
23331.4451
23925.8258
23849.8272
23211.4904
23225.5941
23864.7512
23862.9801
23395.7203
23520.438
23873.8687
23307.5791
23357.2386
23924.4456
23848.4011
23194.4319
23046.7589
23192.3939
23394.2175
23898.5908
23850.7432
23285.2159
23003.8168
23370.4119
23898.6078
23844.0657
23383.3661
23415.981
23868.1755
23853.2626
23396.9053
23389.4814
23823.6542
23836.1829
23314.6889
23051.0559
23189.4925
23395.5905
23692.927
23877.1277
23368.6812
23378.9174
23591.8332
23868.5153
23354.5916
23279.9653
23521.7314
23870.255
23338.9608
23129.4698
23432.0132
23909.641
23403.0665
23225.494
23404.394
23938.3062
23544.3539
23295.088
23410.9067
23936.7725
23626.0748
23088.5925
23116.1566
23417.5929
23927.7467
23801.895
23089.2705
23096.9798
23403.9567
23932.8161
23834.0689
23113.0217
23114.9314
23218.8406
23389.2851
23966.1612
23886.4719
23244.4334
23413.4945
23975.6786
23901.6157
23256.1903
23408.0374
23980.2661
23930.325
23223.3924
23379.9519
23975.2471
23380.5155
23346.1026
23987.6367
23966.2904
23247.0035
23327.9827
23985.5647
23954.5431
23240.3875
23149.9727
23249.1057
23160.9886
23232.2101
23164.5662
23292.6513
23958.7732
23986.5764
23286.4196
23264.5793
23960.1348
23976.2278
23248.6349
23211.2897
23954.3379
23970.4556
23205.9038
23159.1263
23942.1518
23966.2879
23173.2729
23109.2795
23927.0017
23959.1604
23153.5389
23084.608
23911.4152
23948.8438
23130.0698
23049.4272
23895.1722
23944.3482
23916.1689
23946.2626
23154.9611
22847.8812
22767.3028
22840.3086
23907.8716
23934.5458
23924.676
23950.1058
23944.9916
23367.1713
23126.1875
23942.774
23941.5466
23386.4133
23167.1037
23258.0708
23110.1289
23111.7694
23923.2024
23946.6544
23435.7105
23193.9451
23181.8616
22979.5002
22982.5897
23914.4534
23957.0209
23918.2755
23968.9287
23507.3402
23286.0487
23203.6952
23246.3665
23153.7518
23351.5836
23929.4208
23990.0228
23410.7779
23248.0935
23901.6416
23976.6775
23399.1296
23202.5693
23874.9022
23964.1814
23389.2802
23169.9547
23854.8647
23959.5163
23374.4434
23113.3182
23838.2847
23958.3313
23358.2339
23114.9838
23811.4815
23953.2633
23452.7384
23326.2487
23799.4423
23410.1529
23077.3577
23740.7942
23924.1085
23428.7491
23261.5917
23709.3971
23688.7812
23236.3146
22822.911
22816.3356
23456.9804
23908.1064
23936.1376
23397.0648
23147.5037
23604.9675
23923.8871
23395.5357
23155.5152
23590.856
23917.9752
23477.3645
23059.1891
22967.2082
23424.028
23905.1492
23946.3465
23483.3643
23381.0883
22969.0689
22954.2237
23470.8353
23923.4644
23645.9868
23398.5272
23415.5733
23295.1356
23284.0815
23530.4483
23925.6535
23907.2365
23947.8007
23942.0431
23282.9643
22915.5483
23391.3502
23909.289
23598.3128
23338.156
23235.0553
23076.5533
23003.6978
23374.0034
23916.2459
23422.5575
23293.8326
23485.1665
23956.3981
23724.209
23364.5734
23044.0814
23365.0691
23914.1208
23618.2769
23280.2943
23376.6806
23944.9645
23522.6312
23238.4328
23371.8649
23960.6855
23967.8648
23361.0315
22965.0904
23376.4444
23928.3953
23981.285
23383.0119
23166.198
23238.1165
23180.736
23110.2196
23381.128
23944.8481
23718.3364
23388.1227
23388.9668
23956.1209
23956.8126
23344.8839
23277.655
23925.1099
23974.2312
23420.1274
23230.5647
23934.3399
23968.4589
23430.9901
23206.2555
23944.0032
23986.9085
23361.0772
23352.8766
23960.0171
23640.1549
23248.0465
23418.7734
23974.479
23384.8189
23348.2946
23960.4221
23533.0188
23111.6411
23606.1881
23929.1863
23380.4396
23066.0506
23183.0296
23012.8396
23108.3407
23952.6671
23935.027
23421.4493
23296.4097
23966.6454
23909.7619
23255.4141
23222.6043
23932.9408
23939.8033
23910.0641
23911.1125
23242.5143
22948.2837
23024.5797
23232.2706
23963.7956
23887.4096
23317.1515
23403.0104
23982.2004
23918.3635
23246.6039
23084.5961
23385.6429
23940.7122
23943.0117
23121.5588
23115.377
23110.5696
23401.1568
23951.9877
23947.7828
23002.4658
22982.8287
23179.2059
23118.5736
23388.3036
23948.2547
23951.9061
23943.1728
23962.4833
23147.4733
23088.2895
23407.8425
23938.5218
23968.8907
23160.6136
23389.5365
23954.2346
23390.8616
23128.8875
23978.7106
23945.7082
23203.8236
22932.0465
23387.53
23935.1699
23987.8233
23255.7976
23224.3248
23953.0706
23967.3878
23217.4131
23229.0855
23951.136
23965.1523
23187.9244
23223.343
23951.0166
23957.3293
23036.6396
22941.2653
23313.8958
23474.563
23967.6369
23940.9439
23388.6147
23019.1766
23166.7102
23761.5308
23939.744
23381.2735
22919.115
23206.3995
23923.3492
23969.6464
23310.3429
23242.2155
23922.4495
23949.5585
23241.8164
23252.3649
23942.5518
23950.1114
23208.6772
23261.6709
23951.8083
23942.8884
23183.9632
23264.3171
23955.0394
23934.973
23167.1768
23269.9455
23954.0758
23926.0681
23150.7316
23243.1263
23955.3692
23928.6379
23061.504
22891.8032
23031.4489
23372.1068
23958.3134
23943.8226
23198.9708
23222.8508
23954.7995
23948.5719
23281.4299
23253.4693
23903.4972
23962.2384
23392.4514
23322.9301
23460.499
23948.8333
23714.1793
23195.8785
23148.8755
23340.8042
23401.6567
23706.1049
23956.4754
23606.218
23202.7569
23354.0609
23930.5944
23968.1272
23139.1589
23091.0602
23915.6918
23936.1574
23382.3979
23017.9419
23013.1625
23221.0261
23941.1743
23970.3786
23353.0321
23234.1997
23943.2973
23963.5065
23391.1336
23219.6909
23791.2464
23937.3994
23415.9543
23158.7355
23666.9919
23839.7565
23266.5796
23299.5389
23941.6581
23877.4231
23191.3747
23396.5276
23975.9021
23977.5261
23911.0768
23386.0209
22970.7589
23009.2168
22984.0452
23366.6515
23959.2525
23959.5949
23955.1288
23926.6733
23379.6398
22986.2981
23002.4594
23384.9039
23955.1226
23834.0343
22993.9272
22994.6423
23396.5075
23951.0935
23827.9236
23219.5163
23421.5017
23961.7179
23828.7624
22998.9301
22997.6182
23389.478
23928.1067
23842.4699
23053.0684
23047.9385
23162.728
23384.7066
23937.7848
23566.9368
23299.9596
23386.3726
23939.8947
23550.8736
23291.4471
23382.3081
23939.7662
23574.4219
23278.889
23379.3803
23938.8752
23611.8519
23284.5484
23380.5766
23934.7711
23649.1159
23301.7239
23384.057
23916.9602
23638.9647
23336.6067
23382.5912
23871.7328
23380.2448
23291.9145
23836.3378
23836.8926
23402.2125
23359.4584
23894.3765
23863.2417
23336.853
23076.6361
23182.4318
23233.6424
23462.0669
23928.6575
23663.4874
23096.9339
23231.1437
23819.8785
23889.2176
23390.2148
23278.8424
23403.6819
23937.413
23718.3327
22956.7685
22952.8754
23292.8146
23462.8364
23942.5345
23691.599
23074.9171
23107.6596
23462.8456
23936.9294
23765.3268
23305.8725
23424.3555
23956.8242
23762.6369
23310.0473
23428.2176
23962.7229
23757.1081
23269.3681
23426.0236
23947.5526
23709.5835
23017.8918
23012.2828
23198.5849
23229.5867
23352.2064
23462.0057
23950.0324
23808.8075
23295.3531
23443.7992
23929.3289
23803.1474
22799.3686
22787.6638
23385.3452
23930.9818
23969.8684
23909.1764
23452.6699
22931.6346
23381.4427
23962.5706
23909.6156
23325.4904
23200.9812
23674.0354
23898.3824
23315.3104
23021.0867
23139.2875
23179.7185
23577.2523
23906.9113
23922.3897
23887.7411
23924.0823
23883.7887
22829.3709
22787.6198
23081.7829
22925.7355
23380.1498
23917.4295
23967.8286
23920.4544
23205.251
23216.259
23968.5184
23918.1326
23184.1835
23285.7426
23967.5832
23923.4329
23141.8698
23221.0035
23963.7182
23934.8059
23040.5583
23170.7823
23949.5259
23937.9139
23067.5149
23058.3241
23010.1043
23170.0242
23847.8205
23934.6949
23857.27
23934.3303
23896.0968
23932.0891
23917.278
22889.6824
22782.206
23058.1966
22931.9703
23199.3675
23951.1128
23950.2758
23291.1315
23029.0376
23360.9653
23947.8774
23977.8923
23253.3103
23223.4804
23953.0706
23951.4053
23272.8237
23076.8011
23960.6725
23939.7832
23294.8479
23931.5277
23970.6998
23200.978
22999.8216
23377.8354
23946.4926
23966.0299
23320.7459
23130.3366
23196.949
23249.7507
23200.1248
23376.2591
23941.9938
23990.8392
23355.7263
23209.6634
23923.8287
23985.7584
23314.6909
23188.5663
23912.4754
23977.8052
23317.5525
23191.3757
23904.2125
23973.3658
23332.8601
23204.5018
23894.6032
23970.0313
23347.6451
23211.1673
23885.6839
23970.6287
23332.6632
23200.0461
23886.3004
23965.9812
23308.0647
23255.182
23887.9794
23954.9612
23946.2971
23958.7654
23368.2718
22917.3535
23044.71
23052.6803
23013.7948
23095.0092
23913.7579
23960.6318
23398.7316
23262.3458
23885.596
23960.7038
23380.5555
23157.3418
23370.6327
23932.1484
23966.9676
23372.1503
22992.6089
23221.6048
23899.6305
23970.6263
23178.8594
23019.7224
23847.8371
23961.911
23320.231
23145.968
23852.4507
23958.8272
23288.7609
23122.7395
23854.8871
23955.49
23360.9533
23112.4291
22942.263
23076.8685
23913.0884
23944.9993
23939.9549
23276.1607
23083.1193
23898.0533
23936.9476
23373.8368
23183.8109
23367.8017
23923.3267
23992.1331
23361.2404
23190.0607
23918.2748
23961.631
23376.213
23011.2927
23372.4717
23942.4756
23968.7422
23388.6236
22881.585
23202.0266
23922.7076
23945.8099
23942.7037
23955.0238
23350.0967
22965.6943
23220.4077
23119.1638
23287.8986
23933.4762
23978.2616
23397.3173
23243.8805
23958.8277
23975.962
23270.0802
23165.6829
23987.6802
23957.0712
23339.8817
22925.9253
23095.9897
23970.0385
23972.7627
23379.7301
23389.6764
23978.2492
23380.1087
23135.2237
23981.9339
23963.9853
23260.226
23180.3862
23966.6352
23967.5288
23214.7921
23156.4149
23966.6914
23967.1597
23201.5624
23164.0222
23973.0261
23965.7632
23273.0053
23240.1774
23609.7967
23961.3248
23943.5293
23365.3798
23360.9168
23970.1052
23393.3168
22918.5274
23153.8005
23973.2728
23930.3685
23379.5582
22955.4257
23226.8802
23968.8143
23944.0332
23397.8055
23150.1926
23066.9052
23307.2944
23978.5934
23947.5482
23979.525
23924.865
23371.7236
23120.3312
23288.3906
23202.1464
23374.2614
23948.6761
23900.7154
22992.7011
22998.0936
23238.5558
23227.4717
23399.5314
23949.4739
23875.2163
23259.1171
23415.2354
23956.1882
23861.3347
23230.0002
23432.2327
23949.1496
23842.1288
22995.8382
22985.8752
23418.2886
23915.3634
23856.094
23004.6498
22998.3294
23427.7475
23931.0438
23892.5113
23262.793
23406.6971
23924.3418
23390.4124
23302.9146
23831.9147
23900.3183
23326.0337
23354.7898
23953.1098
23876.2456
23222.8562
23356.6247
23955.5946
23870.4559
23169.2312
23340.557
23957.5088
23870.5483
23148.2883
23336.7252
23958.9079
23879.582
23168.0727
23385.9178
23951.1858
23894.9562
22979.4789
22979.9223
23159.1644
23391.3953
23975.9581
23927.5176
23292.8194
23067.0894
23383.7697
23953.5091
23929.702
23149.0625
23017.3574
23370.4939
23906.1714
23988.7099
23899.3452
23316.1018
23004.4686
23153.5568
23409.023
23969.8251
23922.389
23295.9467
23409.5348
23926.6312
23968.8342
23894.3564
23259.6544
22943.2936
23085.4475
23413.2504
23959.4594
23893.8913
23151.3775
23195.4138
23880.1584
23899.6332
23411.8778
23541.8915
23915.8852
23387.7502
22940.8572
23378.7431
23792.4374
23926.5268
23377.7262
23030.4973
23262.0701
23582.0404
23938.7199
23420.613
23252.4558
23406.4886
23936.3808
23497.4627
23256.318
23400.0243
23919.68
23430.2943
22958.87
23009.0595
23136.9768
23393.6055
23944.126
23678.7433
23072.757
23390.6798
23967.2112
23920.4082
23978.6912
23859.9581
23370.0539
22953.7269
23106.6466
23007.3614
23359.5533
23974.5307
23977.0941
23904.0902
23287.3469
22900.7469
23367.3616
23954.708
23900.607
23172.7425
23255.9921
23970.9235
23936.9552
23237.0589
23250.298
23991.2138
23938.8831
23380.2073
22952.2801
23039.7662
23951.4692
23970.8023
23351.225
23207.1221
23941.1324
23975.9683
23410.6951
23266.4524
23919.8082
23966.5971
23435.1096
23282.4774
23920.6085
23933.9167
23405.7954
23055.251
23072.5605
23908.6118
23946.2457
23417.4035
23313.4949
23000.5214
23016.1894
23902.4595
23918.7891
23413.8681
22998.2102
23017.1224
23655.5865
23925.861
23918.0418
23932.9978
23429.6352
23072.958
23051.3497
22878.4352
22843.4733
23455.6477
23947.219
23408.9047
23171.6237
23904.5249
23957.1817
23413.3405
23231.1288
23925.3484
23962.6143
23381.2851
23225.5756
23941.7579
23961.1662
23320.7954
23189.0711
23956.7298
23951.8309
23244.9111
23131.22
23894.7026
23923.3835
23481.2863
22999.6544
23102.0798
23894.4608
23937.1688
23300.3079
23393.3886
23957.7088
23375.8097
23045.9644
24028.6713
23931.1493
23369.4478
23064.2183
23068.6384
23398.8328
23914.925
23975.8183
23869.1716
23955.7113
23870.6229
23230.6478
23035.0015
23157.2017
23125.6281
22969.9058
23148.5383
23978.8784
23937.2733
23380.8076
23250.7401
23080.1565
23208.9538
23965.8163
23931.8603
23283.74
23315.1263
23949.3391
23921.2318
22933.7008
23012.7083
23940.4577
23923.5084
23405.3054
23009.8021
23082.0185
23623.5605
23956.2184
23305.7042
23236.5462
23989.8751
23952.9558
23206.2423
23230.2044
23987.4741
23950.5195
23179.1351
23221.617
23968.3107
23940.1188
23141.0466
22812.5838
23135.0598
23962.285
23966.4691
23240.3968
23259.7663
23966.7295
23991.05
23083.2296
23377.3334
23972.4627
23357.8249
23258.4015
24014.7934
23959.5469
23370.3385
23202.1935
23232.3766
23115.5001
23189.8872
23979.8947
23983.6908
23361.3948
23301.8412
23993.5213
23992.6277
23357.8364
23361.0946
23980.8782
23389.8232
23145.1677
23984.1899
23970.3807
23354.137
22964.4261
23120.5646
23959.9034
23972.6461
23328.5118
23215.3901
23949.8425
23954.6204
23375.1628
23119.0705
23120.7339
23940.0721
23969.9064
23388.3645
23192.3767
23944.0951
23962.7656
23298.2974
23106.1259
23943.2035
23956.6698
23372.4174
23078.0714
23175.3953
22993.5669
22996.9139
23910.2537
23952.8374
23404.9526
23166.9144
23922.2847
23942.6288
23381.6752
22957.5006
23009.261
23930.271
23959.4645
23955.522
23383.5055
23166.0069
23082.7926
23085.4614
23904.9902
23959.3191
23423.7909
23246.6163
23900.8202
23965.4637
23412.4835
23244.9472
23899.0848
23967.6584
23396.0214
23223.017
23899.2784
23964.6396
23363.5011
23178.1778
23917.5351
23956.7601
23404.8622
23167.8352
23017.7102
23020.3687
23921.1704
23929.3964
23390.5487
23009.7614
23088.8864
23927.1814
23960.4174
23928.7956
23374.5436
23080.1673
23086.7604
23919.255
23967.1359
23420.2445
23264.6192
23927.8529
23964.6338
23411.7166
23208.6993
23922.2067
23987.2733
23199.3383
23400.777
23953.8587
23562.0532
23156.0238
23018.6988
23359.1004
23950.5751
23991.4561
23388.4616
23154.3509
23992.2057
23967.1515
23389.7566
23201.9519
23193.3559
23187.8672
23069.5864
23195.7526
23947.442
23963.0912
23279.2025
23129.9073
23965.3838
23953.9599
23301.4207
23235.9909
23949.7745
23933.3189
23125.616
23132.2879
23949.9222
23941.4638
23937.0265
23942.9204
23935.4235
23934.4258
23407.3728
22958.017
23146.434
23091.3887
23073.2221
23144.3472
23971.3532
23932.2844
23309.7518
23138.6911
23157.2155
23233.7803
23982.4527
23953.583
23285.4086
23289.4662
23995.4436
23959.4955
23374.0665
23384.0727
23973.6783
23514.219
23229.0704
23371.8062
23962.0779
23993.2331
23237.6706
23365.5799
23951.3976
23372.524
23037.5182
23214.3172
23132.5662
23348.8781
23975.6631
23976.1362
23369.6666
22977.3238
23288.7415
23971.8017
23979.4506
23368.4901
22902.4154
23303.1277
23960.964
23980.6462
23375.7034
23125.3246
23952.4284
23975.7474
23228.4759
23211.9078
23926.6722
24004.8547
23279.1301
23373.1767
23962.2224
23391.405
23103.4171
23003.3277
23258.9426
23914.7445
23981.6341
23926.6671
23354.4684
23054.3734
23350.6659
23915.2494
24005.5223
23236.5404
23072.2546
23903.8759
23974.6267
23253.7741
23139.2164
23899.5196
23986.1698
23332.0352
23393.8128
23950.5207
23388.8648
23222.744
23924.5965
23953.6745
23376.5604
23157.5723
23369.1872
23929.0957
23986.424
23265.0685
22986.3204
23366.129
23910.3178
23991.8771
23170.1361
23003.8826
23125.809
23386.3857
23929.4588
23976.1022
23203.6975
22984.6632
23368.8746
23918.4309
23996.6853
23330.7387
23242.4842
23925.1872
23974.47
23312.6518
23244.561
23945.043
23969.8551
23296.7387
23242.2937
23961.5391
23960.0322
23148.4255
23038.7603
23291.9013
23467.5826
23969.2926
23949.0541
23071.2884
23050.5617
23419.8116
23947.0593
23931.6176
23183.0432
23279.9537
23981.317
23899.6923
23205.2899
23433.1508
23962.0853
23748.0348
23071.4127
23065.4399
23448.3585
23936.6059
23862.9852
23347.6289
23431.9081
23948.3076
23744.2109
23070.2174
23060.8838
23315.5905
23421.4164
23962.346
23622.2482
23375.6687
23875.4611
23685.4336
22944.8753
23391.5536
23919.4077
23918.6095
23499.4158
22949.8295
22964.7091
23147.4859
23163.6774
23268.3528
23349.7185
23452.4382
23913.2571
23956.9158
23764.3884
23261.7595
23416.8566
23960.4244
23734.9928
22974.4135
22974.1358
23389.2968
23940.8489
23783.0314
23190.1735
23413.068
23966.2501
23771.5418
23235.7607
23415.5231
23964.1513
23761.0235
23269.6295
23328.017
23547.2379
23947.6894
23748.3086
23311.6275
23415.8162
23946.375
23677.2444
23072.8982
23072.0961
23270.9172
23274.1469
23315.9405
23283.6851
23422.343
23942.9555
23928.7769
23492.5187
23056.5902
23159.6925
23567.689
23928.0038
23657.3951
23290.0053
23409.2651
23949.5748
23675.1911
23295.281
23400.3709
23932.7451
23485.1468
23059.8418
23170.6618
23540.6305
23924.6218
23595.7788
23277.6299
23401.591
23941.4671
23575.8457
23297.3067
23402.9402
23938.3396
23511.7961
23286.6989
23421.9439
23901.5737
23356.3766
23032.0751
23096.7027
23390.0488
23658.7529
23916.1062
23365.2242
23238.8354
23658.8863
23876.7305
23275.5065
22930.3288
23362.309
23939.3446
23913.7042
23329.2284
23319.2569
23934.2766
23884.3005
23135.9436
22931.7541
23380.328
23941.4578
23895.3732
23268.507
23370.9458
23963.756
23898.7792
23109.7924
22978.6313
23383.7609
23933.514
23927.1682
23939.3563
23900.6115
23231.6969
23063.1859
23199.5777
23395.4142
23963.1665
23911.2308
23115.4078
23031.5135
23192.228
23136.8393
23385.9364
23954.668
23890.8381
23266.7018
23420.5739
23961.6011
23870.8123
23274.3278
23427.8946
23961.7667
23868.7936
23282.7125
23417.5497
23961.3799
23872.4612
23296.0052
23397.48
23957.8551
23904.8428
23338.6234
23315.563
23845.9405
23906.1572
23380.0574