/*--------------------------------*- C++ -*----------------------------------*\
| =========                 |                                                 |
| \\      /  F ield         | OpenFOAM: The Open Source CFD Toolbox           |
|  \\    /   O peration     | Version:  2306                                  |
|   \\  /    A nd           | Website:  www.openfoam.com                      |
|    \\/     M anipulation  |                                                 |
\*---------------------------------------------------------------------------*/
FoamFile
{
    version     2.0;
    format      ascii;
    arch        "LSB;label=32;scalar=64";
    class       volScalarField;
    location    "0.0001";
    object      prefDPV_H2O;
}
// * * * * * * * * * * * * * * * * * * * * * * * * * * * * * * * * * * * * * //

dimensions      [1 -1 -1 0 0 0 0];

internalField   nonuniform List<scalar> 
3810
(
-3.65871152e-07
-3.68591712e-07
-3.83444963e-07
-3.84639846e-07
-3.66027204e-07
-3.71214146e-07
-3.84693443e-07
-3.6625656e-07
-3.66376261e-07
-3.83537734e-07
-3.85000338e-07
-3.65363694e-07
-3.66071491e-07
-3.83648847e-07
-3.85099256e-07
-3.65178829e-07
-3.66122796e-07
-3.83673513e-07
-3.8502936e-07
-3.65207854e-07
-3.66280308e-07
-3.8369792e-07
-3.84518242e-07
-3.64972978e-07
-3.64714546e-07
-3.68635975e-07
-3.84074035e-07
-3.84566809e-07
-3.64455884e-07
-3.64478812e-07
-3.65161366e-07
-3.64705651e-07
-3.6634826e-07
-3.83911151e-07
-3.84589428e-07
-3.65537304e-07
-3.66185375e-07
-3.83759251e-07
-3.84600652e-07
-3.65492925e-07
-3.6598292e-07
-3.83782106e-07
-3.84554063e-07
-3.6522957e-07
-3.65657669e-07
-3.83840452e-07
-3.84483757e-07
-3.6499946e-07
-3.65358067e-07
-3.83896745e-07
-3.84391705e-07
-3.64774817e-07
-3.65043269e-07
-3.83963323e-07
-3.84301331e-07
-3.64433146e-07
-3.64609646e-07
-3.84013658e-07
-3.84191015e-07
-3.64259549e-07
-3.64380318e-07
-3.8398718e-07
-3.84028674e-07
-3.64562316e-07
-3.64728726e-07
-3.83904058e-07
-3.8394392e-07
-3.65073178e-07
-3.65170247e-07
-3.83708875e-07
-3.83926003e-07
-3.65944949e-07
-3.64485764e-07
-3.65962386e-07
-3.84184967e-07
-3.83169274e-07
-3.65328426e-07
-3.67200863e-07
-3.84125749e-07
-3.66757252e-07
-3.64530792e-07
-3.83822439e-07
-3.8413943e-07
-3.66063615e-07
-3.64013599e-07
-3.64872433e-07
-3.84427032e-07
-3.83659377e-07
-3.66102914e-07
-3.65309199e-07
-3.84572393e-07
-3.83629641e-07
-3.66140513e-07
-3.65428791e-07
-3.84620741e-07
-3.83635611e-07
-3.6628383e-07
-3.65613913e-07
-3.84516209e-07
-3.83709951e-07
-3.6710834e-07
-3.6551395e-07
-3.65215323e-07
-3.65180111e-07
-3.84426708e-07
-3.83849326e-07
-3.67812231e-07
-3.65156716e-07
-3.64971345e-07
-3.64883626e-07
-3.84887115e-07
-3.83776225e-07
-3.67212946e-07
-3.65621548e-07
-3.85188636e-07
-3.83704089e-07
-3.66634269e-07
-3.6536108e-07
-3.85538201e-07
-3.83851941e-07
-3.66403191e-07
-3.65112072e-07
-3.85586721e-07
-3.84249341e-07
-3.67887435e-07
-3.63825327e-07
-3.6427782e-07
-3.85286743e-07
-3.83911584e-07
-3.6729063e-07
-3.65307499e-07
-3.86212733e-07
-3.83845121e-07
-3.66916415e-07
-3.6509184e-07
-3.86616224e-07
-3.83969266e-07
-3.66757095e-07
-3.64953553e-07
-3.86760723e-07
-3.84111137e-07
-3.68176805e-07
-3.64755068e-07
-3.64706173e-07
-3.67603475e-07
-3.85011741e-07
-3.83746827e-07
-3.7246092e-07
-3.64970286e-07
-3.65504826e-07
-3.85673484e-07
-3.83667778e-07
-3.68504121e-07
-3.65201119e-07
-3.85220121e-07
-3.83981831e-07
-3.67667647e-07
-3.65239033e-07
-3.8445248e-07
-3.84022329e-07
-3.67344578e-07
-3.65653165e-07
-3.85283705e-07
-3.83792207e-07
-3.83857277e-07
-3.68466653e-07
-3.64715675e-07
-3.64674987e-07
-3.64736822e-07
-3.86026905e-07
-3.84042631e-07
-3.6985416e-07
-3.65053698e-07
-3.6676762e-07
-3.85226353e-07
-3.8352115e-07
-3.67518794e-07
-3.65025258e-07
-3.86700344e-07
-3.83937429e-07
-3.66971181e-07
-3.64800326e-07
-3.65042834e-07
-3.65163617e-07
-3.84896446e-07
-3.83651719e-07
-3.66966762e-07
-3.65628753e-07
-3.85114617e-07
-3.83663708e-07
-3.66346133e-07
-3.65329517e-07
-3.65497268e-07
-3.66978179e-07
-3.8430906e-07
-3.83890701e-07
-3.64365094e-07
-3.64496119e-07
-3.86490423e-07
-3.83926573e-07
-3.85800989e-07
-3.64626834e-07
-3.64017389e-07
-3.72418505e-07
-3.84059109e-07
-3.85090416e-07
-3.65514466e-07
-3.70695634e-07
-3.85319402e-07
-3.66295592e-07
-3.66713835e-07
-3.83685688e-07
-3.86303411e-07
-3.65219482e-07
-3.66687313e-07
-3.83928618e-07
-3.86691546e-07
-3.64949526e-07
-3.66614235e-07
-3.84042721e-07
-3.86928931e-07
-3.64757287e-07
-3.6669709e-07
-3.84171672e-07
-3.86815038e-07
-3.64738804e-07
-3.71090199e-07
-3.86669684e-07
-3.6607131e-07
-3.67305064e-07
-3.84015153e-07
-3.86470484e-07
-3.63843516e-07
-3.64013385e-07
-3.69012277e-07
-3.84331319e-07
-3.86705243e-07
-3.64996366e-07
-3.6713658e-07
-3.84073257e-07
-3.86401863e-07
-3.64806426e-07
-3.65028926e-07
-3.66117236e-07
-3.70915736e-07
-3.83847824e-07
-3.86459739e-07
-3.65347433e-07
-3.67103013e-07
-3.84137417e-07
-3.86503412e-07
-3.64123901e-07
-3.64312012e-07
-3.65974033e-07
-3.70239824e-07
-3.83841604e-07
-3.86106435e-07
-3.65757591e-07
-3.6747815e-07
-3.84126735e-07
-3.86380154e-07
-3.64666276e-07
-3.73245565e-07
-3.86098515e-07
-3.66404567e-07
-3.66987734e-07
-3.83866841e-07
-3.86409873e-07
-3.65226639e-07
-3.67023197e-07
-3.84144606e-07
-3.83594261e-07
-3.64751447e-07
-3.67617766e-07
-3.84294088e-07
-3.81249393e-07
-3.64566431e-07
-3.68295071e-07
-3.84385498e-07
-3.79057921e-07
-3.64446053e-07
-3.68803967e-07
-3.84365157e-07
-3.7855801e-07
-3.64490404e-07
-3.69222804e-07
-3.83933503e-07
-3.83320471e-07
-3.84634511e-07
-3.70728693e-07
-3.63119206e-07
-3.63510636e-07
-3.6865984e-07
-3.84326773e-07
-3.84975372e-07
-3.64847307e-07
-3.66046056e-07
-3.84132911e-07
-3.84686477e-07
-3.65280696e-07
-3.65956518e-07
-3.84328403e-07
-3.84671125e-07
-3.64045443e-07
-3.63714269e-07
-3.65550552e-07
-3.65622625e-07
-3.7015738e-07
-3.84090354e-07
-3.83795458e-07
-3.66254419e-07
-3.65892864e-07
-3.84713272e-07
-3.83899176e-07
-3.66238606e-07
-3.65865629e-07
-3.85285666e-07
-3.84078136e-07
-3.65745707e-07
-3.64316313e-07
-3.68082654e-07
-3.84931848e-07
-3.83559933e-07
-3.67259017e-07
-3.65720411e-07
-3.86492621e-07
-3.83780068e-07
-3.67813618e-07
-3.65808728e-07
-3.86501689e-07
-3.83865822e-07
-3.67910585e-07
-3.6564263e-07
-3.85855524e-07
-3.8418572e-07
-3.67763837e-07
-3.64273938e-07
-3.64802427e-07
-3.65409666e-07
-3.65310245e-07
-3.65735887e-07
-3.85877759e-07
-3.8347426e-07
-3.69985588e-07
-3.66868409e-07
-3.82921974e-07
-3.83674886e-07
-3.84564441e-07
-3.66592307e-07
-3.65794936e-07
-3.86725291e-07
-3.85352514e-07
-3.66139014e-07
-3.6708321e-07
-3.85100896e-07
-3.75393536e-07
-3.6523817e-07
-3.78884547e-07
-3.84199594e-07
-3.73206636e-07
-3.65456363e-07
-3.64380335e-07
-3.64141631e-07
-3.76185968e-07
-3.84208875e-07
-3.71763158e-07
-3.66052651e-07
-3.77347622e-07
-3.83771805e-07
-3.83982871e-07
-3.73035301e-07
-3.65771772e-07
-3.79513287e-07
-3.83848823e-07
-3.75164586e-07
-3.65611987e-07
-3.6527204e-07
-3.6523533e-07
-3.64549161e-07
-3.64458899e-07
-3.73913266e-07
-3.84031205e-07
-3.81665121e-07
-3.65935491e-07
-3.67309754e-07
-3.83805842e-07
-3.84393417e-07
-3.65934667e-07
-3.66138319e-07
-3.83812493e-07
-3.84128982e-07
-3.65909541e-07
-3.65865309e-07
-3.83926738e-07
-3.84018087e-07
-3.65973777e-07
-3.6575491e-07
-3.84030388e-07
-3.84023357e-07
-3.65926205e-07
-3.6553551e-07
-3.84169181e-07
-3.84348546e-07
-3.6779154e-07
-3.63602975e-07
-3.64650955e-07
-3.83962587e-07
-3.8448284e-07
-3.67618305e-07
-3.63639639e-07
-3.64686599e-07
-3.83991183e-07
-3.84142205e-07
-3.66816802e-07
-3.65003881e-07
-3.64749318e-07
-3.65654946e-07
-3.84115115e-07
-3.83464452e-07
-3.84072243e-07
-3.68213251e-07
-3.65958885e-07
-3.83241915e-07
-3.84001316e-07
-3.66248078e-07
-3.64735761e-07
-3.66287404e-07
-3.84110596e-07
-3.83230649e-07
-3.84366166e-07
-3.66879627e-07
-3.64744909e-07
-3.65588727e-07
-3.64584422e-07
-3.66092744e-07
-3.84130057e-07
-3.83608921e-07
-3.84836401e-07
-3.64955551e-07
-3.63761644e-07
-3.64855135e-07
-3.64018002e-07
-3.66514057e-07
-3.84367334e-07
-3.83609586e-07
-3.86027512e-07
-3.65209312e-07
-3.66239772e-07
-3.83983402e-07
-3.85598809e-07
-3.63690941e-07
-3.63443797e-07
-3.67272049e-07
-3.83926756e-07
-3.83745665e-07
-3.85211478e-07
-3.83974995e-07
-3.85269807e-07
-3.65459234e-07
-3.66988059e-07
-3.84196691e-07
-3.86869153e-07
-3.64544803e-07
-3.64656803e-07
-3.65073598e-07
-3.68978049e-07
-3.84307837e-07
-3.86668543e-07
-3.65678654e-07
-3.67447396e-07
-3.84448225e-07
-3.86537381e-07
-3.65574784e-07
-3.66651593e-07
-3.84881256e-07
-3.86170816e-07
-3.64667378e-07
-3.63905709e-07
-3.67526199e-07
-3.84865899e-07
-3.86473296e-07
-3.65836728e-07
-3.65802968e-07
-3.86409565e-07
-3.84988085e-07
-3.68506598e-07
-3.66313397e-07
-3.78541288e-07
-3.84159329e-07
-3.80429259e-07
-3.65364039e-07
-3.68416767e-07
-3.8425123e-07
-3.85854592e-07
-3.65517713e-07
-3.67447958e-07
-3.84531331e-07
-3.85459592e-07
-3.64221367e-07
-3.64368985e-07
-3.65636843e-07
-3.72096799e-07
-3.84276224e-07
-3.83501666e-07
-3.64489765e-07
-3.64634452e-07
-3.73835533e-07
-3.84409415e-07
-3.82698341e-07
-3.66022902e-07
-3.7056373e-07
-3.8414626e-07
-3.8020738e-07
-3.65957595e-07
-3.70966157e-07
-3.84083541e-07
-3.80924887e-07
-3.65876814e-07
-3.70639856e-07
-3.84283501e-07
-3.81067809e-07
-3.6436632e-07
-3.64542359e-07
-3.73082344e-07
-3.84502192e-07
-3.84947511e-07
-3.64388003e-07
-3.64493294e-07
-3.74036398e-07
-3.84328725e-07
-3.87214691e-07
-3.6455929e-07
-3.64670964e-07
-3.65667615e-07
-3.65892887e-07
-3.66223675e-07
-3.73328534e-07
-3.8390787e-07
-3.87247458e-07
-3.65274225e-07
-3.74635199e-07
-3.86628631e-07
-3.66745362e-07
-3.68273369e-07
-3.836088e-07
-3.8675682e-07
-3.65560206e-07
-3.67483847e-07
-3.83663941e-07
-3.86569976e-07
-3.65545106e-07
-3.67881794e-07
-3.83547095e-07
-3.86197782e-07
-3.66125196e-07
-3.70328792e-07
-3.83698698e-07
-3.86073206e-07
-3.64849976e-07
-3.65009201e-07
-3.66078636e-07
-3.66403945e-07
-3.75540756e-07
-3.83575885e-07
-3.85978344e-07
-3.65803735e-07
-3.6717365e-07
-3.83651692e-07
-3.85808198e-07
-3.65293187e-07
-3.72774871e-07
-3.853397e-07
-3.65946116e-07
-3.66176896e-07
-3.83687014e-07
-3.84705514e-07
-3.65688797e-07
-3.65251556e-07
-3.72733962e-07
-3.84117391e-07
-3.85803961e-07
-3.63881021e-07
-3.6389523e-07
-3.65605481e-07
-3.69314572e-07
-3.84038391e-07
-3.85456834e-07
-3.63907079e-07
-3.64876521e-07
-3.83817125e-07
-3.84616002e-07
-3.65991545e-07
-3.65440996e-07
-3.76036024e-07
-3.84089906e-07
-3.84665421e-07
-3.63981117e-07
-3.6377605e-07
-3.6614561e-07
-3.83293301e-07
-3.83620053e-07
-3.85397908e-07
-3.83715945e-07
-3.85012355e-07
-3.65374748e-07
-3.6537621e-07
-3.84154853e-07
-3.84209681e-07
-3.64043392e-07
-3.63988386e-07
-3.64964604e-07
-3.65051384e-07
-3.6557991e-07
-3.64822695e-07
-3.66352038e-07
-3.84293776e-07
-3.83536079e-07
-3.75036672e-07
-3.65465988e-07
-3.66194394e-07
-3.84169975e-07
-3.83745851e-07
-3.6566597e-07
-3.65321313e-07
-3.84876242e-07
-3.83958112e-07
-3.6579748e-07
-3.65468026e-07
-3.85097091e-07
-3.8403171e-07
-3.65902412e-07
-3.65477796e-07
-3.85330634e-07
-3.83999406e-07
-3.66051872e-07
-3.65479871e-07
-3.85566593e-07
-3.83951617e-07
-3.66258684e-07
-3.65495226e-07
-3.85879828e-07
-3.83906998e-07
-3.66528886e-07
-3.65520059e-07
-3.86302822e-07
-3.83931615e-07
-3.66713504e-07
-3.65407198e-07
-3.86945306e-07
-3.84202399e-07
-3.66435895e-07
-3.64275498e-07
-3.64665577e-07
-3.65722578e-07
-3.85836038e-07
-3.83743021e-07
-3.68831406e-07
-3.65705478e-07
-3.84211887e-07
-3.84037867e-07
-3.68939677e-07
-3.65804558e-07
-3.83023181e-07
-3.84456978e-07
-3.69929573e-07
-3.64349844e-07
-3.64495633e-07
-3.86868023e-07
-3.84009048e-07
-3.70765647e-07
-3.6604452e-07
-3.81136894e-07
-3.84514923e-07
-3.7159884e-07
-3.64551077e-07
-3.64424467e-07
-3.86863483e-07
-3.84207656e-07
-3.71033905e-07
-3.65313266e-07
-3.64547524e-07
-3.64467781e-07
-3.86837593e-07
-3.84231052e-07
-3.68897078e-07
-3.65207953e-07
-3.84541497e-07
-3.84431265e-07
-3.69068526e-07
-3.63989661e-07
-3.6402841e-07
-3.76253212e-07
-3.84204247e-07
-3.84099338e-07
-3.83767946e-07
-3.84139234e-07
-3.705896e-07
-3.64744718e-07
-3.65320426e-07
-3.65175715e-07
-3.68568939e-07
-3.84085097e-07
-3.85057848e-07
-3.65134636e-07
-3.642032e-07
-3.68354208e-07
-3.8415191e-07
-3.85379004e-07
-3.65919124e-07
-3.66668917e-07
-3.83918586e-07
-3.8606497e-07
-3.65501811e-07
-3.67076639e-07
-3.84149964e-07
-3.86424637e-07
-3.6386792e-07
-3.64065874e-07
-3.68457245e-07
-3.84352177e-07
-3.87019727e-07
-3.65134738e-07
-3.67226792e-07
-3.84131695e-07
-3.85837499e-07
-3.65434138e-07
-3.68137179e-07
-3.84328012e-07
-3.83621167e-07
-3.64933534e-07
-3.71851902e-07
-3.85060823e-07
-3.66329292e-07
-3.69906289e-07
-3.84382093e-07
-3.76012398e-07
-3.65786041e-07
-3.7225866e-07
-3.84383375e-07
-3.81163886e-07
-3.64000098e-07
-3.64269711e-07
-3.7406848e-07
-3.8504366e-07
-3.75903368e-07
-3.65731129e-07
-3.73141602e-07
-3.84675941e-07
-3.75884527e-07
-3.65926789e-07
-3.71940612e-07
-3.84310711e-07
-3.86270236e-07
-3.64418653e-07
-3.64592828e-07
-3.71011106e-07
-3.84714097e-07
-3.86402485e-07
-3.65008893e-07
-3.64597932e-07
-3.70848636e-07
-3.85038393e-07
-3.81227076e-07
-3.66207937e-07
-3.70688309e-07
-3.84538256e-07
-3.805021e-07
-3.65946744e-07
-3.69655869e-07
-3.84360503e-07
-3.86275234e-07
-3.659711e-07
-3.64807596e-07
-3.65052133e-07
-3.65025117e-07
-3.65127413e-07
-3.65637831e-07
-3.7793134e-07
-3.8421317e-07
-3.84703495e-07
-3.84559214e-07
-3.79395869e-07
-3.65939331e-07
-3.70862211e-07
-3.84154886e-07
-3.8453783e-07
-3.64339498e-07
-3.64533609e-07
-3.72224648e-07
-3.84319111e-07
-3.86893875e-07
-3.65145001e-07
-3.69346619e-07
-3.84015715e-07
-3.84444376e-07
-3.84177671e-07
-3.8634114e-07
-3.63584953e-07
-3.63687496e-07
-3.69639063e-07
-3.84417207e-07
-3.86567832e-07
-3.64039711e-07
-3.64157111e-07
-3.6511046e-07
-3.64472749e-07
-3.69611029e-07
-3.83932391e-07
-3.8393257e-07
-3.83851183e-07
-3.85151294e-07
-3.65264582e-07
-3.64641239e-07
-3.69162676e-07
-3.84007242e-07
-3.84863312e-07
-3.64533268e-07
-3.64634518e-07
-3.65341286e-07
-3.6412706e-07
-3.6753692e-07
-3.83877567e-07
-3.83460938e-07
-3.8522218e-07
-3.65408609e-07
-3.65706974e-07
-3.83607065e-07
-3.850974e-07
-3.65398156e-07
-3.66040364e-07
-3.83618729e-07
-3.842681e-07
-3.65223183e-07
-3.65262058e-07
-3.65310399e-07
-3.66261838e-07
-3.83552997e-07
-3.84158436e-07
-3.6597591e-07
-3.66381442e-07
-3.83364349e-07
-3.83931154e-07
-3.66098994e-07
-3.6632756e-07
-3.83305458e-07
-3.83767489e-07
-3.6610817e-07
-3.65255615e-07
-3.65287153e-07
-3.65304719e-07
-3.64410007e-07
-3.65642672e-07
-3.8367408e-07
-3.8378847e-07
-3.83435902e-07
-3.83952405e-07
-3.66667351e-07
-3.64464496e-07
-3.6598315e-07
-3.83903428e-07
-3.83387815e-07
-3.65363384e-07
-3.65035752e-07
-3.83845396e-07
-3.83611466e-07
-3.65302744e-07
-3.651123e-07
-3.83929704e-07
-3.83578927e-07
-3.6557377e-07
-3.65753895e-07
-3.84007536e-07
-3.71345643e-07
-3.65134691e-07
-3.83973016e-07
-3.83532024e-07
-3.66436899e-07
-3.66037454e-07
-3.8414223e-07
-3.83450984e-07
-3.72282366e-07
-3.6622448e-07
-3.6626656e-07
-3.65727232e-07
-3.65644782e-07
-3.84516586e-07
-3.83625403e-07
-3.69619937e-07
-3.65584002e-07
-3.65571486e-07
-3.65268135e-07
-3.64409639e-07
-3.64392042e-07
-3.85201952e-07
-3.84201024e-07
-3.68086134e-07
-3.6404549e-07
-3.63909144e-07
-3.85387554e-07
-3.83957017e-07
-3.84181971e-07
-3.8375626e-07
-3.68226999e-07
-3.65339163e-07
-3.8533085e-07
-3.83550222e-07
-3.67250387e-07
-3.65991156e-07
-3.8527921e-07
-3.8355967e-07
-3.70468247e-07
-3.65927797e-07
-3.65874574e-07
-3.65321692e-07
-3.67061258e-07
-3.84529815e-07
-3.83376164e-07
-3.68173641e-07
-3.65441736e-07
-3.85613103e-07
-3.83739765e-07
-3.69525072e-07
-3.65743542e-07
-3.64722016e-07
-3.64803663e-07
-3.85647179e-07
-3.77985867e-07
-3.65272095e-07
-3.86385122e-07
-3.83848296e-07
-3.66776043e-07
-3.65274831e-07
-3.86159277e-07
-3.83814175e-07
-3.6708787e-07
-3.65558525e-07
-3.86046129e-07
-3.83867964e-07
-3.67012089e-07
-3.65452402e-07
-3.85912117e-07
-3.84228362e-07
-3.71809534e-07
-3.64198033e-07
-3.64058263e-07
-3.85931558e-07
-3.84095862e-07
-3.67479088e-07
-3.65494386e-07
-3.8584118e-07
-3.83949209e-07
-3.71637758e-07
-3.65489615e-07
-3.65432225e-07
-3.63945059e-07
-3.63796713e-07
-3.85960067e-07
-3.84032308e-07
-3.6800527e-07
-3.65753744e-07
-3.85784395e-07
-3.83692517e-07
-3.67380172e-07
-3.65646787e-07
-3.85742247e-07
-3.83763875e-07
-3.67342269e-07
-3.65540498e-07
-3.85604459e-07
-3.84109564e-07
-3.71551519e-07
-3.64188707e-07
-3.64178401e-07
-3.85446609e-07
-3.84135988e-07
-3.73184945e-07
-3.65758604e-07
-3.6572522e-07
-3.64378097e-07
-3.64308633e-07
-3.85440808e-07
-3.8391998e-07
-3.74990438e-07
-3.66135655e-07
-3.67715606e-07
-3.84249871e-07
-3.8412387e-07
-3.66335037e-07
-3.65953626e-07
-3.85010204e-07
-3.84096981e-07
-3.66088546e-07
-3.66398181e-07
-3.84579538e-07
-3.83257745e-07
-3.65203415e-07
-3.6437278e-07
-3.68983576e-07
-3.84584332e-07
-3.84810122e-07
-3.65716791e-07
-3.65502086e-07
-3.85359971e-07
-3.84445993e-07
-3.65884844e-07
-3.65582692e-07
-3.85364059e-07
-3.850213e-07
-3.65282128e-07
-3.66484965e-07
-3.84934481e-07
-3.77393225e-07
-3.64517397e-07
-3.6466711e-07
-3.64402364e-07
-3.64330602e-07
-3.77041535e-07
-3.84360498e-07
-3.84129238e-07
-3.83973591e-07
-3.76759371e-07
-3.65414591e-07
-3.66980573e-07
-3.84373755e-07
-3.84229038e-07
-3.66582308e-07
-3.66592546e-07
-3.84560057e-07
-3.83667979e-07
-3.6685714e-07
-3.65335401e-07
-3.65422259e-07
-3.65998357e-07
-3.86100552e-07
-3.83620641e-07
-3.73329354e-07
-3.66135189e-07
-3.76160919e-07
-3.83821145e-07
-3.7094903e-07
-3.6543807e-07
-3.82952463e-07
-3.83864898e-07
-3.67628838e-07
-3.65099221e-07
-3.86460671e-07
-3.84101212e-07
-3.67308835e-07
-3.64347426e-07
-3.64982885e-07
-3.64891983e-07
-3.6495475e-07
-3.64635593e-07
-3.66040545e-07
-3.8606546e-07
-3.83285643e-07
-3.85397635e-07
-3.67683401e-07
-3.66040268e-07
-3.84923338e-07
-3.84693484e-07
-3.66513479e-07
-3.66672276e-07
-3.85017472e-07
-3.75006054e-07
-3.66168441e-07
-3.82606342e-07
-3.84957845e-07
-3.66547899e-07
-3.66277008e-07
-3.85091013e-07
-3.8566203e-07
-3.66209124e-07
-3.66316322e-07
-3.85131253e-07
-3.860947e-07
-3.66110464e-07
-3.66297007e-07
-3.85314112e-07
-3.86463646e-07
-3.65726069e-07
-3.65697447e-07
-3.86334258e-07
-3.86226753e-07
-3.7213879e-07
-3.78476548e-07
-3.86454614e-07
-3.66219618e-07
-3.66481305e-07
-3.85322025e-07
-3.86488118e-07
-3.65538774e-07
-3.64647505e-07
-3.65490564e-07
-3.68384633e-07
-3.85716552e-07
-3.86333161e-07
-3.66001271e-07
-3.6449678e-07
-3.68319282e-07
-3.85497099e-07
-3.86566177e-07
-3.66757496e-07
-3.66885926e-07
-3.86137516e-07
-3.86202579e-07
-3.66822942e-07
-3.66759006e-07
-3.86820541e-07
-3.86563518e-07
-3.6614668e-07
-3.6461476e-07
-3.65342838e-07
-3.67305195e-07
-3.83765022e-07
-3.85679978e-07
-3.6925763e-07
-3.66611616e-07
-3.80818426e-07
-3.85761824e-07
-3.69405565e-07
-3.65974354e-07
-3.78535322e-07
-3.85962636e-07
-3.68979232e-07
-3.64980616e-07
-3.74921742e-07
-3.85175994e-07
-3.74178974e-07
-3.65558226e-07
-3.72452939e-07
-3.84460112e-07
-3.79341878e-07
-3.65990747e-07
-3.71376557e-07
-3.84250473e-07
-3.81785132e-07
-3.64705211e-07
-3.65023257e-07
-3.73367261e-07
-3.8422197e-07
-3.86484679e-07
-3.64772034e-07
-3.64877187e-07
-3.72012328e-07
-3.84168634e-07
-3.86765782e-07
-3.64898607e-07
-3.64969665e-07
-3.65514103e-07
-3.68734335e-07
-3.83790603e-07
-3.86011374e-07
-3.65595395e-07
-3.66931243e-07
-3.83634779e-07
-3.8551037e-07
-3.6564373e-07
-3.66776457e-07
-3.83598305e-07
-3.84913794e-07
-3.65410042e-07
-3.69383964e-07
-3.8398076e-07
-3.67435162e-07
-3.6619791e-07
-3.83356155e-07
-3.84315886e-07
-3.65528848e-07
-3.66161272e-07
-3.83493725e-07
-3.84005492e-07
-3.65524999e-07
-3.65109678e-07
-3.65591184e-07
-3.65177602e-07
-3.65476165e-07
-3.65190432e-07
-3.65850995e-07
-3.83726162e-07
-3.83509237e-07
-3.65927295e-07
-3.65704073e-07
-3.83786602e-07
-3.83637082e-07
-3.65659672e-07
-3.65386737e-07
-3.84097296e-07
-3.83746153e-07
-3.6539736e-07
-3.65057259e-07
-3.84434693e-07
-3.83845271e-07
-3.65226636e-07
-3.64749416e-07
-3.84761085e-07
-3.83939273e-07
-3.65154644e-07
-3.64628679e-07
-3.85052204e-07
-3.84038744e-07
-3.65067304e-07
-3.64440728e-07
-3.85483001e-07
-3.8427792e-07
-3.84628568e-07
-3.84379199e-07
-3.65140248e-07
-3.63201871e-07
-3.62766771e-07
-3.63197048e-07
-3.85470625e-07
-3.84199648e-07
-3.84800396e-07
-3.83857559e-07
-3.84220249e-07
-3.66430372e-07
-3.64974043e-07
-3.84763297e-07
-3.84041403e-07
-3.67536646e-07
-3.65281932e-07
-3.6575198e-07
-3.64927992e-07
-3.6484138e-07
-3.84817044e-07
-3.83883849e-07
-3.74810283e-07
-3.65349474e-07
-3.65266524e-07
-3.64047936e-07
-3.63982403e-07
-3.85424051e-07
-3.8397134e-07
-3.84636178e-07
-3.83714096e-07
-3.77949619e-07
-3.65770407e-07
-3.65474531e-07
-3.65520571e-07
-3.65162305e-07
-3.6621434e-07
-3.84545074e-07
-3.8338608e-07
-3.68014737e-07
-3.65559554e-07
-3.85680551e-07
-3.83705455e-07
-3.66860345e-07
-3.6533857e-07
-3.86179553e-07
-3.83869504e-07
-3.66862324e-07
-3.65163888e-07
-3.86625635e-07
-3.84005316e-07
-3.6680001e-07
-3.64803827e-07
-3.87157901e-07
-3.84104519e-07
-3.6668438e-07
-3.64825153e-07
-3.86565152e-07
-3.84014819e-07
-3.67339508e-07
-3.66258184e-07
-3.8635413e-07
-3.72753278e-07
-3.64837155e-07
-3.84790829e-07
-3.84297673e-07
-3.68370878e-07
-3.65982892e-07
-3.84091385e-07
-3.83673271e-07
-3.65772667e-07
-3.63189964e-07
-3.6314604e-07
-3.76508043e-07
-3.8467148e-07
-3.8450414e-07
-3.70884635e-07
-3.65146845e-07
-3.81145744e-07
-3.84553218e-07
-3.69795927e-07
-3.65219376e-07
-3.80742952e-07
-3.84661862e-07
-3.76575364e-07
-3.64510891e-07
-3.63996779e-07
-3.75189012e-07
-3.84790745e-07
-3.84126531e-07
-3.76874617e-07
-3.66566081e-07
-3.64001658e-07
-3.63870658e-07
-3.76998986e-07
-3.84481271e-07
-3.82454294e-07
-3.68183073e-07
-3.67782002e-07
-3.66141718e-07
-3.66007487e-07
-3.78885417e-07
-3.84493433e-07
-3.85128571e-07
-3.84237606e-07
-3.84240471e-07
-3.65671359e-07
-3.63751229e-07
-3.73787649e-07
-3.84826341e-07
-3.81019071e-07
-3.66287877e-07
-3.65761176e-07
-3.6456082e-07
-3.64236734e-07
-3.71967701e-07
-3.84789549e-07
-3.74183549e-07
-3.66016012e-07
-3.773126e-07
-3.84004269e-07
-3.84617343e-07
-3.66303811e-07
-3.64650885e-07
-3.68713309e-07
-3.84858692e-07
-3.81586384e-07
-3.65905651e-07
-3.71676861e-07
-3.84332297e-07
-3.78570835e-07
-3.65596073e-07
-3.69189239e-07
-3.84287988e-07
-3.84637124e-07
-3.66225304e-07
-3.64108801e-07
-3.66769385e-07
-3.8473406e-07
-3.84110897e-07
-3.68042129e-07
-3.65266265e-07
-3.65640047e-07
-3.6529576e-07
-3.6485625e-07
-3.701128e-07
-3.84231366e-07
-3.8438364e-07
-3.66564802e-07
-3.70319423e-07
-3.83947939e-07
-3.84912378e-07
-3.663304e-07
-3.65986512e-07
-3.85004459e-07
-3.83812379e-07
-3.67028996e-07
-3.6553682e-07
-3.85493112e-07
-3.83857919e-07
-3.6711016e-07
-3.65379471e-07
-3.85452649e-07
-3.83817099e-07
-3.6647253e-07
-3.66424387e-07
-3.84299589e-07
-3.82228142e-07
-3.65614044e-07
-3.74270726e-07
-3.83866924e-07
-3.68688795e-07
-3.66355247e-07
-3.84848618e-07
-3.78909313e-07
-3.64902511e-07
-3.81206725e-07
-3.84466666e-07
-3.68881883e-07
-3.64700724e-07
-3.6526503e-07
-3.64373835e-07
-3.64758149e-07
-3.84340842e-07
-3.84283901e-07
-3.67366323e-07
-3.65930226e-07
-3.84680244e-07
-3.84790027e-07
-3.65993324e-07
-3.6549854e-07
-3.854841e-07
-3.84379498e-07
-3.84873131e-07
-3.85179607e-07
-3.65795365e-07
-3.63886725e-07
-3.64281068e-07
-3.65632898e-07
-3.84006428e-07
-3.85223647e-07
-3.66127682e-07
-3.66791273e-07
-3.83740516e-07
-3.84634367e-07
-3.65650906e-07
-3.64808792e-07
-3.68074689e-07
-3.84114027e-07
-3.84522248e-07
-3.6496297e-07
-3.64888558e-07
-3.64884937e-07
-3.66886495e-07
-3.84161472e-07
-3.84622584e-07
-3.64102877e-07
-3.64100541e-07
-3.65232125e-07
-3.64911322e-07
-3.71117352e-07
-3.84003387e-07
-3.84110107e-07
-3.84017042e-07
-3.84506394e-07
-3.65098183e-07
-3.64751982e-07
-3.72911605e-07
-3.84028353e-07
-3.85336572e-07
-3.65155104e-07
-3.70657135e-07
-3.8412396e-07
-3.68096898e-07
-3.65005457e-07
-3.84521766e-07
-3.84420274e-07
-3.65416871e-07
-3.63845427e-07
-3.67220039e-07
-3.84336951e-07
-3.83755986e-07
-3.65807327e-07
-3.65546471e-07
-3.84232372e-07
-3.84092337e-07
-3.65511062e-07
-3.65659176e-07
-3.84217242e-07
-3.84255222e-07
-3.65310809e-07
-3.65678261e-07
-3.84355584e-07
-3.84673169e-07
-3.64305141e-07
-3.63950726e-07
-3.66117104e-07
-3.76537946e-07
-3.83601802e-07
-3.8413044e-07
-3.72311558e-07
-3.64466271e-07
-3.65164159e-07
-3.85444873e-07
-3.84513982e-07
-3.7002846e-07
-3.63796644e-07
-3.65379825e-07
-3.84859967e-07
-3.84261595e-07
-3.66237309e-07
-3.65767363e-07
-3.85035972e-07
-3.84598522e-07
-3.65776904e-07
-3.65907581e-07
-3.84530674e-07
-3.84765156e-07
-3.65530568e-07
-3.66002599e-07
-3.84398001e-07
-3.84995283e-07
-3.65365851e-07
-3.66035591e-07
-3.84356209e-07
-3.85188892e-07
-3.6526634e-07
-3.66071203e-07
-3.84395974e-07
-3.85297549e-07
-3.65190024e-07
-3.65865284e-07
-3.84609398e-07
-3.85159337e-07
-3.64625947e-07
-3.63596138e-07
-3.64425027e-07
-3.66562029e-07
-3.84630274e-07
-3.84964909e-07
-3.65515654e-07
-3.65616358e-07
-3.84672058e-07
-3.8465175e-07
-3.66116573e-07
-3.65754332e-07
-3.85859915e-07
-3.841202e-07
-3.6926452e-07
-3.66178193e-07
-3.76018149e-07
-3.83934641e-07
-3.84176293e-07
-3.6541535e-07
-3.65221195e-07
-3.66532699e-07
-3.67557974e-07
-3.84067714e-07
-3.83809496e-07
-3.8122288e-07
-3.65364373e-07
-3.66495121e-07
-3.84549504e-07
-3.84689998e-07
-3.64958483e-07
-3.64841626e-07
-3.85367938e-07
-3.84432121e-07
-3.68708059e-07
-3.64303448e-07
-3.64214981e-07
-3.65560738e-07
-3.84592776e-07
-3.83781513e-07
-3.66449228e-07
-3.65573074e-07
-3.8481616e-07
-3.83838065e-07
-3.66814066e-07
-3.6550346e-07
-3.86194619e-07
-3.84129312e-07
-3.68568476e-07
-3.6532163e-07
-3.82983358e-07
-3.86840131e-07
-3.65942408e-07
-3.66307804e-07
-3.84439836e-07
-3.86155894e-07
-3.65412688e-07
-3.67104627e-07
-3.84048577e-07
-3.83551946e-07
-3.84728537e-07
-3.72896235e-07
-3.63965928e-07
-3.64035644e-07
-3.64102016e-07
-3.6714989e-07
-3.84324836e-07
-3.83848124e-07
-3.84161271e-07
-3.84655035e-07
-3.71674516e-07
-3.63978138e-07
-3.64080606e-07
-3.67738305e-07
-3.84291568e-07
-3.8630839e-07
-3.64075141e-07
-3.64210111e-07
-3.67844474e-07
-3.84185608e-07
-3.87088071e-07
-3.65488967e-07
-3.68220594e-07
-3.84119685e-07
-3.86822487e-07
-3.64146809e-07
-3.64332071e-07
-3.7055817e-07
-3.8444108e-07
-3.86905829e-07
-3.64679259e-07
-3.64596572e-07
-3.65266987e-07
-3.71223223e-07
-3.84683177e-07
-3.80032413e-07
-3.66116038e-07
-3.70841271e-07
-3.84658651e-07
-3.79527638e-07
-3.66061894e-07
-3.70456546e-07
-3.84763631e-07
-3.80262275e-07
-3.66001947e-07
-3.69691598e-07
-3.84853107e-07
-3.81382772e-07
-3.66058064e-07
-3.68990526e-07
-3.84952184e-07
-3.82468202e-07
-3.66222055e-07
-3.68869653e-07
-3.85237179e-07
-3.82174054e-07
-3.66485698e-07
-3.71818266e-07
-3.8634427e-07
-3.69816744e-07
-3.66084587e-07
-3.86480188e-07
-3.86134724e-07
-3.66857024e-07
-3.66432974e-07
-3.85857445e-07
-3.8588965e-07
-3.66319144e-07
-3.64715081e-07
-3.65219498e-07
-3.6560507e-07
-3.75949067e-07
-3.84346291e-07
-3.82786277e-07
-3.64942793e-07
-3.65693119e-07
-3.86523858e-07
-3.8493916e-07
-3.72217045e-07
-3.65976503e-07
-3.72071555e-07
-3.84295438e-07
-3.84183877e-07
-3.63883629e-07
-3.64029901e-07
-3.65937621e-07
-3.7579998e-07
-3.84179692e-07
-3.83571154e-07
-3.64636083e-07
-3.64942155e-07
-3.75818915e-07
-3.841449e-07
-3.85481795e-07
-3.66085307e-07
-3.69209949e-07
-3.83859185e-07
-3.85442215e-07
-3.66055612e-07
-3.69067685e-07
-3.83859701e-07
-3.85288196e-07
-3.65802059e-07
-3.68927786e-07
-3.84160571e-07
-3.84058211e-07
-3.6425866e-07
-3.64448582e-07
-3.65400477e-07
-3.65748434e-07
-3.66329019e-07
-3.75604119e-07
-3.8384101e-07
-3.86585643e-07
-3.66063399e-07
-3.68473093e-07
-3.84290675e-07
-3.86507108e-07
-3.62950666e-07
-3.63100661e-07
-3.70057913e-07
-3.84396222e-07
-3.84107303e-07
-3.85082665e-07
-3.7624415e-07
-3.63754116e-07
-3.676107e-07
-3.8398456e-07
-3.85062222e-07
-3.66282141e-07
-3.65581758e-07
-3.83201777e-07
-3.85183471e-07
-3.66191539e-07
-3.64402717e-07
-3.6499856e-07
-3.65325639e-07
-3.80358948e-07
-3.84425302e-07
-3.84375885e-07
-3.85194919e-07
-3.84372807e-07
-3.86087092e-07
-3.63133505e-07
-3.63083699e-07
-3.64629999e-07
-3.63884559e-07
-3.67325472e-07
-3.84483898e-07
-3.83563374e-07
-3.85636557e-07
-3.65364305e-07
-3.65666909e-07
-3.83763429e-07
-3.85199102e-07
-3.65217651e-07
-3.66115478e-07
-3.83803426e-07
-3.85002113e-07
-3.64950962e-07
-3.65646827e-07
-3.83948387e-07
-3.84896074e-07
-3.64321119e-07
-3.65261736e-07
-3.84077252e-07
-3.84398207e-07
-3.64679208e-07
-3.64554573e-07
-3.64527485e-07
-3.65217413e-07
-3.86413946e-07
-3.84076788e-07
-3.85626609e-07
-3.84245368e-07
-3.85140348e-07
-3.84366658e-07
-3.8490305e-07
-3.63458995e-07
-3.62869087e-07
-3.64522778e-07
-3.63790491e-07
-3.65405233e-07
-3.84067677e-07
-3.84001827e-07
-3.65924494e-07
-3.64369396e-07
-3.66342282e-07
-3.84148801e-07
-3.83497534e-07
-3.65770327e-07
-3.65488488e-07
-3.84142043e-07
-3.8392166e-07
-3.65849419e-07
-3.64696373e-07
-3.84156405e-07
-3.84699572e-07
-3.65890741e-07
-3.85252793e-07
-3.8380002e-07
-3.65446437e-07
-3.64135158e-07
-3.66541823e-07
-3.84385838e-07
-3.83655798e-07
-3.66145651e-07
-3.64903752e-07
-3.65384847e-07
-3.65655222e-07
-3.65447214e-07
-3.66429292e-07
-3.8429261e-07
-3.83435091e-07
-3.66396755e-07
-3.6529074e-07
-3.85067313e-07
-3.83675073e-07
-3.66166118e-07
-3.65195209e-07
-3.85267875e-07
-3.83739994e-07
-3.66201661e-07
-3.65238732e-07
-3.85390785e-07
-3.83753862e-07
-3.66321824e-07
-3.65342151e-07
-3.85499345e-07
-3.83759372e-07
-3.6644578e-07
-3.65393392e-07
-3.85631745e-07
-3.83766463e-07
-3.66351828e-07
-3.65313285e-07
-3.85779545e-07
-3.83736455e-07
-3.66132241e-07
-3.65735763e-07
-3.85626341e-07
-3.83941879e-07
-3.84073615e-07
-3.84097203e-07
-3.67249067e-07
-3.63594923e-07
-3.64325328e-07
-3.64474569e-07
-3.64245203e-07
-3.64776628e-07
-3.8502283e-07
-3.83787539e-07
-3.66686211e-07
-3.65747919e-07
-3.85600097e-07
-3.83812722e-07
-3.6767959e-07
-3.6514651e-07
-3.68547057e-07
-3.84518065e-07
-3.83773651e-07
-3.67168968e-07
-3.64166245e-07
-3.65489197e-07
-3.85325793e-07
-3.83812605e-07
-3.65332632e-07
-3.64139165e-07
-3.86375249e-07
-3.8405159e-07
-3.66302597e-07
-3.65012545e-07