/*--------------------------------*- C++ -*----------------------------------*\
| =========                 |                                                 |
| \\      /  F ield         | OpenFOAM: The Open Source CFD Toolbox           |
|  \\    /   O peration     | Version:  2306                                  |
|   \\  /    A nd           | Website:  www.openfoam.com                      |
|    \\/     M anipulation  |                                                 |
\*---------------------------------------------------------------------------*/
FoamFile
{
    version     2.0;
    format      ascii;
    arch        "LSB;label=32;scalar=64";
    class       volScalarField;
    location    "0.00138";
    object      prefDZ_T;
}
// * * * * * * * * * * * * * * * * * * * * * * * * * * * * * * * * * * * * * //

dimensions      [1 -1 -1 -1 0 0 0];

internalField   nonuniform List<scalar> 
531
(
-1.18612364e-09
-1.20809418e-09
-1.22921332e-09
-1.22814328e-09
-1.22706053e-09
-1.22709187e-09
-1.20543608e-09
-1.1893898e-09
-1.18753032e-09
-1.18723237e-09
-1.2251952e-09
-1.22805585e-09
-1.19435878e-09
-1.18830912e-09
-1.21985793e-09
-1.22838069e-09
-1.22833446e-09
-1.22765679e-09
-1.20499259e-09
-1.1883632e-09
-1.1886021e-09
-1.18656464e-09
-1.18625915e-09
-1.23162089e-09
-1.22726983e-09
-1.22733428e-09
-1.1924455e-09
-1.18707791e-09
-1.22440635e-09
-1.22825749e-09
-1.19164882e-09
-1.1881435e-09
-1.22038164e-09
-1.22757885e-09
-1.22870056e-09
-1.19230614e-09
-1.18674612e-09
-1.22353951e-09
-1.22760229e-09
-1.21922871e-09
-1.19198953e-09
-1.18929237e-09
-1.18888918e-09
-1.18708074e-09
-1.18665735e-09
-1.22252576e-09
-1.22848745e-09
-1.22935588e-09
-1.22917916e-09
-1.22749443e-09
-1.23395877e-09
-1.1903179e-09
-1.18884804e-09
-1.18737285e-09
-1.1869407e-09
-1.23275588e-09
-1.22727832e-09
-1.19351843e-09
-1.18839862e-09
-1.23365611e-09
-1.22706388e-09
-1.20362031e-09
-1.18918448e-09
-1.18891004e-09
-1.23376546e-09
-1.22686878e-09
-1.20304874e-09
-1.1887758e-09
-1.18846469e-09
-1.18608948e-09
-1.18564706e-09
-1.22581702e-09
-1.22762643e-09
-1.22909476e-09
-1.22649539e-09
-1.2268663e-09
-1.20063677e-09
-1.18838219e-09
-1.18779806e-09
-1.23408646e-09
-1.2271862e-09
-1.19944126e-09
-1.18781993e-09
-1.18749007e-09
-1.23421752e-09
-1.22796201e-09
-1.19744032e-09
-1.18590495e-09
-1.18561166e-09
-1.2339179e-09
-1.22701889e-09
-1.22768958e-09
-1.19194776e-09
-1.1876409e-09
-1.2336883e-09
-1.22744287e-09
-1.19479931e-09
-1.18867959e-09
-1.18729576e-09
-1.18688398e-09
-1.23420906e-09
-1.2273489e-09
-1.19062736e-09
-1.18767891e-09
-1.23394447e-09
-1.22698781e-09
-1.1899562e-09
-1.18815681e-09
-1.23379783e-09
-1.22614139e-09
-1.22700355e-09
-1.19620956e-09
-1.18693559e-09
-1.18683745e-09
-1.23035847e-09
-1.22724485e-09
-1.19980069e-09
-1.18796206e-09
-1.18773474e-09
-1.22945913e-09
-1.22648085e-09
-1.19054506e-09
-1.18923896e-09
-1.23151192e-09
-1.22571264e-09
-1.22646868e-09
-1.19642927e-09
-1.18868253e-09
-1.18870256e-09
-1.18847123e-09
-1.18615878e-09
-1.18659983e-09
-1.23053349e-09
-1.22726926e-09
-1.21173201e-09
-1.18894682e-09
-1.18858742e-09
-1.22918186e-09
-1.22624217e-09
-1.19069146e-09
-1.18938871e-09
-1.22930603e-09
-1.22637062e-09
-1.18932863e-09
-1.18860218e-09
-1.22983355e-09
-1.22716645e-09
-1.22718609e-09
-1.22724613e-09
-1.19001219e-09
-1.18738902e-09
-1.1887868e-09
-1.18771977e-09
-1.18810223e-09
-1.22795383e-09
-1.22612083e-09
-1.20865115e-09
-1.18957201e-09
-1.18720524e-09
-1.18784344e-09
-1.23102088e-09
-1.2266726e-09
-1.23166264e-09
-1.18810149e-09
-1.18766544e-09
-1.2284708e-09
-1.2273579e-09
-1.18801667e-09
-1.188378e-09
-1.22817105e-09
-1.22695097e-09
-1.22646872e-09
-1.22676263e-09
-1.19265652e-09
-1.18798199e-09
-1.18904221e-09
-1.18782951e-09
-1.18828984e-09
-1.22677944e-09
-1.22637026e-09
-1.19724695e-09
-1.18877328e-09
-1.18767761e-09
-1.19122145e-09
-1.22815671e-09
-1.2255823e-09
-1.22738998e-09
-1.18916326e-09
-1.18948921e-09
-1.227245e-09
-1.22674748e-09
-1.204006e-09
-1.18939919e-09
-1.18869773e-09
-1.18766464e-09
-1.19614223e-09
-1.22725237e-09
-1.22496464e-09
-1.2269245e-09
-1.19196722e-09
-1.18764583e-09
-1.18548256e-09
-1.18677681e-09
-1.22680898e-09
-1.22758432e-09
-1.19329093e-09
-1.18729605e-09
-1.19366343e-09
-1.22794496e-09
-1.19586669e-09
-1.18860425e-09
-1.22654645e-09
-1.22732747e-09
-1.18836507e-09
-1.18927159e-09
-1.22689072e-09
-1.22723722e-09
-1.18872048e-09
-1.18973275e-09
-1.22614491e-09
-1.22726698e-09
-1.19559154e-09
-1.18670845e-09
-1.18852905e-09
-1.22655189e-09
-1.22775023e-09
-1.19436264e-09
-1.18586852e-09
-1.18775322e-09
-1.22746934e-09
-1.22759684e-09
-1.18841204e-09
-1.18892859e-09
-1.22613633e-09
-1.22805887e-09
-1.19181227e-09
-1.18566273e-09
-1.18715908e-09
-1.22764802e-09
-1.22807757e-09
-1.18820795e-09
-1.18838988e-09
-1.22690437e-09
-1.22790276e-09
-1.18827134e-09
-1.18915829e-09
-1.22664682e-09
-1.22774477e-09
-1.18851676e-09
-1.18961068e-09
-1.22582001e-09
-1.22762186e-09
-1.19375396e-09
-1.18645321e-09
-1.18797946e-09
-1.22696845e-09
-1.22761698e-09
-1.18915657e-09
-1.18984784e-09
-1.22581201e-09
-1.22670885e-09
-1.19449277e-09
-1.18942394e-09
-1.18723044e-09
-1.18875111e-09
-1.22821897e-09
-1.22674281e-09
-1.2287872e-09
-1.1887657e-09
-1.18864132e-09
-1.22783694e-09
-1.22672879e-09
-1.21779357e-09
-1.19009761e-09
-1.1878263e-09
-1.18818907e-09
-1.18493846e-09
-1.18640015e-09
-1.22905973e-09
-1.22785495e-09
-1.22873663e-09
-1.2278386e-09
-1.22740865e-09
-1.22788366e-09
-1.2010306e-09
-1.18786801e-09
-1.18614887e-09
-1.18690463e-09
-1.2269056e-09
-1.22878391e-09
-1.19016107e-09
-1.18539209e-09
-1.18733022e-09
-1.22818146e-09
-1.22764218e-09
-1.21416443e-09
-1.18822286e-09
-1.18797548e-09
-1.18445669e-09
-1.18584307e-09
-1.22911618e-09
-1.22854584e-09
-1.22901567e-09
-1.22891257e-09
-1.22830524e-09
-1.22145863e-09
-1.18881697e-09
-1.18824578e-09
-1.18776424e-09
-1.18827049e-09
-1.22686262e-09
-1.2278585e-09
-1.18983834e-09
-1.19035325e-09
-1.22722309e-09
-1.22558654e-09
-1.22809586e-09
-1.20136234e-09
-1.18629894e-09
-1.18733258e-09
-1.22657952e-09
-1.227912e-09
-1.19386941e-09
-1.18639875e-09
-1.1874636e-09
-1.22651164e-09
-1.22777502e-09
-1.19750396e-09
-1.18683146e-09
-1.18775269e-09
-1.22657438e-09
-1.22755761e-09
-1.19948605e-09
-1.18705188e-09
-1.18782982e-09
-1.22650115e-09
-1.22747717e-09
-1.19744371e-09
-1.18675966e-09
-1.18757302e-09
-1.22636086e-09
-1.2277836e-09
-1.19461666e-09
-1.1856191e-09
-1.18595009e-09
-1.22711425e-09
-1.22746606e-09
-1.1870488e-09
-1.18604926e-09
-1.22747107e-09
-1.22811212e-09
-1.18394852e-09
-1.18409019e-09
-1.22791275e-09
-1.22579739e-09
-1.22802386e-09
-1.22493603e-09
-1.22743747e-09
-1.18495849e-09
-1.18227353e-09
-1.18089856e-09
-1.18144491e-09
-1.22453729e-09
-1.22337212e-09
-1.22416055e-09
-1.18146161e-09
-1.17836343e-09
-1.2190739e-09
-1.21899309e-09
-1.21758194e-09
-1.21735862e-09
-1.17483302e-09
-1.17219388e-09
-1.21177621e-09
-1.20915986e-09
-1.20897892e-09
-1.20528318e-09
-1.20467516e-09
-1.20092504e-09
-1.1996512e-09
-1.1961187e-09
-1.19424675e-09
-1.19087931e-09
-1.18855196e-09
-1.18535319e-09
-1.1827592e-09
-1.17983872e-09
-1.17737183e-09
-1.17531572e-09
-1.17482153e-09
-1.17199028e-09
-1.16799588e-09
-1.16318819e-09
-1.15823653e-09
-1.1530118e-09
-1.14702373e-09
-1.14143202e-09
-1.13430155e-09
-1.12884157e-09
-1.12241882e-09
-1.1208279e-09
-1.11649197e-09
-1.11152427e-09
-1.10272427e-09
-1.09659683e-09
-1.08435393e-09
-1.07943824e-09
-1.06118277e-09
-1.05925455e-09
-1.03455943e-09
-1.03831251e-09
-1.01099042e-09
-1.05460225e-09
-1.01728136e-09
-1.01741694e-09
-9.83635585e-10
-9.73987919e-10
-9.48003857e-10
-9.30522491e-10
-9.10174301e-10
-8.87267786e-10
-8.70070314e-10
-8.48858555e-10
-8.4758134e-10
-8.23143807e-10
-8.0382934e-10
-7.77292936e-10
-7.89741906e-10
-7.61476515e-10
-7.39777464e-10
-6.59549745e-10
-6.47834152e-10
-6.04185182e-10
-5.87685532e-10
-5.5397612e-10
-5.31300185e-10
-4.97260917e-10
-4.69198427e-10
-4.32025435e-10
-4.08580107e-10
-3.84750115e-10
-3.57957464e-10
-3.37637851e-10
-3.19733129e-10
-3.03914241e-10
-2.89537192e-10
-2.75106476e-10
-2.6121541e-10
-2.47868138e-10
-2.36454898e-10
-2.25988104e-10
-2.17690302e-10
-2.09715623e-10
-2.02609581e-10
-1.95909014e-10
-1.89858443e-10
-1.84337907e-10
-1.79325494e-10
-1.74910378e-10
-1.70819907e-10
-1.67403678e-10
-1.63987679e-10
-1.61066103e-10
-1.57806464e-10
-1.5523131e-10
-1.52239417e-10
-1.4985099e-10
-1.47025365e-10
-1.44981411e-10
-1.42692572e-10
-1.40903692e-10
-1.39278359e-10
-1.38056972e-10
-1.36624882e-10
-1.35522436e-10
-1.34260262e-10
-1.3325211e-10
-1.32083898e-10
-1.31039673e-10
-1.29910072e-10
-1.28948718e-10
-1.27953135e-10
-1.27022288e-10
-1.2611979e-10
-1.2534671e-10
-1.2458745e-10
-1.2389518e-10
-1.23179192e-10
-1.22500036e-10
-1.21878874e-10
-1.21284626e-10
-1.20701746e-10
-1.20130028e-10
-1.19574498e-10
-1.19013202e-10
-1.18410976e-10
-1.17805975e-10
-1.17257674e-10
-1.16730127e-10
-1.16267169e-10
-1.15788577e-10
-1.15356078e-10
-1.14905053e-10
-1.1450845e-10
-1.14097086e-10
-1.13725952e-10
-1.13329583e-10
-1.1297292e-10
-1.1259024e-10
-1.12255073e-10
-1.11901092e-10
-1.11584445e-10
-1.11244034e-10
-1.10939609e-10
-1.10612246e-10
-1.10316673e-10
-1.09965035e-10
-1.09648715e-10
-1.09317286e-10
-1.0902299e-10
-1.08714891e-10
-1.08440134e-10
-1.08152936e-10
-1.07895598e-10
-1.07627189e-10
-1.07385447e-10
-1.07133983e-10
-1.06910725e-10
-1.06690351e-10
-1.06488718e-10
-1.06279484e-10
)
;

boundaryField
{
    closed
    {
        type            calculated;
        value           nonuniform List<scalar> 0();
    }
    open
    {
        type            calculated;
        value           nonuniform List<scalar> 0();
    }
    sides
    {
        type            empty;
    }
    procBoundary4to3
    {
        type            processor;
        value           uniform -1.18627247e-09;
    }
    procBoundary4to5
    {
        type            processor;
        value           uniform -1.06087168e-10;
    }
}


// ************************************************************************* //
