/*--------------------------------*- C++ -*----------------------------------*\
| =========                 |                                                 |
| \\      /  F ield         | OpenFOAM: The Open Source CFD Toolbox           |
|  \\    /   O peration     | Version:  2306                                  |
|   \\  /    A nd           | Website:  www.openfoam.com                      |
|    \\/     M anipulation  |                                                 |
\*---------------------------------------------------------------------------*/
FoamFile
{
    version     2.0;
    format      ascii;
    arch        "LSB;label=32;scalar=64";
    class       volScalarField;
    location    "0.00142";
    object      p;
}
// * * * * * * * * * * * * * * * * * * * * * * * * * * * * * * * * * * * * * //

dimensions      [1 -1 -2 0 0 0 0];

internalField   nonuniform List<scalar> 
530
(
101256.916
101273.958
101303.172
101356.443
101410.793
101449.344
101472.791
101488.037
101487.801
101467.032
101438.211
101410.189
101388.424
101369.552
101345.042
101314.626
101280.55
101247.909
101219.3
101196.708
101185.151
101182.074
101186.106
101199.177
101220.064
101241.235
101256.899
101264.714
101269.436
101278.81
101296.102
101321.172
101345.709
101365.21
101377.456
101383.043
101384.59
101385.679
101388.083
101392.421
101398.171
101404.551
101410.966
101417.15
101423.095
101428.941
101434.853
101440.936
101447.18
101453.471
101459.638
101465.507
101470.937
101475.828
101480.124
101483.8
101486.853
101489.302
101491.18
101492.53
101493.413
101493.897
101494.061
101493.983
101493.736
101493.382
101492.965
101492.515
101492.05
101491.575
101491.088
101490.587
101490.062
101489.509
101488.922
101488.298
101487.638
101486.945
101486.223
101485.48
101484.722
101483.959
101483.195
101482.433
101481.68
101480.941
101480.212
101479.491
101478.775
101478.118
101477.456
101476.807
101476.184
101475.576
101474.967
101474.425
101473.876
101473.359
101472.893
101472.751
101472.623
101472.503
101472.33
101472.163
101471.928
101471.674
101472.036
101471.581
101471.04
101470.534
101471.024
101470.584
101470.058
101470.116
101470.187
101470.149
101470.04
101469.908
101469.789
101469.673
101469.525
101469.375
101469.221
101469.081
101468.964
101468.874
101468.74
101468.616
101468.493
101468.397
101468.327
101468.228
101468.099
101467.977
101467.889
101467.786
101467.668
101467.561
101467.412
101467.227
101467.104
101467.012
101466.899
101466.739
101466.626
101466.539
101466.46
101466.406
101466.316
101466.238
101466.159
101466.103
101466.051
101465.966
101465.846
101465.635
101465.409
101465.243
101465.133
101465.02
101464.923
101464.777
101464.669
101464.578
101464.467
101464.314
101464.209
101464.129
101464.018
101463.858
101463.749
101463.668
101463.558
101463.434
101463.308
101463.174
101463.113
101463.056
101462.975
101462.958
101462.957
101463.001
101463.108
101462.328
101462.168
101462.072
101461.995
101461.889
101461.734
101461.623
101461.541
101461.43
101461.268
101461.139
101461.033
101460.929
101460.827
101460.675
101460.574
101460.501
101460.422
101460.32
101460.28
101460.288
101460.345
101459.621
101459.466
101459.36
101459.278
101459.191
101459.14
101459.12
101459.033
101458.994
101458.96
101458.87
101458.828
101458.821
101458.789
101458.709
101458.68
101458.69
101458.674
101458.616
101458.56
101458.534
101458.533
101458.527
101458.516
101458.453
101458.395
101458.374
101458.355
101458.347
101458.339
101458.269
101458.248
101458.256
101458.245
101458.182
101458.164
101458.183
101458.176
101458.113
101458.08
101458.068
101458.053
101458.028
101457.937
101457.89
101457.859
101457.797
101457.677
101457.6
101457.552
101457.47
101457.326
101457.212
101457.115
101457.011
101456.902
101456.727
101456.594
101456.47
101456.32
101456.119
101455.951
101455.8
101455.642
101455.487
101455.272
101455.1
101454.937
101454.75
101454.518
101454.323
101454.142
101453.936
101453.764
101453.564
101453.317
101453.098
101452.905
101452.705
101452.511
101452.264
101452.02
101451.804
101451.574
101451.345
101451.136
101450.874
101450.619
101450.357
101450.11
101449.88
101449.644
101449.412
101449.12
101448.882
101448.643
101448.374
101448.058
101447.799
101447.559
101447.29
101446.975
101446.697
101446.445
101446.195
101445.956
101445.667
101445.429
101445.2
101444.959
101444.688
101444.469
101444.287
101444.123
101443.992
101443.838
101443.756
101443.732
101443.771
101443.02
101442.862
101442.763
101442.698
101442.629
101442.593
101442.61
101441.779
101441.542
101441.324
101441.101
101440.911
101440.739
101440.527
101440.318
101440.151
101439.982
101439.763
101439.593
101439.446
101439.279
101439.067
101438.896
101438.75
101438.606
101438.467
101438.279
101438.139
101438.015
101437.873
101437.695
101437.557
101437.44
101437.312
101437.198
101437.065
101436.909
101436.802
101436.707
101436.597
101436.453
101436.315
101436.216
101436.138
101436.03
101435.911
101435.799
101435.702
101435.62
101435.486
101435.387
101435.304
101435.208
101435.084
101434.968
101434.848
101434.748
101434.651
101434.537
101434.41
101434.293
101434.17
101434.055
101433.924
101433.819
101433.702
101433.589
101433.465
101432.812
101432.8
101432.759
101432.641
101432.536
101432.428
101432.272
101432.054
101431.844
101431.626
101431.363
101431.128
101431.649
101431.518
101431.405
101431.314
101431.185
101431.013
101430.878
101430.747
101430.586
101430.384
101430.205
101430.302
101430.405
101430.505
101430.563
101430.642
101430.766
101430.914
101430.665
101430.492
101430.326
101430.159
101429.993
101429.89
101430.565
101430.593
101430.643
101430.686
101430.712
101430.703
101430.725
101430.757
101430.765
101430.79
101430.767
101430.712
101430.701
101430.725
101430.759
101430.776
101430.775
101430.793
101430.873
101430.976
101431.045
101431.073
101431.147
101431.251
101431.364
101431.432
101431.462
101431.535
101431.652
101431.781
101431.907
101431.982
101432.098
101432.24
101432.4
101432.569
101432.705
101432.893
101433.124
101433.389
101433.719
101433.371
101433.477
101433.628
101434.352
101434.484
101434.619
101434.736
101434.89
101435.109
101435.361
101435.595
101435.828
101436.075
101436.362
101436.629
101436.846
101437.102
101437.413
101437.703
101437.938
101438.211
101438.539
101438.847
101439.094
101439.37
101439.667
101439.967
101440.247
101440.473
101440.74
101441.047
101441.337
101441.569
101441.841
101442.169
101442.477
101442.723
101442.998
101443.293
101443.589
101443.863
101444.084
101444.342
101444.636
101444.91
101445.126
101445.376
101445.675
101445.95
101446.16
101446.392
101446.638
101446.877
101447.088
101447.241
101447.423
101447.627
101447.8
101447.909
101448.045
101448.209
)
;

boundaryField
{
    closed
    {
        type            zeroGradient;
    }
    open
    {
        type            waveTransmissive;
        gamma           1.25;
        fieldInf        101325;
        lInf            1;
        value           nonuniform List<scalar> 0();
    }
    sides
    {
        type            empty;
    }
    procBoundary0to1
    {
        type            processor;
        value           uniform 101448.336;
    }
}


// ************************************************************************* //
