/*--------------------------------*- C++ -*----------------------------------*\
| =========                 |                                                 |
| \\      /  F ield         | OpenFOAM: The Open Source CFD Toolbox           |
|  \\    /   O peration     | Version:  2306                                  |
|   \\  /    A nd           | Website:  www.openfoam.com                      |
|    \\/     M anipulation  |                                                 |
\*---------------------------------------------------------------------------*/
FoamFile
{
    version     2.0;
    format      ascii;
    arch        "LSB;label=32;scalar=64";
    class       volScalarField;
    location    "0.00142";
    object      prefDh_H2O;
}
// * * * * * * * * * * * * * * * * * * * * * * * * * * * * * * * * * * * * * //

dimensions      [1 1 -3 0 0 0 0];

internalField   nonuniform List<scalar> 
530
(
92.0654463
89.948406
89.8135951
89.8190139
89.8195621
89.8195744
89.8195748
89.8195748
89.8195748
89.8195748
89.8195748
89.8195748
89.8195748
89.8195748
89.8195748
89.8195748
89.8195748
89.8195748
89.8195748
89.8195748
89.8195748
89.8195748
89.8195748
89.8195748
89.8195748
89.8195748
89.8195748
89.8195748
89.8195748
89.8195748
89.8195748
89.8195748
89.8195748
89.8195748
89.8195748
89.8195748
89.8195748
89.8195748
89.8195748
89.8195748
89.8195748
89.8195748
89.8195748
89.8195748
89.8195748
89.8195748
89.8195748
89.8195748
89.8195748
89.8195748
89.8195748
89.8195748
89.8195748
89.8195748
89.8195748
89.8195748
89.8195748
89.8195748
89.8195748
89.8195748
89.8195748
89.8195748
89.8195748
89.8195747
89.8195747
89.8195742
89.8195741
89.8195719
89.8195731
89.819556
89.8195428
89.8196082
89.8196324
89.8189237
89.8184202
89.821108
89.8307848
89.8253988
89.7407406
89.7396278
90.0625862
90.0924168
89.462374
89.3585969
90.0714821
89.9918348
89.1067692
88.0052543
88.1250349
92.6774193
92.1437045
92.2483882
88.5325377
87.4871715
87.6555732
92.8247334
92.2920874
92.3771289
88.2460876
87.408845
87.5071976
92.844396
92.4142666
92.5553088
92.3326014
92.3670003
88.1740152
87.7457881
87.5372663
87.5573749
92.8300911
92.3438369
92.4798571
88.3281373
87.9535778
92.7331661
92.2373088
92.299902
88.7724434
87.9839942
88.0643813
87.9375631
88.0004565
87.8398796
87.8380844
92.6088417
92.276523
92.3727624
92.2430751
88.325042
88.0664092
92.700122
92.2138202
92.2866569
88.2258524
87.751974
87.6619363
87.6503103
92.810984
92.3670148
88.1269468
87.8758395
92.70928
92.3568509
88.6369293
87.9047901
88.059095
92.5750548
92.2569631
92.3438624
92.2788815
88.6426444
87.8874014
87.6710777
87.6567069
92.8413355
92.4131723
88.4206166
87.8972576
88.1270021
92.5258781
92.2149118
88.3342814
88.0162863
92.722066
92.2664883
88.1511614
87.8942995
92.8065265
92.3139408
88.0138754
87.8772467
92.8807569
92.3015408
92.4043207
88.1800744
87.7913312
92.7522082
92.3804054
88.2674766
87.8773159
87.77428
87.7500178
92.7954807
92.3644662
88.1510341
87.8866221
92.7841815
92.3278928
88.2190298
87.9656465
92.7017061
92.3518474
88.670205
87.8333944
87.8213519
92.5521876
92.2925004
88.2559261
88.0212547
92.6953444
92.2796812
90.0573854
88.0137224
87.9897369
92.6349038
92.2497061
88.657309
88.150275
87.9375945
87.978674
92.5425807
88.4937431
87.8357329
92.738398
92.3171469
88.2033233
87.9361223
92.792799
92.3053702
88.1214905
87.9650522
92.8469777
92.2621723
92.4005261
88.300161
87.5162837
87.6735952
92.6941687
92.312898
92.3311199
88.1873658
87.6210126
87.6283494
92.6514338
92.3501248
88.1986668
87.9293184
92.7692917
92.3027975
88.282058
88.0096128
92.6868702
92.3363368
88.9052425
87.8301106
87.8132364
92.5744373
92.2937945
88.1676702
87.887797
92.7600023
92.2891991
88.2290212
87.9432791
92.7009023
92.3325819
88.6214391
87.8144733
87.8277864
92.5461431
92.2853834
88.2352355
87.9747679
92.6724403
92.3061915
89.1070685
87.8826981
87.8721347
92.5265092
92.266744
88.2835292
88.0346391
92.6776722
92.2754874
88.5882051
88.0467382
88.0128562
87.9918948
92.73013
92.3924657
88.5604785
87.6835188
87.8473195
92.6600398
92.2737826
92.3357636
88.2552118
87.5825746
87.7248169
92.7177776
92.4101993
92.4328278
92.4314596
88.3994499
87.629204
87.7142716
92.6920944
92.4005173
87.8990355
87.6382886
92.9079017
92.396419
88.0908252
87.8363205
92.7760578
92.3969797
88.4473828
87.8051629
87.8340811
92.5818041
92.3116023
88.243882
87.9596245
92.6942726
92.3180315
88.5316254
87.8924833
87.9034547
92.4764647
92.2860045
89.3184406
87.991643
87.9809874
92.5026594
92.2742346
88.687621
87.9713633
88.0643607
87.8912614
87.864217
92.5674124
92.2443871
92.326564
92.2070255
88.3119265
88.1606483
92.6123813
88.5198453
87.9074943
92.6323175
92.2917827
88.1665765
87.889851
92.6369092
92.3404698
88.3369019
87.7427114
87.7956326
92.532162
92.2570913
88.2124258
87.9806546
92.6218172
92.2113188
88.9865799
88.1339076
88.1122612
88.2924118
92.4345465
92.180602
88.1972649
88.0635648
92.7061494
92.2048869
92.2983287
88.4118261
87.8748722
87.9873826
87.9939372
87.9348208
87.9611563
92.4809825
92.259824
88.2628894
88.0830535
92.6855069
92.2583909
92.356065
92.2561393
88.7223359
88.0124352
88.0017287
88.0733165
87.855788
88.1591818
92.4826174
88.3915412
87.9790746
92.6899719
92.2442812
92.3507387
88.2552549
87.9439487
92.6489681
92.2671428
88.2929529
88.0524245
92.6222835
92.2704997
88.4654161
88.0009361
87.9104307
87.8836164
92.6839439
92.309726
88.0737612
87.8729689
92.7306428
92.3022568
88.1418001
87.9797844
92.6570866
92.3471982
88.2425145
87.7482302
87.8507554
92.627303
92.2554104
92.404382
92.1986868
92.2314487
88.4866196
87.9178158
87.9959217
87.9681657
87.9219107
87.920441
92.5163985
92.2500359
88.3784151
88.1763663
92.5470757
92.2239442
89.4372205
88.0820817
87.9976324
87.981751
92.5990312
92.3154528
88.5164539
87.8614141
88.3137115
92.4958356
92.2264078
92.2336767
87.953847
87.7829908
92.684885
92.3694396
89.4184692
87.8482354
87.8109323
92.6302078
92.3273733
88.3742989
87.8484226
87.8528993
92.4593923
92.3221353
88.5121934
87.9168182
87.9066272
92.4635678
92.2919412
88.2923561
87.940076
87.8614345
87.8551182
92.6624466
92.2998845
92.3712571
88.1420011
87.9697109
92.6909372
92.2259392
92.313007
88.4877767
87.9255103
88.1359394
89.2911594
88.1938304
88.0982933
92.5946148
92.2321966
88.1856486
87.9863557
92.6098427
92.2746594
88.183258
87.9518285
92.5736975
92.3290112
88.5098534
87.7878456
87.8472923
92.5279973
92.2746973
88.0638771
87.8685709
92.6622453
92.2982862
88.1527218
87.903787
92.5989189
92.3452048
88.4250293
87.7917043
87.8607841
92.5289679
92.2847614
88.0740736
87.8892042
92.6506729
92.3045583
88.1546839
87.9084837
92.5878425
92.3556309
88.4092351
87.7650655
87.8426729
92.5419564
92.2896394
88.0306216
87.8426794
92.6692296
92.295202
88.1005314
87.9130971
)
;

boundaryField
{
    closed
    {
        type            calculated;
        value           uniform 120.28944;
    }
    open
    {
        type            calculated;
        value           nonuniform List<scalar> 0();
    }
    sides
    {
        type            empty;
    }
    procBoundary0to1
    {
        type            processor;
        value           uniform 92.6260834;
    }
}


// ************************************************************************* //
