/*--------------------------------*- C++ -*----------------------------------*\
| =========                 |                                                 |
| \\      /  F ield         | OpenFOAM: The Open Source CFD Toolbox           |
|  \\    /   O peration     | Version:  2306                                  |
|   \\  /    A nd           | Website:  www.openfoam.com                      |
|    \\/     M anipulation  |                                                 |
\*---------------------------------------------------------------------------*/
FoamFile
{
    version     2.0;
    format      ascii;
    arch        "LSB;label=32;scalar=64";
    class       volScalarField;
    location    "0.00164";
    object      prefDh_T;
}
// * * * * * * * * * * * * * * * * * * * * * * * * * * * * * * * * * * * * * //

dimensions      [1 1 -3 -1 0 0 0];

internalField   nonuniform List<scalar> 
531
(
-0.000509266414
-0.000525199502
-0.000742579804
-0.00074567637
-0.000590831238
-0.000508358129
-0.000521151584
-0.000742658112
-0.000746887332
-0.000591358463
-0.0005020966
-0.000513432999
-0.000744979144
-0.000745618912
-0.000589054936
-0.000487499756
-0.000504022308
-0.000741259864
-0.00075104982
-0.000585408413
-0.000554652783
-0.000739820089
-0.000748470141
-0.000591893135
-0.000568252082
-0.000740945546
-0.000745761024
-0.00059166344
-0.000519988943
-0.000528502705
-0.000743341961
-0.000742138504
-0.000593208412
-0.000532687092
-0.000538000156
-0.000448291661
-0.000456422635
-0.000734856659
-0.000742557828
-0.00073637545
-0.000743059143
-0.00073438291
-0.000742550492
-0.0006431488
-0.0005529494
-0.000475592813
-0.000476760408
-0.000737018107
-0.000743843616
-0.000595862813
-0.000426659097
-0.00046815094
-0.000741210378
-0.000745533377
-0.000745500845
-0.000588682231
-0.000521442825
-0.000742318908
-0.0007451561
-0.000578142298
-0.000557577255
-0.000743150532
-0.000743505821
-0.00059350957
-0.000560601254
-0.000543974932
-0.000526919305
-0.000439442671
-0.000447478997
-0.000741979298
-0.000743242683
-0.000743377799
-0.000744430921
-0.000744067101
-0.000601759234
-0.000552258149
-0.000745624582
-0.000741976059
-0.000594182442
-0.000509668035
-0.000509828022
-0.000742350129
-0.000744684153
-0.000595520848
-0.000502090382
-0.000502129597
-0.000744139997
-0.000743056564
-0.000594980084
-0.000464542099
-0.000496663826
-0.000744612768
-0.00074494709
-0.000744909485
-0.000599668277
-0.000532577467
-0.000747841331
-0.000743591552
-0.000597293711
-0.000542408544
-0.000510805354
-0.000510983682
-0.000744942642
-0.000743533779
-0.000574452767
-0.000542764472
-0.000746566935
-0.000740732291
-0.000594798743
-0.000521846139
-0.000523375673
-0.000745014598
-0.000741812591
-0.000594611746
-0.000510889011
-0.000512493334
-0.000745516213
-0.000742627142
-0.000599362792
-0.000463930916
-0.000470612766
-0.000743707259
-0.000743364243
-0.000743487014
-0.000744069865
-0.000595872213
-0.000475513123
-0.000480038016
-0.000744325976
-0.000746090618
-0.000578608885
-0.000521297145
-0.000746926573
-0.000741852396
-0.000597198578
-0.000505174915
-0.000507110285
-0.000744784641
-0.000742758112
-0.000595809243
-0.000510108956
-0.000511435612
-0.00074672518
-0.000741537967
-0.000593306684
-0.000490514852
-0.000504015589
-0.000744193182
-0.000746113328
-0.00074126288
-0.000592351066
-0.000503768704
-0.0005048777
-0.000743929743
-0.000747454515
-0.000599525281
-0.000547684523
-0.00074701217
-0.000743702679
-0.000594321129
-0.000518076918
-0.000518989289
-0.00074788258
-0.000742720816
-0.000591369525
-0.000513621086
-0.000515440178
-0.000744211094
-0.000746949266
-0.000605573043
-0.000572046431
-0.000745921496
-0.000744799407
-0.000596105571
-0.000574979017
-0.000530081503
-0.000530006084
-0.000744920775
-0.000741322243
-0.000599957918
-0.000464978804
-0.000473873375
-0.000742914557
-0.000741368659
-0.000741804232
-0.000565159934
-0.000548162474
-0.000745238785
-0.000596056143
-0.000486328201
-0.000743555717
-0.000738787485
-0.000736457682
-0.000602454735
-0.000481244425
-0.000507520577
-0.000744583939
-0.000599867612
-0.000523398572
-0.000745977546
-0.000743183208
-0.000739181584
-0.000592889824
-0.000494803192
-0.000496952742
-0.000744468619
-0.000741954075
-0.00059524889
-0.000501486634
-0.000503367324
-0.000742810474
-0.000741669287
-0.000601327991
-0.000513968665
-0.000522674142
-0.000746372953
-0.000603601581
-0.000537528598
-0.000744983957
-0.000743201082
-0.000738328945
-0.000593635836
-0.000501185039
-0.000502100395
-0.0007432428
-0.000740276163
-0.000598508718
-0.000486473696
-0.000487123656
-0.000742626318
-0.000739812272
-0.000604282859
-0.000417174592
-0.000430099174
-0.000737184306
-0.000740099885
-0.000736874707
-0.000741036862
-0.000739997621
-0.000740189746
-0.000593644041
-0.000510514425
-0.000526246187
-0.000438759854
-0.000441488358
-0.000736730858
-0.000744088365
-0.00052745281
-0.000517702565
-0.000736586276
-0.000742771124
-0.000732489664
-0.000594522018
-0.000458224996
-0.000518491083
-0.000740036902
-0.000603369629
-0.000487006981
-0.000741568016
-0.000740898591
-0.000556115905
-0.000550017582
-0.000739355032
-0.000742544276
-0.000735511054
-0.00059366291
-0.000487181
-0.000499402253
-0.000741340997
-0.000743354864
-0.000739767987
-0.000594686945
-0.000528845381
-0.000540326475
-0.000461714936
-0.000463135894
-0.000738468203
-0.000741734782
-0.000738144531
-0.000740969113
-0.000595396137
-0.000521968698
-0.000521977177
-0.000743091232
-0.000745143863
-0.000594926119
-0.000561470725
-0.00052018788
-0.000520180415
-0.000741907134
-0.000746301625
-0.000583113078
-0.000541064929
-0.000744381669
-0.000742484258
-0.000595596496
-0.000509981384
-0.000510268051
-0.000739593622
-0.00074483985
-0.00060567669
-0.00054433046
-0.000742792252
-0.0007407686
-0.000597877259
-0.000479358132
-0.000480720869
-0.000737183803
-0.000744399541
-0.000542396204
-0.000511586892
-0.000740772421
-0.00074225231
-0.000741024784
-0.00055147042
-0.000506666191
-0.000741018379
-0.000744957975
-0.000736239175
-0.000588477919
-0.000429880119
-0.00043514386
-0.000733993274
-0.000744301249
-0.000577369454
-0.000523445351
-0.000735343684
-0.000743600988
-0.000593837589
-0.000555759726
-0.000737793195
-0.000742244674
-0.000607540508
-0.000556212289
-0.000509097357
-0.000510117441
-0.000737202979
-0.00074312266
-0.000560353624
-0.000521785989
-0.000737884442
-0.000743752267
-0.000545545422
-0.000521981472
-0.000737389986
-0.000742047967
-0.000733226846
-0.0007418478
-0.000600169907
-0.000542574004
-0.000505931153
-0.000509170836
-0.000744347467
-0.00073625358
-0.000588443256
-0.000441460924
-0.000454422374
-0.000736506342
-0.000740342505
-0.000543119144
-0.000502839044
-0.000739579894
-0.00073640426
-0.000520765507
-0.000516721616
-0.000742211775
-0.00074008879
-0.000731772273
-0.000568291147
-0.000512651043
-0.000745082946
-0.000736994386
-0.000553205846
-0.000533920441
-0.000746357201
-0.000734161346
-0.000605386805
-0.000490960598
-0.000513682233
-0.000742820722
-0.0007392816
-0.000581597619
-0.000553789092
-0.00074704564
-0.000736158842
-0.000603163426
-0.00049837932
-0.00052273857
-0.00074452832
-0.000740489629
-0.000575118422
-0.000547239758
-0.000749111103
-0.000737196357
-0.000599486988
-0.0004848856
-0.000505768875
-0.000745669724
-0.000744026035
-0.000558642676
-0.000536527168
-0.000746358658
-0.000742132872
-0.000556306383
-0.000546718211
-0.000745792091
-0.000742784581
-0.000566535628
-0.000549189721
-0.000746950342
-0.000738909817
-0.000600029923
-0.000493927431
-0.000508623424
-0.000741715539
-0.000745784473
-0.000555043519
-0.000525446141
-0.000740389108
-0.000743892609
-0.000535517224
-0.000529468245
-0.000741055296
-0.000745791928
-0.00074473708
-0.000578420275
-0.000520519796
-0.000742361545
-0.000741559653
-0.000596656368
-0.000507078053
-0.00051069024
-0.000739355534
-0.000747454421
-0.000604372267
-0.000567622012
-0.000736876724
-0.000745239134
-0.000593549683
-0.000575963309
-0.00055322365
-0.000552876475
-0.000739347704
-0.000745876037
-0.000593760303
-0.000562499494
-0.000535376749
-0.000537448584
-0.000741895676
-0.000594958708
-0.000513612756
-0.000733540954
-0.000745759027
-0.000597133678
-0.000535241102
-0.000733528878
-0.000744511713
-0.00059491253
-0.000496873042
-0.000497100292
-0.000734871854
-0.000745731044
-0.000743814108
-0.000746097354
-0.000593205587
-0.000551872746
-0.000537166131
-0.000536898848
-0.000731041372
-0.000744660301
-0.000593746246
-0.000495681901
-0.00054792631
-0.000735682283
-0.000597391116
-0.000514312317
-0.000726847789
-0.000738261216
-0.000558952031
-0.000524999732
-0.000722186021
-0.000734721074
-0.000734315329
-0.000739313385
-0.000520560009
-0.000470094849
-0.000721867157
-0.000733171635
-0.000602360716
-0.000468149492
-0.000504774732
-0.000728930839
-0.000743031505
-0.000743209522
-0.000573040707
-0.000474655431
-0.000463903283
-0.000471236449
-0.000733380988
-0.00074222752
-0.000742653212
-0.000598362512
-0.000544727188
-0.000728316658
-0.000746410643
-0.000601574782
-0.000579882729
-0.000731720342
-0.000745591521
-0.000591350625
-0.000574020872
-0.000548147381
-0.000548475761
-0.000734836062
-0.000747333052
-0.000590958299
-0.000527264044
-0.000527112049
-0.000734825969
-0.000748138509
-0.00059229808
-0.000523946901
-0.000523706803
-0.000735978036
-0.000745212092
-0.000592488597
-0.000501728033
-0.000523949516
-0.00073435912
-0.000744864009
-0.000746152727
)
;

boundaryField
{
    closed
    {
        type            calculated;
        value           nonuniform List<scalar> 0();
    }
    open
    {
        type            calculated;
        value           nonuniform List<scalar> 0();
    }
    sides
    {
        type            empty;
    }
    procBoundary3to2
    {
        type            processor;
        value           uniform -0.000591349783;
    }
    procBoundary3to4
    {
        type            processor;
        value           uniform -0.000597553975;
    }
}


// ************************************************************************* //
