/*--------------------------------*- C++ -*----------------------------------*\
| =========                 |                                                 |
| \\      /  F ield         | OpenFOAM: The Open Source CFD Toolbox           |
|  \\    /   O peration     | Version:  2306                                  |
|   \\  /    A nd           | Website:  www.openfoam.com                      |
|    \\/     M anipulation  |                                                 |
\*---------------------------------------------------------------------------*/
FoamFile
{
    version     2.0;
    format      ascii;
    arch        "LSB;label=32;scalar=64";
    class       volScalarField;
    location    "0.00198";
    object      prefDZ_H;
}
// * * * * * * * * * * * * * * * * * * * * * * * * * * * * * * * * * * * * * //

dimensions      [1 -1 -1 0 0 0 0];

internalField   nonuniform List<scalar> 
530
(
0.000117193271
0.000109408923
0.000107888777
0.000107844462
0.000107840347
0.000107840115
0.000107840096
0.000107840095
0.000107840095
0.000107840095
0.000107840095
0.000107840095
0.000107840095
0.000107840095
0.000107840095
0.000107840095
0.000107840095
0.000107840095
0.000107840095
0.000107840095
0.000107840095
0.000107840095
0.000107840095
0.000107840095
0.000107840095
0.000107840095
0.000107840095
0.000107840095
0.000107840095
0.000107840095
0.000107840095
0.000107840095
0.000107840095
0.000107840095
0.000107840095
0.000107840095
0.000107840095
0.000107840095
0.000107840095
0.000107840095
0.000107840095
0.000107840095
0.000107840095
0.000107840095
0.000107840095
0.000107840095
0.000107840095
0.000107840095
0.000107840095
0.000107840095
0.000107840095
0.000107840095
0.000107840095
0.000107840095
0.000107840095
0.000107840095
0.000107840095
0.000107840095
0.000107840095
0.000107840096
0.000107840096
0.000107840099
0.0001078401
0.000107840114
0.000107840117
0.000107840178
0.000107840207
0.000107840368
0.000107840572
0.00010784106
0.000107841512
0.000107841197
0.000107841992
0.000107849893
0.000107865526
0.000107835136
0.000107792433
0.000107840938
0.000108118156
0.000108107266
0.000107756501
0.000107533998
0.000108501101
0.000110480157
0.000110151657
0.000107685117
0.000107790468
0.000107741143
0.000107810445
0.000107802447
0.000106950716
0.000106634806
0.000108064856
0.000110322038
0.00011049528
0.000110298213
0.000107440995
0.000106037508
0.000107690346
0.000110312156
0.000110459133
0.000108275953
0.000106850165
0.000106562247
0.000105835703
0.000106555241
0.000110509104
0.000110426417
0.000110521488
0.000110429776
0.000107648154
0.000106960998
0.000110615003
0.000110331144
0.000107645044
0.000106648846
0.000107118383
0.000105608173
0.000106813264
0.000110278362
0.000110459383
0.000110256377
0.000110455216
0.000110234955
0.000107239996
0.000105609085
0.000106513542
0.000105431874
0.000106120434
0.000110367233
0.000110382635
0.000107940997
0.000106091619
0.000107190631
0.000110461568
0.000110447219
0.00011044713
0.000107700764
0.000106610349
0.000110564077
0.000110406824
0.000106937136
0.000106728741
0.000110523316
0.000110359879
0.000107773226
0.000107141823
0.000106960219
0.00010696127
0.000106061738
0.000106899095
0.000110363067
0.000110343625
0.000110359692
0.000107812479
0.0001070107
0.000110340278
0.000110372376
0.000108687129
0.000107380656
0.000106883499
0.000107732904
0.000107738591
0.000106943843
0.000107759775
0.0001103503
0.000108072648
0.000106074449
0.000107780352
0.0001102941
0.000110503032
0.000105940316
0.00010574763
0.000110281763
0.000110155716
0.000110258804
0.000108635271
0.000106422293
0.00010665303
0.000110407578
0.000110326022
0.000110407917
0.000110367593
0.00010778504
0.000106477792
0.000107155136
0.000106095289
0.00010678885
0.000110388076
0.000110304369
0.000107006044
0.000105610828
0.000106691932
0.000110254602
0.000110394648
0.000107435673
0.000106605958
0.000110316908
0.00011044248
0.000106056977
0.000106701639
0.000110304533
0.000110363808
0.000108138546
0.000107332587
0.000106208075
0.000106528751
0.000110304834
0.000110376603
0.000110310904
0.000110397881
0.000107702326
0.000106587992
0.000106326597
0.000107237529
0.00011034793
0.000107730764
0.000106185515
0.000110506408
0.000110264492
0.000107733046
0.000106678756
0.000107105899
0.000105961502
0.000106197781
0.000110341433
0.000110223543
0.000110366502
0.000110194421
0.000107777166
0.000105726714
0.000107771315
0.000110156384
0.000107714714
0.000105286502
0.000110557671
0.000110055503
0.000107654306
0.000110215762
0.000110481365
0.000107972925
0.000107047361
0.000106486613
0.000106398595
0.000110362441
0.00011040677
0.000107506352
0.000106475935
0.000110505442
0.000110348457
0.000107728197
0.00010747954
0.000110450558
0.000110396555
0.000107059599
0.000105508816
0.000105935602
0.000110343306
0.000110354871
0.000107765169
0.000106618793
0.000110547412
0.000110333562
0.000107672748
0.000106589482
0.000107337938
0.000110397826
0.000110461891
0.000107762313
0.000106986443
0.000110490234
0.00011043198
0.000107757367
0.000107037707
0.000106625625
0.000106603861
0.000110403123
0.000110410607
0.000107779437
0.000106780564
0.000110474774
0.000110393089
0.000107754866
0.00010690718
0.000106046612
0.000106323009
0.000110330636
0.000110285401
0.000110254743
0.000107413711
0.000106213856
0.000105053832
0.000105229152
0.000110312456
0.000110195057
0.000110275555
0.000107892985
0.000106404934
0.000110357868
0.000110247585
0.000107301906
0.000106829045
0.000110399866
0.000110309406
0.000107225307
0.000106730537
0.000110443159
0.000110371405
0.000107801229
0.000107047917
0.000106454934
0.00010772755
0.000110288615
0.000107719864
0.000106280943
0.000110468425
0.000110232495
0.000107814702
0.000105709107
0.000105736893
0.000110346591
0.000110223855
0.000107802627
0.000105010035
0.00010553771
0.000110235535
0.000110277955
0.000110207971
0.000108007536
0.000106843019
0.000106980395
0.00010632055
0.000106338915
0.000110288818
0.000110333885
0.000107834492
0.000106885468
0.000110435028
0.000110350234
0.000107160112
0.000106580182
0.000110505979
0.000110301314
0.000107710588
0.000106687568
0.000107122215
0.000110335399
0.000110391808
0.000107813828
0.000106955777
0.000110428246
0.000110377676
0.000107196947
0.00010681559
0.000110438311
0.000110308055
0.000107777783
0.000107242572
0.000106128967
0.000106145353
0.000110365725
0.000110260079
0.000107809802
0.000107133657
0.000106453586
0.000106452154
0.000110274766
0.000110230044
0.000110273288
0.000110273337
0.000107844991
0.000105457497
0.000105562021
0.000110392982
0.000110248103
0.000107811448
0.000106723947
0.00010700839
0.000105734502
0.000105794386
0.000110275728
0.000110239061
0.000110264202
0.000110238671
0.00011026827
0.000110228366
0.000107923416
0.000106507368
0.000106598879
0.000105103929
0.000105132739
0.00011028506
0.000110298822
0.000106736215
0.00010644037
0.000110332289
0.000110312292
0.000107254169
0.00010711537
0.000110416784
0.000110299156
0.000107772499
0.000107426789
0.00010747038
0.000106494948
0.000107736412
0.00011033836
0.000107715268
0.000106377619
0.000110510912
0.000110308409
0.000107144273
0.000106628596
0.000110488415
0.000110237264
0.000107763873
0.000106698697
0.000106915579
0.00010529547
0.000105466882
0.000110204582
0.000110300568
0.000110178023
0.000110364152
0.000110158713
0.000110411274
0.0001101644
0.000107725434
0.000105958555
0.000107476458
0.000110278819
0.000107730573
0.000106434344
0.000110511181
0.000110269971
0.000107732651
0.000107141284
0.000106019295
0.000106020417
0.000110397042
0.000110315627
0.000107801907
0.000106854733
0.00010657388
0.000106569677
0.000110299423
0.000110318359
0.000107482086
0.000107081659
0.000110363831
0.000110303693
0.000110279813
0.000107419516
0.000106281819
0.000110413962
0.000110226317
0.000107802207
0.000105552469
0.000105649707
0.000110323693
0.00011024519
0.000107834201
0.000105669486
0.000105860581
0.000110391111
0.000110199128
0.000107770985
0.000106936299
0.000107311132
0.00010622945
0.00010696241
0.000110115564
0.000110383472
0.000108704567
0.000107664249
0.000105603502
0.000106221133
0.000110012587
0.000110412056
0.000109905676
0.000110433745
0.000109285552
0.000107722424
0.000104527698
0.000106738076
0.000110167438
0.000107897825
0.000110251039
0.000110388241
0.000107903358
0.000105667397
0.000105789821
0.000110387631
0.000110196562
0.000107794786
0.00010505175
0.000105291994
0.00011027233
0.000110252635
0.000106998487
0.00010625297
0.000110436724
0.000110240503
0.00010772373
0.00010662685
0.00010774424
0.000110278237
0.00011043098
0.000108115362
0.000107780914
0.000107783995
0.000107396215
0.0001066469
0.0001104736
0.000110350069
0.000107751137
0.000105739712
0.000106030204
0.000110336209
0.000110337802
0.000110323951
0.000107787578
0.000106870781
0.00011050801
0.000110325315
0.000107712601
0.00010744947
0.000107731978
0.000107143219
0.000106936759
)
;

boundaryField
{
    closed
    {
        type            calculated;
        value           uniform 0.000144259603;
    }
    open
    {
        type            calculated;
        value           nonuniform List<scalar> 0();
    }
    sides
    {
        type            empty;
    }
    procBoundary0to1
    {
        type            processor;
        value           uniform 0.000110406726;
    }
}


// ************************************************************************* //
