/*--------------------------------*- C++ -*----------------------------------*\
| =========                 |                                                 |
| \\      /  F ield         | OpenFOAM: The Open Source CFD Toolbox           |
|  \\    /   O peration     | Version:  2306                                  |
|   \\  /    A nd           | Website:  www.openfoam.com                      |
|    \\/     M anipulation  |                                                 |
\*---------------------------------------------------------------------------*/
FoamFile
{
    version     2.0;
    format      ascii;
    arch        "LSB;label=32;scalar=64";
    class       volScalarField;
    location    "0.00016";
    object      Z;
}
// * * * * * * * * * * * * * * * * * * * * * * * * * * * * * * * * * * * * * //

dimensions      [0 0 0 0 0 0 0];

internalField   nonuniform List<scalar> 
530
(
0.0130914441
0.0130650543
0.0130834708
0.0132700993
0.0131867942
0.0131515916
0.0131683308
0.0133408784
0.0132812133
0.0132415654
0.0132583456
0.0134192994
0.0133732742
0.01333775
0.0133516429
0.0135017463
0.0134647562
0.0134336342
0.0134476681
0.0135829439
0.0135538575
0.0135194343
0.0135393497
0.0136636218
0.0136382242
0.0136030898
0.0136257254
0.0137430681
0.013720596
0.0136865248
0.0137095474
0.0138180436
0.0137994325
0.0137668363
0.0137894291
0.0138888035
0.01387359
0.0138418931
0.0138644624
0.0139559564
0.013942984
0.013912393
0.0139346977
0.0140188962
0.0140079453
0.0139777025
0.0139990516
0.0140769705
0.014068208
0.0140373466
0.0140571313
0.0141302438
0.014124183
0.0140901222
0.0141090247
0.0141783893
0.0141745979
0.0141390441
0.0141551398
0.0142222145
0.0142213239
0.0141813502
0.0141960431
0.0142632066
0.0142632768
0.0142191706
0.014232751
0.0142992915
0.0142993556
0.0142545695
0.0142660741
0.0143300667
0.014329973
0.0142867754
0.0142965604
0.0143558239
0.0143551376
0.0143160403
0.0143237941
0.0143757136
0.014375607
0.0143430969
0.0143477623
0.0143893131
0.0143933771
0.0143645647
0.0143677774
0.0144011755
0.014407729
0.014383018
0.0143846645
0.0144125024
0.0144197212
0.0143980487
0.014398897
0.0144226879
0.0144295179
0.0144103519
0.0144107402
0.014431405
0.0144374644
0.0144204183
0.014420563
0.0144386109
0.0144438223
0.0144286631
0.014428664
0.0144444246
0.0144488294
0.0144353943
0.0144353074
0.014449029
0.0144527069
0.0144408662
0.0144407164
0.0144526138
0.0144556605
0.0144452831
0.0144450947
0.0144553711
0.0144578577
0.0144488192
0.0144486209
0.0144574558
0.0144594575
0.0144516364
0.0144514391
0.0144590048
0.0144605894
0.0144538662
0.0144536801
0.0144601253
0.0144613687
0.0144556203
0.0144554545
0.014460916
0.01446188
0.0144569953
0.0144568519
0.014461455
0.014462193
0.0144580686
0.0144579492
0.0144618056
0.0144623621
0.0144589043
0.0144588088
0.0144620165
0.0144624307
0.0144595543
0.0144594809
0.0144621271
0.0144624313
0.0144600606
0.0144600052
0.0144621674
0.0144623881
0.0144604548
0.0144604148
0.0144621598
0.0144623195
0.0144607633
0.0144607343
0.0144621222
0.0144622372
0.0144610051
0.0144609841
0.0144620675
0.01446215
0.0144611951
0.0144611798
0.0144620046
0.0144620637
0.014461345
0.0144613334
0.0144619395
0.0144619824
0.0144614634
0.0144614544
0.0144618766
0.0144619081
0.0144615571
0.0144615498
0.0144618187
0.0144618421
0.0144616304
0.0144616246
0.0144617689
0.0144617857
0.014461684
0.0144616804
0.0144617324
0.0144617422
0.014461708
0.0144617104
0.0144617118
0.0144617163
0.0144617069
0.0144617087
0.0144617069
0.0144617083
0.0144617059
0.0144617066
0.0144617057
0.0144617062
0.0144617055
0.0144617058
0.0144617055
0.0144617057
0.0144617056
0.0144617058
0.0144617057
0.0144617059
0.0144617058
0.014461706
0.014461706
0.0144617061
0.0144617061
0.0144617062
0.0144617063
0.0144617063
0.0144617064
0.0144617064
0.0144617065
0.0144617065
0.0144617066
0.0144617066
0.0144617066
0.0144617067
0.0144617067
0.0144617067
0.0144617067
0.0144617068
0.0144617068
0.0144617068
0.0144617068
0.0144617068
0.0144617068
0.0144617068
0.0144617068
0.0144617068
0.0144617069
0.0144617069
0.0144617069
0.0144617069
0.0144617069
0.0144617069
0.0144617069
0.0144617069
0.0144617069
0.0144617069
0.0144617069
0.0144617069
0.0144617069
0.0144617069
0.0144617069
0.0144617069
0.0144617069
0.0144617069
0.0144617069
0.0144617069
0.0144617069
0.0144617069
0.0144617069
0.0144617069
0.0144617069
0.0144617069
0.0144617069
0.0144617069
0.0144617069
0.0144617069
0.0144617069
0.0144617069
0.0144617069
0.0144617069
0.0144617069
0.0144617069
0.0144617069
0.0144617069
0.0144617069
0.0144617069
0.0144617069
0.0144617069
0.0144617069
0.0144617069
0.0144617069
0.0144617069
0.0144617069
0.0144617069
0.0144617069
0.0144617069
0.0144617069
0.0144617069
0.0144617069
0.0144617069
0.0144617069
0.0144617069
0.0144617069
0.0144617069
0.0144617069
0.0144617069
0.0144617069
0.0144617069
0.0144617069
0.0144617069
0.0144617069
0.0144617069
0.0144617069
0.0144617069
0.0144617069
0.0144617069
0.0144617069
0.0144617069
0.0144617069
0.0144617069
0.0144617069
0.0144617069
0.0144617069
0.0144617069
0.0144617069
0.0144617069
0.0144617069
0.0144617069
0.0144617069
0.0144617069
0.0144617069
0.0144617069
0.0144617069
0.0144617069
0.0144617069
0.0144617069
0.0144617069
0.0144617069
0.0144617069
0.0144617069
0.0144617069
0.0144617069
0.0144617069
0.0144617069
0.0144617069
0.0144617069
0.0144617069
0.0144617069
0.0144617069
0.0144617069
0.0144617069
0.0144617069
0.0144617069
0.0144617069
0.0144617069
0.0144617069
0.0144617069
0.0144617069
0.0144617069
0.0144617069
0.0144617069
0.0144617069
0.0144617069
0.0144617069
0.0144617069
0.0144617069
0.0144617069
0.0144617069
0.0144617069
0.0144617069
0.0144617069
0.0144617069
0.0144617069
0.0144617069
0.0144617069
0.0144617069
0.0144617069
0.0144617069
0.0144617069
0.0144617069
0.0144617069
0.0144617069
0.0144617069
0.0144617069
0.0144617069
0.0144617069
0.0144617069
0.0144617069
0.0144617069
0.0144617069
0.0144617069
0.0144617069
0.0144617069
0.0144617069
0.0144617069
0.0144617069
0.0144617069
0.0144617069
0.0144617069
0.0144617069
0.0144617069
0.0144617069
0.0144617069
0.0144617069
0.0144617069
0.0144617069
0.0144617069
0.0144617069
0.0144617069
0.0144617069
0.0144617069
0.0144617069
0.0144617069
0.0144617069
0.0144617069
0.0144617069
0.0144617069
0.0144617069
0.0144617069
0.0144617069
0.0144617069
0.0144617069
0.0144617069
0.0144617069
0.0144617069
0.0144617069
0.0144617069
0.0144617069
0.0144617069
0.0144617069
0.0144617069
0.0144617069
0.0144617069
0.0144617069
0.0144617069
0.0144617069
0.0144617069
0.0144617069
0.0144617069
0.0144617069
0.0144617069
0.0144617069
0.0144617069
0.0144617069
0.0144617069
0.0144617069
0.0144617069
0.0144617069
0.0144617069
0.0144617069
0.0144617069
0.0144617069
0.0144617069
0.0144617069
0.0144617069
0.0144617069
0.0144617069
0.0144617069
0.0144617069
0.0144617069
0.0144617069
0.0144617069
0.0144617069
0.0144617069
0.0144617069
0.0144617069
0.0144617069
0.0144617069
0.0144617069
0.0144617069
0.0144617069
0.0144617069
0.0144617069
0.0144617069
0.0144617069
0.0144617069
0.0144617069
0.0144617069
0.0144617069
0.0144617069
0.0144617069
0.0144617069
0.0144617069
0.0144617069
0.0144617069
0.0144617069
0.0144617069
0.0144617069
0.0144617069
0.0144617069
0.0144617069
0.0144617069
0.0144617069
0.0144617069
0.0144617069
0.0144617069
0.0144617069
0.0144617069
0.0144617069
0.0144617069
0.0144617069
0.0144617069
0.0144617069
0.0144617069
0.0144617069
0.0144617069
0.0144617069
0.0144617069
0.0144617069
0.0144617069
0.0144617069
0.0144617069
0.0144617069
0.0144617069
0.0144617069
0.0144617069
0.0144617069
0.0144617069
0.0144617069
0.0144617069
0.0144617069
0.0144617069
0.0144617069
0.0144617069
0.0144617069
0.0144617069
0.0144617069
0.0144617069
0.0144617069
0.0144617069
0.0144617069
0.0144617069
0.0144617069
0.0144617069
0.0144617069
)
;

boundaryField
{
    closed
    {
        type            zeroGradient;
    }
    open
    {
        type            zeroGradient;
    }
    sides
    {
        type            empty;
    }
    procBoundary5to4
    {
        type            processor;
        value           uniform 0.0132095556;
    }
}


// ************************************************************************* //
