/*--------------------------------*- C++ -*----------------------------------*\
| =========                 |                                                 |
| \\      /  F ield         | OpenFOAM: The Open Source CFD Toolbox           |
|  \\    /   O peration     | Version:  2306                                  |
|   \\  /    A nd           | Website:  www.openfoam.com                      |
|    \\/     M anipulation  |                                                 |
\*---------------------------------------------------------------------------*/
FoamFile
{
    version     2.0;
    format      ascii;
    arch        "LSB;label=32;scalar=64";
    class       volScalarField;
    location    "0.00186";
    object      prefDPV_H2;
}
// * * * * * * * * * * * * * * * * * * * * * * * * * * * * * * * * * * * * * //

dimensions      [1 -1 -1 0 0 0 0];

internalField   nonuniform List<scalar> 
531
(
-3.09073682e-05
-3.04790227e-05
-3.05966581e-05
-3.01268196e-05
-3.0200377e-05
-3.15021014e-05
-3.15273849e-05
-3.15139071e-05
-3.15320926e-05
-3.15225758e-05
-3.07253757e-05
-3.04724189e-05
-3.15213088e-05
-3.15074801e-05
-3.08117381e-05
-3.01148075e-05
-3.03033929e-05
-3.1497172e-05
-3.15321831e-05
-3.15117016e-05
-3.15318366e-05
-3.15239911e-05
-3.0923378e-05
-3.06500273e-05
-3.04987911e-05
-3.04991394e-05
-3.14992061e-05
-3.1518431e-05
-3.05813199e-05
-3.0512719e-05
-3.14972838e-05
-3.15193951e-05
-3.05217096e-05
-3.05208988e-05
-3.14944172e-05
-3.15231222e-05
-3.15136419e-05
-3.07583331e-05
-3.04691312e-05
-3.1510551e-05
-3.15148573e-05
-3.15276378e-05
-3.15189881e-05
-3.09117737e-05
-3.06453002e-05
-3.06095105e-05
-3.04890763e-05
-3.01098382e-05
-3.01255851e-05
-3.1494596e-05
-3.15270317e-05
-3.15110104e-05
-3.15371644e-05
-3.1526717e-05
-3.09101445e-05
-3.04869544e-05
-3.05351341e-05
-3.14976591e-05
-3.15390809e-05
-3.08927521e-05
-3.07350066e-05
-3.15018006e-05
-3.15273966e-05
-3.09200538e-05
-3.0752796e-05
-3.05984995e-05
-3.05986434e-05
-3.14992623e-05
-3.15256532e-05
-3.1527258e-05
-3.0914251e-05
-3.04974753e-05
-3.0602737e-05
-3.02082235e-05
-3.02164521e-05
-3.14777371e-05
-3.15234114e-05
-3.15102953e-05
-3.15315507e-05
-3.07386789e-05
-3.06787284e-05
-3.14902071e-05
-3.15244821e-05
-3.15251541e-05
-3.09209138e-05
-3.04616222e-05
-3.04717704e-05
-3.15020008e-05
-3.15149254e-05
-3.09166781e-05
-3.03629298e-05
-3.04016308e-05
-3.1489141e-05
-3.15169321e-05
-3.06431558e-05
-3.04908973e-05
-3.14862388e-05
-3.15124368e-05
-3.15192e-05
-3.15158051e-05
-3.09139915e-05
-3.03361353e-05
-3.06180335e-05
-3.14874808e-05
-3.09213992e-05
-3.02663061e-05
-3.14896572e-05
-3.1490483e-05
-3.07905602e-05
-3.01350741e-05
-3.02024641e-05
-3.14777093e-05
-3.15108053e-05
-3.15058398e-05
-3.15127276e-05
-3.08712776e-05
-3.04692941e-05
-3.14884481e-05
-3.14965123e-05
-3.08539513e-05
-3.02667278e-05
-3.03045606e-05
-3.14746121e-05
-3.15262888e-05
-3.0565531e-05
-3.05024773e-05
-3.14691126e-05
-3.15252808e-05
-3.15021662e-05
-3.15314654e-05
-3.15246479e-05
-3.09154977e-05
-3.0698793e-05
-3.05918426e-05
-3.05598969e-05
-3.14973332e-05
-3.14964706e-05
-3.09189622e-05
-3.02891523e-05
-3.05884873e-05
-3.14745632e-05
-3.09225457e-05
-3.0239519e-05
-3.14879925e-05
-3.14745664e-05
-3.07714221e-05
-2.99651306e-05
-3.00730606e-05
-3.14514638e-05
-3.15094823e-05
-3.14772369e-05
-3.1515587e-05
-3.14929061e-05
-3.15216599e-05
-3.07471954e-05
-3.06386162e-05
-3.14788055e-05
-3.15181299e-05
-3.15111594e-05
-3.09301204e-05
-3.0475742e-05
-3.03860748e-05
-3.03872459e-05
-3.14726036e-05
-3.15048509e-05
-3.06174463e-05
-3.04082164e-05
-3.14813773e-05
-3.1497077e-05
-3.0832973e-05
-3.01827032e-05
-3.02871856e-05
-3.14695926e-05
-3.15191978e-05
-3.14982102e-05
-3.15268436e-05
-3.15179817e-05
-3.09152591e-05
-3.07542159e-05
-3.0590858e-05
-3.05833895e-05
-3.14867755e-05
-3.15131689e-05
-3.08534895e-05
-3.02167035e-05
-3.02593425e-05
-3.14878737e-05
-3.15299448e-05
-3.15155253e-05
-3.15365662e-05
-3.09284951e-05
-3.06651884e-05
-3.1492941e-05
-3.15264943e-05
-3.0924335e-05
-3.06561721e-05
-3.04597449e-05
-3.04608286e-05
-3.14779012e-05
-3.15212246e-05
-3.15064455e-05
-3.15279915e-05
-3.09665997e-05
-3.07783305e-05
-3.0602481e-05
-3.06059664e-05
-3.1486935e-05
-3.15330024e-05
-3.09353544e-05
-3.06291647e-05
-3.0461594e-05
-3.04666016e-05
-3.1481416e-05
-3.15326757e-05
-3.06594256e-05
-3.05406169e-05
-3.14890465e-05
-3.15362834e-05
-3.0653945e-05
-3.06131942e-05
-3.14963024e-05
-3.15352323e-05
-3.152329e-05
-3.08875584e-05
-3.05999776e-05
-3.15206972e-05
-3.1517196e-05
-3.09077861e-05
-3.04915687e-05
-3.05012182e-05
-3.14975387e-05
-3.15386711e-05
-3.09082065e-05
-3.07267336e-05
-3.15105079e-05
-3.15268135e-05
-3.09193008e-05
-3.07628259e-05
-3.05746056e-05
-3.05929416e-05
-3.15164201e-05
-3.09364195e-05
-3.04235884e-05
-3.14942035e-05
-3.15208588e-05
-3.07108084e-05
-3.0554082e-05
-3.14913918e-05
-3.15246931e-05
-3.06136651e-05
-3.05896457e-05
-3.14908269e-05
-3.15250636e-05
-3.15170038e-05
-3.0881051e-05
-3.05201757e-05
-3.14995762e-05
-3.15244615e-05
-3.06790848e-05
-3.0645133e-05
-3.14940361e-05
-3.15284519e-05
-3.15162088e-05
-3.09167473e-05
-3.05048128e-05
-3.03305709e-05
-3.03325429e-05
-3.14879733e-05
-3.15120965e-05
-3.15077982e-05
-3.07364581e-05
-3.04217138e-05
-3.14747407e-05
-3.15094481e-05
-3.14857996e-05
-3.15131845e-05
-3.10390921e-05
-3.07393484e-05
-3.06904955e-05
-3.05284192e-05
-3.05149595e-05
-3.01659848e-05
-3.01724405e-05
-3.14733607e-05
-3.15173424e-05
-3.15029454e-05
-3.15277804e-05
-3.15249723e-05
-3.0929082e-05
-3.06646575e-05
-3.15107747e-05
-3.1512333e-05
-3.09098141e-05
-3.0500858e-05
-3.05259284e-05
-3.15087738e-05
-3.15307214e-05
-3.15239088e-05
-3.09124873e-05
-3.06886349e-05
-3.0621655e-05
-3.05135635e-05
-3.00961966e-05
-3.01081864e-05
-3.14881793e-05
-3.15263544e-05
-3.15019305e-05
-3.1540121e-05
-3.1517008e-05
-3.09117884e-05
-3.03680992e-05
-3.03886374e-05
-3.15006311e-05
-3.15439573e-05
-3.06944975e-05
-3.06241641e-05
-3.15240031e-05
-3.15442919e-05
-3.15335279e-05
-3.08671384e-05
-3.05680262e-05
-3.15525505e-05
-3.15368455e-05
-3.08875869e-05
-3.04140097e-05
-3.04634505e-05
-3.15468012e-05
-3.1574356e-05
-3.15619524e-05
-3.0870377e-05
-3.0492097e-05
-3.04948687e-05
-3.15911503e-05
-3.159818e-05
-3.08471841e-05
-3.04209063e-05
-3.04254642e-05
-3.16318096e-05
-3.16494022e-05
-3.07493698e-05
-3.05137061e-05
-3.16793186e-05
-3.16953779e-05
-3.07800811e-05
-3.03354767e-05
-3.03385607e-05
-3.17750321e-05
-3.17704641e-05
-3.05807382e-05
-3.03199798e-05
-3.17797728e-05
-3.17881263e-05
-3.06129808e-05
-2.99665332e-05
-3.00520309e-05
-3.16383179e-05
-3.16952237e-05
-3.16235235e-05
-3.16528687e-05
-3.15963304e-05
-3.15701309e-05
-3.15450576e-05
-3.09377562e-05
-3.14551213e-05
-3.15192459e-05
-3.15031677e-05
-3.15804481e-05
-3.15589536e-05
-3.16204107e-05
-3.16066665e-05
-3.16579036e-05
-3.16556996e-05
-3.17060032e-05
-3.17227684e-05
-3.17852879e-05
-3.1840665e-05
-3.19523573e-05
-3.21215e-05
-3.22702348e-05
-3.2126206e-05
-3.20132116e-05
-3.18781905e-05
-3.17908982e-05
-3.16768137e-05
-3.161522e-05
-3.15313902e-05
-3.14970839e-05
-3.14254219e-05
-3.13683855e-05
-3.12941128e-05
-3.13265477e-05
-3.1255607e-05
-3.12015406e-05
-3.11354195e-05
-3.11022337e-05
-3.10815221e-05
-3.10741181e-05
-3.10929303e-05
-3.09440483e-05
-3.08433045e-05
-3.0678915e-05
-3.06025421e-05
-3.0515756e-05
-3.12717045e-05
-3.22375927e-05
-3.21012327e-05
-3.17740551e-05
-3.15758594e-05
-3.12952122e-05
-3.10580915e-05
-3.08016653e-05
-3.05363048e-05
-3.02888127e-05
-2.99939353e-05
-2.99628825e-05
-3.04359111e-05
-3.05539539e-05
-3.01831421e-05
-3.01268502e-05
-3.05043959e-05
-3.33424572e-05
-3.34975444e-05
-3.40447564e-05
-3.55839182e-05
-3.60266587e-05
-4.12362959e-05
-4.18545925e-05
-4.32172674e-05
-4.40426646e-05
-4.59057227e-05
-4.76279339e-05
-5.02559267e-05
-5.27618089e-05
-5.73487153e-05
-5.9227818e-05
-6.14916194e-05
-6.33735904e-05
-6.55816408e-05
-6.72348999e-05
-6.87705678e-05
-6.98760143e-05
-7.1242312e-05
-7.22269063e-05
-7.34891971e-05
-7.45022376e-05
-7.56040454e-05
-7.65283141e-05
-7.73785714e-05
-7.79677501e-05
-7.86998589e-05
-7.92186178e-05
-7.98879493e-05
-8.03589836e-05
-8.09791176e-05
-8.14097909e-05
-8.19737513e-05
-8.23439597e-05
-8.28529891e-05
-8.31827084e-05
-8.36524236e-05
-8.39495472e-05
-8.44007974e-05
-8.4683415e-05
-8.51158384e-05
-8.53916769e-05
-8.58381558e-05
-8.61411849e-05
-8.6595746e-05
-8.67879774e-05
-8.70726695e-05
-8.72455215e-05
-8.74999799e-05
-8.76598201e-05
-8.78887931e-05
-8.80324161e-05
-8.82477774e-05
-8.84158502e-05
-8.86597285e-05
-8.88294566e-05
-8.90687491e-05
-8.92303214e-05
-8.94467758e-05
-8.95947644e-05
-8.97871246e-05
-8.99214829e-05
-9.00958892e-05
-9.02213776e-05
-9.03835323e-05
-9.05040511e-05
-9.0657215e-05
-9.07706828e-05
-9.09064605e-05
-9.1010755e-05
-9.11390907e-05
-9.12396505e-05
-9.13748439e-05
-9.14999668e-05
-9.16389882e-05
-9.17528821e-05
-9.18781764e-05
-9.19829108e-05
-9.20970527e-05
-9.21884446e-05
-9.22843612e-05
-9.23679921e-05
-9.24587493e-05
-9.25389345e-05
-9.26250792e-05
-9.27021365e-05
-9.27844103e-05
-9.28593866e-05
-9.29388842e-05
-9.30121992e-05
-9.30891489e-05
-9.31609402e-05
-9.32355882e-05
-9.33060002e-05
-9.33785805e-05
-9.34458756e-05
-9.35090313e-05
-9.35692693e-05
-9.36311219e-05
-9.36938153e-05
-9.37554121e-05
-9.38156944e-05
-9.38745864e-05
-9.39326299e-05
-9.39890268e-05
-9.40449891e-05
-9.40990924e-05
-9.41531201e-05
)
;

boundaryField
{
    closed
    {
        type            calculated;
        value           nonuniform List<scalar> 0();
    }
    open
    {
        type            calculated;
        value           nonuniform List<scalar> 0();
    }
    sides
    {
        type            empty;
    }
    procBoundary4to3
    {
        type            processor;
        value           uniform -3.15154608e-05;
    }
    procBoundary4to5
    {
        type            processor;
        value           uniform -9.42034948e-05;
    }
}


// ************************************************************************* //
