/*--------------------------------*- C++ -*----------------------------------*\
| =========                 |                                                 |
| \\      /  F ield         | OpenFOAM: The Open Source CFD Toolbox           |
|  \\    /   O peration     | Version:  2306                                  |
|   \\  /    A nd           | Website:  www.openfoam.com                      |
|    \\/     M anipulation  |                                                 |
\*---------------------------------------------------------------------------*/
FoamFile
{
    version     2.0;
    format      ascii;
    arch        "LSB;label=32;scalar=64";
    class       volScalarField;
    location    "0.00186";
    object      PV;
}
// * * * * * * * * * * * * * * * * * * * * * * * * * * * * * * * * * * * * * //

dimensions      [0 0 0 0 0 0 0];

internalField   nonuniform List<scalar> 
531
(
-0.00706367147
-0.00713596219
-0.00711984836
-0.0071677647
-0.00715733731
-0.00689234947
-0.00688971185
-0.00689176723
-0.00688974643
-0.00689077691
-0.00711063591
-0.00713774948
-0.00689065174
-0.00689384477
-0.0071006013
-0.0071721001
-0.00714903527
-0.0068952414
-0.00689062255
-0.00689361141
-0.00689094785
-0.00689148759
-0.00708368353
-0.00712136558
-0.00713513108
-0.00713396107
-0.00689481478
-0.0068915827
-0.00712712022
-0.00713323929
-0.00689500061
-0.00689228902
-0.00713242853
-0.00713327477
-0.00689547639
-0.00689307547
-0.00689305815
-0.00710929752
-0.00713820694
-0.00689408293
-0.00689328708
-0.00689155587
-0.00689197036
-0.00704950963
-0.00712021664
-0.00712286065
-0.00713339552
-0.00716943692
-0.00716592426
-0.0068946287
-0.0068901813
-0.00689316493
-0.00688883767
-0.00689113925
-0.00708152579
-0.00713805764
-0.00712686969
-0.00689465538
-0.00688770983
-0.0070964324
-0.00710968461
-0.00689324438
-0.00688905439
-0.0070742906
-0.00710872183
-0.00712340774
-0.00712219392
-0.00689284084
-0.00688862694
-0.00688887809
-0.00706488477
-0.00713379915
-0.00712010522
-0.00716037737
-0.00715614176
-0.00689570259
-0.00688957415
-0.00689198773
-0.00688864897
-0.00711042834
-0.007115494
-0.00689477795
-0.00688994353
-0.00688994442
-0.0070762848
-0.00713767297
-0.00713462179
-0.00689192651
-0.00689092275
-0.00709019549
-0.00714778935
-0.00714003698
-0.00689427678
-0.00688961907
-0.00711901997
-0.0071338236
-0.00689436655
-0.00689150879
-0.00688985933
-0.00689078858
-0.00706953689
-0.00715010189
-0.00711882063
-0.00689339338
-0.00708655506
-0.00715582512
-0.00689237068
-0.00689359879
-0.00710151369
-0.00716894282
-0.00715783455
-0.00689552043
-0.0068907896
-0.00689206413
-0.006890761
-0.00709676015
-0.00713724562
-0.00689347123
-0.00689357433
-0.00709566428
-0.00715806018
-0.00714793131
-0.00689648407
-0.00688843199
-0.00712829595
-0.00713137721
-0.00689731553
-0.0068902527
-0.00689316309
-0.00688925995
-0.00688955391
-0.0070758705
-0.00711600373
-0.00712296189
-0.00712812424
-0.00689201619
-0.00689251455
-0.00708351271
-0.0071555134
-0.00712089242
-0.00689496821
-0.00708639468
-0.00715980986
-0.00689287842
-0.0068963677
-0.00710433093
-0.00718656127
-0.00717058322
-0.00690049781
-0.00689267306
-0.00689798841
-0.00689262106
-0.00689620997
-0.00689174564
-0.00711327901
-0.00712167737
-0.00689720062
-0.00689221047
-0.00689220468
-0.00708664945
-0.00713727281
-0.00714505497
-0.00714388884
-0.0068969744
-0.00689225449
-0.00712244507
-0.00714354717
-0.00689524509
-0.00689454711
-0.0070995271
-0.00716713662
-0.00715207972
-0.00689872385
-0.0068917625
-0.00689521356
-0.00689100577
-0.00689218048
-0.007053458
-0.0071114448
-0.00712577595
-0.00712651426
-0.00689532768
-0.00689267721
-0.00709647372
-0.00716233193
-0.0071535427
-0.00689622353
-0.00688997574
-0.00689271585
-0.00688901737
-0.00708768867
-0.00711710329
-0.00689500857
-0.00688981436
-0.00708305593
-0.00711862737
-0.00713731165
-0.00713578794
-0.00689629677
-0.00689020889
-0.00689252526
-0.00688883786
-0.00700272521
-0.00710357707
-0.00712474354
-0.00711936065
-0.00689386035
-0.00688666443
-0.00708648503
-0.00711805643
-0.00713632095
-0.00713203
-0.00689411784
-0.00688659567
-0.00711789362
-0.00712576977
-0.00689341646
-0.00688721663
-0.00711836433
-0.00712006348
-0.00689294018
-0.00688857163
-0.00688954095
-0.00709404729
-0.00712350047
-0.00688971918
-0.00689096577
-0.00707482836
-0.00713620122
-0.00712863632
-0.00689337806
-0.00688684966
-0.00709437402
-0.00710962117
-0.00689089637
-0.00688863062
-0.00707150697
-0.00710809634
-0.00712432275
-0.00712400706
-0.00688918218
-0.00708749192
-0.00713894402
-0.00689354087
-0.00688960559
-0.00711442338
-0.0071274196
-0.0068944872
-0.00689035242
-0.00712412823
-0.0071252013
-0.00689511869
-0.00689188823
-0.00689188971
-0.00709836723
-0.00713229035
-0.00689505603
-0.006891271
-0.00711856268
-0.00712030914
-0.0068953737
-0.00689122334
-0.00689215043
-0.0070761412
-0.00713458528
-0.00715025835
-0.00714977204
-0.00689569287
-0.00689315259
-0.00689314161
-0.0071125883
-0.00714229098
-0.00689788896
-0.00689351721
-0.00689640179
-0.00689250199
-0.00697654718
-0.00711084667
-0.00711621624
-0.00713120776
-0.00713121274
-0.00716532434
-0.00716246715
-0.00689700571
-0.006891779
-0.00689384969
-0.00689078959
-0.00689082811
-0.00709109487
-0.00711935845
-0.00689227579
-0.00689254767
-0.00706313497
-0.00713557048
-0.00712866479
-0.00689200743
-0.00688877489
-0.00688924428
-0.00705629549
-0.00711396443
-0.00712003093
-0.0071294691
-0.00716965992
-0.00716599282
-0.00689413378
-0.00688907093
-0.00689334634
-0.00688745684
-0.00689166904
-0.00708880208
-0.00714831999
-0.00713919649
-0.00689387894
-0.00688723908
-0.00711548692
-0.00711910686
-0.00689066926
-0.00688850632
-0.00688952908
-0.00709524722
-0.00712611064
-0.00688639738
-0.00688948855
-0.0070712615
-0.0071405994
-0.00712998766
-0.00688767077
-0.00688289166
-0.00688536163
-0.00706333485
-0.00712812605
-0.00712371915
-0.00687995082
-0.00687932539
-0.00705822197
-0.0071293055
-0.00712469293
-0.00687426905
-0.00687137298
-0.00708891191
-0.00711163148
-0.00686665156
-0.00686590958
-0.00704206309
-0.00712189584
-0.00711914723
-0.00685501498
-0.00685469778
-0.00708294989
-0.00711267534
-0.00684753499
-0.00684931547
-0.00703555218
-0.00713939916
-0.0071197961
-0.00685016198
-0.00684184501
-0.00684611313
-0.00684031369
-0.00684133274
-0.00684058186
-0.00683591417
-0.00690945712
-0.0068300569
-0.00682230491
-0.00681482546
-0.00680178222
-0.00679666904
-0.00678146098
-0.00677595654
-0.00675968616
-0.00675207169
-0.00673487982
-0.006723626
-0.00670467857
-0.00668732952
-0.00666279845
-0.00663184137
-0.00659587964
-0.00657496345
-0.00655706202
-0.00653316689
-0.00651439745
-0.00648760256
-0.00646779958
-0.00643764022
-0.00641676737
-0.00638233901
-0.0063576307
-0.00630636075
-0.00625746207
-0.00618305862
-0.00613654462
-0.00607903967
-0.00602837178
-0.00597157959
-0.00591667908
-0.00585890248
-0.00581449775
-0.00576903138
-0.00571308179
-0.00566572652
-0.00557840195
-0.00544098442
-0.00521256117
-0.00516087517
-0.00507327317
-0.004999794
-0.00490491084
-0.00480808843
-0.00470008168
-0.00457983829
-0.00445474721
-0.00431128251
-0.00412855352
-0.00387771354
-0.00364434922
-0.00342449365
-0.00312489576
-0.00280738933
-0.002518744
-0.00222387038
-0.00183372397
-0.00156520423
-0.00115160642
-0.00115151597
-0.000896662009
-0.000518102764
-0.000246564746
0.000176548332
0.000433262753
0.000847732325
0.00107656284
0.00132824318
0.00157928074
0.00190041297
0.00214195472
0.00240296478
0.0026372225
0.00292141068
0.00317416767
0.00344593525
0.00367888994
0.00392432794
0.00410827088
0.00433204719
0.00448850467
0.00470869264
0.00488307102
0.00508657979
0.00523917302
0.00541943696
0.00554930167
0.00570724028
0.00581697355
0.00595603769
0.00604864659
0.00616651819
0.00624108662
0.00633877387
0.00639611713
0.00647661542
0.00652227903
0.00658707235
0.00662334444
0.00667375607
0.00669998206
0.00674007064
0.00676984027
0.00681336875
0.00683965142
0.0068784274
0.00690203996
0.00693658066
0.00695794335
0.00698855504
0.00700671515
0.00703248477
0.00704804384
0.00707040864
0.00708470257
0.00710558944
0.00711890783
0.00713864021
0.00715141618
0.00716988833
0.0071820028
0.00719921346
0.0072106668
0.00722673078
0.00723764315
0.00725278074
0.00726325159
0.00727747487
0.00728750013
0.00730033888
0.00730876072
0.00732031788
0.00732863066
0.00733977788
0.00734797301
0.00735872515
0.00736685139
0.00737727907
0.00738522286
0.00739519924
0.00740292789
0.00741248665
0.00742001044
0.00742901494
0.00743605709
0.00744454072
0.00745134143
0.00745943453
0.00746600284
0.00747373068
0.00748007641
0.00748746306
0.00749360654
0.00750071823
0.00750669624
0.00751347689
0.00751907674
0.00752549237
0.00753095129
0.00753714189
0.00754246715
0.00754844778
0.00755364653
0.00755943137
0.00756451086
)
;

boundaryField
{
    closed
    {
        type            zeroGradient;
    }
    open
    {
        type            zeroGradient;
    }
    sides
    {
        type            empty;
    }
    procBoundary4to3
    {
        type            processor;
        value           uniform -0.00689009983;
    }
    procBoundary4to5
    {
        type            processor;
        value           uniform 0.00757011429;
    }
}


// ************************************************************************* //
