/*--------------------------------*- C++ -*----------------------------------*\
| =========                 |                                                 |
| \\      /  F ield         | OpenFOAM: The Open Source CFD Toolbox           |
|  \\    /   O peration     | Version:  2306                                  |
|   \\  /    A nd           | Website:  www.openfoam.com                      |
|    \\/     M anipulation  |                                                 |
\*---------------------------------------------------------------------------*/
FoamFile
{
    version     2.0;
    format      ascii;
    arch        "LSB;label=32;scalar=64";
    class       volScalarField;
    location    "0.00186";
    object      rho;
}
// * * * * * * * * * * * * * * * * * * * * * * * * * * * * * * * * * * * * * //

dimensions      [1 -3 0 0 0 0 0];

internalField   nonuniform List<scalar> 
531
(
0.937996437
0.959465617
0.953911583
0.975948927
0.972501665
0.90340999
0.902840512
0.903152493
0.902769062
0.903084785
0.947745732
0.959642174
0.902918421
0.903514926
0.943622211
0.976355471
0.967521876
0.903551837
0.902626334
0.903229632
0.902809054
0.903011795
0.93782913
0.951186104
0.958282909
0.958262357
0.903487155
0.90309049
0.954388846
0.957608676
0.903501867
0.903043191
0.957180602
0.957217453
0.903497939
0.903019577
0.903051371
0.946032723
0.959655894
0.903026832
0.903264199
0.902811384
0.903167129
0.936597997
0.951394211
0.953076118
0.958742722
0.976532622
0.97580188
0.903508681
0.90272175
0.903149301
0.90254351
0.902829529
0.938473801
0.958873693
0.956602389
0.903886966
0.902427983
0.939778694
0.94720692
0.90369681
0.902988519
0.93761767
0.946379365
0.953638362
0.953635641
0.903610612
0.903133246
0.902884047
0.937477054
0.958384409
0.953427023
0.971944741
0.971573996
0.904230069
0.902817429
0.903354971
0.902596505
0.947023606
0.949841675
0.903814234
0.903186457
0.902857618
0.937675622
0.960041487
0.959559475
0.903677988
0.903201356
0.938599323
0.964654205
0.962835618
0.904003237
0.903123983
0.951473872
0.958627137
0.903883459
0.903314001
0.903091081
0.903218422
0.937636475
0.965858676
0.952611166
0.903837192
0.938174349
0.969108333
0.903910881
0.903990353
0.944459076
0.975227612
0.972082792
0.904204077
0.90315361
0.903473012
0.903122157
0.940627383
0.959540862
0.903928244
0.903767966
0.941418132
0.969017203
0.967251425
0.904368719
0.902593678
0.954994281
0.957947188
0.90428849
0.902815068
0.903443229
0.902694566
0.902909171
0.937722807
0.948714405
0.953726591
0.955233173
0.903455169
0.903735116
0.938044587
0.967908467
0.953856567
0.904184683
0.937973194
0.970208345
0.903794338
0.904422412
0.945212193
0.982991575
0.977978093
0.904875717
0.902973466
0.904148038
0.902782267
0.903754458
0.902632701
0.946263278
0.951344147
0.903768852
0.903003559
0.902929813
0.937267591
0.958909314
0.96309468
0.963019979
0.90381898
0.90307092
0.952157374
0.961960402
0.903561001
0.903226632
0.941934376
0.972441413
0.967548742
0.903903085
0.902476131
0.90314659
0.902345764
0.902686429
0.935953264
0.945575923
0.953253664
0.953611115
0.903243029
0.902591302
0.940914145
0.970851419
0.968883681
0.903253643
0.902006627
0.902676131
0.901880099
0.937298092
0.949971974
0.903401537
0.902498816
0.937418726
0.950510156
0.959764725
0.959742154
0.903817617
0.902786427
0.903301322
0.902654917
0.93149947
0.944927468
0.953237662
0.953078904
0.903858752
0.902480123
0.93744459
0.95203467
0.959919778
0.959690378
0.90390361
0.902453066
0.950642027
0.95621769
0.903619602
0.902365333
0.950894656
0.952796373
0.903279008
0.902550805
0.902808656
0.939846749
0.953395816
0.902600952
0.903040245
0.93811178
0.958457064
0.957985095
0.903530825
0.90221211
0.938816742
0.947344808
0.902967761
0.90275367
0.937291286
0.945624679
0.954465289
0.953600667
0.902555178
0.937238252
0.961536914
0.903385244
0.902739607
0.948034784
0.955392245
0.903361019
0.902638252
0.95258751
0.953704681
0.903211545
0.902743791
0.902707829
0.939963905
0.956942339
0.903069653
0.902600755
0.949449119
0.95102617
0.903072306
0.902600261
0.902741357
0.93732963
0.957557882
0.965717083
0.965600733
0.903082961
0.902924344
0.90280553
0.946603122
0.961385948
0.903624676
0.903000867
0.903725819
0.90296614
0.926498783
0.946524233
0.94885965
0.956507666
0.957176065
0.9735725
0.973328144
0.903932133
0.902956231
0.903360242
0.902828842
0.902972299
0.938006213
0.950572606
0.903278552
0.903570233
0.937684735
0.958424523
0.957269348
0.903487339
0.903157326
0.903363363
0.937348552
0.949688955
0.952838642
0.957919714
0.977489348
0.976922386
0.903790227
0.902959269
0.903648393
0.902588776
0.903382791
0.938986312
0.964583643
0.963597483
0.903579171
0.902205866
0.949167678
0.952448734
0.902438421
0.902352898
0.902547289
0.940952052
0.955056764
0.901590305
0.902390229
0.939047237
0.962296671
0.959969026
0.901720221
0.901116527
0.901487298
0.939527766
0.95864506
0.958509722
0.900113594
0.899990379
0.940488095
0.962026318
0.961813232
0.898520117
0.898011008
0.946487631
0.957654962
0.896621308
0.896198399
0.943129392
0.966094413
0.965957236
0.892869822
0.893177463
0.95435934
0.966823371
0.892999448
0.892637403
0.951095986
0.983679121
0.979569762
0.899292762
0.897522859
0.900436894
0.899634901
0.902158733
0.903376138
0.904990784
0.93265947
0.909618858
0.907259816
0.908627429
0.906060704
0.907397526
0.905628509
0.906571143
0.905219443
0.905701874
0.904303273
0.904029434
0.901986763
0.90007081
0.895736751
0.888712626
0.882565189
0.889694635
0.895329579
0.902123607
0.90656995
0.912459975
0.915717705
0.920263167
0.922252519
0.926503698
0.929946716
0.934685057
0.933718377
0.939241319
0.943193159
0.947898437
0.950567586
0.95250978
0.953646555
0.953239135
0.96274882
0.969496624
0.980187401
0.985687877
0.994190096
0.962885331
0.919692001
0.927944293
0.946952287
0.958716417
0.975442609
0.989693912
1.00527984
1.02147849
1.03667183
1.05481058
1.05955884
1.04241694
1.04060166
1.06286749
1.06733471
1.05388287
0.930080379
0.926640449
0.908773857
0.8556568
0.851333404
0.693298298
0.679700018
0.652018662
0.633659635
0.598042553
0.565649109
0.522852293
0.483873825
0.426573207
0.405303192
0.383114781
0.365183384
0.346356241
0.332284476
0.320598323
0.311933724
0.302215224
0.295004192
0.286557793
0.279622352
0.272669465
0.266706769
0.261658048
0.258054433
0.253896436
0.250867247
0.247212975
0.244580973
0.24131736
0.239012937
0.236158472
0.23427411
0.231809455
0.230215992
0.228029836
0.22665952
0.224634238
0.223394536
0.221529187
0.220368274
0.218514664
0.217283046
0.215465811
0.214725843
0.213625614
0.212971645
0.212007578
0.211418705
0.210568947
0.21005373
0.209276979
0.208700415
0.207847864
0.207268342
0.20643573
0.205888552
0.205140783
0.204643002
0.20399401
0.203553247
0.202967166
0.20256093
0.202026651
0.20164018
0.20113759
0.200776662
0.200339165
0.200011668
0.199599529
0.199284048
0.198851702
0.198458683
0.198015703
0.197658425
0.197259837
0.196931647
0.196569055
0.196285894
0.195986172
0.195728923
0.1954453
0.195198526
0.194929311
0.194692055
0.194437248
0.194209903
0.19396535
0.193743091
0.193506589
0.193288966
0.193059715
0.192846244
0.192623474
0.192419721
0.192227
0.192045522
0.191856913
0.191668681
0.191481331
0.191300273
0.191121113
0.190946671
0.190775039
0.190606704
0.190441964
0.190279266
)
;

boundaryField
{
    closed
    {
        type            calculated;
        value           nonuniform List<scalar> 0();
    }
    open
    {
        type            calculated;
        value           nonuniform List<scalar> 0();
    }
    sides
    {
        type            empty;
    }
    procBoundary4to3
    {
        type            processor;
        value           uniform 0.903526879;
    }
    procBoundary4to5
    {
        type            processor;
        value           uniform 0.190126778;
    }
}


// ************************************************************************* //
