/*--------------------------------*- C++ -*----------------------------------*\
| =========                 |                                                 |
| \\      /  F ield         | OpenFOAM: The Open Source CFD Toolbox           |
|  \\    /   O peration     | Version:  2306                                  |
|   \\  /    A nd           | Website:  www.openfoam.com                      |
|    \\/     M anipulation  |                                                 |
\*---------------------------------------------------------------------------*/
FoamFile
{
    version     2.0;
    format      ascii;
    arch        "LSB;label=32;scalar=64";
    class       volScalarField;
    location    "0.00036";
    object      p;
}
// * * * * * * * * * * * * * * * * * * * * * * * * * * * * * * * * * * * * * //

dimensions      [1 -1 -2 0 0 0 0];

internalField   nonuniform List<scalar> 
530
(
101846.326
101845.382
101839.012
101828.6
101826.153
101828.131
101823.666
101815.71
101814.587
101817.528
101814.401
101808.032
101807.975
101811.414
101809.263
101803.948
101804.181
101807.286
101805.295
101800.388
101800.313
101802.788
101801.08
101796.362
101795.554
101797.069
101793.542
101787.313
101785.985
101786.847
101783.207
101777.152
101775.425
101776
101772.55
101766.881
101765.326
101766.262
101764.242
101760.205
101759.076
101760.402
101759.418
101756.507
101755.508
101756.459
101755.471
101752.416
101750.632
101750.752
101749.326
101746.027
101743.54
101742.75
101741.058
101738.098
101735.277
101733.777
101732.419
101730.039
101726.647
101724.223
101722.359
101719.57
101715.212
101711.621
101709.094
101705.869
101700.646
101695.941
101692.667
101688.928
101682.994
101677.458
101673.399
101669.03
101662.753
101656.725
101651.64
101646.433
101640.308
101634.287
101628.067
101621.957
101616.835
101612.04
101604.47
101597.651
101593.752
101591.277
101591.623
101592.223
101590.194
101588.416
101587.754
101586.142
101584.068
101582.73
101581.738
101579.595
101577.172
101575.626
101574.564
101572.35
101569.497
101567.34
101566.01
101563.649
101559.823
101556.249
101554.559
101552.129
101548.313
101545.015
101543.062
101540.94
101540.099
101540.38
101539.242
101537.518
101537.371
101538.353
101537.935
101536.549
101536.434
101537.623
101537.643
101536.507
101536.427
101537.916
101538.451
101538.306
101539.107
101540.001
101540.172
101541.46
101543.734
101544.981
101545.478
101546.958
101549.236
101550.593
101551.173
101552.548
101554.671
101556.008
101556.594
101557.81
101559.661
101560.686
101561.005
101561.765
101563.373
101564.442
101565.508
101567.108
101568.379
101569.247
101570.774
101572.746
101574.089
101575.028
101576.547
101578.44
101579.778
101580.716
101582.11
101583.849
101585.109
101585.957
101587.116
101588.617
101589.694
101590.326
101591.153
101592.366
101593.213
101593.845
101594.666
101595.553
101596.23
101597.186
101598.332
101599.119
101599.699
101600.572
101601.58
101602.233
101602.686
101603.396
101604.223
101604.727
101605.044
101605.593
101606.241
101606.597
101606.784
101607.176
101607.655
101607.872
101607.937
101608.182
101608.505
101608.593
101608.546
101608.658
101608.839
101608.811
101608.663
101608.656
101608.71
101608.58
101608.344
101608.234
101608.177
101607.959
101607.649
101607.449
101607.3
101607.008
101606.635
101606.362
101606.134
101605.783
101605.361
101605.027
101604.736
101604.338
101603.878
101603.497
101603.156
101602.721
101602.235
101601.819
101601.439
101600.978
101600.475
101600.033
101599.624
101599.146
101598.631
101598.168
101597.736
101597.248
101596.724
101596.24
101595.795
101595.308
101594.78
101594.273
101593.803
101593.291
101592.755
101592.243
101591.774
101591.286
101590.813
101590.371
101589.918
101589.456
101589.033
101588.64
101588.225
101587.802
101587.415
101587.055
101586.678
101586.293
101585.941
101585.613
101585.275
101584.931
101584.615
101584.324
101584.03
101583.732
101583.455
101583.202
101582.961
101582.715
101582.474
101582.251
101582.048
101581.836
101581.619
101581.415
101581.223
101581.029
101580.84
101580.666
101580.503
101580.341
101580.187
101580.046
101579.914
101579.783
101579.66
101579.549
101579.446
101579.344
101579.25
101579.167
101579.09
101579.016
101578.949
101578.892
101578.841
101578.793
101578.751
101578.718
101578.692
101578.668
101578.65
101578.641
101578.638
101578.639
101578.645
101578.659
101578.679
101578.703
101578.733
101578.77
101578.813
101578.861
101578.916
101578.976
101579.042
101579.113
101579.19
101579.273
101579.36
101579.453
101579.552
101579.655
101579.763
101579.876
101579.993
101580.116
101580.243
101580.374
101580.51
101580.651
101580.796
101580.946
101581.099
101581.258
101581.42
101581.587
101581.759
101581.934
101582.114
101582.298
101582.486
101582.679
101582.876
101583.077
101583.282
101583.491
101583.705
101583.923
101584.145
101584.371
101584.601
101584.835
101585.074
101585.316
101585.563
101585.813
101586.067
101586.326
101586.588
101586.855
101587.125
101587.399
101587.676
101587.958
101588.243
101588.532
101588.825
101589.121
101589.42
101589.723
101590.029
101590.339
101590.652
101590.968
101591.287
101591.609
101591.934
101592.262
101592.593
101592.927
101593.263
101593.602
101593.943
101594.286
101594.632
101594.98
101595.33
101595.682
101596.036
101596.392
101596.749
101597.108
101597.468
101597.83
101598.193
101598.557
101598.922
101599.288
101599.655
101600.023
101600.391
101600.76
101601.129
101601.498
101601.868
101602.238
101602.607
101602.977
101603.346
101603.716
101604.084
101604.452
101604.82
101605.187
101605.553
101605.918
101606.283
101606.646
101607.008
101607.369
101607.729
101608.088
101608.445
101608.801
101609.155
101609.508
101609.859
101610.209
101610.557
101610.903
101611.248
101611.59
101611.932
101612.271
101612.609
101612.945
101613.279
101613.611
101613.942
101614.271
101614.598
101614.935
101615.291
101615.67
101616.071
101616.497
101616.949
101617.429
101617.938
101618.479
101619.053
101619.663
101620.31
101620.997
101621.729
101622.508
101623.34
101624.232
101625.192
101626.23
101627.359
101628.598
101629.968
101631.497
101633.219
101635.176
101637.42
101640.009
101643.011
101646.497
101650.54
101655.206
101660.541
101666.559
101673.218
101680.402
101687.899
101695.383
101702.415
101708.463
101712.955
101715.363
101715.314
101712.709
101707.785
101701.101
101693.376
101685.205
101676.742
101667.521
101656.63
101643.307
101627.77
101611.854
101598.822
101592.068
101592.953
101598.744
101602.842
101599.284
101588.465
101577.501
101573.264
101577.228
101587.245
101601.065
101617.013
101632.473
101639.44
101624.023
101590.512
101567.518
101575.814
101610.235
101626.229
101597.464
101562.335
101574.03
)
;

boundaryField
{
    closed
    {
        type            zeroGradient;
    }
    open
    {
        type            waveTransmissive;
        gamma           1.25;
        fieldInf        101325;
        lInf            1;
        value           uniform 101579.385;
    }
    sides
    {
        type            empty;
    }
    procBoundary5to4
    {
        type            processor;
        value           uniform 101854.501;
    }
}


// ************************************************************************* //
