/*--------------------------------*- C++ -*----------------------------------*\
| =========                 |                                                 |
| \\      /  F ield         | OpenFOAM: The Open Source CFD Toolbox           |
|  \\    /   O peration     | Version:  2306                                  |
|   \\  /    A nd           | Website:  www.openfoam.com                      |
|    \\/     M anipulation  |                                                 |
\*---------------------------------------------------------------------------*/
FoamFile
{
    version     2.0;
    format      ascii;
    arch        "LSB;label=32;scalar=64";
    class       volVectorField;
    location    "0.00036";
    object      U;
}
// * * * * * * * * * * * * * * * * * * * * * * * * * * * * * * * * * * * * * //

dimensions      [0 1 -1 0 0 0 0];

internalField   nonuniform List<vector> 
530
(
(2.1863851 0 0)
(2.18252474 0 0)
(2.34600156 0 0)
(2.31256513 0 0)
(2.15022022 0 0)
(2.19077608 0 0)
(2.3462936 0 0)
(2.31203045 0 0)
(2.16661484 0 0)
(2.20734185 0 0)
(2.35577619 0 0)
(2.32580925 0 0)
(2.19531232 0 0)
(2.23765147 0 0)
(2.37792737 0 0)
(2.35441799 0 0)
(2.24012147 0 0)
(2.28417034 0 0)
(2.41441566 0 0)
(2.39619643 0 0)
(2.29611541 0 0)
(2.33419311 0 0)
(2.45295514 0 0)
(2.44742241 0 0)
(2.36031345 0 0)
(2.41144321 0 0)
(2.53517625 0 0)
(2.50409435 0 0)
(2.40082957 0 0)
(2.44392976 0 0)
(2.55512871 0 0)
(2.52818201 0 0)
(2.43014497 0 0)
(2.46386933 0 0)
(2.56497315 0 0)
(2.53867931 0 0)
(2.44166072 0 0)
(2.45868301 0 0)
(2.54260478 0 0)
(2.53172675 0 0)
(2.45007923 0 0)
(2.45519597 0 0)
(2.52395553 0 0)
(2.51771871 0 0)
(2.45030492 0 0)
(2.44483247 0 0)
(2.49704943 0 0)
(2.49194443 0 0)
(2.42673161 0 0)
(2.40938986 0 0)
(2.44783481 0 0)
(2.44426504 0 0)
(2.38719543 0 0)
(2.36179346 0 0)
(2.37878566 0 0)
(2.37252887 0 0)
(2.3283624 0 0)
(2.28563921 0 0)
(2.27463332 0 0)
(2.27750724 0 0)
(2.25159404 0 0)
(2.20133315 0 0)
(2.17547786 0 0)
(2.18096694 0 0)
(2.16321035 0 0)
(2.10370054 0 0)
(2.06346341 0 0)
(2.07045456 0 0)
(2.06229568 0 0)
(2.00016955 0 0)
(1.95095417 0 0)
(1.95863321 0 0)
(1.95701013 0 0)
(1.89797216 0 0)
(1.84944172 0 0)
(1.85370081 0 0)
(1.85289874 0 0)
(1.8074383 0 0)
(1.76896448 0 0)
(1.75904503 0 0)
(1.74899503 0 0)
(1.72776145 0 0)
(1.71201459 0 0)
(1.68024143 0 0)
(1.6530576 0 0)
(1.69443645 0 0)
(1.74744329 0 0)
(1.7137025 0 0)
(1.67880419 0 0)
(1.6354485 0 0)
(1.59795325 0 0)
(1.6353588 0 0)
(1.652053 0 0)
(1.6126498 0 0)
(1.59467909 0 0)
(1.60445602 0 0)
(1.58643865 0 0)
(1.56017804 0 0)
(1.56674015 0 0)
(1.58076902 0 0)
(1.56076177 0 0)
(1.53096095 0 0)
(1.53482438 0 0)
(1.55130062 0 0)
(1.53716926 0 0)
(1.50148733 0 0)
(1.49464307 0 0)
(1.51599786 0 0)
(1.51722385 0 0)
(1.46801997 0 0)
(1.43630846 0 0)
(1.45931664 0 0)
(1.47131965 0 0)
(1.43618509 0 0)
(1.4147456 0 0)
(1.41504267 0 0)
(1.39353226 0 0)
(1.41029141 0 0)
(1.44794462 0 0)
(1.43806856 0 0)
(1.40092156 0 0)
(1.41082549 0 0)
(1.45008554 0 0)
(1.44742516 0 0)
(1.40968227 0 0)
(1.41285854 0 0)
(1.45246084 0 0)
(1.45955844 0 0)
(1.42310342 0 0)
(1.4212659 0 0)
(1.45978663 0 0)
(1.47086682 0 0)
(1.46216463 0 0)
(1.48061521 0 0)
(1.49227794 0 0)
(1.47513888 0 0)
(1.49052966 0 0)
(1.53066182 0 0)
(1.53813997 0 0)
(1.52051058 0 0)
(1.53345923 0 0)
(1.56978527 0 0)
(1.57941657 0 0)
(1.56489173 0 0)
(1.5765825 0 0)
(1.60937545 0 0)
(1.61976637 0 0)
(1.60689116 0 0)
(1.61790604 0 0)
(1.64891829 0 0)
(1.66107396 0 0)
(1.64731208 0 0)
(1.65110617 0 0)
(1.67747504 0 0)
(1.68778789 0 0)
(1.69783204 0 0)
(1.72230056 0 0)
(1.73332106 0 0)
(1.72998415 0 0)
(1.7463178 0 0)
(1.77503483 0 0)
(1.78414596 0 0)
(1.78059687 0 0)
(1.79511556 0 0)
(1.82106221 0 0)
(1.83081128 0 0)
(1.8283629 0 0)
(1.84102725 0 0)
(1.8643507 0 0)
(1.87481573 0 0)
(1.8725891 0 0)
(1.88220495 0 0)
(1.90242763 0 0)
(1.91294939 0 0)
(1.90950236 0 0)
(1.9154128 0 0)
(1.93234673 0 0)
(1.941573 0 0)
(1.94392259 0 0)
(1.95325241 0 0)
(1.96263099 0 0)
(1.96453017 0 0)
(1.97530565 0 0)
(1.99125188 0 0)
(1.99627633 0 0)
(1.99537715 0 0)
(2.0043431 0 0)
(2.01822573 0 0)
(2.02198675 0 0)
(2.02044305 0 0)
(2.02786301 0 0)
(2.03975572 0 0)
(2.04255578 0 0)
(2.0405621 0 0)
(2.04672224 0 0)
(2.05679455 0 0)
(2.05870103 0 0)
(2.05631301 0 0)
(2.06118415 0 0)
(2.06953233 0 0)
(2.0706043 0 0)
(2.0678199 0 0)
(2.07147989 0 0)
(2.07822868 0 0)
(2.07851327 0 0)
(2.07534709 0 0)
(2.07789119 0 0)
(2.08317559 0 0)
(2.08273311 0 0)
(2.07921617 0 0)
(2.08075569 0 0)
(2.08471972 0 0)
(2.08362014 0 0)
(2.07979741 0 0)
(2.0804511 0 0)
(2.08324609 0 0)
(2.08156888 0 0)
(2.07749036 0 0)
(2.07737325 0 0)
(2.07915684 0 0)
(2.07699637 0 0)
(2.07271267 0 0)
(2.07193113 0 0)
(2.07285513 0 0)
(2.07031554 0 0)
(2.06588552 0 0)
(2.06454857 0 0)
(2.0647454 0 0)
(2.06192106 0 0)
(2.05741579 0 0)
(2.05564445 0 0)
(2.05522896 0 0)
(2.05219027 0 0)
(2.04768629 0 0)
(2.04559903 0 0)
(2.04467421 0 0)
(2.04148406 0 0)
(2.03703702 0 0)
(2.0346928 0 0)
(2.03336499 0 0)
(2.03011808 0 0)
(2.02573214 0 0)
(2.02310408 0 0)
(2.02148613 0 0)
(2.01835596 0 0)
(2.0140078 0 0)
(2.01101259 0 0)
(2.00911831 0 0)
(2.00621465 0 0)
(2.00193851 0 0)
(1.99868832 0 0)
(1.99645191 0 0)
(1.99332308 0 0)
(1.98907898 0 0)
(1.98568519 0 0)
(1.98339571 0 0)
(1.98036045 0 0)
(1.97752524 0 0)
(1.9753878 0 0)
(1.97258276 0 0)
(1.96916878 0 0)
(1.96675966 0 0)
(1.9649622 0 0)
(1.96229859 0 0)
(1.95912553 0 0)
(1.95686042 0 0)
(1.95516465 0 0)
(1.9527609 0 0)
(1.94989811 0 0)
(1.94776608 0 0)
(1.94616954 0 0)
(1.94404275 0 0)
(1.94150017 0 0)
(1.93947637 0 0)
(1.93795624 0 0)
(1.93619899 0 0)
(1.93406049 0 0)
(1.93193977 0 0)
(1.93029938 0 0)
(1.92887623 0 0)
(1.9270355 0 0)
(1.92490625 0 0)
(1.9231982 0 0)
(1.92195369 0 0)
(1.9203997 0 0)
(1.91872743 0 0)
(1.91741571 0 0)
(1.91631596 0 0)
(1.91501854 0 0)
(1.91372925 0 0)
(1.91271341 0 0)
(1.9117881 0 0)
(1.91071152 0 0)
(1.90968089 0 0)
(1.90889383 0 0)
(1.90816702 0 0)
(1.9073107 0 0)
(1.90650702 0 0)
(1.9059242 0 0)
(1.90539503 0 0)
(1.90475431 0 0)
(1.90416172 0 0)
(1.90376503 0 0)
(1.90341818 0 0)
(1.90297871 0 0)
(1.90258179 0 0)
(1.90235285 0 0)
(1.90217135 0 0)
(1.90191989 0 0)
(1.90170786 0 0)
(1.90163546 0 0)
(1.90160957 0 0)
(1.90153923 0 0)
(1.90150666 0 0)
(1.90158466 0 0)
(1.90170623 0 0)
(1.90180935 0 0)
(1.90194984 0 0)
(1.90217165 0 0)
(1.9024316 0 0)
(1.90269906 0 0)
(1.90300795 0 0)
(1.90336899 0 0)
(1.90375409 0 0)
(1.90417643 0 0)
(1.90465393 0 0)
(1.90515271 0 0)
(1.90567539 0 0)
(1.90624297 0 0)
(1.90684649 0 0)
(1.90748034 0 0)
(1.90814712 0 0)
(1.90884766 0 0)
(1.90958086 0 0)
(1.91034625 0 0)
(1.9111438 0 0)
(1.91197334 0 0)
(1.91283464 0 0)
(1.91372746 0 0)
(1.91465168 0 0)
(1.91560714 0 0)
(1.9165937 0 0)
(1.91761123 0 0)
(1.91865961 0 0)
(1.91973873 0 0)
(1.92084849 0 0)
(1.9219888 0 0)
(1.92315956 0 0)
(1.9243607 0 0)
(1.92559214 0 0)
(1.92685379 0 0)
(1.92814558 0 0)
(1.92946744 0 0)
(1.93081929 0 0)
(1.93220105 0 0)
(1.93361264 0 0)
(1.93505397 0 0)
(1.93652497 0 0)
(1.93802552 0 0)
(1.93955554 0 0)
(1.94111491 0 0)
(1.94270351 0 0)
(1.94432121 0 0)
(1.94596788 0 0)
(1.94764337 0 0)
(1.9493475 0 0)
(1.95108011 0 0)
(1.95284101 0 0)
(1.95463 0 0)
(1.95644685 0 0)
(1.95829133 0 0)
(1.96016319 0 0)
(1.96206217 0 0)
(1.96398799 0 0)
(1.96594033 0 0)
(1.9679189 0 0)
(1.96992334 0 0)
(1.97195332 0 0)
(1.97400845 0 0)
(1.97608836 0 0)
(1.97819263 0 0)
(1.98032084 0 0)
(1.98247255 0 0)
(1.9846473 0 0)
(1.9868446 0 0)
(1.98906397 0 0)
(1.99130488 0 0)
(1.99356681 0 0)
(1.99584921 0 0)
(1.99815151 0 0)
(2.00047313 0 0)
(2.00281349 0 0)
(2.00517196 0 0)
(2.00754792 0 0)
(2.00994073 0 0)
(2.01234973 0 0)
(2.01477427 0 0)
(2.01721365 0 0)
(2.01966719 0 0)
(2.02213419 0 0)
(2.02461394 0 0)
(2.02710572 0 0)
(2.02960879 0 0)
(2.03212243 0 0)
(2.03464588 0 0)
(2.03717841 0 0)
(2.03971925 0 0)
(2.04226766 0 0)
(2.04482287 0 0)
(2.04738412 0 0)
(2.04995065 0 0)
(2.05252169 0 0)
(2.05509649 0 0)
(2.05767429 0 0)
(2.06025432 0 0)
(2.06283585 0 0)
(2.06541812 0 0)
(2.06800039 0 0)
(2.07058194 0 0)
(2.07316203 0 0)
(2.07573996 0 0)
(2.07831501 0 0)
(2.0808865 0 0)
(2.08345374 0 0)
(2.08601607 0 0)
(2.08857282 0 0)
(2.09112337 0 0)
(2.09366709 0 0)
(2.09620338 0 0)
(2.09873164 0 0)
(2.10125131 0 0)
(2.10376183 0 0)
(2.10626268 0 0)
(2.10875335 0 0)
(2.11123334 0 0)
(2.11370219 0 0)
(2.11615946 0 0)
(2.11860473 0 0)
(2.12103761 0 0)
(2.12345772 0 0)
(2.12586472 0 0)
(2.12825829 0 0)
(2.1306381 0 0)
(2.13300388 0 0)
(2.13535536 0 0)
(2.13769234 0 0)
(2.14001471 0 0)
(2.14232256 0 0)
(2.14461612 0 0)
(2.14689556 0 0)
(2.14916039 0 0)
(2.15140974 0 0)
(2.15364512 0 0)
(2.15593819 0 0)
(2.15837986 0 0)
(2.1609771 0 0)
(2.16373781 0 0)
(2.16666935 0 0)
(2.16977974 0 0)
(2.17307839 0 0)
(2.17657594 0 0)
(2.1802842 0 0)
(2.18421614 0 0)
(2.18838621 0 0)
(2.19281074 0 0)
(2.19750868 0 0)
(2.20250262 0 0)
(2.20782022 0 0)
(2.21349604 0 0)
(2.21957394 0 0)
(2.22611017 0 0)
(2.23317723 0 0)
(2.24086857 0 0)
(2.24930423 0 0)
(2.25863733 0 0)
(2.26906123 0 0)
(2.28081685 0 0)
(2.29419932 0 0)
(2.30956256 0 0)
(2.32731972 0 0)
(2.34793639 0 0)
(2.37191273 0 0)
(2.39974968 0 0)
(2.43189393 0 0)
(2.46865687 0 0)
(2.51010492 0 0)
(2.55592364 0 0)
(2.60526589 0 0)
(2.65660626 0 0)
(2.70763949 0 0)
(2.75528161 0 0)
(2.79582454 0 0)
(2.8252922 0 0)
(2.84005743 0 0)
(2.83764474 0 0)
(2.81739798 0 0)
(2.78100521 0 0)
(2.73236962 0 0)
(2.67627793 0 0)
(2.61676379 0 0)
(2.55483849 0 0)
(2.48737273 0 0)
(2.40862729 0 0)
(2.31401866 0 0)
(2.20573133 0 0)
(2.09677999 0 0)
(2.00901158 0 0)
(1.96462337 0 0)
(1.97100173 0 0)
(2.00874949 0 0)
(2.03486051 0 0)
(2.01238752 0 0)
(1.94430293 0 0)
(1.8737396 0 0)
(1.84443222 0 0)
(1.86879215 0 0)
(1.93599107 0 0)
(2.03167329 0 0)
(2.14461795 0 0)
(2.25515276 0 0)
(2.30555493 0 0)
(2.22809879 0 0)
(2.06480943 0 0)
(1.98843543 0 0)
(2.12168967 0 0)
(2.38026461 0 0)
(2.48127733 0 0)
(2.20989812 0 0)
(1.91424206 0 0)
(1.82444858 0 0)
)
;

boundaryField
{
    closed
    {
        type            noSlip;
    }
    open
    {
        type            inletOutlet;
        inletValue      uniform (0 0 0);
        value           uniform (1.82444858 0 0);
    }
    sides
    {
        type            empty;
    }
    procBoundary5to4
    {
        type            processor;
        value           uniform (2.37621401 0 0);
    }
}


// ************************************************************************* //
