/*--------------------------------*- C++ -*----------------------------------*\
| =========                 |                                                 |
| \\      /  F ield         | OpenFOAM: The Open Source CFD Toolbox           |
|  \\    /   O peration     | Version:  2306                                  |
|   \\  /    A nd           | Website:  www.openfoam.com                      |
|    \\/     M anipulation  |                                                 |
\*---------------------------------------------------------------------------*/
FoamFile
{
    version     2.0;
    format      ascii;
    arch        "LSB;label=32;scalar=64";
    class       volScalarField;
    location    "0.00186";
    object      alpha;
}
// * * * * * * * * * * * * * * * * * * * * * * * * * * * * * * * * * * * * * //

dimensions      [1 -1 -1 0 0 0 0];

internalField   nonuniform List<scalar> 
530
(
7.63324731e-05
7.65833752e-05
7.64808496e-05
7.65108363e-05
7.65081706e-05
7.67011127e-05
7.66440901e-05
7.66595896e-05
7.66678307e-05
7.68107508e-05
7.679541e-05
7.67984065e-05
7.68159442e-05
7.69146691e-05
7.69350199e-05
7.69296021e-05
7.69563632e-05
7.70126265e-05
7.70635312e-05
7.70338044e-05
7.70891237e-05
7.7107395e-05
7.71640359e-05
7.7147705e-05
7.72161083e-05
7.72052674e-05
7.72732784e-05
7.725871e-05
7.73347537e-05
7.73031155e-05
7.73830111e-05
7.73665896e-05
7.7444173e-05
7.74048265e-05
7.74924794e-05
7.74732991e-05
7.75468882e-05
7.7505888e-05
7.75895453e-05
7.75782158e-05
7.76451682e-05
7.76051972e-05
7.76823441e-05
7.76815495e-05
7.77406346e-05
7.77023654e-05
7.7772384e-05
7.77811163e-05
7.78349184e-05
7.77965493e-05
7.78610274e-05
7.78760905e-05
7.79265797e-05
7.78893916e-05
7.79500056e-05
7.79658028e-05
7.80152928e-05
7.79815335e-05
7.80382268e-05
7.80503873e-05
7.80925516e-05
7.80713333e-05
7.81261245e-05
7.81338427e-05
7.81663164e-05
7.81518211e-05
7.82096379e-05
7.82071609e-05
7.82394099e-05
7.82263591e-05
7.8279536e-05
7.82760739e-05
7.83108199e-05
7.82990811e-05
7.83477836e-05
7.83437955e-05
7.83807602e-05
7.83706008e-05
7.84143778e-05
7.84111757e-05
7.84489848e-05
7.8440655e-05
7.84789945e-05
7.84774289e-05
7.8515792e-05
7.85091214e-05
7.8542768e-05
7.85423254e-05
7.85813226e-05
7.8576056e-05
7.86060433e-05
7.8606542e-05
7.8645454e-05
7.86417873e-05
7.8673405e-05
7.86706146e-05
7.87089251e-05
7.87063111e-05
7.87413364e-05
7.87372613e-05
7.87778275e-05
7.8773395e-05
7.88134527e-05
7.88058099e-05
7.88459222e-05
7.8842056e-05
7.88817186e-05
7.88750649e-05
7.89131639e-05
7.89098371e-05
7.89500727e-05
7.89448297e-05
7.89804832e-05
7.89771135e-05
7.9017287e-05
7.90133402e-05
7.90473479e-05
7.90443282e-05
7.90837293e-05
7.90811238e-05
7.91140835e-05
7.91110604e-05
7.91503105e-05
7.91484622e-05
7.91806354e-05
7.91774531e-05
7.92175923e-05
7.9215306e-05
7.9247227e-05
7.92441288e-05
7.92841168e-05
7.92816487e-05
7.93139452e-05
7.93108273e-05
7.93487873e-05
7.93474866e-05
7.93801412e-05
7.93770317e-05
7.94093934e-05
7.94120395e-05
7.94451181e-05
7.94423432e-05
7.94721892e-05
7.94769739e-05
7.95103754e-05
7.95080373e-05
7.95363865e-05
7.95424983e-05
7.95759597e-05
7.95739791e-05
7.96013767e-05
7.96081022e-05
7.96417953e-05
7.96402028e-05
7.96671137e-05
7.96737651e-05
7.97079682e-05
7.97066703e-05
7.97337465e-05
7.97395431e-05
7.97746317e-05
7.977351e-05
7.98011839e-05
7.98058826e-05
7.98415786e-05
7.98408504e-05
7.98685543e-05
7.98727151e-05
7.99089402e-05
7.99086936e-05
7.99400271e-05
7.99418178e-05
7.99785246e-05
7.99771161e-05
8.0014434e-05
8.00159218e-05
8.00525542e-05
8.0051171e-05
8.00930121e-05
8.00917546e-05
8.01265413e-05
8.01255021e-05
8.01692506e-05
8.01691145e-05
8.02017611e-05
8.02004802e-05
8.02446778e-05
8.02460269e-05
8.02770507e-05
8.02751224e-05
8.03173202e-05
8.03235073e-05
8.03531183e-05
8.03509766e-05
8.03945486e-05
8.04016949e-05
8.04296173e-05
8.04271472e-05
8.04736157e-05
8.0479767e-05
8.05065081e-05
8.05036341e-05
8.05540494e-05
8.05576536e-05
8.05834248e-05
8.05803706e-05
8.06305942e-05
8.0633556e-05
8.06574976e-05
8.0655987e-05
8.07033796e-05
8.07053829e-05
8.07271271e-05
8.07255427e-05
8.07722196e-05
8.0776292e-05
8.07959798e-05
8.07955004e-05
8.08387776e-05
8.08461097e-05
8.08647338e-05
8.08650474e-05
8.09056047e-05
8.09155979e-05
8.09329181e-05
8.09344249e-05
8.09730359e-05
8.09833396e-05
8.10007755e-05
8.1003015e-05
8.10391527e-05
8.10496419e-05
8.10681248e-05
8.10709221e-05
8.11055412e-05
8.11157592e-05
8.11345841e-05
8.11382678e-05
8.1171653e-05
8.11817052e-05
8.12000748e-05
8.1204828e-05
8.12373789e-05
8.12467607e-05
8.12650401e-05
8.12703134e-05
8.13026598e-05
8.13107817e-05
8.13297674e-05
8.13347596e-05
8.13680898e-05
8.13753394e-05
8.13950473e-05
8.13999089e-05
8.14332343e-05
8.14396266e-05
8.14591947e-05
8.14641662e-05
8.14970964e-05
8.15027882e-05
8.15225726e-05
8.15271258e-05
8.15602201e-05
8.15642301e-05
8.15850929e-05
8.15895537e-05
8.16240616e-05
8.16240897e-05
8.16468172e-05
8.16501181e-05
8.16849646e-05
8.16829888e-05
8.1707241e-05
8.17098902e-05
8.17438542e-05
8.17415455e-05
8.17665467e-05
8.17680525e-05
8.17991633e-05
8.18005592e-05
8.18243019e-05
8.18263229e-05
8.18558547e-05
8.18595619e-05
8.18810642e-05
8.18834781e-05
8.19114142e-05
8.19170716e-05
8.19367651e-05
8.1939386e-05
8.19658606e-05
8.1972438e-05
8.19913152e-05
8.19937512e-05
8.20191076e-05
8.20258119e-05
8.2044596e-05
8.20472976e-05
8.2070904e-05
8.20786728e-05
8.2096516e-05
8.20990142e-05
8.21218839e-05
8.21297535e-05
8.21466472e-05
8.21495809e-05
8.21729328e-05
8.21837753e-05
8.2196092e-05
8.2199531e-05
8.22247042e-05
8.22351974e-05
8.2244413e-05
8.22501832e-05
8.2277631e-05
8.22871913e-05
8.22921903e-05
8.22983954e-05
8.23299799e-05
8.23352504e-05
8.23384238e-05
8.23461285e-05
8.23786048e-05
8.23817027e-05
8.23849168e-05
8.23922118e-05
8.24238591e-05
8.2426639e-05
8.24298358e-05
8.24368957e-05
8.24672057e-05
8.24702385e-05
8.24732397e-05
8.2480215e-05
8.25091227e-05
8.25126308e-05
8.25152211e-05
8.2522259e-05
8.25498098e-05
8.25539476e-05
8.2555868e-05
8.25631083e-05
8.25893987e-05
8.25943719e-05
8.25952283e-05
8.26028992e-05
8.26279406e-05
8.26325174e-05
8.26333203e-05
8.26415576e-05
8.2665472e-05
8.26692722e-05
8.26701878e-05
8.2679142e-05
8.27019912e-05
8.27049711e-05
8.27059117e-05
8.27155254e-05
8.27377235e-05
8.27395982e-05
8.27407912e-05
8.27507402e-05
8.27709061e-05
8.27731579e-05
8.27747298e-05
8.27847925e-05
8.2803013e-05
8.28056479e-05
8.2807755e-05
8.28176811e-05
8.28342689e-05
8.28370865e-05
8.28398169e-05
8.28494214e-05
8.28646206e-05
8.28674845e-05
8.28708527e-05
8.28800273e-05
8.28940182e-05
8.28968467e-05
8.29008152e-05
8.29095044e-05
8.292242e-05
8.29251686e-05
8.29296648e-05
8.29378505e-05
8.29497911e-05
8.295244e-05
8.29573743e-05
8.29650613e-05
8.29761076e-05
8.29786506e-05
8.29839291e-05
8.29911347e-05
8.30013551e-05
8.30037942e-05
8.30093259e-05
8.30160743e-05
8.30255456e-05
8.30278694e-05
8.30335681e-05
8.30398891e-05
8.30486867e-05
8.30509e-05
8.30566671e-05
8.30625918e-05
8.30707807e-05
8.30728925e-05
8.30786412e-05
8.30841865e-05
8.30918418e-05
8.30938527e-05
8.30995332e-05
8.31047105e-05
8.3111888e-05
8.31137924e-05
8.3119374e-05
8.3124194e-05
8.31309414e-05
8.31327311e-05
8.31381957e-05
8.31426664e-05
8.31490195e-05
8.31506808e-05
8.31560315e-05
8.31601606e-05
8.31661422e-05
8.31676703e-05
8.31729142e-05
8.31767126e-05
8.31823574e-05
8.31837503e-05
8.31888718e-05
8.31923602e-05
8.31976891e-05
8.31989603e-05
8.32039299e-05
8.32071472e-05
8.32121679e-05
8.32133532e-05
8.3218123e-05
8.32211215e-05
8.32258889e-05
8.3226984e-05
8.32314781e-05
8.3234356e-05
8.32393297e-05
8.32404809e-05
8.32445402e-05
8.32472987e-05
8.32545858e-05
8.32555143e-05
8.3257356e-05
8.32605206e-05
8.32713843e-05
8.3273942e-05
8.32741074e-05
8.32775552e-05
8.32818125e-05
8.32857125e-05
8.32890212e-05
8.32934342e-05
8.32972081e-05
8.33019351e-05
8.33060038e-05
8.33109794e-05
8.33153573e-05
8.33205041e-05
8.33251669e-05
8.33303799e-05
8.33352953e-05
8.33404329e-05
8.33455599e-05
8.33504462e-05
8.33557189e-05
8.33601637e-05
8.33650381e-05
8.33691906e-05
8.33736747e-05
8.33772111e-05
8.3381511e-05
8.33846537e-05
8.33881335e-05
8.33907475e-05
8.33933587e-05
8.3395344e-05
8.33971386e-05
8.33984864e-05
8.33995895e-05
8.3400385e-05
8.34009671e-05
8.34013568e-05
8.34016037e-05
8.34017514e-05
8.34018267e-05
8.34018478e-05
8.3401784e-05
8.34017238e-05
8.34016837e-05
8.34016565e-05
8.34016405e-05
8.34016315e-05
8.34016271e-05
8.34016251e-05
8.34016241e-05
8.34016238e-05
8.34016236e-05
8.34016236e-05
8.34016236e-05
8.34016236e-05
8.34016236e-05
8.34016236e-05
8.34016236e-05
8.34016236e-05
8.34016236e-05
8.34016236e-05
8.34016236e-05
8.34016236e-05
8.34016236e-05
8.34016236e-05
8.34016236e-05
8.34016236e-05
8.34016236e-05
8.34016236e-05
8.34016236e-05
8.34016236e-05
8.34016236e-05
8.34016236e-05
8.34016236e-05
8.34016236e-05
)
;

boundaryField
{
    closed
    {
        type            calculated;
        value           nonuniform List<scalar> 0();
    }
    open
    {
        type            calculated;
        value           uniform 8.34016236e-05;
    }
    sides
    {
        type            empty;
    }
    procBoundary5to4
    {
        type            processor;
        value           uniform 7.63505191e-05;
    }
}


// ************************************************************************* //
