/*--------------------------------*- C++ -*----------------------------------*\
| =========                 |                                                 |
| \\      /  F ield         | OpenFOAM: The Open Source CFD Toolbox           |
|  \\    /   O peration     | Version:  2306                                  |
|   \\  /    A nd           | Website:  www.openfoam.com                      |
|    \\/     M anipulation  |                                                 |
\*---------------------------------------------------------------------------*/
FoamFile
{
    version     2.0;
    format      ascii;
    arch        "LSB;label=32;scalar=64";
    class       volScalarField;
    location    "0.00186";
    object      prefDZ_H;
}
// * * * * * * * * * * * * * * * * * * * * * * * * * * * * * * * * * * * * * //

dimensions      [1 -1 -1 0 0 0 0];

internalField   nonuniform List<scalar> 
531
(
0.000110290244
0.000110196586
0.000110272433
0.000110195739
0.000107308974
0.000106150579
0.000106016892
0.000106290355
0.000110285303
0.000110274807
0.000106185778
0.000106248398
0.000110278907
0.000110250839
0.000106251086
0.000106293354
0.000110290555
0.000110203801
0.000106671586
0.000105338569
0.000106183714
0.000110181712
0.000110287502
0.000106217764
0.000106575605
0.000110244197
0.000110216202
0.000110265443
0.000106505847
0.000106692178
0.000110274911
0.000110248337
0.00011024185
0.000107226266
0.000104984683
0.000106514021
0.000110223701
0.000110266845
0.000110273861
0.000106723286
0.00010678527
0.00011030906
0.000110274299
0.00011026411
0.000107418899
0.000105834481
0.000106644783
0.000110271681
0.000110294615
0.000106881553
0.000106191159
0.000105707626
0.000106277659
0.000110323704
0.00011022909
0.000110304171
0.00010693723
0.000106240246
0.000110333971
0.000110266411
0.000106664054
0.0001067402
0.000110335592
0.000110272534
0.000106550541
0.00010742091
0.000110368027
0.000107700776
0.000106118108
0.000110377688
0.000110238185
0.000107008859
0.000106507963
0.000110389435
0.000110207666
0.000107248487
0.000105867875
0.000106593255
0.000110261311
0.00011026227
0.000110226261
0.000107165908
0.000106699609
0.000110424585
0.000110191793
0.000107432944
0.000105969932
0.000106495943
0.000105174088
0.000105694543
0.000110254623
0.000110325648
0.000110172854
0.000110336661
0.000110107675
0.000107240532
0.000105790581
0.000106242771
0.000110263707
0.000110298792
0.000106745397
0.000106682963
0.000110331102
0.000110251987
0.000106545127
0.000107167227
0.000110351249
0.000107390847
0.000106009331
0.000110370868
0.000110230526
0.000106586213
0.000106548691
0.000110345582
0.000110247558
0.00010643487
0.000106879651
0.000110332834
0.00011032614
0.000110208881
0.000107832434
0.000106048147
0.000106521808
0.000110372408
0.000110216506
0.000107439303
0.000106062946
0.000106440807
0.000110303334
0.000110317157
0.000107043112
0.000106833335
0.000110329823
0.000110279869
0.000107126676
0.000107029969
0.000110362683
0.000110254299
0.000107495692
0.000106761986
0.00010623519
0.000106471924
0.000110311059
0.000110188347
0.000106394233
0.000106712975
0.00011032769
0.000110221258
0.000110194219
0.000107276167
0.000106372981
0.000110334235
0.000110221223
0.000106798303
0.000106693412
0.000110299661
0.00011021833
0.000106651189
0.000107071798
0.000110293245
0.000110282465
0.000110146881
0.000107876206
0.000106389673
0.000106252174
0.000106410248
0.000110301493
0.00011021745
0.000106364506
0.00010624752
0.000110275097
0.000110198271
0.000106184533
0.00010636503
0.000110279096
0.000110299738
0.000110023826
0.000107435923
0.00010521991
0.00010570808
0.000110257925
0.000110231499
0.000106730816
0.000106487194
0.000110264804
0.000110235937
0.000110144045
0.000110223683
0.000107881405
0.000106854461
0.000106879912
0.000106447284
0.000105458851
0.000105765171
0.000110247843
0.000110221835
0.000110162306
0.000110226812
0.000107927966
0.000106287924
0.000105811598
0.000105991178
0.00011028332
0.000110191696
0.000110167741
0.000107315218
0.00010679395
0.000110306006
0.000110303361
0.000110050532
0.000107855251
0.000105989836
0.000106237602
0.000110294787
0.000110172546
0.000107863723
0.000105638389
0.000105917926
0.000110173825
0.000110280907
0.000106950864
0.000106658496
0.000110211118
0.000110328523
0.000110029756
0.000107846996
0.000105493508
0.000105764234
0.000110178524
0.000110217748
0.00011010729
0.000107368139
0.000106129663
0.0001103269
0.000109957695
0.000107858737
0.000110051107
0.000110335683
0.000107864242
0.000106799982
0.000105984133
0.00010609087
0.000110127964
0.000110273621
0.000110088615
0.00010783312
0.000105921063
0.000106280061
0.000104950697
0.000105107589
0.000110069245
0.000110211318
0.000110099618
0.000106984637
0.000105814818
0.000109249047
0.000110190083
0.000110062249
0.000110209431
0.000107789986
0.000106345941
0.000110149469
0.000110125631
0.000107953717
0.000105568054
0.000105724832
0.000109953909
0.000110254662
0.000107489546
0.000106716759
0.000109869213
0.000110284828
0.000110005462
0.000107871085
0.000106224557
0.000106398855
0.000105155758
0.000105218924
0.00010927246
0.000110234591
0.000110033187
0.000110323658
0.00011015573
0.000107781989
0.000105641417
0.000105740064
0.000109905033
0.000110234221
0.000107585872
0.000106872983
0.000109786373
0.000110263624
0.0001100637
0.000107827789
0.00010598198
0.000106428829
0.000105043127
0.000105122957
0.000109724243
0.000110214185
0.000110109497
0.000107079311
0.000105539425
0.000108913586
0.000110163854
0.000110127248
0.000110195684
0.000107646571
0.000106150622
0.000109276735
0.000110154352
0.000109953968
0.000110174559
0.000108627121
0.000106636702
0.000106154169
0.000105230626
0.000105288298
0.000109560888
0.000110228043
0.00010711998
0.000105728182
0.000109049202
0.000110215328
0.000110181658
0.000110256182
0.000107788113
0.000105898711
0.000105285398
0.000105314197
0.000109827388
0.000110271468
0.000110218299
0.000107438867
0.000106142777
0.000109750978
0.000110405496
0.000110228788
0.000107695474
0.000105222849
0.000105284614
0.000109930991
0.000110422441
0.000106903912
0.000105547412
0.000109583873
0.000110535053
0.000110414066
0.000110639261
0.000106785327
0.000104229296
0.00010341506
0.000103507702
0.000110094391
0.00011098543
0.00011072793
0.00011119993
0.000111208297
0.000111379346
0.000111305531
0.000106008417
0.000104639813
0.000110337671
0.000111160384
0.000111123308
0.000105457032
0.00010430485
0.000110016437
0.000110777644
0.000110653628
0.000110655308
0.000110690904
0.000110498329
0.000110493178
0.000110282371
0.0001067005
0.000109529153
0.00011036514
0.000110207026
0.000110593142
0.000110483994
0.000110759969
0.000110694578
0.000110945172
0.000110939358
0.000111219967
0.000111299955
0.000111706249
0.000111927552
0.000112905202
0.000113614276
0.00011294757
0.000112634838
0.000112098338
0.000111786235
0.000111390248
0.000111120984
0.000110855374
0.000110657288
0.000110519735
0.000110235481
0.000109995032
0.000109762335
0.000109804787
0.000109894501
0.000109631104
0.000109461928
0.000109299841
0.000109253773
0.000109184899
0.000109255043
0.000109275509
0.000108967675
0.000108399079
0.000108129351
0.000107548789
0.000107304518
0.000106695214
0.000106512945
0.000105964066
0.000115007784
0.000113275993
0.000112918023
0.000111708972
0.00011111508
0.000110048466
0.000109347962
0.000108281027
0.000107422926
0.000106341553
0.000105195238
0.000104800734
0.000104977932
0.000105142265
0.000105336638
0.000105499794
0.000105717116
0.000105870801
0.000106121146
0.000106170469
0.000106447216
0.000106649377
0.000106949595
0.000108572315
0.000115767155
0.000120643949
0.000127476952
0.000128880762
0.000142039104
0.000147105018
0.000155423185
0.000160040879
0.000167401796
0.000171206018
0.00017806751
0.000181957482
0.000189564365
0.000193669392
0.000201971005
0.000206023857
0.000214537451
0.00021842423
0.000226876382
0.000230477051
0.000238479452
0.000241640933
0.000249048347
0.000251853059
0.000258670114
0.000261107534
0.00026728229
0.000269395342
0.00027497203
0.000276764227
0.000281798624
0.000283331759
0.000287844399
0.000289264049
0.000293236895
0.000294623568
0.000298166017
0.00029946593
0.000302728154
0.00030395462
0.000306846863
0.000307855075
0.000310471213
0.000311438608
0.000313939114
0.000314681368
0.000317131109
0.000317163855
0.000319463121
0.000321614106
0.000323731748
0.000321854169
0.00032586028
0.000326940397
0.000330149004
0.000326296404
0.000329541589
0.000332245193
0.000334334804
0.000329597404
0.00033191142
0.000335184435
0.000335925364
0.000333503649
0.000334401246
0.000337470901
0.000338121798
0.000336131955
0.000336749239
0.000339495485
0.000339887097
0.000338063508
0.000338595061
0.000341052907
0.000341367058
0.000339537112
0.000340044178
0.00034207192
0.000342521191
0.000340740797
0.000341178381
0.000342997035
0.000343442472
0.000341744519
0.000342094984
0.000343893579
0.000344217927
)
;

boundaryField
{
    closed
    {
        type            calculated;
        value           nonuniform List<scalar> 0();
    }
    open
    {
        type            calculated;
        value           nonuniform List<scalar> 0();
    }
    sides
    {
        type            empty;
    }
    procBoundary4to3
    {
        type            processor;
        value           uniform 0.000110229259;
    }
    procBoundary4to5
    {
        type            processor;
        value           uniform 0.000342626664;
    }
}


// ************************************************************************* //
