/*--------------------------------*- C++ -*----------------------------------*\
| =========                 |                                                 |
| \\      /  F ield         | OpenFOAM: The Open Source CFD Toolbox           |
|  \\    /   O peration     | Version:  2306                                  |
|   \\  /    A nd           | Website:  www.openfoam.com                      |
|    \\/     M anipulation  |                                                 |
\*---------------------------------------------------------------------------*/
FoamFile
{
    version     2.0;
    format      ascii;
    arch        "LSB;label=32;scalar=64";
    class       volScalarField;
    location    "0.00186";
    object      PV;
}
// * * * * * * * * * * * * * * * * * * * * * * * * * * * * * * * * * * * * * //

dimensions      [0 0 0 0 0 0 0];

internalField   nonuniform List<scalar> 
531
(
-0.00688822945
-0.00689071829
-0.00688878622
-0.00689016965
-0.0071036115
-0.00713298214
-0.00713339033
-0.00712745901
-0.0068868089
-0.00688643811
-0.00712826909
-0.00712886209
-0.00688650765
-0.00688789924
-0.00712604303
-0.00712921818
-0.00688557617
-0.00689046198
-0.00711578633
-0.00715321928
-0.00712801823
-0.00689144625
-0.00688696733
-0.00713124607
-0.00712247877
-0.00688944502
-0.00689173788
-0.00688903341
-0.0071249822
-0.00712061495
-0.00688967969
-0.00689059902
-0.00689094028
-0.00710602974
-0.00716208433
-0.00712198197
-0.00689111518
-0.00689028987
-0.00688921655
-0.00711926408
-0.00711735136
-0.00688832283
-0.00688899701
-0.00688970014
-0.00709996606
-0.0071413384
-0.0071169346
-0.00688825362
-0.00688653322
-0.00711341286
-0.00712972294
-0.00714012218
-0.00712710927
-0.00688534476
-0.00688975529
-0.00688611597
-0.00711308179
-0.00712834383
-0.00688578962
-0.00688784607
-0.00711774023
-0.00711728962
-0.00688525557
-0.00688810679
-0.00712001379
-0.00710177973
-0.00688348789
-0.00709455259
-0.0071304309
-0.00688441914
-0.00688848415
-0.00710846338
-0.0071234633
-0.00688308042
-0.00689022556
-0.00710214855
-0.00713978041
-0.00711792809
-0.00688817338
-0.00688769499
-0.00688918481
-0.007105036
-0.00711933094
-0.00688122308
-0.00689022033
-0.00709584972
-0.00713747552
-0.00711838113
-0.00715467891
-0.00713654411
-0.00688810994
-0.0068852445
-0.00689166784
-0.00688505022
-0.00689405996
-0.00710101687
-0.00714305415
-0.00712365444
-0.00688836947
-0.00688588451
-0.00711753431
-0.0071165876
-0.00688522943
-0.00688831564
-0.00712057126
-0.00710693865
-0.0068836264
-0.00710207988
-0.00713250911
-0.00688467463
-0.00688837413
-0.00712056965
-0.00712049917
-0.00688536511
-0.00688850506
-0.00712420034
-0.00711209972
-0.00688573351
-0.00688653362
-0.00689003664
-0.00708905471
-0.00713433856
-0.00712016769
-0.00688356232
-0.00688993243
-0.00709642624
-0.00713575577
-0.00711910476
-0.00688713241
-0.00688511412
-0.00711198836
-0.00711218927
-0.00688587642
-0.00688695105
-0.00710908868
-0.00710874531
-0.00688434481
-0.00688794786
-0.00709979128
-0.00711682958
-0.00712982944
-0.00712233145
-0.0068860982
-0.00689066864
-0.00712623103
-0.00711853056
-0.00688582049
-0.0068913647
-0.00689064235
-0.0071081162
-0.00712651172
-0.006887004
-0.00689022125
-0.00711949436
-0.00711821038
-0.00688759098
-0.00689074177
-0.00712261012
-0.00710947878
-0.00688715902
-0.00688910744
-0.00689180615
-0.00706546596
-0.00712612419
-0.00713141935
-0.00712264644
-0.00688704075
-0.00688850324
-0.00712962329
-0.00712679393
-0.00688746099
-0.00688949818
-0.00713367181
-0.00712413064
-0.00688724759
-0.00688640685
-0.00689630661
-0.00709807693
-0.00715716109
-0.00713762512
-0.00688821051
-0.00688802973
-0.00712178817
-0.00712217388
-0.00688761685
-0.00688878103
-0.00689193265
-0.00688869876
-0.00704323047
-0.00711355448
-0.00711424814
-0.00712203549
-0.00714837757
-0.00713728107
-0.00688722268
-0.00688839311
-0.00689073531
-0.00688836114
-0.00708948793
-0.00712814782
-0.00713946274
-0.00713435319
-0.00688643955
-0.00689078829
-0.00689095214
-0.00710684402
-0.00711628523
-0.00688675035
-0.00688708445
-0.00689559184
-0.00708114727
-0.00713957615
-0.00712810808
-0.00688618361
-0.00689130123
-0.00708880726
-0.00714807731
-0.00713377531
-0.00689127354
-0.00688668797
-0.00711826905
-0.00711753048
-0.00688994972
-0.00688600066
-0.00689664248
-0.00708431352
-0.00715172995
-0.00713859371
-0.00689124103
-0.0068898899
-0.00689388304
-0.00710433082
-0.00713717301
-0.00688509479
-0.00689919936
-0.0070830592
-0.00689544803
-0.00688432527
-0.00709589458
-0.00711441315
-0.00713890468
-0.00713059187
-0.00689073247
-0.00688561001
-0.00689215713
-0.0070756123
-0.00713767742
-0.00712384691
-0.00716060969
-0.00715232194
-0.00689189161
-0.00688857094
-0.00689197224
-0.00711242016
-0.00713946369
-0.00692209353
-0.00689060802
-0.00689481523
-0.00689008011
-0.00709664832
-0.00712889949
-0.00689055549
-0.00689318244
-0.00708645289
-0.00715223495
-0.00713968216
-0.00689842304
-0.00688728148
-0.00710841758
-0.00711645131
-0.00690068765
-0.00688690526
-0.00689661991
-0.00702504583
-0.0071315561
-0.00712289816
-0.00715707291
-0.00715068959
-0.0069219195
-0.00688883998
-0.00689642798
-0.00688605985
-0.00689258199
-0.00707451299
-0.00714983922
-0.00713853793
-0.00690037944
-0.00688847026
-0.00710608201
-0.00711447385
-0.00690367707
-0.00688796539
-0.00689469561
-0.00706128192
-0.00713780001
-0.00712331662
-0.00716067568
-0.00715449828
-0.006904987
-0.00689032987
-0.00689320547
-0.00710982348
-0.00714723814
-0.00693741897
-0.00689303051
-0.00689443256
-0.00689213158
-0.00709901019
-0.00713470914
-0.00692308042
-0.00689393046
-0.00689968681
-0.0068927112
-0.00695455708
-0.00712096253
-0.00713132269
-0.00715631195
-0.00714951401
-0.00691110428
-0.00688822135
-0.00711096945
-0.00713991708
-0.00692989366
-0.00688953905
-0.00689028179
-0.00688788845
-0.00708177945
-0.00713599102
-0.00715068727
-0.00714900038
-0.00690045636
-0.00688774107
-0.00688817739
-0.00710004295
-0.00712740381
-0.00690408134
-0.00688201343
-0.0068890264
-0.00708278741
-0.00715305896
-0.00714358582
-0.00689824025
-0.00688041619
-0.00711038555
-0.00713535854
-0.00690784721
-0.00687745842
-0.00688165551
-0.00687355814
-0.00709382269
-0.00715863009
-0.00717908408
-0.00717284425
-0.00688960086
-0.00686375189
-0.0068714529
-0.0068574183
-0.00685644635
-0.00685030782
-0.00684891886
-0.00708851353
-0.00711899009
-0.00686737648
-0.0068409387
-0.00684408802
-0.00707751388
-0.00710959326
-0.00685848384
-0.00683317778
-0.00683662007
-0.00682702355
-0.00682389236
-0.00682043392
-0.00681742472
-0.00681582329
-0.00693043129
-0.00681974618
-0.0067927241
-0.00679038281
-0.00677074809
-0.00676637816
-0.00674878922
-0.00674265945
-0.006724842
-0.00671638815
-0.00669682197
-0.00668502491
-0.00666171995
-0.00664470718
-0.0066047183
-0.00657410911
-0.00655030051
-0.00653578667
-0.0065116243
-0.00649306767
-0.00646913492
-0.00644782876
-0.0064232339
-0.00639920341
-0.00637386058
-0.00634618234
-0.00631772834
-0.00627526216
-0.00623157365
-0.00616166425
-0.00611123867
-0.00606966574
-0.00601829657
-0.00597297535
-0.00592185993
-0.00587584597
-0.00582198905
-0.00578773447
-0.00574372234
-0.00570774807
-0.00566052467
-0.00561891453
-0.00556478921
-0.00552146356
-0.0054521507
-0.00516942686
-0.00510355033
-0.00505168241
-0.00498869468
-0.00492544213
-0.00485865183
-0.0047873313
-0.0047143847
-0.00462930626
-0.00455553065
-0.00445328362
-0.00436466489
-0.00420337239
-0.00407628456
-0.00390209646
-0.00376212667
-0.00356562864
-0.00340966096
-0.0031804145
-0.00292470232
-0.00269054995
-0.00252844175
-0.00229495475
-0.0020967936
-0.00183875791
-0.00152419557
-0.00131707585
-0.00106333619
-0.00092868603
-0.000773528098
-0.000486610337
-0.000337692448
-6.93944638e-05
7.44926852e-05
0.000339126964
0.000486291538
0.000755321072
0.000901694852
0.00117190201
0.00131430138
0.0015848012
0.0017206307
0.00198905611
0.00211739784
0.00238335528
0.00250503726
0.00276741413
0.0028823698
0.00313887037
0.00324797544
0.00349722407
0.00360042192
0.00383871732
0.00393819885
0.00416527601
0.00426085789
0.00447502886
0.00456411652
0.00476547676
0.00484466922
0.00502734257
0.00510417265
0.00526751212
0.00533436591
0.00547001499
0.0055438287
0.00567824553
0.00571804995
0.00582582547
0.00591096617
0.00602752062
0.0059961546
0.0060443317
0.00621475179
0.00631610994
0.00615015645
0.00615289255
0.00646412302
0.00661255703
0.00628751359
0.00630658953
0.0067058371
0.0067971263
0.00651803843
0.00650152426
0.00684800988
0.00686607344
0.0066644567
0.00661800361
0.00688235194
0.00690792135
0.00674552919
0.00671584799
0.00690310335
0.00694100877
0.00679740987
0.00677572775
0.0069190192
0.00696107531
0.00683387755
0.006817354
0.0069340115
0.00697484384
0.00686174813
0.0068472808
0.00694837429
0.00698516228
0.00688317013
0.00687013443
0.006963936
0.00699356905
)
;

boundaryField
{
    closed
    {
        type            zeroGradient;
    }
    open
    {
        type            zeroGradient;
    }
    sides
    {
        type            empty;
    }
    procBoundary4to3
    {
        type            processor;
        value           uniform -0.00688934101;
    }
    procBoundary4to5
    {
        type            processor;
        value           uniform 0.00690260662;
    }
}


// ************************************************************************* //
