/*--------------------------------*- C++ -*----------------------------------*\
| =========                 |                                                 |
| \\      /  F ield         | OpenFOAM: The Open Source CFD Toolbox           |
|  \\    /   O peration     | Version:  2306                                  |
|   \\  /    A nd           | Website:  www.openfoam.com                      |
|    \\/     M anipulation  |                                                 |
\*---------------------------------------------------------------------------*/
FoamFile
{
    version     2.0;
    format      ascii;
    arch        "LSB;label=32;scalar=64";
    class       volScalarField;
    location    "0.00176";
    object      prefDZ_H;
}
// * * * * * * * * * * * * * * * * * * * * * * * * * * * * * * * * * * * * * //

dimensions      [1 -1 -1 0 0 0 0];

internalField   nonuniform List<scalar> 
531
(
0.000106815736
0.000106896161
0.000108233344
0.000110071955
0.000108708395
0.00010726224
0.000106407337
0.000106747039
0.000107980477
0.000110230258
0.000109704831
0.000107093087
0.00010687235
0.000108142162
0.00011012358
0.000109247253
0.000106768916
0.000106851302
0.000108149761
0.000110153152
0.000109414661
0.000106794258
0.000106835273
0.000108155781
0.000110158781
0.000109335473
0.000106715937
0.000106769443
0.000108124795
0.000110197016
0.000109559614
0.000106876334
0.000106887316
0.00010836387
0.000110093582
0.000108350702
0.000106852478
0.000107205045
0.000108529555
0.000110194488
0.000110340138
0.000110003654
0.000107735959
0.000106156309
0.000106227572
0.000106375893
0.000108284436
0.000110112207
0.000107786582
0.00010765158
0.000108939686
0.00011019237
0.000108021534
0.000106637789
0.000106679036
0.000108640118
0.000110190004
0.00010780305
0.000107673851
0.000108829826
0.000110238717
0.000108404322
0.000106973522
0.000106842551
0.000108700695
0.000110221014
0.000107841937
0.000107863301
0.000109157871
0.000110286956
0.000108238734
0.000107432518
0.000107232998
0.000106685687
0.000106700936
0.000109089986
0.000110259991
0.00010906094
0.000107607095
0.000106731484
0.000107739129
0.000109848339
0.000110461885
0.000107863865
0.000107789382
0.000108199786
0.000110195946
0.000109823811
0.000107784724
0.000106915046
0.000106494494
0.000106478349
0.000108621782
0.000110110084
0.000108777279
0.000107594323
0.000107036038
0.000108592635
0.000110107831
0.00010824501
0.00010696247
0.000106585396
0.000108461405
0.00011002197
0.000110185116
0.000109494965
0.00010779351
0.000106097813
0.000106025214
0.000108442657
0.000110104381
0.000108188206
0.000107017106
0.000106671388
0.000108638344
0.000110154852
0.000108242623
0.000107148801
0.000106756413
0.000108568013
0.000110247681
0.000107906132
0.000107882871
0.000108649792
0.000110223336
0.00010807341
0.000106815321
0.000106604923
0.000108941487
0.000110201165
0.000108067339
0.000106697211
0.000106547903
0.000109047685
0.000110176698
0.00010797406
0.000106490505
0.000106409894
0.000108970706
0.000110207265
0.000107787667
0.000107115556
0.000108640438
0.000110121422
0.000107843572
0.000106277081
0.000106511587
0.00010937539
0.00011014543
0.000107863663
0.00010762805
0.000109243017
0.000110098063
0.00010780509
0.0001062739
0.000106778569
0.000109959516
0.000110112579
0.000107929636
0.000107853581
0.000109632789
0.000110090523
0.000107811331
0.000106417412
0.000107141088
0.000110185978
0.000110121431
0.00010795829
0.0001078181
0.000110044508
0.000110149206
0.000107827488
0.000106950088
0.000106918385
0.000106252881
0.000107011497
0.000110198564
0.000110124693
0.000107991977
0.00010767921
0.000110042937
0.000110127822
0.000107815015
0.000106236486
0.000107164377
0.000110288843
0.000110213217
0.000107982442
0.000107643404
0.0001102008
0.000110188197
0.00010782567
0.000106175891
0.00010701206
0.000110303939
0.00011026662
0.000107962424
0.000107463467
0.000110251186
0.00011023333
0.000107817567
0.000106151671
0.000106862618
0.000110274426
0.000110305617
0.000107923721
0.000107483622
0.000110263802
0.000110275155
0.000107809548
0.000106310085
0.000107040851
0.000110308685
0.000110280637
0.000107781971
0.000106652496
0.000107546337
0.000110294968
0.000110362318
0.000107825452
0.000106939994
0.000106540081
0.000106853397
0.000110264049
0.000110267794
0.000107785403
0.00010642713
0.000107003878
0.000110237039
0.000110302221
0.000107794475
0.000106612376
0.000107099565
0.000110233065
0.000110307977
0.000107796792
0.000106604609
0.000106974729
0.000110214247
0.000110295829
0.000107778887
0.000106508633
0.000106781815
0.000110112476
0.000110390907
0.000107832371
0.000107676801
0.00010999262
0.000110332727
0.000107792649
0.000106542676
0.00010679588
0.000110113738
0.000110295164
0.00010782706
0.000106606702
0.000106887017
0.000110126608
0.0001103033
0.000107805239
0.000106514758
0.000106916256
0.000109878465
0.000110341702
0.000109224413
0.000107330003
0.000106443887
0.000106039948
0.000106042295
0.000109761931
0.00011034521
0.000107880823
0.000107355527
0.000109618555
0.000110372484
0.000107902568
0.000107499313
0.00010965795
0.000110288663
0.000107836358
0.000106422649
0.000106399239
0.000109782308
0.000110268411
0.000107842142
0.000106359501
0.000106319607
0.000109576784
0.0001103762
0.000107870385
0.000107452873
0.000109513664
0.000110402503
0.000107888022
0.000107470122
0.000109538371
0.000110304332
0.000107850538
0.000106477473
0.000106438629
0.00010955004
0.000110264613
0.000107917015
0.000106533083
0.000106467778
0.000109504564
0.000110267837
0.00010790988
0.000106474918
0.000106404783
0.000109454882
0.000110251034
0.000107887292
0.000106378769
0.000106302341
0.000109254113
0.000110327387
0.000107879967
0.000107404606
0.000109381222
0.000110311966
0.000107771735
0.000106143815
0.000107676707
0.000110012744
0.000107791508
0.000107104714
0.000109247291
0.000110225398
0.000107823935
0.000106084562
0.000106048032
0.000109018926
0.000110336516
0.000107883512
0.000107411658
0.000109123015
0.000110403613
0.000107883158
0.000107634998
0.000109189196
0.00011035178
0.000107885525
0.000107359151
0.000106663738
0.000106671658
0.000109210175
0.00011023596
0.000107856541
0.0001064119
0.000107691566
0.000110015085
0.000107830318
0.000107172289
0.000108820988
0.000110298426
0.000107833306
0.000107305145
0.000108882363
0.000110233722
0.000107836855
0.000106137992
0.000106060412
0.0001087355
0.000110310191
0.000107845353
0.000107266962
0.000108742546
0.000110358933
0.000107826452
0.000107392617
0.000108876554
0.000110256516
0.000107856356
0.000106481474
0.000106453138
0.000108891926
0.000110336307
0.000107908063
0.000107807593
0.00010900358
0.000110367097
0.00010790004
0.000107499562
0.000106805059
0.000106812865
0.000109448554
0.000110244309
0.000107979131
0.000106931702
0.000106904348
0.000109335515
0.000110276965
0.000107970818
0.000106822061
0.000106824652
0.000109435037
0.00011025569
0.00010795952
0.000106839065
0.000106812935
0.000109242592
0.000110352748
0.000107891542
0.000107165997
0.000106482191
0.000106499192
0.000109054751
0.000110300516
0.000110177164
0.000107918481
0.000106403224
0.000107451852
0.000110086114
0.000107884553
0.000107438003
0.000109019743
0.000110258622
0.000107836407
0.00010640752
0.000106500551
0.000109709982
0.000110250685
0.000107923249
0.000106348571
0.000107594009
0.000110138902
0.000107832366
0.000107094083
0.000109089841
0.000110367131
0.000107837718
0.000107239572
0.000109231336
0.000110398328
0.000107888388
0.000107554007
0.0001096839
0.000110289901
0.000107833391
0.000106511408
0.000106714669
0.000110161455
0.000110260798
0.000107861057
0.00010669573
0.000106898952
0.000110246165
0.000110268652
0.000107840065
0.000106632847
0.000106853093
0.000110278451
0.000110270386
0.000107814825
0.000106427535
0.000106669319
0.000110306759
0.000110267412
0.000107805537
0.000106330277
0.000106574724
0.000110342045
0.000110266854
0.000107783617
0.000106181224
0.000106412293
0.000110303271
0.000110398214
0.000107908054
0.000107485897
0.000110400214
0.000110337593
0.000107809965
0.000106347865
0.000106917965
0.000110303136
0.000110368361
0.000110267999
0.000107763932
0.000107029518
0.000106674334
0.000106712938
0.000110369488
0.00011027711
0.000107774851
0.000106070344
0.000106334768
0.000110284965
0.00011040235
0.000107884237
0.000107258672
0.000110318923
0.000110319599
0.000107807734
0.000106177801
0.000106414549
0.000110263324
0.000110409738
0.000107876403
0.000107300682
0.000110248942
0.000110423138
0.000107865117
0.000107606544
0.000110260712
0.000110331243
0.000107779041
0.000106530674
0.00010713903
0.000110312547
0.000110338644
0.000107757795
0.000106480232
0.000107244418
0.000110333012
0.000110349043
0.000107746845
0.000106465695
0.000107316778
0.000110341006
0.000110358663
0.000107743102
0.000106464389
0.00010739855
0.000110348917
0.000110364913
0.000107741135
0.000106475921
0.00010747458
0.000110356322
)
;

boundaryField
{
    closed
    {
        type            calculated;
        value           nonuniform List<scalar> 0();
    }
    open
    {
        type            calculated;
        value           nonuniform List<scalar> 0();
    }
    sides
    {
        type            empty;
    }
    procBoundary1to0
    {
        type            processor;
        value           uniform 0.00010869306;
    }
    procBoundary1to2
    {
        type            processor;
        value           uniform 0.000110369504;
    }
}


// ************************************************************************* //
