/*--------------------------------*- C++ -*----------------------------------*\
| =========                 |                                                 |
| \\      /  F ield         | OpenFOAM: The Open Source CFD Toolbox           |
|  \\    /   O peration     | Version:  2306                                  |
|   \\  /    A nd           | Website:  www.openfoam.com                      |
|    \\/     M anipulation  |                                                 |
\*---------------------------------------------------------------------------*/
FoamFile
{
    version     2.0;
    format      ascii;
    arch        "LSB;label=32;scalar=64";
    class       volScalarField;
    location    "0.00066";
    object      h;
}
// * * * * * * * * * * * * * * * * * * * * * * * * * * * * * * * * * * * * * //

dimensions      [0 2 -2 0 0 0 0];

internalField   nonuniform List<scalar> 
530
(
-5344.34802
-4539.47085
9583.99031
9799.62271
-4977.29811
-2777.48517
9555.23497
-698.668504
-5176.03204
9415.5855
10135.6535
-3617.1342
-4798.4418
9234.30358
10259.6546
-3570.85435
-3952.89247
9321.50344
10579.0515
3736.08324
-2422.0313
-4804.27188
-4465.96119
9727.22782
10206.6332
-3548.42847
-5358.38093
9109.26685
10105.2583
-3993.18119
-4848.15978
9346.88108
10122.8969
2180.92786
-5989.14124
-4992.73049
8666.99744
10555.945
9656.36715
-607.212264
-6649.44698
-6644.03208
9709.64535
9889.95628
1119.92582
-6372.35916
-6341.61675
9449.36966
10003.7659
-3652.28604
-5128.06393
9138.32072
10188.0491
-3475.36691
-4300.18254
9370.24447
10256.6915
2632.48188
-5012.13529
-4990.01879
9483.15659
10182.4361
2799.75007
-5014.66582
-5035.2386
9507.38741
10150.0631
2334.62471
-5314.07081
-5313.07155
9457.57129
10051.4187
1880.36521
-5883.4328
-5869.69013
9226.5613
10018.8879
-3633.97408
-5183.53378
9034.70382
10115.48
-3772.53169
-4848.73261
9057.31611
10199.699
-3600.58136
-4277.04705
9124.99838
10397.4583
3636.17358
-3391.12176
-4581.87852
607.094393
9908.72707
10668.9891
4804.55582
-2800.01533
-3398.69208
-5318.39197
-5303.82099
9041.68695
10251.1776
6344.07351
-4724.38668
-5067.29818
8905.07572
10129.0572
-3606.86015
-4836.508
8971.23139
10168.7795
-3617.21588
-4428.19145
8899.68132
10248.0694
4693.51239
-5217.78653
-5204.93483
8748.97723
10505.1383
7185.86212
-2164.46489
-6663.71887
-6662.44307
9309.94683
9954.5386
-3712.44384
-5106.78941
9022.71295
10101.9069
2026.34803
-5446.6963
-5452.5773
9272.75198
10091.401
-3336.90286
-4693.08042
9117.93047
10125.4005
2025.81409
-5689.61683
-5716.67494
9094.57939
9986.1578
-3715.3407
-5358.95023
8793.64723
10045.2589
-3719.86157
-4956.1305
8866.3045
10114.4667
-3422.13151
-4495.76949
8938.15242
10206.3297
-3489.6752
-4115.93944
8582.09249
10497.7774
5978.62647
-2439.45465
-3959.23457
576.383846
2946.11116
-2741.38309
-3352.47594
9052.28975
10186.7264
-3321.29368
-4860.04091
8722.14638
10024.1038
-3520.00055
-4664.77866
8810.81286
10013.5669
-3210.27917
-4238.38222
9006.83776
10196.5516
-1112.96413
-4131.519
2356.97922
10148.9346
10435.4746
2917.25406
-2574.28262
-2420.55368
-1132.01439
-1005.66013
-2985.79947
-2858.81403
9781.35146
10206.3055
-2214.96661
-3352.9971
9079.63146
10280.9772
2048.0786
-5260.38483
-5194.92087
9253.48352
9874.89277
-3285.5138
-4555.81749
8834.20378
10103.3222
1502.56735
-5677.82498
-5438.34554
9131.49186
9787.53988
-3789.8593
-5112.16053
8610.66222
9764.14515
-3542.50031
-4589.33059
8788.30702
9728.60911
-3129.47942
-3760.62545
9052.62255
10258.7818
1910.87174
-4960.52805
-4107.91279
9425.01282
10135.7593
1166.97234
-5714.17913
-5014.50012
9166.96201
9645.13147
-3636.78255
-4580.62449
8740.66533
10215.4259
3611.3702
-4932.76496
-4950.21899
8630.35624
10434.801
7752.70322
-2171.91002
-6936.06996
-5512.1737
9027.39463
9246.92382
-4062.9728
-4352.15266
9186.33305
10129.8063
1011.66975
-5518.95397
-4441.34548
9245.06077
9440.2197
-3484.52177
-3807.9607
9250.15026
10207.9202
1641.51973
-5193.47629
-3924.56679
9150.10876
10326.2632
4336.04617
-4474.70123
-4487.17494
6608.87821
10418.7079
8553.64058
-1212.65703
-4539.8108
-5676.66629
-5189.05376
9177.43781
9580.68754
-3108.91009
-3565.68833
9239.203
9642.43553
-3004.68664
-3366.24964
9153.36728
10227.5551
2743.06133
-5276.59872
-5300.1416
9036.21473
9681.29709
-1675.2259
-4848.41611
2281.45221
9861.78694
8466.7596
-4235.16579
-6139.73912
5241.75118
9383.91846
-2203.18659
-5120.96673
7426.98522
9457.28636
-3110.26333
-4392.51367
8658.21243
9541.93331
-3457.43831
-4283.57894
8860.99417
9461.25948
-3213.78425
-3674.0647
9062.85188
10031.7958
733.690777
-4073.52189
-781.007591
9753.39033
10146.0463
1081.81404
-4697.47538
-5476.80199
2738.68278
9417.26914
2696.15821
-5193.38716
-2642.86804
9282.70152
9723.99198
-2299.38097
-5470.05647
4882.33224
9054.27536
-2261.5155
-4482.53428
8061.58777
9197.01721
-3184.58511
-4056.20914
8571.8533
9146.39042
-3174.82567
-3566.95557
8834.24587
9840.51846
558.895963
-4521.66453
-1620.17454
9316.80765
9904.3141
314.311098
-5306.82937
-1616.18452
8969.16819
7149.69478
-4247.52034
-3733.24698
8861.95785
9770.70282
609.212879
-5249.72271
-2690.67469
8788.60532
8439.05347
-3797.79698
-3974.09175
8507.23692
9645.58258
987.377498
-4972.57174
-2748.82419
8763.23165
8826.33312
-2733.44784
-3407.82435
7778.38527
10020.0359
4723.62555
-2695.3255
-5087.02215
-3562.39919
8412.20747
9577.3989
425.799089
-5111.75314
-666.824103
8634.70847
5103.49835
-3968.9437
-1567.59977
8738.04406
7994.71724
-3203.68878
-3456.72527
7923.20206
9745.43798
2459.4723
-4501.28507
-3548.20767
8113.46965
9567.8559
2060.36186
-4811.38386
-3731.32756
8033.4723
9486.46504
1925.07929
-4582.53268
-3055.03182
8188.50862
9482.87239
1519.56421
-4692.37547
-2877.12483
8184.40302
9395.31968
480.166625
-4934.04028
-1225.99129
8388.20255
6355.39163
-3340.57599
-2474.2402
8228.23208
9359.61183
459.994078
-4880.86024
-1036.9366
8363.10001
6121.99015
-3323.19057
-2341.17202
8176.96433
9310.43561
334.118764
-4775.24125
-683.934497
8392.99583
5791.14854
-3291.96838
-1997.74629
8254.20407
9091.54505
287.168269
-4790.85722
-545.298421
8381.35025
5520.39984
-3372.9964
-1756.71779
8288.12471
9020.99466
-119.567526
-4957.94068
-210.596624
8437.60714
5166.84066
-3486.01844
-1477.37662
8339.43521
9049.40433
-580.0409
-5240.80799
42.1097721
8365.3457
3728.99189
-3803.78387
1112.53003
8543.31196
3223.8164
-3523.27244
1805.0755
8965.03359
4415.42326
-3522.9597
-895.822068
8612.33158
9153.44
-951.481939
-4946.70623
945.025552
8735.38202
4038.12402
-3964.68091
-965.468866
8623.34654
9077.15985
-1613.02792
-5078.15517
1773.2574
8904.18252
3313.44963
-4156.72771
-400.222574
8802.90353
8908.40974
-2065.0111
-5318.38861
2903.03603
8658.8796
-35.9236979
-4315.68562
4981.43845
8800.83836
-603.981117
-3934.97306
5476.78505
9468.26172
1670.63015
-4488.06241
59.6900688
9126.59413
9014.01959
-2193.41981
-4809.85998
3154.60334
9276.71986
2569.37807
-4506.84823
-106.162645
9148.86094
9333.06395
-1636.55354
-5378.57737
-238.071721
9086.9995
)
;

boundaryField
{
    closed
    {
        type            lookUpEnthalpy;
        h0              nonuniform List<scalar> 0();
        value           nonuniform List<scalar> 0();
    }
    open
    {
        type            zeroGradient;
    }
    sides
    {
        type            empty;
    }
    procBoundary2to1
    {
        type            processor;
        value           uniform 1188.37667;
    }
    procBoundary2to3
    {
        type            processor;
        value           uniform 8856.6978;
    }
}


// ************************************************************************* //
