/*--------------------------------*- C++ -*----------------------------------*\
| =========                 |                                                 |
| \\      /  F ield         | OpenFOAM: The Open Source CFD Toolbox           |
|  \\    /   O peration     | Version:  2306                                  |
|   \\  /    A nd           | Website:  www.openfoam.com                      |
|    \\/     M anipulation  |                                                 |
\*---------------------------------------------------------------------------*/
FoamFile
{
    version     2.0;
    format      ascii;
    arch        "LSB;label=32;scalar=64";
    class       surfaceScalarField;
    location    "0.0004";
    object      phi;
}
// * * * * * * * * * * * * * * * * * * * * * * * * * * * * * * * * * * * * * //

dimensions      [1 0 -1 0 0 0 0];

oriented        oriented;

internalField   nonuniform List<scalar> 
529
(
4.84519996e-06
4.81761158e-06
4.76353259e-06
4.51411212e-06
4.41873046e-06
4.33986226e-06
4.34673805e-06
4.32671309e-06
4.02569461e-06
3.92832462e-06
3.84980229e-06
3.78047282e-06
3.66808374e-06
3.5490571e-06
3.45913928e-06
3.32020317e-06
3.23172312e-06
3.13037176e-06
3.05628413e-06
2.92315456e-06
2.86708904e-06
2.77063865e-06
2.69068707e-06
2.57999606e-06
2.47938218e-06
2.35229993e-06
2.20086958e-06
2.10660305e-06
1.98875018e-06
1.91570821e-06
1.80366215e-06
1.70337983e-06
1.63397164e-06
1.54368245e-06
1.37186712e-06
1.26021223e-06
1.36862124e-06
1.30845143e-06
1.24653191e-06
1.1435789e-06
1.11615505e-06
1.07852039e-06
9.16731049e-07
8.10973761e-07
9.10952401e-07
8.64212874e-07
7.99362013e-07
7.17893099e-07
6.37856607e-07
6.72238617e-07
6.58227081e-07
4.96584907e-07
4.1554247e-07
5.41523051e-07
5.15321605e-07
4.84967599e-07
4.33750819e-07
4.41331385e-07
4.67859035e-07
7.97116448e-07
6.94547603e-07
5.45394084e-07
6.17416255e-07
6.31010263e-07
4.80991135e-07
4.25727684e-07
5.87559619e-07
5.83532389e-07
5.7217634e-07
5.41964436e-07
5.7275488e-07
6.14776055e-07
9.74123187e-07
8.94804933e-07
7.8190651e-07
8.64635405e-07
8.61746754e-07
8.75620791e-07
8.65364458e-07
8.70646771e-07
9.12961444e-07
1.18483885e-06
1.13328059e-06
1.05616742e-06
1.13362015e-06
1.15200926e-06
1.18125865e-06
1.18116855e-06
1.16766785e-06
1.21214529e-06
1.55334252e-06
1.56703206e-06
1.49267751e-06
1.45423154e-06
1.46730611e-06
1.53816739e-06
1.53099029e-06
1.54998088e-06
1.60893241e-06
1.64113638e-06
1.67202783e-06
1.67794728e-06
1.67274528e-06
1.71363719e-06
1.95383995e-06
1.96675963e-06
1.89562579e-06
1.82760443e-06
1.8297054e-06
1.93165767e-06
1.88157889e-06
1.83900727e-06
1.9517487e-06
1.96936554e-06
1.99443315e-06
2.01212731e-06
2.02373416e-06
2.08457303e-06
2.15419383e-06
2.1895241e-06
2.19669365e-06
2.18152095e-06
2.23995343e-06
2.36527437e-06
2.51482324e-06
2.50133305e-06
2.42640407e-06
2.44967707e-06
2.61053841e-06
2.61267232e-06
2.46689049e-06
2.53473426e-06
2.71170648e-06
2.75016754e-06
2.78560806e-06
2.79749045e-06
2.86586116e-06
2.92766239e-06
2.96395523e-06
2.99994739e-06
3.05731607e-06
3.12170803e-06
3.17808311e-06
3.23534551e-06
3.30061487e-06
3.3698896e-06
3.44009931e-06
3.51071564e-06
3.58298141e-06
3.65679597e-06
3.73101264e-06
3.80515214e-06
3.87947893e-06
3.95417921e-06
4.0292094e-06
4.10458426e-06
4.18040358e-06
4.25669409e-06
4.33338695e-06
4.41040023e-06
4.48768493e-06
4.56522235e-06
4.64302817e-06
4.72114346e-06
4.79962101e-06
4.87850794e-06
4.95783412e-06
5.03761105e-06
5.11783926e-06
5.19852033e-06
5.2796686e-06
5.36131977e-06
5.44352934e-06
5.5263614e-06
5.609883e-06
5.69413397e-06
5.77910382e-06
5.86468276e-06
5.95063473e-06
6.03664452e-06
6.1223761e-06
6.20727702e-06
6.29038147e-06
6.37103208e-06
6.44963137e-06
6.52542124e-06
6.59776352e-06
6.66466307e-06
6.72662361e-06
6.78904835e-06
6.85069836e-06
6.89815383e-06
6.93010772e-06
6.97728142e-06
7.04757819e-06
7.07735972e-06
7.09301603e-06
7.06366747e-06
7.12602154e-06
7.20168809e-06
7.12381988e-06
7.02998263e-06
7.13675828e-06
7.43260057e-06
7.42800172e-06
7.04579014e-06
7.01197773e-06
6.99753557e-06
6.98284517e-06
6.96476135e-06
6.57074701e-06
6.50265795e-06
6.61598363e-06
6.61787873e-06
6.58419995e-06
6.52400221e-06
6.57711733e-06
6.8901361e-06
6.80036477e-06
6.40138692e-06
6.33721171e-06
6.45789642e-06
6.48771464e-06
6.12851435e-06
6.14837329e-06
6.16423926e-06
6.17642794e-06
6.17659158e-06
5.85653167e-06
5.83042859e-06
6.02961538e-06
6.05316778e-06
6.01781568e-06
5.76123461e-06
5.71100263e-06
5.78206033e-06
5.75771967e-06
5.34034654e-06
5.34692659e-06
5.65165194e-06
5.60627555e-06
5.42541798e-06
5.32168938e-06
5.34064036e-06
5.39821074e-06
5.40784398e-06
5.413337e-06
5.45501149e-06
5.52126501e-06
5.5890737e-06
5.64627397e-06
5.70170183e-06
5.76157582e-06
5.81409144e-06
5.85116035e-06
5.87671845e-06
5.89589348e-06
5.90922326e-06
5.91664913e-06
5.92009558e-06
5.92099159e-06
5.92021098e-06
5.91772244e-06
5.91350047e-06
5.90780056e-06
5.90088556e-06
5.89296464e-06
5.88433759e-06
5.87542423e-06
5.86667942e-06
5.85853732e-06
5.85139878e-06
5.84560942e-06
5.84144944e-06
5.83912976e-06
5.8388017e-06
5.84057356e-06
5.8445272e-06
5.85073183e-06
5.8592537e-06
5.8701598e-06
5.88351533e-06
5.89937594e-06
5.91777694e-06
5.93872169e-06
5.96217169e-06
5.98804009e-06
6.01618971e-06
6.04643572e-06
6.07855226e-06
6.11228164e-06
6.14734452e-06
6.18344957e-06
6.2203014e-06
6.25760597e-06
6.29507331e-06
6.33241788e-06
6.36935726e-06
6.40561015e-06
6.44089453e-06
6.47492707e-06
6.5074244e-06
6.53810658e-06
6.56670282e-06
6.59295921e-06
6.61664775e-06
6.63757602e-06
6.65559647e-06
6.67061463e-06
6.6825953e-06
6.69156629e-06
6.69761923e-06
6.70090733e-06
6.70164022e-06
6.70007609e-06
6.69651156e-06
6.69126984e-06
6.68468775e-06
6.6771022e-06
6.66883679e-06
6.66018912e-06
6.65141936e-06
6.6427406e-06
6.63431148e-06
6.62623142e-06
6.61853881e-06
6.6112122e-06
6.60417455e-06
6.59730034e-06
6.59042505e-06
6.5833565e-06
6.5758873e-06
6.56780755e-06
6.55891694e-06
6.54903557e-06
6.53801267e-06
6.5257331e-06
6.51212112e-06
6.49714189e-06
6.4808008e-06
6.463141e-06
6.44423996e-06
6.42420508e-06
6.40316901e-06
6.38128468e-06
6.35872002e-06
6.33565239e-06
6.31226244e-06
6.28872749e-06
6.26521455e-06
6.24187333e-06
6.21882996e-06
6.19618219e-06
6.17399677e-06
6.15230978e-06
6.13112994e-06
6.11044468e-06
6.09022817e-06
6.0704499e-06
6.0510824e-06
6.03210661e-06
6.01351375e-06
5.99530304e-06
5.9774754e-06
5.96002341e-06
5.94291867e-06
5.92609752e-06
5.90944655e-06
5.89278947e-06
5.8758772e-06
5.85838352e-06
5.83990882e-06
5.8199943e-06
5.79814792e-06
5.77388166e-06
5.74675775e-06
5.71643958e-06
5.68273958e-06
5.64565089e-06
5.6053569e-06
5.56222827e-06
5.51678851e-06
5.46960066e-06
5.4211776e-06
5.37185466e-06
5.32177936e-06
5.27089432e-06
5.21867618e-06
5.16403598e-06
5.1062419e-06
5.04569478e-06
4.98150611e-06
4.91293867e-06
4.83906674e-06
4.76192918e-06
4.68578735e-06
4.60775126e-06
4.51920025e-06
4.423563e-06
4.34460214e-06
4.27689043e-06
4.17961015e-06
4.07598042e-06
3.97490869e-06
3.92785077e-06
3.85144081e-06
3.76783677e-06
3.62093879e-06
3.66556924e-06
3.67698688e-06
3.51444707e-06
3.20296883e-06
3.17756747e-06
3.15534669e-06
3.14903672e-06
3.02206224e-06
2.94975441e-06
2.89010855e-06
2.8738679e-06
2.79987646e-06
2.77972713e-06
2.80441135e-06
2.90222925e-06
2.91382852e-06
2.79970573e-06
2.893651e-06
2.88152229e-06
2.91216081e-06
2.89286436e-06
2.91953303e-06
2.98053984e-06
3.56108479e-06
3.58443006e-06
3.4323888e-06
3.39908748e-06
3.56240875e-06
3.6365016e-06
3.683622e-06
3.69682598e-06
3.76697177e-06
3.84496762e-06
3.87901165e-06
3.90151365e-06
3.94338175e-06
3.99470067e-06
4.02950605e-06
4.06097798e-06
4.09547095e-06
4.13598131e-06
4.17568046e-06
4.21228451e-06
4.2479449e-06
4.28315334e-06
4.31567398e-06
4.34413908e-06
4.36881203e-06
4.38975355e-06
4.40685923e-06
4.42107567e-06
4.43282645e-06
4.44176967e-06
4.44627417e-06
4.44821697e-06
4.45633157e-06
4.46690395e-06
4.46089988e-06
4.44073278e-06
4.45341591e-06
4.50009052e-06
4.49701895e-06
4.48438209e-06
4.48924004e-06
4.54537768e-06
4.59889085e-06
4.51604918e-06
4.51026153e-06
4.49351655e-06
4.52179366e-06
4.49350879e-06
4.42341023e-06
4.3944187e-06
4.77518677e-06
4.72756062e-06
4.58273852e-06
4.46902918e-06
4.45955699e-06
4.51280226e-06
4.62694e-06
4.65821716e-06
4.73788335e-06
4.74429816e-06
5.11897261e-06
5.10759174e-06
5.00634541e-06
4.89007927e-06
4.89236697e-06
5.01683984e-06
5.1343446e-06
5.23812201e-06
5.27757441e-06
5.05967469e-06
5.05976481e-06
5.47743623e-06
5.50011556e-06
5.52042799e-06
5.5138696e-06
6.07012732e-06
6.10396667e-06
5.71707853e-06
5.74251487e-06
5.75610497e-06
5.80824945e-06
5.81159099e-06
5.76652148e-06
5.75944359e-06
5.84330012e-06
5.89897441e-06
5.95662275e-06
5.97991228e-06
5.65299471e-06
5.64000858e-06
5.90858372e-06
5.9381076e-06
5.871297e-06
5.86648456e-06
6.31160019e-06
6.3608021e-06
6.40574731e-06
6.39435685e-06
)
;

boundaryField
{
    closed
    {
        type            calculated;
        value           nonuniform List<scalar> 0();
    }
    open
    {
        type            calculated;
        value           nonuniform List<scalar> 0();
    }
    sides
    {
        type            empty;
        value           nonuniform List<scalar> 0();
    }
    procBoundary2to1
    {
        type            processor;
        value           uniform -4.88104087e-06;
    }
    procBoundary2to3
    {
        type            processor;
        value           uniform 6.89546393e-06;
    }
}


// ************************************************************************* //
