/*--------------------------------*- C++ -*----------------------------------*\
| =========                 |                                                 |
| \\      /  F ield         | OpenFOAM: The Open Source CFD Toolbox           |
|  \\    /   O peration     | Version:  2306                                  |
|   \\  /    A nd           | Website:  www.openfoam.com                      |
|    \\/     M anipulation  |                                                 |
\*---------------------------------------------------------------------------*/
FoamFile
{
    version     2.0;
    format      ascii;
    arch        "LSB;label=32;scalar=64";
    class       volScalarField;
    location    "0.00106";
    object      H2O;
}
// * * * * * * * * * * * * * * * * * * * * * * * * * * * * * * * * * * * * * //

dimensions      [0 0 0 0 0 0 0];

internalField   nonuniform List<scalar> 
530
(
0.00379046919
0.0045849761
0.00451326487
0.00450765942
0.00450714776
0.00450713608
0.00450713545
0.00450713543
0.00450713542
0.00450713542
0.00450713542
0.00450713542
0.00450713542
0.00450713542
0.00450713542
0.00450713542
0.00450713542
0.00450713542
0.00450713542
0.00450713542
0.00450713542
0.00450713542
0.00450713542
0.00450713542
0.00450713542
0.00450713542
0.00450713542
0.00450713542
0.00450713542
0.00450713542
0.00450713542
0.00450713542
0.00450713542
0.00450713542
0.00450713542
0.00450713542
0.00450713542
0.00450713542
0.00450713542
0.00450713542
0.00450713542
0.00450713542
0.00450713542
0.00450713542
0.00450713542
0.00450713542
0.00450713542
0.00450713542
0.00450713542
0.00450713542
0.00450713542
0.00450713542
0.00450713542
0.00450713542
0.00450713542
0.00450713542
0.00450713542
0.00450713542
0.00450713542
0.00450713542
0.00450713542
0.00450713542
0.00450713543
0.00450713543
0.00450713543
0.00450713545
0.00450713549
0.00450713562
0.00450713594
0.00450713684
0.00450713881
0.00450714209
0.0045071528
0.00450717054
0.00450719229
0.00450724457
0.00450745675
0.00450768159
0.00450748037
0.00450768754
0.00450936396
0.00451084021
0.00451046779
0.00450464214
0.00448419837
0.00448786079
0.00462150684
0.00482156339
0.00475577922
0.00377718369
0.00375089932
0.00483868523
0.00643936539
0.00669965468
0.00647863847
0.00183415179
0.00102327942
0.000972967975
0.00309090266
0.00710096525
0.00709403368
0.00697560785
0.00673617931
0.00237305759
0.00103570603
0.00101425865
0.000983365681
0.000948312208
0.00399870286
0.00726730005
0.00720354394
0.00697601876
0.00703329391
0.00643457874
0.00108997466
0.00104640279
0.000940118009
0.00389884522
0.00724148736
0.00721651369
0.00641367459
0.00152531087
0.00105890678
0.000941546071
0.00427109061
0.00718411853
0.00712461488
0.00657767552
0.00254627289
0.000995042619
0.00374583369
0.00641577787
0.00340073722
0.000924268626
0.00514263248
0.00729902736
0.00675443164
0.00148141175
0.00092032253
0.00532695084
0.00648559684
0.00141302898
0.000833520663
0.00644074768
0.00639119562
0.00084255949
0.00094479585
0.00669550146
0.00628941538
0.000889525244
0.00129332022
0.00679510527
0.00621637023
0.000911357843
0.00125623235
0.00684087662
0.00649998183
0.000884344505
0.000827520246
0.00626370502
0.00614353736
0.00301187439
0.00374303001
0.0071314418
0.00717928689
0.00577325772
0.000937198903
0.000838256564
0.00669455382
0.00662431149
0.000790627048
0.000853882589
0.00639986649
0.00752932483
0.00625972442
0.000903537193
0.00110391787
0.00668016171
0.00614607016
0.000931277642
0.00142981866
0.00675387015
0.00603638207
0.000929867631
0.0018100817
0.00687083413
0.00592025004
0.00093842789
0.00216324132
0.00691340778
0.00580437015
0.000942220412
0.00229496601
0.00703170199
0.00616891431
0.000914412932
0.000824402714
0.00721901626
0.00751769685
0.00567418829
0.000913892135
0.00181760609
0.00675068517
0.0057173622
0.000961832421
0.001987892
0.00692518978
0.00642081153
0.00086432417
0.00081403783
0.00677716649
0.007531021
0.00574812708
0.000938207131
0.00167038785
0.00688953686
0.00641654438
0.00089185668
0.000835162339
0.00671782697
0.00749793903
0.00579589391
0.00094275328
0.00146933914
0.00673799187
0.00591434379
0.000966009319
0.00186163914
0.0068228828
0.0058233767
0.000959251495
0.00218664918
0.00691754447
0.00572668649
0.000965851241
0.00229911692
0.00710477776
0.00643978795
0.000908580874
0.000820843367
0.00695333496
0.00760228393
0.00600050129
0.000939823322
0.000990389815
0.00676122778
0.00620139811
0.000957895356
0.0013205371
0.00683039665
0.00612476828
0.000965960077
0.00144004977
0.00700663967
0.00651332917
0.000929067982
0.000859230232
0.00687808067
0.00752797531
0.00628885233
0.000957484866
0.00093514912
0.00648671634
0.00659269288
0.000894630882
0.000908054979
0.00662989489
0.00656935094
0.000922597011
0.000894795301
0.00691958721
0.00749397169
0.00605972767
0.00099167511
0.000901831183
0.00666799457
0.00659853186
0.000945568029
0.00090769763
0.00703815132
0.00732948127
0.00694062919
0.00693358906
0.0045295438
0.0010885138
0.000929056493
0.00667801189
0.00716592003
0.00524201551
0.00105875107
0.000950115204
0.00650823413
0.0064612466
0.0009922046
0.000938664325
0.00677884321
0.00664292508
0.000974591548
0.000928103994
0.00720953109
0.00741480967
0.00713785564
0.0064705792
0.000951794391
0.00106754911
0.00414711046
0.00696658532
0.00562345313
0.00107844924
0.00100216913
0.00627358057
0.00715633298
0.00552426965
0.00103442617
0.0010742393
0.00342434512
0.00721658007
0.00726722785
0.005406841
0.00104032589
0.000977255647
0.00669576956
0.00732545865
0.00565360934
0.00104162384
0.000977804534
0.00658977509
0.00654450646
0.00100329448
0.000974719777
0.00687049485
0.00740992766
0.00574915548
0.00102626542
0.000973763362
0.00675386449
0.00734969437
0.00557831812
0.0010359581
0.000969739917
0.00679473267
0.0074011105
0.00575148019
0.00102666492
0.000971004565
0.00684372118
0.00725892774
0.00695495414
0.00521734811
0.0010719954
0.000983169854
0.00667536491
0.00723570183
0.00533831476
0.00105248803
0.000975504474
0.00671290743
0.00727953348
0.00548311757
0.0010575041
0.000956090007
0.00657999687
0.00648194859
0.00103361159
0.000937461345
0.00677743611
0.00652466551
0.00101560932
0.000944186468
0.0071542456
0.00751110059
0.00573758651
0.00102398313
0.000946879135
0.00702442932
0.00739274153
0.00557316964
0.00105022211
0.000900461135
0.0067112917
0.00638153437
0.00103390214
0.000936142829
0.00714972221
0.00742785986
0.00560785063
0.0010449639
0.000866848534
0.00677406627
0.00637183324
0.00103309591
0.000915502627
0.00727284168
0.00748753985
0.00551891963
0.00102627506
0.000909441084
0.00723409817
0.00741366876
0.00533409699
0.00103457482
0.000904655716
0.00720021401
0.00736506928
0.00537499942
0.00104961937
0.000805543897
0.0067457873
0.00628648692
0.00105261547
0.000782248553
0.00688450238
0.00628407065
0.00102944634
0.00086938627
0.00745646708
0.00751785761
0.00560105167
0.00103288697
0.000770692497
0.0068186766
0.0063002505
0.00104913276
0.000753725064
0.0069217939
0.00627686714
0.00102932772
0.000860426738
0.00749054932
0.00750766074
0.005433898
0.00105609732
0.00102268486
0.0054964603
0.00616112043
0.00588998261
0.00600015189
0.00661135363
0.00491833909
0.00107578769
0.000767068235
0.00699585804
0.00651297534
0.00102604817
0.000906886718
0.00706630833
0.00744068819
0.00563235781
0.00104014792
0.000820271385
0.0068834243
0.00648104403
0.00105139757
0.000827671333
0.00691799293
0.00651649347
0.00104933995
0.000834290793
0.00698244335
0.00652814344
0.0010379675
0.000919618762
0.00727528339
0.00758694644
0.00596839078
0.00103307988
0.000960282091
0.00687311094
0.00732109401
0.00545129848
0.0010678926
0.000972436292
0.00674605176
0.00726281756
0.00539330817
0.00106838017
0.000958863469
0.00689199259
0.00745340473
0.00591483154
0.00104730192
0.000911252689
0.006836059
0.00655577969
0.00103532683
0.000961016464
0.00691042204
0.00741964087
0.00574141018
0.00105298201
0.000910482439
0.00694424473
0.00667273899
0.00102030337
0.000958486398
0.0069353065
0.00750658685
0.00599737633
0.00105060727
0.000998631069
0.00682272511
0.00695673241
0.00425106126
0.00110250718
0.0011263204
0.000948258536
0.00676251198
0.00735960784
0.00692120367
0.00693111597
0.00693077084
0.00509784506
0.00110949871
0.0010553416
0.00566409255
0.00692857669
0.00500138002
0.00111610652
0.00101629562
0.00650681389
0.00719153268
0.00688803928
0.00501145224
0.00111672324
0.0010431152
0.00599314635
0.00742536427
0.00650217464
0.000974705985
0.00106932858
)
;

boundaryField
{
    closed
    {
        type            calculated;
        value           uniform 5.60467159e-07;
    }
    open
    {
        type            calculated;
        value           nonuniform List<scalar> 0();
    }
    sides
    {
        type            empty;
    }
    procBoundary0to1
    {
        type            processor;
        value           uniform 0.00459919599;
    }
}


// ************************************************************************* //
