/*--------------------------------*- C++ -*----------------------------------*\
| =========                 |                                                 |
| \\      /  F ield         | OpenFOAM: The Open Source CFD Toolbox           |
|  \\    /   O peration     | Version:  2306                                  |
|   \\  /    A nd           | Website:  www.openfoam.com                      |
|    \\/     M anipulation  |                                                 |
\*---------------------------------------------------------------------------*/
FoamFile
{
    version     2.0;
    format      ascii;
    arch        "LSB;label=32;scalar=64";
    class       volScalarField;
    location    "0.00112";
    object      prefDZ_H2O;
}
// * * * * * * * * * * * * * * * * * * * * * * * * * * * * * * * * * * * * * //

dimensions      [1 -1 -1 0 0 0 0];

internalField   nonuniform List<scalar> 
530
(
-7.656559e-07
-7.52877466e-07
-7.52059285e-07
-7.52078365e-07
-7.52080004e-07
-7.52080021e-07
-7.52080022e-07
-7.52080022e-07
-7.52080022e-07
-7.52080022e-07
-7.52080022e-07
-7.52080022e-07
-7.52080022e-07
-7.52080022e-07
-7.52080022e-07
-7.52080022e-07
-7.52080022e-07
-7.52080022e-07
-7.52080022e-07
-7.52080022e-07
-7.52080022e-07
-7.52080022e-07
-7.52080022e-07
-7.52080022e-07
-7.52080022e-07
-7.52080022e-07
-7.52080022e-07
-7.52080022e-07
-7.52080022e-07
-7.52080022e-07
-7.52080022e-07
-7.52080022e-07
-7.52080022e-07
-7.52080022e-07
-7.52080022e-07
-7.52080022e-07
-7.52080022e-07
-7.52080022e-07
-7.52080022e-07
-7.52080022e-07
-7.52080022e-07
-7.52080022e-07
-7.52080022e-07
-7.52080022e-07
-7.52080022e-07
-7.52080022e-07
-7.52080022e-07
-7.52080022e-07
-7.52080022e-07
-7.52080022e-07
-7.52080022e-07
-7.52080022e-07
-7.52080022e-07
-7.52080022e-07
-7.52080022e-07
-7.52080022e-07
-7.52080022e-07
-7.52080022e-07
-7.52080022e-07
-7.52080022e-07
-7.52080022e-07
-7.52080022e-07
-7.52080022e-07
-7.52080022e-07
-7.52080022e-07
-7.52080021e-07
-7.52080021e-07
-7.52080021e-07
-7.52080021e-07
-7.5208002e-07
-7.52080019e-07
-7.52080017e-07
-7.52079987e-07
-7.52079944e-07
-7.52080121e-07
-7.52080268e-07
-7.52078794e-07
-7.52077807e-07
-7.52082609e-07
-7.52087e-07
-7.52078293e-07
-7.52051718e-07
-7.52044569e-07
-7.52112726e-07
-7.52523633e-07
-7.52522391e-07
-7.5104644e-07
-7.47805007e-07
-7.48201376e-07
-7.6200379e-07
-7.63949058e-07
-7.4897135e-07
-7.38681724e-07
-7.37852176e-07
-7.38128149e-07
-7.58336782e-07
-7.75925384e-07
-7.73638309e-07
-7.7931516e-07
-7.38695692e-07
-7.36762694e-07
-7.36644932e-07
-7.35887248e-07
-7.41845565e-07
-7.7545366e-07
-7.73596188e-07
-7.76219929e-07
-7.73496178e-07
-7.76245414e-07
-7.40310306e-07
-7.36214899e-07
-7.36625982e-07
-7.36289841e-07
-7.35565379e-07
-7.40709779e-07
-7.76448614e-07
-7.72845126e-07
-7.76249788e-07
-7.44031871e-07
-7.36152939e-07
-7.35912289e-07
-7.4061713e-07
-7.76517378e-07
-7.72850258e-07
-7.75907306e-07
-7.43162409e-07
-7.36448518e-07
-7.35885879e-07
-7.39144544e-07
-7.75638773e-07
-7.75490085e-07
-7.40097883e-07
-7.40357445e-07
-7.75410534e-07
-7.74980576e-07
-7.39538424e-07
-7.34266687e-07
-7.38457903e-07
-7.76406508e-07
-7.75571268e-07
-7.39444232e-07
-7.39208994e-07
-7.76524365e-07
-7.75520593e-07
-7.38467021e-07
-7.38478252e-07
-7.76843645e-07
-7.75731672e-07
-7.38026381e-07
-7.38012929e-07
-7.77001866e-07
-7.75747759e-07
-7.3778698e-07
-7.37664522e-07
-7.76846934e-07
-7.75374517e-07
-7.38047206e-07
-7.37873414e-07
-7.75990586e-07
-7.73833857e-07
-7.44530528e-07
-7.41849319e-07
-7.45978454e-07
-7.44043357e-07
-7.38676958e-07
-7.36546283e-07
-7.38474537e-07
-7.75640227e-07
-7.74333213e-07
-7.3909425e-07
-7.38398768e-07
-7.76472297e-07
-7.74843263e-07
-7.39220057e-07
-7.33061731e-07
-7.3696715e-07
-7.7680859e-07
-7.75044516e-07
-7.38903907e-07
-7.37990678e-07
-7.77106174e-07
-7.75175203e-07
-7.3823064e-07
-7.3759076e-07
-7.77244559e-07
-7.75443034e-07
-7.37922725e-07
-7.37309769e-07
-7.77337723e-07
-7.75575179e-07
-7.37695251e-07
-7.37072695e-07
-7.77362302e-07
-7.75665356e-07
-7.37469642e-07
-7.3706238e-07
-7.77062503e-07
-7.75501793e-07
-7.38557901e-07
-7.3257831e-07
-7.36541825e-07
-7.76930606e-07
-7.75197132e-07
-7.3865911e-07
-7.37585106e-07
-7.77012754e-07
-7.75258945e-07
-7.37990014e-07
-7.37420858e-07
-7.76736649e-07
-7.75256666e-07
-7.38836464e-07
-7.32829918e-07
-7.36729193e-07
-7.76664009e-07
-7.74936899e-07
-7.38550022e-07
-7.37611122e-07
-7.76495268e-07
-7.75065339e-07
-7.39079537e-07
-7.33195941e-07
-7.36969752e-07
-7.76425348e-07
-7.74659226e-07
-7.38827024e-07
-7.37541256e-07
-7.76631121e-07
-7.74796033e-07
-7.38142145e-07
-7.37121463e-07
-7.76698719e-07
-7.74914393e-07
-7.37664992e-07
-7.36697299e-07
-7.76700066e-07
-7.74973979e-07
-7.37299264e-07
-7.36651823e-07
-7.76386574e-07
-7.75106893e-07
-7.38115927e-07
-7.32414149e-07
-7.36413129e-07
-7.76235281e-07
-7.743209e-07
-7.38137132e-07
-7.36938935e-07
-7.76268891e-07
-7.74417792e-07
-7.3775529e-07
-7.36753195e-07
-7.76227571e-07
-7.74431801e-07
-7.37486836e-07
-7.36861296e-07
-7.75905541e-07
-7.74753107e-07
-7.38053278e-07
-7.32900905e-07
-7.36934225e-07
-7.75710183e-07
-7.7381384e-07
-7.3833368e-07
-7.37316669e-07
-7.75518639e-07
-7.73911249e-07
-7.37947339e-07
-7.37441784e-07
-7.75199059e-07
-7.74476544e-07
-7.38014652e-07
-7.33241953e-07
-7.37319122e-07
-7.75200211e-07
-7.73610811e-07
-7.38047039e-07
-7.37437277e-07
-7.74826727e-07
-7.74000787e-07
-7.37963229e-07
-7.3554655e-07
-7.37370508e-07
-7.36002651e-07
-7.40101376e-07
-7.74141012e-07
-7.73674313e-07
-7.41470174e-07
-7.35558377e-07
-7.40090054e-07
-7.74269695e-07
-7.73286323e-07
-7.38832595e-07
-7.38245811e-07
-7.74503349e-07
-7.73764417e-07
-7.37682741e-07
-7.37431462e-07
-7.74637277e-07
-7.74128001e-07
-7.37303843e-07
-7.35175992e-07
-7.35345174e-07
-7.39604719e-07
-7.73934916e-07
-7.73544163e-07
-7.4275483e-07
-7.36404334e-07
-7.43326118e-07
-7.73552068e-07
-7.73359963e-07
-7.41128024e-07
-7.36164577e-07
-7.44507005e-07
-7.73449148e-07
-7.72978087e-07
-7.49444314e-07
-7.37398713e-07
-7.36281566e-07
-7.40403558e-07
-7.73584867e-07
-7.73590427e-07
-7.38682341e-07
-7.34812811e-07
-7.40078863e-07
-7.73810102e-07
-7.73595036e-07
-7.38315598e-07
-7.38516509e-07
-7.7332546e-07
-7.74056656e-07
-7.37541257e-07
-7.34110603e-07
-7.39848459e-07
-7.7383342e-07
-7.74036579e-07
-7.3817652e-07
-7.34550638e-07
-7.40636045e-07
-7.73721064e-07
-7.74167929e-07
-7.38087744e-07
-7.34582684e-07
-7.40393849e-07
-7.73790002e-07
-7.73899687e-07
-7.37897581e-07
-7.36173579e-07
-7.36327148e-07
-7.41476431e-07
-7.73414402e-07
-7.7417529e-07
-7.38631332e-07
-7.35435222e-07
-7.42499864e-07
-7.73548496e-07
-7.74154309e-07
-7.3842987e-07
-7.35172248e-07
-7.41251107e-07
-7.73590536e-07
-7.74293911e-07
-7.38200656e-07
-7.38387463e-07
-7.73378225e-07
-7.74668746e-07
-7.37292715e-07
-7.37964327e-07
-7.73378909e-07
-7.74697086e-07
-7.36785782e-07
-7.33639538e-07
-7.38999243e-07
-7.73930061e-07
-7.74179788e-07
-7.37308812e-07
-7.34295039e-07
-7.39454686e-07
-7.73683691e-07
-7.73941674e-07
-7.37653337e-07
-7.38073625e-07
-7.7332213e-07
-7.74349249e-07
-7.36922984e-07
-7.33917171e-07
-7.38998199e-07
-7.73917196e-07
-7.73886744e-07
-7.37421785e-07
-7.37869858e-07
-7.73402788e-07
-7.74439579e-07
-7.36631697e-07
-7.33658488e-07
-7.39286319e-07
-7.74050242e-07
-7.74210116e-07
-7.36920713e-07
-7.34133981e-07
-7.40159396e-07
-7.73994075e-07
-7.74325275e-07
-7.36948984e-07
-7.34307348e-07
-7.40046181e-07
-7.73883107e-07
-7.74479655e-07
-7.37447102e-07
-7.37988944e-07
-7.73393364e-07
-7.7496817e-07
-7.3692032e-07
-7.37885883e-07
-7.73504284e-07
-7.75076877e-07
-7.35618907e-07
-7.33214088e-07
-7.3913418e-07
-7.74130683e-07
-7.7476657e-07
-7.36703225e-07
-7.37719626e-07
-7.73379979e-07
-7.75030441e-07
-7.3671203e-07
-7.37927298e-07
-7.73281318e-07
-7.74672093e-07
-7.35923408e-07
-7.3462163e-07
-7.44660095e-07
-7.73365251e-07
-7.73556104e-07
-7.40167619e-07
-7.37946168e-07
-7.38715696e-07
-7.38594706e-07
-7.3791549e-07
-7.47584058e-07
-7.72828386e-07
-7.74473093e-07
-7.37996049e-07
-7.38994776e-07
-7.73071262e-07
-7.74782233e-07
-7.35590763e-07
-7.33508523e-07
-7.41238337e-07
-7.7416729e-07
-7.74801134e-07
-7.36508083e-07
-7.38051862e-07
-7.73499046e-07
-7.75386121e-07
-7.3639894e-07
-7.37817529e-07
-7.7341029e-07
-7.75639778e-07
-7.36374441e-07
-7.38125256e-07
-7.73663177e-07
-7.75428536e-07
-7.34822699e-07
-7.3327669e-07
-7.4284495e-07
-7.74497777e-07
-7.74656476e-07
-7.35500364e-07
-7.34721523e-07
-7.45375342e-07
-7.74063534e-07
-7.74706251e-07
-7.36065416e-07
-7.35067417e-07
-7.45981211e-07
-7.74112667e-07
-7.74918741e-07
-7.35464306e-07
-7.34441951e-07
-7.43978119e-07
-7.73911196e-07
-7.75590128e-07
-7.37245878e-07
-7.39844881e-07
-7.73737049e-07
-7.75472008e-07
-7.3460922e-07
-7.33874768e-07
-7.43910019e-07
-7.74126566e-07
-7.75873374e-07
-7.37037486e-07
-7.39983661e-07
-7.73851755e-07
-7.75591444e-07
-7.34198829e-07
-7.34094913e-07
-7.46450041e-07
-7.74282413e-07
-7.76160149e-07
-7.35668854e-07
-7.35748489e-07
-7.57440496e-07
-7.74307125e-07
-7.73763998e-07
-7.76296343e-07
-7.35661884e-07
-7.35376512e-07
-7.37138903e-07
-7.37431107e-07
-7.37767936e-07
-7.53826122e-07
-7.73271577e-07
-7.75962999e-07
-7.37075957e-07
-7.37114642e-07
-7.56760206e-07
-7.73689306e-07
-7.76389848e-07
-7.3611457e-07
-7.36251728e-07
-7.37908086e-07
-7.53918457e-07
-7.73512808e-07
-7.7691784e-07
-7.35826316e-07
-7.35938359e-07
-7.534741e-07
-7.74036549e-07
)
;

boundaryField
{
    closed
    {
        type            calculated;
        value           uniform -1.03361814e-06;
    }
    open
    {
        type            calculated;
        value           nonuniform List<scalar> 0();
    }
    sides
    {
        type            empty;
    }
    procBoundary0to1
    {
        type            processor;
        value           uniform -7.77480473e-07;
    }
}


// ************************************************************************* //
