/*--------------------------------*- C++ -*----------------------------------*\
| =========                 |                                                 |
| \\      /  F ield         | OpenFOAM: The Open Source CFD Toolbox           |
|  \\    /   O peration     | Version:  2306                                  |
|   \\  /    A nd           | Website:  www.openfoam.com                      |
|    \\/     M anipulation  |                                                 |
\*---------------------------------------------------------------------------*/
FoamFile
{
    version     2.0;
    format      ascii;
    arch        "LSB;label=32;scalar=64";
    class       volScalarField;
    location    "0.00188";
    object      h;
}
// * * * * * * * * * * * * * * * * * * * * * * * * * * * * * * * * * * * * * //

dimensions      [0 2 -2 0 0 0 0];

internalField   nonuniform List<scalar> 
530
(
5571.63769
9854.35328
633.894718
-5315.21655
1987.14845
9783.27694
9398.30299
-3769.64712
-6080.55954
1491.47132
9755.54498
9631.62532
-3062.67672
-5984.23386
1488.15218
9679.74013
9418.4619
-3588.92393
-6052.70468
1780.52819
9875.39702
7869.4394
-1549.01939
-5432.06851
-5179.12325
5131.96048
9582.91116
10094.2071
9547.74971
-501.482387
-6683.262
-6866.73547
813.007677
9574.14958
10275.277
3858.15573
-1857.12514
5383.48742
10491.3816
7151.25166
379.477652
-5042.99116
-5480.52325
2069.595
9589.48696
8915.02253
-4035.6911
-6223.8094
1605.58675
9696.61247
9448.83028
-1247.73023
-4124.32695
-4802.39139
-6356.83576
-2670.07042
8554.30498
10355.8391
10350.4522
4648.76544
-705.218645
6792.62778
10495.1997
5944.64356
-163.781787
-5386.46815
-5688.44333
3758.96901
9530.10995
6257.75674
-5115.05978
-6093.2447
3624.06033
9661.56969
6449.33551
-2935.98765
-5136.19117
-1390.54704
9138.7885
8320.28924
-2532.54774
-3134.05536
7652.12708
10401.628
5018.98768
-2871.17925
-3567.40873
-5684.75726
-5796.7192
4932.98629
9324.41736
9807.27723
9460.74837
324.962588
-2076.54995
969.460014
-2363.20389
-3252.44433
6093.09771
9926.56059
9989.2907
6796.96633
-1912.48229
-280.42661
4334.51339
-1149.18695
-2593.32199
7391.17619
4622.50244
-2780.60999
6411.75143
10370.3288
4561.29598
-944.95219
-5238.30454
-5387.52097
5213.88807
9663.55058
5728.93974
-5722.48577
-6390.2698
4256.52374
9914.71201
9804.25528
13.5996997
-3691.7957
6912.02875
6089.65337
-4273.68389
6172.3027
10163.0834
2766.7665
-2048.79396
-5387.84411
-5431.26115
5913.52413
9864.11975
5879.71854
-4847.28347
-5390.0585
6013.59033
9868.31313
5497.05536
-5020.69376
-5505.92696
6352.08412
9782.74046
3804.47812
-6022.43255
-6363.38239
6344.06957
9100.70049
1613.91027
8087.33128
10579.2027
2273.52376
-2107.57754
-5922.57111
-6222.31337
6715.08552
9097.22341
793.283039
8002.56116
10612.4027
1794.65567
-2016.7573
-5405.77928
-5415.38147
6455.53738
9990.59969
7720.08508
-4751.59852
-5615.77081
7201.80709
10074.6226
-1483.90898
-3676.53001
8068.18982
10190.6212
3558.31778
-5229.30421
-5255.31174
7473.23041
9946.70365
4893.19993
-6050.28174
-6072.20318
7166.69682
10218.7865
10187.2565
-979.418361
-5830.13725
-3083.3143
8975.92123
10581.326
6161.92248
-3202.42223
-3750.24583
-5775.53124
-4035.40921
8970.54958
1378.50061
-4864.34174
8242.86324
10138.4583
-2249.93279
-4133.15642
8408.62266
10323.9744
1897.96152
-3159.79438
-4733.08594
-2515.84049
9280.50691
1194.23248
-4698.9232
8404.7752
10158.4157
-2532.27898
-4323.7259
8409.83784
10252.0339
-2405.94429
-3972.33975
8571.2203
10214.7039
-2255.9976
-5188.51885
8444.20077
9145.28813
-3798.3124
7943.99312
9992.47024
390.81796
-6263.19078
-6269.68852
8630.34465
10042.3722
-2308.12935
-4326.49587
8867.12713
10121.7641
2208.51921
-5891.07694
-5891.22076
8715.43177
10100.1121
-2298.75077
-4082.99109
9070.80616
10209.4399
2451.63817
-5457.78709
-5458.32535
8956.31006
10088.4429
2657.68726
-5300.54685
-5299.5924
6455.66343
10100.287
-1878.63285
-3933.37923
9460.25973
10471.3593
1400.29716
-3013.26054
-4555.18882
-3278.36124
9746.96755
10662.4699
10378.587
2436.24781
-4339.21745
-1208.94693
10068.0903
8651.73106
-3902.33682
-4758.14319
-5332.58612
-1260.25299
9671.71041
-289.156167
-4850.56489
9704.9552
9964.16051
-2081.50739
-5033.55271
2722.52217
9893.39781
10487.3449
9651.50051
-3395.12083
-6010.67749
2281.25545
9744.78417
-1125.51959
-3789.57152
10239.6576
9912.6299
318.454526
-5851.03638
-4563.0643
10004.8321
9812.08392
1028.0127
-5816.29717
-4350.73534
10021.3065
9829.21168
1087.73191
-5753.95913
-4231.17834
10025.8268
9802.69328
692.805181
-5923.59064
-4312.91566
9929.27715
9596.39232
-3420.81386
-3087.77226
10205.062
10012.6514
681.963783
-5606.98978
-3961.10148
9786.01014
9971.46557
3003.39283
-5359.18568
-3938.6477
9972.86994
10097.6027
463.580749
-3486.60914
-5135.0354
-4169.03966
9785.31817
9728.71789
-3384.32661
-3133.22133
9966.40037
10114.5835
1998.40681
-5137.93477
-3961.64344
9841.92221
9956.90376
783.358603
-5676.71951
-4455.68952
9714.3812
9833.40224
-3190.95572
-3209.35539
9730.09773
10162.9136
2645.14834
-4939.62525
-4010.30532
9885.01495
10168.4565
279.226214
-3568.42377
-5185.01548
-4624.44174
9691.50945
9889.70773
-3128.3167
-3192.80411
9908.92853
10328.9865
-244.971622
-3235.24395
-5144.72545
-4002.61928
9318.89177
-1259.72956
-5398.46349
9634.88931
9890.98123
-3840.02107
-4183.1415
9610.85205
10001.1613
-3682.8054
-4012.6046
9712.14763
10054.543
-3595.9631
-3908.72223
9759.52835
10094.7571
-3457.36251
-3721.4444
9838.40004
10168.9836
-3084.5878
-3123.07622
10034.1957
10483.339
263.156617
-2871.34926
-4583.23296
-3702.59467
9673.77263
386.94438
-4719.26255
9825.93007
10093.211
-3444.49981
-3799.85031
9791.37248
10217.4042
-3099.57195
-3234.22939
9969.12062
10498.6145
280.98923
-2891.41722
-4505.96957
-3807.49196
9707.78839
647.01489
-4607.00978
9773.21426
10176.8059
-3161.81644
-3625.38798
9725.43159
10306.223
-2885.14385
-3101.22995
9735.48154
10512.7742
3444.06111
-3564.95253
-3697.9859
-6462.68599
-6024.6442
9234.06228
9900.37871
9916.08102
9916.26649
2382.38507
-6165.51441
-5884.39919
9601.77936
10015.4486
-3375.93155
-4630.19523
9509.23942
10007.8504
-936.619534
-6153.68084
-5793.04326
9616.30553
10094.9666
-2830.9993
-4071.20178
9518.57117
10195.4992
433.647155
-5153.32616
-5155.77954
9772.07
10124.7827
1306.19151
-5205.46033
-5205.86977
9675.3899
10088.893
1009.85339
-5471.30408
-5470.38022
9628.91832
10186.0727
-2416.77817
-3817.53535
9420.55187
10237.7062
642.920263
-5149.97285
-5150.30971
9477.3805
10059.5404
485.770485
-5746.36116
-5733.82143
9535.20354
10133.2444
-2573.34378
-4152.96454
9287.73581
10137.6851
86.167475
-5686.08527
-5688.33538
9457.917
10151.8394
-2602.72711
-3860.46903
9154.70601
10353.2485
-2392.03977
-3446.06732
9293.07594
10317.0772
1437.79804
-4841.92268
-4842.37233
9434.71567
10175.929
2072.61917
-5016.05927
-5018.61929
9436.96772
10149.3592
1758.8951
-5091.42284
-5094.0242
9471.18417
10143.2884
1733.1528
-5109.66392
-5112.26382
9469.34761
10138.8302
1697.02022
)
;

boundaryField
{
    closed
    {
        type            lookUpEnthalpy;
        h0              nonuniform List<scalar> 0();
        value           nonuniform List<scalar> 0();
    }
    open
    {
        type            zeroGradient;
    }
    sides
    {
        type            empty;
    }
    procBoundary2to1
    {
        type            processor;
        value           uniform -4468.59689;
    }
    procBoundary2to3
    {
        type            processor;
        value           uniform -5125.94501;
    }
}


// ************************************************************************* //
