/*--------------------------------*- C++ -*----------------------------------*\
| =========                 |                                                 |
| \\      /  F ield         | OpenFOAM: The Open Source CFD Toolbox           |
|  \\    /   O peration     | Version:  2306                                  |
|   \\  /    A nd           | Website:  www.openfoam.com                      |
|    \\/     M anipulation  |                                                 |
\*---------------------------------------------------------------------------*/
FoamFile
{
    version     2.0;
    format      ascii;
    arch        "LSB;label=32;scalar=64";
    class       volScalarField;
    location    "0.00188";
    object      p;
}
// * * * * * * * * * * * * * * * * * * * * * * * * * * * * * * * * * * * * * //

dimensions      [1 -1 -2 0 0 0 0];

internalField   nonuniform List<scalar> 
530
(
101273.672
101271.235
101268.91
101266.581
101264.278
101262.101
101260.108
101258.143
101256.211
101254.3
101252.544
101250.975
101249.442
101248.024
101246.634
101245.413
101244.404
101243.439
101242.688
101241.993
101241.495
101241.468
101241.116
101241.257
101241.858
101242.747
101243.939
101245.498
101247.44
101249.653
101252.181
101255.136
101258.285
101261.809
101265.467
101269.337
101273.525
101278.019
101282.048
101286.944
101291.637
101296.59
101301.725
101306.731
101311.607
101316.329
101321.142
101326.796
101332.614
101338.646
101344.739
101350.906
101357.268
101363.604
101369.802
101375.937
101381.883
101387.315
101392.704
101397.99
101403.287
101408.662
101413.856
101419.203
101424.967
101430.881
101436.828
101442.682
101448.103
101453.028
101457.525
101462.072
101466.382
101470.147
101473.236
101475.381
101476.926
101478.171
101479.882
101482.742
101485.556
101490.192
101495.207
101499.518
101503.133
101506.182
101508.975
101511.664
101514.215
101516.564
101518.875
101520.908
101522.739
101524.702
101526.507
101528.23
101529.88
101531.475
101532.947
101534.545
101536.103
101537.62
101538.503
101539.717
101540.788
101541.817
101542.765
101543.478
101544.314
101544.845
101545.152
101545.63
101546.061
101546.221
101546.427
101546.499
101546.357
101546.395
101546.362
101545.997
101545.577
101545.085
101544.798
101544.306
101543.916
101543.503
101542.926
101542.599
101541.867
101540.855
101540.109
101539.644
101539.546
101539.488
101539.891
101540.309
101540.838
101541.128
101541.004
101540.751
101540.328
101540.095
101539.801
101539.238
101538.619
101537.903
101537.369
101536.841
101536.139
101535.299
101534.35
101533.669
101533.208
101532.805
101532.31
101532.001
101531.682
101531.49
101531.341
101531.163
101531.292
101531.771
101532.422
101533.004
101533.808
101534.588
101535.408
101536.163
101536.683
101537.57
101538.389
101538.676
101539.156
101539.62
101540.106
101540.679
101541.227
101541.756
101542.035
101542.452
101542.862
101543.239
101543.509
101543.881
101544.316
101544.728
101545.128
101545.407
101545.751
101545.971
101546.203
101546.279
101546.154
101545.984
101545.605
101545.193
101544.583
101543.948
101543.405
101542.908
101542.465
101542.095
101541.757
101541.415
101540.853
101540.444
101539.943
101539.425
101538.728
101538.162
101537.534
101536.839
101536.111
101535.386
101534.692
101533.987
101533.287
101532.413
101531.719
101530.958
101530.258
101529.447
101528.85
101528.271
101527.853
101527.439
101527.313
101527.34
101527.588
101527.65
101527.94
101528.168
101528.165
101528.243
101528.073
101525.707
101529.454
101527.623
101527.284
101527.237
101527.427
101527.688
101528.183
101528.752
101529.735
101531.075
101532.411
101534.071
101536.252
101538.933
101541.849
101545.42
101549.656
101554.068
101558.043
101562.589
101568.112
101574.124
101580.336
101587.57
101593.73
101600.708
101608.035
101615.677
101623.191
101631.118
101639.413
101648.213
101657.437
101666.002
101674.741
101683.442
101692.347
101701.386
101710.145
101718.663
101727.309
101736.011
101744.814
101753.27
101761.074
101768.218
101775.28
101781.683
101786.475
101790.838
101794.375
101796.914
101798.412
101798.81
101798.327
101796.786
101793.868
101789.78
101784.755
101778.643
101771.217
101762.732
101754.105
101744.481
101733.481
101721.453
101708.857
101696.834
101683.986
101669.976
101655.213
101640.292
101626.64
101612.609
101597.812
101582.704
101566.781
101552.978
101539.322
101525.268
101511.032
101496.395
101482.861
101469.688
101456.17
101442.728
101430.627
101419.106
101407.557
101396.214
101384.84
101374.801
101365.393
101356.573
101348.043
101339.722
101332.549
101325.844
101319.684
101313.972
101308.709
101304.008
101300.249
101297.175
101295.027
101294.804
101288.977
101288.961
101288.615
101288.455
101288.567
101289.1
101289.84
101290.955
101292.272
101293.712
101295.268
101296.953
101299.022
101301.359
101303.859
101306.42
101309.318
101312.498
101315.858
101319.117
101322.287
101325.526
101328.643
101331.708
101334.665
101337.363
101339.998
101342.747
101345.621
101348.378
101350.939
101353.487
101355.898
101358.212
101360.342
101362.153
101363.782
101365.316
101366.67
101367.719
101368.701
101369.616
101370.404
101370.776
101370.963
101371.044
101370.984
101370.536
101369.962
101369.282
101368.418
101367.373
101366.246
101364.935
101363.575
101362.095
101360.391
101358.599
101356.878
101354.974
101353.064
101351.11
101349.053
101346.924
101344.916
101342.823
101340.731
101338.618
101336.57
101334.539
101332.323
101330.179
101328.128
101326.109
101323.931
101321.824
101319.813
101317.841
101315.887
101313.927
101311.991
101310.259
101308.512
101306.853
101305.256
101303.734
101302.303
101300.82
101299.442
101298.144
101296.952
101295.749
101294.649
101293.633
101292.718
101291.862
101291.084
101290.394
101289.78
101289.368
101288.924
101288.523
101288.137
101288.206
101288.11
101288.033
101288.11
101288.115
101288.26
101288.461
101288.753
101288.958
101289.279
101289.662
101290.102
101290.652
101291.097
101291.647
101292.224
101292.821
101293.263
101293.74
101294.361
101295.942
101295.609
101296.917
101297.767
101298.669
101300.174
101299.778
101301.038
101302.404
101303.989
101305.2
101304.752
101305.224
101306.352
101307.618
101308.848
101309.84
101310.844
101311.864
101313.645
101313.687
101315.11
101316.144
101317.15
101318.22
101319.277
101320.145
101321.092
101322.074
101323.078
101323.927
101324.948
101325.986
101326.026
101328.408
101328.46
101329.251
101330.106
101330.862
101331.334
101331.808
101332.249
101332.682
101332.95
101333.263
101333.625
101334.615
101333.993
101334.599
101334.672
101334.357
101334.683
101334.777
101335.077
101334.695
101334.131
101334.183
101334.112
101334.176
101333.72
101333.121
101333.05
101332.831
101332.803
101332.467
)
;

boundaryField
{
    closed
    {
        type            zeroGradient;
    }
    open
    {
        type            waveTransmissive;
        gamma           1.25;
        fieldInf        101325;
        lInf            1;
        value           nonuniform List<scalar> 0();
    }
    sides
    {
        type            empty;
    }
    procBoundary2to1
    {
        type            processor;
        value           uniform 101276.003;
    }
    procBoundary2to3
    {
        type            processor;
        value           uniform 101332.316;
    }
}


// ************************************************************************* //
