/*--------------------------------*- C++ -*----------------------------------*\
| =========                 |                                                 |
| \\      /  F ield         | OpenFOAM: The Open Source CFD Toolbox           |
|  \\    /   O peration     | Version:  2306                                  |
|   \\  /    A nd           | Website:  www.openfoam.com                      |
|    \\/     M anipulation  |                                                 |
\*---------------------------------------------------------------------------*/
FoamFile
{
    version     2.0;
    format      ascii;
    arch        "LSB;label=32;scalar=64";
    class       volScalarField;
    location    "0.00088";
    object      Z;
}
// * * * * * * * * * * * * * * * * * * * * * * * * * * * * * * * * * * * * * //

dimensions      [0 0 0 0 0 0 0];

internalField   nonuniform List<scalar> 
531
(
0.0142381348
0.0141301492
0.0144361904
0.0147668174
0.0147032403
0.0142481898
0.0141413299
0.0144754913
0.0147788212
0.0147058314
0.0142466374
0.0141468316
0.014483906
0.0146584431
0.0143334045
0.0141682484
0.0145488129
0.0147754285
0.0146393925
0.0141548404
0.0141490969
0.0145276256
0.0146379022
0.0142859611
0.0141779388
0.0145962053
0.0147704148
0.0145630298
0.014137733
0.0141751224
0.0146564829
0.0148450647
0.0147784221
0.0143917387
0.0141473905
0.0144098943
0.0147416617
0.0146486422
0.0141838691
0.0141829773
0.0146311427
0.0146564944
0.0142225971
0.0142087935
0.0146786794
0.0146951069
0.0142260868
0.0141468866
0.0145401629
0.0147737886
0.0145988963
0.0141840229
0.0142230979
0.014713114
0.0147055942
0.0142018749
0.0141578669
0.0146077292
0.0147660671
0.0144858816
0.0142217406
0.0144132816
0.0147451143
0.0146119851
0.0141754388
0.0142392971
0.0147282295
0.0147098222
0.0141754791
0.0141437125
0.014610343
0.0147408164
0.0143997502
0.0141999281
0.0144767263
0.0146817012
0.0143973341
0.0142040934
0.0145087443
0.0146834663
0.0143704098
0.0142137987
0.0145600025
0.0148195876
0.0146748649
0.0141458451
0.0141497816
0.0146636646
0.0146818027
0.0142340257
0.0142138973
0.0146682827
0.0146663105
0.0141372209
0.0141473061
0.0146906379
0.0148486556
0.0146261693
0.0141451729
0.0141931746
0.0146927597
0.0146453276
0.0141101245
0.0141349453
0.0147070408
0.0148490079
0.014616123
0.0141297879
0.0141826299
0.0146915109
0.0146393891
0.0140995661
0.0141215252
0.0147004697
0.0148302063
0.0146097121
0.0141003589
0.0141098448
0.014678261
0.014821735
0.0146032468
0.0140983027
0.0141092886
0.0146901086
0.0148284557
0.0146061022
0.0140981491
0.0141087469
0.014702762
0.0148332157
0.0146098174
0.0140972951
0.0141082556
0.0147108198
0.0148422704
0.0146062678
0.0141040881
0.0141410968
0.0147016004
0.0146588298
0.014088721
0.0141087948
0.0147249264
0.0148452281
0.0146109991
0.0140995652
0.0141213999
0.0146965291
0.014660964
0.0140822933
0.0140996436
0.0147099843
0.0148293199
0.0146012161
0.0140888085
0.0140916841
0.0147149246
0.0148068175
0.0147746245
0.0146362887
0.0140788978
0.014092646
0.0146919957
0.0148317393
0.0146123025
0.0140932595
0.0141069113
0.014731976
0.0147068216
0.0140769458
0.0140944259
0.014712157
0.0148341082
0.014602601
0.0140919169
0.0141095941
0.0147497172
0.0147195127
0.0140857378
0.0141026076
0.0147468498
0.0148266261
0.014558029
0.0140898155
0.0141340505
0.0147701234
0.0147539122
0.014076319
0.0140906622
0.0146847614
0.0148341261
0.0146231948
0.0140865616
0.0140870976
0.0147428833
0.0148322963
0.0145843306
0.0140840334
0.0140810822
0.0147479377
0.0147832131
0.0144555184
0.0140785286
0.0140851832
0.0147396657
0.014811809
0.0147945562
0.0146528912
0.0141072086
0.0140611659
0.0141588162
0.0146998085
0.0148184052
0.0145480425
0.0140851555
0.0140841483
0.0147782542
0.0148249187
0.0143090716
0.0140897356
0.0144981791
0.0147866651
0.0146014547
0.01408587
0.0140812698
0.0147861591
0.0148241609
0.0142748028
0.0140904582
0.0145310823
0.014796383
0.0146158507
0.0140843008
0.0140772793
0.0147264493
0.0148173322
0.014575596
0.0140853653
0.0140779832
0.0147291073
0.0148151513
0.014569191
0.0140853167
0.0140794363
0.0147284355
0.0148196557
0.0144709015
0.0140946895
0.0143124822
0.0148495465
0.0148031837
0.0141661419
0.014145573
0.01478387
0.0147891283
0.014102284
0.0141040624
0.0147915282
0.0147780339
0.0140891203
0.0140950907
0.0147862502
0.0147713823
0.0140829767
0.014092789
0.0147758142
0.0147644349
0.014070518
0.0140813708
0.0147087834
0.0148087249
0.0145728187
0.0140787735
0.0140790687
0.0147645193
0.0148474182
0.0146209565
0.0140830706
0.0140857604
0.0147808433
0.0147664133
0.0140719065
0.0140853182
0.0147449211
0.0148356388
0.0146134722
0.0140821886
0.0140856177
0.0147675579
0.0147544678
0.0140688854
0.0140810202
0.0147112869
0.0148120732
0.0146037495
0.0140761967
0.014074701
0.0147271919
0.0148212663
0.0146227289
0.0140774036
0.0140771048
0.0147372371
0.0148446916
0.014656241
0.0140841864
0.0140828249
0.0147737111
0.0147671246
0.0140763214
0.0140821195
0.0147397627
0.0148477276
0.0146632393
0.0140839297
0.0140732482
0.0147489167
0.0147453151
0.0140755666
0.0140776635
0.0147375592
0.0148439783
0.0146640343
0.0140849164
0.0140718205
0.0147601785
0.0147614292
0.014078342
0.0140783679
0.014747492
0.0148587709
0.0146923237
0.01408484
0.0140659844
0.0147406473
0.0147406364
0.0140736646
0.0140742628
0.0147353233
0.0148432757
0.0146790928
0.0140818079
0.0140636104
0.0147283262
0.0147290103
0.0140704871
0.0140712514
0.0147354482
0.014840564
0.0146725418
0.0140789431
0.0140708592
0.0147316244
0.0148490443
0.014684982
0.0140800512
0.0140650862
0.0147387238
0.0147369842
0.0140691353
0.0140749764
0.0147459474
0.0148531033
0.0146848709
0.0140788715
0.0140648667
0.0147308411
0.0147253399
0.014067332
0.0140742445
0.0147317649
0.0148332701
0.0146534833
0.0140730081
0.0140685774
0.0147147705
0.0148138475
0.014625312
0.0140696084
0.014067294
0.014688076
0.0147895409
0.0145895789
0.0140687582
0.0140695772
0.0146957395
0.0148056805
0.0146114756
0.0140749094
0.01406629
0.0147425657
0.0147916507
0.0147932305
0.0146455463
0.0140877597
0.0140597529
0.0140946059
0.0147140302
0.0148606929
0.0146500333
0.0140796231
0.014073871
0.0147462532
0.0148503525
0.0146757317
0.0140785781
0.0140751352
0.0147424125
0.0147307248
0.0140755546
0.0140830573
0.0147650101
0.0148630079
0.0146803568
0.0140841338
0.0140783889
0.0147521516
0.0147437601
0.0140793711
0.0140914743
0.0147634924
0.0147438529
0.0140752329
0.0140838308
0.0147550721
0.0148514947
0.0146550416
0.0140841425
0.0140829996
0.01474589
0.0147310582
0.0140748746
0.0140802204
0.01474587
0.0148426136
0.0146370646
0.0140834787
0.01408433
0.0147386023
0.0147194044
0.0140722526
0.0140752771
0.0147138964
0.0148177779
0.0146104691
0.0140776306
0.0140682221
0.0146994091
0.0148068049
0.0145965027
0.0140825507
0.014065073
0.0147270404
0.0147941168
0.0147994886
0.0146597226
0.0140851937
0.0141026707
0.0147600012
0.0147464495
0.0140832934
0.0140765371
0.0147269832
0.0148559791
0.0146551293
0.0140976918
0.0141109756
0.0147624182
0.0147343426
0.0140967444
0.0141303815
0.0147547105
0.0147465458
0.0141086658
0.0140981617
0.0147973718
0.0148513533
0.0141650631
0.0140897992
0.0145228882
0.0148029134
0.0146949027
0.0141148174
0.0141142299
0.0147311985
0.0147556915
0.0141507267
0.0140822277
0.0146477023
0.0148450107
0.014590382
0.0141293475
0.0142075243
0.0147396528
0.0147465261
0.0141748605
0.0141169815
0.0146330248
0.0147445843
0.0142742803
0.0140938101
0.0144981744
0.0147994853
0.0147700051
0.0142234765
0.0140923855
0.0144182282
0.0147597153
0.0147647289
0.0142702112
0.0141004985
0.0143590408
0.0147433584
0.0147768113
0.0143532897
0.0141137664
0.0143128414
0.0147228446
0.0147713496
0.0144047882
0.0141232195
0.0142838437
0.0147081294
0.01477187
0.0144309456
0.0141275723
0.0142699392
0.0147013759
0.0147687098
0.0144346346
0.0141251327
)
;

boundaryField
{
    closed
    {
        type            zeroGradient;
    }
    open
    {
        type            zeroGradient;
    }
    sides
    {
        type            empty;
    }
    procBoundary1to0
    {
        type            processor;
        value           uniform 0.0146900157;
    }
    procBoundary1to2
    {
        type            processor;
        value           uniform 0.014268334;
    }
}


// ************************************************************************* //
