/*--------------------------------*- C++ -*----------------------------------*\
| =========                 |                                                 |
| \\      /  F ield         | OpenFOAM: The Open Source CFD Toolbox           |
|  \\    /   O peration     | Version:  2306                                  |
|   \\  /    A nd           | Website:  www.openfoam.com                      |
|    \\/     M anipulation  |                                                 |
\*---------------------------------------------------------------------------*/
FoamFile
{
    version     2.0;
    format      ascii;
    arch        "LSB;label=32;scalar=64";
    class       volScalarField;
    location    "0.00156";
    object      prefDh_H2O;
}
// * * * * * * * * * * * * * * * * * * * * * * * * * * * * * * * * * * * * * //

dimensions      [1 1 -3 0 0 0 0];

internalField   nonuniform List<scalar> 
531
(
92.3388147
92.3180616
92.340379
88.1521806
87.7590955
87.8560384
87.6261573
87.6133278
92.4293757
92.3748649
88.0062271
87.8772436
92.3820981
92.3380747
88.0976858
87.9866311
92.3079433
92.3519878
88.5820414
87.8631199
87.8852935
92.4311761
92.333735
87.9106568
87.8328283
92.5381034
92.3749335
92.4586082
87.790277
87.7088401
92.6072061
92.3406524
92.5224461
88.1369372
87.3058117
87.6628222
92.5952673
92.3777429
92.4727558
87.9598526
87.8325203
92.5770199
92.2965606
92.4593871
88.2972562
87.6918775
87.8059618
92.4526077
92.3790058
88.0926159
87.8216737
87.6602295
87.6867277
92.5924705
92.3531375
92.4540711
88.1479648
87.7384573
92.5164011
92.3531613
88.0183821
87.9062497
92.5316266
92.2981773
87.9975074
88.034391
92.4849921
88.4283984
87.800984
92.4569842
92.3429177
88.1636176
87.9354675
92.4542662
92.3875919
88.3716519
87.74326
87.8830344
92.5702779
92.2980469
92.3521511
87.9715588
87.6850846
92.5547879
92.4330438
88.2279327
87.8252145
87.9487447
87.6736377
87.6862379
92.6216841
92.3379831
92.4559871
92.2925026
92.3023932
88.0910101
87.6282097
87.6278498
92.5653506
92.3568108
88.0028595
87.8350356
92.6713094
92.319708
87.9888079
87.9984841
92.600644
88.2823313
87.7709266
92.6405975
92.3592421
88.0630032
87.8905566
92.6974174
92.3307469
87.9618952
87.9343393
92.7069777
92.2545701
92.4233095
88.4409852
87.7022253
87.7721492
92.51083
92.3783676
88.2101955
87.7384993
87.7536396
92.5382954
92.319417
88.1701177
87.9699289
92.6444271
92.2792895
88.2450965
88.0932421
92.5962368
92.2751692
88.4943498
88.0560359
87.9333946
87.922663
92.6863696
92.3336547
87.9610182
87.8842807
92.8048362
92.3314168
92.4761961
88.0644681
87.7398072
92.7864027
92.3752195
88.0732848
87.9062076
92.7786239
92.3381804
88.0608016
88.0176677
92.7830647
92.2738492
92.4825655
88.4602382
87.7762826
87.7753593
87.7637791
92.8331229
92.4006499
88.0221786
87.828104
92.8406743
92.3784802
87.9894217
87.9000918
92.8429208
92.3079775
92.4185212
88.2511709
87.5736532
87.6397438
92.6886441
92.3996132
88.042356
87.8317638
92.8687745
92.3939131
92.4431086
92.3844172
88.3417824
87.8629363
87.9155321
87.8818282
87.7346417
87.7569761
92.6131293
92.3726618
92.3487405
92.339313
88.499281
87.981097
87.8196676
87.8476325
92.6613608
92.3153714
92.4180209
88.1579901
87.9777423
92.7678811
92.2420812
92.3788466
88.5600248
87.735167
87.7962966
92.5312448
92.3987274
88.1804749
87.6137433
87.6367967
92.6178088
92.3595125
87.9663863
87.8360761
92.7745299
92.2610152
92.3701532
88.3651917
87.6481068
87.8827486
92.5825202
92.2613619
92.3085777
88.2045022
88.1504458
92.5960281
88.910387
87.863504
92.5284597
92.3019758
88.5031926
88.0005795
87.9587633
87.9683001
92.5344651
92.2690912
89.966785
88.0824743
87.9903922
87.9938684
87.7848706
87.8300379
92.5072987
92.2752244
92.3465292
88.247689
88.0800771
92.573335
92.211516
92.3314893
89.5408236
87.8074887
87.8301195
92.4101643
92.3668671
88.1820204
87.7186342
87.7107906
92.5017464
92.3177767
88.0505519
87.9673629
92.6067232
92.2311876
92.3575175
88.5695955
87.8062118
87.9485783
87.572799
87.5790246
92.6340689
92.3697796
92.5026369
92.3090303
92.377178
88.110804
87.6016736
87.6005173
92.5459762
92.3678571
87.9644191
87.9126427
92.6187072
92.2655994
92.4050016
88.4109045
87.808005
87.9623797
87.6115066
87.6093547
92.597769
92.4127202
92.5035832
87.9213572
87.6654851
92.650662
92.440276
92.4978115
92.4250976
87.9048724
87.7032608
92.5794432
92.4297967
92.3903142
92.4132545
88.2210824
87.7545362
87.8469928
87.6021151
87.575141
92.5285253
92.3642714
87.9783414
87.9578446
92.5138322
92.2303451
92.394006
89.0605537
87.8301184
87.9902823
87.6393832
87.6645854
92.4923543
92.3225675
92.3997164
88.0939391
87.9119975
92.4536811
92.2433772
92.383037
88.1782778
87.6211427
87.6525766
92.4305831
92.3124308
87.8840834
87.8577523
92.483394
92.1954165
92.4039476
88.4096883
87.5906948
87.7354342
87.2484242
87.2669752
92.5374708
92.4246489
92.4301841
92.4127655
92.2598744
92.3911132
87.8290961
86.8764668
87.0445645
92.379817
92.166583
92.2317649
87.2794621
87.0250637
92.0183676
92.001571
91.7430699
91.8226264
87.4291521
91.694992
91.2971763
86.8672546
86.7709004
91.1879533
90.9507969
90.8571805
87.5641755
86.237973
90.476093
90.0529804
90.0380389
89.6242309
89.5627305
89.1743098
89.0516514
88.7065904
88.5280432
88.2243406
88.0086596
87.7413125
87.5129676
87.2896531
87.1052678
87.0196223
86.9685944
86.6655975
86.364859
85.9950017
85.6477147
85.2160391
84.8130752
84.3206109
83.8566053
83.3110532
82.8394018
82.3992833
82.2445889
82.1928624
81.7081183
81.3309932
80.5366529
80.1795424
79.0716345
78.7896002
77.2421434
76.9609862
75.1531819
74.9352157
72.9689
72.726318
70.6296146
74.1609812
72.0901192
71.6133739
69.5495624
68.8761151
66.8484381
65.9382669
63.9441593
62.748196
60.7811232
59.2285339
57.9327304
56.8259658
55.5946898
54.4134633
53.1185559
51.9259271
50.5102895
51.2456684
48.9135625
46.2186772
41.6218008
36.4473739
35.9361633
39.8728461
20.0457919
15.6343469
9.34074428
4.34693742
-1.54171992
-6.4236377
-11.9391676
-17.7407234
-23.5480118
-30.575865
-36.7214695
-44.8495749
-51.1212794
-59.9385916
-66.0689855
-75.1648403
-80.8523277
-89.5405982
-94.5299296
-102.517496
-106.737807
-113.679849
-117.102084
-123.19655
-126.037877
-131.452229
-133.810713
-138.611691
-140.595189
-144.865105
-146.563227
-150.451641
-151.967276
-155.628386
-157.082102
-160.294838
-161.651407
-164.521978
-165.571699
-168.009662
-169.62728
-172.111303
-171.504486
-172.995059
-177.832512
-180.491778
-174.28136
-175.29223
-187.67054
-191.182054
-177.118837
-178.067417
-196.912752
-198.244004
-182.53332
-182.945094
-198.973453
-199.610789
-188.562646
-186.906062
-199.817486
-200.367708
-192.179813
-190.302097
-200.595971
-200.934268
-194.46434
-192.608139
-201.194851
-201.444391
-195.994072
-194.251118
-201.6664
-201.835809
-197.027294
-195.473815
-202.038513
-202.143211
-197.738321
-196.456377
-202.334907
-202.399548
)
;

boundaryField
{
    closed
    {
        type            calculated;
        value           nonuniform List<scalar> 0();
    }
    open
    {
        type            calculated;
        value           nonuniform List<scalar> 0();
    }
    sides
    {
        type            empty;
    }
    procBoundary4to3
    {
        type            processor;
        value           uniform 92.3848893;
    }
    procBoundary4to5
    {
        type            processor;
        value           uniform -198.269175;
    }
}


// ************************************************************************* //
