/*--------------------------------*- C++ -*----------------------------------*\
| =========                 |                                                 |
| \\      /  F ield         | OpenFOAM: The Open Source CFD Toolbox           |
|  \\    /   O peration     | Version:  2306                                  |
|   \\  /    A nd           | Website:  www.openfoam.com                      |
|    \\/     M anipulation  |                                                 |
\*---------------------------------------------------------------------------*/
FoamFile
{
    version     2.0;
    format      ascii;
    arch        "LSB;label=32;scalar=64";
    class       volScalarField;
    location    "0.00156";
    object      prefDZ_H2O;
}
// * * * * * * * * * * * * * * * * * * * * * * * * * * * * * * * * * * * * * //

dimensions      [1 -1 -1 0 0 0 0];

internalField   nonuniform List<scalar> 
531
(
-7.74200588e-07
-7.74047206e-07
-7.74217712e-07
-7.37984025e-07
-7.34101314e-07
-7.35088906e-07
-7.32799306e-07
-7.3270967e-07
-7.74945441e-07
-7.74503818e-07
-7.36536023e-07
-7.35272307e-07
-7.74564923e-07
-7.7417868e-07
-7.37446124e-07
-7.36325006e-07
-7.73957874e-07
-7.74281416e-07
-7.41714479e-07
-7.35101089e-07
-7.35372293e-07
-7.74943397e-07
-7.74157771e-07
-7.35591631e-07
-7.34839554e-07
-7.75850274e-07
-7.74486456e-07
-7.75190938e-07
-7.34428128e-07
-7.3361964e-07
-7.76431185e-07
-7.74193369e-07
-7.75726233e-07
-7.37814048e-07
-7.29634401e-07
-7.33169072e-07
-7.7631037e-07
-7.74503245e-07
-7.75296401e-07
-7.36081607e-07
-7.34820186e-07
-7.76166232e-07
-7.73820703e-07
-7.75195228e-07
-7.39380655e-07
-7.33426226e-07
-7.34571613e-07
-7.75117202e-07
-7.74517114e-07
-7.37384965e-07
-7.34705806e-07
-7.33146828e-07
-7.3339041e-07
-7.76293541e-07
-7.74296559e-07
-7.7516121e-07
-7.3792353e-07
-7.33919466e-07
-7.75645634e-07
-7.74319372e-07
-7.36659293e-07
-7.3556616e-07
-7.75785902e-07
-7.73860719e-07
-7.36470032e-07
-7.3681916e-07
-7.75416668e-07
-7.40447434e-07
-7.34534451e-07
-7.75164178e-07
-7.74224796e-07
-7.38098473e-07
-7.35826263e-07
-7.75144611e-07
-7.74570021e-07
-7.39959167e-07
-7.33909751e-07
-7.35353726e-07
-7.76099381e-07
-7.73869571e-07
-7.74316752e-07
-7.36220042e-07
-7.33367696e-07
-7.75964042e-07
-7.74940221e-07
-7.38731519e-07
-7.34710336e-07
-7.35998212e-07
-7.33228221e-07
-7.33418785e-07
-7.76499191e-07
-7.7419544e-07
-7.75156536e-07
-7.73823786e-07
-7.73910702e-07
-7.37399194e-07
-7.32809466e-07
-7.32857867e-07
-7.7603661e-07
-7.74368702e-07
-7.36490745e-07
-7.34881828e-07
-7.76911483e-07
-7.7404475e-07
-7.36368316e-07
-7.36460654e-07
-7.76351842e-07
-7.39240148e-07
-7.34231685e-07
-7.7664774e-07
-7.74371979e-07
-7.37081633e-07
-7.35411483e-07
-7.77127658e-07
-7.74135075e-07
-7.36102057e-07
-7.35837769e-07
-7.77221228e-07
-7.73495232e-07
-7.7491224e-07
-7.40537073e-07
-7.33544864e-07
-7.34254993e-07
-7.75604504e-07
-7.74532407e-07
-7.38562649e-07
-7.3389662e-07
-7.34086396e-07
-7.75820603e-07
-7.74063465e-07
-7.38137961e-07
-7.36204635e-07
-7.76686637e-07
-7.73723633e-07
-7.3886691e-07
-7.374e-07
-7.76286987e-07
-7.73673478e-07
-7.41006096e-07
-7.37022103e-07
-7.35814783e-07
-7.35724178e-07
-7.77032492e-07
-7.74163496e-07
-7.36096491e-07
-7.35348992e-07
-7.78020221e-07
-7.7413131e-07
-7.75336926e-07
-7.37113652e-07
-7.33934254e-07
-7.77843688e-07
-7.74507731e-07
-7.37167536e-07
-7.35557624e-07
-7.77772948e-07
-7.74186524e-07
-7.37048795e-07
-7.36633908e-07
-7.77819315e-07
-7.73634068e-07
-7.75371125e-07
-7.40719087e-07
-7.34258674e-07
-7.34242167e-07
-7.34149021e-07
-7.78204319e-07
-7.74705334e-07
-7.36657297e-07
-7.34785548e-07
-7.78273058e-07
-7.74518418e-07
-7.36336475e-07
-7.35481641e-07
-7.78301752e-07
-7.73916322e-07
-7.74845283e-07
-7.38944332e-07
-7.32233279e-07
-7.3293823e-07
-7.77022544e-07
-7.74704183e-07
-7.36857441e-07
-7.34823912e-07
-7.78508533e-07
-7.74643796e-07
-7.75025223e-07
-7.74573748e-07
-7.39724564e-07
-7.35115579e-07
-7.35646766e-07
-7.35300661e-07
-7.338575e-07
-7.3406706e-07
-7.76437479e-07
-7.74462264e-07
-7.74265283e-07
-7.74198033e-07
-7.41029408e-07
-7.36276581e-07
-7.34710862e-07
-7.34967353e-07
-7.7685522e-07
-7.7399388e-07
-7.74868491e-07
-7.3803352e-07
-7.36270563e-07
-7.77719589e-07
-7.73392523e-07
-7.74538759e-07
-7.41535793e-07
-7.33865783e-07
-7.34483472e-07
-7.7577315e-07
-7.74695508e-07
-7.38272391e-07
-7.32666733e-07
-7.32939878e-07
-7.76477501e-07
-7.7439713e-07
-7.36144287e-07
-7.34897131e-07
-7.77774952e-07
-7.73561599e-07
-7.74470837e-07
-7.39903018e-07
-7.33009424e-07
-7.35344112e-07
-7.76206918e-07
-7.7356294e-07
-7.73962211e-07
-7.3850084e-07
-7.37961132e-07
-7.76324895e-07
-7.44459441e-07
-7.35157464e-07
-7.75747762e-07
-7.73911553e-07
-7.410518e-07
-7.36493413e-07
-7.36093311e-07
-7.36181241e-07
-7.75811772e-07
-7.73626434e-07
-7.53353294e-07
-7.37306027e-07
-7.3640577e-07
-7.36433559e-07
-7.3438659e-07
-7.34820322e-07
-7.75607372e-07
-7.73672163e-07
-7.74282505e-07
-7.3891519e-07
-7.37276455e-07
-7.76139209e-07
-7.73145044e-07
-7.74154043e-07
-7.49751434e-07
-7.3461368e-07
-7.34826341e-07
-7.74807739e-07
-7.74438714e-07
-7.38300188e-07
-7.33707808e-07
-7.33680429e-07
-7.75530111e-07
-7.74047514e-07
-7.36966316e-07
-7.36176752e-07
-7.76399616e-07
-7.73304281e-07
-7.74343852e-07
-7.41617145e-07
-7.34546822e-07
-7.35987427e-07
-7.32249643e-07
-7.32363093e-07
-7.76615881e-07
-7.74457129e-07
-7.75536197e-07
-7.73954872e-07
-7.74503758e-07
-7.37581188e-07
-7.32529842e-07
-7.32580737e-07
-7.75876278e-07
-7.74444075e-07
-7.36101684e-07
-7.35623914e-07
-7.76493316e-07
-7.73572302e-07
-7.7472417e-07
-7.40323542e-07
-7.34546634e-07
-7.36098136e-07
-7.32620256e-07
-7.32626676e-07
-7.76311929e-07
-7.74778268e-07
-7.7553528e-07
-7.3569137e-07
-7.33169405e-07
-7.76767898e-07
-7.75013899e-07
-7.75497081e-07
-7.74898075e-07
-7.35535643e-07
-7.3355169e-07
-7.76196877e-07
-7.74933587e-07
-7.74630559e-07
-7.74800858e-07
-7.386526e-07
-7.34029856e-07
-7.34992756e-07
-7.32540098e-07
-7.32330631e-07
-7.75743278e-07
-7.74415522e-07
-7.36249052e-07
-7.36070307e-07
-7.75654922e-07
-7.73292421e-07
-7.74650805e-07
-7.45716659e-07
-7.34795533e-07
-7.36397611e-07
-7.32937956e-07
-7.33208608e-07
-7.75492854e-07
-7.74068313e-07
-7.74726722e-07
-7.37419744e-07
-7.35633479e-07
-7.75195313e-07
-7.73421168e-07
-7.74595963e-07
-7.38257215e-07
-7.32771727e-07
-7.33130718e-07
-7.74986022e-07
-7.74030305e-07
-7.35374756e-07
-7.35142744e-07
-7.75459106e-07
-7.73059907e-07
-7.74785588e-07
-7.40218187e-07
-7.32494308e-07
-7.33976335e-07
-7.29172915e-07
-7.29406913e-07
-7.75966422e-07
-7.7503037e-07
-7.75102354e-07
-7.74959983e-07
-7.73705685e-07
-7.74817797e-07
-7.35001193e-07
-7.25721051e-07
-7.27431349e-07
-7.74822389e-07
-7.73094048e-07
-7.73630132e-07
-7.29829234e-07
-7.2735703e-07
-7.7187567e-07
-7.71774791e-07
-7.69614147e-07
-7.70235635e-07
-7.31357308e-07
-7.69070602e-07
-7.65889432e-07
-7.26164895e-07
-7.25318917e-07
-7.64750148e-07
-7.62812197e-07
-7.61977486e-07
-7.32086985e-07
-7.20480615e-07
-7.58583339e-07
-7.55158496e-07
-7.54931976e-07
-7.5154611e-07
-7.50976354e-07
-7.47768827e-07
-7.46707901e-07
-7.43852467e-07
-7.42337519e-07
-7.39832498e-07
-7.38026768e-07
-7.35844026e-07
-7.33969321e-07
-7.32204351e-07
-7.30792911e-07
-7.30360809e-07
-7.30129656e-07
-7.27366622e-07
-7.24653899e-07
-7.21349843e-07
-7.18278842e-07
-7.14491433e-07
-7.10989179e-07
-7.06737316e-07
-7.02765356e-07
-6.98077433e-07
-6.94001542e-07
-6.9020659e-07
-6.88911585e-07
-6.88476382e-07
-6.8429619e-07
-6.81078091e-07
-6.74316183e-07
-6.71319868e-07
-6.61945338e-07
-6.59630581e-07
-6.4643762e-07
-6.44063075e-07
-6.28567252e-07
-6.26752968e-07
-6.09900778e-07
-6.07892827e-07
-5.89926646e-07
-6.22531658e-07
-6.04643705e-07
-6.00587494e-07
-5.82781167e-07
-5.77008018e-07
-5.59537785e-07
-5.5171462e-07
-5.3454564e-07
-5.24250492e-07
-5.07301902e-07
-4.93903046e-07
-4.83028534e-07
-4.73800609e-07
-4.6353454e-07
-4.5368577e-07
-4.42889158e-07
-4.32945319e-07
-4.21142089e-07
-4.27273493e-07
-4.07886079e-07
-3.85576129e-07
-3.47984505e-07
-3.05692623e-07
-3.01863514e-07
-3.33807061e-07
-1.69816332e-07
-1.32914307e-07
-7.96917447e-08
-3.72271557e-08
1.32557424e-08
5.54012051e-08
1.03266126e-07
1.54082682e-07
2.0520182e-07
2.67781918e-07
3.22786805e-07
3.96532202e-07
4.53760683e-07
5.35428862e-07
5.92514582e-07
6.78552068e-07
7.32666232e-07
8.16797115e-07
8.65367805e-07
9.44595113e-07
9.86672531e-07
1.05739563e-06
1.09242529e-06
1.15644781e-06
1.18620363e-06
1.24430734e-06
1.26939383e-06
1.32189521e-06
1.34325131e-06
1.39074102e-06
1.40918299e-06
1.45313876e-06
1.46973646e-06
1.51184789e-06
1.52802403e-06
1.5655952e-06
1.58048919e-06
1.61434559e-06
1.62666721e-06
1.65634227e-06
1.67271852e-06
1.70256375e-06
1.69861893e-06
1.7189656e-06
1.76908764e-06
1.80080923e-06
1.73848417e-06
1.75640999e-06
1.88155504e-06
1.92250035e-06
1.78035612e-06
1.79532824e-06
1.98799692e-06
2.00621899e-06
1.83843892e-06
1.85059146e-06
2.01408617e-06
2.02589821e-06
1.90834084e-06
1.89677361e-06
2.02973257e-06
2.04020842e-06
1.95239211e-06
1.93746532e-06
2.04456594e-06
2.05107489e-06
1.98136551e-06
1.96605642e-06
2.05610263e-06
2.06104036e-06
2.00152128e-06
1.98691111e-06
2.06543247e-06
2.06880196e-06
2.01580124e-06
2.00259683e-06
2.07283406e-06
2.07491992e-06
2.02619728e-06
2.01523553e-06
2.07875432e-06
2.08007333e-06
)
;

boundaryField
{
    closed
    {
        type            calculated;
        value           nonuniform List<scalar> 0();
    }
    open
    {
        type            calculated;
        value           nonuniform List<scalar> 0();
    }
    sides
    {
        type            empty;
    }
    procBoundary4to3
    {
        type            processor;
        value           uniform -7.74616133e-07;
    }
    procBoundary4to5
    {
        type            processor;
        value           uniform 2.0344371e-06;
    }
}


// ************************************************************************* //
