/*--------------------------------*- C++ -*----------------------------------*\
| =========                 |                                                 |
| \\      /  F ield         | OpenFOAM: The Open Source CFD Toolbox           |
|  \\    /   O peration     | Version:  2306                                  |
|   \\  /    A nd           | Website:  www.openfoam.com                      |
|    \\/     M anipulation  |                                                 |
\*---------------------------------------------------------------------------*/
FoamFile
{
    version     2.0;
    format      ascii;
    arch        "LSB;label=32;scalar=64";
    class       volScalarField;
    location    "0.00132";
    object      prefDZ_T;
}
// * * * * * * * * * * * * * * * * * * * * * * * * * * * * * * * * * * * * * //

dimensions      [1 -1 -1 -1 0 0 0];

internalField   nonuniform List<scalar> 
531
(
-1.19788689e-09
-1.18739529e-09
-1.18825389e-09
-1.22702347e-09
-1.22742619e-09
-1.19686197e-09
-1.18718235e-09
-1.18807494e-09
-1.22697508e-09
-1.22760174e-09
-1.19498558e-09
-1.18680082e-09
-1.1872493e-09
-1.22738089e-09
-1.22678519e-09
-1.19012309e-09
-1.18913308e-09
-1.22723622e-09
-1.22644014e-09
-1.18983101e-09
-1.18952966e-09
-1.22709736e-09
-1.22710194e-09
-1.1930202e-09
-1.18681445e-09
-1.18764869e-09
-1.22735723e-09
-1.22806065e-09
-1.19110441e-09
-1.18429754e-09
-1.18580372e-09
-1.2300074e-09
-1.22803268e-09
-1.2289266e-09
-1.228013e-09
-1.22726022e-09
-1.22770252e-09
-1.19678968e-09
-1.18799783e-09
-1.18904427e-09
-1.18680158e-09
-1.18715357e-09
-1.22735338e-09
-1.22773032e-09
-1.19194477e-09
-1.18531356e-09
-1.18781155e-09
-1.22897851e-09
-1.2257204e-09
-1.22773578e-09
-1.19461429e-09
-1.18675932e-09
-1.18757819e-09
-1.22738092e-09
-1.22625839e-09
-1.19055227e-09
-1.18977568e-09
-1.22699296e-09
-1.22651796e-09
-1.19452368e-09
-1.18859696e-09
-1.18908153e-09
-1.18651081e-09
-1.18753817e-09
-1.22914822e-09
-1.22626277e-09
-1.22838628e-09
-1.22574293e-09
-1.22734648e-09
-1.19191164e-09
-1.18655063e-09
-1.18738889e-09
-1.22754923e-09
-1.22691888e-09
-1.19325344e-09
-1.18700543e-09
-1.18832157e-09
-1.22726802e-09
-1.2267275e-09
-1.19465802e-09
-1.18749268e-09
-1.18862084e-09
-1.22727331e-09
-1.22652166e-09
-1.19555573e-09
-1.18767214e-09
-1.18887174e-09
-1.22729942e-09
-1.22645177e-09
-1.19641188e-09
-1.18797963e-09
-1.18899191e-09
-1.22749006e-09
-1.22590933e-09
-1.19549861e-09
-1.18913091e-09
-1.18877665e-09
-1.18970066e-09
-1.22760498e-09
-1.22580753e-09
-1.19015376e-09
-1.1890593e-09
-1.22926931e-09
-1.22654392e-09
-1.19545207e-09
-1.1875994e-09
-1.18849487e-09
-1.22815096e-09
-1.22654493e-09
-1.19534692e-09
-1.18758539e-09
-1.18890564e-09
-1.22810385e-09
-1.22685781e-09
-1.19501848e-09
-1.1868999e-09
-1.18937885e-09
-1.22942193e-09
-1.22537686e-09
-1.22634973e-09
-1.19430286e-09
-1.18832552e-09
-1.18756686e-09
-1.18774405e-09
-1.23053847e-09
-1.22690058e-09
-1.18934846e-09
-1.18834772e-09
-1.23061199e-09
-1.22687866e-09
-1.19300186e-09
-1.18767045e-09
-1.19023326e-09
-1.22836803e-09
-1.22614313e-09
-1.19585602e-09
-1.18781531e-09
-1.18919505e-09
-1.2287473e-09
-1.22645047e-09
-1.19149488e-09
-1.18794165e-09
-1.20444295e-09
-1.22832824e-09
-1.22529316e-09
-1.18809211e-09
-1.18807363e-09
-1.23201251e-09
-1.2261125e-09
-1.22682126e-09
-1.19077684e-09
-1.18756135e-09
-1.18914056e-09
-1.22922887e-09
-1.22635269e-09
-1.19616854e-09
-1.18803121e-09
-1.18962954e-09
-1.22882265e-09
-1.22640278e-09
-1.19503773e-09
-1.18754362e-09
-1.18844251e-09
-1.2295309e-09
-1.22621491e-09
-1.19082474e-09
-1.18883044e-09
-1.23176394e-09
-1.2263302e-09
-1.19422583e-09
-1.18873066e-09
-1.18828519e-09
-1.18842967e-09
-1.229825e-09
-1.22638986e-09
-1.19340258e-09
-1.18848773e-09
-1.19908554e-09
-1.22775678e-09
-1.22642618e-09
-1.19552643e-09
-1.18728197e-09
-1.18860062e-09
-1.22986421e-09
-1.2262442e-09
-1.1905935e-09
-1.18864474e-09
-1.23220712e-09
-1.22700274e-09
-1.19365673e-09
-1.1869369e-09
-1.18789774e-09
-1.22998252e-09
-1.22627374e-09
-1.1916443e-09
-1.18932232e-09
-1.23160374e-09
-1.22650561e-09
-1.19734982e-09
-1.18788584e-09
-1.18885104e-09
-1.22913399e-09
-1.22650907e-09
-1.19525256e-09
-1.187234e-09
-1.18857853e-09
-1.22911059e-09
-1.22662579e-09
-1.19521709e-09
-1.18741696e-09
-1.18916346e-09
-1.22929789e-09
-1.22604744e-09
-1.19037326e-09
-1.18855167e-09
-1.23109716e-09
-1.22663253e-09
-1.19655406e-09
-1.18808914e-09
-1.18993413e-09
-1.22854013e-09
-1.22626742e-09
-1.1948873e-09
-1.18713593e-09
-1.18863104e-09
-1.22856358e-09
-1.22690151e-09
-1.19469545e-09
-1.18683022e-09
-1.18905723e-09
-1.22941716e-09
-1.22630659e-09
-1.22715181e-09
-1.22647957e-09
-1.20250265e-09
-1.18961142e-09
-1.18953766e-09
-1.18898753e-09
-1.1886276e-09
-1.18632419e-09
-1.18765604e-09
-1.23026825e-09
-1.22646662e-09
-1.22841079e-09
-1.19015839e-09
-1.18909107e-09
-1.22885026e-09
-1.22809981e-09
-1.19163837e-09
-1.18669494e-09
-1.18799165e-09
-1.22774436e-09
-1.22742194e-09
-1.19003013e-09
-1.18873608e-09
-1.22817562e-09
-1.2279182e-09
-1.1899936e-09
-1.1890567e-09
-1.22790543e-09
-1.22829913e-09
-1.19064068e-09
-1.19036776e-09
-1.22767e-09
-1.22622435e-09
-1.2096685e-09
-1.18968497e-09
-1.189406e-09
-1.18937019e-09
-1.18811096e-09
-1.19145013e-09
-1.22740476e-09
-1.22645215e-09
-1.2268122e-09
-1.22863369e-09
-1.19232519e-09
-1.18863076e-09
-1.18954794e-09
-1.18847778e-09
-1.19199104e-09
-1.22697031e-09
-1.2271722e-09
-1.20339682e-09
-1.18860892e-09
-1.19073578e-09
-1.22673337e-09
-1.22906349e-09
-1.19038333e-09
-1.18668103e-09
-1.18945992e-09
-1.2271975e-09
-1.23054581e-09
-1.18981272e-09
-1.19072579e-09
-1.22693722e-09
-1.22884812e-09
-1.19124617e-09
-1.18739398e-09
-1.19135829e-09
-1.22697706e-09
-1.22906479e-09
-1.19032881e-09
-1.18687825e-09
-1.18998438e-09
-1.22715908e-09
-1.2305127e-09
-1.18980158e-09
-1.19101355e-09
-1.22663149e-09
-1.22878663e-09
-1.19107044e-09
-1.18740924e-09
-1.19186726e-09
-1.22681308e-09
-1.22875307e-09
-1.19019288e-09
-1.1869426e-09
-1.19145085e-09
-1.22676531e-09
-1.22842307e-09
-1.19036841e-09
-1.18782218e-09
-1.19554551e-09
-1.22648249e-09
-1.22919854e-09
-1.19057834e-09
-1.19274648e-09
-1.2259629e-09
-1.22754625e-09
-1.19486702e-09
-1.18856489e-09
-1.18766114e-09
-1.18991321e-09
-1.22727863e-09
-1.23019403e-09
-1.18889654e-09
-1.18994173e-09
-1.22729638e-09
-1.23010974e-09
-1.18916468e-09
-1.19051096e-09
-1.22773241e-09
-1.22564207e-09
-1.22975478e-09
-1.19098065e-09
-1.1883688e-09
-1.18866334e-09
-1.18714519e-09
-1.19007886e-09
-1.22727241e-09
-1.22837047e-09
-1.19048578e-09
-1.18705011e-09
-1.1906582e-09
-1.2278326e-09
-1.22902171e-09
-1.18929127e-09
-1.19027241e-09
-1.22721184e-09
-1.22884583e-09
-1.1896452e-09
-1.19133588e-09
-1.22678261e-09
-1.22797807e-09
-1.19025821e-09
-1.18727732e-09
-1.19108221e-09
-1.22799758e-09
-1.22863192e-09
-1.1897847e-09
-1.19103359e-09
-1.22714184e-09
-1.22795585e-09
-1.1896511e-09
-1.18665546e-09
-1.190519e-09
-1.22838832e-09
-1.22868979e-09
-1.18956469e-09
-1.19075278e-09
-1.22734234e-09
-1.2279749e-09
-1.18962974e-09
-1.18653275e-09
-1.19041519e-09
-1.22856641e-09
-1.22866729e-09
-1.18945726e-09
-1.19053819e-09
-1.22756083e-09
-1.22814657e-09
-1.18939398e-09
-1.18614164e-09
-1.18996771e-09
-1.22889653e-09
-1.22889031e-09
-1.18907091e-09
-1.18957352e-09
-1.22830357e-09
-1.22872941e-09
-1.18920782e-09
-1.18996209e-09
-1.2279668e-09
-1.22841546e-09
-1.1895366e-09
-1.19073405e-09
-1.22732871e-09
-1.22818978e-09
-1.18985668e-09
-1.18639422e-09
-1.19002991e-09
-1.22862789e-09
-1.22824468e-09
-1.18936768e-09
-1.18964763e-09
-1.22770546e-09
-1.22809463e-09
-1.18973063e-09
-1.19074575e-09
-1.22694014e-09
-1.22798976e-09
-1.19048008e-09
-1.18682494e-09
-1.19037524e-09
-1.22813769e-09
-1.22740941e-09
-1.19015737e-09
-1.19080102e-09
-1.22649832e-09
-1.22705207e-09
-1.19605639e-09
-1.18839897e-09
-1.1927075e-09
-1.22720855e-09
-1.22683846e-09
-1.19216971e-09
-1.18846571e-09
-1.18767945e-09
-1.18989417e-09
-1.22778794e-09
-1.22805645e-09
-1.18998416e-09
-1.18563313e-09
-1.18887337e-09
-1.22895592e-09
-1.2274247e-09
-1.18924839e-09
-1.18865914e-09
-1.22886131e-09
-1.22764926e-09
-1.18976986e-09
-1.18911245e-09
-1.22885008e-09
-1.2273169e-09
-1.1907024e-09
-1.19000733e-09
-1.23430393e-09
-1.22566717e-09
-1.22988264e-09
-1.19291147e-09
-1.18879832e-09
-1.18869518e-09
-1.18776645e-09
-1.19020013e-09
-1.22891257e-09
-1.22626392e-09
-1.20591067e-09
-1.18903737e-09
-1.19009085e-09
-1.22879625e-09
-1.22708506e-09
-1.1911169e-09
-1.1898089e-09
-1.23067168e-09
-1.22734823e-09
-1.19166728e-09
-1.19053399e-09
-1.2306244e-09
-1.22783921e-09
-1.19639044e-09
-1.18762408e-09
-1.19054996e-09
-1.22974063e-09
-1.22780159e-09
-1.19510779e-09
-1.18768112e-09
-1.19056256e-09
-1.23011599e-09
-1.22775072e-09
-1.19473433e-09
-1.18855365e-09
-1.18763832e-09
-1.18913622e-09
-1.23100112e-09
-1.22842421e-09
-1.22878783e-09
-1.22862745e-09
-1.19651694e-09
-1.1878284e-09
-1.18964103e-09
-1.23111894e-09
-1.22926495e-09
-1.19094488e-09
-1.18951883e-09
-1.23008341e-09
-1.23007091e-09
-1.19632948e-09
-1.18735519e-09
-1.18983452e-09
-1.23067451e-09
-1.22896707e-09
-1.19704418e-09
-1.1880945e-09
-1.19028168e-09
-1.23041427e-09
-1.2291622e-09
-1.19655474e-09
-1.18788437e-09
-1.18999311e-09
-1.23043114e-09
-1.22883503e-09
-1.19890962e-09
-1.18846847e-09
-1.19012808e-09
-1.23083158e-09
-1.2276109e-09
-1.20543776e-09
-1.19019793e-09
-1.1887506e-09
-1.18775313e-09
-1.1885677e-09
)
;

boundaryField
{
    closed
    {
        type            calculated;
        value           nonuniform List<scalar> 0();
    }
    open
    {
        type            calculated;
        value           nonuniform List<scalar> 0();
    }
    sides
    {
        type            empty;
    }
    procBoundary3to2
    {
        type            processor;
        value           uniform -1.22748238e-09;
    }
    procBoundary3to4
    {
        type            processor;
        value           uniform -1.22322739e-09;
    }
}


// ************************************************************************* //
