/*--------------------------------*- C++ -*----------------------------------*\
| =========                 |                                                 |
| \\      /  F ield         | OpenFOAM: The Open Source CFD Toolbox           |
|  \\    /   O peration     | Version:  2306                                  |
|   \\  /    A nd           | Website:  www.openfoam.com                      |
|    \\/     M anipulation  |                                                 |
\*---------------------------------------------------------------------------*/
FoamFile
{
    version     2.0;
    format      ascii;
    arch        "LSB;label=32;scalar=64";
    class       volScalarField;
    location    "0.00132";
    object      prefDh_T;
}
// * * * * * * * * * * * * * * * * * * * * * * * * * * * * * * * * * * * * * //

dimensions      [1 1 -3 -1 0 0 0];

internalField   nonuniform List<scalar> 
531
(
-0.000591409863
-0.000508306158
-0.000535818885
-0.000752526019
-0.000741718288
-0.000591953271
-0.000504167062
-0.000530324584
-0.000753151639
-0.000741365037
-0.000590726848
-0.000491491425
-0.000515720206
-0.000748153097
-0.000749145735
-0.00058227863
-0.000562523928
-0.000751520173
-0.000748671862
-0.000577362162
-0.000569770689
-0.000751582851
-0.000744844811
-0.000597002223
-0.00049477438
-0.000515015404
-0.000747604841
-0.000740754182
-0.000601235522
-0.000418376758
-0.000470522148
-0.000741538676
-0.000742120274
-0.00074243346
-0.000741750763
-0.000741936659
-0.000741750292
-0.000594950225
-0.000521435291
-0.000552064914
-0.000494753603
-0.000500934148
-0.000748490866
-0.0007422426
-0.000594022597
-0.000448754311
-0.000529755895
-0.000741689918
-0.000748768184
-0.000743379063
-0.00058958015
-0.000489157031
-0.000524956524
-0.000743612436
-0.000749576255
-0.000598335984
-0.000574559499
-0.000748026243
-0.000743572585
-0.000590318786
-0.000535862488
-0.000560243728
-0.000481287469
-0.000519726291
-0.000741041301
-0.00074833678
-0.00074296273
-0.000749552939
-0.000744680421
-0.000593262873
-0.000485171707
-0.000517559145
-0.000743421817
-0.000748571496
-0.000594549423
-0.000504016453
-0.000538024008
-0.00074651124
-0.000747211246
-0.000590425597
-0.000516278547
-0.000547577415
-0.000746082131
-0.000748245521
-0.000589653796
-0.00052224953
-0.000553619019
-0.000746420814
-0.00074781242
-0.000587848838
-0.000528779121
-0.000559953975
-0.000743787169
-0.000751470652
-0.000590919652
-0.000564738598
-0.00055102807
-0.000577572214
-0.000744295973
-0.000752822259
-0.000593522209
-0.000561757093
-0.000738998362
-0.000749097007
-0.00058884384
-0.000518485302
-0.000544012752
-0.000740946907
-0.000748681974
-0.000591570109
-0.000518636975
-0.000550132842
-0.000742387002
-0.000745406794
-0.000588847497
-0.000494329859
-0.000567346912
-0.000738087061
-0.000748084945
-0.000748729821
-0.000591038092
-0.000533855035
-0.000518402483
-0.000520262883
-0.000732998533
-0.000748213508
-0.000570972025
-0.000539493318
-0.000733354871
-0.00074767567
-0.000590591536
-0.000517236684
-0.00059157996
-0.000738673906
-0.000749587681
-0.00059080352
-0.000522990838
-0.000559900807
-0.000738805372
-0.000748428202
-0.000593577326
-0.000524356207
-0.00059311986
-0.000735778849
-0.000668114959
-0.00052472084
-0.000522476649
-0.000719813782
-0.000744601783
-0.000675186403
-0.000593679365
-0.000502541434
-0.000557986282
-0.000733021637
-0.00074866723
-0.000591766718
-0.000529319651
-0.000569462736
-0.000737844328
-0.000747728948
-0.000589905842
-0.000513955804
-0.000542441547
-0.000735414272
-0.000753008708
-0.000597150676
-0.000556732407
-0.000724149333
-0.000749666904
-0.000592839402
-0.000549481576
-0.000537426088
-0.000538857788
-0.000733526136
-0.000749730366
-0.000589441566
-0.00054380206
-0.000586078882
-0.000739623378
-0.000749573646
-0.000589324391
-0.000505876968
-0.00054573083
-0.000734299672
-0.000751815322
-0.000598492364
-0.000549519486
-0.000724178981
-0.000746506156
-0.00059239212
-0.000494903017
-0.000527614318
-0.00073354979
-0.000751431351
-0.000598624355
-0.000566798524
-0.000726366379
-0.000747238494
-0.000591114059
-0.0005240446
-0.000551216178
-0.000737978004
-0.000749307339
-0.000590390976
-0.00050865511
-0.00054380622
-0.000739372502
-0.000747723727
-0.000589620195
-0.00051001212
-0.000563961883
-0.000738573035
-0.000755903722
-0.000592960656
-0.000549030828
-0.000731725618
-0.000746687285
-0.000591326324
-0.000527372682
-0.000582452755
-0.000740390304
-0.000750520964
-0.000592459886
-0.000506429809
-0.000543778947
-0.000743664961
-0.000745618527
-0.000591177653
-0.000491942571
-0.000557189204
-0.000740918604
-0.000746931501
-0.000742935616
-0.000745881378
-0.000593999026
-0.00056393399
-0.000566494258
-0.000540079713
-0.00054097801
-0.000466035062
-0.000515057078
-0.000744160265
-0.000742939671
-0.00073908417
-0.000582127498
-0.000550006844
-0.000745707371
-0.000736203355
-0.000598602436
-0.00048199747
-0.000534280759
-0.000746157074
-0.000745826993
-0.00057393392
-0.000556960437
-0.000748621696
-0.000743265234
-0.000574780217
-0.000566866401
-0.000750095946
-0.000740669909
-0.000593359265
-0.000593979865
-0.000750237461
-0.000745979427
-0.000607123425
-0.000576925807
-0.000558638114
-0.000569009877
-0.000525642699
-0.000592108444
-0.000751342548
-0.000749546241
-0.000748402226
-0.000740160162
-0.000594493981
-0.00054136262
-0.000573426045
-0.000536214633
-0.000591758509
-0.000749279517
-0.00074196501
-0.000592183668
-0.000548974701
-0.000593812776
-0.000754966461
-0.000736017329
-0.000594201271
-0.000491362521
-0.000581655942
-0.000750929526
-0.000731313984
-0.000576793815
-0.000594813614
-0.000754045838
-0.000736912632
-0.000597207151
-0.000508700312
-0.000593054639
-0.000750891707
-0.000736490589
-0.000592184572
-0.000493602228
-0.000590095165
-0.000749225908
-0.00073189956
-0.000575848437
-0.000598798654
-0.000754103388
-0.000737309229
-0.000597132356
-0.000508043991
-0.000593134631
-0.000751369959
-0.000739730967
-0.00058947246
-0.00049741742
-0.000592514905
-0.000752544218
-0.000741777256
-0.000596030201
-0.000520511839
-0.000589246281
-0.000749201976
-0.000742068354
-0.000598504825
-0.000595752172
-0.000754812641
-0.00074233993
-0.000593519513
-0.000540189524
-0.000518157536
-0.000578036955
-0.000748676932
-0.000738111965
-0.000548663709
-0.000570144587
-0.00074759495
-0.000740009365
-0.000552604291
-0.000591181975
-0.000744849472
-0.000746304694
-0.000736539468
-0.000600968114
-0.000517273894
-0.000546634555
-0.000495051367
-0.000582968187
-0.000748932803
-0.000743359904
-0.000594484764
-0.000489892027
-0.000597157441
-0.000743371162
-0.000746579082
-0.000559284304
-0.000575940004
-0.000748011483
-0.000745484139
-0.000572244219
-0.000603153935
-0.000750332632
-0.000742798393
-0.000589556562
-0.000494131063
-0.00060208023
-0.000742311835
-0.000749408935
-0.00057480161
-0.000596194691
-0.000748917258
-0.000744886092
-0.000573436131
-0.000477137963
-0.000591754195
-0.000741665573
-0.00075055724
-0.000568753182
-0.000588018946
-0.000748661355
-0.000745203004
-0.000572256646
-0.000472643709
-0.0005880376
-0.000741032431
-0.000750944097
-0.000564348849
-0.000581428883
-0.000748303531
-0.000744883175
-0.000564292032
-0.000460619843
-0.000574572468
-0.000740057593
-0.000749994893
-0.000549823296
-0.000555215866
-0.000744083068
-0.000747434497
-0.000554588686
-0.000564153
-0.000745957197
-0.000748467124
-0.000565534125
-0.000584872335
-0.000750485295
-0.000743905201
-0.000576364048
-0.000466734167
-0.000577883208
-0.00074131792
-0.000751790556
-0.000556099757
-0.000560015903
-0.000747739335
-0.00074943082
-0.000570460051
-0.000586994761
-0.00075267029
-0.00074378045
-0.00059487624
-0.000479565947
-0.000590647783
-0.000744088509
-0.000755581846
-0.000581165791
-0.000594947399
-0.000753717892
-0.000745128804
-0.000590328869
-0.000528978904
-0.000595008582
-0.000746666541
-0.000752862022
-0.000604295091
-0.000534638683
-0.000513044446
-0.000569159481
-0.000751378291
-0.000746141508
-0.000581757991
-0.000449580291
-0.000550638307
-0.000741507489
-0.000752527827
-0.000551580265
-0.000540015925
-0.00074301946
-0.000748668501
-0.000567483643
-0.000550828822
-0.000742039746
-0.000752362986
-0.000579087409
-0.000579462894
-0.00071752739
-0.000748863521
-0.000732611793
-0.00059093338
-0.000526055424
-0.000552661511
-0.000505261297
-0.000589603341
-0.000743974317
-0.000749793263
-0.000598815071
-0.000550490695
-0.000580255633
-0.000744431589
-0.000754436919
-0.000604984413
-0.000571961509
-0.000737502042
-0.000751982436
-0.000606599314
-0.000587137401
-0.000739918418
-0.000744609926
-0.000590531234
-0.000502168125
-0.000595140148
-0.000740456847
-0.000747777821
-0.000591894695
-0.000501383662
-0.000594711565
-0.000736546355
-0.000751152448
-0.000599838086
-0.000535537166
-0.000499238826
-0.000545754373
-0.00069816003
-0.000738329916
-0.000734933174
-0.000736453793
-0.000592616737
-0.000497915317
-0.000563465522
-0.000734944817
-0.000745312643
-0.000591050631
-0.000548084031
-0.000693286115
-0.000734995073
-0.000592698367
-0.00048147828
-0.00057128666
-0.000739134106
-0.000740082446
-0.00059376865
-0.000504664657
-0.000583466873
-0.000741410056
-0.000739680522
-0.000592477344
-0.00049975202
-0.000580168052
-0.000742787449
-0.000741556856
-0.000591135056
-0.000517190322
-0.000587922321
-0.000740562316
-0.000746896219
-0.000598543037
-0.000577675568
-0.000546328726
-0.000508064176
-0.000539156247
)
;

boundaryField
{
    closed
    {
        type            calculated;
        value           nonuniform List<scalar> 0();
    }
    open
    {
        type            calculated;
        value           nonuniform List<scalar> 0();
    }
    sides
    {
        type            empty;
    }
    procBoundary3to2
    {
        type            processor;
        value           uniform -0.000740431051;
    }
    procBoundary3to4
    {
        type            processor;
        value           uniform -0.000658359138;
    }
}


// ************************************************************************* //
