/*--------------------------------*- C++ -*----------------------------------*\
| =========                 |                                                 |
| \\      /  F ield         | OpenFOAM: The Open Source CFD Toolbox           |
|  \\    /   O peration     | Version:  2306                                  |
|   \\  /    A nd           | Website:  www.openfoam.com                      |
|    \\/     M anipulation  |                                                 |
\*---------------------------------------------------------------------------*/
FoamFile
{
    version     2.0;
    format      ascii;
    arch        "LSB;label=32;scalar=64";
    class       volScalarField;
    location    "0.00018";
    object      H2O;
}
// * * * * * * * * * * * * * * * * * * * * * * * * * * * * * * * * * * * * * //

dimensions      [0 0 0 0 0 0 0];

internalField   nonuniform List<scalar> 
530
(
0.00455749408
0.00453048325
0.00450720916
0.00450714398
0.00450713545
0.00450713543
0.00450713542
0.00450713542
0.00450713542
0.00450713542
0.00450713542
0.00450713542
0.00450713542
0.00450713542
0.00450713542
0.00450713542
0.00450713542
0.00450713542
0.00450713542
0.00450713542
0.00450713542
0.00450713542
0.00450713542
0.00450713542
0.00450713542
0.00450713542
0.00450713542
0.00450713542
0.00450713542
0.00450713542
0.00450713542
0.00450713542
0.00450713542
0.00450713542
0.00450713542
0.00450713542
0.00450713542
0.00450713542
0.00450713542
0.00450713542
0.00450713542
0.00450713542
0.00450713542
0.00450713542
0.00450713542
0.00450713542
0.00450713542
0.00450713542
0.00450713542
0.00450713542
0.00450713542
0.00450713542
0.00450713542
0.00450713542
0.00450713542
0.00450713542
0.00450713542
0.00450713542
0.00450713542
0.00450713542
0.00450713542
0.00450713542
0.00450713542
0.00450713542
0.00450713542
0.00450713542
0.00450713542
0.00450713542
0.00450713542
0.00450713542
0.00450713542
0.00450713542
0.00450713542
0.00450713542
0.00450713542
0.00450713542
0.00450713542
0.00450713542
0.00450713542
0.00450713542
0.00450713542
0.00450713542
0.00450713542
0.00450713542
0.00450713542
0.00450713542
0.00450713542
0.00450713542
0.00450713542
0.00450713542
0.00450713542
0.00450713542
0.00450713542
0.00450713542
0.00450713542
0.00450713543
0.00450713543
0.00450713542
0.00450713541
0.00450713544
0.00450713547
0.0045071354
0.00450713532
0.00450713544
0.00450713559
0.00450713546
0.00450713525
0.00450713533
0.00450713558
0.00450713554
0.00450713532
0.00450713532
0.00450713548
0.0045071355
0.00450713539
0.00450713538
0.00450713549
0.00450713549
0.00450713532
0.00450713529
0.00450713554
0.00450713565
0.00450713538
0.00450713506
0.00450713533
0.00450713585
0.00450713567
0.00450713507
0.00450713504
0.0045071357
0.00450713571
0.00450713531
0.00450713524
0.0045071356
0.00450713554
0.00450713506
0.00450713511
0.0045071361
0.00450713608
0.00450713463
0.00450713433
0.00450713599
0.00450713693
0.00450713539
0.00450713378
0.00450713471
0.00450713697
0.0045071367
0.00450713419
0.00450713415
0.00450713609
0.00450713651
0.00450713517
0.00450713461
0.00450713543
0.00450713606
0.00450713551
0.00450713496
0.00450713528
0.00450713575
0.00450713559
0.00450713522
0.00450713525
0.00450713557
0.00450713555
0.00450713535
0.00450713539
0.00450713553
0.0045071354
0.00450713516
0.00450713541
0.00450713591
0.00450713564
0.00450713479
0.00450713479
0.00450713614
0.00450713626
0.00450713496
0.00450713452
0.00450713553
0.00450713632
0.00450713557
0.00450713467
0.00450713509
0.00450713605
0.00450713583
0.00450713496
0.00450713493
0.00450713581
0.00450713596
0.00450713519
0.00450713481
0.00450713547
0.00450713611
0.00450713561
0.00450713471
0.00450713492
0.00450713615
0.00450713609
0.00450713487
0.00450713478
0.00450713575
0.00450713594
0.00450713526
0.00450713506
0.00450713554
0.00450713568
0.00450713529
0.00450713519
0.00450713559
0.00450713569
0.00450713527
0.00450713512
0.00450713553
0.00450713574
0.00450713543
0.00450713509
0.00450713529
0.00450713576
0.0045071357
0.00450713513
0.00450713506
0.00450713561
0.00450713579
0.00450713541
0.00450713509
0.00450713533
0.00450713571
0.00450713557
0.0045071352
0.00450713528
0.00450713563
0.00450713555
0.00450713517
0.0045071352
0.0045071358
0.00450713579
0.004507135
0.00450713485
0.00450713579
0.00450713618
0.00450713526
0.00450713454
0.00450713527
0.00450713637
0.00450713585
0.00450713457
0.00450713471
0.0045071362
0.00450713619
0.0045071349
0.00450713475
0.00450713569
0.00450713594
0.00450713536
0.00450713507
0.00450713541
0.00450713562
0.00450713547
0.00450713532
0.00450713541
0.00450713547
0.0045071354
0.00450713539
0.0045071355
0.00450713549
0.00450713527
0.00450713527
0.00450713565
0.00450713571
0.00450713517
0.00450713489
0.00450713563
0.00450713625
0.00450713545
0.00450713431
0.00450713482
0.00450713685
0.00450713667
0.00450713397
0.00450713371
0.00450713639
0.00450713759
0.00450713518
0.00450713303
0.00450713463
0.00450713784
0.0045071373
0.00450713321
0.00450713316
0.00450713675
0.00450713785
0.00450713502
0.00450713319
0.004507135
0.00450713728
0.00450713634
0.00450713404
0.00450713429
0.00450713646
0.00450713645
0.00450713481
0.00450713462
0.0045071357
0.00450713599
0.00450713537
0.00450713503
0.00450713536
0.00450713569
0.00450713554
0.00450713526
0.00450713529
0.00450713551
0.00450713553
0.00450713543
0.00450713535
0.00450713536
0.00450713544
0.00450713549
0.00450713547
0.00450713538
0.00450713536
0.00450713542
0.00450713549
0.00450713547
0.00450713538
0.00450713537
0.00450713542
0.00450713546
0.00450713545
0.00450713543
0.00450713539
0.00450713539
0.00450713544
0.00450713547
0.00450713544
0.00450713538
0.00450713539
0.00450713549
0.00450713549
0.00450713535
0.0045071353
0.00450713548
0.00450713564
0.00450713546
0.00450713509
0.00450713515
0.00450713588
0.00450713591
0.00450713506
0.0045071347
0.00450713554
0.00450713632
0.00450713569
0.00450713452
0.0045071347
0.00450713621
0.00450713625
0.00450713511
0.00450713467
0.00450713525
0.00450713599
0.00450713588
0.00450713513
0.004507135
0.00450713543
0.00450713571
0.00450713557
0.00450713528
0.00450713527
0.00450713547
0.00450713552
0.00450713545
0.00450713539
0.0045071354
0.0045071354
0.00450713543
0.00450713547
0.00450713545
0.00450713537
0.00450713538
0.00450713547
0.00450713547
0.0045071354
0.00450713539
0.00450713543
0.00450713544
0.00450713543
0.00450713543
0.00450713543
0.00450713539
0.00450713538
0.00450713548
0.00450713554
0.00450713541
0.00450713519
0.00450713531
0.00450713576
0.00450713572
0.00450713509
0.00450713496
0.00450713564
0.00450713596
0.00450713542
0.00450713491
0.00450713517
0.00450713595
0.0045071358
0.00450713502
0.00450713499
0.00450713572
0.00450713583
0.00450713531
0.00450713506
0.00450713539
0.00450713574
0.00450713561
0.00450713517
0.00450713514
0.00450713559
0.00450713573
0.00450713541
0.00450713514
0.00450713534
0.00450713565
0.00450713556
0.00450713529
0.00450713528
0.00450713551
0.00450713552
0.0045071354
0.00450713538
0.00450713544
0.00450713544
0.0045071354
0.00450713542
0.0045071355
0.00450713548
0.0045071353
0.00450713529
0.00450713553
0.00450713562
0.00450713543
0.00450713514
0.00450713521
0.00450713574
0.00450713577
0.0045071353
0.00450713499
0.00450713527
0.00450713587
0.00450713581
0.00450713512
0.00450713498
0.0045071355
0.0045071358
0.00450713552
0.00450713516
0.00450713524
0.00450713562
0.00450713559
0.00450713532
0.00450713531
0.00450713546
0.00450713549
0.00450713542
0.00450713539
0.00450713542
0.00450713544
0.00450713543
0.00450713542
0.00450713542
0.00450713543
0.00450713543
0.00450713542
0.00450713542
0.00450713542
0.00450713542
0.00450713542
0.00450713542
0.00450713542
0.00450713542
0.00450713542
0.00450713542
0.00450713542
0.00450713543
0.00450713543
0.00450713543
0.00450713543
0.00450713542
0.00450713543
0.00450713543
0.00450713543
0.00450713543
0.00450713542
0.00450713543
0.00450713543
0.00450713544
0.00450713544
0.0045071354
0.00450713536
0.00450713549
0.00450713585
0.0045071357
0.00450713347
0.00450713301
0.00450714131
0.00450714869
0.00450712779
0.00450708415
0.0045071045
0.00450728651
0.00450730525
0.00450688024
0.00450658581
0.00450723239
0.00450838117
0.00450800266
0.00450509897
0.00450488062
0.0045087547
0.00451073766
0.00450733436
0.004503115
0.00450481811
0.00451043978
0.00451015479
0.00450532472
0.00450474711
0.00450759554
)
;

boundaryField
{
    closed
    {
        type            calculated;
        value           uniform 3.39603462e-08;
    }
    open
    {
        type            calculated;
        value           nonuniform List<scalar> 0();
    }
    sides
    {
        type            empty;
    }
    procBoundary0to1
    {
        type            processor;
        value           uniform 0.00450861361;
    }
}


// ************************************************************************* //
