/*--------------------------------*- C++ -*----------------------------------*\
| =========                 |                                                 |
| \\      /  F ield         | OpenFOAM: The Open Source CFD Toolbox           |
|  \\    /   O peration     | Version:  2306                                  |
|   \\  /    A nd           | Website:  www.openfoam.com                      |
|    \\/     M anipulation  |                                                 |
\*---------------------------------------------------------------------------*/
FoamFile
{
    version     2.0;
    format      ascii;
    arch        "LSB;label=32;scalar=64";
    class       surfaceScalarField;
    location    "0.00018";
    object      phi;
}
// * * * * * * * * * * * * * * * * * * * * * * * * * * * * * * * * * * * * * //

dimensions      [1 0 -1 0 0 0 0];

oriented        oriented;

internalField   nonuniform List<scalar> 
529
(
-5.28464559e-08
-6.11606337e-07
-1.71398197e-06
-3.40097161e-06
-5.31204085e-06
-6.62938062e-06
-6.88317167e-06
-6.58878314e-06
-6.33803681e-06
-6.26656207e-06
-6.15735006e-06
-6.18121488e-06
-6.17471594e-06
-5.97434928e-06
-5.80573445e-06
-5.90174161e-06
-6.11486484e-06
-6.110938e-06
-5.80108713e-06
-5.36091183e-06
-5.14036495e-06
-5.27239969e-06
-5.48617902e-06
-5.60379429e-06
-5.7828786e-06
-5.90591045e-06
-5.67898046e-06
-5.04991681e-06
-4.27178769e-06
-3.97617374e-06
-4.55514743e-06
-5.73855977e-06
-6.55993807e-06
-6.44352921e-06
-5.60338531e-06
-4.69587637e-06
-3.9468526e-06
-3.68280896e-06
-4.07965636e-06
-4.83338387e-06
-5.48911238e-06
-6.03320808e-06
-6.57086979e-06
-6.80549434e-06
-6.48278252e-06
-5.65791453e-06
-4.60828212e-06
-3.70239953e-06
-3.07878113e-06
-2.78614702e-06
-2.7907955e-06
-2.98499176e-06
-3.23388849e-06
-3.46021773e-06
-3.63182081e-06
-3.73054476e-06
-3.75219079e-06
-3.70771742e-06
-3.62260485e-06
-3.53170471e-06
-3.47073535e-06
-3.46595537e-06
-3.52949128e-06
-3.66066579e-06
-3.84795494e-06
-4.07252975e-06
-4.31266441e-06
-4.54763398e-06
-4.76059297e-06
-4.94005283e-06
-5.07979254e-06
-5.17809551e-06
-5.23669007e-06
-5.25960011e-06
-5.25211267e-06
-5.21996363e-06
-5.16876153e-06
-5.10362596e-06
-5.02899729e-06
-4.94857007e-06
-4.86530816e-06
-4.78150836e-06
-4.69888783e-06
-4.61867914e-06
-4.54172204e-06
-4.46854685e-06
-4.39944676e-06
-4.3345378e-06
-4.27380775e-06
-4.21715445e-06
-4.16441592e-06
-4.11539264e-06
-4.06986459e-06
-4.02760328e-06
-3.98838019e-06
-3.95197279e-06
-3.91816813e-06
-3.88676517e-06
-3.85757605e-06
-3.8304263e-06
-3.8051549e-06
-3.78161382e-06
-3.75966726e-06
-3.73919096e-06
-3.72007127e-06
-3.70124384e-06
-3.68274068e-06
-3.66455751e-06
-3.6466899e-06
-3.62913327e-06
-3.61188302e-06
-3.59493452e-06
-3.57828319e-06
-3.56192448e-06
-3.54585398e-06
-3.53006742e-06
-3.51456069e-06
-3.49932992e-06
-3.48437144e-06
-3.46968188e-06
-3.45525815e-06
-3.44109744e-06
-3.42719729e-06
-3.41355557e-06
-3.40017054e-06
-3.38704077e-06
-3.3741652e-06
-3.36154318e-06
-3.34917442e-06
-3.33705903e-06
-3.32519744e-06
-3.31359046e-06
-3.30223931e-06
-3.29114552e-06
-3.28031095e-06
-3.26973782e-06
-3.25942867e-06
-3.24938631e-06
-3.23961382e-06
-3.23011453e-06
-3.22089209e-06
-3.21195038e-06
-3.20329334e-06
-3.19492511e-06
-3.18685009e-06
-3.17907284e-06
-3.17159789e-06
-3.16442984e-06
-3.15757336e-06
-3.15103328e-06
-3.14481439e-06
-3.13892129e-06
-3.13335863e-06
-3.12813103e-06
-3.12324303e-06
-3.11869894e-06
-3.11450294e-06
-3.11065907e-06
-3.10717121e-06
-3.10404295e-06
-3.10127762e-06
-3.09887834e-06
-3.09684792e-06
-3.09518887e-06
-3.09390332e-06
-3.09299311e-06
-3.09245969e-06
-3.0923041e-06
-3.092527e-06
-3.09312861e-06
-3.09410875e-06
-3.09546674e-06
-3.09720144e-06
-3.09931124e-06
-3.10179406e-06
-3.10464733e-06
-3.10786786e-06
-3.11145198e-06
-3.11539555e-06
-3.1196939e-06
-3.12434171e-06
-3.12933311e-06
-3.13466173e-06
-3.14032069e-06
-3.14630243e-06
-3.15259884e-06
-3.15920129e-06
-3.16610058e-06
-3.17328695e-06
-3.18075003e-06
-3.1884789e-06
-3.19646216e-06
-3.20468784e-06
-3.21314341e-06
-3.22181578e-06
-3.23069141e-06
-3.23975631e-06
-3.24899591e-06
-3.25839519e-06
-3.26793866e-06
-3.27761047e-06
-3.28739435e-06
-3.29727354e-06
-3.30723096e-06
-3.31724923e-06
-3.3273106e-06
-3.33739704e-06
-3.3474902e-06
-3.35757157e-06
-3.36762239e-06
-3.3776237e-06
-3.3875564e-06
-3.39740128e-06
-3.40713908e-06
-3.41675041e-06
-3.42621589e-06
-3.43551617e-06
-3.44463198e-06
-3.45354408e-06
-3.46223337e-06
-3.47068089e-06
-3.47886792e-06
-3.48677597e-06
-3.49438675e-06
-3.50168229e-06
-3.50864501e-06
-3.51525768e-06
-3.52150345e-06
-3.5273659e-06
-3.53282914e-06
-3.53787777e-06
-3.54249692e-06
-3.5466723e-06
-3.55039021e-06
-3.55363765e-06
-3.55640224e-06
-3.55867231e-06
-3.56043689e-06
-3.56168587e-06
-3.56240987e-06
-3.56260029e-06
-3.56224939e-06
-3.56135035e-06
-3.55989727e-06
-3.55788509e-06
-3.55530969e-06
-3.552168e-06
-3.54845795e-06
-3.54417846e-06
-3.53932945e-06
-3.53391192e-06
-3.52792805e-06
-3.52138108e-06
-3.51427531e-06
-3.50661623e-06
-3.49841052e-06
-3.48966606e-06
-3.48039186e-06
-3.4705982e-06
-3.46029656e-06
-3.4494997e-06
-3.4382216e-06
-3.42647753e-06
-3.41428402e-06
-3.4016589e-06
-3.38862126e-06
-3.37519149e-06
-3.3613913e-06
-3.34724367e-06
-3.33277284e-06
-3.31800434e-06
-3.302965e-06
-3.2876829e-06
-3.27218733e-06
-3.25650873e-06
-3.24067886e-06
-3.22473063e-06
-3.20869804e-06
-3.19261611e-06
-3.17652093e-06
-3.16044977e-06
-3.14444081e-06
-3.12853292e-06
-3.11276585e-06
-3.09718031e-06
-3.08181772e-06
-3.06671996e-06
-3.05192941e-06
-3.03748893e-06
-3.02344198e-06
-3.00983223e-06
-2.99670324e-06
-2.9840987e-06
-2.97206249e-06
-2.96063829e-06
-2.94986932e-06
-2.93979838e-06
-2.9304679e-06
-2.92191966e-06
-2.91419459e-06
-2.90733267e-06
-2.90137282e-06
-2.8963529e-06
-2.89230942e-06
-2.88927734e-06
-2.88729008e-06
-2.8863794e-06
-2.88657519e-06
-2.88790535e-06
-2.89039568e-06
-2.89406979e-06
-2.89894896e-06
-2.90505204e-06
-2.91239532e-06
-2.92099247e-06
-2.93085443e-06
-2.94198937e-06
-2.95440254e-06
-2.96809629e-06
-2.98306997e-06
-2.99931989e-06
-3.01683932e-06
-3.03561842e-06
-3.05564429e-06
-3.0769009e-06
-3.09936917e-06
-3.12302698e-06
-3.14784916e-06
-3.17380761e-06
-3.2008713e-06
-3.22900638e-06
-3.25817625e-06
-3.28834167e-06
-3.31946084e-06
-3.35148953e-06
-3.3843812e-06
-3.41808714e-06
-3.45255661e-06
-3.487737e-06
-3.52357397e-06
-3.5600116e-06
-3.5969926e-06
-3.63445847e-06
-3.67234964e-06
-3.71060566e-06
-3.74916543e-06
-3.78796733e-06
-3.82694944e-06
-3.8660496e-06
-3.90520572e-06
-3.94435597e-06
-3.98343886e-06
-4.02239337e-06
-4.06115917e-06
-4.09967684e-06
-4.13788794e-06
-4.17573515e-06
-4.21316231e-06
-4.25011468e-06
-4.2865391e-06
-4.32238394e-06
-4.35759921e-06
-4.39213672e-06
-4.42595012e-06
-4.458995e-06
-4.49122892e-06
-4.52261138e-06
-4.553104e-06
-4.58267045e-06
-4.61127653e-06
-4.63889014e-06
-4.66548128e-06
-4.6910221e-06
-4.71548686e-06
-4.73885188e-06
-4.7610956e-06
-4.78219849e-06
-4.80214304e-06
-4.82091375e-06
-4.83849704e-06
-4.85488128e-06
-4.87005669e-06
-4.88401534e-06
-4.89675106e-06
-4.90825945e-06
-4.91853781e-06
-4.92758507e-06
-4.93540182e-06
-4.94199016e-06
-4.94735378e-06
-4.95149781e-06
-4.95442887e-06
-4.95615499e-06
-4.95668556e-06
-4.95603134e-06
-4.95420442e-06
-4.95121819e-06
-4.94708727e-06
-4.94182754e-06
-4.9354561e-06
-4.92799127e-06
-4.91945257e-06
-4.90986059e-06
-4.8992371e-06
-4.88760504e-06
-4.87498843e-06
-4.86141235e-06
-4.84690295e-06
-4.83148743e-06
-4.81519404e-06
-4.79805205e-06
-4.78009163e-06
-4.76134392e-06
-4.74184104e-06
-4.72161599e-06
-4.70070258e-06
-4.67913543e-06
-4.65695e-06
-4.63418245e-06
-4.61086964e-06
-4.58704903e-06
-4.56275868e-06
-4.53803719e-06
-4.51292362e-06
-4.48745739e-06
-4.46167829e-06
-4.43562633e-06
-4.40934175e-06
-4.38286487e-06
-4.35623602e-06
-4.3294955e-06
-4.30268347e-06
-4.27583989e-06
-4.24900437e-06
-4.22221616e-06
-4.19551402e-06
-4.16893617e-06
-4.14252014e-06
-4.11630274e-06
-4.09032e-06
-4.06460701e-06
-4.03919789e-06
-4.01412569e-06
-3.98942238e-06
-3.96511871e-06
-3.94124416e-06
-3.91782689e-06
-3.89489365e-06
-3.87246983e-06
-3.8505793e-06
-3.82924441e-06
-3.80848594e-06
-3.78832307e-06
-3.76877345e-06
-3.74985305e-06
-3.73157618e-06
-3.7139555e-06
-3.69700208e-06
-3.68072532e-06
-3.66513298e-06
-3.6502312e-06
-3.63602456e-06
-3.62251604e-06
-3.60970713e-06
-3.59759778e-06
-3.58618651e-06
-3.57547043e-06
-3.56544528e-06
-3.5561055e-06
-3.54744428e-06
-3.53945359e-06
-3.53212431e-06
-3.52544622e-06
-3.51940809e-06
-3.51399779e-06
-3.50920227e-06
-3.50500769e-06
-3.50139947e-06
-3.49836235e-06
-3.49588044e-06
-3.49393732e-06
-3.49251605e-06
-3.49159929e-06
-3.49116931e-06
-3.49120808e-06
-3.49169731e-06
-3.4926185e-06
-3.49395304e-06
-3.49568217e-06
-3.49778714e-06
-3.50024918e-06
-3.50304956e-06
-3.50616967e-06
-3.50959105e-06
-3.51329539e-06
-3.51726464e-06
-3.52148104e-06
-3.5259271e-06
-3.53058573e-06
-3.53544022e-06
-3.54047433e-06
-3.5456723e-06
-3.55101892e-06
-3.55649951e-06
-3.56209997e-06
-3.56780711e-06
-3.57360877e-06
-3.57949279e-06
-3.58544672e-06
-3.59146062e-06
-3.59752853e-06
-3.60364754e-06
-3.60980038e-06
-3.61596477e-06
-3.62215517e-06
-3.62840629e-06
-3.63469489e-06
-3.64096743e-06
-3.64716814e-06
-3.65343828e-06
-3.65988855e-06
-3.66634068e-06
-3.67265116e-06
-3.67899392e-06
-3.68555524e-06
-3.69223817e-06
-3.69894668e-06
-3.70559331e-06
-3.71242065e-06
)
;

boundaryField
{
    closed
    {
        type            calculated;
        value           uniform 0;
    }
    open
    {
        type            calculated;
        value           nonuniform List<scalar> 0();
    }
    sides
    {
        type            empty;
        value           nonuniform List<scalar> 0();
    }
    procBoundary0to1
    {
        type            processor;
        value           uniform -3.71950312e-06;
    }
}


// ************************************************************************* //
