/*--------------------------------*- C++ -*----------------------------------*\
| =========                 |                                                 |
| \\      /  F ield         | OpenFOAM: The Open Source CFD Toolbox           |
|  \\    /   O peration     | Version:  2306                                  |
|   \\  /    A nd           | Website:  www.openfoam.com                      |
|    \\/     M anipulation  |                                                 |
\*---------------------------------------------------------------------------*/
FoamFile
{
    version     2.0;
    format      ascii;
    arch        "LSB;label=32;scalar=64";
    class       volScalarField;
    location    "0.0001";
    object      prefDPV_H2O;
}
// * * * * * * * * * * * * * * * * * * * * * * * * * * * * * * * * * * * * * //

dimensions      [1 -1 -1 0 0 0 0];

internalField   nonuniform List<scalar> 
3816
(
-3.73148205e-07
-3.73062753e-07
-3.73066654e-07
-3.73066668e-07
-3.73066669e-07
-3.73066669e-07
-3.73066669e-07
-3.73066669e-07
-3.73066669e-07
-3.73066669e-07
-3.73066669e-07
-3.73066669e-07
-3.73066669e-07
-3.73066669e-07
-3.73066669e-07
-3.73066669e-07
-3.73066669e-07
-3.73066669e-07
-3.73066669e-07
-3.73066669e-07
-3.73066669e-07
-3.73066669e-07
-3.73066669e-07
-3.73066669e-07
-3.73066669e-07
-3.73066669e-07
-3.73066669e-07
-3.73066669e-07
-3.73066669e-07
-3.73066669e-07
-3.73066669e-07
-3.73066669e-07
-3.73066669e-07
-3.73066669e-07
-3.73066669e-07
-3.73066669e-07
-3.73066669e-07
-3.73066669e-07
-3.73066669e-07
-3.73066669e-07
-3.73066669e-07
-3.73066669e-07
-3.73066669e-07
-3.73066669e-07
-3.73066669e-07
-3.73066669e-07
-3.73066669e-07
-3.73066669e-07
-3.73066669e-07
-3.73066669e-07
-3.73066669e-07
-3.73066669e-07
-3.73066669e-07
-3.73066669e-07
-3.73066669e-07
-3.73066669e-07
-3.73066669e-07
-3.73066669e-07
-3.73066669e-07
-3.73066669e-07
-3.73066669e-07
-3.73066669e-07
-3.73066669e-07
-3.73066669e-07
-3.73066669e-07
-3.73066669e-07
-3.73066669e-07
-3.73066669e-07
-3.73066669e-07
-3.73066669e-07
-3.73066669e-07
-3.73066669e-07
-3.73066669e-07
-3.73066669e-07
-3.73066669e-07
-3.73066669e-07
-3.73066669e-07
-3.73066669e-07
-3.73066669e-07
-3.73066669e-07
-3.73066669e-07
-3.73066669e-07
-3.73066669e-07
-3.73066669e-07
-3.73066668e-07
-3.73066666e-07
-3.73066663e-07
-3.73066654e-07
-3.73066639e-07
-3.7306661e-07
-3.73066566e-07
-3.73066493e-07
-3.73066297e-07
-3.73066191e-07
-3.73066825e-07
-3.73064247e-07
-3.7306194e-07
-3.73078727e-07
-3.73093587e-07
-3.73009224e-07
-3.72982863e-07
-3.73374662e-07
-3.73296799e-07
-3.70919208e-07
-3.66492994e-07
-3.66113615e-07
-3.69601152e-07
-3.84288901e-07
-3.84000462e-07
-3.82995588e-07
-3.64940997e-07
-3.65198733e-07
-3.74558208e-07
-3.84491234e-07
-3.83901198e-07
-3.87098903e-07
-3.64380266e-07
-3.64270203e-07
-3.71851126e-07
-3.84145276e-07
-3.87170619e-07
-3.65564082e-07
-3.67042672e-07
-3.84006982e-07
-3.86761231e-07
-3.64959559e-07
-3.66354568e-07
-3.84216804e-07
-3.86283789e-07
-3.63990708e-07
-3.63769395e-07
-3.64735731e-07
-3.67094566e-07
-3.83922504e-07
-3.83800658e-07
-3.83589766e-07
-3.84052792e-07
-3.69842816e-07
-3.63846374e-07
-3.64556696e-07
-3.649481e-07
-3.64391363e-07
-3.66428894e-07
-3.84712808e-07
-3.83581818e-07
-3.85299984e-07
-3.83707693e-07
-3.85464432e-07
-3.64947032e-07
-3.6485967e-07
-3.83732663e-07
-3.84397804e-07
-3.6556528e-07
-3.6552187e-07
-3.66468373e-07
-3.65270454e-07
-3.66960324e-07
-3.8526628e-07
-3.83782043e-07
-3.85801791e-07
-3.63860677e-07
-3.61859205e-07
-3.65455077e-07
-3.84373726e-07
-3.84204695e-07
-3.84428896e-07
-3.84950694e-07
-3.65039354e-07
-3.65708172e-07
-3.84033668e-07
-3.84715636e-07
-3.6515521e-07
-3.65181141e-07
-3.65993337e-07
-3.75295283e-07
-3.84034992e-07
-3.83806555e-07
-3.84826101e-07
-3.64863515e-07
-3.64873787e-07
-3.66135903e-07
-3.70810254e-07
-3.83564908e-07
-3.85591088e-07
-3.65796069e-07
-3.83718725e-07
-3.84864527e-07
-3.65539428e-07
-3.65697024e-07
-3.66887762e-07
-3.65409446e-07
-3.70632834e-07
-3.83954211e-07
-3.83515867e-07
-3.84866743e-07
-3.65315816e-07
-3.6777722e-07
-3.84547147e-07
-3.65674654e-07
-3.65680693e-07
-3.83770082e-07
-3.84909008e-07
-3.64742772e-07
-3.65263742e-07
-3.83884888e-07
-3.84889159e-07
-3.64503156e-07
-3.6515012e-07
-3.8385984e-07
-3.84669095e-07
-3.64617349e-07
-3.65487138e-07
-3.83812239e-07
-3.84246548e-07
-3.64577843e-07
-3.64618996e-07
-3.6989823e-07
-3.83848251e-07
-3.83888532e-07
-3.65154974e-07
-3.74572815e-07
-3.83848142e-07
-3.65757957e-07
-3.65644845e-07
-3.66434925e-07
-3.66190096e-07
-3.66340848e-07
-3.66559761e-07
-3.74748305e-07
-3.83315534e-07
-3.8368145e-07
-3.66420947e-07
-3.66245996e-07
-3.83562102e-07
-3.83707449e-07
-3.65100224e-07
-3.65090831e-07
-3.65665743e-07
-3.67510254e-07
-3.83610591e-07
-3.83469404e-07
-3.65785111e-07
-3.65760749e-07
-3.83632792e-07
-3.83731426e-07
-3.65331725e-07
-3.65338907e-07
-3.83703871e-07
-3.83871675e-07
-3.65003168e-07
-3.65075463e-07
-3.83746395e-07
-3.83942079e-07
-3.6482547e-07
-3.64944583e-07
-3.83751318e-07
-3.8392921e-07
-3.64902258e-07
-3.6523419e-07
-3.83729535e-07
-3.83730582e-07
-3.6504982e-07
-3.71431905e-07
-3.83953599e-07
-3.66220137e-07
-3.65168896e-07
-3.66563669e-07
-3.64683029e-07
-3.68418453e-07
-3.8409829e-07
-3.83538198e-07
-3.84259257e-07
-3.64948377e-07
-3.64619411e-07
-3.83849165e-07
-3.84477836e-07
-3.64650958e-07
-3.64873512e-07
-3.83905961e-07
-3.84554695e-07
-3.64473634e-07
-3.64828366e-07
-3.83920939e-07
-3.84621769e-07
-3.64481892e-07
-3.64866673e-07
-3.8391086e-07
-3.84658025e-07
-3.64653229e-07
-3.65077052e-07
-3.83892335e-07
-3.84670257e-07
-3.64869142e-07
-3.65341803e-07
-3.83910915e-07
-3.84656495e-07
-3.6481353e-07
-3.64841414e-07
-3.65008393e-07
-3.65621372e-07
-3.64634253e-07
-3.67548939e-07
-3.84189624e-07
-3.83545867e-07
-3.84768713e-07
-3.65396927e-07
-3.6538547e-07
-3.83697625e-07
-3.84808224e-07
-3.65378165e-07
-3.65864341e-07
-3.83637646e-07
-3.85130099e-07
-3.65492255e-07
-3.79154256e-07
-3.84526726e-07
-3.65780747e-07
-3.65784112e-07
-3.66465773e-07
-3.65828795e-07
-3.66452513e-07
-3.65310153e-07
-3.69837804e-07
-3.83943965e-07
-3.83434535e-07
-3.84745422e-07
-3.65472109e-07
-3.65532759e-07
-3.83617377e-07
-3.84664441e-07
-3.65329182e-07
-3.65815515e-07
-3.83606959e-07
-3.84559009e-07
-3.65232388e-07
-3.65839817e-07
-3.83593417e-07
-3.84607487e-07
-3.65156459e-07
-3.76499589e-07
-3.841317e-07
-3.65380055e-07
-3.65169606e-07
-3.65959775e-07
-3.65334457e-07
-3.75604117e-07
-3.8382716e-07
-3.83712052e-07
-3.83916555e-07
-3.65606143e-07
-3.69176758e-07
-3.83869956e-07
-3.66004264e-07
-3.65322901e-07
-3.66405061e-07
-3.65127822e-07
-3.71029254e-07
-3.83994072e-07
-3.83546496e-07
-3.84042203e-07
-3.64994793e-07
-3.64647857e-07
-3.83938122e-07
-3.84013679e-07
-3.64804101e-07
-3.64678893e-07
-3.84028308e-07
-3.83988011e-07
-3.64672405e-07
-3.64642689e-07
-3.84081938e-07
-3.83958845e-07
-3.64700889e-07
-3.64671783e-07
-3.84107634e-07
-3.8392119e-07
-3.64861363e-07
-3.64800846e-07
-3.8412286e-07
-3.8388105e-07
-3.64971905e-07
-3.64930594e-07
-3.84157077e-07
-3.8393506e-07
-3.64753009e-07
-3.64499811e-07
-3.64991424e-07
-3.65668775e-07
-3.65131411e-07
-3.68837176e-07
-3.83938811e-07
-3.83372497e-07
-3.83644398e-07
-3.66011197e-07
-3.71299193e-07
-3.83682937e-07
-3.66231857e-07
-3.65745847e-07
-3.65616794e-07
-3.66795955e-07
-3.84000579e-07
-3.83611585e-07
-3.83851289e-07
-3.83748506e-07
-3.6539433e-07
-3.64859229e-07
-3.65529983e-07
-3.69965985e-07
-3.83809148e-07
-3.832963e-07
-3.65813688e-07
-3.65581133e-07
-3.84088156e-07
-3.83290822e-07
-3.64895833e-07
-3.67561897e-07
-3.83896161e-07
-3.66032039e-07
-3.6494627e-07
-3.83951115e-07
-3.83705948e-07
-3.65166742e-07
-3.64866636e-07
-3.84036421e-07
-3.83722681e-07
-3.64946128e-07
-3.65117135e-07
-3.83816118e-07
-3.83866036e-07
-3.6502105e-07
-3.6466366e-07
-3.66393919e-07
-3.84065976e-07
-3.83287293e-07
-3.64965195e-07
-3.65308594e-07
-3.83977413e-07
-3.83590909e-07
-3.64868465e-07
-3.6503481e-07
-3.83974713e-07
-3.83859044e-07
-3.64614223e-07
-3.64590857e-07
-3.64884246e-07
-3.65642094e-07
-3.6485882e-07
-3.68144969e-07
-3.8403221e-07
-3.83517072e-07
-3.84085895e-07
-3.65177921e-07
-3.64446807e-07
-3.83630131e-07
-3.84227646e-07
-3.65785778e-07
-3.8401217e-07
-3.83928807e-07
-3.65130081e-07
-3.65183276e-07
-3.65984392e-07
-3.65518219e-07
-3.66509417e-07
-3.65395403e-07
-3.70593342e-07
-3.83889012e-07
-3.83531872e-07
-3.83974283e-07
-3.65375527e-07
-3.65197858e-07
-3.83773936e-07
-3.840487e-07
-3.6510216e-07
-3.65190266e-07
-3.65562345e-07
-3.65884174e-07
-3.83580867e-07
-3.84096906e-07
-3.65692818e-07
-3.840721e-07
-3.83729409e-07
-3.64511375e-07
-3.65724066e-07
-3.84030791e-07
-3.8365746e-07
-3.6463196e-07
-3.66406383e-07
-3.83994966e-07
-3.65442136e-07
-3.65282244e-07
-3.64993004e-07
-3.6629245e-07
-3.83958285e-07
-3.83677607e-07
-3.83887067e-07
-3.65570225e-07
-3.64871701e-07
-3.84064025e-07
-3.83823596e-07
-3.65379772e-07
-3.65032617e-07
-3.84300712e-07
-3.83820544e-07
-3.65271933e-07
-3.64917672e-07
-3.84656474e-07
-3.83850458e-07
-3.65230097e-07
-3.64709366e-07
-3.85171518e-07
-3.83880481e-07
-3.65386257e-07
-3.6457398e-07
-3.85882074e-07
-3.83892358e-07
-3.65812778e-07
-3.64656368e-07
-3.86801366e-07
-3.83876306e-07
-3.66532815e-07
-3.65153314e-07
-3.85456943e-07
-3.83745932e-07
-3.67885731e-07
-3.66396313e-07
-3.85401181e-07
-3.72901435e-07
-3.65564062e-07
-3.65833744e-07
-3.65528388e-07
-3.6593636e-07
-3.65323526e-07
-3.65233631e-07
-3.80266883e-07
-3.84271985e-07
-3.84119598e-07
-3.7604511e-07
-3.65907676e-07
-3.73323751e-07
-3.85111097e-07
-3.76059116e-07
-3.66073758e-07
-3.72186604e-07
-3.85099479e-07
-3.76436149e-07
-3.66616593e-07
-3.75164856e-07
-3.75942987e-07
-3.65930335e-07
-3.70000672e-07
-3.85179497e-07
-3.80104213e-07
-3.65941818e-07
-3.69615056e-07
-3.84827912e-07
-3.82257164e-07
-3.6612341e-07
-3.64631143e-07
-3.69547414e-07
-3.85039782e-07
-3.76071442e-07
-3.74321642e-07
-3.84092981e-07
-3.82676873e-07
-3.66902234e-07
-3.66052832e-07
-3.66217136e-07
-3.66644169e-07
-3.67465245e-07
-3.66201126e-07
-3.66276689e-07
-3.81734296e-07
-3.84583227e-07
-3.84282877e-07
-3.84722504e-07
-3.66402147e-07
-3.69711871e-07
-3.8399521e-07
-3.77674864e-07
-3.66333718e-07
-3.79194786e-07
-3.85496473e-07
-3.66317478e-07
-3.65483231e-07
-3.65541686e-07
-3.65317948e-07
-3.73635928e-07
-3.84481763e-07
-3.83702165e-07
-3.8378275e-07
-3.65650346e-07
-3.67357663e-07
-3.83949069e-07
-3.87071385e-07
-3.6501244e-07
-3.66849595e-07
-3.84010111e-07
-3.86683511e-07
-3.65101101e-07
-3.67088732e-07
-3.83847357e-07
-3.83379189e-07
-3.65783462e-07
-3.70866451e-07
-3.73931628e-07
-3.6565249e-07
-3.67388981e-07
-3.83824844e-07
-3.85118834e-07
-3.64713092e-07
-3.65845901e-07
-3.83962656e-07
-3.85365929e-07
-3.64739023e-07
-3.6583571e-07
-3.83903115e-07
-3.85072621e-07
-3.64931597e-07
-3.66086559e-07
-3.83840502e-07
-3.84507061e-07
-3.64708505e-07
-3.64495684e-07
-3.65376493e-07
-3.64995613e-07
-3.71389593e-07
-3.8407962e-07
-3.83404059e-07
-3.8036051e-07
-3.66206737e-07
-3.72653457e-07
-3.77875076e-07
-3.65894005e-07
-3.67281167e-07
-3.83599206e-07
-3.8464456e-07
-3.65312892e-07
-3.66289831e-07
-3.83713376e-07
-3.84661576e-07
-3.6471256e-07
-3.63960154e-07
-3.72165022e-07
-3.84150715e-07
-3.743991e-07
-3.70491222e-07
-3.8397734e-07
-3.85026805e-07
-3.64529724e-07
-3.64355041e-07
-3.65085264e-07
-3.70962749e-07
-3.84043971e-07
-3.83620552e-07
-3.85478807e-07
-3.65083141e-07
-3.64777392e-07
-3.65783879e-07
-3.65538466e-07
-3.64869009e-07
-3.66520935e-07
-3.85311446e-07
-3.84993794e-07
-3.8485303e-07
-3.86935632e-07
-3.65890927e-07
-3.67068634e-07
-3.83756355e-07
-3.86564767e-07
-3.66162935e-07
-3.70297345e-07
-3.74019496e-07
-3.66444521e-07
-3.69680751e-07
-3.83824967e-07
-3.8680046e-07
-3.65231033e-07
-3.67016129e-07
-3.84038141e-07
-3.8712583e-07
-3.64858776e-07
-3.66859709e-07
-3.8415297e-07
-3.86293416e-07
-3.64704095e-07
-3.66834687e-07
-3.84226604e-07
-3.85702864e-07
-3.64637127e-07
-3.66855722e-07
-3.84274883e-07
-3.85253514e-07
-3.64617236e-07
-3.66907291e-07
-3.84310456e-07
-3.84780746e-07
-3.64621941e-07
-3.66984698e-07
-3.84341477e-07
-3.84190109e-07
-3.64636098e-07
-3.67089097e-07
-3.84369306e-07
-3.83560381e-07
-3.64647907e-07
-3.67289313e-07
-3.84395114e-07
-3.82907128e-07
-3.646527e-07
-3.67497696e-07
-3.84418847e-07
-3.82279843e-07
-3.64648327e-07
-3.67690496e-07
-3.84440885e-07
-3.81721514e-07
-3.64632674e-07
-3.67843838e-07
-3.84459681e-07
-3.81294914e-07
-3.64606493e-07
-3.67937427e-07
-3.8447275e-07
-3.81025822e-07
-3.64572282e-07
-3.67954271e-07
-3.84475048e-07
-3.80979186e-07
-3.64537078e-07
-3.67859558e-07
-3.84457207e-07
-3.81346641e-07
-3.64512646e-07
-3.6759897e-07
-3.84407337e-07
-3.82371713e-07
-3.64523485e-07
-3.67075523e-07
-3.84298896e-07
-3.85100076e-07
-3.64614129e-07
-3.66728847e-07
-3.84162228e-07
-3.86458082e-07
-3.64827494e-07
-3.66744963e-07
-3.84341953e-07
-3.86254073e-07
-3.63539926e-07
-3.63660676e-07
-3.71782017e-07
-3.84462797e-07
-3.85713825e-07
-3.65093699e-07
-3.66618927e-07
-3.84139438e-07
-3.85850155e-07
-3.64915258e-07
-3.66289721e-07
-3.84412286e-07
-3.85997095e-07
-3.6287464e-07
-3.62958622e-07
-3.64999832e-07
-3.65190343e-07
-3.65736967e-07
-3.77151998e-07
-3.84732008e-07
-3.84262021e-07
-3.85563387e-07
-3.6413213e-07
-3.70070871e-07
-3.85441248e-07
-3.7157273e-07
-3.84624141e-07
-3.84502219e-07
-3.65862681e-07
-3.68075811e-07
-3.83909023e-07
-3.84720362e-07
-3.6521522e-07
-3.65759879e-07
-3.84264831e-07
-3.85195969e-07
-3.63289677e-07
-3.6322676e-07
-3.64819485e-07
-3.66717772e-07
-3.8399182e-07
-3.83324496e-07
-3.84452947e-07
-3.68239532e-07
-3.6500653e-07
-3.6996324e-07
-3.84004226e-07
-3.84118521e-07
-3.65191483e-07
-3.65655495e-07
-3.83956841e-07
-3.84144989e-07
-3.64854841e-07
-3.66781264e-07
-3.84319323e-07
-3.74235037e-07
-3.63839441e-07
-3.64355868e-07
-3.64619452e-07
-3.65186844e-07
-3.8435758e-07
-3.84598291e-07
-3.85220043e-07
-3.84983789e-07
-3.62447294e-07
-3.61999578e-07
-3.65717433e-07
-3.8402683e-07
-3.84273971e-07
-3.69358265e-07
-3.84065255e-07
-3.83468034e-07
-3.65767044e-07
-3.67844653e-07
-3.84052815e-07
-3.8385403e-07
-3.64074862e-07
-3.63632958e-07
-3.71195983e-07
-3.84118107e-07
-3.83627814e-07
-3.64841117e-07
-3.65315711e-07
-3.83942972e-07
-3.83875821e-07
-3.64885614e-07
-3.65141603e-07
-3.8390622e-07
-3.83967177e-07
-3.64813742e-07
-3.65198863e-07
-3.84029066e-07
-3.8391659e-07
-3.6409136e-07
-3.73056834e-07
-3.84131378e-07
-3.65811845e-07
-3.65482842e-07
-3.84172946e-07
-3.84420896e-07
-3.63204966e-07
-3.63138992e-07
-3.64945391e-07
-3.65231672e-07
-3.65680183e-07
-3.7051744e-07
-3.83663754e-07
-3.83243066e-07
-3.83943646e-07
-3.70823992e-07
-3.65032799e-07
-3.68497853e-07
-3.83881461e-07
-3.84071241e-07
-3.65218539e-07
-3.65791223e-07
-3.83856002e-07
-3.84488183e-07
-3.65117226e-07
-3.65667387e-07
-3.83942092e-07
-3.84775828e-07
-3.64685418e-07
-3.65351041e-07
-3.8418187e-07
-3.85161204e-07
-3.6366261e-07
-3.63710141e-07
-3.65162857e-07
-3.72857453e-07
-3.84352119e-07
-3.83889949e-07
-3.85242708e-07
-3.6390582e-07
-3.63840578e-07
-3.65849196e-07
-3.68951008e-07
-3.8373551e-07
-3.84542925e-07
-3.65580814e-07
-3.66211778e-07
-3.83770413e-07
-3.84852622e-07
-3.65080629e-07
-3.65809384e-07
-3.83887634e-07
-3.85299729e-07
-3.64434903e-07
-3.78099275e-07
-3.85002613e-07
-3.65620035e-07
-3.66109652e-07
-3.84184728e-07
-3.85004241e-07
-3.62399903e-07
-3.62071867e-07
-3.65649255e-07
-3.84672503e-07
-3.83858234e-07
-3.84218215e-07
-3.84167664e-07
-3.68487944e-07
-3.66080501e-07
-3.68335307e-07
-3.66949995e-07
-3.66844813e-07
-3.77628561e-07
-3.83810601e-07
-3.85225406e-07
-3.63535447e-07
-3.63641398e-07
-3.64946348e-07
-3.6468233e-07
-3.66057936e-07
-3.84065941e-07
-3.84276015e-07
-3.84704116e-07
-3.8510438e-07
-3.6497979e-07
-3.69244065e-07
-3.85092554e-07
-3.65796666e-07
-3.66865424e-07
-3.86983369e-07
-3.65332242e-07
-3.65009712e-07
-3.65727301e-07
-3.69184169e-07
-3.83928768e-07
-3.84596295e-07
-3.83989297e-07
-3.85825975e-07
-3.64818098e-07
-3.65442044e-07
-3.83893849e-07
-3.85383996e-07
-3.65224722e-07
-3.66273239e-07
-3.83840643e-07
-3.8520198e-07
-3.65127467e-07
-3.66299957e-07
-3.8390451e-07
-3.85030664e-07
-3.6461728e-07
-3.69811192e-07
-3.84649675e-07
-3.66054129e-07
-3.64707984e-07
-3.66113672e-07
-3.73732594e-07
-3.83512371e-07
-3.84983226e-07
-3.65508807e-07
-3.67584855e-07
-3.83792772e-07
-3.84946642e-07
-3.64883381e-07
-3.71341238e-07
-3.84760881e-07
-3.64833234e-07
-3.64349308e-07
-3.64690581e-07
-3.66456225e-07
-3.84311885e-07
-3.83973988e-07
-3.84133883e-07
-3.84606245e-07
-3.66035248e-07
-3.6530794e-07
-3.71473787e-07
-3.83887305e-07
-3.84763205e-07
-3.65371921e-07
-3.6524599e-07
-3.6515833e-07
-3.68501789e-07
-3.84342606e-07
-3.83567749e-07
-3.85333675e-07
-3.65124714e-07
-3.69344806e-07
-3.84616624e-07
-3.65655083e-07
-3.64668005e-07
-3.70719335e-07
-3.84063774e-07
-3.84753433e-07
-3.65011816e-07
-3.65937001e-07
-3.8418234e-07
-3.8519307e-07
-3.63705034e-07
-3.63655165e-07
-3.6463999e-07
-3.66688664e-07
-3.84161103e-07
-3.83675813e-07
-3.85135483e-07
-3.64835889e-07
-3.6520538e-07
-3.84038241e-07
-3.84661401e-07
-3.6395839e-07
-3.63901351e-07
-3.68337756e-07
-3.84176704e-07
-3.8408616e-07
-3.8421118e-07
-3.84809156e-07
-3.64589122e-07
-3.64534769e-07
-3.65797076e-07
-3.68113571e-07
-3.83832929e-07
-3.84056212e-07
-3.65617237e-07
-3.66337475e-07
-3.84118064e-07
-3.84410362e-07
-3.63614013e-07
-3.63723297e-07
-3.64986067e-07
-3.64063721e-07
-3.66102682e-07
-3.84701039e-07
-3.84261583e-07
-3.84694747e-07
-3.84717469e-07
-3.65069853e-07
-3.64989512e-07
-3.83775519e-07
-3.85025413e-07
-3.66301091e-07
-3.84737284e-07
-3.84545592e-07
-3.63632655e-07
-3.63739697e-07
-3.64072319e-07
-3.65360454e-07
-3.8436592e-07
-3.8427993e-07
-3.84364078e-07
-3.84640442e-07
-3.6529142e-07
-3.65760965e-07
-3.8381318e-07
-3.84203013e-07
-3.65657283e-07
-3.65716986e-07
-3.67859643e-07
-3.66195994e-07
-3.71201436e-07
-3.83662791e-07
-3.84159905e-07
-3.65340936e-07
-3.65583014e-07
-3.83824708e-07
-3.84535643e-07
-3.64722425e-07
-3.65216872e-07
-3.83916171e-07
-3.84743801e-07
-3.64519497e-07
-3.65138271e-07
-3.83957468e-07
-3.84858517e-07
-3.64473547e-07
-3.65154894e-07
-3.8396921e-07
-3.84918452e-07
-3.64493179e-07
-3.65234314e-07
-3.83955614e-07
-3.84922326e-07
-3.64606718e-07
-3.6546837e-07
-3.83917278e-07
-3.84837512e-07
-3.64819426e-07
-3.66082361e-07
-3.83941992e-07
-3.84666058e-07
-3.6439515e-07
-3.64545877e-07
-3.701889e-07
-3.84193169e-07
-3.84476928e-07
-3.64468146e-07
-3.64337837e-07
-3.68695714e-07
-3.83887616e-07
-3.85262528e-07
-3.65483816e-07
-3.84931678e-07
-3.84771409e-07
-3.63488989e-07
-3.6882242e-07
-3.85016331e-07
-3.64935023e-07
-3.64578517e-07
-3.65948118e-07
-3.65475516e-07
-3.70092749e-07
-3.83894531e-07
-3.83701256e-07
-3.84787329e-07
-3.64168671e-07
-3.64215177e-07
-3.66660111e-07
-3.83764243e-07
-3.85045074e-07
-3.66516817e-07
-3.84561708e-07
-3.84704401e-07
-3.64387233e-07
-3.64435169e-07
-3.69084202e-07
-3.84080205e-07
-3.84615944e-07
-3.64861791e-07
-3.65975029e-07
-3.83979282e-07
-3.84822535e-07
-3.64740413e-07
-3.6589151e-07
-3.8405693e-07
-3.84661475e-07
-3.6425871e-07
-3.68482927e-07
-3.84706537e-07
-3.64945661e-07
-3.64849643e-07
-3.64995597e-07
-3.68678427e-07
-3.8421615e-07
-3.83731823e-07
-3.84929335e-07
-3.64339085e-07
-3.64346146e-07
-3.65093839e-07
-3.68342931e-07
-3.84120768e-07
-3.83982994e-07
-3.84309097e-07
-3.84673593e-07
-3.84496766e-07
-3.85330617e-07
-3.62771937e-07
-3.62736981e-07
-3.64235984e-07
-3.64860704e-07
-3.64568374e-07
-3.67951121e-07
-3.84137949e-07
-3.83600586e-07
-3.84574023e-07
-3.65175302e-07
-3.67536698e-07
-3.84234615e-07
-3.65764775e-07
-3.65164186e-07
-3.68300028e-07
-3.83557755e-07
-3.84349999e-07
-3.67072864e-07
-3.84122312e-07
-3.84172873e-07
-3.64623874e-07
-3.64677931e-07
-3.70981043e-07
-3.84005027e-07
-3.84185365e-07
-3.64750965e-07
-3.65453831e-07
-3.83989471e-07
-3.84477045e-07
-3.64755025e-07
-3.6479244e-07
-3.65402117e-07
-3.67320892e-07
-3.83829093e-07
-3.84065328e-07
-3.65174918e-07
-3.65398107e-07
-3.65170808e-07
-3.67908528e-07
-3.83954248e-07
-3.83956314e-07
-3.64029692e-07
-3.63979438e-07
-3.65879192e-07
-3.8411237e-07
-3.83617922e-07
-3.84218208e-07
-3.83706466e-07
-3.84253907e-07
-3.6511186e-07
-3.65062499e-07
-3.83754105e-07
-3.84180225e-07
-3.64886713e-07
-3.64625141e-07
-3.67068e-07
-3.84000997e-07
-3.83689622e-07
-3.64834247e-07
-3.65091031e-07
-3.65293037e-07
-3.66677892e-07
-3.83850013e-07
-3.83503898e-07
-3.84021714e-07
-3.65284659e-07
-3.64804255e-07
-3.70801752e-07
-3.8386681e-07
-3.83615246e-07
-3.65154562e-07
-3.65442162e-07
-3.83870927e-07
-3.83895188e-07
-3.6501621e-07
-3.65206931e-07
-3.83850754e-07
-3.83963892e-07
-3.64903654e-07
-3.65539005e-07
-3.83876489e-07
-3.83817008e-07
-3.64516634e-07
-3.67733172e-07
-3.8398555e-07
-3.65603926e-07
-3.65284842e-07
-3.65822128e-07
-3.67897537e-07
-3.83722433e-07
-3.83831461e-07
-3.65266967e-07
-3.65681094e-07
-3.83853932e-07
-3.84127324e-07
-3.64732102e-07
-3.65598429e-07
-3.8400613e-07
-3.84116773e-07
-3.64137641e-07
-3.66575952e-07
-3.84353634e-07
-3.65046011e-07
-3.64874121e-07
-3.65033002e-07
-3.67219153e-07
-3.83968883e-07
-3.83628693e-07
-3.84406635e-07
-3.64572214e-07
-3.64154104e-07
-3.6614526e-07
-3.83782907e-07
-3.84568621e-07
-3.66195929e-07
-3.84294929e-07
-3.84288977e-07
-3.64448318e-07
-3.64529799e-07
-3.67109603e-07
-3.84049669e-07
-3.8417402e-07
-3.64815134e-07
-3.6616753e-07
-3.8403784e-07
-3.84220282e-07
-3.64349026e-07
-3.69528937e-07
-3.84556697e-07
-3.65475045e-07
-3.64252757e-07
-3.68339106e-07
-3.84116131e-07
-3.84409319e-07
-3.64578086e-07
-3.65609943e-07
-3.83956585e-07
-3.8476184e-07
-3.64720648e-07
-3.65437383e-07
-3.83842474e-07
-3.84823552e-07
-3.64916524e-07
-3.65807887e-07
-3.83801328e-07
-3.84471205e-07
-3.64604067e-07
-3.64572739e-07
-3.69931291e-07
-3.84063974e-07
-3.84409712e-07
-3.64560072e-07
-3.69207836e-07
-3.84639918e-07
-3.65100351e-07
-3.65110988e-07
-3.65271173e-07
-3.69039597e-07
-3.83791786e-07
-3.83484427e-07
-3.84613701e-07
-3.65016368e-07
-3.64371189e-07
-3.6942667e-07
-3.84009468e-07
-3.84770763e-07
-3.65031098e-07
-3.66028602e-07
-3.83892937e-07
-3.85057354e-07
-3.6497736e-07
-3.65764323e-07
-3.83909796e-07
-3.85131496e-07
-3.64759723e-07
-3.66031346e-07
-3.84028103e-07
-3.85009532e-07
-3.64128435e-07
-3.68244279e-07
-3.85291767e-07
-3.6529147e-07
-3.65278429e-07
-3.8393489e-07
-3.85326113e-07
-3.64460254e-07
-3.64486944e-07
-3.64847924e-07
-3.67356763e-07
-3.84006017e-07
-3.84025624e-07
-3.84137763e-07
-3.8524291e-07
-3.63906736e-07
-3.67133996e-07
-3.85443156e-07
-3.65267346e-07
-3.65423381e-07
-3.83894462e-07
-3.8538304e-07
-3.64706483e-07
-3.64795948e-07
-3.65187702e-07
-3.71581155e-07
-3.83928744e-07
-3.83617123e-07
-3.8481655e-07
-3.64865201e-07
-3.64207506e-07
-3.68874011e-07
-3.84201963e-07
-3.84697564e-07
-3.64030966e-07
-3.64087527e-07
-3.67493079e-07
-3.84268153e-07
-3.83644281e-07
-3.85391685e-07
-3.64961273e-07
-3.65087784e-07
-3.83920062e-07
-3.85000934e-07
-3.64780833e-07
-3.64832683e-07
-3.65673261e-07
-3.68546986e-07
-3.83710224e-07
-3.84246573e-07
-3.65613597e-07
-3.66978021e-07
-3.8379267e-07
-3.8417347e-07
-3.64728221e-07
-3.64848452e-07
-3.68818235e-07
-3.84024877e-07
-3.84020615e-07
-3.64806671e-07
-3.65653937e-07
-3.84040752e-07
-3.84172628e-07
-3.64318034e-07
-3.6529079e-07
-3.8412067e-07
-3.84258558e-07
-3.63780268e-07
-3.6352399e-07
-3.66576777e-07
-3.84352347e-07
-3.83642028e-07
-3.8424496e-07
-3.64960293e-07
-3.64747848e-07
-3.65956003e-07
-3.68627742e-07
-3.83711822e-07
-3.83503826e-07
-3.65978735e-07
-3.65867587e-07
-3.8389409e-07
-3.83800337e-07
-3.65557376e-07
-3.65457068e-07
-3.84149146e-07
-3.83976791e-07
-3.65124998e-07
-3.650512e-07
-3.8439918e-07
-3.84124866e-07
-3.64525982e-07
-3.64593109e-07
-3.846135e-07
-3.84394071e-07
-3.63587158e-07
-3.63079345e-07
-3.6504354e-07
-3.64690428e-07
-3.69248219e-07
-3.84399884e-07
-3.84079089e-07
-3.84194391e-07
-3.84376119e-07
-3.64894899e-07
-3.64422803e-07
-3.84581724e-07
-3.84298777e-07
-3.6487385e-07
-3.64799887e-07
-3.8442617e-07
-3.84333192e-07
-3.64796395e-07
-3.64172683e-07
-3.84044048e-07
-3.84851018e-07
-3.65700372e-07
-3.85267915e-07
-3.83793539e-07
-3.6309563e-07
-3.64711252e-07
-3.84589861e-07
-3.84226083e-07
-3.64326878e-07
-3.64193526e-07
-3.65611734e-07
-3.68101689e-07
-3.84061234e-07
-3.83669531e-07
-3.84209395e-07
-3.64945722e-07
-3.64567007e-07
-3.70213178e-07
-3.84041479e-07
-3.83836924e-07
-3.65156603e-07
-3.65807595e-07
-3.83949938e-07
-3.84251881e-07
-3.64785261e-07
-3.65426856e-07
-3.83981615e-07
-3.84484572e-07
-3.64350252e-07
-3.65436741e-07
-3.84112077e-07
-3.84542898e-07
-3.63561014e-07
-3.63688557e-07
-3.66459637e-07
-3.84260713e-07
-3.83709232e-07
-3.84724125e-07
-3.64157842e-07
-3.63980424e-07
-3.69816457e-07
-3.84360668e-07
-3.84162172e-07
-3.64017033e-07
-3.68499482e-07
-3.84748411e-07
-3.64596635e-07
-3.64358769e-07
-3.657347e-07
-3.65515634e-07
-3.71912003e-07
-3.83871483e-07
-3.8368294e-07
-3.84497861e-07
-3.64701606e-07
-3.64749499e-07
-3.71561082e-07
-3.84113976e-07
-3.84479499e-07
-3.64841467e-07
-3.66269496e-07
-3.84183976e-07
-3.84679602e-07
-3.63767471e-07
-3.63851115e-07
-3.66394382e-07
-3.84334802e-07
-3.84697427e-07
-3.6402018e-07
-3.65790786e-07
-3.84229398e-07
-3.84830472e-07
-3.63707557e-07
-3.63812928e-07
-3.66306427e-07
-3.84115981e-07
-3.84110463e-07
-3.84183732e-07
-3.84876146e-07
-3.64071186e-07
-3.66090666e-07
-3.84417707e-07
-3.83884391e-07
-3.8494842e-07
-3.64166681e-07
-3.64201534e-07
-3.6559647e-07
-3.65430493e-07
-3.67343342e-07
-3.83559728e-07
-3.84626407e-07
-3.66852183e-07
-3.84363911e-07
-3.84301675e-07
-3.63832013e-07
-3.71320134e-07
-3.84816155e-07
-3.65549585e-07
-3.65839492e-07
-3.84075109e-07
-3.83997096e-07
-3.84592132e-07
-3.63758244e-07
-3.63605737e-07
-3.65253206e-07
-3.64324272e-07
-3.6883756e-07
-3.8407464e-07
-3.83577664e-07
-3.84652059e-07
-3.650531e-07
-3.66155973e-07
-3.84676769e-07
-3.64552584e-07
-3.64769324e-07
-3.85379339e-07
-3.83920391e-07
-3.85410373e-07
-3.65066537e-07
-3.65290622e-07
-3.8391296e-07
-3.84327268e-07
-3.64819594e-07
-3.65740887e-07
-3.83987578e-07
-3.83980313e-07
-3.64255143e-07
-3.67278708e-07
-3.84152168e-07
-3.65649837e-07
-3.65146426e-07
-3.8369923e-07
-3.84231814e-07
-3.64914012e-07
-3.64182903e-07
-3.65853249e-07
-3.84063696e-07
-3.83945414e-07
-3.84181818e-07
-3.84355015e-07
-3.63851937e-07
-3.63085003e-07
-3.65117173e-07
-3.84554091e-07
-3.84113486e-07
-3.84671859e-07
-3.63834999e-07
-3.62818895e-07
-3.64790294e-07
-3.63480256e-07
-3.65914336e-07
-3.8425475e-07
-3.83830219e-07
-3.84191659e-07
-3.64819798e-07
-3.65228738e-07
-3.83936918e-07
-3.8390082e-07
-3.83985843e-07
-3.64940633e-07
-3.64685126e-07
-3.83839738e-07
-3.84083013e-07
-3.64921857e-07
-3.64394049e-07
-3.65584846e-07
-3.8406054e-07
-3.83578788e-07
-3.84115192e-07
-3.65439152e-07
-3.64436683e-07
-3.65945709e-07
-3.83937572e-07
-3.83422543e-07
-3.64977905e-07
-3.65671303e-07
-3.65173741e-07
-3.69518839e-07
-3.83753681e-07
-3.83211611e-07
-3.64901341e-07
-3.66726851e-07
-3.83777172e-07
-3.6583948e-07
-3.65020192e-07
-3.65808567e-07
-3.65574752e-07
-3.71552298e-07
-3.83358701e-07
-3.83607514e-07
-3.66283553e-07
-3.83613782e-07
-3.83500687e-07
-3.64887713e-07
-3.65737632e-07
-3.65089351e-07
-3.67839645e-07
-3.83624328e-07
-3.83433513e-07
-3.83658349e-07
-3.83796068e-07
-3.6555279e-07
-3.64763115e-07
-3.6606341e-07
-3.83809252e-07
-3.83888055e-07
-3.65084665e-07
-3.65182938e-07
-3.65831945e-07
-3.65170292e-07
-3.68190235e-07
-3.83720019e-07
-3.83409056e-07
-3.84026423e-07
-3.83589238e-07
-3.84413924e-07
-3.64938718e-07
-3.64472582e-07
-3.6565156e-07
-3.64904972e-07
-3.68367187e-07
-3.83929904e-07
-3.84388277e-07
-3.65086257e-07
-3.65898497e-07
-3.83996217e-07
-3.8450029e-07
-3.64157895e-07
-3.64102612e-07
-3.65405224e-07
-3.84165433e-07
-3.85179796e-07
-3.64429113e-07
-3.64788211e-07
-3.64707777e-07
-3.66226511e-07
-3.84072845e-07
-3.8430229e-07
-3.84118633e-07
-3.85563999e-07
-3.64664894e-07
-3.65484027e-07
-3.8425101e-07
-3.85494259e-07
-3.64156783e-07
-3.64063781e-07
-3.63613839e-07
-3.65748162e-07
-3.84452801e-07
-3.8400883e-07
-3.84959493e-07
-3.84164442e-07
-3.85316749e-07
-3.84224934e-07
-3.86101012e-07
-3.63838056e-07
-3.63989621e-07
-3.65373368e-07
-3.6493041e-07
-3.68344311e-07
-3.84036558e-07
-3.85236931e-07
-3.65318295e-07
-3.66579459e-07
-3.83903735e-07
-3.85483742e-07
-3.65080986e-07
-3.66170912e-07
-3.83905651e-07
-3.85602314e-07
-3.64882318e-07
-3.66021926e-07
-3.83914745e-07
-3.85616295e-07
-3.6487983e-07
-3.66124124e-07
-3.83918007e-07
-3.85560846e-07
-3.64981792e-07
-3.66355245e-07
-3.84045179e-07
-3.85390484e-07
-3.64492436e-07
-3.67686582e-07
-3.85048836e-07
-3.64514977e-07
-3.64275452e-07
-3.6525873e-07
-3.65318517e-07
-3.65266421e-07
-3.68738205e-07
-3.83982174e-07
-3.83912098e-07
-3.8424906e-07
-3.846592e-07
-3.84526327e-07
-3.85497603e-07
-3.84724821e-07
-3.86190717e-07
-3.62084285e-07
-3.62093182e-07
-3.63988401e-07
-3.6455947e-07
-3.64594551e-07
-3.68027329e-07
-3.843302e-07
-3.84597457e-07
-3.84405621e-07
-3.8551176e-07
-3.63691386e-07
-3.63704596e-07
-3.6477527e-07
-3.66748361e-07
-3.83985979e-07
-3.83846387e-07
-3.84650154e-07
-3.84200528e-07
-3.85220064e-07
-3.63194417e-07
-3.63111144e-07
-3.66288362e-07
-3.84478941e-07
-3.84579867e-07
-3.64374168e-07
-3.65622042e-07
-3.8415694e-07
-3.84681972e-07
-3.64626717e-07
-3.65434273e-07
-3.84075375e-07
-3.84653757e-07
-3.64499667e-07
-3.65180501e-07
-3.84095149e-07
-3.84572711e-07
-3.64163335e-07
-3.65144673e-07
-3.84188148e-07
-3.84473624e-07
-3.63610717e-07
-3.63567496e-07
-3.65865916e-07
-3.84308806e-07
-3.8388141e-07
-3.84406601e-07
-3.84034613e-07
-3.63490395e-07
-3.65963304e-07
-3.84281255e-07
-3.65373503e-07
-3.64705223e-07
-3.83946993e-07
-3.84069995e-07
-3.64775235e-07
-3.64882311e-07
-3.64868026e-07
-3.67132913e-07
-3.8408213e-07
-3.83602849e-07
-3.84028141e-07
-3.65507105e-07
-3.64941012e-07
-3.83981273e-07
-3.84114187e-07
-3.64825837e-07
-3.63900649e-07
-3.66120613e-07
-3.84452618e-07
-3.83789302e-07
-3.84286243e-07
-3.6504829e-07
-3.64344734e-07
-3.64795032e-07
-3.65768037e-07
-3.84294734e-07
-3.83591693e-07
-3.64553618e-07
-3.65838301e-07
-3.84452807e-07
-3.83903895e-07
-3.84372404e-07