/*--------------------------------*- C++ -*----------------------------------*\
| =========                 |                                                 |
| \\      /  F ield         | OpenFOAM: The Open Source CFD Toolbox           |
|  \\    /   O peration     | Version:  2306                                  |
|   \\  /    A nd           | Website:  www.openfoam.com                      |
|    \\/     M anipulation  |                                                 |
\*---------------------------------------------------------------------------*/
FoamFile
{
    version     2.0;
    format      ascii;
    arch        "LSB;label=32;scalar=64";
    class       volScalarField;
    location    "0.0001";
    object      prefDh_T;
}
// * * * * * * * * * * * * * * * * * * * * * * * * * * * * * * * * * * * * * //

dimensions      [1 1 -3 -1 0 0 0];

internalField   nonuniform List<scalar> 
3816
(
-0.000605712138
-0.000594041031
-0.000591198461
-0.000591195025
-0.000591194502
-0.000591194501
-0.000591194501
-0.000591194501
-0.000591194501
-0.000591194501
-0.000591194501
-0.000591194501
-0.000591194501
-0.000591194501
-0.000591194501
-0.000591194501
-0.000591194501
-0.000591194501
-0.000591194501
-0.000591194501
-0.000591194501
-0.000591194501
-0.000591194501
-0.000591194501
-0.000591194501
-0.000591194501
-0.000591194501
-0.000591194501
-0.000591194501
-0.000591194501
-0.000591194501
-0.000591194501
-0.000591194501
-0.000591194501
-0.000591194501
-0.000591194501
-0.000591194501
-0.000591194501
-0.000591194501
-0.000591194501
-0.000591194501
-0.000591194501
-0.000591194501
-0.000591194501
-0.000591194501
-0.000591194501
-0.000591194501
-0.000591194501
-0.000591194501
-0.000591194501
-0.000591194501
-0.000591194501
-0.000591194501
-0.000591194501
-0.000591194501
-0.000591194501
-0.000591194501
-0.000591194501
-0.000591194501
-0.000591194501
-0.000591194501
-0.000591194501
-0.000591194501
-0.000591194501
-0.000591194501
-0.000591194501
-0.000591194501
-0.000591194501
-0.000591194501
-0.000591194501
-0.000591194501
-0.000591194501
-0.000591194501
-0.000591194501
-0.000591194501
-0.000591194501
-0.000591194501
-0.000591194501
-0.000591194502
-0.000591194504
-0.000591194512
-0.000591194538
-0.000591194619
-0.000591194821
-0.000591195377
-0.000591196691
-0.000591199613
-0.000591205652
-0.000591217285
-0.000591238125
-0.000591273251
-0.000591328121
-0.000591410193
-0.000591524184
-0.000591681205
-0.000591878829
-0.000592077315
-0.000592368796
-0.000592634498
-0.000592746734
-0.000592858485
-0.000594992208
-0.000594427998
-0.00059317251
-0.000598375928
-0.000575497316
-0.000584622638
-0.000747477465
-0.000747710334
-0.000670052852
-0.000527354675
-0.00053171458
-0.000600198882
-0.000732262607
-0.000747097288
-0.000719097972
-0.000500598194
-0.000488182969
-0.000596188377
-0.000741006599
-0.000723063648
-0.000552700909
-0.00061002077
-0.000744183463
-0.000723881949
-0.000525893503
-0.00057646084
-0.000740237225
-0.000730694092
-0.000482090689
-0.000467256428
-0.000514612079
-0.000607519102
-0.000746188957
-0.000742977707
-0.000747932009
-0.00074441545
-0.000590494814
-0.000479544543
-0.000510702818
-0.000528222035
-0.000497738981
-0.000593320238
-0.000734585089
-0.000744619933
-0.000731603104
-0.000745128142
-0.000738267134
-0.000529873808
-0.00051506536
-0.000746744907
-0.000730993496
-0.000556162727
-0.000543285489
-0.000594741309
-0.000527869262
-0.000600099664
-0.000693623154
-0.000741697372
-0.00072190796
-0.000480208347
-0.000378071388
-0.000551203004
-0.000742144599
-0.000741074617
-0.00073898162
-0.000737274091
-0.000526260947
-0.000560491758
-0.000738416449
-0.000737273184
-0.000535057116
-0.000535277862
-0.000573499425
-0.000605659354
-0.000741908327
-0.000742729948
-0.000740861307
-0.000524723109
-0.000525077128
-0.000581009172
-0.000593589344
-0.000746139333
-0.000730655686
-0.000566533035
-0.000676890845
-0.000736635354
-0.000549773654
-0.000557339313
-0.000601329854
-0.000548224091
-0.000590619551
-0.000746355857
-0.000746348641
-0.000746751644
-0.000544634081
-0.000596775513
-0.000746701126
-0.000560427218
-0.000559535367
-0.000747156671
-0.000744829055
-0.000522095447
-0.00053973766
-0.00074904636
-0.000744247735
-0.000512522911
-0.000535063334
-0.000750153431
-0.000746541577
-0.000518223499
-0.000551419499
-0.000751141414
-0.000747084299
-0.000517331638
-0.000513960635
-0.000586781466
-0.000746635027
-0.000754324648
-0.000540396007
-0.000599995486
-0.000749874596
-0.000565375516
-0.000559836654
-0.000594666361
-0.000584076765
-0.000590465918
-0.00059905866
-0.000600524822
-0.000746814197
-0.000753099032
-0.000594163056
-0.000587780472
-0.000749157866
-0.000752400955
-0.000538017379
-0.000538361483
-0.000561076968
-0.0005920372
-0.000747063981
-0.000753436132
-0.000566322029
-0.000567590557
-0.000748172842
-0.0007510474
-0.000547753867
-0.000548542729
-0.000749330355
-0.000749851122
-0.000534282447
-0.000537258041
-0.000750178291
-0.000749869491
-0.000527073671
-0.00053233596
-0.000750452348
-0.00075026276
-0.000530189189
-0.000545374698
-0.000749703259
-0.000749224363
-0.000535695133
-0.000590064179
-0.00074603825
-0.000586391153
-0.000536797567
-0.000598616386
-0.000516000208
-0.000592358744
-0.000747435119
-0.000746475244
-0.000747297258
-0.000529812671
-0.000516067253
-0.000747304595
-0.000742276822
-0.000517717458
-0.000526120334
-0.000748307676
-0.000741364353
-0.000510516529
-0.000524326816
-0.000748609152
-0.000741293856
-0.000510777699
-0.000526084002
-0.000748037905
-0.000740760744
-0.000517564757
-0.000534751815
-0.000746802846
-0.000739725071
-0.000525925958
-0.00054560084
-0.000745375108
-0.000738664786
-0.000522565275
-0.000522736733
-0.000530466638
-0.000558719347
-0.000514074063
-0.000595629115
-0.000745989254
-0.000745298288
-0.000741659457
-0.000548820116
-0.000548260998
-0.000747323948
-0.000738489175
-0.00054984747
-0.00056569293
-0.000749701803
-0.000733078062
-0.000555313657
-0.000632225157
-0.000738666734
-0.000562822304
-0.000562798003
-0.000594961322
-0.000566509621
-0.00059590769
-0.000544883235
-0.000589604699
-0.000746922303
-0.000747852715
-0.000743505446
-0.000554070651
-0.000554903834
-0.000749954794
-0.000743979625
-0.000549258847
-0.000566176508
-0.000751752175
-0.000743481334
-0.000545942561
-0.00056622463
-0.000752724607
-0.000742076021
-0.00054301314
-0.000612169901
-0.000748596152
-0.000546660118
-0.000540083818
-0.000572115436
-0.000548564075
-0.000606599292
-0.000748165014
-0.000743825615
-0.000751167154
-0.00055776234
-0.000590707829
-0.000748093449
-0.000577338145
-0.000544521898
-0.000594471475
-0.00053650834
-0.000589915674
-0.000747015107
-0.000747250921
-0.000750936963
-0.000532702535
-0.000517466393
-0.000746504714
-0.000750265765
-0.000524572999
-0.000518466477
-0.00074660093
-0.000749631525
-0.000519137535
-0.000516998361
-0.000746548657
-0.000749574591
-0.000520288432
-0.000518485745
-0.000745960657
-0.000749473548
-0.000526722498
-0.000524082246
-0.000745105983
-0.000749019684
-0.000530994087
-0.000529299374
-0.000745234876
-0.000747963865
-0.000522184987
-0.000509769842
-0.000531367457
-0.000560721422
-0.000536900173
-0.000593352293
-0.000748163362
-0.000747134032
-0.000751048551
-0.00057827062
-0.000590731214
-0.000750018675
-0.000586053016
-0.000564500268
-0.000557110703
-0.000599256526
-0.000745199182
-0.00075034533
-0.000746492829
-0.000753313004
-0.00055064294
-0.00052923586
-0.000554664015
-0.000585639397
-0.000744667064
-0.000755775326
-0.000566979037
-0.000562608254
-0.000746475553
-0.000754366682
-0.00052997117
-0.000591147739
-0.000753147374
-0.000579497558
-0.000533242926
-0.000747999646
-0.000752759598
-0.000541240707
-0.000529772308
-0.000748450564
-0.000751067494
-0.000533008379
-0.000538318672
-0.00075223574
-0.00074701992
-0.000539507456
-0.000515116712
-0.000589509589
-0.000744309868
-0.0007562643
-0.000528957841
-0.000551078707
-0.000744887127
-0.000753858351
-0.000525298879
-0.000536784188
-0.00074553906
-0.000750491826
-0.000514670805
-0.000515217982
-0.000525623478
-0.000560665217
-0.000524168235
-0.000594278291
-0.000746837278
-0.000746049595
-0.000748041127
-0.000540244189
-0.000507401147
-0.000746968936
-0.000746463719
-0.000566959631
-0.00074518111
-0.000746209691
-0.000536874566
-0.000537733311
-0.000573594632
-0.000552393838
-0.000596378946
-0.000547416081
-0.00059283017
-0.000745415785
-0.000743929685
-0.000746800811
-0.000547120121
-0.000539390873
-0.00074572933
-0.000744196876
-0.000536647794
-0.0005367028
-0.000556443204
-0.000567160142
-0.000748280665
-0.000741955525
-0.000564236466
-0.000740644726
-0.000748396852
-0.000506728309
-0.000563477929
-0.000742611898
-0.000745427783
-0.000513425634
-0.000591103918
-0.000746481192
-0.000549610158
-0.000542399134
-0.00053007238
-0.000585880019
-0.000747757453
-0.000741924154
-0.000749240183
-0.000554552878
-0.000527322089
-0.000740648594
-0.000747818262
-0.000547047481
-0.000533832484
-0.00073994821
-0.00074743119
-0.000543171959
-0.00052903965
-0.000737795174
-0.000747925013
-0.000541784675
-0.00052069285
-0.000733370492
-0.000748876989
-0.000548435158
-0.000515686264
-0.00072602769
-0.000749666883
-0.000566261451
-0.00051981527
-0.000715793463
-0.000749228635
-0.000597551585
-0.000540939532
-0.000697521702
-0.00074706644
-0.000598331447
-0.000593593214
-0.000695902798
-0.00059212206
-0.00055349653
-0.000569485202
-0.000553808978
-0.000572157073
-0.000541183232
-0.000537198996
-0.000641907414
-0.000737396396
-0.00073978358
-0.000610259566
-0.000573024587
-0.00058853519
-0.000735734253
-0.000608941979
-0.000578229208
-0.000584039777
-0.000734919356
-0.000611435907
-0.000599554627
-0.000601072327
-0.000606997642
-0.000573130612
-0.000582147205
-0.000736747763
-0.000640423143
-0.000570512347
-0.000585883705
-0.000743203837
-0.000661406193
-0.000584676975
-0.000506645021
-0.000581779253
-0.00074266707
-0.000607541678
-0.000599285753
-0.000749717307
-0.000665984102
-0.000594351545
-0.000573919206
-0.000587122371
-0.000602158021
-0.000596650528
-0.000581275686
-0.000585443436
-0.000656515635
-0.0007325461
-0.000738421027
-0.00068876109
-0.000591507306
-0.000597624509
-0.000746459559
-0.000619864787
-0.000584677014
-0.000632318363
-0.000697581278
-0.000587593978
-0.000540696006
-0.000557349064
-0.000537478215
-0.00059450261
-0.000735293208
-0.000748041336
-0.000678250704
-0.000561239192
-0.000617392981
-0.000750743407
-0.000718145204
-0.000532915416
-0.00060133877
-0.000749692467
-0.000729488094
-0.000537248893
-0.000613345775
-0.000751195769
-0.00067439803
-0.00056892734
-0.000592417201
-0.000596491526
-0.00056159947
-0.000598159133
-0.000751748155
-0.000749846754
-0.000520908351
-0.00056094025
-0.000749634343
-0.000742444462
-0.000521474242
-0.000560363487
-0.000749800756
-0.000744912893
-0.000530456332
-0.000575256632
-0.000749935637
-0.000744636188
-0.00052052235
-0.000504976443
-0.00055085743
-0.000527382749
-0.000588030757
-0.000740932596
-0.00075014946
-0.00064282461
-0.000586501427
-0.000594673445
-0.000620897516
-0.000571864256
-0.000596255743
-0.000751445364
-0.000748216932
-0.000548497427
-0.000588158973
-0.000751015899
-0.000743519781
-0.000521072034
-0.000482792735
-0.000591777676
-0.000741947726
-0.000599002058
-0.000591651028
-0.000744345168
-0.000747932053
-0.000505006573
-0.000500424853
-0.000531179176
-0.000593649836
-0.000741933416
-0.000741913816
-0.000734092895
-0.000529350551
-0.000511640175
-0.000559829947
-0.000546150702
-0.00051555361
-0.000594516743
-0.000737501535
-0.000725955279
-0.000730312118
-0.000714694737
-0.000564478417
-0.000611490832
-0.00074459238
-0.000725717125
-0.000583375127
-0.000599497506
-0.000597276855
-0.000592152345
-0.000596342756
-0.000745223007
-0.00072420847
-0.000541376878
-0.000610631135
-0.000746102592
-0.000719017899
-0.000524782941
-0.000601717188
-0.00074503197
-0.000708710075
-0.000517250735
-0.000600762025
-0.000744161543
-0.000701587005
-0.000513699226
-0.000602267371
-0.000743501906
-0.000696243568
-0.000512316087
-0.000605249187
-0.000742954846
-0.000690653518
-0.000512081689
-0.00060962825
-0.000742475833
-0.00068376254
-0.000512311067
-0.000613916532
-0.000742078801
-0.000676573037
-0.000512533749
-0.000610832357
-0.000741727653
-0.000669303159
-0.000512538883
-0.000607758708
-0.000741431841
-0.000662503536
-0.000512203198
-0.000605023147
-0.000741215836
-0.000656603238
-0.000511431083
-0.000602818994
-0.000741115444
-0.000652194887
-0.000510274941
-0.000601243939
-0.000741170003
-0.000649459301
-0.000508873327
-0.000600409005
-0.000741430858
-0.000648994509
-0.000507567146
-0.000600764522
-0.000741970911
-0.00065276165
-0.000506898493
-0.000603374158
-0.000742840952
-0.000663578911
-0.000507918468
-0.000611437364
-0.000744105986
-0.000694570726
-0.000512570488
-0.000596923311
-0.000744320537
-0.000730160713
-0.000520830731
-0.000596406584
-0.000741534391
-0.000730247762
-0.000461446357
-0.000458215184
-0.000597756944
-0.000734118539
-0.000738175562
-0.000528977238
-0.000594512077
-0.0007406989
-0.000734940033
-0.000523248013
-0.000578806465
-0.000740245379
-0.00073430227
-0.000431230363
-0.000428760298
-0.000525385438
-0.000530218022
-0.000558610332
-0.000617989652
-0.000737916297
-0.000735519959
-0.000745686697
-0.000484655258
-0.000591248866
-0.000738844034
-0.000592534265
-0.000740688395
-0.000745155038
-0.000563501463
-0.000599739052
-0.000740074483
-0.000745475618
-0.000537056834
-0.000561774742
-0.00074116586
-0.000743111068
-0.000450815691
-0.000449605265
-0.000517600499
-0.000603262177
-0.000743637765
-0.000745809619
-0.000744025673
-0.000593076602
-0.000526474518
-0.000588162969
-0.000740764218
-0.000753644483
-0.00053707712
-0.000563214646
-0.000744081852
-0.000752267854
-0.000522477158
-0.000597962557
-0.000742337575
-0.000599100374
-0.000474206841
-0.000500381002
-0.000501687326
-0.000534859303
-0.000683042562
-0.000737199736
-0.000724577847
-0.000740269176
-0.000406530888
-0.000393398594
-0.000556917461
-0.000745603768
-0.000742979211
-0.000589569591
-0.00074301729
-0.00075318604
-0.000560216362
-0.000591440907
-0.000741030717
-0.000751240714
-0.000489786036
-0.000471718381
-0.000589978243
-0.000743681899
-0.000754296819
-0.000522280424
-0.000548990512
-0.00074495368
-0.000753508772
-0.000526100966
-0.000540275631
-0.000746037546
-0.000752465182
-0.000522839568
-0.000542216743
-0.000745642507
-0.00075117664
-0.000492137239
-0.000596183936
-0.000748810853
-0.000562918201
-0.000550985557
-0.000740386352
-0.000744930277
-0.000448418068
-0.000446994377
-0.000525511799
-0.000539951119
-0.000558760367
-0.000591744399
-0.000743633663
-0.00074862409
-0.000745182772
-0.000587878733
-0.000531635141
-0.000589086753
-0.000744944778
-0.000750538619
-0.000539919266
-0.000566975113
-0.000744922289
-0.000745116669
-0.000535566554
-0.000558743874
-0.0007442613
-0.000740829772
-0.000516078135
-0.00054334017
-0.000743518873
-0.000738292837
-0.000470629589
-0.000470431927
-0.000535547928
-0.000596571814
-0.000741209222
-0.000742120112
-0.000740189759
-0.000480925441
-0.000479106347
-0.000565748383
-0.0005927763
-0.000743508526
-0.000742930641
-0.000556101523
-0.000584601961
-0.000746785059
-0.000741484302
-0.000536019899
-0.000565427208
-0.000748179321
-0.000735888924
-0.000508583151
-0.000623807196
-0.000739636834
-0.000554544638
-0.000577669797
-0.000743605949
-0.00073647147
-0.000416964455
-0.000395257193
-0.000563604071
-0.000749000379
-0.000746232051
-0.000745421715
-0.000743713703
-0.000595708472
-0.000577782126
-0.000594168898
-0.000603061435
-0.000598020594
-0.000619874964
-0.000744914518
-0.000737775805
-0.000466213846
-0.000465228276
-0.00052792716
-0.000506824213
-0.000576862887
-0.000680018432
-0.000738016001
-0.000727794759
-0.000736136525
-0.000521838724
-0.000600803028
-0.000737011084
-0.000554914027
-0.000606272605
-0.00071966202
-0.00054096863
-0.00052011335
-0.000559811704
-0.00060104969
-0.000744280753
-0.000737587365
-0.000744404902
-0.00073739569
-0.000522950084
-0.000543454255
-0.000745024602
-0.000735505862
-0.000540912802
-0.000581036452
-0.000746445415
-0.000739312217
-0.000537451449
-0.000585392507
-0.000747410991
-0.000744285353
-0.000515269209
-0.000590414422
-0.000746396888
-0.000579124211
-0.000517535165
-0.000583992841
-0.000597518345
-0.000750384618
-0.000744098309
-0.000555674928
-0.000600540053
-0.000747773262
-0.000742673827
-0.000526379726
-0.000594353485
-0.000744413019
-0.000519566289
-0.000502723374
-0.000513925829
-0.000595961193
-0.000749941612
-0.000744776478
-0.000745873612
-0.000741803008
-0.000574737213
-0.000541401712
-0.000592131353
-0.000742088191
-0.00074455944
-0.00054505934
-0.000541800257
-0.000535960071
-0.000591497458
-0.000746821247
-0.000746676425
-0.000745943254
-0.000536499866
-0.000593892045
-0.000743645904
-0.000558476733
-0.000513235971
-0.00059263277
-0.000741697438
-0.000742757662
-0.000528766187
-0.000571072497
-0.000742509681
-0.000742205898
-0.000471479143
-0.000470476443
-0.000511261112
-0.000601578123
-0.00074332433
-0.000744672679
-0.000743126525
-0.000524130662
-0.000537468295
-0.000745491075
-0.000740077613
-0.000485682625
-0.000477044717
-0.000595321618
-0.000741009944
-0.000744332627
-0.000740193587
-0.000744053268
-0.000509343468
-0.000508038597
-0.000561605516
-0.000598543142
-0.000740352974
-0.000744689581
-0.000554409094
-0.000586956725
-0.000741542463
-0.000740109699
-0.000466744799
-0.000465217565
-0.000526685262
-0.00047744233
-0.000575517563
-0.00073904418
-0.000737653481
-0.000733574281
-0.000737881135
-0.000526110604
-0.000523761666
-0.000739267611
-0.000736933408
-0.000587396788
-0.00073597864
-0.000743626168
-0.000461206091
-0.000473632074
-0.000480766649
-0.000545153864
-0.000741764576
-0.000741886139
-0.000739758433
-0.000743008689
-0.000538940323
-0.000563529087
-0.00074245138
-0.000743533412
-0.000560297318
-0.000560748088
-0.000594004307
-0.000582234709
-0.000588986298
-0.000744810084
-0.000749404683
-0.000546402342
-0.00055903782
-0.000747393014
-0.000746289931
-0.000520623885
-0.000540805537
-0.00074771398
-0.00074313586
-0.000511725356
-0.000535516014
-0.000747286599
-0.000741140915
-0.00050946022
-0.000535179492
-0.000747001971
-0.000740239173
-0.000510211825
-0.000538263918
-0.000746950828
-0.000740084544
-0.000515072078
-0.000548417695
-0.000746826254
-0.000739883934
-0.000524130111
-0.000574878484
-0.000747356235
-0.000738666433
-0.000506397512
-0.000505571294
-0.00059058997
-0.000739988205
-0.000744937696
-0.000504476784
-0.000501167666
-0.00060001312
-0.000747879565
-0.000736866275
-0.000555586577
-0.000734728415
-0.000744143173
-0.000455017309
-0.00059509185
-0.000735863537
-0.000526874747
-0.000505253436
-0.000571905168
-0.000547125848
-0.000592469459
-0.000740770429
-0.000744765144
-0.000741778389
-0.000494692445
-0.000494081685
-0.000602551658
-0.000747495632
-0.000740892756
-0.000597882041
-0.000740906849
-0.000743606153
-0.000503256841
-0.00050294864
-0.00059338373
-0.000742870049
-0.000744324903
-0.000523741714
-0.00057306586
-0.000745033465
-0.000743447307
-0.000519226164
-0.000568742321
-0.000744589627
-0.000742525592
-0.000497068936
-0.000597723368
-0.000744937279
-0.000526190315
-0.000523125349
-0.000528009644
-0.000595485622
-0.000742679805
-0.000742870088
-0.000743734961
-0.000499792293
-0.000499827943
-0.000531640197
-0.000598287614
-0.000740899583
-0.000740368202
-0.000740192558
-0.000738725756
-0.000738855747
-0.000739008928
-0.000427323905
-0.000426535496
-0.000492530194
-0.000522988605
-0.00050779077
-0.000598029877
-0.000743172669
-0.000743408672
-0.000744120181
-0.000537943534
-0.00060041004
-0.00074628921
-0.000563490488
-0.000537495395
-0.000596605926
-0.000747106761
-0.000743350924
-0.000596055057
-0.000744294129
-0.000745275342
-0.000515870461
-0.000516010499
-0.000590299429
-0.00074350936
-0.000745753847
-0.000518830495
-0.000552415245
-0.000744522014
-0.000744347719
-0.00051991507
-0.000522513181
-0.000547117916
-0.000596736755
-0.000744825659
-0.000744732422
-0.00053883606
-0.000549122613
-0.00053833144
-0.000595416757
-0.00074741364
-0.000744315938
-0.000490846603
-0.00048534344
-0.000571611659
-0.000747272129
-0.000746242082
-0.000747711592
-0.000745833334
-0.000746917549
-0.000536917273
-0.000533092877
-0.000748574451
-0.000741181231
-0.000530145318
-0.000510266644
-0.000592234534
-0.000742823231
-0.000750734623
-0.000521568269
-0.000538548101
-0.000541323961
-0.000597767628
-0.000745395997
-0.000747426147
-0.000745345427
-0.000546756735
-0.000521269311
-0.000587612472
-0.000743726233
-0.000751607447
-0.000536543713
-0.000554578574
-0.000745029885
-0.000750457974
-0.000531908801
-0.00054355166
-0.000746544484
-0.00074956502
-0.000527998698
-0.00055738896
-0.000748375458
-0.000748029164
-0.00051272351
-0.000596070534
-0.000751749302
-0.000557674208
-0.000547000718
-0.000566365236
-0.000590549544
-0.000745621571
-0.000750563091
-0.000543034307
-0.000564073893
-0.00074682492
-0.000748704333
-0.000520135073
-0.000559247585
-0.000746784346
-0.000746416811
-0.000493925146
-0.000600247779
-0.000749191029
-0.00053277505
-0.000527175294
-0.000531719548
-0.000596441677
-0.000746433838
-0.00074634611
-0.000746461804
-0.000513537556
-0.000493302976
-0.000581733623
-0.000747516955
-0.000744126635
-0.00058527613
-0.00074396956
-0.000744873132
-0.000507945094
-0.000507722005
-0.000596174724
-0.000743912555
-0.000747924567
-0.000521823783
-0.000583562609
-0.000744898512
-0.000747705337
-0.000501596932
-0.000589972501
-0.000744315672
-0.000554415681
-0.000495082701
-0.000591524567
-0.000743898289
-0.000746971009
-0.000512302313
-0.000558370592
-0.000746615262
-0.000744104956
-0.000520360915
-0.000549109673
-0.000748254886
-0.000742041672
-0.000530054979
-0.000564889453
-0.000749462758
-0.000741844412
-0.000516808779
-0.000509511603
-0.000589441791
-0.000743105529
-0.000744484202
-0.000510783907
-0.000591884024
-0.000743020442
-0.000536665774
-0.000536405608
-0.000544402662
-0.00059093094
-0.000747624633
-0.0007477493
-0.000744687424
-0.000533808816
-0.000501832269
-0.000590644531
-0.000744296505
-0.000741593043
-0.000532001435
-0.000576187222
-0.000745714368
-0.000739690333
-0.000530462886
-0.000563735463
-0.000746146736
-0.000738072015
-0.00052121943
-0.0005746264
-0.000746394103
-0.000736250434
-0.000491904258
-0.000597144232
-0.000738043612
-0.000543519669
-0.000542446948
-0.00074495474
-0.000738489814
-0.00050728261
-0.00050749554
-0.000523300246
-0.000596089874
-0.000744746399
-0.000740993257
-0.000743734035
-0.000734582967
-0.000479798722
-0.000600075873
-0.000735656237
-0.000542849663
-0.000546971712
-0.000745359476
-0.000735563255
-0.000518631368
-0.000518584199
-0.000539174418
-0.000593623229
-0.000743235137
-0.000743882308
-0.000739743422
-0.000524462376
-0.000491903725
-0.000595080737
-0.000742664847
-0.000737000887
-0.000488164686
-0.000487339592
-0.000597154087
-0.000744402216
-0.000744557437
-0.000738729394
-0.000529365812
-0.000532561755
-0.000744997617
-0.000740311928
-0.000521488233
-0.000521364445
-0.00055970881
-0.000595929947
-0.000744873654
-0.000743117183
-0.000557802974
-0.000603142623
-0.000747333528
-0.000742789094
-0.000521469286
-0.000521310457
-0.000590517941
-0.000742659144
-0.000749210345
-0.000520874705
-0.000561552543
-0.000744883804
-0.000748588007
-0.000501215281
-0.000544268149
-0.000747217853
-0.000745115177
-0.000479697043
-0.000462553017
-0.000600643911
-0.000744565721
-0.000744464944
-0.000747761454
-0.00052916275
-0.000519466078
-0.00057094143
-0.000594089889
-0.000742553166
-0.00075055468
-0.00057246884
-0.000569316481
-0.000743066691
-0.000748238338
-0.000554718023
-0.000549950634
-0.000742046284
-0.000746692567
-0.000535631278
-0.000531410761
-0.000740825131
-0.000745962742
-0.000509313088
-0.000510373095
-0.000740736495
-0.000743740904
-0.000469016024
-0.000440681745
-0.000531401861
-0.000510272401
-0.000595943639
-0.000736048912
-0.000746767872
-0.000739141235
-0.000749559111
-0.000524195123
-0.000502518047
-0.000736974853
-0.000743612149
-0.000524134334
-0.00051735158
-0.000740300469
-0.000742499162
-0.000523291416
-0.000487557613
-0.0007433272
-0.000742170816
-0.000565873039
-0.000734567132
-0.000755418091
-0.000437094928
-0.000521614948
-0.000735436707
-0.000750922553
-0.000496018754
-0.000494753912
-0.000552458176
-0.000599773586
-0.000740656171
-0.000742039737
-0.000745361649
-0.000528328849
-0.000508801891
-0.000591507955
-0.000740768732
-0.000750894107
-0.000535121209
-0.000566721532
-0.000744050602
-0.000747733572
-0.000521403392
-0.000548707185
-0.000746302348
-0.000745504633
-0.00050366735
-0.000548221602
-0.000747895236
-0.000741872819
-0.000470403917
-0.000467446592
-0.000596572968
-0.000740110748
-0.000746478311
-0.000740195785
-0.000496203072
-0.000480130623
-0.000590082833
-0.000738294265
-0.000747312122
-0.000482154254
-0.000593902977
-0.000740380257
-0.000513069905
-0.000498032405
-0.000562376501
-0.000549822276
-0.000594180177
-0.000740285428
-0.00074299468
-0.000740339992
-0.00051710743
-0.000515358222
-0.000593414064
-0.000739130987
-0.000741938842
-0.000520121274
-0.000584276112
-0.000742585743
-0.000738373169
-0.000475907135
-0.000474611592
-0.000591632336
-0.000741696902
-0.000740854709
-0.000485938256
-0.000563467936
-0.00074500351
-0.000738812155
-0.000475276943
-0.00047384353
-0.000589407305
-0.000742611162
-0.000743204093
-0.000742007584
-0.000741648748
-0.000487604729
-0.000578517458
-0.000742741444
-0.000743228947
-0.000739962943
-0.000493356615
-0.000492790687
-0.000556264092
-0.000548244156
-0.000601053577
-0.00074667212
-0.000739722037
-0.000597538523
-0.00074031495
-0.000743709853
-0.000477638203
-0.000591909396
-0.000741877794
-0.000555955623
-0.000566888767
-0.000746432465
-0.00074345763
-0.000744461145
-0.000475707276
-0.00046911191
-0.00054242166
-0.000500498712
-0.000593823452
-0.000744375927
-0.000744081712
-0.000740470893
-0.000531981346
-0.000578396642
-0.000742038556
-0.000503279178
-0.000521014045
-0.000696480926
-0.000741524826
-0.000730070612
-0.000532716358
-0.000540245564
-0.000744347328
-0.000742194131
-0.000522956322
-0.000564213651
-0.000746370588
-0.000744384115
-0.000499418725
-0.000597580458
-0.000748006908
-0.00056027692
-0.000537896179
-0.00074729998
-0.00074299022
-0.000529032387
-0.000492414421
-0.000569228175
-0.000744920751
-0.000743402884
-0.000744022289
-0.000741791371
-0.000479582839
-0.000443200814
-0.00053519672
-0.00074263476
-0.000741537185
-0.000741428559
-0.000478096226
-0.000431221063
-0.000520258708
-0.000460989311
-0.000569616692
-0.000744687
-0.000742188183
-0.000744047824
-0.000522886824
-0.000540151023
-0.00074761425
-0.000742883706
-0.000747623757
-0.000527852549
-0.000517879206
-0.000746176905
-0.000744143635
-0.000529832693
-0.000502428579
-0.000559177049
-0.000745520828
-0.000748643173
-0.000745368177
-0.000554651551
-0.000504813731
-0.000577327235
-0.000746669437
-0.000752766476
-0.000531211931
-0.000566065901
-0.000539776388
-0.00058500274
-0.000748278513
-0.000752645665
-0.000529567518
-0.00059320771
-0.000752485233
-0.000572370554
-0.000535746713
-0.000571157305
-0.000560058745
-0.000587478902
-0.000751027687
-0.00075156055
-0.000591747501
-0.000752616691
-0.000751154496
-0.000529958067
-0.000568180311
-0.00053734981
-0.000589267405
-0.000750228852
-0.000750726076
-0.000748477495
-0.000748953796
-0.000557219382
-0.000522222535
-0.000579551166
-0.000749628587
-0.000743988373
-0.00053760971
-0.000538161952
-0.000570036664
-0.000537621333
-0.000591985595
-0.00074757267
-0.000748181196
-0.00074409266
-0.00074812783
-0.000740179403
-0.00053098261
-0.000504786711
-0.000562203166
-0.000523899308
-0.000593187424
-0.000742562551
-0.000738060279
-0.000533242395
-0.000570209225
-0.00074442121
-0.000738698239
-0.000493698775
-0.000488248294
-0.000549466131
-0.00074240777
-0.00073346713
-0.000504364103
-0.00051921175
-0.000515305114
-0.000585283891
-0.000741653382
-0.00073730614
-0.000739884997
-0.000729045889
-0.00051208161
-0.000546659262
-0.000737306728
-0.000730986529
-0.000486359013
-0.000484531374
-0.000461749309
-0.000564539023
-0.000741512531
-0.000742624739
-0.000734065921
-0.000740542363
-0.000725429177
-0.000739687888
-0.000721331311
-0.000477605371
-0.000475239233
-0.000546437559
-0.00052162127
-0.000597577368
-0.00074095272
-0.000737547321
-0.000542976773
-0.000595412583
-0.000744794042
-0.000736205228
-0.000534730274
-0.000576812612
-0.00074660956
-0.000736136006
-0.000526943911
-0.000569606775
-0.000747134524
-0.000735632875
-0.000526828398
-0.000573009027
-0.00074656936
-0.000734677329
-0.000530097641
-0.00058250587
-0.000743499866
-0.000736046552
-0.000504998874
-0.000606934611
-0.000741634607
-0.000503288344
-0.000495349416
-0.000538075021
-0.000544190136
-0.000539638606
-0.000593827772
-0.000742304639
-0.000741785085
-0.000741977433
-0.000734959382
-0.000740105142
-0.000730032809
-0.000737519864
-0.00073395307
-0.000394446313
-0.000391614334
-0.000480286712
-0.000506608496
-0.000506841916
-0.000602499301
-0.000738879437
-0.000737130298
-0.000737813268
-0.000739885517
-0.000467998663
-0.000467654562
-0.000516133362
-0.000605032757
-0.000740114971
-0.00074286264
-0.000737870494
-0.000741710441
-0.000737396757
-0.000448813942
-0.000437706964
-0.000585631982
-0.000737756927
-0.00074409372
-0.00049869289
-0.000554571027
-0.000740997814
-0.000741189544
-0.00051209428
-0.000545205408
-0.000742807285
-0.000740849032
-0.000507763578
-0.000534594045
-0.00074409163
-0.000741595576
-0.000493856862
-0.00053338193
-0.000745447663
-0.000739442718
-0.000470808469
-0.000461188759
-0.000569616807
-0.000739455664
-0.000748017667
-0.000739176162
-0.000748868596
-0.000461009456
-0.000572583497
-0.000747100215
-0.000544965899
-0.000518264057
-0.000741705003
-0.000745701712
-0.000518869933
-0.000524933695
-0.000522587363
-0.000603461185
-0.000746722977
-0.000741482071
-0.000747890502
-0.000551711328
-0.000527425254
-0.000745203152
-0.000742000274
-0.000523559498
-0.000477808913
-0.000578361455
-0.000743679219
-0.000741198791
-0.000745083527
-0.000531139684
-0.000501649238
-0.000517603809
-0.000564425923
-0.000740770871
-0.000744946841
-0.000508805719
-0.000566332732
-0.000746845883
-0.000741929858
-0.000747688981