/*--------------------------------*- C++ -*----------------------------------*\
| =========                 |                                                 |
| \\      /  F ield         | OpenFOAM: The Open Source CFD Toolbox           |
|  \\    /   O peration     | Version:  2306                                  |
|   \\  /    A nd           | Website:  www.openfoam.com                      |
|    \\/     M anipulation  |                                                 |
\*---------------------------------------------------------------------------*/
FoamFile
{
    version     2.0;
    format      ascii;
    arch        "LSB;label=32;scalar=64";
    class       volScalarField;
    location    "0.00102";
    object      prefDh_H2O;
}
// * * * * * * * * * * * * * * * * * * * * * * * * * * * * * * * * * * * * * //

dimensions      [1 1 -3 0 0 0 0];

internalField   nonuniform List<scalar> 
531
(
92.4979087
88.2796473
87.6047337
87.9128478
92.6624243
92.4938022
88.1415809
88.0730856
92.720387
92.4995427
88.123692
88.1625803
92.6103307
92.4437346
88.140726
87.6989005
88.1277553
92.546447
92.5897525
88.18939
88.3043055
92.4599543
92.4529525
88.1469941
87.7783473
88.28162
92.4838019
92.7211446
88.2224097
88.5775973
92.3958163
92.5522515
88.1648535
87.8406797
88.6513851
92.4224693
92.6148062
88.2071922
87.8556886
87.8632372
88.5765356
92.4446058
92.2916741
92.59997
92.3072952
92.9751601
88.1244578
87.9773575
87.9749191
87.8612872
88.2857911
92.3878643
92.2506835
92.8949759
88.1630279
87.8668081
88.9730848
92.3736323
92.8887087
88.1440808
87.8484849
88.9811897
92.3705034
92.8696838
88.2064832
87.862994
87.8895994
88.3718483
92.459141
92.3340061
92.6008703
92.3076962
92.9472041
88.3482484
87.9280914
87.8700246
88.558734
92.3549262
92.7974134
88.2259666
87.8260862
88.6942599
92.3628887
92.6959742
88.3726505
87.8748962
88.6924695
92.3400562
92.6410797
88.4755869
87.8912195
88.599894
92.3359789
92.5862518
88.4835431
87.9300987
87.8860407
88.2010886
92.3991633
92.68864
88.2084178
88.1778807
92.6023387
92.6156109
88.2629186
88.2125155
92.5278682
92.5624683
88.4562161
87.7934525
88.3989555
92.3291016
92.4471657
88.7503781
87.9934848
88.887823
92.2729835
92.4505425
88.6753569
87.8930873
88.3761326
92.3232478
92.446202
88.5145584
87.9429985
87.8731758
88.0515397
92.4281948
92.4845087
88.1900512
88.0160144
92.9084989
92.4648213
88.242102
87.9839653
92.8898552
92.4376266
88.2611625
88.0121313
92.8239881
92.3983931
88.2857585
88.0928277
92.5972588
92.4638311
88.5020672
87.7043865
88.0021327
92.4332329
92.321984
88.2976497
88.1475217
92.4848888
92.4000948
88.667051
87.7501829
88.100849
92.3915679
92.3875721
88.6881135
87.7658119
88.0461056
92.4440535
92.2793106
88.412187
88.2243676
92.4556395
92.3539648
88.8823879
87.841847
88.2017062
92.4062524
92.323954
89.0048837
87.8907773
88.2172831
92.4168166
92.276662
88.8083568
88.0239928
87.9108129
88.1412015
92.9941907
92.2237857
92.7766014
88.341307
88.2149706
92.4945789
92.3535724
88.8936171
88.0451802
87.9354659
88.3584831
92.7153329
92.1643789
92.5372834
88.8712847
88.0265303
88.0493698
87.8567817
87.9400674
92.6155892
92.4489047
88.3349632
88.0604714
93.0663159
92.4814454
88.3435115
88.0570674
93.0676503
92.47352
88.3910623
88.1689664
92.8388043
92.4612185
89.1189266
87.9705314
88.4122575
92.4888137
92.4218749
88.9836777
87.8796185
88.1461619
92.5972888
92.5330895
88.8725768
87.8324465
88.0532911
92.7024142
92.6265616
88.2692291
88.0434425
91.9995922
92.6152232
89.4101489
87.9213755
88.1248032
92.6770168
92.6276482
88.2802839
88.04305
91.8992442
92.7962432
88.4501571
88.1472794
92.7698846
92.6431904
88.4613278
88.2384484
93.0064754
92.5889417
88.9154012
87.8433619
88.0439712
92.8694138
92.5832374
88.5450163
88.3127718
92.9002513
92.520163
89.1330608
87.9385113
88.1921455
92.7540249
92.5156155
89.1929513
87.9794058
88.2199384
92.7900276
92.5098134
89.0530594
87.9958448
87.8885592
88.0095926
91.5713108
92.5328272
92.532039
92.5406309
92.3865504
92.4164318
89.2039103
88.1331338
88.0777048
88.0722493
88.0537174
87.9583542
88.168176
92.9587254
92.6508049
89.1209491
87.9586451
88.1750538
92.9668638
92.6880972
88.6998812
88.3761397
92.8723584
92.7205047
88.7264123
88.4413256
92.9760662
92.7376593
88.9220898
87.9072723
88.1642604
93.0841897
92.8078526
88.7648586
88.5075851
92.8289378
92.7509203
89.0589716
87.9909462
88.3497099
92.9942398
92.7339236
89.0129472
88.017529
88.4394073
92.9837974
92.7535636
88.9962676
88.0306916
88.5213392
92.9715438
92.7788141
88.9400281
88.035612
88.6177853
92.9554787
92.8090348
88.8322248
88.0379453
88.734697
92.937974
92.8497014
88.7028311
88.02992
88.8368309
92.9309052
92.9144087
88.5412436
88.003709
88.9792519
92.9226329
92.9339778
88.3386793
87.9462636
89.050358
92.9022602
91.8805532
88.4810181
89.2386171
92.8974888
92.327159
88.195726
87.9851277
90.1048904
92.6961877
91.7569787
88.0706825
87.8966305
90.5407099
92.6518936
91.2680117
87.8544076
87.7013172
90.63684
92.6817784
92.3441351
93.0564355
87.9373377
87.7299062
92.1120273
92.3951607
89.7870848
87.2287175
87.2785076
93.2313094
91.755374
91.9804771
86.9702354
86.8877628
92.5129317
91.025075
91.1105355
90.6676463
90.5167755
90.2371402
89.9891691
89.7544154
89.4375348
89.1983791
88.8453912
88.5789251
88.2216043
87.9062522
87.6207726
87.3146246
87.0750161
87.0728875
86.6470338
86.3232339
85.7448849
85.26026
84.6202478
84.0026954
83.2932838
82.5880354
82.1722114
82.08072
81.4292385
80.8881677
79.8154668
78.9899806
77.6163949
76.7608241
74.8672643
74.4039338
72.4426794
76.1365231
73.0030392
72.1924842
69.43378
67.8229214
65.5644969
63.520577
61.5444907
59.3235982
57.8016826
57.6604695
55.4547809
54.1527626
45.7908571
45.8090914
35.4599394
34.2770626
24.5267699
13.3122023
7.46236751
-1.08874863
-11.072205
-25.1912196
-37.2771117
-52.4866699
-62.6536328
-77.1382484
-87.3095624
-96.8585616
-102.853383
-110.244821
-116.033417
-122.344833
-127.056201
-131.86912
-135.7765
-139.724809
-143.04862
-146.305957
-149.117217
-151.839041
-154.177546
-156.37638
-158.21867
-159.939778
-161.45541
-162.991611
-164.501065
-165.928407
-167.376494
-168.778783
-170.10909
-171.38931
-172.543776
-173.644212
-174.665604
-175.658229
-176.717332
-177.789441
-178.90036
-179.928152
-180.95286
-181.6462
-182.385063
-182.958855
-183.618237
-184.127856
-184.757266
-185.230773
-185.832464
-186.293136
-186.929002
-187.404088
-188.023729
-188.495153
-189.124575
-189.578177
-190.124126
-190.545663
-191.057038
-191.461352
-191.938466
-192.319541
-192.76418
-193.105879
-193.503554
-193.833354
-194.209749
-194.529151
-194.885819
-195.196131
-195.555399
-195.888915
-196.234777
-196.547848
-196.869183
-197.149783
-197.428399
-197.686483
-197.949237
-198.194475
-198.442726
-198.675938
-198.910944
-199.130203
-199.346746
-199.551449
-199.756595
-199.951277
-200.145935
-200.331527
)
;

boundaryField
{
    closed
    {
        type            calculated;
        value           nonuniform List<scalar> 0();
    }
    open
    {
        type            calculated;
        value           nonuniform List<scalar> 0();
    }
    sides
    {
        type            empty;
    }
    procBoundary4to3
    {
        type            processor;
        value           uniform 92.444678;
    }
    procBoundary4to5
    {
        type            processor;
        value           uniform -200.516473;
    }
}


// ************************************************************************* //
