/*--------------------------------*- C++ -*----------------------------------*\
| =========                 |                                                 |
| \\      /  F ield         | OpenFOAM: The Open Source CFD Toolbox           |
|  \\    /   O peration     | Version:  2306                                  |
|   \\  /    A nd           | Website:  www.openfoam.com                      |
|    \\/     M anipulation  |                                                 |
\*---------------------------------------------------------------------------*/
FoamFile
{
    version     2.0;
    format      ascii;
    arch        "LSB;label=32;scalar=64";
    class       volScalarField;
    location    "0.00102";
    object      prefDZ_H2O;
}
// * * * * * * * * * * * * * * * * * * * * * * * * * * * * * * * * * * * * * //

dimensions      [1 -1 -1 0 0 0 0];

internalField   nonuniform List<scalar> 
531
(
-7.75538285e-07
-7.39178163e-07
-7.32553546e-07
-7.35615892e-07
-7.76831258e-07
-7.75521794e-07
-7.37892641e-07
-7.37183723e-07
-7.77308628e-07
-7.75563206e-07
-7.37730297e-07
-7.38054332e-07
-7.76428098e-07
-7.75090809e-07
-7.37893998e-07
-7.33493271e-07
-7.37732495e-07
-7.75900238e-07
-7.7630622e-07
-7.38365128e-07
-7.3944154e-07
-7.75224939e-07
-7.75170328e-07
-7.37948383e-07
-7.34273471e-07
-7.39219604e-07
-7.75393032e-07
-7.77361386e-07
-7.38685105e-07
-7.41718026e-07
-7.74708269e-07
-7.75963046e-07
-7.38121461e-07
-7.34888122e-07
-7.42267182e-07
-7.74895535e-07
-7.76482805e-07
-7.38478063e-07
-7.35057452e-07
-7.35120263e-07
-7.41604698e-07
-7.75107914e-07
-7.7385718e-07
-7.763209e-07
-7.73957995e-07
-7.79333282e-07
-7.37695896e-07
-7.36179734e-07
-7.36258837e-07
-7.35072292e-07
-7.39160575e-07
-7.74635181e-07
-7.73501705e-07
-7.78604358e-07
-7.38090797e-07
-7.35119103e-07
-7.44940529e-07
-7.74530919e-07
-7.78662848e-07
-7.37893627e-07
-7.34966104e-07
-7.45008638e-07
-7.74502601e-07
-7.78510061e-07
-7.38462482e-07
-7.35115037e-07
-7.35366902e-07
-7.39887366e-07
-7.75241832e-07
-7.74188355e-07
-7.76314717e-07
-7.73954262e-07
-7.79093005e-07
-7.39798264e-07
-7.35733736e-07
-7.3522075e-07
-7.41493886e-07
-7.74407526e-07
-7.77914344e-07
-7.38702846e-07
-7.34731348e-07
-7.42617242e-07
-7.74449149e-07
-7.7709709e-07
-7.39981727e-07
-7.35219965e-07
-7.42614753e-07
-7.74262635e-07
-7.76649468e-07
-7.40826441e-07
-7.35379728e-07
-7.41834616e-07
-7.74220891e-07
-7.76221197e-07
-7.40935582e-07
-7.35773166e-07
-7.35349786e-07
-7.38485921e-07
-7.74753958e-07
-7.77057031e-07
-7.38479003e-07
-7.38231092e-07
-7.76409819e-07
-7.76458791e-07
-7.38999648e-07
-7.38569074e-07
-7.758306e-07
-7.76028375e-07
-7.40680299e-07
-7.34424326e-07
-7.40164807e-07
-7.7417677e-07
-7.75100988e-07
-7.43109534e-07
-7.36408514e-07
-7.44263803e-07
-7.73706073e-07
-7.75113829e-07
-7.42480408e-07
-7.35410774e-07
-7.39980858e-07
-7.74122258e-07
-7.75103119e-07
-7.41185795e-07
-7.35900826e-07
-7.35218948e-07
-7.36996525e-07
-7.75001089e-07
-7.75424032e-07
-7.38288394e-07
-7.36634865e-07
-7.78879253e-07
-7.75268563e-07
-7.38773792e-07
-7.36323222e-07
-7.78738062e-07
-7.75048272e-07
-7.38961036e-07
-7.36598668e-07
-7.7820802e-07
-7.74720381e-07
-7.39212417e-07
-7.37372133e-07
-7.76403466e-07
-7.7523585e-07
-7.41074635e-07
-7.33526212e-07
-7.36524856e-07
-7.75021206e-07
-7.74113312e-07
-7.39361337e-07
-7.37917287e-07
-7.75489829e-07
-7.74723367e-07
-7.42438741e-07
-7.33999544e-07
-7.37470586e-07
-7.74700094e-07
-7.74630719e-07
-7.42590174e-07
-7.341498e-07
-7.36955414e-07
-7.75111041e-07
-7.73772215e-07
-7.40334649e-07
-7.38681528e-07
-7.75246597e-07
-7.74355223e-07
-7.44213577e-07
-7.34905951e-07
-7.38463372e-07
-7.74811963e-07
-7.74111659e-07
-7.45233447e-07
-7.35390283e-07
-7.38627184e-07
-7.74888493e-07
-7.73752693e-07
-7.43631874e-07
-7.36731667e-07
-7.35512638e-07
-7.37870734e-07
-7.79548208e-07
-7.73257428e-07
-7.77772412e-07
-7.39726901e-07
-7.38508791e-07
-7.75554091e-07
-7.74352853e-07
-7.44344715e-07
-7.36931992e-07
-7.35774433e-07
-7.39842956e-07
-7.7730566e-07
-7.72800046e-07
-7.75802648e-07
-7.44102414e-07
-7.36662279e-07
-7.36967253e-07
-7.34995729e-07
-7.35872993e-07
-7.765235e-07
-7.75151902e-07
-7.39708842e-07
-7.37044962e-07
-7.80117027e-07
-7.75420765e-07
-7.39785264e-07
-7.37008789e-07
-7.80160204e-07
-7.75353992e-07
-7.40232561e-07
-7.38101973e-07
-7.78347744e-07
-7.75216309e-07
-7.46217615e-07
-7.36125956e-07
-7.40320036e-07
-7.75475287e-07
-7.74897535e-07
-7.45081898e-07
-7.35225638e-07
-7.37891183e-07
-7.76379244e-07
-7.75798925e-07
-7.44161906e-07
-7.34732896e-07
-7.36973487e-07
-7.77232072e-07
-7.76597439e-07
-7.39082093e-07
-7.36840089e-07
-7.70831154e-07
-7.76467697e-07
-7.48644011e-07
-7.35600164e-07
-7.37684764e-07
-7.77021794e-07
-7.76608672e-07
-7.39193227e-07
-7.36826414e-07
-7.69960233e-07
-7.77977479e-07
-7.40649493e-07
-7.37848582e-07
-7.77531792e-07
-7.76736214e-07
-7.40787717e-07
-7.38754414e-07
-7.79683918e-07
-7.76269345e-07
-7.44510194e-07
-7.34832101e-07
-7.36886686e-07
-7.78559302e-07
-7.76262013e-07
-7.41497083e-07
-7.39501435e-07
-7.7883295e-07
-7.75715076e-07
-7.46324902e-07
-7.3578003e-07
-7.38345944e-07
-7.77642272e-07
-7.7567812e-07
-7.46830284e-07
-7.36174859e-07
-7.3861204e-07
-7.77920756e-07
-7.75649214e-07
-7.4567205e-07
-7.36416799e-07
-7.35358356e-07
-7.36550241e-07
-7.67118954e-07
-7.75797331e-07
-7.7579181e-07
-7.75850369e-07
-7.74603412e-07
-7.74851144e-07
-7.46904871e-07
-7.3776008e-07
-7.37245737e-07
-7.37150988e-07
-7.36997377e-07
-7.35985987e-07
-7.38080013e-07
-7.79284905e-07
-7.7677384e-07
-7.46218699e-07
-7.35957504e-07
-7.38163049e-07
-7.79336745e-07
-7.77108405e-07
-7.42755742e-07
-7.40087381e-07
-7.78422816e-07
-7.77367487e-07
-7.42967898e-07
-7.40625662e-07
-7.79330575e-07
-7.77484856e-07
-7.4453291e-07
-7.354608e-07
-7.38069319e-07
-7.80268907e-07
-7.7807066e-07
-7.4328746e-07
-7.41172449e-07
-7.78043767e-07
-7.77581483e-07
-7.45680537e-07
-7.36278183e-07
-7.39790769e-07
-7.79548283e-07
-7.77445082e-07
-7.45300183e-07
-7.36542578e-07
-7.40528908e-07
-7.7945915e-07
-7.77598519e-07
-7.45160234e-07
-7.3667349e-07
-7.41201179e-07
-7.79357201e-07
-7.777991e-07
-7.4468862e-07
-7.36725445e-07
-7.41994374e-07
-7.79225824e-07
-7.78040512e-07
-7.43786023e-07
-7.36753507e-07
-7.42961022e-07
-7.79082463e-07
-7.78364587e-07
-7.42704232e-07
-7.3667985e-07
-7.4380511e-07
-7.79025045e-07
-7.78880006e-07
-7.41356999e-07
-7.36425408e-07
-7.44986076e-07
-7.7895948e-07
-7.78948531e-07
-7.39676992e-07
-7.35876852e-07
-7.4556352e-07
-7.78809976e-07
-7.69796978e-07
-7.4090941e-07
-7.47170923e-07
-7.7877008e-07
-7.73671043e-07
-7.3841189e-07
-7.36292382e-07
-7.54494831e-07
-7.77160077e-07
-7.68725949e-07
-7.37209011e-07
-7.35461918e-07
-7.58218979e-07
-7.7683961e-07
-7.64495832e-07
-7.35115412e-07
-7.33617792e-07
-7.59032506e-07
-7.77077271e-07
-7.74373046e-07
-7.80166549e-07
-7.36056727e-07
-7.34002713e-07
-7.71832099e-07
-7.74986928e-07
-7.51670258e-07
-7.29282245e-07
-7.29857231e-07
-7.81788926e-07
-7.6964391e-07
-7.70691514e-07
-7.27128955e-07
-7.26352997e-07
-7.75566034e-07
-7.63381066e-07
-7.6402962e-07
-7.60320234e-07
-7.59020571e-07
-7.56655613e-07
-7.54555089e-07
-7.52567372e-07
-7.49904078e-07
-7.4788685e-07
-7.44937909e-07
-7.4270922e-07
-7.39745076e-07
-7.37148292e-07
-7.34827913e-07
-7.32376739e-07
-7.30625259e-07
-7.31051717e-07
-7.2719669e-07
-7.24274753e-07
-7.19120427e-07
-7.14855916e-07
-7.0928757e-07
-7.03969811e-07
-6.97910923e-07
-6.91813759e-07
-6.88232497e-07
-6.87483506e-07
-6.81843394e-07
-6.77220589e-07
-6.68103359e-07
-6.61137377e-07
-6.49552454e-07
-6.42282065e-07
-6.26067855e-07
-6.22149384e-07
-6.05432575e-07
-6.39185821e-07
-6.12426895e-07
-6.05452355e-07
-5.81673725e-07
-5.67818671e-07
-5.48393438e-07
-5.30833634e-07
-5.13869744e-07
-4.94814278e-07
-4.82110874e-07
-4.81957748e-07
-4.63184207e-07
-4.53342007e-07
-3.85068501e-07
-3.85238622e-07
-2.99318349e-07
-2.88797652e-07
-2.07610727e-07
-1.13954635e-07
-6.38678722e-08
9.96115922e-09
9.68283673e-08
2.22043007e-07
3.31376365e-07
4.71569002e-07
5.67283314e-07
7.06449739e-07
8.06367835e-07
9.02658703e-07
9.63982135e-07
1.04153999e-06
1.10314001e-06
1.17188451e-06
1.22368329e-06
1.27784093e-06
1.3221148e-06
1.36785368e-06
1.40662856e-06
1.44545227e-06
1.47921965e-06
1.51257768e-06
1.54157434e-06
1.5694429e-06
1.59313049e-06
1.61574714e-06
1.63561304e-06
1.6559587e-06
1.67589106e-06
1.69488951e-06
1.71418794e-06
1.73307244e-06
1.75088561e-06
1.76837036e-06
1.7840697e-06
1.79907269e-06
1.81317313e-06
1.82683921e-06
1.84173825e-06
1.85685993e-06
1.87282089e-06
1.88774569e-06
1.90262736e-06
1.91250299e-06
1.92297532e-06
1.93122845e-06
1.94062867e-06
1.94805755e-06
1.95699351e-06
1.9639535e-06
1.97246984e-06
1.97930691e-06
1.98845092e-06
1.99560264e-06
2.00452994e-06
2.011673e-06
2.02092975e-06
2.02796597e-06
2.03600827e-06
2.04253974e-06
2.05011143e-06
2.0564164e-06
2.06352848e-06
2.06949929e-06
2.07616699e-06
2.08152489e-06
2.08748103e-06
2.09264757e-06
2.09830941e-06
2.10331014e-06
2.10876301e-06
2.11369957e-06
2.1192585e-06
2.12460187e-06
2.12998694e-06
2.13501804e-06
2.1400437e-06
2.14455063e-06
2.14889413e-06
2.15303905e-06
2.15715136e-06
2.16109874e-06
2.16499816e-06
2.168763e-06
2.17246684e-06
2.17601996e-06
2.17944445e-06
2.18277172e-06
2.18602326e-06
2.18919514e-06
2.19228735e-06
2.19531885e-06
)
;

boundaryField
{
    closed
    {
        type            calculated;
        value           nonuniform List<scalar> 0();
    }
    open
    {
        type            calculated;
        value           nonuniform List<scalar> 0();
    }
    sides
    {
        type            empty;
    }
    procBoundary4to3
    {
        type            processor;
        value           uniform -7.75072285e-07;
    }
    procBoundary4to5
    {
        type            processor;
        value           uniform 2.19826329e-06;
    }
}


// ************************************************************************* //
