/*--------------------------------*- C++ -*----------------------------------*\
| =========                 |                                                 |
| \\      /  F ield         | OpenFOAM: The Open Source CFD Toolbox           |
|  \\    /   O peration     | Version:  2306                                  |
|   \\  /    A nd           | Website:  www.openfoam.com                      |
|    \\/     M anipulation  |                                                 |
\*---------------------------------------------------------------------------*/
FoamFile
{
    version     2.0;
    format      ascii;
    arch        "LSB;label=32;scalar=64";
    class       surfaceScalarField;
    location    "0.00082";
    object      phi;
}
// * * * * * * * * * * * * * * * * * * * * * * * * * * * * * * * * * * * * * //

dimensions      [1 0 -1 0 0 0 0];

oriented        oriented;

internalField   nonuniform List<scalar> 
530
(
5.4297804e-06
5.94849148e-06
6.17632404e-06
5.99599473e-06
6.32603833e-06
7.35531838e-06
7.79628889e-06
7.61696595e-06
8.00398678e-06
8.9928853e-06
9.51060115e-06
9.66366386e-06
9.63853264e-06
9.97461658e-06
1.0388809e-05
1.07495492e-05
1.11488019e-05
1.14207197e-05
1.19642673e-05
1.2389487e-05
1.27711647e-05
1.28056087e-05
1.32818308e-05
1.38618045e-05
1.43917909e-05
1.48821641e-05
1.514676e-05
1.57687271e-05
1.61664012e-05
1.65729794e-05
1.64281947e-05
1.66677285e-05
1.68446868e-05
1.68977434e-05
1.66828112e-05
1.61984699e-05
1.58838297e-05
1.54985972e-05
1.51936571e-05
1.47335639e-05
1.41743712e-05
1.34707615e-05
1.29251571e-05
1.22591663e-05
1.15555924e-05
1.13780344e-05
1.09103841e-05
9.9891629e-06
9.04491436e-06
8.07444888e-06
7.07265802e-06
6.06509045e-06
5.20136898e-06
4.58176002e-06
3.88756804e-06
2.91253631e-06
2.01097882e-06
1.22566064e-06
6.11651566e-07
-1.39543643e-07
-9.7565681e-07
-1.67793176e-06
-2.28730019e-06
-2.83646402e-06
-3.6431728e-06
-4.25010582e-06
-4.69198612e-06
-5.09243042e-06
-5.46680894e-06
-5.8301124e-06
-6.11982505e-06
-6.40863228e-06
-6.83949945e-06
-7.2820778e-06
-7.38974303e-06
-7.35605461e-06
-7.29695845e-06
-7.2168541e-06
-7.13525915e-06
-7.36145703e-06
-7.22163726e-06
-6.9584557e-06
-6.70968711e-06
-6.52549189e-06
-6.58185386e-06
-6.28624186e-06
-5.90154473e-06
-5.51746727e-06
-5.20910683e-06
-5.07501316e-06
-4.65344438e-06
-4.1604198e-06
-3.63746812e-06
-3.1584987e-06
-2.59901249e-06
-2.03869651e-06
-1.4464734e-06
-8.26928037e-07
-1.42673643e-07
6.20383724e-07
1.14359132e-06
1.75161166e-06
2.43079128e-06
3.25384731e-06
3.80231301e-06
4.32616009e-06
4.90170523e-06
5.82168255e-06
6.51461425e-06
6.90369779e-06
7.24140869e-06
7.68348924e-06
8.45380441e-06
8.93148251e-06
9.18059373e-06
9.46520568e-06
9.86433863e-06
1.05875279e-05
1.12976729e-05
1.15784796e-05
1.1603393e-05
1.17296142e-05
1.20208904e-05
1.25420651e-05
1.30339616e-05
1.29405331e-05
1.27019622e-05
1.27088248e-05
1.31456653e-05
1.32583283e-05
1.30248334e-05
1.28511872e-05
1.302156e-05
1.28244834e-05
1.21641017e-05
1.17192533e-05
1.15667145e-05
1.11028651e-05
1.02405643e-05
9.63898317e-06
9.22710472e-06
8.52370328e-06
7.48742983e-06
6.63670921e-06
6.0435582e-06
5.23559001e-06
4.04474635e-06
2.99538886e-06
2.16145637e-06
1.20960089e-06
7.26793454e-08
-9.35347885e-07
-1.90489047e-06
-3.08802773e-06
-4.27848576e-06
-5.41994686e-06
-6.48578073e-06
-7.78980664e-06
-9.61726375e-06
-1.1096195e-05
-1.23429735e-05
-1.33836567e-05
-1.48384675e-05
-1.67419009e-05
-1.79836535e-05
-1.89536705e-05
-2.06047235e-05
-2.37159306e-05
-2.51913116e-05
-2.6226972e-05
-2.70220228e-05
-2.8663599e-05
-3.11733815e-05
-3.38786044e-05
-3.46410273e-05
-3.49987058e-05
-3.6203412e-05
-3.82242783e-05
-3.91275296e-05
-3.95833075e-05
-3.89694107e-05
-3.8033895e-05
-3.75340504e-05
-3.7021254e-05
-3.86438718e-05
-3.75206318e-05
-3.63770668e-05
-3.54138923e-05
-3.46822724e-05
-3.31596893e-05
-3.13484609e-05
-2.91865928e-05
-2.71647652e-05
-2.54823124e-05
-2.37529618e-05
-2.24211279e-05
-2.09329102e-05
-1.92185409e-05
-1.76584881e-05
-1.58311668e-05
-1.4356067e-05
-1.29380379e-05
-1.23254852e-05
-1.11809096e-05
-9.33949246e-06
-8.54503138e-06
-8.24770702e-06
-7.62867626e-06
-6.51724871e-06
-6.03669443e-06
-5.89418187e-06
-5.52534091e-06
-4.77666936e-06
-4.46274908e-06
-4.39448873e-06
-4.16547757e-06
-3.76192061e-06
-3.44714056e-06
-3.2539016e-06
-3.04918378e-06
-3.00564992e-06
-2.85990092e-06
-2.54177062e-06
-2.36710834e-06
-2.26431404e-06
-2.12102306e-06
-1.95114577e-06
-1.69039737e-06
-1.5551456e-06
-1.47259153e-06
-1.36088825e-06
-1.22909351e-06
-1.086052e-06
-9.43217602e-07
-8.76268077e-07
-8.77733624e-07
-7.1407086e-07
-5.92771832e-07
-5.25806898e-07
-5.13052697e-07
-4.40019668e-07
-3.72873894e-07
-2.85420724e-07
-2.25146144e-07
-2.28570295e-07
-1.46213666e-07
-3.57983803e-08
3.15708425e-08
1.77073998e-08
6.39546393e-08
1.71136295e-07
2.34122904e-07
2.94945862e-07
3.53934563e-07
4.15292102e-07
4.92868637e-07
5.59965327e-07
6.17417665e-07
6.9445408e-07
7.77531431e-07
8.43733412e-07
9.0385155e-07
9.6508682e-07
1.01409666e-06
1.06253404e-06
1.09664292e-06
1.12870333e-06
1.15826033e-06
1.11068829e-06
1.09859545e-06
1.06155153e-06
1.0101145e-06
9.50704404e-07
8.60900682e-07
7.29149432e-07
6.37517962e-07
5.12948665e-07
3.84578364e-07
2.50057757e-07
7.95732428e-08
-5.48478661e-08
-1.75431075e-07
-2.62726902e-07
-3.69763943e-07
-4.44729115e-07
-4.66617376e-07
-4.87644933e-07
-4.80897951e-07
-3.56478614e-07
-3.18484308e-07
-2.44188892e-07
-1.64603718e-07
-6.71665111e-08
9.47032553e-08
2.17836146e-07
2.63648617e-07
3.94469648e-07
5.84984358e-07
7.00899832e-07
7.49373093e-07
8.28243403e-07
9.56879902e-07
1.03602964e-06
1.11315471e-06
1.19158955e-06
1.25164532e-06
1.36209979e-06
1.47222551e-06
1.63499276e-06
1.79567575e-06
1.99129074e-06
2.21964764e-06
2.50762204e-06
2.83538745e-06
3.04876633e-06
3.35165408e-06
3.70005744e-06
4.12345154e-06
4.55279637e-06
4.72382408e-06
4.98018946e-06
5.29097456e-06
5.66720497e-06
6.0087553e-06
5.98261053e-06
6.0517007e-06
6.18307079e-06
6.3695951e-06
6.49588157e-06
6.22276687e-06
6.05351144e-06
5.92703792e-06
5.82876167e-06
5.6333482e-06
5.08195226e-06
4.61633795e-06
4.13091637e-06
3.61514462e-06
2.98286059e-06
2.17270504e-06
1.45075057e-06
6.67504655e-07
-1.40420357e-07
-9.67441897e-07
-1.62385841e-06
-2.12900283e-06
-2.75607093e-06
-3.25070723e-06
-3.5902193e-06
-3.56064373e-06
-3.38692745e-06
-3.33222637e-06
-3.28546588e-06
-2.76222866e-06
-2.03907602e-06
-1.45989955e-06
-7.7930121e-07
-6.19168052e-08
6.59099689e-07
1.36624053e-06
2.0342999e-06
2.69858794e-06
3.33533753e-06
3.7437728e-06
4.20814162e-06
4.74650872e-06
5.37879848e-06
6.04659397e-06
6.37578707e-06
6.84577381e-06
7.47157099e-06
8.27078596e-06
8.97424781e-06
9.6996371e-06
9.782802e-06
9.96070706e-06
1.02563766e-05
1.04972966e-05
1.05704245e-05
9.85502248e-06
9.20443787e-06
8.58293038e-06
7.87139795e-06
6.92326113e-06
5.50160514e-06
4.26404093e-06
3.08480108e-06
1.91247212e-06
8.58720761e-07
-1.32052495e-07
-1.07179105e-06
-1.91998121e-06
-2.47110819e-06
-2.92122994e-06
-3.42878611e-06
-4.09426065e-06
-4.39828028e-06
-4.5520834e-06
-4.82601812e-06
-5.05230046e-06
-5.19969739e-06
-5.27148963e-06
-5.26223448e-06
-5.17366782e-06
-5.0075314e-06
-4.78114488e-06
-4.51466646e-06
-4.23732448e-06
-3.980882e-06
-3.76269687e-06
-3.59046315e-06
-3.47515077e-06
-3.63618453e-06
-3.7912879e-06
-4.00739311e-06
-4.17439458e-06
-4.26346287e-06
-4.21590119e-06
-3.99608205e-06
-3.63642271e-06
-3.10676669e-06
-2.39130313e-06
-1.7880404e-06
-1.21065719e-06
-6.96006706e-07
-2.53062956e-07
1.55105979e-07
4.9646198e-07
8.63504711e-07
1.1408908e-06
1.44152735e-06
1.58554935e-06
1.73754365e-06
1.86568871e-06
2.06215358e-06
2.27842297e-06
2.24950146e-06
1.98267338e-06
1.49827176e-06
1.31708962e-06
1.77235457e-06
2.68415002e-06
2.40181319e-06
2.38558696e-06
1.1566548e-06
1.37728462e-06
9.36930183e-07
7.92199359e-07
1.01422812e-06
1.38830323e-06
1.59370482e-06
1.61013249e-06
1.62834041e-06
1.67005503e-06
1.64587045e-06
1.6515846e-06
1.67293673e-06
1.71418199e-06
1.7743247e-06
1.84446652e-06
1.91503354e-06
1.9857461e-06
2.05306125e-06
2.11762958e-06
2.18188439e-06
2.24527159e-06
2.31152597e-06
2.38052384e-06
2.45444194e-06
2.53354923e-06
2.61820951e-06
2.70678799e-06
2.80040917e-06
2.89491818e-06
2.995481e-06
3.09383423e-06
3.19627297e-06
3.30116347e-06
3.40925978e-06
3.51429609e-06
3.62114056e-06
3.72452443e-06
3.82540225e-06
3.92255756e-06
4.01441385e-06
4.09590265e-06
4.16988943e-06
4.23472751e-06
4.29397453e-06
4.34161757e-06
4.37859578e-06
4.40370769e-06
4.41868579e-06
4.42377993e-06
4.420309e-06
4.40957047e-06
4.39301153e-06
4.37294032e-06
4.35036202e-06
4.32711788e-06
4.30272016e-06
4.28093233e-06
4.26254749e-06
4.24850703e-06
4.23965776e-06
4.23586557e-06
4.23709579e-06
4.24337867e-06
4.25407538e-06
4.26894966e-06
4.28727718e-06
4.30833186e-06
4.33132461e-06
4.35588143e-06
4.38058273e-06
4.40383526e-06
4.42536356e-06
4.44434e-06
4.45970458e-06
4.47099e-06
4.47741773e-06
4.47840026e-06
4.47343811e-06
4.46207809e-06
4.44400396e-06
4.41900171e-06
4.38713054e-06
4.34808118e-06
4.30169231e-06
4.24796961e-06
)
;

boundaryField
{
    closed
    {
        type            calculated;
        value           nonuniform List<scalar> 0();
    }
    open
    {
        type            calculated;
        value           nonuniform List<scalar> 0();
    }
    sides
    {
        type            empty;
        value           nonuniform List<scalar> 0();
    }
    procBoundary4to3
    {
        type            processor;
        value           uniform -4.9499462e-06;
    }
    procBoundary4to5
    {
        type            processor;
        value           uniform 4.18699781e-06;
    }
}


// ************************************************************************* //
