/*--------------------------------*- C++ -*----------------------------------*\
| =========                 |                                                 |
| \\      /  F ield         | OpenFOAM: The Open Source CFD Toolbox           |
|  \\    /   O peration     | Version:  2306                                  |
|   \\  /    A nd           | Website:  www.openfoam.com                      |
|    \\/     M anipulation  |                                                 |
\*---------------------------------------------------------------------------*/
FoamFile
{
    version     2.0;
    format      ascii;
    arch        "LSB;label=32;scalar=64";
    class       volScalarField;
    location    "0.00146";
    object      prefDh_H2;
}
// * * * * * * * * * * * * * * * * * * * * * * * * * * * * * * * * * * * * * //

dimensions      [1 1 -3 0 0 0 0];

internalField   nonuniform List<scalar> 
530
(
29.1763283
24.0397325
28.5273517
38.4986946
36.8643688
29.2274312
24.2301366
28.5354485
38.4916183
36.6335947
29.0533462
24.4752016
28.5701898
38.4811333
36.3965471
28.9234302
24.7137633
28.5982383
38.4907424
36.2658865
29.2169146
25.1876133
28.6060207
38.5232104
36.5561748
28.8590588
25.7568705
25.0171308
23.9048083
28.4324436
38.0471813
37.9730778
37.2886063
31.3605939
29.1171477
29.6973083
38.4059286
34.6134204
26.4248753
23.9602428
25.4969187
28.974594
38.1205314
32.8435571
24.9269343
25.3728362
29.5962422
37.9192947
33.7839311
25.3155289
24.0130967
26.108229
29.1750263
38.2322418
37.973096
37.6611208
33.3819668
26.7898974
26.5651295
30.2616699
37.66456
31.4012634
24.6042985
23.9930576
27.0203518
30.2173659
37.6047819
29.9985065
24.9559455
27.0558558
31.3199423
37.5498861
30.1195043
26.0641373
28.5219945
33.7387593
36.1081269
29.0207878
29.0477594
35.5147157
37.8750623
31.2056837
25.3620415
25.2487959
24.8853415
27.5925796
31.811108
38.4657405
37.1823285
28.7483456
24.6988174
28.6583783
34.9458571
34.3011166
29.557149
28.8021119
38.0277418
36.6023136
28.5310333
23.7231527
28.1723662
37.3383434
32.0219965
28.1597693
28.6639581
38.4194097
33.9185471
27.2205026
28.1054874
33.0686537
37.6972673
29.8272259
23.8752078
26.8536448
35.0881281
37.1129865
28.5435301
23.022243
27.686327
37.1095034
37.1091292
28.7181549
22.9933907
28.6784497
38.0959203
35.8551431
27.2539302
29.608912
38.6363512
37.4381909
28.7889025
23.3215972
28.9438316
38.4040363
37.7480771
28.9199223
22.9497837
28.8514277
38.4916164
38.0381896
29.1384294
22.8480105
28.8378939
38.3723264
38.2200716
28.6377687
23.1118564
28.6372008
37.9498155
33.2616929
28.0645918
29.036239
38.3655617
38.3671803
27.884758
24.0722741
28.6497706
37.6730008
31.8321671
28.1830094
28.9591252
37.9727127
38.1903276
28.6501436
23.7753711
28.833097
37.4729482
37.8946588
28.0185121
24.3568532
28.9741463
37.5793864
29.0174828
28.8334646
30.5309025
37.7542463
33.444307
26.3381066
24.3429306
28.8944544
37.4429067
38.1152763
28.8462269
24.7369247
28.8875486
37.3873728
37.9468084
28.9800626
26.0036807
29.122723
37.4696726
37.98007
28.7818512
23.8569156
24.264583
24.6890772
32.1529804
37.3526142
29.196564
28.6774844
36.2348888
37.1817133
28.8983173
29.2607134
37.4524833
38.1015139
28.6377163
22.0984512
26.43337
36.9013849
37.9161321
28.0691777
27.558456
37.1827052
37.9945428
26.9606233
27.1223008
37.5585313
38.0690898
26.5637803
26.9959966
37.8564553
38.0846534
26.4230561
27.2526803
38.2386103
38.2222335
26.5296769
28.5988951
38.7220156
38.1948398
27.5094348
21.1579207
29.1987062
38.1500439
38.4480936
26.1472266
28.3831246
38.8811367
38.2098282
28.6539024
22.0691608
29.0211566
38.2950833
38.0716892
26.5909891
28.9647107
38.8345775
38.5050207
28.9342725
22.7310994
28.9836851
38.5998386
38.7611956
28.9599208
22.2196512
29.1307405
38.1874115
38.9657223
28.0518675
28.1565324
38.3915227
38.1974331
28.6914027
22.8560327
26.7472677
37.5708245
38.3859115
30.3642002
25.7617382
25.6102587
30.4593915
37.9896954
38.1682992
26.6940292
19.6073243
24.1872845
37.3105359
38.1322668
29.1905529
23.0282955
24.9490117
37.6476409
38.8192501
29.3229623
27.8545315
37.3064702
38.1859494
28.9857477
23.442719
25.1155656
37.7358284
38.2792772
29.5179082
23.7813101
24.6022334
37.7463868
38.2172977
29.4747831
23.8099022
24.5696774
37.7485913
38.2336902
29.3405471
23.6820101
24.5982343
37.7344816
38.2466333
29.3266295
23.7122497
24.625561
37.7213042
38.2495414
29.3525763
23.8796141
24.6767434
37.7193266
38.2533904
29.3240657
23.9825291
24.6656223
37.7295934
38.2869087
29.2084125
23.9279867
24.8133621
37.7417988
38.3763908
28.9107223
22.98104
24.8343289
37.8554722
38.2589932
28.7024081
20.413159
24.9980113
36.7764518
38.5017845
38.2413375
28.5661878
26.5584594
37.2315935
38.185373
28.9928278
22.2984989
25.0440809
37.7151238
38.3842386
28.9212746
22.9409394
25.6707334
37.6802812
38.8887088
29.2752729
28.6245517
37.4290646
38.3526816
28.9096902
24.5209821
26.9803546
37.7591255
38.5566872
29.0679425
24.796558
23.5994051
23.5970364
37.2922066
38.5758171
28.8283892
26.2220521
37.2264557
38.1911736
29.159348
21.0064879
22.9688581
37.3407865
38.638384
28.8251113
25.4206527
36.7073307
38.5968678
28.7592391
25.573305
36.5788805
38.5740316
28.9366893
25.5818113
36.393678
38.5803811
29.2326074
25.6001038
36.1200752
38.5880028
29.5937857
25.8209811
35.8158556
38.5424749
29.4436295
26.4200888
35.7014659
38.1759843
28.8759334
21.0141163
21.0333911
36.2268298
38.5636477
29.2586738
25.044789
34.3493283
38.5397355
29.2406731
25.6834849
34.1237293
38.4507623
29.1529114
26.6609882
34.176105
38.1062058
28.7842328
21.859853
21.6710355
34.3703701
38.4899039
29.0245559
25.7892572
32.9900814
38.470035
28.9834001
26.5861658
32.9604661
38.3416979
29.0333117
27.8011155
33.1428749
37.9021801
29.0859652
22.9529938
22.4586443
33.2812216
37.8885601
37.8819559
38.1895642
28.892767
23.6122467
24.0366662
22.0789939
21.9280087
31.487161
38.0155449
29.0699177
28.0747168
32.3274888
37.9489501
29.3835505
25.5856438
24.7607801
32.3049591
38.3192088
29.2581102
29.1148597
32.6647048
38.1749795
29.6595567
26.251565
25.2209517
32.4029912
38.0342105
29.8228825
25.7250886
24.5244765
32.1173574
37.9624476
29.6413973
24.8854064
23.6622354
31.4582989
38.2360211
29.15058
28.1740965
32.2541599
38.1038427
29.5447585
24.9764925
23.8215731
31.6437099
37.8371519
29.6413109
24.2602285
23.0018867
31.0128336
38.1204777
29.1234092
27.6518175
32.148672
38.0162181
29.4531983
24.1177009
23.0239885
30.6965279
38.1598134
29.1434518
27.3557324
31.7161437
38.4229478
29.1644658
28.3455581
32.3274043
38.0818386
29.8596428
25.5171763
24.5775235
31.6011633
37.8790463
30.268959
25.6277869
24.5063131
31.5315911
37.9114973
30.3548818
25.78119
24.624326
31.4187768
37.9371948
30.4662295
25.9653994
24.7388116
31.2816285
37.9605024
30.5686031
26.0802732
)
;

boundaryField
{
    closed
    {
        type            calculated;
        value           nonuniform List<scalar> 0();
    }
    open
    {
        type            calculated;
        value           nonuniform List<scalar> 0();
    }
    sides
    {
        type            empty;
    }
    procBoundary2to1
    {
        type            processor;
        value           uniform 37.0885991;
    }
    procBoundary2to3
    {
        type            processor;
        value           uniform 24.752687;
    }
}


// ************************************************************************* //
