/*--------------------------------*- C++ -*----------------------------------*\
| =========                 |                                                 |
| \\      /  F ield         | OpenFOAM: The Open Source CFD Toolbox           |
|  \\    /   O peration     | Version:  2306                                  |
|   \\  /    A nd           | Website:  www.openfoam.com                      |
|    \\/     M anipulation  |                                                 |
\*---------------------------------------------------------------------------*/
FoamFile
{
    version     2.0;
    format      ascii;
    arch        "LSB;label=32;scalar=64";
    class       volScalarField;
    location    "0.00146";
    object      prefDZ_H2O;
}
// * * * * * * * * * * * * * * * * * * * * * * * * * * * * * * * * * * * * * //

dimensions      [1 -1 -1 0 0 0 0];

internalField   nonuniform List<scalar> 
530
(
-7.39309671e-07
-7.35365858e-07
-7.45189715e-07
-7.75160192e-07
-7.78119967e-07
-7.39072516e-07
-7.35515379e-07
-7.46054762e-07
-7.75220043e-07
-7.78621551e-07
-7.38965023e-07
-7.35706018e-07
-7.47042491e-07
-7.75273715e-07
-7.79143993e-07
-7.38884392e-07
-7.35895076e-07
-7.47899029e-07
-7.75282813e-07
-7.79394459e-07
-7.39358864e-07
-7.36247514e-07
-7.486494e-07
-7.7509064e-07
-7.78501208e-07
-7.43302399e-07
-7.36717193e-07
-7.35786756e-07
-7.35248921e-07
-7.47950314e-07
-7.76307328e-07
-7.75378517e-07
-7.76857217e-07
-7.64096522e-07
-7.42483739e-07
-7.55503038e-07
-7.74979048e-07
-7.74976644e-07
-7.37339066e-07
-7.35297211e-07
-7.36265724e-07
-7.51783062e-07
-7.76565508e-07
-7.6933674e-07
-7.36161362e-07
-7.36415459e-07
-7.55729896e-07
-7.76344639e-07
-7.72356583e-07
-7.36741068e-07
-7.35346162e-07
-7.36784014e-07
-7.53428904e-07
-7.75699871e-07
-7.75497509e-07
-7.76332837e-07
-7.71138351e-07
-7.37472853e-07
-7.37262129e-07
-7.59286381e-07
-7.76895563e-07
-7.64306915e-07
-7.36110667e-07
-7.35306393e-07
-7.37437414e-07
-7.59047547e-07
-7.774453e-07
-7.58560859e-07
-7.36127679e-07
-7.37519949e-07
-7.6380525e-07
-7.77090988e-07
-7.59132159e-07
-7.36983359e-07
-7.38636672e-07
-7.72341826e-07
-7.79434966e-07
-7.44642012e-07
-7.43558438e-07
-7.77866134e-07
-7.75577685e-07
-7.63483783e-07
-7.36489579e-07
-7.36319553e-07
-7.35741896e-07
-7.37789012e-07
-7.65713414e-07
-7.74362708e-07
-7.77296858e-07
-7.51476341e-07
-7.35891634e-07
-7.38635629e-07
-7.76030732e-07
-7.74042956e-07
-7.4000062e-07
-7.42751634e-07
-7.77062058e-07
-7.7865389e-07
-7.42637402e-07
-7.35310689e-07
-7.43380293e-07
-7.78389901e-07
-7.66519287e-07
-7.38559576e-07
-7.46638905e-07
-7.75773135e-07
-7.72851647e-07
-7.37845167e-07
-7.38390312e-07
-7.70237773e-07
-7.76096642e-07
-7.58000364e-07
-7.35316437e-07
-7.37378745e-07
-7.76541629e-07
-7.77470713e-07
-7.48069142e-07
-7.3482049e-07
-7.3782755e-07
-7.78578952e-07
-7.77819131e-07
-7.43230768e-07
-7.34821351e-07
-7.42286141e-07
-7.76282014e-07
-7.78396951e-07
-7.37910839e-07
-7.40326675e-07
-7.75276421e-07
-7.76848382e-07
-7.42887206e-07
-7.35045594e-07
-7.40203499e-07
-7.7572401e-07
-7.76583188e-07
-7.42038734e-07
-7.34743916e-07
-7.41545968e-07
-7.75426372e-07
-7.76318522e-07
-7.39897982e-07
-7.34672218e-07
-7.42316771e-07
-7.75702226e-07
-7.76122122e-07
-7.3862199e-07
-7.34965126e-07
-7.44224677e-07
-7.76523589e-07
-7.70698296e-07
-7.3841722e-07
-7.43815083e-07
-7.75592509e-07
-7.75824189e-07
-7.3798082e-07
-7.35666709e-07
-7.46984327e-07
-7.76890475e-07
-7.65826852e-07
-7.38512337e-07
-7.44732296e-07
-7.76248373e-07
-7.7623883e-07
-7.38495662e-07
-7.35383576e-07
-7.44617088e-07
-7.77242149e-07
-7.7701836e-07
-7.38071947e-07
-7.35875958e-07
-7.52138036e-07
-7.77698312e-07
-7.5199071e-07
-7.38984172e-07
-7.60504776e-07
-7.75612528e-07
-7.71406457e-07
-7.36860396e-07
-7.35620034e-07
-7.46633556e-07
-7.76871313e-07
-7.7657733e-07
-7.39435131e-07
-7.36062541e-07
-7.47290143e-07
-7.76911483e-07
-7.77059595e-07
-7.38925152e-07
-7.37009979e-07
-7.50929792e-07
-7.76265292e-07
-7.76718727e-07
-7.38630161e-07
-7.3551537e-07
-7.3554934e-07
-7.36096686e-07
-7.66981241e-07
-7.78820642e-07
-7.4044967e-07
-7.39163908e-07
-7.79798622e-07
-7.78735058e-07
-7.38934456e-07
-7.39550533e-07
-7.77373898e-07
-7.75691042e-07
-7.43302605e-07
-7.3423163e-07
-7.37125438e-07
-7.78797523e-07
-7.77662068e-07
-7.38384187e-07
-7.3829136e-07
-7.77913754e-07
-7.77202602e-07
-7.37471921e-07
-7.37944464e-07
-7.77249329e-07
-7.76947222e-07
-7.37209707e-07
-7.37813709e-07
-7.76600738e-07
-7.76878215e-07
-7.37113899e-07
-7.38012806e-07
-7.75773185e-07
-7.76721274e-07
-7.37097543e-07
-7.38954935e-07
-7.74631107e-07
-7.75761004e-07
-7.37688931e-07
-7.33383136e-07
-7.39470025e-07
-7.75608534e-07
-7.76619923e-07
-7.36862405e-07
-7.38743133e-07
-7.74069297e-07
-7.75353225e-07
-7.38524541e-07
-7.3395387e-07
-7.4225014e-07
-7.74952388e-07
-7.77557735e-07
-7.3714038e-07
-7.39206214e-07
-7.74013477e-07
-7.74449895e-07
-7.3970973e-07
-7.34323171e-07
-7.39893363e-07
-7.74705592e-07
-7.74489973e-07
-7.39942215e-07
-7.33990086e-07
-7.38979901e-07
-7.75513299e-07
-7.75051697e-07
-7.38208257e-07
-7.3848295e-07
-7.75243507e-07
-7.74509405e-07
-7.44857208e-07
-7.34764061e-07
-7.37198225e-07
-7.78214284e-07
-7.74071786e-07
-7.59423013e-07
-7.36558897e-07
-7.36497676e-07
-7.60042058e-07
-7.74781968e-07
-7.76008142e-07
-7.37062734e-07
-7.3249633e-07
-7.35526277e-07
-7.78805764e-07
-7.7495595e-07
-7.50171374e-07
-7.34629756e-07
-7.35922147e-07
-7.7704414e-07
-7.7448438e-07
-7.40261083e-07
-7.38177814e-07
-7.78127732e-07
-7.7454347e-07
-7.49542352e-07
-7.3496363e-07
-7.36074049e-07
-7.7749914e-07
-7.74481647e-07
-7.54398672e-07
-7.35136743e-07
-7.35752428e-07
-7.7751685e-07
-7.74572487e-07
-7.54009872e-07
-7.35153844e-07
-7.35728156e-07
-7.77359402e-07
-7.74564776e-07
-7.52955006e-07
-7.35051589e-07
-7.35737579e-07
-7.77311662e-07
-7.74527445e-07
-7.52803246e-07
-7.35065808e-07
-7.35759069e-07
-7.7727054e-07
-7.7449333e-07
-7.52972852e-07
-7.35182765e-07
-7.3580365e-07
-7.77174011e-07
-7.7447055e-07
-7.5268475e-07
-7.35251086e-07
-7.3578987e-07
-7.77031811e-07
-7.74467181e-07
-7.51658985e-07
-7.35192821e-07
-7.35869428e-07
-7.76782171e-07
-7.74547478e-07
-7.47030281e-07
-7.34478442e-07
-7.35877892e-07
-7.76750838e-07
-7.74868427e-07
-7.43545356e-07
-7.32912533e-07
-7.35848633e-07
-7.79631468e-07
-7.7354077e-07
-7.75683905e-07
-7.3851846e-07
-7.37376847e-07
-7.78390765e-07
-7.7465917e-07
-7.42181698e-07
-7.3404994e-07
-7.35996628e-07
-7.76679299e-07
-7.74480888e-07
-7.44534503e-07
-7.34519377e-07
-7.36405586e-07
-7.76606641e-07
-7.73772718e-07
-7.40958177e-07
-7.38654449e-07
-7.77284833e-07
-7.73937069e-07
-7.45726048e-07
-7.35695358e-07
-7.37415561e-07
-7.76072457e-07
-7.73896083e-07
-7.46360787e-07
-7.35761527e-07
-7.34967249e-07
-7.34898143e-07
-7.77872176e-07
-7.74418123e-07
-7.388673e-07
-7.36859774e-07
-7.78249612e-07
-7.74717038e-07
-7.4045745e-07
-7.33175957e-07
-7.34367375e-07
-7.77411744e-07
-7.74391279e-07
-7.3898525e-07
-7.36144367e-07
-7.79238975e-07
-7.74298644e-07
-7.38972584e-07
-7.36282623e-07
-7.79603656e-07
-7.74285362e-07
-7.39089307e-07
-7.3627806e-07
-7.8005269e-07
-7.74285887e-07
-7.39293718e-07
-7.36274791e-07
-7.79310744e-07
-7.74269301e-07
-7.39652537e-07
-7.36434859e-07
-7.78413267e-07
-7.74231335e-07
-7.40480516e-07
-7.36972556e-07
-7.78056324e-07
-7.74819323e-07
-7.42623933e-07
-7.33126995e-07
-7.32921886e-07
-7.79747203e-07
-7.74519088e-07
-7.40960196e-07
-7.35761693e-07
-7.74024224e-07
-7.74524342e-07
-7.41539611e-07
-7.36285501e-07
-7.73336793e-07
-7.74434954e-07
-7.42668824e-07
-7.37129799e-07
-7.73500242e-07
-7.74957069e-07
-7.4529723e-07
-7.33733923e-07
-7.33330214e-07
-7.7417662e-07
-7.74577793e-07
-7.43599745e-07
-7.36302962e-07
-7.69771969e-07
-7.74610643e-07
-7.44402951e-07
-7.36969435e-07
-7.69686439e-07
-7.74509266e-07
-7.4579539e-07
-7.38042418e-07
-7.70303369e-07
-7.75099583e-07
-7.49332961e-07
-7.34638638e-07
-7.34187861e-07
-7.70750113e-07
-7.75429544e-07
-7.75209095e-07
-7.74923239e-07
-7.49689745e-07
-7.34931344e-07
-7.35147629e-07
-7.33919955e-07
-7.3363826e-07
-7.64589536e-07
-7.75149595e-07
-7.4805632e-07
-7.38237113e-07
-7.67585888e-07
-7.74987104e-07
-7.52959395e-07
-7.36520843e-07
-7.35674621e-07
-7.6751239e-07
-7.74396263e-07
-7.50196794e-07
-7.39148634e-07
-7.68722015e-07
-7.74584654e-07
-7.54922974e-07
-7.36944347e-07
-7.36074385e-07
-7.67845482e-07
-7.74943449e-07
-7.5605166e-07
-7.36504288e-07
-7.35539813e-07
-7.66865469e-07
-7.75231235e-07
-7.5512093e-07
-7.35879873e-07
-7.34766276e-07
-7.6453891e-07
-7.74909817e-07
-7.49612642e-07
-7.38216983e-07
-7.67335383e-07
-7.75032079e-07
-7.5416832e-07
-7.35979581e-07
-7.35027651e-07
-7.65219526e-07
-7.75565876e-07
-7.55047963e-07
-7.35434878e-07
-7.34293257e-07
-7.62922975e-07
-7.75228863e-07
-7.49189208e-07
-7.37871065e-07
-7.66985688e-07
-7.75287954e-07
-7.53630379e-07
-7.35348839e-07
-7.34323433e-07
-7.61691758e-07
-7.75302028e-07
-7.49344274e-07
-7.37547712e-07
-7.65504028e-07
-7.74628338e-07
-7.48882512e-07
-7.38399471e-07
-7.67580262e-07
-7.7491823e-07
-7.5615489e-07
-7.3643526e-07
-7.35645594e-07
-7.65066054e-07
-7.75271915e-07
-7.58619432e-07
-7.36491519e-07
-7.35590197e-07
-7.64822593e-07
-7.75227744e-07
-7.59128555e-07
-7.36591331e-07
-7.3568206e-07
-7.64407247e-07
-7.75165939e-07
-7.59729598e-07
-7.36715293e-07
-7.35777929e-07
-7.63892449e-07
-7.751162e-07
-7.60267185e-07
-7.36784712e-07
)
;

boundaryField
{
    closed
    {
        type            calculated;
        value           nonuniform List<scalar> 0();
    }
    open
    {
        type            calculated;
        value           nonuniform List<scalar> 0();
    }
    sides
    {
        type            empty;
    }
    procBoundary2to1
    {
        type            processor;
        value           uniform -7.77641177e-07;
    }
    procBoundary2to3
    {
        type            processor;
        value           uniform -7.35797055e-07;
    }
}


// ************************************************************************* //
