/*--------------------------------*- C++ -*----------------------------------*\
| =========                 |                                                 |
| \\      /  F ield         | OpenFOAM: The Open Source CFD Toolbox           |
|  \\    /   O peration     | Version:  2306                                  |
|   \\  /    A nd           | Website:  www.openfoam.com                      |
|    \\/     M anipulation  |                                                 |
\*---------------------------------------------------------------------------*/
FoamFile
{
    version     2.0;
    format      ascii;
    arch        "LSB;label=32;scalar=64";
    class       volScalarField;
    location    "0.00146";
    object      prefDh_H2O;
}
// * * * * * * * * * * * * * * * * * * * * * * * * * * * * * * * * * * * * * //

dimensions      [1 1 -3 0 0 0 0];

internalField   nonuniform List<scalar> 
530
(
88.2925315
87.8901203
89.0025448
92.4507493
92.8238524
88.2635733
87.9054444
89.1056534
92.4579618
92.8864906
88.253069
87.9249511
89.2230543
92.4644826
92.9516911
88.2451805
87.9443575
89.3248849
92.4654424
92.983167
88.2978782
87.980134
89.4143047
92.4421594
92.8731609
88.7730839
88.0286669
87.9271905
87.8779435
89.3331218
92.5930276
92.4834507
92.6681642
91.2215083
88.6720709
90.2179504
92.4303801
92.4773682
88.0941046
87.8829758
87.9780674
89.7834203
92.6228119
91.8274459
87.9733792
87.99774
90.2462676
92.5991031
92.1755173
88.0375966
87.888123
88.0318548
89.9771797
92.5183762
92.4976101
92.6010007
92.0354288
88.1051401
88.0829444
90.6619437
92.6679185
91.2460449
87.9717294
87.8836267
88.0977183
90.6340281
92.7340992
90.5787202
87.9689389
88.1071342
91.1873603
92.6926399
90.6453057
88.0563811
88.2209761
92.1744094
92.9898888
88.9308547
88.8012083
92.8104653
92.5084044
91.1504249
88.006782
87.987937
87.9236193
88.1320395
91.4086405
92.356273
92.7218389
89.7497061
87.9441498
88.2189741
92.5988307
92.3700357
88.3700717
88.7080955
92.6830855
92.8907389
88.6979533
87.8878502
88.791208
92.8499098
91.5019775
88.2167073
89.1737018
92.5247009
92.232871
88.1438957
88.1971419
91.932144
92.5724322
90.5140391
87.886451
88.0929707
92.6579648
92.7434139
89.3458787
87.8386631
88.1353744
92.8753332
92.7849233
88.7663494
87.8391627
88.6541413
92.589392
92.8692377
88.1513165
88.4083145
92.4628198
92.6651996
88.7244429
87.8615595
88.4021973
92.5190518
92.6296792
88.6215086
87.8304709
88.563589
92.4825141
92.5944747
88.3632278
87.8232665
88.6557433
92.516865
92.5687779
88.217621
87.8547857
88.885987
92.620007
91.9844535
88.2009334
88.8319814
92.5038957
92.531444
88.1510375
87.9257706
89.2150959
92.6672051
91.4218478
88.2107189
88.9424204
92.5869646
92.583046
88.2022899
87.8958781
88.930293
92.7116114
92.6795878
88.1601329
87.9469675
89.825765
92.7645312
89.8076437
88.2583929
90.8038181
92.5140958
92.0666456
88.0378593
87.9164518
89.1701094
92.667868
92.6242857
88.3117637
87.9641328
89.248538
92.6733583
92.6838277
88.2491779
88.0604063
89.6797566
92.5954117
92.6428406
88.2166185
87.9105708
87.909046
87.9688871
91.5554011
92.9009831
88.4283139
88.2821076
93.03163
92.8929852
88.2515342
88.3204816
92.7275507
92.5189975
88.775956
87.7806991
88.0683536
92.9040044
92.7559112
88.1969063
88.1927907
92.7952418
92.7002343
88.1026805
88.1571612
92.7113711
92.6688918
88.0766725
88.1432076
92.6303813
92.6604813
88.0671108
88.1635694
92.5270188
92.6400466
88.0636821
88.2581113
92.3849346
92.5261291
88.1211731
87.6918148
88.3113788
92.5085587
92.6250979
88.0407251
88.2356624
92.3160466
92.4774134
88.205704
87.7477766
88.6454318
92.4286251
92.7415065
88.0679794
88.2832336
92.3099996
92.3661456
88.3433969
87.7829936
88.3646732
92.3953602
92.3676392
88.3708095
87.750055
88.2537893
92.4967482
92.4318671
88.1760321
88.2075566
92.4620339
92.3771604
88.9607647
87.8341755
88.0727715
92.8260386
92.322675
90.6769711
88.0096056
88.0043419
90.7495664
92.412251
92.5558769
88.0572448
87.6067083
87.9073408
92.899751
92.431131
89.5884158
87.8156957
87.9443726
92.6858148
92.3662314
88.4041776
88.1750935
92.8191209
92.3813608
89.5159861
87.8500615
87.9603101
92.7388297
92.3728107
90.0885081
87.8661805
87.9287741
92.7408021
92.3844129
90.042683
87.8678396
87.9263092
92.7220383
92.3832857
89.9185664
87.8573278
87.9270474
92.716538
92.3786779
89.9006414
87.8586183
87.9292504
92.7118132
92.3745811
89.9205427
87.8703519
87.9338962
92.700352
92.3718212
89.88654
87.8771353
87.9323956
92.6832996
92.3709917
89.7656518
87.8708937
87.9399113
92.6534375
92.3794025
89.2172362
87.7981899
87.9406387
92.6482552
92.4190955
88.8040902
87.6455796
87.934878
93.0048373
92.2580041
92.51636
88.2061815
88.0968017
92.8513782
92.3951361
88.6376295
87.7561533
87.9520029
92.6415374
92.3713781
88.9193055
87.8036522
87.9924604
92.6333371
92.280658
88.4879815
88.2216983
92.717252
92.307069
89.0616319
87.923043
88.095646
92.568763
92.2995832
89.135338
87.9271952
87.8483432
87.840084
92.7888934
92.3614597
88.2444372
88.0393806
92.8346474
92.401948
88.4297224
87.6690378
87.7850311
92.7334829
92.3574652
88.2586372
87.9645539
92.9590173
92.3469729
88.2580235
87.979045
93.0040556
92.3456844
88.2695896
87.9783806
93.0598576
92.3456657
88.2900488
87.9777367
92.9748686
92.3435946
88.3280586
87.9939072
92.8717344
92.3396588
88.428807
88.0501909
92.830625
92.4143139
88.6919068
87.6630589
87.6381863
93.0255924
92.3736298
88.4884365
87.9238029
92.3671031
92.3745607
88.5578132
87.9778755
92.2880154
92.3650616
88.6936967
88.065747
92.3068379
92.4315974
89.0120761
87.7242624
87.6784193
92.3850507
92.3815584
88.806436
87.9785162
91.8774194
92.3857215
88.9028094
88.0475324
91.8676109
92.3752991
89.0683189
88.1595804
91.9388702
92.4511653
89.4897259
87.8177956
87.7705014
91.9903738
92.4906036
92.4644554
92.4265058
89.5347559
87.8438588
87.863978
87.7435725
87.7118488
91.2786731
92.4556667
89.3376172
88.1791806
91.6252325
92.4371826
89.9185452
88.0074601
87.9172591
91.6167858
92.3621397
89.5905868
88.2741074
91.7563997
92.3864019
90.1492513
88.0491232
87.9589018
91.6552334
92.4308974
90.2817956
88.0035567
87.9043314
91.5419931
92.4660606
90.1730868
87.9401743
87.823366
91.2729671
92.4243145
89.5222679
88.1753974
91.5962437
92.4405536
90.0606972
87.9508864
87.8525379
91.3517506
92.5074841
90.1643864
87.8953719
87.7756844
91.0859398
92.4637574
89.4720971
88.1410713
91.5558644
92.4721223
89.9976946
87.8870069
87.7790013
90.9431582
92.4719608
89.4903413
88.1063409
91.3847217
92.3884293
89.4349811
88.1949379
91.6245008
92.4272874
90.2936445
87.998132
87.9162948
91.3339945
92.4719681
90.5823744
88.0033622
87.9106266
91.3058464
92.4662969
90.6419962
88.0132301
87.9200272
91.2577635
92.4586137
90.712257
88.0255723
87.929957
91.1981322
92.4523968
90.7750625
88.0323229
)
;

boundaryField
{
    closed
    {
        type            calculated;
        value           nonuniform List<scalar> 0();
    }
    open
    {
        type            calculated;
        value           nonuniform List<scalar> 0();
    }
    sides
    {
        type            empty;
    }
    procBoundary2to1
    {
        type            processor;
        value           uniform 92.7640103;
    }
    procBoundary2to3
    {
        type            processor;
        value           uniform 87.9320612;
    }
}


// ************************************************************************* //
