/*--------------------------------*- C++ -*----------------------------------*\
| =========                 |                                                 |
| \\      /  F ield         | OpenFOAM: The Open Source CFD Toolbox           |
|  \\    /   O peration     | Version:  2306                                  |
|   \\  /    A nd           | Website:  www.openfoam.com                      |
|    \\/     M anipulation  |                                                 |
\*---------------------------------------------------------------------------*/
FoamFile
{
    version     2.0;
    format      ascii;
    arch        "LSB;label=32;scalar=64";
    class       volScalarField;
    location    "0.00146";
    object      sourcePV;
}
// * * * * * * * * * * * * * * * * * * * * * * * * * * * * * * * * * * * * * //

dimensions      [1 -3 -1 0 0 0 0];

internalField   nonuniform List<scalar> 
530
(
0.127232256
0.159455576
0.104726301
0.00529683585
0.003622615
0.128258295
0.15841701
0.101680475
0.00526211618
0.00334133355
0.129491331
0.157072689
0.0982642963
0.0052310078
0.00304899367
0.130400585
0.155772628
0.0953229209
0.00522561644
0.00291068562
0.127132905
0.153104446
0.0927497718
0.00533702187
0.00341888318
0.112035167
0.150049766
0.152836161
0.16015975
0.0949537977
0.0046353895
0.00517886397
0.0043421416
0.0456674765
0.11547301
0.070746634
0.00540284649
0.015757522
0.146751652
0.159871055
0.15052911
0.0825272317
0.0044817502
0.0311300632
0.154926978
0.152164765
0.070101615
0.00461719632
0.0230061939
0.153686291
0.159604251
0.147236237
0.0772822252
0.00498641786
0.00510983623
0.00463287377
0.0260087268
0.14408221
0.145188459
0.0593527003
0.00430265907
0.045277022
0.157261522
0.159644447
0.141742744
0.060049959
0.00398075481
0.0617513998
0.154586079
0.141814472
0.0460885104
0.00419241294
0.0600856596
0.14845059
0.133176905
0.0225085084
0.00383664987
0.107470789
0.111437308
0.007528502
0.00506586292
0.0473540669
0.152513365
0.152852071
0.153810223
0.137901791
0.0406658727
0.00575814723
0.00408939658
0.0834094234
0.155881125
0.131699716
0.0127924883
0.0181768825
0.125451991
0.113929434
0.0041914892
0.00332449733
0.113865882
0.161680499
0.110600385
0.0034327691
0.0388521736
0.1364326
0.0998045239
0.00494048449
0.0213744936
0.141829966
0.136052216
0.0277561782
0.00476948556
0.0635001778
0.16057058
0.143052679
0.0111855426
0.00399087055
0.094672071
0.165546338
0.137149708
0.0033335389
0.00378523788
0.112049674
0.165747166
0.115395629
0.00464895412
0.00743569145
0.141826494
0.12435105
0.00522813569
0.00434013333
0.113415017
0.163937383
0.123485038
0.00496942748
0.00448303081
0.11673258
0.165889785
0.11840122
0.00514200861
0.00462906846
0.124990105
0.1664459
0.115571431
0.00498263222
0.00473977391
0.131837848
0.165224924
0.108339649
0.00451126716
0.0274734632
0.136610041
0.110486644
0.00504677322
0.00491143068
0.135967344
0.160023111
0.0985726668
0.00430531568
0.0406727904
0.13594715
0.107043539
0.0046720131
0.00467199671
0.130859832
0.161479992
0.107251468
0.00410680143
0.00422168981
0.135093698
0.158470524
0.0813674195
0.00383197455
0.0818687794
0.131996363
0.0557326666
0.00504919962
0.0249721097
0.145454342
0.157849732
0.100148237
0.00432645268
0.00447493186
0.126111105
0.156112537
0.0978179189
0.00430546499
0.00419556141
0.128252246
0.14906668
0.0854764914
0.00467994009
0.00439556991
0.130282219
0.161210567
0.158249632
0.156581867
0.0375045399
0.00317434546
0.123076158
0.134571709
0.00288427987
0.00323576019
0.130997945
0.130921726
0.0040300099
0.00499426837
0.111652637
0.170644639
0.145781321
0.00321682475
0.00383948972
0.136384106
0.140786212
0.00372484991
0.00410939025
0.142488757
0.143162788
0.00409864492
0.00425810585
0.144966716
0.143721702
0.0044689432
0.00429840664
0.145824135
0.142298106
0.00494351229
0.00438736526
0.144767825
0.134225049
0.0056025102
0.00495148728
0.138189548
0.17540587
0.126686423
0.00504127584
0.00444236326
0.14722339
0.135213016
0.00592720604
0.00518859318
0.131013988
0.170379124
0.116148478
0.00541960411
0.00389612581
0.144394073
0.131949587
0.00595902655
0.00570774892
0.125277466
0.166524277
0.12470087
0.00555970883
0.00568412911
0.124474812
0.169423053
0.12871865
0.00509595911
0.0053585409
0.135560475
0.136050942
0.00524958923
0.00567633053
0.106163906
0.166570938
0.143186835
0.003525389
0.00592557947
0.0587558092
0.149385853
0.150462188
0.0570008623
0.00552306901
0.00480765272
0.143021992
0.183656791
0.158781052
0.00318569709
0.0054200575
0.0881300387
0.165086652
0.153934944
0.00421584634
0.00568747234
0.124020261
0.137406055
0.00359073936
0.00565690534
0.0900867903
0.162872357
0.153084067
0.00394326958
0.00569129026
0.0742334469
0.160790552
0.156206403
0.00393233698
0.00563979384
0.0754707582
0.160619572
0.156389664
0.00402552679
0.00564401798
0.0788561799
0.161312352
0.156190239
0.00405434303
0.00566533179
0.079348569
0.161121024
0.156039828
0.00407919344
0.0056849143
0.0788024797
0.160165088
0.155772358
0.00413631255
0.00569796401
0.0797376643
0.159564758
0.155816948
0.00421982459
0.00569952503
0.0830833684
0.159818568
0.154877937
0.00436637035
0.00565243384
0.0987668316
0.165072098
0.154734163
0.00438072462
0.00546862674
0.110888447
0.179399056
0.153244252
0.00272579466
0.00622849257
0.0049955587
0.13195464
0.145741228
0.00343837182
0.00559034743
0.11634584
0.168996039
0.153404404
0.00442782943
0.00569071044
0.107693208
0.165461376
0.149560874
0.00447179835
0.00609766017
0.121360916
0.13218899
0.00408371275
0.00600284407
0.103400844
0.156674836
0.142020558
0.00478146968
0.00602562904
0.101374525
0.154638459
0.161709885
0.161536112
0.00374333097
0.00572576657
0.131328849
0.146531667
0.00352276613
0.00555693219
0.12297448
0.176090435
0.16488572
0.00401321772
0.00574110045
0.1320904
0.150708524
0.00296689651
0.00579452333
0.132700066
0.149918352
0.00275820579
0.00580221413
0.131547435
0.149822656
0.00250365805
0.00580189736
0.129667421
0.149643633
0.00459274031
0.00581142379
0.126814362
0.148325085
0.00701690174
0.00583336284
0.123451552
0.145210147
0.00803339447
0.00549819309
0.114524392
0.1759792
0.175560445
0.00309405054
0.00566759408
0.121321167
0.1524902
0.0188346199
0.00566466611
0.11915917
0.148928801
0.020675823
0.00571666247
0.114863269
0.143678855
0.0202245596
0.00541987807
0.104738056
0.171396936
0.171944319
0.0181006002
0.00563410092
0.111246858
0.148022515
0.0303077333
0.00561527756
0.108270822
0.143604012
0.0304570406
0.00567475718
0.10334424
0.137196546
0.0286083811
0.00534194725
0.090918522
0.165643835
0.168161079
0.0273963387
0.00515142801
0.00527919328
0.00543799354
0.089487103
0.161512391
0.158817253
0.170251658
0.170755613
0.0443433335
0.00531043537
0.0953621522
0.135491501
0.036105816
0.00540575364
0.0788594234
0.150762124
0.15462558
0.0361111348
0.00573995971
0.0881105997
0.12770149
0.0330042023
0.00563337766
0.0725666109
0.146636024
0.152184365
0.0353244895
0.00542911876
0.0690091023
0.149486106
0.156129437
0.038200064
0.00526441303
0.0719478922
0.154316597
0.160630268
0.0447147225
0.00544504006
0.090019619
0.134316069
0.0371488101
0.00537658902
0.0749705907
0.153910589
0.160161987
0.042881458
0.00507378649
0.0721760485
0.157933239
0.164440165
0.0493569274
0.00526239446
0.0914605766
0.13775815
0.0382866265
0.00523033986
0.0766905624
0.158797643
0.164352423
0.0528279815
0.00521922374
0.090943728
0.1389741
0.0422784759
0.00560542283
0.0925800919
0.133603016
0.0365290381
0.00544274671
0.0686746399
0.151021197
0.156053154
0.0432984514
0.00524294522
0.0610592183
0.150286651
0.156449817
0.0440046549
0.00526766593
0.0595292722
0.149346576
0.155792507
0.0451313119
0.00530277099
0.0577261363
0.148227617
0.155177542
0.0465358018
0.00533096797
0.0561291369
0.1474924
)
;

boundaryField
{
    closed
    {
        type            calculated;
        value           nonuniform List<scalar> 0();
    }
    open
    {
        type            calculated;
        value           nonuniform List<scalar> 0();
    }
    sides
    {
        type            empty;
    }
    procBoundary2to1
    {
        type            processor;
        value           uniform 0;
    }
    procBoundary2to3
    {
        type            processor;
        value           uniform 0;
    }
}


// ************************************************************************* //
