/*--------------------------------*- C++ -*----------------------------------*\
| =========                 |                                                 |
| \\      /  F ield         | OpenFOAM: The Open Source CFD Toolbox           |
|  \\    /   O peration     | Version:  2306                                  |
|   \\  /    A nd           | Website:  www.openfoam.com                      |
|    \\/     M anipulation  |                                                 |
\*---------------------------------------------------------------------------*/
FoamFile
{
    version     2.0;
    format      ascii;
    arch        "LSB;label=32;scalar=64";
    class       volScalarField;
    location    "0.00146";
    object      T;
}
// * * * * * * * * * * * * * * * * * * * * * * * * * * * * * * * * * * * * * //

dimensions      [0 0 0 1 0 0 0];

internalField   nonuniform List<scalar> 
530
(
329.199964
323.68196
328.868131
340.10164
338.481591
329.23626
323.883804
328.917582
340.095518
338.254361
329.046711
324.143783
328.998186
340.085784
338.021079
328.905408
324.396572
329.066476
340.095808
337.89177
329.24045
324.900966
329.111015
340.125459
338.172607
329.088543
325.502593
324.752394
323.539907
328.914917
339.660415
339.566816
338.8928
332.479028
329.292165
330.47044
340.003104
336.095226
326.201297
323.59825
325.251738
329.611232
339.740547
334.142426
324.613372
325.095248
330.391266
339.529969
335.182862
324.999848
323.653617
325.897208
329.881923
339.838658
339.569085
339.264956
334.738698
326.604714
326.369739
331.196486
339.279178
332.53124
324.253447
323.634508
326.873797
331.142422
339.228337
330.918668
324.649387
326.905272
332.419395
339.165272
331.061742
325.826048
328.469113
335.133299
337.729456
329.303508
329.277554
337.085845
339.470067
332.301237
325.075837
324.963544
324.606432
327.49439
332.978709
340.052796
338.792131
329.386918
324.379953
328.628399
336.460442
335.752575
329.59043
329.009127
339.654848
338.222877
328.749523
323.32988
328.449038
338.973066
333.224652
328.058445
329.065866
340.031965
335.331436
327.058178
328.015924
334.389075
339.29755
330.731858
323.500607
326.688326
336.617889
338.7243
329.024055
322.583084
327.598576
338.741898
338.726986
328.953068
322.550702
328.87115
339.709916
337.447126
327.089321
329.654216
340.244973
339.04608
329.00314
322.900676
329.022759
340.01527
339.358899
329.086129
322.507961
328.998689
340.099424
339.651406
329.19159
322.399616
329.022201
339.982343
339.834192
328.606103
322.672043
328.924534
339.564672
334.606268
327.965334
329.278859
339.973326
339.979381
327.810276
323.692567
329.069483
339.287739
333.009066
328.090957
329.25006
339.582924
339.805909
328.63758
323.382493
329.126607
339.089229
339.517523
327.954559
323.995018
329.629322
339.207117
329.661507
328.787469
331.510899
339.346822
334.807402
326.152909
324.001926
329.280642
339.051354
339.735383
328.895149
324.407419
329.305999
338.99515
339.571795
328.997379
325.754492
329.704304
339.067304
339.599414
328.773819
323.463154
323.919699
324.3503
333.370609
338.995965
329.27191
328.584936
337.867456
338.81898
328.86945
329.212731
339.070746
339.704438
328.881093
321.595683
326.23338
338.532536
339.551837
327.974605
327.396998
338.804281
339.62348
326.801
326.934904
339.177157
339.695063
326.373854
326.804289
339.470389
339.709709
326.222795
327.076813
339.846579
339.847809
326.34697
328.518956
340.320586
339.801465
327.410133
320.609043
329.228461
339.75264
340.077484
325.933551
328.294795
340.4731
339.80911
328.638052
321.583548
329.191094
339.88895
339.709387
326.412728
328.912082
340.424323
340.09471
328.990765
322.29635
329.045795
340.196742
340.358086
329.025716
321.749147
329.135473
339.789154
340.578371
327.976126
328.063845
339.993335
339.780472
329.005506
322.401455
326.586192
339.208203
339.965479
331.295191
325.524221
325.357496
331.4181
339.572598
339.778937
326.540322
318.949888
323.834394
338.952509
339.722072
329.729163
322.605227
324.661181
339.264652
340.417492
329.382068
327.750905
338.935348
339.769339
329.507937
323.043537
324.835905
339.363786
339.863865
330.247331
323.410328
324.283428
339.374954
339.802028
330.187219
323.441109
324.248777
339.37421
339.818691
330.00878
323.305689
324.28028
339.358826
339.831258
329.98811
323.33858
324.309264
339.344526
339.833597
330.020762
323.517303
324.363142
339.340656
339.837114
329.979619
323.627548
324.35182
339.348477
339.871417
329.820435
323.571091
324.512017
339.356243
339.964674
329.315003
322.564599
324.535032
339.472237
339.850361
328.953239
319.814191
324.724297
338.420339
340.074297
339.847682
328.536086
326.349942
338.863561
339.770928
329.161287
321.832807
324.762117
339.326927
339.971465
329.205224
322.516111
325.436057
339.289808
340.475277
329.369567
328.586403
339.045025
339.928879
329.251231
324.196625
326.830159
339.360535
340.137251
329.429528
324.503326
323.219815
323.223196
338.91583
340.16669
328.796593
326.019618
338.855588
339.777967
329.237267
320.454994
322.560229
338.956883
340.230326
328.777615
325.177072
338.341863
340.186019
328.702647
325.337389
338.217039
340.162358
328.894215
325.34761
338.035587
340.168877
329.212638
325.368913
337.738728
340.176378
329.608862
325.605159
337.407047
340.128989
329.505776
326.234781
337.281886
339.764321
329.072358
320.466893
320.503026
337.85799
340.156119
329.354052
324.786601
335.803868
340.131703
329.364096
325.463407
335.556377
340.038802
329.334411
326.494507
335.613881
339.695371
329.113399
321.366167
321.185648
335.827774
340.081624
329.257745
325.583062
334.307227
340.061873
329.257157
326.426519
334.273922
339.928384
329.370116
327.705385
334.475004
339.488844
329.590608
322.519954
322.001451
334.628079
339.481108
339.470171
339.780206
329.429053
323.237455
323.698295
321.597116
321.449742
332.624293
339.60604
329.513175
327.999085
333.569487
339.534683
330.048534
325.327102
324.471093
333.541837
339.903198
329.793078
329.134636
333.945158
339.758867
330.404686
326.044378
324.956005
333.652908
339.621289
330.614499
325.48797
324.215249
333.33641
339.553132
330.398801
324.59292
323.30886
332.59813
339.827588
329.664413
328.117398
333.492544
339.694364
330.25964
324.686857
323.46556
332.808357
339.430965
330.394778
323.925198
322.603859
332.098197
339.715138
329.618319
327.553097
333.377893
339.609344
330.147448
323.771656
322.626199
331.737482
339.756857
329.644568
327.248956
332.893856
340.013931
329.64146
328.293889
333.574701
339.669652
330.653498
325.257624
324.265441
332.760329
339.468373
331.161868
325.378121
324.189824
332.682856
339.500818
331.268731
325.543106
324.315136
332.554979
339.526003
331.403985
325.740882
324.436063
332.399039
339.548965
331.527717
325.865095
)
;

boundaryField
{
    closed
    {
        type            fixedValue;
        value           nonuniform List<scalar> 0();
    }
    open
    {
        type            zeroGradient;
    }
    sides
    {
        type            empty;
    }
    procBoundary2to1
    {
        type            processor;
        value           uniform 338.702528;
    }
    procBoundary2to3
    {
        type            processor;
        value           uniform 324.45;
    }
}


// ************************************************************************* //
