/*--------------------------------*- C++ -*----------------------------------*\
| =========                 |                                                 |
| \\      /  F ield         | OpenFOAM: The Open Source CFD Toolbox           |
|  \\    /   O peration     | Version:  2306                                  |
|   \\  /    A nd           | Website:  www.openfoam.com                      |
|    \\/     M anipulation  |                                                 |
\*---------------------------------------------------------------------------*/
FoamFile
{
    version     2.0;
    format      ascii;
    arch        "LSB;label=32;scalar=64";
    class       volVectorField;
    location    "0.00146";
    object      U;
}
// * * * * * * * * * * * * * * * * * * * * * * * * * * * * * * * * * * * * * //

dimensions      [0 1 -1 0 0 0 0];

internalField   nonuniform List<vector> 
530
(
(-2.89851792 0 0)
(-2.88688962 0 0)
(-2.94989592 0 0)
(-3.10412557 0 0)
(-3.20720614 0 0)
(-3.18744393 0 0)
(-3.1621523 0 0)
(-3.20605074 0 0)
(-3.3389308 0 0)
(-3.39936501 0 0)
(-3.40489238 0 0)
(-3.39858087 0 0)
(-3.38102273 0 0)
(-3.46972428 0 0)
(-3.50209755 0 0)
(-3.51112237 0 0)
(-3.51280061 0 0)
(-3.47310811 0 0)
(-3.54151065 0 0)
(-3.56581081 0 0)
(-3.47089669 0 0)
(-3.38420392 0 0)
(-3.3511314 0 0)
(-3.4156156 0 0)
(-3.43780826 0 0)
(-3.36740747 0 0)
(-3.3396842 0 0)
(-3.32507445 0 0)
(-3.27153067 0 0)
(-3.24220252 0 0)
(-3.29661275 0 0)
(-3.30550774 0 0)
(-3.27551004 0 0)
(-3.29251829 0 0)
(-3.26550301 0 0)
(-3.21052487 0 0)
(-3.23372345 0 0)
(-3.26036781 0 0)
(-3.28126238 0 0)
(-3.30223941 0 0)
(-3.2508848 0 0)
(-3.20888656 0 0)
(-3.24556755 0 0)
(-3.34568181 0 0)
(-3.36552801 0 0)
(-3.30331373 0 0)
(-3.27371846 0 0)
(-3.3117211 0 0)
(-3.3622712 0 0)
(-3.40990132 0 0)
(-3.45110754 0 0)
(-3.4216258 0 0)
(-3.39425791 0 0)
(-3.43479363 0 0)
(-3.45942909 0 0)
(-3.44125276 0 0)
(-3.4401859 0 0)
(-3.4567892 0 0)
(-3.44274854 0 0)
(-3.37304122 0 0)
(-3.36190554 0 0)
(-3.41864635 0 0)
(-3.41314427 0 0)
(-3.36178756 0 0)
(-3.30603692 0 0)
(-3.23931375 0 0)
(-3.22901783 0 0)
(-3.26136998 0 0)
(-3.24176889 0 0)
(-3.18096595 0 0)
(-3.10347386 0 0)
(-3.06529518 0 0)
(-3.07989781 0 0)
(-3.06078944 0 0)
(-3.01303876 0 0)
(-2.91593051 0 0)
(-2.81908145 0 0)
(-2.75605475 0 0)
(-2.73284764 0 0)
(-2.6517727 0 0)
(-2.56303062 0 0)
(-2.57350397 0 0)
(-2.57257404 0 0)
(-2.53998125 0 0)
(-2.51235034 0 0)
(-2.46932365 0 0)
(-2.40559559 0 0)
(-2.35504164 0 0)
(-2.31551711 0 0)
(-2.28359543 0 0)
(-2.26198019 0 0)
(-2.20416208 0 0)
(-2.1154165 0 0)
(-2.08744971 0 0)
(-2.06544164 0 0)
(-2.0515778 0 0)
(-2.03087526 0 0)
(-1.96529872 0 0)
(-1.88948461 0 0)
(-1.84773828 0 0)
(-1.84036309 0 0)
(-1.81108856 0 0)
(-1.78464059 0 0)
(-1.76498032 0 0)
(-1.74619817 0 0)
(-1.72728797 0 0)
(-1.71878509 0 0)
(-1.70964098 0 0)
(-1.68117228 0 0)
(-1.61811746 0 0)
(-1.54694927 0 0)
(-1.52713523 0 0)
(-1.52065234 0 0)
(-1.50954908 0 0)
(-1.43018645 0 0)
(-1.32452996 0 0)
(-1.28079883 0 0)
(-1.27028355 0 0)
(-1.27220689 0 0)
(-1.21192931 0 0)
(-1.1141808 0 0)
(-1.05256647 0 0)
(-1.02060396 0 0)
(-1.0149178 0 0)
(-0.984878586 0 0)
(-0.920145934 0 0)
(-0.875338968 0 0)
(-0.863942135 0 0)
(-0.82256897 0 0)
(-0.747769713 0 0)
(-0.682115936 0 0)
(-0.643984939 0 0)
(-0.632136847 0 0)
(-0.600561614 0 0)
(-0.539494337 0 0)
(-0.486778512 0 0)
(-0.464889172 0 0)
(-0.460458356 0 0)
(-0.443455235 0 0)
(-0.401186178 0 0)
(-0.358896436 0 0)
(-0.350463976 0 0)
(-0.34970615 0 0)
(-0.337915886 0 0)
(-0.299688335 0 0)
(-0.278416222 0 0)
(-0.287002833 0 0)
(-0.279218357 0 0)
(-0.259078471 0 0)
(-0.19693562 0 0)
(-0.164549626 0 0)
(-0.166832937 0 0)
(-0.133128246 0 0)
(-0.0847238952 0 0)
(-0.0414411596 0 0)
(-0.0286482623 0 0)
(-0.00861593919 0 0)
(0.0433513167 0 0)
(0.124982585 0 0)
(0.171939082 0 0)
(0.189321138 0 0)
(0.245599672 0 0)
(0.331844151 0 0)
(0.407392126 0 0)
(0.446878786 0 0)
(0.486713715 0 0)
(0.560159157 0 0)
(0.652077215 0 0)
(0.738221307 0 0)
(0.792190322 0 0)
(0.838712057 0 0)
(0.909393681 0 0)
(0.979993182 0 0)
(1.0506033 0 0)
(1.10598695 0 0)
(1.17276398 0 0)
(1.27575959 0 0)
(1.38540763 0 0)
(1.46962082 0 0)
(1.54383313 0 0)
(1.63155668 0 0)
(1.69513744 0 0)
(1.70768007 0 0)
(1.73367285 0 0)
(1.7931712 0 0)
(1.88080721 0 0)
(1.96464819 0 0)
(2.02301512 0 0)
(2.10441442 0 0)
(2.18282785 0 0)
(2.26396628 0 0)
(2.31768718 0 0)
(2.39043905 0 0)
(2.5024446 0 0)
(2.55311897 0 0)
(2.58721223 0 0)
(2.60723661 0 0)
(2.58273576 0 0)
(2.51476639 0 0)
(2.49785501 0 0)
(2.49689567 0 0)
(2.44744939 0 0)
(2.45395488 0 0)
(2.49845167 0 0)
(2.49232016 0 0)
(2.40102451 0 0)
(2.30192227 0 0)
(2.2655569 0 0)
(2.23576699 0 0)
(2.19717733 0 0)
(2.15154253 0 0)
(2.11004633 0 0)
(2.12834358 0 0)
(2.09324527 0 0)
(1.9968651 0 0)
(1.94404683 0 0)
(1.94685581 0 0)
(1.885235 0 0)
(1.76110866 0 0)
(1.68433424 0 0)
(1.67309746 0 0)
(1.60376057 0 0)
(1.47320273 0 0)
(1.39507904 0 0)
(1.34224364 0 0)
(1.25679518 0 0)
(1.18613313 0 0)
(1.10705787 0 0)
(1.02306024 0 0)
(0.93697203 0 0)
(0.863274612 0 0)
(0.787033189 0 0)
(0.720640562 0 0)
(0.680187167 0 0)
(0.624756241 0 0)
(0.565423434 0 0)
(0.511388525 0 0)
(0.44291527 0 0)
(0.377856017 0 0)
(0.329541301 0 0)
(0.280277016 0 0)
(0.229032641 0 0)
(0.201483794 0 0)
(0.155904236 0 0)
(0.142577426 0 0)
(0.132539476 0 0)
(0.0674212641 0 0)
(0.0372705085 0 0)
(0.0190836506 0 0)
(-0.0021337098 0 0)
(-0.0192123303 0 0)
(-0.038376556 0 0)
(-0.0479952014 0 0)
(-0.0508093919 0 0)
(-0.053619395 0 0)
(-0.0572994103 0 0)
(-0.0684504193 0 0)
(-0.0739177813 0 0)
(-0.0576638926 0 0)
(-0.0539601143 0 0)
(-0.0761423862 0 0)
(-0.0630495516 0 0)
(-0.044635389 0 0)
(-0.0373896976 0 0)
(-0.0282401675 0 0)
(-0.0316288805 0 0)
(-0.00629415702 0 0)
(0.0337443624 0 0)
(0.0450697091 0 0)
(0.0577467455 0 0)
(0.073940977 0 0)
(0.0851357641 0 0)
(0.104692448 0 0)
(0.134715329 0 0)
(0.168174064 0 0)
(0.18418962 0 0)
(0.181024468 0 0)
(0.207534684 0 0)
(0.253278413 0 0)
(0.269128953 0 0)
(0.284766663 0 0)
(0.297562404 0 0)
(0.320844856 0 0)
(0.356405047 0 0)
(0.378150649 0 0)
(0.392165704 0 0)
(0.421959912 0 0)
(0.457196103 0 0)
(0.47356626 0 0)
(0.490165501 0 0)
(0.500105338 0 0)
(0.523212135 0 0)
(0.552248667 0 0)
(0.563170812 0 0)
(0.577182604 0 0)
(0.582992818 0 0)
(0.60303261 0 0)
(0.626736905 0 0)
(0.631807809 0 0)
(0.642493134 0 0)
(0.645077355 0 0)
(0.661552083 0 0)
(0.678975869 0 0)
(0.679016285 0 0)
(0.686834099 0 0)
(0.6864931 0 0)
(0.700249065 0 0)
(0.713357187 0 0)
(0.70981203 0 0)
(0.715437637 0 0)
(0.712962036 0 0)
(0.724032117 0 0)
(0.733694881 0 0)
(0.727282391 0 0)
(0.730259237 0 0)
(0.725703209 0 0)
(0.733887619 0 0)
(0.739755151 0 0)
(0.730225951 0 0)
(0.730678575 0 0)
(0.724322284 0 0)
(0.730230814 0 0)
(0.732954195 0 0)
(0.721046143 0 0)
(0.720513958 0 0)
(0.713920593 0 0)
(0.718722913 0 0)
(0.718482197 0 0)
(0.703001157 0 0)
(0.701417137 0 0)
(0.695225385 0 0)
(0.699939272 0 0)
(0.696987492 0 0)
(0.676362682 0 0)
(0.671148536 0 0)
(0.665508171 0 0)
(0.674148305 0 0)
(0.688850336 0 0)
(0.688965676 0 0)
(0.683131459 0 0)
(0.679539298 0 0)
(0.691718418 0 0)
(0.689690951 0 0)
(0.674944153 0 0)
(0.675461787 0 0)
(0.672838957 0 0)
(0.680534447 0 0)
(0.681961305 0 0)
(0.66911597 0 0)
(0.672253922 0 0)
(0.67314861 0 0)
(0.683359885 0 0)
(0.68778455 0 0)
(0.678374409 0 0)
(0.685314059 0 0)
(0.705362972 0 0)
(0.710436091 0 0)
(0.704761401 0 0)
(0.714813257 0 0)
(0.718999631 0 0)
(0.732977192 0 0)
(0.741234775 0 0)
(0.734774315 0 0)
(0.74643845 0 0)
(0.761749896 0 0)
(0.778193406 0 0)
(0.810297374 0 0)
(0.817718584 0 0)
(0.825470744 0 0)
(0.850891483 0 0)
(0.887430857 0 0)
(0.903787877 0 0)
(0.898632263 0 0)
(0.906591913 0 0)
(0.914387723 0 0)
(0.949295012 0 0)
(0.97944677 0 0)
(1.00089642 0 0)
(1.04129556 0 0)
(1.09664196 0 0)
(1.1305744 0 0)
(1.15939885 0 0)
(1.2104442 0 0)
(1.27838421 0 0)
(1.32105566 0 0)
(1.36107756 0 0)
(1.42793311 0 0)
(1.5146117 0 0)
(1.57251832 0 0)
(1.6302614 0 0)
(1.71649741 0 0)
(1.79598708 0 0)
(1.84146314 0 0)
(1.87851583 0 0)
(1.94723805 0 0)
(2.0266216 0 0)
(2.043832 0 0)
(2.02885663 0 0)
(2.0444366 0 0)
(2.08594044 0 0)
(2.07143379 0 0)
(2.03683713 0 0)
(2.02610031 0 0)
(2.07033033 0 0)
(2.14044688 0 0)
(2.1318087 0 0)
(2.09977945 0 0)
(2.10925778 0 0)
(2.14292622 0 0)
(2.12033763 0 0)
(2.07860146 0 0)
(2.07500573 0 0)
(2.09069384 0 0)
(2.05614541 0 0)
(2.01241951 0 0)
(2.01020503 0 0)
(2.02407936 0 0)
(1.99523666 0 0)
(1.96374156 0 0)
(1.95912299 0 0)
(1.99365141 0 0)
(2.0161327 0 0)
(1.97688457 0 0)
(1.94681612 0 0)
(1.95861898 0 0)
(1.98322794 0 0)
(1.9662306 0 0)
(1.94484096 0 0)
(1.9635561 0 0)
(1.98969224 0 0)
(1.97377366 0 0)
(1.95553822 0 0)
(1.97734838 0 0)
(1.99948316 0 0)
(1.98102811 0 0)
(1.96579891 0 0)
(1.97818812 0 0)
(2.02213833 0 0)
(2.02577784 0 0)
(1.99201885 0 0)
(2.00803267 0 0)
(2.00192528 0 0)
(1.97858559 0 0)
(1.98747562 0 0)
(2.00887101 0 0)
(2.01573786 0 0)
(2.03482856 0 0)
(2.04521117 0 0)
(1.99969941 0 0)
(1.96747421 0 0)
(1.98101717 0 0)
(1.98914233 0 0)
(1.95349563 0 0)
(1.93522437 0 0)
(1.95264515 0 0)
(1.98580576 0 0)
(1.99717101 0 0)
(1.95703399 0 0)
(1.93668274 0 0)
(1.96145078 0 0)
(1.9758826 0 0)
(1.95138818 0 0)
(1.94702055 0 0)
(1.9786051 0 0)
(2.02049086 0 0)
(2.0349877 0 0)
(2.00301999 0 0)
(1.99984438 0 0)
(2.03360471 0 0)
(2.07616507 0 0)
(2.09040718 0 0)
(2.05331692 0 0)
(2.04253671 0 0)
(2.07076962 0 0)
(2.10938375 0 0)
(2.12379878 0 0)
(2.07818128 0 0)
(2.04389198 0 0)
(2.06264691 0 0)
(2.06658753 0 0)
(2.01996337 0 0)
(1.98936022 0 0)
(1.99707233 0 0)
(2.0179426 0 0)
(2.01054569 0 0)
(1.94951395 0 0)
(1.91232828 0 0)
(1.91287082 0 0)
(1.92634118 0 0)
(1.91657382 0 0)
(1.84827814 0 0)
(1.79174797 0 0)
(1.78292501 0 0)
(1.76086076 0 0)
(1.6922143 0 0)
(1.63992794 0 0)
(1.6221747 0 0)
(1.62019153 0 0)
(1.5978668 0 0)
(1.5235952 0 0)
(1.46319329 0 0)
(1.44317463 0 0)
(1.41459229 0 0)
(1.34254699 0 0)
(1.28441613 0 0)
(1.25993265 0 0)
(1.22485948 0 0)
(1.15789656 0 0)
(1.10902345 0 0)
(1.08198266 0 0)
(1.0660096 0 0)
(1.02781347 0 0)
(0.959364556 0 0)
(0.9163328 0 0)
(0.892466368 0 0)
(0.876389163 0 0)
(0.840889722 0 0)
(0.780414935 0 0)
(0.744696285 0 0)
(0.724738453 0 0)
(0.711761562 0 0)
(0.682496882 0 0)
(0.63226334 0 0)
(0.605226635 0 0)
(0.590479793 0 0)
(0.581436804 0 0)
(0.559115722 0 0)
(0.519182276 0 0)
(0.500588689 0 0)
(0.49127513 0 0)
)
;

boundaryField
{
    closed
    {
        type            noSlip;
    }
    open
    {
        type            inletOutlet;
        inletValue      nonuniform List<vector> 0();
        value           nonuniform List<vector> 0();
    }
    sides
    {
        type            empty;
    }
    procBoundary2to1
    {
        type            processor;
        value           uniform (-2.90765101 0 0);
    }
    procBoundary2to3
    {
        type            processor;
        value           uniform (0.486233853 0 0);
    }
}


// ************************************************************************* //
