/*--------------------------------*- C++ -*----------------------------------*\
| =========                 |                                                 |
| \\      /  F ield         | OpenFOAM: The Open Source CFD Toolbox           |
|  \\    /   O peration     | Version:  2306                                  |
|   \\  /    A nd           | Website:  www.openfoam.com                      |
|    \\/     M anipulation  |                                                 |
\*---------------------------------------------------------------------------*/
FoamFile
{
    version     2.0;
    format      ascii;
    arch        "LSB;label=32;scalar=64";
    class       volScalarField;
    location    "0.00166";
    object      h;
}
// * * * * * * * * * * * * * * * * * * * * * * * * * * * * * * * * * * * * * //

dimensions      [0 2 -2 0 0 0 0];

internalField   nonuniform List<scalar> 
530
(
-220442.177
-209575.876
-235580.474
-234624.381
-215805.771
-208544.012
-231086.366
-230468.196
-211721.357
-207520.731
-227128.548
-226526.196
-207585.484
-206610.003
-223495.644
-223035.917
-203540.503
-205544.269
-220145.04
-219519.918
-199982.793
-203517.612
-216534.035
-216098.795
-197134.367
-200831.819
-212944.6
-212732.093
-194384.224
-198078.322
-209335.477
-209312.72
-191587.696
-195175.446
-205786.541
-205820.943
-188714.397
-192175.971
-202257.982
-202294.342
-185758.844
-189102.681
-198727.693
-198754.12
-182737.223
-185958.999
-195154.288
-195231.89
-179678.164
-182748.45
-191796.974
-191729.114
-176772.329
-179483.439
-188567.348
-188238.224
-173822.626
-176209.161
-185410.85
-184999.413
-170877.349
-172997.089
-182238.382
-181851.368
-167936.708
-169805.833
-179105.786
-178732.788
-164982.449
-166633.427
-175982.599
-175653.418
-162022.516
-163519.128
-172860.447
-172566.77
-159051.954
-160436.935
-169757.254
-169473.796
-156091.818
-157399.504
-166680.465
-166389.44
-153156.703
-154392.812
-163612.425
-163321.496
-150175.291
-151423.251
-160435.599
-160234.772
-147187.224
-148397.239
-157214.703
-157076.149
-144183.309
-145361.258
-153968.711
-153869.746
-141189.467
-142325.103
-150737.591
-150632.62
-138197.606
-139305.698
-147503.445
-147390.055
-135216.307
-136281.835
-144294.446
-144174.008
-132218.037
-133242.844
-141089.331
-140974.335
-129207.337
-130194.719
-137896.833
-137771.477
-126197.525
-127150.621
-134681.186
-134571.929
-123188.428
-124090.031
-131523.233
-131388.559
-120174.168
-121052.986
-128354.9
-128224.353
-117159.948
-118011.276
-125223.374
-125076.638
-114123.073
-114979.264
-122087.117
-121929.509
-111089.585
-111966.833
-118960.166
-118785.465
-108052.111
-108950.087
-115847.538
-115637.6
-105023.02
-105935.368
-112741.381
-112494.5
-102001.172
-102922.038
-109634.806
-109358.813
-98994.1465
-99904.9622
-106487.093
-106235.413
-95928.4712
-96872.9073
-103227.081
-103045.046
-92852.7696
-93784.364
-99943.9691
-99784.4975
-89801.9795
-90697.9278
-96640.7632
-96491.6856
-86751.2008
-87628.1989
-93340.259
-93181.9694
-83653.2199
-84606.9938
-90083.2857
-89879.6455
-80493.2553
-81591.6336
-86851.1187
-86601.6729
-77389.6553
-78514.2692
-83628.8188
-83378.894
-74367.7576
-75421.4691
-80406.5785
-80198.0952
-71420.6238
-72350.9058
-77378.1307
-77134.3208
-68587.7038
-69428.1781
-74443.5067
-74235.7224
-65800.1963
-66595.6048
-71614.7717
-71400.8806
-63047.6819
-63825.8396
-68839.9104
-68644.5339
-60360.4258
-61107.9884
-66090.313
-65962.7397
-57740.705
-58426.2439
-63423.4119
-63336.6439
-55185.0496
-55827.6569
-60829.6725
-60759.6559
-52665.2333
-53272.5869
-58310.419
-58251.9703
-50253.3016
-50786.0523
-55874.7363
-55797.9205
-47880.9481
-48421.1912
-53442.6119
-53373.1835
-45569.0928
-46157.1751
-50999.0273
-50946.5401
-43296.4859
-43956.8297
-48620.5477
-48542.0956
-41062.3959
-41824.4067
-46329.2374
-46179.8418
-38859.3685
-39711.8332
-44151.3324
-43913.0775
-36743.1295
-37618.6228
-41994.7968
-41750.3912
-34774.1789
-35556.1042
-39855.2345
-39648.5292
-32891.6734
-33588.2522
-37770.3234
-37564.1572
-31030.3838
-31721.5417
-35779.7924
-35500.4719
-29203.7323
-29938.226
-33850.1936
-33496.2969
-27419.1091
-28214.1981
-31975.6048
-31569.5313
-25676.1883
-26542.2411
-30178.1979
-29736.728
-23967.4052
-24910.266
-28480.9544
-27976.3485
-22303.2322
-23333.1438
-26872.1301
-26290.5524
-20700.5262
-21807.7872
-25327.4608
-24686.7492
-19176.8063
-20326.4734
-23827.7154
-23157.2463
-17741.1945
-18883.5827
-22362.074
-21700.4895
-16384.4329
-17485.1626
-20927.1062
-20308.5561
-15097.4599
-16138.7563
-19527.3331
-18972.0767
-13880.3043
-14844.7162
-18179.3395
-17678.1043
-12716.6884
-13614.852
-16872.552
-16445.8764
-11610.744
-12436.5225
-15647.4285
-15260.2827
-10555.572
-11319.6743
-14485.8096
-14114.7941
-9553.1118
-10266.362
-13371.301
-13019.9011
-8609.79796
-9294.51683
-12297.5148
-11978.4577
-7728.22397
-8379.39231
-11262.6833
-10980.5894
-6906.7942
-7518.20008
-10265.7754
-10027.4688
-6138.56304
-6705.07054
-9307.4797
-9120.58811
-5410.59301
-5938.13488
-8380.27685
-8259.38059
-4734.65031
-5216.74716
-7560.26805
-7441.05092
-4119.60867
-4545.15729
-6770.94507
-6665.0059
-3539.84812
-3917.49055
-6026.28879
-5931.65017
-2987.07689
-3335.44048
-5328.20624
-5234.08446
-2456.32314
-2800.38542
-4678.25948
-4573.51149
-1950.36144
-2301.7632
-4071.8805
-3953.39483
-1479.54316
-1832.00637
-3495.85365
-3373.82246
-1050.14548
-1389.16944
-2950.70553
-2832.51274
-656.415815
-974.335449
-2439.62359
-2327.65398
-293.063261
-588.570125
-1961.58716
-1857.90474
42.1451253
-230.88474
-1517.0391
-1420.70156
351.216745
99.1674128
-1104.50801
-1015.8904
635.440278
402.81897
-722.621853
-640.958488
895.730623
681.37856
-370.702728
-294.939891
1133.69091
935.543672
-46.7180432
23.4059843
1350.2414
1167.11617
250.605108
315.332772
1546.22709
1377.19554
523.110146
582.137684
1722.71783
1567.12379
771.607673
825.932135
1881.21191
1737.60524
996.881264
1047.96613
2023.34497
1889.59185
1200.5615
1248.9953
2150.05534
2024.87516
1384.51192
1430.05374
2261.67339
2145.05326
1550.39175
1592.34989
2358.72747
2251.19685
1699.31024
1737.40532
2442.28399
2344.39583
1832.39805
1866.43753
2513.13259
2426.22418
1951.0342
1980.20128
2572.65261
2498.53791
2063.10355
2086.08387
2616.20233
2556.52047
2189.66882
2203.01541
2665.16046
2612.08175
2505.10685
2496.32351
2610.23113
2595.97001
2613.38096
2606.61244
2643.7425
2640.74397
2668.74393
2668.23175
2691.43203
2692.12276
2712.16133
2711.18849
2724.35999
2722.53967
2729.40939
2724.43053
2725.45132
2714.91598
2711.19404
2694.5435
2684.21874
2661.23857
2644.62682
2616.14373
2594.08013
2561.8682
2535.88864
2502.41069
2474.82798
2442.90726
2416.48979
2388.78936
2366.15313
2344.55554
2327.464
2312.57027
2301.48872
2292.42479
2285.61616
2280.6724
2277.6767
2275.82027
2274.8289
2274.31154
2274.07253
2273.95527
2273.91393
2273.89987
2273.89581
2273.8948
2273.89461
2273.8946
2273.8946
2273.89461
2273.89461
2273.89461
2273.89461
2273.89461
2273.89461
2273.89461
2273.89461
2273.89461
2273.89461
2273.89461
2273.89461
2273.89461
2273.89461
2273.89461
2273.89461
2273.89461
2273.89461
2273.89461
2273.89461
2273.89461
)
;

boundaryField
{
    closed
    {
        type            lookUpEnthalpy;
        h0              nonuniform List<scalar> 0();
        value           nonuniform List<scalar> 0();
    }
    open
    {
        type            zeroGradient;
    }
    sides
    {
        type            empty;
    }
    procBoundary5to4
    {
        type            processor;
        value           uniform -239077.289;
    }
}


// ************************************************************************* //
