/*--------------------------------*- C++ -*----------------------------------*\
| =========                 |                                                 |
| \\      /  F ield         | OpenFOAM: The Open Source CFD Toolbox           |
|  \\    /   O peration     | Version:  2306                                  |
|   \\  /    A nd           | Website:  www.openfoam.com                      |
|    \\/     M anipulation  |                                                 |
\*---------------------------------------------------------------------------*/
FoamFile
{
    version     2.0;
    format      ascii;
    arch        "LSB;label=32;scalar=64";
    class       volScalarField;
    location    "0.00166";
    object      prefDZ_T;
}
// * * * * * * * * * * * * * * * * * * * * * * * * * * * * * * * * * * * * * //

dimensions      [1 -1 -1 -1 0 0 0];

internalField   nonuniform List<scalar> 
530
(
-9.30273176e-11
-9.57895672e-11
-8.77127872e-11
-8.77064635e-11
-9.30371539e-11
-9.47974159e-11
-8.77947859e-11
-8.7773416e-11
-9.30362378e-11
-9.39094042e-11
-8.78512159e-11
-8.78310564e-11
-9.31379445e-11
-9.30530153e-11
-8.78922731e-11
-8.787144e-11
-9.33290162e-11
-9.23106955e-11
-8.79193178e-11
-8.79081407e-11
-9.33687996e-11
-9.19093414e-11
-8.79478402e-11
-8.7939487e-11
-9.30985174e-11
-9.17523043e-11
-8.79690252e-11
-8.79616157e-11
-9.28340942e-11
-9.15953692e-11
-8.7988144e-11
-8.79778202e-11
-9.26091834e-11
-9.14358314e-11
-8.8001345e-11
-8.79901451e-11
-9.24189046e-11
-9.12930742e-11
-8.80094113e-11
-8.79983208e-11
-9.22545888e-11
-9.11660967e-11
-8.80135808e-11
-8.80023209e-11
-9.21036832e-11
-9.10556292e-11
-8.80358176e-11
-8.80019669e-11
-9.19555204e-11
-9.09670333e-11
-8.80281923e-11
-8.79974209e-11
-9.17734912e-11
-9.09001209e-11
-8.79971826e-11
-8.80050228e-11
-9.16187813e-11
-9.08356535e-11
-8.79661272e-11
-8.79804185e-11
-9.15210509e-11
-9.07720536e-11
-8.79422112e-11
-8.79510622e-11
-9.14167338e-11
-9.07634411e-11
-8.79160627e-11
-8.79263422e-11
-9.13184807e-11
-9.0744687e-11
-8.78893489e-11
-8.78988749e-11
-9.12247586e-11
-9.07049402e-11
-8.78619247e-11
-8.78703385e-11
-9.1140253e-11
-9.06529609e-11
-8.78336743e-11
-8.78411621e-11
-9.10599933e-11
-9.05915454e-11
-8.78041282e-11
-8.78107506e-11
-9.0979521e-11
-9.05245457e-11
-8.77736275e-11
-8.77795335e-11
-9.0916428e-11
-9.0451821e-11
-8.77444019e-11
-8.77479315e-11
-9.08427801e-11
-9.03984922e-11
-8.77162577e-11
-8.77176085e-11
-9.07342495e-11
-9.0322071e-11
-8.76889376e-11
-8.76886273e-11
-9.06274964e-11
-9.02327163e-11
-8.76617289e-11
-8.76610806e-11
-9.05255394e-11
-9.01388296e-11
-8.76348506e-11
-8.76340887e-11
-9.04259775e-11
-9.0050963e-11
-8.76072431e-11
-8.76064992e-11
-9.03336893e-11
-8.99708538e-11
-8.75791246e-11
-8.75780835e-11
-9.02468593e-11
-8.98970635e-11
-8.75507242e-11
-8.75502449e-11
-9.01592931e-11
-8.98201487e-11
-8.75238376e-11
-8.75228982e-11
-9.00736909e-11
-8.97532194e-11
-8.74961044e-11
-8.74959032e-11
-8.99955196e-11
-8.96794208e-11
-8.74697626e-11
-8.7469519e-11
-8.99237509e-11
-8.96167026e-11
-8.74431419e-11
-8.74436845e-11
-8.98628993e-11
-8.95518841e-11
-8.74179786e-11
-8.74195134e-11
-8.98035916e-11
-8.94826576e-11
-8.73939608e-11
-8.73965783e-11
-8.97502771e-11
-8.94139966e-11
-8.73707463e-11
-8.73746091e-11
-8.96994766e-11
-8.93463036e-11
-8.73487032e-11
-8.73537119e-11
-8.96490177e-11
-8.92821034e-11
-8.73282517e-11
-8.73341323e-11
-8.95961458e-11
-8.92226272e-11
-8.73101329e-11
-8.73156499e-11
-8.9558789e-11
-8.91706604e-11
-8.72959367e-11
-8.72996874e-11
-8.94879411e-11
-8.91206573e-11
-8.72846932e-11
-8.72869593e-11
-8.94049584e-11
-8.90565733e-11
-8.72760652e-11
-8.72773152e-11
-8.93226857e-11
-8.8990568e-11
-8.72690701e-11
-8.72702346e-11
-8.92623595e-11
-8.89109148e-11
-8.72618026e-11
-8.72638432e-11
-8.92346668e-11
-8.88361145e-11
-8.72550657e-11
-8.72585586e-11
-8.9192799e-11
-8.87876526e-11
-8.72495153e-11
-8.72539685e-11
-8.91272096e-11
-8.87569657e-11
-8.72461258e-11
-8.72501416e-11
-8.90605469e-11
-8.87372861e-11
-8.72417787e-11
-8.72468572e-11
-8.90038541e-11
-8.87036964e-11
-8.7238047e-11
-8.72425677e-11
-8.89690574e-11
-8.86909381e-11
-8.72348213e-11
-8.7238671e-11
-8.89478992e-11
-8.86715949e-11
-8.72333265e-11
-8.72353579e-11
-8.89230176e-11
-8.86505369e-11
-8.72341293e-11
-8.72325256e-11
-8.88959247e-11
-8.86481262e-11
-8.72347451e-11
-8.72316092e-11
-8.88685965e-11
-8.86359895e-11
-8.72366585e-11
-8.72325732e-11
-8.88553674e-11
-8.86306633e-11
-8.72394731e-11
-8.7235221e-11
-8.88291861e-11
-8.8626718e-11
-8.72432999e-11
-8.72395283e-11
-8.8815046e-11
-8.86051118e-11
-8.7250437e-11
-8.72469413e-11
-8.8789563e-11
-8.85650372e-11
-8.7261818e-11
-8.72573522e-11
-8.87623533e-11
-8.85064924e-11
-8.72746177e-11
-8.72706763e-11
-8.87460995e-11
-8.84382191e-11
-8.72872169e-11
-8.72859255e-11
-8.87447356e-11
-8.83966032e-11
-8.7297261e-11
-8.73003017e-11
-8.87350415e-11
-8.83710074e-11
-8.73093153e-11
-8.73141902e-11
-8.86872907e-11
-8.83657257e-11
-8.73236738e-11
-8.73291635e-11
-8.86275432e-11
-8.83424707e-11
-8.73398554e-11
-8.73461229e-11
-8.85895519e-11
-8.82948266e-11
-8.73562154e-11
-8.73656402e-11
-8.85642004e-11
-8.82393056e-11
-8.73731574e-11
-8.73864149e-11
-8.85426519e-11
-8.81872636e-11
-8.73907477e-11
-8.74069564e-11
-8.85285051e-11
-8.81580152e-11
-8.74082561e-11
-8.74261275e-11
-8.85298666e-11
-8.81504838e-11
-8.74246578e-11
-8.7444968e-11
-8.854457e-11
-8.81459772e-11
-8.74401931e-11
-8.74636541e-11
-8.85646654e-11
-8.81472356e-11
-8.74558562e-11
-8.74818978e-11
-8.85773341e-11
-8.81559201e-11
-8.74725307e-11
-8.74998374e-11
-8.85766296e-11
-8.81699764e-11
-8.74906359e-11
-8.75175237e-11
-8.85639596e-11
-8.81880284e-11
-8.75100267e-11
-8.75349867e-11
-8.85424583e-11
-8.82071385e-11
-8.75305573e-11
-8.75527203e-11
-8.85137468e-11
-8.82260641e-11
-8.75517328e-11
-8.75711231e-11
-8.84845742e-11
-8.82428978e-11
-8.75736205e-11
-8.75894503e-11
-8.84632199e-11
-8.82597833e-11
-8.7594497e-11
-8.76081875e-11
-8.84634599e-11
-8.8273773e-11
-8.76149674e-11
-8.76275312e-11
-8.84635293e-11
-8.82842542e-11
-8.76356617e-11
-8.76469618e-11
-8.84608262e-11
-8.82887961e-11
-8.76568225e-11
-8.76662654e-11
-8.84544163e-11
-8.82904992e-11
-8.7678496e-11
-8.76857937e-11
-8.8444447e-11
-8.82900382e-11
-8.77006171e-11
-8.77054354e-11
-8.84318874e-11
-8.82887115e-11
-8.77229484e-11
-8.77251358e-11
-8.84190906e-11
-8.8287125e-11
-8.77452803e-11
-8.77448641e-11
-8.84040948e-11
-8.8285135e-11
-8.77652067e-11
-8.77645568e-11
-8.83862639e-11
-8.8281181e-11
-8.77850423e-11
-8.77840994e-11
-8.83693106e-11
-8.82766861e-11
-8.7804451e-11
-8.78033812e-11
-8.83556411e-11
-8.82704097e-11
-8.78233214e-11
-8.78225166e-11
-8.83464608e-11
-8.82611271e-11
-8.78416702e-11
-8.78413136e-11
-8.83413878e-11
-8.8251717e-11
-8.78595892e-11
-8.78598161e-11
-8.83361495e-11
-8.82445136e-11
-8.78773609e-11
-8.78780767e-11
-8.83278078e-11
-8.82394544e-11
-8.78950057e-11
-8.78958537e-11
-8.83186167e-11
-8.82354295e-11
-8.79124161e-11
-8.79132354e-11
-8.83092208e-11
-8.82322526e-11
-8.79294319e-11
-8.79302041e-11
-8.83003497e-11
-8.82293176e-11
-8.79460285e-11
-8.79467135e-11
-8.82924929e-11
-8.82269371e-11
-8.796216e-11
-8.79627804e-11
-8.82853486e-11
-8.82250823e-11
-8.79778025e-11
-8.79783556e-11
-8.82790766e-11
-8.82235333e-11
-8.79928869e-11
-8.79933795e-11
-8.82736392e-11
-8.82223611e-11
-8.80074646e-11
-8.80079207e-11
-8.82688869e-11
-8.82215408e-11
-8.80215506e-11
-8.8021968e-11
-8.82646905e-11
-8.82211448e-11
-8.80351419e-11
-8.80355265e-11
-8.82609371e-11
-8.8221035e-11
-8.80482329e-11
-8.80485896e-11
-8.82578414e-11
-8.82209905e-11
-8.80608184e-11
-8.80611661e-11
-8.82554773e-11
-8.82210518e-11
-8.80728929e-11
-8.8073258e-11
-8.82536602e-11
-8.82213897e-11
-8.80844716e-11
-8.80848599e-11
-8.82521199e-11
-8.82221325e-11
-8.80955733e-11
-8.80959764e-11
-8.82506807e-11
-8.8223191e-11
-8.8106212e-11
-8.81066149e-11
-8.82493696e-11
-8.8224492e-11
-8.81164101e-11
-8.81167941e-11
-8.82480278e-11
-8.82260889e-11
-8.81262181e-11
-8.81265947e-11
-8.824622e-11
-8.82277755e-11
-8.81359325e-11
-8.81363566e-11
-8.82409178e-11
-8.82258249e-11
-8.81467108e-11
-8.81471487e-11
-8.82307517e-11
-8.82166956e-11
-8.81824886e-11
-8.817715e-11
-8.82048002e-11
-8.81987544e-11
-8.82020016e-11
-8.81979366e-11
-8.8206135e-11
-8.82034115e-11
-8.82097606e-11
-8.82082013e-11
-8.82139657e-11
-8.82133327e-11
-8.82187528e-11
-8.8218947e-11
-8.82236905e-11
-8.82247229e-11
-8.82290784e-11
-8.82305704e-11
-8.82348489e-11
-8.82363309e-11
-8.82409381e-11
-8.82423658e-11
-8.82469194e-11
-8.82482609e-11
-8.82525755e-11
-8.8253824e-11
-8.82577026e-11
-8.82588543e-11
-8.82621196e-11
-8.82631555e-11
-8.8265689e-11
-8.82665728e-11
-8.82683465e-11
-8.82690341e-11
-8.82701204e-11
-8.82705788e-11
-8.82711307e-11
-8.82713553e-11
-8.8271562e-11
-8.82715706e-11
-8.82717395e-11
-8.82718401e-11
-8.8271894e-11
-8.82719214e-11
-8.82719328e-11
-8.8271937e-11
-8.82719379e-11
-8.82719379e-11
-8.82719375e-11
-8.82719373e-11
-8.82719372e-11
-8.82719371e-11
-8.82719371e-11
-8.82719371e-11
-8.82719371e-11
-8.82719371e-11
-8.82719371e-11
-8.82719371e-11
-8.82719371e-11
-8.82719371e-11
-8.82719371e-11
-8.82719371e-11
-8.82719371e-11
-8.82719371e-11
-8.82719371e-11
-8.82719371e-11
-8.82719371e-11
-8.82719371e-11
-8.82719371e-11
-8.82719371e-11
-8.82719371e-11
-8.82719371e-11
-8.82719371e-11
-8.82719371e-11
-8.82719371e-11
-8.82719371e-11
)
;

boundaryField
{
    closed
    {
        type            calculated;
        value           nonuniform List<scalar> 0();
    }
    open
    {
        type            calculated;
        value           uniform -8.82719371e-11;
    }
    sides
    {
        type            empty;
    }
    procBoundary5to4
    {
        type            processor;
        value           uniform -8.76296876e-11;
    }
}


// ************************************************************************* //
