/*--------------------------------*- C++ -*----------------------------------*\
| =========                 |                                                 |
| \\      /  F ield         | OpenFOAM: The Open Source CFD Toolbox           |
|  \\    /   O peration     | Version:  2306                                  |
|   \\  /    A nd           | Website:  www.openfoam.com                      |
|    \\/     M anipulation  |                                                 |
\*---------------------------------------------------------------------------*/
FoamFile
{
    version     2.0;
    format      ascii;
    arch        "LSB;label=32;scalar=64";
    class       volScalarField;
    location    "0.00166";
    object      sourcePV;
}
// * * * * * * * * * * * * * * * * * * * * * * * * * * * * * * * * * * * * * //

dimensions      [1 -3 -1 0 0 0 0];

internalField   nonuniform List<scalar> 
530
(
0.237882012
0.401515576
2.04879081e-08
2.05964089e-08
0.22734677
0.323628491
2.09157465e-08
2.09984053e-08
0.217509157
0.260672257
2.12920001e-08
2.13729234e-08
0.215067256
0.206835255
2.16382277e-08
2.1705657e-08
0.218977681
0.16637686
2.19620299e-08
2.20381177e-08
0.215425472
0.143931867
2.23511805e-08
2.2412236e-08
0.195830075
0.133846033
2.27713767e-08
2.28045875e-08
0.180333526
0.125577869
2.31917981e-08
2.32053012e-08
0.167321544
0.117390199
2.3607742e-08
2.36159229e-08
0.156435399
0.11022751
2.40243036e-08
2.4032822e-08
0.147166245
0.104010428
2.75965506e-05
2.44541859e-08
0.138880699
0.0987106471
0.000755337323
2.48771882e-08
0.131309069
0.0944941115
0.000797772787
1.62171674e-05
0.123569898
0.0913111555
0.000302549436
0.000533262335
0.117218047
0.0883627094
2.63405934e-08
0.000255512817
0.113568222
0.0856678814
2.68317654e-08
2.6876476e-08
0.109781656
0.0855722339
2.73215337e-08
2.73618408e-08
0.106340911
0.0851714095
2.78123482e-08
2.78468491e-08
0.10317242
0.0840462341
2.83057284e-08
2.83362283e-08
0.100431917
0.0825402561
2.87993514e-08
2.88293644e-08
0.0979160552
0.0809482017
2.93795957e-08
2.94241773e-08
0.0954512893
0.079269736
2.9979326e-08
3.00233513e-08
0.0937054122
0.0774449631
3.06004117e-08
3.06314109e-08
0.0915706712
0.0763157282
3.1230263e-08
3.12532564e-08
0.0880431298
0.0743638584
3.18656538e-08
3.18841765e-08
0.0846410795
0.0719840876
3.25004019e-08
3.2520645e-08
0.0816521535
0.0694924697
3.31373409e-08
3.31593804e-08
0.0789696844
0.0672143931
3.37732951e-08
3.37966504e-08
0.076532941
0.0651971143
3.45022727e-08
3.45300712e-08
0.0742778492
0.0633847058
3.52745796e-08
3.53038611e-08
0.0720014111
0.0614738573
3.6052281e-08
3.60787981e-08
0.0697800472
0.0598698121
3.68211293e-08
3.68521007e-08
0.0677914761
0.0580336839
3.75923356e-08
3.76224799e-08
0.0660029817
0.0565497638
3.83583001e-08
3.8390509e-08
0.064531654
0.0549811271
3.91247582e-08
3.91572263e-08
0.06308247
0.0532531397
3.98888409e-08
3.99225904e-08
0.0617873608
0.0515156246
4.0740659e-08
4.07934012e-08
0.060537556
0.0497808066
4.16740923e-08
4.17346598e-08
0.0592657092
0.0481241764
4.260616e-08
4.26726232e-08
0.0578837164
0.0465811853
4.35463618e-08
4.36059818e-08
0.0569653504
0.0452380332
4.45105132e-08
4.45536723e-08
0.0548763059
0.043886551
4.54740849e-08
4.55139371e-08
0.0523839557
0.0422098675
4.64360166e-08
4.6475163e-08
0.0498974993
0.0405710088
4.7391521e-08
4.74332475e-08
0.0480400654
0.038562507
4.85238373e-08
4.85930697e-08
0.0471227093
0.0366588585
4.97099923e-08
4.97917977e-08
0.0457378924
0.0353898034
5.08874078e-08
5.0966176e-08
0.0436652126
0.034531618
5.20565073e-08
5.21206354e-08
0.0418316111
0.0339139533
5.31557141e-08
5.3228727e-08
0.0403157257
0.0329192839
5.42171074e-08
5.42779875e-08
0.0393622714
0.0325208992
5.52367545e-08
5.53011009e-08
0.0387090815
0.0319083135
5.62293336e-08
5.62922439e-08
0.0379157409
0.03120691
5.74241541e-08
5.74871305e-08
0.0370351622
0.0309379884
5.86496787e-08
5.86982125e-08
0.0361167475
0.0303970671
5.98338451e-08
5.98778403e-08
0.0355162412
0.0300006063
6.0976985e-08
6.10167317e-08
0.0345606025
0.0296116932
6.20745334e-08
6.21216327e-08
0.033883745
0.0287614887
6.31549286e-08
6.3198187e-08
0.0329126808
0.0274427108
6.42201506e-08
6.42595978e-08
0.0318626618
0.0256279721
6.52441911e-08
6.52939446e-08
0.0310556998
0.0235660155
6.62253888e-08
6.6296635e-08
0.0305882343
0.0221512635
6.72268055e-08
6.73630254e-08
0.0298980725
0.0211068852
6.84895514e-08
6.86242865e-08
0.0282727235
0.0205409104
6.97301103e-08
6.98396411e-08
0.0263564826
0.019531206
7.09264507e-08
7.1032314e-08
0.0249633165
0.0179336213
7.20591596e-08
7.21980641e-08
0.0238662101
0.0161479872
7.31473129e-08
7.33168642e-08
0.0228560313
0.01443905
7.41943525e-08
7.43826947e-08
0.0220177165
0.0133526509
7.51897642e-08
7.5390256e-08
0.0215378331
0.0128406549
7.61241207e-08
7.63498347e-08
0.0213556636
0.0123773763
7.70044802e-08
7.72602308e-08
0.0212765659
0.0120221092
7.78422133e-08
7.81187965e-08
0.0210126527
0.0118073712
7.86455175e-08
7.89301381e-08
0.020431826
0.0116855994
7.94189497e-08
7.97724862e-08
0.0195727189
0.0116336175
8.05634932e-08
8.11624084e-08
0.0185132911
0.0115982063
8.19545306e-08
8.24801929e-08
0.0172925217
0.0115587264
8.3274101e-08
8.37388364e-08
0.0160700192
0.011479538
8.45330476e-08
8.4921211e-08
0.0150800996
0.0114010007
8.56959378e-08
8.60422526e-08
0.0147000764
0.0112704603
8.67817198e-08
8.71083236e-08
0.0143190732
0.0110770901
8.780615e-08
8.81111918e-08
0.0138935036
0.0107788676
8.87753734e-08
8.90498187e-08
0.0134078474
0.0104314645
8.96913658e-08
8.99334921e-08
0.0128651246
0.0100502735
9.05557514e-08
9.07622302e-08
0.0122827161
0.00965882047
9.13693183e-08
9.15356587e-08
0.0117003984
0.00926812417
9.21406796e-08
9.2255304e-08
0.0110789616
0.00887658662
9.28114068e-08
9.29249153e-08
0.0104094621
0.00845692992
9.34442924e-08
9.35464472e-08
0.00976047077
0.00803492361
9.40289419e-08
9.41209944e-08
0.009177448
0.007588034
9.45653271e-08
9.4655151e-08
0.00868240335
0.00709411048
9.50531062e-08
9.51496381e-08
0.00826805587
0.00660587169
9.5496973e-08
9.56019407e-08
0.00785851918
0.00616522131
9.59079861e-08
9.60125168e-08
0.00740148727
0.00577123091
9.62861192e-08
9.63856727e-08
0.00693705217
0.00540427175
9.66297916e-08
9.67233015e-08
0.00647608289
0.00506003197
9.69415691e-08
9.7027443e-08
0.0060339851
0.00472808734
9.7221903e-08
9.7301347e-08
0.00561930449
0.00441492338
9.74730439e-08
9.75456962e-08
0.00522660055
0.00411988678
9.7696975e-08
9.77741323e-08
0.00485855979
0.00383919859
9.79928707e-08
9.80733386e-08
0.00451445512
0.00357390098
9.82707298e-08
9.83452615e-08
0.00419161516
0.00332357653
9.85223943e-08
9.85912566e-08
0.00388763892
0.00308941521
9.87498301e-08
9.88126486e-08
0.00360040148
0.00286897976
9.89538902e-08
9.90117247e-08
0.00333349352
0.00265827066
9.91354001e-08
9.9189753e-08
0.00308813209
0.00245774448
9.92961234e-08
9.93474996e-08
0.00286096953
0.00227027425
9.94379797e-08
9.94860794e-08
0.0026471048
0.00209798864
9.95626516e-08
9.96067528e-08
0.00244322606
0.00193910622
9.96712467e-08
9.97111162e-08
0.00224971206
0.00179217286
9.97648586e-08
9.98003762e-08
0.00206390933
0.00165809514
9.98447134e-08
9.98749145e-08
0.00187929189
0.00153421381
9.99179429e-08
9.99410906e-08
0.00164623858
0.00135866921
1.00001792e-07
1.00014254e-07
0.0013602698
0.00108515067
0.000426805539
0.00030888099
0.000748211833
0.00060716238
0.000607074463
0.0004939033
0.000582219505
0.000485789496
0.00053837422
0.0004560015
0.000495582732
0.000423491122
0.000449709048
0.000391116741
0.0004028871
0.000355045967
0.000356844435
0.000315745542
0.000312201048
0.000273875012
0.000269912482
0.000229514577
0.000228135744
0.000187072208
0.000187401437
0.000147948274
0.00014859893
0.000113091134
0.000112819902
8.30654386e-05
8.11318072e-05
5.80731324e-05
5.44061343e-05
3.79299054e-05
3.31140974e-05
2.21290467e-05
1.7129737e-05
9.90234077e-06
5.65158349e-06
9.94738497e-08
9.94654445e-08
9.94594539e-08
9.94558603e-08
9.94536637e-08
9.9452507e-08
9.94519126e-08
9.94516431e-08
9.94515136e-08
9.94514694e-08
9.9451455e-08
9.94514512e-08
9.94514503e-08
9.94514502e-08
9.94514503e-08
9.94514503e-08
9.94514503e-08
9.94514503e-08
9.94514503e-08
9.94514503e-08
9.94514503e-08
9.94514503e-08
9.94514503e-08
9.94514503e-08
9.94514503e-08
9.94514503e-08
9.94514503e-08
9.94514503e-08
9.94514503e-08
9.94514503e-08
9.94514503e-08
9.94514503e-08
9.94514503e-08
9.94514503e-08
9.94514503e-08
9.94514503e-08
9.94514503e-08
)
;

boundaryField
{
    closed
    {
        type            calculated;
        value           nonuniform List<scalar> 0();
    }
    open
    {
        type            calculated;
        value           uniform 0;
    }
    sides
    {
        type            empty;
    }
    procBoundary5to4
    {
        type            processor;
        value           uniform 0;
    }
}


// ************************************************************************* //
