/*--------------------------------*- C++ -*----------------------------------*\
| =========                 |                                                 |
| \\      /  F ield         | OpenFOAM: The Open Source CFD Toolbox           |
|  \\    /   O peration     | Version:  2306                                  |
|   \\  /    A nd           | Website:  www.openfoam.com                      |
|    \\/     M anipulation  |                                                 |
\*---------------------------------------------------------------------------*/
FoamFile
{
    version     2.0;
    format      ascii;
    arch        "LSB;label=32;scalar=64";
    class       volScalarField;
    location    "0.00116";
    object      PV;
}
// * * * * * * * * * * * * * * * * * * * * * * * * * * * * * * * * * * * * * //

dimensions      [0 0 0 0 0 0 0];

internalField   nonuniform List<scalar> 
530
(
-0.00695350055
-0.00695153757
-0.00709413856
-0.00717676313
-0.00716955447
-0.00719832593
-0.00719178809
-0.00695717175
-0.00694762315
-0.00715556328
-0.00716945067
-0.00695550673
-0.00694779092
-0.0071513904
-0.00716677665
-0.00695359195
-0.00695044787
-0.00709809339
-0.00719448578
-0.00719075397
-0.00695192229
-0.00694721806
-0.00694926051
-0.00710905221
-0.00717800772
-0.0071658852
-0.00719499592
-0.00717586178
-0.0069569858
-0.00695064346
-0.00695510478
-0.00694903585
-0.00717673493
-0.00721096366
-0.00695649148
-0.00695415163
-0.0071205919
-0.00721011848
-0.00720097845
-0.00695629337
-0.00694996658
-0.00695306245
-0.00708386635
-0.00719456911
-0.00719085428
-0.00695593547
-0.00694930959
-0.00711434769
-0.00717962327
-0.0071673322
-0.00719452892
-0.00717055449
-0.00695694823
-0.006948704
-0.00695417793
-0.00694749682
-0.00716609415
-0.00720144347
-0.00695725503
-0.00695243252
-0.00711610193
-0.00719802683
-0.00719364616
-0.00695920067
-0.00695197153
-0.00708335806
-0.00718802755
-0.00718382457
-0.00695946059
-0.00695084753
-0.00707193516
-0.0071830759
-0.00718020224
-0.00695910527
-0.00695011167
-0.00706222607
-0.00716571117
-0.0071668549
-0.00719988344
-0.00719176673
-0.0069619649
-0.00694735026
-0.00715839065
-0.00716674941
-0.00696226491
-0.00694964292
-0.0069576379
-0.00705902761
-0.00719978346
-0.00719361167
-0.00696264468
-0.00695231047
-0.00711138695
-0.00721286884
-0.00720875392
-0.00696176912
-0.00695130604
-0.0069560511
-0.00694932564
-0.00707481639
-0.00716960707
-0.00720117651
-0.00719325026
-0.00696269523
-0.00694799404
-0.00715883892
-0.00717765486
-0.00696206185
-0.00694824728
-0.00715509748
-0.00717573249
-0.00695974598
-0.0069518025
-0.00711426418
-0.00720646534
-0.00720270095
-0.0069602385
-0.00694992049
-0.00695357812
-0.0071007826
-0.00719888237
-0.00719352339
-0.00696176861
-0.00695195395
-0.00710931006
-0.00720464293
-0.00719830172
-0.00696350379
-0.00694955652
-0.00714825202
-0.0071767114
-0.00695944295
-0.00695218242
-0.00711627168
-0.00720950233
-0.00720116441
-0.00696585099
-0.00694851577
-0.00715646995
-0.00717897199
-0.0069649496
-0.00694731802
-0.00716000737
-0.00717685044
-0.00696580125
-0.00694780593
-0.00715968547
-0.00717599457
-0.00696580382
-0.00694807915
-0.00715798201
-0.00717446147
-0.00696498855
-0.0069489005
-0.0071529716
-0.00717431
-0.00696180142
-0.00695251279
-0.00710932472
-0.00720426907
-0.00719820002
-0.00696580497
-0.00695073749
-0.00695570427
-0.00707487512
-0.00717582528
-0.00717338521
-0.00720803451
-0.0071998453
-0.00697051379
-0.00694896464
-0.00715638551
-0.00717827992
-0.00696809822
-0.00694820262
-0.00715783351
-0.00717570207
-0.00696594335
-0.00694900027
-0.00715573931
-0.0071763306
-0.00696247924
-0.00695385404
-0.00710897658
-0.00719907474
-0.00719351854
-0.00696703898
-0.00695245286
-0.00695950745
-0.00694849623
-0.00695081604
-0.0071371261
-0.00719603348
-0.00721735267
-0.00721815783
-0.00696497274
-0.00695532419
-0.00711851382
-0.00721933339
-0.0072094587
-0.0069695074
-0.00694875205
-0.00714981513
-0.0071774385
-0.00697970887
-0.00694798303
-0.00715358152
-0.00717045683
-0.00696755509
-0.00695034202
-0.00695080256
-0.00713282618
-0.00716207249
-0.00695989328
-0.00694741472
-0.00708288889
-0.00714470508
-0.00711701704
-0.00715906142
-0.00715169143
-0.00695966308
-0.00694477185
-0.0070913092
-0.00715495723
-0.00719130983
-0.00718548452
-0.00695913984
-0.00695138306
-0.00709379658
-0.00719778218
-0.00718978696
-0.00696670903
-0.00694834651
-0.00713915788
-0.00716708355
-0.00696370669
-0.00695148433
-0.0070939048
-0.00719264476
-0.00718766859
-0.00697075789
-0.00695414002
-0.00709315058
-0.00721082389
-0.00720704633
-0.00696875273
-0.0069513328
-0.00695216568
-0.00714283072
-0.00719570425
-0.00700719542
-0.00695301704
-0.00713485212
-0.00718742049
-0.00702189147
-0.00695605885
-0.00695030664
-0.00695304362
-0.00709773484
-0.00719371396
-0.00718508028
-0.00721433116
-0.00721018961
-0.00698252252
-0.00695343212
-0.00695700144
-0.00704305961
-0.00719359214
-0.00719109327
-0.00697752499
-0.0069529961
-0.00709956087
-0.00720775407
-0.00720129046
-0.00696611899
-0.00695094205
-0.00695762919
-0.00705619459
-0.00719999881
-0.00719327477
-0.00697685036
-0.00694900207
-0.00714766128
-0.00717762877
-0.00696503594
-0.00695150223
-0.00710496966
-0.00720063895
-0.00719307837
-0.00696867171
-0.00694931375
-0.00714502886
-0.00717590096
-0.00696368572
-0.0069506985
-0.00710174987
-0.0072001749
-0.00719554687
-0.0069642912
-0.0069497999
-0.00695219617
-0.00709985781
-0.00716961764
-0.00719752158
-0.00719065284
-0.00696712613
-0.00694855413
-0.00715372099
-0.00717712993
-0.00697162518
-0.00694925825
-0.00714682154
-0.00717559911
-0.00696610666
-0.00695226101
-0.0070990024
-0.00719869474
-0.00719490848
-0.00696596196
-0.0069520472
-0.00695261407
-0.00712896416
-0.00716829186
-0.00696449633
-0.00694817925
-0.00711749922
-0.00716829073
-0.00719975337
-0.00719278
-0.00697093122
-0.00694757886
-0.00715571204
-0.00717909957
-0.00696959104
-0.00694667713
-0.00714783712
-0.00716632434
-0.00696370212
-0.00694762732
-0.00708022948
-0.00715111071
-0.00714071207
-0.00716973714
-0.00716314398
-0.00696316432
-0.00694888315
-0.00708977901
-0.00718788354
-0.00718169246
-0.00696605079
-0.00694976507
-0.00709890146
-0.00720022924
-0.00719814585
-0.00696395998
-0.00695054708
-0.0069502259
-0.00713645165
-0.00717389297
-0.00696573366
-0.00694897063
-0.00714505837
-0.00717499416
-0.00696513699
-0.00695186193
-0.00710799184
-0.00719906369
-0.00719086385
-0.00697010641
-0.00694844203
-0.00714478181
-0.00717434018
-0.00696458896
-0.0069504237
-0.00710441948
-0.00719156782
-0.00718522083
-0.00696611676
-0.00695028142
-0.00710306933
-0.0071906471
-0.00718653049
-0.00696400904
-0.00695108309
-0.00710001573
-0.00719619444
-0.00718854236
-0.00696775444
-0.00694747909
-0.00715059957
-0.00717396939
-0.00696553693
-0.00694745676
-0.0071476645
-0.00717344256
-0.0069640175
-0.00695033853
-0.00710692193
-0.00719014485
-0.00718435845
-0.00696495608
-0.00695007691
-0.00708982532
-0.00718593798
-0.00718195675
-0.0069636267
-0.00695003003
-0.00708427087
-0.00718442221
-0.00717880797
-0.00696468799
-0.00694967073
-0.00708945644
-0.00718557868
-0.00718022117
-0.00696365888
-0.00694906756
-0.00709445715
-0.00718662441
-0.00718272183
-0.00696187884
-0.00694937169
-0.00709525084
-0.00719006858
-0.00718449191
-0.00696367903
-0.00694734525
-0.00714297023
-0.00717242336
-0.00696017861
-0.00694962611
-0.00710395025
-0.00719153629
-0.00718546289
-0.00696312986
-0.00694743626
-0.00714528615
-0.00717436402
-0.00695969336
-0.00694969785
-0.00710892168
-0.00719316441
-0.00718765095
-0.00696196863
-0.00694764388
-0.00714633323
-0.00717546428
-0.00695906196
-0.00694992943
-0.00711171144
-0.00719414298
-0.00718744327
-0.00696265356
-0.00694785439
-0.00714753665
-0.00717678929
-0.00695844648
-0.00695008783
-0.00711529469
-0.00719586136
-0.0071905178
-0.00696052523
-0.00694829718
-0.00714924732
-0.00717913655
-0.00695761133
-0.00695099685
-0.00711906185
-0.007199789
-0.00719241437
-0.00696189183
-0.00694736639
-0.00715722471
-0.00717624719
-0.00696085623
-0.00694775777
-0.00715881243
-0.00717393728
-0.00696011459
-0.00694902296
-0.00715385111
-0.00717768529
-0.0069580138
-0.00695190452
-0.00712223165
-0.00720097408
-0.00719370697
-0.00696153344
-0.0069484049
-0.00715833057
-0.00717888948
-0.00695951806
-0.00694919137
-0.00715761013
-0.00718403724
-0.00695715287
-0.00695184851
-0.00713424647
-0.0072128364
-0.00720462185
-0.00696147657
-0.00694785679
-0.00716557166
-0.00718470692
-0.00696004897
-0.00694816896
-0.007163941
-0.00717760068
-0.00695889009
-0.00694957945
-0.00715547274
-0.00717778043
-0.00695658896
-0.00695315498
-0.00711697197
-0.00720178459
-0.00719359503
-0.00696162953
-0.0069486549
-0.00717722405
-0.00717716541
-0.00695998873
-0.00694857678
-0.00695458893
-0.00708233681
-0.00720135544
-0.0071953321
-0.00695786002
-0.00695019419
-0.00711949914
)
;

boundaryField
{
    closed
    {
        type            zeroGradient;
    }
    open
    {
        type            zeroGradient;
    }
    sides
    {
        type            empty;
    }
    procBoundary2to1
    {
        type            processor;
        value           uniform -0.00719361757;
    }
    procBoundary2to3
    {
        type            processor;
        value           uniform -0.00719590531;
    }
}


// ************************************************************************* //
