/*--------------------------------*- C++ -*----------------------------------*\
| =========                 |                                                 |
| \\      /  F ield         | OpenFOAM: The Open Source CFD Toolbox           |
|  \\    /   O peration     | Version:  2306                                  |
|   \\  /    A nd           | Website:  www.openfoam.com                      |
|    \\/     M anipulation  |                                                 |
\*---------------------------------------------------------------------------*/
FoamFile
{
    version     2.0;
    format      ascii;
    arch        "LSB;label=32;scalar=64";
    class       volScalarField;
    location    "0.00116";
    object      Z;
}
// * * * * * * * * * * * * * * * * * * * * * * * * * * * * * * * * * * * * * //

dimensions      [0 0 0 0 0 0 0];

internalField   nonuniform List<scalar> 
530
(
0.0141117243
0.0140828452
0.0145197372
0.0147797777
0.0147625397
0.0148498259
0.0148385794
0.0141162932
0.014075283
0.0147062363
0.0147604582
0.0141117705
0.0140706143
0.0146934194
0.0147480282
0.0141063754
0.0140774185
0.0145305797
0.0148382949
0.0148314632
0.0140996885
0.0140675826
0.0140721693
0.0145687167
0.0147859255
0.0147505645
0.0148395898
0.0147794456
0.0141118922
0.0140839393
0.0140947374
0.0140862313
0.0147808314
0.014895625
0.0141274634
0.0140938216
0.0145998392
0.014886506
0.0148648929
0.014114929
0.0140759255
0.0140840512
0.0144891471
0.0148390538
0.0148341804
0.0141166383
0.0140804186
0.0145851172
0.0147936641
0.0147575186
0.0148403622
0.0147644593
0.0141148437
0.0140801303
0.0140937802
0.0140822414
0.014746729
0.0148673006
0.0141324283
0.014089873
0.0145860878
0.0148481361
0.0148410249
0.0141242564
0.0140855645
0.014485144
0.014816851
0.0148092585
0.0141273453
0.0140819027
0.014450749
0.0148017281
0.0147972317
0.0141267321
0.0140785469
0.0144235424
0.0147465994
0.014755185
0.014855805
0.0148399922
0.0141382644
0.0140759162
0.014713276
0.0147511463
0.0141421861
0.014072995
0.0140978312
0.0144117879
0.0148506868
0.0148392172
0.0141403131
0.0140883866
0.0145691332
0.0148959438
0.0148892012
0.0141347346
0.0140839222
0.0140958675
0.0140771208
0.01445414
0.0147618179
0.0148562114
0.014841868
0.0141412804
0.0140781327
0.0147140481
0.014788306
0.0141403889
0.0140760165
0.0147029213
0.0147786178
0.0141339997
0.0140850382
0.0145794309
0.0148751593
0.0148704354
0.0141311614
0.0140763182
0.0140836349
0.0145406581
0.0148502881
0.01484176
0.0141382265
0.0140880068
0.0145655918
0.0148693726
0.0148590482
0.0141411993
0.0140820421
0.0146822594
0.0147830835
0.0141348699
0.0140869254
0.0145881203
0.0148827241
0.0148689059
0.0141470262
0.014080708
0.0147040408
0.0147934426
0.0141483543
0.0140750718
0.0147145153
0.014785009
0.0141498383
0.0140748508
0.0147123396
0.0147809692
0.0141496663
0.0140747211
0.0147068388
0.0147749799
0.0141477372
0.0140758149
0.0146923973
0.0147719964
0.0141404356
0.0140853947
0.0145622758
0.0148650781
0.0148546719
0.0141484675
0.0140783498
0.0140886592
0.014461621
0.0147758607
0.0147754128
0.0148794242
0.0148647996
0.014165815
0.0140821634
0.0147029135
0.0147899538
0.0141584262
0.014076784
0.0147061471
0.0147795856
0.0141522084
0.0140767235
0.0147002603
0.0147777614
0.0141438057
0.014086441
0.014558467
0.0148419892
0.0148326259
0.0141461133
0.014081934
0.0141083591
0.0140723961
0.0140782641
0.014656307
0.0148465253
0.0149171158
0.0149205001
0.0141614268
0.0141003275
0.014596311
0.0149143688
0.0148971146
0.0141632531
0.0140826861
0.0146837972
0.0147872383
0.0141934206
0.0140755416
0.0146957619
0.0147598218
0.0141631481
0.0140724954
0.0140750054
0.0146294137
0.0147321834
0.0141360766
0.0140668684
0.0144808703
0.0146737054
0.0145907709
0.0147163761
0.0147025164
0.0141306635
0.014063805
0.0145048418
0.0147151749
0.0148254176
0.0148148905
0.0141388013
0.0140852782
0.0145180136
0.0148446175
0.0148303499
0.014154618
0.0140775517
0.0146478646
0.0147513689
0.0141483132
0.014082488
0.0145128166
0.0148262637
0.0148176241
0.0141663272
0.0140925713
0.0145098184
0.014888112
0.0148819163
0.0141663939
0.0140815588
0.0140852302
0.0146695708
0.0148448787
0.0142765862
0.0140925157
0.0146454555
0.0148130448
0.0143154773
0.0140980867
0.0140834426
0.0140886367
0.0145324905
0.0148364867
0.0148152487
0.014903475
0.0148972177
0.014204347
0.0140895759
0.0140961595
0.014364592
0.0148331089
0.0148320031
0.0141906499
0.0140916392
0.0145348949
0.0148783602
0.0148669744
0.0141537725
0.0140811123
0.0140954864
0.0144058257
0.0148529772
0.0148422999
0.014184603
0.0140810535
0.0146779297
0.0147868566
0.0141544262
0.0140852343
0.0145503864
0.0148534961
0.0148404012
0.0141587784
0.0140811712
0.0146683302
0.0147815467
0.0141500149
0.0140838347
0.0145396537
0.0148548416
0.0148469683
0.0141485576
0.0140758562
0.0140822993
0.014535583
0.0147627026
0.014846406
0.0148336938
0.0141594122
0.0140799722
0.0146971142
0.0147855742
0.0141698109
0.0140783899
0.0146730082
0.0147769074
0.0141533062
0.0140842748
0.0145279556
0.01484607
0.0148406011
0.0141499303
0.0140778769
0.0140814004
0.0146183713
0.014754133
0.0141470173
0.0140746315
0.0145855855
0.0147577063
0.0148533977
0.0148414156
0.0141711342
0.0140795509
0.0147068998
0.0147959381
0.0141679808
0.0140741332
0.0146805107
0.0147511265
0.0141491202
0.0140704448
0.0144759926
0.014696971
0.0146674912
0.0147539742
0.0147413395
0.0141418459
0.0140754677
0.0145040614
0.0148140374
0.0148025328
0.0141541097
0.0140819588
0.0145306419
0.0148562389
0.0148540667
0.0141454277
0.0140756011
0.0140770075
0.0146434871
0.0147726909
0.0141494229
0.0140754839
0.014667978
0.0147748008
0.0141487438
0.0140829896
0.0145601086
0.0148474122
0.0148337514
0.0141595115
0.0140781329
0.0146690398
0.0147766879
0.0141485453
0.0140810879
0.0145502913
0.0148255767
0.0148151383
0.0141504244
0.0140828218
0.0145455405
0.0148249368
0.0148189529
0.0141456554
0.0140850688
0.0145386755
0.0148419635
0.0148292327
0.0141531891
0.0140774411
0.0146896575
0.0147785283
0.0141503196
0.0140750507
0.0146808291
0.0147742067
0.0141456895
0.0140807563
0.0145590451
0.0148218347
0.0148128288
0.0141453894
0.0140814745
0.0145053332
0.0148098437
0.0148044273
0.0141418002
0.0140806975
0.0144891731
0.0148051232
0.0147949331
0.0141452724
0.0140801458
0.0145057479
0.0148093165
0.0148002984
0.0141419078
0.0140794133
0.0145211738
0.0148137393
0.0148081892
0.0141368528
0.0140803252
0.0145247879
0.014824325
0.0148158099
0.0141393597
0.0140754628
0.0146687207
0.0147712883
0.014131438
0.014078549
0.0145520106
0.0148275749
0.0148186116
0.0141362871
0.0140756054
0.0146756242
0.01477741
0.0141292224
0.0140789013
0.0145673862
0.0148329004
0.0148256531
0.0141319335
0.0140761876
0.0146791182
0.0147807526
0.0141266375
0.0140794871
0.0145760519
0.0148360754
0.0148251751
0.0141333396
0.014076826
0.0146831312
0.0147849574
0.0141242109
0.014080089
0.0145871906
0.0148417098
0.0148348175
0.0141264988
0.0140779686
0.0146888236
0.0147917768
0.0141214344
0.0140820901
0.01459939
0.0148525864
0.0148417628
0.0141279882
0.0140758232
0.0147110135
0.0147841875
0.0141277651
0.0140729412
0.0147168932
0.0147742152
0.0141252521
0.0140747461
0.0147020025
0.0147840304
0.0141199303
0.0140825955
0.0146074682
0.0148552097
0.0148445895
0.0141265111
0.0140782482
0.0147154185
0.0147920162
0.0141248846
0.0140778251
0.0147164969
0.0148069934
0.014120216
0.0140862945
0.0146480063
0.0148960522
0.0148838604
0.0141291835
0.0140805567
0.0147401998
0.0148135146
0.0141275578
0.0140760228
0.0147351925
0.0147867429
0.0141221003
0.0140763971
0.0147079191
0.0147832969
0.0141141141
0.0140846974
0.0145904189
0.0148560042
0.0148431584
0.0141253611
0.0140772644
0.0147771775
0.014785417
0.0141327467
0.014070282
0.0140938331
0.014484884
0.0148585025
0.0148486153
0.0141167307
0.0140830543
0.014597805
)
;

boundaryField
{
    closed
    {
        type            zeroGradient;
    }
    open
    {
        type            zeroGradient;
    }
    sides
    {
        type            empty;
    }
    procBoundary2to1
    {
        type            processor;
        value           uniform 0.0148392097;
    }
    procBoundary2to3
    {
        type            processor;
        value           uniform 0.0148448502;
    }
}


// ************************************************************************* //
