/*--------------------------------*- C++ -*----------------------------------*\
| =========                 |                                                 |
| \\      /  F ield         | OpenFOAM: The Open Source CFD Toolbox           |
|  \\    /   O peration     | Version:  2306                                  |
|   \\  /    A nd           | Website:  www.openfoam.com                      |
|    \\/     M anipulation  |                                                 |
\*---------------------------------------------------------------------------*/
FoamFile
{
    version     2.0;
    format      ascii;
    arch        "LSB;label=32;scalar=64";
    class       volScalarField;
    location    "0.0008";
    object      H;
}
// * * * * * * * * * * * * * * * * * * * * * * * * * * * * * * * * * * * * * //

dimensions      [0 0 0 0 0 0 0];

internalField   nonuniform List<scalar> 
531
(
4.27215921e-08
1.12486915e-09
1.25896109e-09
3.25054755e-08
4.53576948e-08
4.33396532e-08
1.09680156e-09
1.34098743e-09
3.51691947e-08
3.94058694e-08
1.01179765e-09
1.31732615e-09
3.15964369e-08
4.36728532e-08
4.09015999e-08
1.14092475e-09
1.38075817e-09
2.54271947e-08
3.84896864e-08
4.05357864e-08
4.04209497e-08
1.05847209e-09
1.33162296e-09
3.00826839e-08
4.20724753e-08
4.07266423e-08
1.17104709e-09
1.31032399e-09
2.85793897e-08
4.40435435e-08
4.10850692e-08
1.07552477e-09
1.39283497e-09
1.35403911e-09
3.34683321e-08
4.58449143e-08
4.42944827e-08
1.09839137e-09
1.23689697e-09
3.41537928e-08
4.75660004e-08
4.46470881e-08
1.00270799e-09
1.33359851e-09
1.30557641e-09
3.51368851e-08
4.81113551e-08
4.65533018e-08
9.80084481e-10
1.25441975e-09
4.04740904e-08
4.51585442e-08
7.93250319e-10
1.2508549e-09
4.0560829e-08
4.45738447e-08
8.48282155e-10
1.19716829e-09
3.49710076e-08
4.86014507e-08
4.52835336e-08
9.69798885e-10
1.33244374e-09
1.31397867e-09
3.42256609e-08
4.53053481e-08
4.425686e-08
1.07011074e-09
1.26703619e-09
3.2042521e-08
4.31341141e-08
4.2890399e-08
1.11057615e-09
1.23344724e-09
3.32466112e-08
4.74692443e-08
4.47879374e-08
9.73451345e-10
1.29996299e-09
1.26762111e-09
3.86811623e-08
4.47057115e-08
8.80891081e-10
1.20025624e-09
3.55049231e-08
4.88018199e-08
4.58741646e-08
9.7829293e-10
1.33048925e-09
1.31491979e-09
3.48883325e-08
4.28488076e-08
4.34842996e-08
4.34085245e-08
9.38347905e-10
1.22770718e-09
3.30500963e-08
4.55829468e-08
4.47067471e-08
1.01260197e-09
1.30637062e-09
3.81118872e-08
4.22034239e-08
8.20429419e-10
1.29964829e-09
4.06078127e-08
4.19845158e-08
7.92898441e-10
1.33518865e-09
1.21524048e-09
3.48512181e-08
4.69505308e-08
4.82472396e-08
4.8244229e-08
7.73184158e-10
1.23092322e-09
1.12438181e-09
3.96196001e-08
4.68095174e-08
7.58837511e-10
1.2191879e-09
1.18665572e-09
1.24385058e-09
3.25243862e-08
4.40010894e-08
4.06715748e-08
4.53618569e-08
4.50183208e-08
8.79138759e-10
1.19948444e-09
3.33875918e-08
4.80772494e-08
4.48156708e-08
9.62077994e-10
1.26997542e-09
1.21740731e-09
4.00138193e-08
4.37370469e-08
7.73195349e-10
1.29460426e-09
1.15998754e-09
3.59748126e-08
4.81109287e-08
4.85835203e-08
4.86218634e-08
7.87155385e-10
1.25406068e-09
1.16602967e-09
3.54568453e-08
5.0900147e-08
4.82392313e-08
9.37665215e-10
1.17778901e-09
1.1902444e-09
1.18030764e-09
3.65652857e-08
4.79234996e-08
4.91402849e-08
4.92739025e-08
7.85035021e-10
1.18424181e-09
1.1985734e-09
1.23674485e-09
2.48683244e-08
4.44887522e-08
4.19599201e-08
4.80495885e-08
4.80179357e-08
9.18564367e-10
1.22604865e-09
1.25958498e-09
1.2719976e-09
2.99987607e-08
4.34527646e-08
4.01152061e-08
4.60614946e-08
4.59985407e-08
9.71640538e-10
1.23253176e-09
1.26748939e-09
1.25701817e-09
3.05746263e-08
4.48100373e-08
4.11009137e-08
4.92748541e-08
4.87289624e-08
9.85016028e-10
1.20881184e-09
1.14140577e-09
4.24725302e-08
4.76607329e-08
8.76044228e-10
1.21790169e-09
1.08657021e-09
4.21471559e-08
5.05201399e-08
9.75294746e-10
1.17161061e-09
4.18852911e-08
4.71778505e-08
1.07044602e-09
1.19969281e-09
3.5680977e-08
4.68710113e-08
4.51812005e-08
1.15050567e-09
1.28261825e-09
3.78658298e-08
4.24986434e-08
1.1749615e-09
1.29140479e-09
3.03427624e-08
4.32467928e-08
4.31365765e-08
1.21486483e-09
1.268681e-09
3.43634011e-08
4.72333831e-08
4.2826724e-08
1.1275713e-09
1.34985574e-09
1.24222607e-09
3.53155334e-08
4.4326319e-08
4.54664094e-08
4.53798735e-08
1.08576984e-09
1.31138995e-09
1.21852701e-09
3.50386491e-08
4.6600118e-08
4.46089899e-08
1.20114922e-09
1.25278567e-09
3.82299888e-08
4.34298853e-08
1.2328138e-09
1.22990955e-09
3.77063741e-08
4.95872889e-08
4.72871435e-08
1.13320481e-09
1.17631893e-09
1.22730478e-09
1.16373639e-09
3.89871609e-08
4.93043012e-08
5.07553225e-08
5.13800849e-08
1.11106679e-09
1.1352275e-09
1.22910668e-09
1.17356615e-09
3.69906326e-08
4.82008182e-08
4.64877566e-08
1.25757615e-09
1.187639e-09
3.79364604e-08
4.89520836e-08
4.65639987e-08
1.21313955e-09
1.24565068e-09
4.21143133e-08
4.44355673e-08
1.28268146e-09
1.270726e-09
4.27994467e-08
4.29721538e-08
1.31205542e-09
1.28008636e-09
4.1024813e-08
4.16176926e-08
1.38832019e-09
1.25496401e-09
3.5378941e-08
4.38765119e-08
4.19403163e-08
1.36749212e-09
1.24532632e-09
3.23489257e-08
4.48153028e-08
4.17654175e-08
1.31846568e-09
1.29371581e-09
3.88170032e-08
4.08850028e-08
1.41894661e-09
1.2552385e-09
3.54462374e-08
4.43317438e-08
4.17976396e-08
1.36700877e-09
1.24000819e-09
3.03388316e-08
4.37009591e-08
3.95082706e-08
1.28364189e-09
1.334109e-09
1.2383039e-09
2.0247406e-08
4.22707265e-08
4.22117705e-08
4.77682869e-08
4.57798459e-08
1.21295467e-09
1.14127588e-09
4.54486964e-08
4.2901389e-08
1.18588103e-09
1.28559827e-09
1.12196248e-09
4.21395338e-08
4.55102871e-08
1.3468497e-09
1.10791568e-09
3.9727522e-08
4.88758926e-08
4.43543971e-08
1.24227115e-09
1.19853667e-09
4.04549186e-08
4.13745856e-08
1.37715149e-09
1.16064748e-09
3.66436498e-08
4.65501321e-08
4.19827794e-08
1.27001293e-09
1.22224695e-09
4.00402085e-08
4.0623287e-08
1.39401658e-09
1.1691126e-09
3.63426364e-08
4.65207166e-08
4.17008464e-08
1.2770478e-09
1.22982877e-09
4.00405447e-08
4.02821254e-08
1.40161802e-09
1.17499922e-09
3.59279928e-08
4.62590908e-08
4.13605072e-08
1.28375707e-09
1.22351293e-09
3.95039018e-08
3.9467385e-08
1.40401944e-09
1.20472141e-09
3.45975924e-08
4.43410498e-08
4.00018094e-08
1.34688838e-09
1.21486903e-09
3.19990842e-08
4.44227855e-08
4.03237919e-08
1.34935569e-09
1.16643668e-09
3.50685185e-08
4.72559212e-08
4.26562234e-08
1.24577856e-09
1.16720863e-09
4.16461035e-08
4.10756755e-08
1.2715407e-09
1.16821512e-09
4.36331541e-08
3.78527034e-08
1.15696597e-09
4.00278869e-08
4.51477126e-08
1.22679399e-09
1.22588583e-09
1.11127481e-09
4.36782885e-08
4.50841796e-08
1.33511595e-09
1.08206485e-09
3.8282309e-08
4.87987751e-08
4.2773566e-08
1.20889929e-09
1.13621569e-09
4.14862813e-08
3.61692096e-08
1.15543597e-09
3.48761118e-08
4.51032358e-08
1.36289326e-09
1.11037873e-09
4.1612972e-08
4.19451326e-08
1.34636585e-09
1.07968604e-09
3.79868868e-08
5.12958095e-08
4.35991671e-08
1.08805194e-09
1.23603376e-09
9.80617906e-10
4.39652575e-08
4.179138e-08
1.12707045e-09
1.32353949e-09
9.88751551e-10
3.81665806e-08
5.14862689e-08
4.44417613e-08
1.25423684e-09
1.11602824e-09
3.53682953e-08
4.65628114e-08
4.08708109e-08
1.31190004e-09
1.1773997e-09
3.05427742e-08
4.44180337e-08
3.93532712e-08
1.33386283e-09
1.20030063e-09
3.21875071e-08
4.43907882e-08
3.96266747e-08
1.3414467e-09
1.21661795e-09
3.09843529e-08
4.43394799e-08
4.0029497e-08
1.3504217e-09
1.19513335e-09
3.33257289e-08
4.59397544e-08
4.11619473e-08
1.2772708e-09
1.24331223e-09
3.99701908e-08
4.048622e-08
1.39203578e-09
1.18538194e-09
3.48218744e-08
4.62932903e-08
4.16611227e-08
1.27127436e-09
1.23602011e-09
3.99319568e-08
4.06252594e-08
1.38815209e-09
1.18282318e-09
3.47207079e-08
4.61627535e-08
4.17048172e-08
1.27205788e-09
1.24256517e-09
3.95803375e-08
4.01828846e-08
1.38145784e-09
1.20939222e-09
3.3817171e-08
4.47615654e-08
4.08204724e-08
1.33961732e-09
1.19479448e-09
3.28844649e-08
4.5594951e-08
4.1367159e-08
1.2804334e-09
1.24616041e-09
3.87006373e-08
3.87629308e-08
1.36737096e-09
1.26648676e-09
3.43799058e-08
4.0637172e-08
4.49458597e-08
4.19228604e-08
1.17874348e-09
1.31459443e-09
1.11883566e-09
3.85770082e-08
4.40399433e-08
1.36590636e-09
1.11729514e-09
3.71919286e-08
4.87537066e-08
4.44151966e-08
1.21738254e-09
1.18104947e-09
4.08578956e-08
4.29631473e-08
1.33285884e-09
1.12998759e-09
3.67622481e-08
4.81148394e-08
4.41973483e-08
1.22700251e-09
1.17325297e-09
4.12610733e-08
4.1491423e-08
1.26672875e-09
1.2061716e-09
4.04858275e-08
4.02479255e-08
1.34126416e-09
1.19536188e-09
3.38004063e-08
4.41233139e-08
4.04346976e-08
1.3105135e-09
1.21407818e-09
3.20350954e-08
4.42898607e-08
4.09435825e-08
1.32188413e-09
1.19520787e-09
3.3447943e-08
4.56090088e-08
4.22031784e-08
1.26566742e-09
1.25092968e-09
3.86952911e-08
4.1003454e-08
1.35225251e-09
1.2196904e-09
3.40076135e-08
4.47555381e-08
4.17714235e-08
)
;

boundaryField
{
    closed
    {
        type            calculated;
        value           nonuniform List<scalar> 0();
    }
    open
    {
        type            calculated;
        value           nonuniform List<scalar> 0();
    }
    sides
    {
        type            empty;
    }
    procBoundary3to2
    {
        type            processor;
        value           uniform 4.46674596e-08;
    }
    procBoundary3to4
    {
        type            processor;
        value           uniform 1.31388348e-09;
    }
}


// ************************************************************************* //
