/*--------------------------------*- C++ -*----------------------------------*\
| =========                 |                                                 |
| \\      /  F ield         | OpenFOAM: The Open Source CFD Toolbox           |
|  \\    /   O peration     | Version:  2306                                  |
|   \\  /    A nd           | Website:  www.openfoam.com                      |
|    \\/     M anipulation  |                                                 |
\*---------------------------------------------------------------------------*/
FoamFile
{
    version     2.0;
    format      ascii;
    arch        "LSB;label=32;scalar=64";
    class       volScalarField;
    location    "0.0008";
    object      rho;
}
// * * * * * * * * * * * * * * * * * * * * * * * * * * * * * * * * * * * * * //

dimensions      [1 -3 0 0 0 0 0];

internalField   nonuniform List<scalar> 
531
(
0.951495059
0.903179742
0.903173834
0.939076736
0.95600117
0.952887275
0.903331734
0.902136344
0.938881363
0.946322089
0.903179574
0.902535151
0.938998525
0.953260374
0.948841572
0.903111374
0.902231919
0.936594163
0.944970858
0.94793544
0.94806473
0.903543925
0.902600198
0.938573701
0.950642041
0.948422455
0.902997764
0.902931429
0.938202567
0.95395203
0.949126914
0.903063827
0.902666375
0.902615805
0.939664976
0.957128924
0.954555836
0.903413799
0.903175666
0.939528161
0.960025404
0.955147295
0.903889657
0.903151167
0.903355083
0.939731705
0.960993519
0.958533499
0.904470747
0.902817435
0.947629993
0.956202628
0.904965574
0.902903327
0.947771469
0.95506054
0.904653654
0.903594702
0.93933986
0.96189362
0.956296312
0.904295056
0.903289701
0.903447826
0.939604798
0.956120943
0.954535875
0.904436549
0.903456369
0.938628843
0.952377439
0.952016099
0.904077436
0.903762699
0.939332998
0.959968048
0.955510998
0.904263039
0.903335582
0.903252198
0.945138743
0.955374088
0.904557851
0.903612982
0.940053697
0.962391301
0.957488259
0.904419337
0.903197222
0.903472105
0.940013246
0.952096568
0.953231008
0.953041616
0.904591877
0.903984472
0.939469464
0.956604576
0.955612656
0.905053908
0.902796417
0.943734778
0.951377216
0.905585771
0.90316975
0.948066675
0.950808427
0.905397596
0.903495118
0.903520354
0.939941342
0.959264661
0.961625876
0.961571839
0.90528874
0.903908213
0.903986986
0.946770064
0.959169287
0.905779415
0.903698347
0.904554497
0.903748712
0.939382392
0.954072237
0.948627512
0.956302072
0.956051906
0.90623247
0.903959062
0.938819079
0.961221236
0.955588183
0.904831302
0.903924733
0.903839289
0.947458264
0.953796167
0.905507457
0.903890189
0.903892868
0.940906595
0.961396664
0.962242958
0.962318146
0.905721897
0.904315099
0.90399044
0.939830536
0.966341636
0.961630628
0.905462831
0.904323522
0.904491593
0.904092994
0.941920071
0.961038444
0.963275685
0.963505399
0.905736594
0.904236971
0.904497811
0.904159745
0.936632519
0.955091127
0.950877054
0.96131004
0.961377676
0.905502776
0.903890575
0.904270833
0.903927793
0.938639175
0.95322473
0.947656624
0.95771621
0.957770216
0.905524355
0.904128908
0.904481611
0.904176543
0.938557034
0.955521582
0.94922964
0.963464242
0.962538807
0.904854416
0.904285472
0.904172682
0.951683134
0.960668834
0.905025703
0.904059801
0.904115802
0.951277008
0.965817197
0.904652861
0.903967159
0.950859562
0.95981959
0.904358792
0.904011747
0.940591372
0.959195258
0.956566151
0.904194875
0.903267659
0.944064037
0.951833069
0.903941188
0.903497521
0.939146778
0.953078835
0.95308288
0.903838343
0.903285039
0.939940072
0.959957342
0.952489853
0.903634672
0.903501976
0.90340803
0.939848511
0.954802615
0.956941353
0.956691305
0.903744141
0.903928667
0.903456952
0.939405301
0.958702735
0.955389273
0.904051132
0.903756166
0.944432179
0.953153025
0.903838819
0.903991548
0.943548319
0.963985059
0.960006035
0.903962775
0.903965016
0.903983957
0.903919918
0.945564192
0.963436984
0.966186024
0.967222591
0.903283944
0.904132313
0.903553105
0.903833715
0.942123477
0.961477377
0.958517682
0.903685381
0.903907769
0.943882161
0.962767707
0.958817129
0.903788357
0.903166274
0.95092312
0.955066182
0.902858937
0.903202832
0.95231674
0.952552885
0.902430578
0.903266721
0.949438869
0.950121155
0.902158683
0.903389608
0.940081744
0.953989497
0.950827641
0.902503575
0.903367689
0.939736009
0.955568752
0.95074379
0.902633844
0.902761426
0.945704301
0.948946785
0.901802665
0.903107111
0.940274189
0.954782053
0.950561922
0.902363394
0.903555092
0.938993858
0.953411035
0.946640613
0.903196378
0.903356882
0.9040057
0.933439158
0.950818473
0.950991369
0.96055089
0.957234667
0.903060836
0.903678562
0.956599701
0.952168875
0.902524403
0.903422018
0.903295392
0.950961568
0.956459484
0.902113341
0.90420765
0.946962226
0.962354956
0.954824059
0.903354496
0.903414829
0.947933074
0.949290409
0.902222197
0.903997868
0.941796027
0.958212403
0.950791534
0.903020147
0.903259101
0.947319925
0.948057435
0.901907536
0.90380363
0.941425417
0.958185562
0.950386403
0.902807987
0.903074884
0.947360473
0.947518236
0.901728419
0.903704985
0.940822761
0.957729025
0.949846925
0.902745051
0.90310522
0.94645719
0.946178784
0.901776589
0.903591412
0.939828775
0.954447031
0.947356211
0.902426756
0.903409512
0.938975599
0.954661027
0.947733684
0.90218287
0.903777953
0.939861925
0.959440088
0.951967515
0.903183466
0.903370358
0.949859346
0.948936311
0.902611708
0.903793951
0.953338718
0.943479284
0.902501194
0.94715364
0.955942393
0.902263205
0.903890206
0.903128077
0.953387268
0.955688667
0.902034835
0.904355954
0.944476862
0.962140672
0.95207009
0.903669297
0.903825519
0.94942947
0.940696838
0.902798801
0.939299956
0.955821985
0.902062781
0.904399132
0.950169032
0.950097508
0.902147347
0.904535474
0.943858528
0.966720921
0.953479171
0.903631389
0.903797328
0.90431835
0.953843179
0.950208413
0.902755646
0.903542555
0.903788988
0.943975632
0.967119638
0.954917591
0.903044547
0.903888025
0.939313298
0.958316383
0.94866836
0.902706475
0.904132506
0.938643668
0.954621319
0.946232421
0.902429414
0.90387843
0.939222491
0.954656459
0.946804537
0.902251567
0.903658252
0.939081949
0.954676037
0.947510058
0.901993093
0.903692981
0.939881614
0.957369654
0.949669498
0.902591932
0.903076131
0.947423709
0.948127784
0.901548649
0.903772736
0.94026473
0.95798555
0.95052184
0.902663536
0.903123024
0.947329782
0.948352885
0.901580247
0.903849106
0.940241621
0.957744889
0.950613707
0.902749186
0.903065521
0.946674442
0.947667135
0.901755363
0.903671517
0.939792345
0.955425402
0.94887936
0.902038731
0.903777279
0.939747504
0.956772712
0.950017166
0.902744019
0.903199446
0.945154767
0.945333683
0.902019182
0.903563858
0.93941067
0.948253862
0.955796108
0.950691393
0.902452386
0.903606481
0.903498789
0.944946537
0.954053012
0.901643775
0.904285515
0.942887749
0.962275438
0.955113083
0.903090401
0.903507279
0.948692617
0.952262112
0.901959242
0.904278455
0.942077656
0.961125769
0.954736729
0.903148639
0.903547888
0.949267211
0.949965412
0.902485411
0.90369164
0.94812943
0.947675098
0.901896878
0.904140683
0.939605298
0.954149912
0.948218927
0.902400524
0.903793998
0.939097581
0.954566785
0.949007085
0.902028177
0.903905035
0.939776202
0.956764678
0.951420868
0.902626666
0.903007047
0.94510528
0.949102224
0.901699612
0.903633034
0.939732651
0.955377815
0.950514319
)
;

boundaryField
{
    closed
    {
        type            calculated;
        value           nonuniform List<scalar> 0();
    }
    open
    {
        type            calculated;
        value           nonuniform List<scalar> 0();
    }
    sides
    {
        type            empty;
    }
    procBoundary3to2
    {
        type            processor;
        value           uniform 0.954758948;
    }
    procBoundary3to4
    {
        type            processor;
        value           uniform 0.902028449;
    }
}


// ************************************************************************* //
