/*--------------------------------*- C++ -*----------------------------------*\
| =========                 |                                                 |
| \\      /  F ield         | OpenFOAM: The Open Source CFD Toolbox           |
|  \\    /   O peration     | Version:  2306                                  |
|   \\  /    A nd           | Website:  www.openfoam.com                      |
|    \\/     M anipulation  |                                                 |
\*---------------------------------------------------------------------------*/
FoamFile
{
    version     2.0;
    format      ascii;
    arch        "LSB;label=32;scalar=64";
    class       volScalarField;
    location    "0.0011";
    object      mu;
}
// * * * * * * * * * * * * * * * * * * * * * * * * * * * * * * * * * * * * * //

dimensions      [1 -1 -1 0 0 0 0];

internalField   nonuniform List<scalar> 
530
(
5.98856135e-05
5.9922672e-05
5.99550559e-05
5.99894724e-05
6.00205644e-05
6.00537655e-05
6.00836506e-05
6.0115701e-05
6.01444577e-05
6.01754225e-05
6.02031237e-05
6.02330686e-05
6.02597829e-05
6.02887732e-05
6.03137939e-05
6.03419831e-05
6.03665417e-05
6.03937216e-05
6.04173135e-05
6.04435282e-05
6.04661999e-05
6.04914902e-05
6.05132881e-05
6.05376921e-05
6.05586621e-05
6.05822162e-05
6.06024036e-05
6.06251423e-05
6.0644592e-05
6.06665487e-05
6.0685305e-05
6.07065121e-05
6.07244117e-05
6.07438502e-05
6.07602849e-05
6.07789555e-05
6.07947611e-05
6.08126797e-05
6.08278827e-05
6.08450657e-05
6.08596895e-05
6.08761565e-05
6.08902192e-05
6.09059949e-05
6.0919507e-05
6.09346242e-05
6.09476158e-05
6.09621496e-05
6.09745784e-05
6.09885367e-05
6.10003831e-05
6.10138242e-05
6.10250655e-05
6.10380499e-05
6.1048661e-05
6.10612467e-05
6.1071202e-05
6.10834452e-05
6.10927162e-05
6.11046857e-05
6.11132072e-05
6.11241825e-05
6.11312375e-05
6.11415459e-05
6.1148781e-05
6.11580609e-05
6.11653141e-05
6.11737199e-05
6.11808734e-05
6.11885088e-05
6.11954884e-05
6.12024204e-05
6.12091828e-05
6.12154562e-05
6.12219776e-05
6.12276232e-05
6.12338917e-05
6.12389331e-05
6.12449547e-05
6.12494073e-05
6.12551727e-05
6.12590401e-05
6.12645567e-05
6.12678429e-05
6.12731228e-05
6.12758278e-05
6.1280887e-05
6.12830072e-05
6.12877241e-05
6.12895238e-05
6.12937961e-05
6.1295255e-05
6.12991135e-05
6.13002183e-05
6.13036875e-05
6.13044311e-05
6.13075302e-05
6.13079099e-05
6.13106545e-05
6.13106711e-05
6.13130738e-05
6.13127311e-05
6.13148027e-05
6.13141066e-05
6.13158563e-05
6.13148146e-05
6.13162508e-05
6.13148727e-05
6.13159169e-05
6.13138898e-05
6.13143346e-05
6.13119538e-05
6.13120782e-05
6.13093508e-05
6.13091543e-05
6.13060871e-05
6.13055693e-05
6.13021689e-05
6.13013297e-05
6.12976029e-05
6.12964418e-05
6.12923958e-05
6.12909121e-05
6.12865544e-05
6.12847472e-05
6.12800857e-05
6.12779538e-05
6.12729968e-05
6.12705388e-05
6.12652946e-05
6.12625094e-05
6.12569864e-05
6.1253873e-05
6.12480794e-05
6.12446376e-05
6.12385808e-05
6.12348116e-05
6.12284977e-05
6.12244039e-05
6.12178375e-05
6.12134243e-05
6.12066077e-05
6.12018833e-05
6.11948161e-05
6.11897918e-05
6.11824711e-05
6.11771608e-05
6.11695815e-05
6.11640009e-05
6.11561573e-05
6.11503209e-05
6.11422083e-05
6.11361264e-05
6.11277386e-05
6.11214179e-05
6.11127126e-05
6.11061864e-05
6.10976264e-05
6.10907116e-05
6.10817431e-05
6.10744082e-05
6.10653433e-05
6.10577319e-05
6.10484775e-05
6.10406029e-05
6.10311557e-05
6.10230183e-05
6.1013385e-05
6.10049893e-05
6.09951756e-05
6.09865284e-05
6.09765393e-05
6.09676482e-05
6.0957489e-05
6.09483613e-05
6.09380375e-05
6.09286803e-05
6.09181976e-05
6.09086175e-05
6.08979817e-05
6.08881857e-05
6.08774022e-05
6.08673971e-05
6.08564714e-05
6.08462644e-05
6.08352016e-05
6.08248002e-05
6.08136054e-05
6.08030175e-05
6.07916932e-05
6.07808702e-05
6.07693665e-05
6.07583757e-05
6.07467583e-05
6.07356083e-05
6.07238826e-05
6.07125824e-05
6.07007541e-05
6.06893126e-05
6.06773874e-05
6.06658137e-05
6.06537975e-05
6.06421007e-05
6.06299998e-05
6.06181889e-05
6.06060097e-05
6.05940939e-05
6.05818431e-05
6.05698316e-05
6.05575161e-05
6.05454181e-05
6.05330451e-05
6.05208699e-05
6.05084469e-05
6.04961939e-05
6.04836914e-05
6.04713487e-05
6.04587993e-05
6.04463948e-05
6.04338036e-05
6.04213437e-05
6.0408716e-05
6.03962071e-05
6.0383548e-05
6.03709964e-05
6.03583111e-05
6.03457349e-05
6.03330356e-05
6.03204176e-05
6.03076857e-05
6.02950285e-05
6.02822699e-05
6.02695799e-05
6.02568003e-05
6.02440841e-05
6.02312894e-05
6.02185534e-05
6.02057491e-05
6.01929997e-05
6.01801916e-05
6.01674351e-05
6.01546286e-05
6.01418713e-05
6.0129072e-05
6.01163199e-05
6.01035335e-05
6.00907926e-05
6.00780243e-05
6.00653005e-05
6.00525559e-05
6.00398549e-05
6.00271393e-05
6.00144666e-05
6.00017854e-05
5.99891465e-05
5.99765048e-05
5.99639051e-05
5.9951308e-05
5.99387527e-05
5.99262053e-05
5.99136846e-05
5.99011165e-05
5.98885971e-05
5.98760993e-05
5.98636512e-05
5.98512277e-05
5.98388551e-05
5.98265101e-05
5.9814217e-05
5.98019543e-05
5.97897446e-05
5.97775681e-05
5.97654457e-05
5.97533591e-05
5.97413276e-05
5.97293344e-05
5.97173975e-05
5.97055012e-05
5.96936622e-05
5.96818661e-05
5.96701285e-05
5.96584358e-05
5.96468027e-05
5.96352166e-05
5.9623691e-05
5.96122143e-05
5.96007994e-05
5.9589435e-05
5.95781335e-05
5.95668841e-05
5.95556987e-05
5.95445669e-05
5.95335001e-05
5.95224884e-05
5.95115428e-05
5.95006534e-05
5.94898312e-05
5.94790664e-05
5.94683698e-05
5.94577318e-05
5.94471628e-05
5.94366534e-05
5.9426214e-05
5.94158351e-05
5.9405527e-05
5.93952803e-05
5.93851054e-05
5.93749924e-05
5.93649521e-05
5.93549743e-05
5.93450701e-05
5.93352288e-05
5.9325462e-05
5.93157585e-05
5.93061303e-05
5.92965656e-05
5.9287077e-05
5.92776525e-05
5.92683043e-05
5.92590209e-05
5.92498463e-05
5.92407397e-05
5.92317071e-05
5.92227374e-05
5.92138424e-05
5.92050109e-05
5.91962543e-05
5.9187562e-05
5.91789447e-05
5.91703924e-05
5.91619151e-05
5.91535035e-05
5.9145167e-05
5.91368965e-05
5.91287014e-05
5.91205725e-05
5.91125191e-05
5.91045322e-05
5.90966209e-05
5.90887762e-05
5.90810071e-05
5.90733048e-05
5.9065678e-05
5.9058118e-05
5.90506335e-05
5.90432158e-05
5.90358735e-05
5.90285978e-05
5.90213974e-05
5.90142636e-05
5.90072048e-05
5.90002125e-05
5.89932949e-05
5.89864436e-05
5.89796666e-05
5.89729558e-05
5.89663188e-05
5.8959748e-05
5.89532502e-05
5.89467998e-05
5.89403417e-05
5.89339511e-05
5.89276346e-05
5.89213849e-05
5.89152089e-05
5.89090989e-05
5.89030622e-05
5.88970908e-05
5.88911921e-05
5.88853581e-05
5.8879596e-05
5.88738981e-05
5.88682714e-05
5.88627082e-05
5.88572154e-05
5.88517855e-05
5.88464252e-05
5.88411271e-05
5.88358977e-05
5.88307298e-05
5.88256299e-05
5.88205907e-05
5.88156185e-05
5.88107064e-05
5.88058603e-05
5.88010735e-05
5.8796352e-05
5.87916888e-05
5.878709e-05
5.87825488e-05
5.87780709e-05
5.87736497e-05
5.8769291e-05
5.87649882e-05
5.87607468e-05
5.87565605e-05
5.87524346e-05
5.87483628e-05
5.87443505e-05
5.87403914e-05
5.87364908e-05
5.87326425e-05
5.87288517e-05
5.87251123e-05
5.87214293e-05
5.87177968e-05
5.87142197e-05
5.87106922e-05
5.87072191e-05
5.87037945e-05
5.87004234e-05
5.86970998e-05
5.86938287e-05
5.86906042e-05
5.86874311e-05
5.86843037e-05
5.86812266e-05
5.86781943e-05
5.86752113e-05
5.86722722e-05
5.86693812e-05
5.86665332e-05
5.86637324e-05
5.86609736e-05
5.8658261e-05
5.86555894e-05
5.8652963e-05
5.86503767e-05
5.86478345e-05
5.86453316e-05
5.86428717e-05
5.86404502e-05
5.86380707e-05
5.86357287e-05
5.86334277e-05
5.86311633e-05
5.86289389e-05
5.86267502e-05
5.86246005e-05
5.86224857e-05
5.86204089e-05
5.86183661e-05
5.86163604e-05
5.86143878e-05
5.86124512e-05
5.8610547e-05
5.86086778e-05
5.86068402e-05
5.86050366e-05
5.86032638e-05
5.86015242e-05
5.85998145e-05
5.85981352e-05
5.85964246e-05
5.85946294e-05
5.85927454e-05
5.85907743e-05
5.85887128e-05
5.85865639e-05
5.85843253e-05
5.85820019e-05
5.8579593e-05
5.85771053e-05
5.85745404e-05
5.85719073e-05
5.85692104e-05
5.8566461e-05
5.85636671e-05
5.85608425e-05
5.85579989e-05
5.85551523e-05
5.85523185e-05
5.85495153e-05
5.85467619e-05
5.85440767e-05
5.85414817e-05
5.85389941e-05
5.85366366e-05
5.85344234e-05
5.85323752e-05
5.85305008e-05
5.85288155e-05
5.85273206e-05
5.85260233e-05
5.8524916e-05
5.85239964e-05
5.8523248e-05
5.85226601e-05
5.85222095e-05
5.85218802e-05
5.85216482e-05
5.85214948e-05
5.85214015e-05
5.8521354e-05
5.85213451e-05
5.85212636e-05
5.85211845e-05
5.85211481e-05
5.85211314e-05
5.85211242e-05
5.85211218e-05
5.85211209e-05
5.85211204e-05
5.85211203e-05
5.85211203e-05
5.85211203e-05
5.85211203e-05
5.85211203e-05
5.85211203e-05
5.85211203e-05
5.85211203e-05
5.85211203e-05
5.85211203e-05
5.85211203e-05
5.85211203e-05
5.85211203e-05
5.85211203e-05
5.85211203e-05
5.85211203e-05
5.85211203e-05
5.85211203e-05
5.85211203e-05
5.85211203e-05
5.85211203e-05
5.85211203e-05
5.85211203e-05
5.85211203e-05
5.85211203e-05
5.85211203e-05
5.85211203e-05
)
;

boundaryField
{
    closed
    {
        type            calculated;
        value           nonuniform List<scalar> 0();
    }
    open
    {
        type            calculated;
        value           uniform 5.85211203e-05;
    }
    sides
    {
        type            empty;
    }
    procBoundary5to4
    {
        type            processor;
        value           uniform 5.98494839e-05;
    }
}


// ************************************************************************* //
