/*--------------------------------*- C++ -*----------------------------------*\
| =========                 |                                                 |
| \\      /  F ield         | OpenFOAM: The Open Source CFD Toolbox           |
|  \\    /   O peration     | Version:  2306                                  |
|   \\  /    A nd           | Website:  www.openfoam.com                      |
|    \\/     M anipulation  |                                                 |
\*---------------------------------------------------------------------------*/
FoamFile
{
    version     2.0;
    format      ascii;
    arch        "LSB;label=32;scalar=64";
    class       volScalarField;
    location    "0.0011";
    object      prefDh_H2O;
}
// * * * * * * * * * * * * * * * * * * * * * * * * * * * * * * * * * * * * * //

dimensions      [1 1 -3 0 0 0 0];

internalField   nonuniform List<scalar> 
530
(
-200.927862
-201.101126
-201.258458
-201.419504
-201.570718
-201.72491
-201.870284
-202.018039
-202.157839
-202.299551
-202.434035
-202.570076
-202.699493
-202.830212
-202.9515
-203.077859
-203.196646
-203.318026
-203.432264
-203.54895
-203.65885
-203.771108
-203.876876
-203.984952
-204.086789
-204.190913
-204.289014
-204.389402
-204.483956
-204.580812
-204.672004
-204.765523
-204.853378
-204.942965
-205.027129
-205.113569
-205.194715
-205.278159
-205.356397
-205.436993
-205.512421
-205.590324
-205.663023
-205.738394
-205.808429
-205.88144
-205.948931
-206.019839
-206.084732
-206.153607
-206.215913
-206.282948
-206.342679
-206.408071
-206.465226
-206.529177
-206.583739
-206.646462
-206.698392
-206.760129
-206.809297
-206.868072
-206.912774
-206.969407
-207.014756
-207.067901
-207.113608
-207.163642
-207.209469
-207.256696
-207.302469
-207.347128
-207.392731
-207.435004
-207.480366
-207.520392
-207.565481
-207.603347
-207.64807
-207.683806
-207.728242
-207.761933
-207.806123
-207.837797
-207.881802
-207.911467
-207.955366
-207.98301
-208.025853
-208.053493
-208.094413
-208.121954
-208.161107
-208.18847
-208.225995
-208.253115
-208.289138
-208.315964
-208.350592
-208.377084
-208.410418
-208.436543
-208.468672
-208.494406
-208.525411
-208.550738
-208.580691
-208.605599
-208.634471
-208.658609
-208.686281
-208.710026
-208.736856
-208.760196
-208.786221
-208.809147
-208.834396
-208.856904
-208.881406
-208.903493
-208.92727
-208.948936
-208.972011
-208.993258
-209.015649
-209.03648
-209.058204
-209.078624
-209.099696
-209.119711
-209.140143
-209.15976
-209.179564
-209.198791
-209.217977
-209.236821
-209.255399
-209.273869
-209.291848
-209.309951
-209.327341
-209.345084
-209.361894
-209.379283
-209.395525
-209.412564
-209.428251
-209.444942
-209.460089
-209.476433
-209.491055
-209.507055
-209.521164
-209.536838
-209.550426
-209.565825
-209.578827
-209.593716
-209.606314
-209.62088
-209.633257
-209.647286
-209.659341
-209.672918
-209.684608
-209.697774
-209.709094
-209.721861
-209.732819
-209.745193
-209.755798
-209.767783
-209.778043
-209.789645
-209.799565
-209.810791
-209.820377
-209.831233
-209.840489
-209.850983
-209.859914
-209.870051
-209.878663
-209.888448
-209.896747
-209.906185
-209.914177
-209.923273
-209.930965
-209.93968
-209.946031
-209.953342
-209.959397
-209.966402
-209.972172
-209.978876
-209.98437
-209.990781
-209.996009
-210.002131
-210.007103
-210.012945
-210.017669
-210.023237
-210.027723
-210.033026
-210.037283
-210.042328
-210.046364
-210.05116
-210.054986
-210.059541
-210.063165
-210.067488
-210.071147
-210.076048
-210.080062
-210.084798
-210.088684
-210.093258
-210.097018
-210.101432
-210.105069
-210.109329
-210.112842
-210.116955
-210.120222
-210.123996
-210.12705
-210.130603
-210.133475
-210.136817
-210.13951
-210.142648
-210.145165
-210.148106
-210.150452
-210.153202
-210.155384
-210.157947
-210.15997
-210.162354
-210.164223
-210.166432
-210.168152
-210.170192
-210.171769
-210.173647
-210.175083
-210.176805
-210.178107
-210.179678
-210.180848
-210.182276
-210.183319
-210.184609
-210.185527
-210.186687
-210.187483
-210.188519
-210.188937
-210.188502
-210.187767
-210.187265
-210.186488
-210.185924
-210.185107
-210.184485
-210.183629
-210.182954
-210.182059
-210.181334
-210.180403
-210.179632
-210.178666
-210.177852
-210.176853
-210.175999
-210.17497
-210.174077
-210.173019
-210.172091
-210.171008
-210.170047
-210.16894
-210.167948
-210.166819
-210.1658
-210.164651
-210.163607
-210.16244
-210.161372
-210.16019
-210.159102
-210.157906
-210.156799
-210.155591
-210.154468
-210.153251
-210.152114
-210.150888
-210.149739
-210.148507
-210.147349
-210.146113
-210.144946
-210.143708
-210.142535
-210.141297
-210.140118
-210.138883
-210.1377
-210.136469
-210.135283
-210.134059
-210.132872
-210.131656
-210.130471
-210.129262
-210.128087
-210.126879
-210.125697
-210.124481
-210.123286
-210.122061
-210.120859
-210.119626
-210.118421
-210.117185
-210.115979
-210.114743
-210.11354
-210.112308
-210.11111
-210.109884
-210.108694
-210.107479
-210.106299
-210.105097
-210.10393
-210.102743
-210.101591
-210.100423
-210.099288
-210.09814
-210.097025
-210.095899
-210.094806
-210.093703
-210.092634
-210.091557
-210.090513
-210.089463
-210.088446
-210.087424
-210.086437
-210.085444
-210.084488
-210.083524
-210.082433
-210.080616
-210.078851
-210.077095
-210.075387
-210.073691
-210.072039
-210.070402
-210.068809
-210.06723
-210.065694
-210.064174
-210.062695
-210.061233
-210.059812
-210.058408
-210.057043
-210.055696
-210.054388
-210.053098
-210.051846
-210.050612
-210.049416
-210.048237
-210.047096
-210.045972
-210.044886
-210.043816
-210.042783
-210.041767
-210.040787
-210.039824
-210.038896
-210.037985
-210.037108
-210.036248
-210.035421
-210.034612
-210.033835
-210.033074
-210.032345
-210.031633
-210.030952
-210.030287
-210.029653
-210.029034
-210.028445
-210.027872
-210.027328
-210.026798
-210.026297
-210.025811
-210.025353
-210.024909
-210.024491
-210.024088
-210.023711
-210.023348
-210.02301
-210.022685
-210.022385
-210.022098
-210.021835
-210.021584
-210.021357
-210.021141
-210.020948
-210.020767
-210.020607
-210.020459
-210.020332
-210.020216
-210.020119
-210.020034
-210.019968
-210.019912
-210.019874
-210.019847
-210.019837
-210.019837
-210.019855
-210.019881
-210.019924
-210.019975
-210.020042
-210.020118
-210.020208
-210.020307
-210.02042
-210.020541
-210.020675
-210.020816
-210.020971
-210.021133
-210.021313
-210.021514
-210.021746
-210.022004
-210.022299
-210.022628
-210.023003
-210.023421
-210.023894
-210.024421
-210.025015
-210.025674
-210.026413
-210.027229
-210.02814
-210.029141
-210.030249
-210.031461
-210.032791
-210.034233
-210.035801
-210.037487
-210.039297
-210.041221
-210.043257
-210.045391
-210.04761
-210.049897
-210.052225
-210.054573
-210.056902
-210.059192
-210.061394
-210.063489
-210.065432
-210.067207
-210.06879
-210.070164
-210.071339
-210.072312
-210.073106
-210.073744
-210.073772
-210.073694
-210.073658
-210.073642
-210.073635
-210.073633
-210.073632
-210.073632
-210.073632
-210.073632
-210.073632
-210.073632
-210.073632
-210.073632
-210.073632
-210.073632
-210.073632
-210.073632
-210.073632
-210.073632
-210.073632
-210.073632
-210.073632
-210.073632
-210.073632
-210.073632
-210.073632
-210.073632
-210.073632
-210.073632
-210.073632
-210.073632
-210.073632
-210.073632
-210.073632
)
;

boundaryField
{
    closed
    {
        type            calculated;
        value           nonuniform List<scalar> 0();
    }
    open
    {
        type            calculated;
        value           uniform -210.073632;
    }
    sides
    {
        type            empty;
    }
    procBoundary5to4
    {
        type            processor;
        value           uniform -200.755116;
    }
}


// ************************************************************************* //
