/*--------------------------------*- C++ -*----------------------------------*\
| =========                 |                                                 |
| \\      /  F ield         | OpenFOAM: The Open Source CFD Toolbox           |
|  \\    /   O peration     | Version:  2306                                  |
|   \\  /    A nd           | Website:  www.openfoam.com                      |
|    \\/     M anipulation  |                                                 |
\*---------------------------------------------------------------------------*/
FoamFile
{
    version     2.0;
    format      ascii;
    arch        "LSB;label=32;scalar=64";
    class       volScalarField;
    location    "0.00198";
    object      prefDh_H2O;
}
// * * * * * * * * * * * * * * * * * * * * * * * * * * * * * * * * * * * * * //

dimensions      [1 1 -3 0 0 0 0];

internalField   nonuniform List<scalar> 
530
(
87.6141421
87.5948731
92.6732387
92.3212405
92.3846399
88.3859138
87.690704
87.644258
92.7119495
92.3858675
88.1285234
87.8477133
92.7384896
92.3422971
88.019187
87.9570575
92.7538016
92.2722514
92.3731527
88.3599201
87.8951904
87.558129
87.5604764
92.8344001
92.4822433
92.4662225
92.4678981
88.8703062
87.6595983
87.6262502
92.6625167
92.3714773
88.0993721
87.9561458
92.7193401
92.2742116
92.3584594
88.3033304
87.9000011
87.5420327
87.5500186
92.8514477
92.3960066
92.569521
88.1310303
87.6565495
92.8160271
92.4086738
92.5311314
92.3422634
90.7353361
88.1445456
87.8239523
87.8039927
92.6481032
92.4257941
88.4234716
87.7004025
87.6769912
92.6208125
92.4703847
88.4841912
87.5699583
87.6049248
92.6637817
92.3375147
92.411272
88.3127702
87.6414244
87.6059804
92.7145502
92.4422485
87.9969411
87.7037308
92.8059729
92.4582163
92.4684011
92.4625145
88.7959908
87.6706148
87.6502083
92.6223956
92.501688
88.3078887
87.4570372
87.4324933
92.7460061
92.4732807
87.911364
87.6230684
92.8306427
92.4415772
92.4866432
92.4154446
88.5856003
87.886325
87.6076267
87.6072698
92.8068711
92.3859173
92.5163577
88.0970635
87.7864292
92.7461858
92.3278193
92.4588892
88.2484922
88.0503731
92.6528204
88.4121666
87.7566489
92.6869413
92.3011109
92.4390337
88.9139213
87.9096176
87.693314
87.6961825
92.7379923
92.3230598
92.4702806
88.3380529
87.7877059
92.5369506
92.4427877
88.8170218
87.6772827
87.7844355
92.6106931
88.2236035
87.7735896
92.6906949
92.3125377
92.4302632
88.522075
87.662189
87.6411762
92.623171
92.3715258
88.0801815
88.0644664
92.7073763
88.6088519
87.5413233
92.6461759
92.4639314
88.041338
87.7459232
92.7240084
92.4137827
87.9307679
87.7425189
92.7775767
92.3985059
87.7763349
87.737709
92.8742703
92.3499336
92.6143259
92.2811908
92.3885434
89.6507028
87.9706294
87.9742186
87.5712681
87.5587524
92.7344685
92.4077883
92.4552514
88.0621045
88.0423602
92.7289159
88.5724703
87.4834338
92.6038039
92.4895445
88.0652338
87.695516
92.5653668
92.4586032
88.6067309
87.6988309
87.8410926
92.5756669
92.3410969
92.3712339
92.3440812
88.7318905
87.820332
87.4008429
87.3875843
92.854536
92.4907407
92.5521604
92.4634318
88.2287508
87.738915
92.5531504
92.469993
88.4546233
87.6461543
87.6116894
92.614747
92.3699123
88.0678518
88.0401528
92.7114526
88.279648
87.6189561
92.7143268
92.3697839
92.5065681
88.2904583
87.4143805
87.3989274
92.7475807
92.4737368
92.5290813
92.4107901
88.2456991
87.9992293
92.6639163
92.2884708
92.4121957
88.3713512
87.8921746
87.5654045
87.5843127
92.7826574
92.4030184
92.5398369
88.2827191
88.0999754
92.7124871
89.1829597
87.4966717
92.5807921
92.5949657
88.292528
87.2063992
87.2082016
92.8407082
92.500086
92.6390212
92.4038745
92.4230553
88.1647778
88.073207
92.7137637
88.8404635
87.5002176
92.5456465
92.5115998
88.8119479
87.7539482
87.8524569
87.3577259
87.3280924
92.8534789
92.4350062
92.6385131
92.3249393
92.4264918
89.7696052
87.8586604
87.8166065
92.5633948
92.3385911
88.2737841
87.9838554
92.5289698
92.3276497
89.511762
87.9826757
87.9969428
87.6014612
87.5921237
92.667023
92.3661353
92.4086605
88.1212122
88.0563128
92.6641618
88.3356204
87.6807904
92.7032307
92.3224987
92.5088709
88.5521363
87.8279378
92.5481121
92.3423086
88.2543711
87.972279
92.5166996
92.2905586
89.0960492
88.0656442
88.0272241
87.9724119
87.6525062
87.6448217
92.6621088
92.3402952
92.4729288
92.2595279
92.3070315
89.654729
87.8342196
87.8170041
92.5654594
92.4111002
88.3853913
87.578301
87.5576543
92.6156579
92.4097325
88.1574515
87.7957592
92.6102358
92.3904683
88.3203529
87.8860515
87.5423834
87.5352356
92.8240372
92.4058995
92.5916846
92.3031395
92.3391651
89.2936693
88.0919681
87.7997648
87.7796125
92.7121265
92.3853475
87.9538922
87.7934212
92.8011568
92.3739025
92.4955715
92.3456006
89.2150015
88.0159319
87.8274812
87.7848647
92.6823748
92.4553891
88.2978552
87.4693503
87.4687205
92.6970938
92.3906467
92.444491
88.2086056
88.0857622
92.7259716
89.1149821
87.4782704
92.5948203
92.5599444
88.3178955
87.3394423
87.3221828
92.7781046
92.4234873
92.5532297
92.3064887
92.3448886
88.7054234
88.0649382
87.7367787
87.7446958
92.7062169
92.3163561
92.4536123
88.5169149
87.8467009
92.5592206
92.4321958
88.7618631
87.7284427
87.7130814
92.6068384
92.2954841
92.3688521
89.2905257
87.9116244
87.9354114
87.4747136
87.457853
92.8089198
92.4446696
92.4687819
87.8817114
87.7383447
92.8388882
92.354363
92.5060227
88.1302743
87.8432251
92.739929
92.2926269
92.4387569
88.5902836
87.6748813
87.6547101
92.6091767
92.4643459
88.4515364
87.5999072
87.5719093
92.6561432
92.4397918
88.1795977
87.7027296
92.6442599
92.4827658
88.3578384
87.4617066
87.4912774
92.7120041
92.3644001
92.4760413
88.2836604
87.8136613
92.6467026
92.3840822
88.192185
87.9085173
92.6470398
92.3671942
88.2472709
87.9390563
92.5965687
92.3996285
88.695314
87.8066191
87.7837059
92.6011118
92.436078
88.600267
87.7051534
87.6751984
92.6662033
92.4077613
88.1943546
87.8201373
92.6895023
92.412356
88.1603559
87.7490919
92.6603596
92.5034218
88.290273
87.3792955
87.3545642
92.7973687
92.4386826
92.5512254
92.3339345
92.3463292
88.3049589
87.9245602
87.5081645
87.5056228
92.8756871
92.4143573
92.5976893
92.3102199
92.3707576
88.7706709
87.9609602
87.7219211
87.7045857
92.7907159
92.4184964
87.9276556
87.7174452
92.8236519
92.4118902
87.8693537
87.7162094
92.8701846
92.4071719
92.498854
92.3802434
88.7822768
87.9777673
87.753983
87.7296607
92.7845017
92.421041
87.8922607
87.7036078
92.8456979
92.4480775
92.4740166
92.4486268
88.7925575
87.7271884
87.6960885
92.634921
92.3441709
88.1757273
88.1144135
92.6936762
88.5262572
87.8754408
92.6911152
88.2746928
87.7596891
92.7689757
92.312184
92.4608911
88.9434146
87.9050695
87.7299676
87.7155264
92.7942943
92.4159549
87.8442337
87.7726223
92.8645026
92.366505
92.4950454
88.0705944
87.8426945
92.7868052
92.3100918
)
;

boundaryField
{
    closed
    {
        type            calculated;
        value           nonuniform List<scalar> 0();
    }
    open
    {
        type            calculated;
        value           nonuniform List<scalar> 0();
    }
    sides
    {
        type            empty;
    }
    procBoundary2to1
    {
        type            processor;
        value           uniform 88.3671735;
    }
    procBoundary2to3
    {
        type            processor;
        value           uniform 92.4605963;
    }
}


// ************************************************************************* //
