/*--------------------------------*- C++ -*----------------------------------*\
| =========                 |                                                 |
| \\      /  F ield         | OpenFOAM: The Open Source CFD Toolbox           |
|  \\    /   O peration     | Version:  2306                                  |
|   \\  /    A nd           | Website:  www.openfoam.com                      |
|    \\/     M anipulation  |                                                 |
\*---------------------------------------------------------------------------*/
FoamFile
{
    version     2.0;
    format      ascii;
    arch        "LSB;label=32;scalar=64";
    class       volVectorField;
    location    "0.00198";
    object      U;
}
// * * * * * * * * * * * * * * * * * * * * * * * * * * * * * * * * * * * * * //

dimensions      [0 1 -1 0 0 0 0];

internalField   nonuniform List<vector> 
530
(
(0.356107474 0 0)
(0.355790343 0 0)
(0.365916427 0 0)
(0.371674004 0 0)
(0.36762282 0 0)
(0.356151328 0 0)
(0.347227301 0 0)
(0.344660783 0 0)
(0.354428904 0 0)
(0.358722584 0 0)
(0.350947471 0 0)
(0.352045714 0 0)
(0.360976121 0 0)
(0.36002085 0 0)
(0.352512024 0 0)
(0.35512375 0 0)
(0.364962751 0 0)
(0.368829397 0 0)
(0.365127502 0 0)
(0.355307538 0 0)
(0.348506821 0 0)
(0.3447475 0 0)
(0.339845241 0 0)
(0.348726641 0 0)
(0.35908247 0 0)
(0.357943766 0 0)
(0.352502159 0 0)
(0.342406111 0 0)
(0.334408264 0 0)
(0.332736208 0 0)
(0.342609088 0 0)
(0.346170346 0 0)
(0.338848006 0 0)
(0.340206352 0 0)
(0.348674652 0 0)
(0.3517541 0 0)
(0.34801257 0 0)
(0.338114555 0 0)
(0.330647318 0 0)
(0.326186272 0 0)
(0.331619556 0 0)
(0.343703449 0 0)
(0.344877522 0 0)
(0.337537231 0 0)
(0.329043221 0 0)
(0.331118252 0 0)
(0.340520574 0 0)
(0.344317541 0 0)
(0.342407791 0 0)
(0.338158021 0 0)
(0.333969587 0 0)
(0.331530114 0 0)
(0.327694621 0 0)
(0.330575902 0 0)
(0.340005209 0 0)
(0.338590874 0 0)
(0.328701363 0 0)
(0.320122731 0 0)
(0.316697389 0 0)
(0.325313582 0 0)
(0.329971839 0 0)
(0.320177223 0 0)
(0.311480987 0 0)
(0.311387308 0 0)
(0.32080838 0 0)
(0.326223895 0 0)
(0.323232768 0 0)
(0.313357353 0 0)
(0.305246975 0 0)
(0.303435234 0 0)
(0.312428503 0 0)
(0.315830954 0 0)
(0.307767736 0 0)
(0.307829608 0 0)
(0.316610236 0 0)
(0.320802992 0 0)
(0.320086723 0 0)
(0.315551324 0 0)
(0.30633336 0 0)
(0.298833043 0 0)
(0.296166467 0 0)
(0.304273029 0 0)
(0.308615465 0 0)
(0.300939683 0 0)
(0.293710724 0 0)
(0.300474562 0 0)
(0.313155092 0 0)
(0.309401463 0 0)
(0.300697511 0 0)
(0.300567231 0 0)
(0.309334646 0 0)
(0.313415688 0 0)
(0.312303192 0 0)
(0.307565113 0 0)
(0.298973395 0 0)
(0.292183799 0 0)
(0.288578667 0 0)
(0.293964717 0 0)
(0.304626127 0 0)
(0.306019011 0 0)
(0.299707189 0 0)
(0.29183664 0 0)
(0.293140936 0 0)
(0.300695595 0 0)
(0.303751315 0 0)
(0.303162098 0 0)
(0.296035267 0 0)
(0.292599819 0 0)
(0.295632037 0 0)
(0.290480906 0 0)
(0.287497866 0 0)
(0.294365171 0 0)
(0.298276583 0 0)
(0.292811435 0 0)
(0.282809247 0 0)
(0.276848174 0 0)
(0.27361954 0 0)
(0.278505073 0 0)
(0.287365349 0 0)
(0.288181632 0 0)
(0.285580047 0 0)
(0.278628021 0 0)
(0.27602078 0 0)
(0.282237508 0 0)
(0.282432562 0 0)
(0.274239617 0 0)
(0.267521432 0 0)
(0.268394625 0 0)
(0.272282534 0 0)
(0.269718063 0 0)
(0.268277037 0 0)
(0.274169983 0 0)
(0.277411792 0 0)
(0.273733601 0 0)
(0.264661999 0 0)
(0.257358854 0 0)
(0.263888794 0 0)
(0.273605881 0 0)
(0.269933719 0 0)
(0.26342987 0 0)
(0.263972642 0 0)
(0.266880541 0 0)
(0.261496918 0 0)
(0.258006349 0 0)
(0.263922773 0 0)
(0.264151202 0 0)
(0.256887562 0 0)
(0.255764859 0 0)
(0.262182183 0 0)
(0.261676015 0 0)
(0.254093726 0 0)
(0.253583317 0 0)
(0.26037646 0 0)
(0.259412224 0 0)
(0.251005386 0 0)
(0.250489769 0 0)
(0.257553681 0 0)
(0.261265855 0 0)
(0.261066087 0 0)
(0.259866899 0 0)
(0.256630369 0 0)
(0.25097737 0 0)
(0.246557675 0 0)
(0.243292752 0 0)
(0.23994898 0 0)
(0.245243888 0 0)
(0.254288197 0 0)
(0.255419953 0 0)
(0.249677541 0 0)
(0.244237306 0 0)
(0.2467576 0 0)
(0.249393574 0 0)
(0.244995342 0 0)
(0.241560694 0 0)
(0.246966721 0 0)
(0.247755216 0 0)
(0.241144752 0 0)
(0.239723703 0 0)
(0.245862533 0 0)
(0.247147917 0 0)
(0.240440515 0 0)
(0.23402951 0 0)
(0.232235184 0 0)
(0.235647484 0 0)
(0.238917025 0 0)
(0.238628744 0 0)
(0.234983388 0 0)
(0.228297171 0 0)
(0.222436541 0 0)
(0.219725964 0 0)
(0.224691216 0 0)
(0.233965774 0 0)
(0.238170525 0 0)
(0.238283841 0 0)
(0.234363146 0 0)
(0.227349572 0 0)
(0.225314293 0 0)
(0.230643844 0 0)
(0.232175591 0 0)
(0.225510316 0 0)
(0.218899242 0 0)
(0.21951842 0 0)
(0.226100528 0 0)
(0.227334814 0 0)
(0.221361323 0 0)
(0.220558359 0 0)
(0.222549674 0 0)
(0.21871259 0 0)
(0.216393834 0 0)
(0.22133483 0 0)
(0.22574281 0 0)
(0.223206307 0 0)
(0.215066198 0 0)
(0.207154474 0 0)
(0.207321017 0 0)
(0.21470828 0 0)
(0.220753408 0 0)
(0.221347743 0 0)
(0.217788566 0 0)
(0.211313917 0 0)
(0.209367954 0 0)
(0.213928651 0 0)
(0.217469179 0 0)
(0.215136586 0 0)
(0.209713392 0 0)
(0.20433047 0 0)
(0.201722203 0 0)
(0.207721929 0 0)
(0.21588413 0 0)
(0.218222183 0 0)
(0.215612691 0 0)
(0.210248719 0 0)
(0.208494924 0 0)
(0.209753294 0 0)
(0.207304149 0 0)
(0.204613249 0 0)
(0.208486697 0 0)
(0.210878825 0 0)
(0.202472257 0 0)
(0.19280455 0 0)
(0.193697798 0 0)
(0.202708983 0 0)
(0.209769746 0 0)
(0.210960677 0 0)
(0.210322345 0 0)
(0.205504887 0 0)
(0.19974222 0 0)
(0.199385557 0 0)
(0.201497874 0 0)
(0.199644084 0 0)
(0.197738972 0 0)
(0.201800997 0 0)
(0.204871605 0 0)
(0.20006077 0 0)
(0.194146402 0 0)
(0.189860471 0 0)
(0.187118082 0 0)
(0.193036561 0 0)
(0.201266059 0 0)
(0.203881913 0 0)
(0.205216239 0 0)
(0.205018577 0 0)
(0.202096991 0 0)
(0.196971315 0 0)
(0.192269106 0 0)
(0.19143211 0 0)
(0.196246477 0 0)
(0.199221261 0 0)
(0.193029985 0 0)
(0.190009779 0 0)
(0.194387719 0 0)
(0.197092704 0 0)
(0.193527125 0 0)
(0.189152106 0 0)
(0.186350393 0 0)
(0.184926923 0 0)
(0.186256433 0 0)
(0.191968724 0 0)
(0.198037973 0 0)
(0.197572116 0 0)
(0.191829858 0 0)
(0.188080611 0 0)
(0.190384675 0 0)
(0.190697912 0 0)
(0.189859835 0 0)
(0.193885717 0 0)
(0.199582817 0 0)
(0.197780945 0 0)
(0.193121044 0 0)
(0.192142123 0 0)
(0.196514385 0 0)
(0.198981216 0 0)
(0.193070988 0 0)
(0.190368216 0 0)
(0.195227589 0 0)
(0.198301829 0 0)
(0.195252251 0 0)
(0.192258998 0 0)
(0.192098943 0 0)
(0.191077803 0 0)
(0.188591807 0 0)
(0.188615411 0 0)
(0.193428529 0 0)
(0.19982832 0 0)
(0.201199035 0 0)
(0.200934381 0 0)
(0.197891893 0 0)
(0.193372008 0 0)
(0.189760823 0 0)
(0.193485741 0 0)
(0.200264535 0 0)
(0.201961201 0 0)
(0.196846567 0 0)
(0.191308505 0 0)
(0.192995221 0 0)
(0.200445128 0 0)
(0.20435695 0 0)
(0.198240906 0 0)
(0.195451639 0 0)
(0.200959249 0 0)
(0.204955978 0 0)
(0.199440529 0 0)
(0.191913248 0 0)
(0.189137352 0 0)
(0.190512879 0 0)
(0.197179231 0 0)
(0.205691766 0 0)
(0.207923719 0 0)
(0.208483202 0 0)
(0.20611857 0 0)
(0.202406595 0 0)
(0.198318943 0 0)
(0.196763105 0 0)
(0.201944595 0 0)
(0.208933522 0 0)
(0.209126627 0 0)
(0.202108705 0 0)
(0.198861539 0 0)
(0.205014435 0 0)
(0.212252466 0 0)
(0.214089549 0 0)
(0.212315834 0 0)
(0.208798885 0 0)
(0.205001523 0 0)
(0.203465634 0 0)
(0.206966588 0 0)
(0.214387864 0 0)
(0.21809564 0 0)
(0.210620275 0 0)
(0.202485165 0 0)
(0.205009135 0 0)
(0.214209933 0 0)
(0.221683044 0 0)
(0.222350685 0 0)
(0.216401928 0 0)
(0.212239666 0 0)
(0.215226368 0 0)
(0.215132816 0 0)
(0.213991556 0 0)
(0.219262328 0 0)
(0.224140958 0 0)
(0.218414864 0 0)
(0.211240184 0 0)
(0.213403566 0 0)
(0.223443903 0 0)
(0.232071684 0 0)
(0.234568887 0 0)
(0.235464913 0 0)
(0.231395363 0 0)
(0.226095935 0 0)
(0.223209788 0 0)
(0.222336915 0 0)
(0.224649027 0 0)
(0.23311416 0 0)
(0.241882868 0 0)
(0.238088845 0 0)
(0.231111788 0 0)
(0.231495511 0 0)
(0.238480405 0 0)
(0.242415082 0 0)
(0.237618722 0 0)
(0.232366834 0 0)
(0.234729681 0 0)
(0.243197131 0 0)
(0.249775371 0 0)
(0.24823052 0 0)
(0.243644174 0 0)
(0.240631964 0 0)
(0.239203051 0 0)
(0.237919738 0 0)
(0.238860652 0 0)
(0.24800167 0 0)
(0.25751389 0 0)
(0.255805674 0 0)
(0.247383277 0 0)
(0.244614798 0 0)
(0.253582294 0 0)
(0.260874493 0 0)
(0.259962668 0 0)
(0.252863377 0 0)
(0.250442961 0 0)
(0.258774062 0 0)
(0.265878846 0 0)
(0.26422286 0 0)
(0.257722923 0 0)
(0.252516336 0 0)
(0.25250403 0 0)
(0.261532793 0 0)
(0.267960658 0 0)
(0.26137366 0 0)
(0.25451861 0 0)
(0.254038217 0 0)
(0.262854628 0 0)
(0.268180723 0 0)
(0.261919577 0 0)
(0.260794543 0 0)
(0.268842102 0 0)
(0.272430771 0 0)
(0.265472803 0 0)
(0.258150708 0 0)
(0.259920322 0 0)
(0.270250356 0 0)
(0.277622718 0 0)
(0.272913038 0 0)
(0.267102163 0 0)
(0.269573557 0 0)
(0.277513261 0 0)
(0.279956553 0 0)
(0.274149546 0 0)
(0.273795703 0 0)
(0.281367309 0 0)
(0.283607224 0 0)
(0.278005852 0 0)
(0.277686241 0 0)
(0.285353111 0 0)
(0.287964481 0 0)
(0.281663265 0 0)
(0.275720502 0 0)
(0.274236709 0 0)
(0.282193213 0 0)
(0.287721001 0 0)
(0.28048476 0 0)
(0.273708793 0 0)
(0.280152244 0 0)
(0.29104352 0 0)
(0.290026997 0 0)
(0.283764741 0 0)
(0.283552927 0 0)
(0.291583742 0 0)
(0.293577272 0 0)
(0.287375577 0 0)
(0.287130301 0 0)
(0.29583364 0 0)
(0.298943948 0 0)
(0.292257429 0 0)
(0.284990824 0 0)
(0.285487028 0 0)
(0.296170911 0 0)
(0.304405483 0 0)
(0.305055007 0 0)
(0.304647927 0 0)
(0.304101029 0 0)
(0.299837411 0 0)
(0.294704701 0 0)
(0.29175415 0 0)
(0.290448303 0 0)
(0.300015197 0 0)
(0.310518877 0 0)
(0.310412777 0 0)
(0.309407239 0 0)
(0.308171249 0 0)
(0.303271744 0 0)
(0.298077473 0 0)
(0.2954882 0 0)
(0.299784415 0 0)
(0.309479245 0 0)
(0.309217506 0 0)
(0.301674533 0 0)
(0.302497631 0 0)
(0.312088517 0 0)
(0.313073021 0 0)
(0.305128441 0 0)
(0.305614439 0 0)
(0.315547072 0 0)
(0.321937681 0 0)
(0.32209566 0 0)
(0.318429866 0 0)
(0.311850847 0 0)
(0.307154605 0 0)
(0.304768635 0 0)
(0.301771163 0 0)
(0.309258748 0 0)
(0.314599196 0 0)
(0.306756732 0 0)
(0.307127828 0 0)
(0.316811482 0 0)
(0.322855853 0 0)
(0.322769064 0 0)
(0.318488217 0 0)
(0.310390914 0 0)
(0.304056578 0 0)
(0.304311831 0 0)
(0.313578848 0 0)
(0.317257049 0 0)
(0.312057331 0 0)
(0.313799714 0 0)
(0.31802261 0 0)
(0.314329712 0 0)
(0.312432997 0 0)
(0.316117383 0 0)
(0.314315266 0 0)
(0.313355406 0 0)
(0.320777253 0 0)
(0.325582832 0 0)
(0.322797174 0 0)
(0.315047768 0 0)
(0.308535908 0 0)
(0.305194191 0 0)
(0.308694161 0 0)
(0.317913972 0 0)
(0.316603698 0 0)
(0.308399852 0 0)
(0.309685641 0 0)
(0.319932359 0 0)
(0.325296645 0 0)
(0.323416522 0 0)
(0.31430796 0 0)
(0.311582716 0 0)
(0.321226162 0 0)
(0.327020366 0 0)
)
;

boundaryField
{
    closed
    {
        type            noSlip;
    }
    open
    {
        type            inletOutlet;
        inletValue      nonuniform List<vector> 0();
        value           nonuniform List<vector> 0();
    }
    sides
    {
        type            empty;
    }
    procBoundary2to1
    {
        type            processor;
        value           uniform (0.3655836 0 0);
    }
    procBoundary2to3
    {
        type            processor;
        value           uniform (0.323698236 0 0);
    }
}


// ************************************************************************* //
