/*--------------------------------*- C++ -*----------------------------------*\
| =========                 |                                                 |
| \\      /  F ield         | OpenFOAM: The Open Source CFD Toolbox           |
|  \\    /   O peration     | Version:  2306                                  |
|   \\  /    A nd           | Website:  www.openfoam.com                      |
|    \\/     M anipulation  |                                                 |
\*---------------------------------------------------------------------------*/
FoamFile
{
    version     2.0;
    format      ascii;
    arch        "LSB;label=32;scalar=64";
    class       volScalarField;
    location    "0.00054";
    object      h;
}
// * * * * * * * * * * * * * * * * * * * * * * * * * * * * * * * * * * * * * //

dimensions      [0 2 -2 0 0 0 0];

internalField   nonuniform List<scalar> 
531
(
-4007.99707
-4514.13869
9659.31128
10140.3414
-3829.09581
-4219.88826
9667.43656
10121.7911
-4133.58927
-4560.5526
9601.21684
10035.2077
-4351.54491
-4787.95529
9593.72887
10013.2197
-4276.02909
-4636.22947
9684.89802
10089.5344
-3667.45265
-3656.3591
10044.9486
10270.1766
-506.467823
-5402.49945
-3342.58274
9292.98236
10679.9524
7660.2454
-2475.73241
-4752.7141
-4792.18589
-3898.29016
10111.8299
10217.808
735.679788
-5732.98133
-3492.17144
9124.50091
10644.8561
9472.91934
-2600.02691
-7434.45506
-5274.46529
9607.81758
9938.97225
-4562.67536
-4856.74371
9797.57139
9994.93141
-4237.63428
-4485.47716
9852.95834
10047.7054
-3859.38687
-3607.12814
10278.8066
10305.599
-1901.06094
-5633.01843
-3708.85065
9867.93534
10137.2121
-4168.55468
-3463.14834
10304.5432
10317.5332
-1458.68153
-5240.41239
-2712.49417
10198.1325
10397.4481
-183.867396
-4622.48343
-2367.48657
10282.6944
10561.0576
1722.18663
-3372.6193
-3693.58345
33.5089193
3545.15437
-3399.96225
-2907.3582
9434.16248
10490.2063
9275.88224
-4709.00727
-5943.22618
9770.43468
9823.91132
-5527.43866
-5426.46927
9789.36599
9794.85776
-4984.87441
-4762.91498
9989.82993
9748.18942
-4632.12435
-4267.80988
10100.5122
9708.13698
-4135.3148
-3223.08874
10368.1793
10297.7524
-816.991799
-4975.41004
-2556.15693
10311.4073
10476.7569
1681.92057
-3789.38955
-5139.20108
-3811.99541
9910.77902
9730.63125
-5000.11467
-4269.72502
10037.8474
9426.77892
-4498.51934
-3319.62117
10316.7779
10142.5905
-1105.87982
-5516.91309
-2974.70467
10101.1549
10234.7163
1027.58232
-5371.55723
-3427.42025
10081.844
10137.8756
667.655539
-5537.24309
-3441.34533
10069.0984
10104.0606
331.491121
-5735.31857
-3760.10539
9846.12095
9575.15604
-4513.9847
-3019.14965
10261.511
10147.5928
-529.507773
-5939.47948
-3982.44235
9822.67049
10135.1094
2258.28503
-5429.983
-4094.14521
9830.18884
9460.99422
-4578.39043
-3652.20977
10097.9937
10378.3199
3405.83435
-3634.36977
-5180.60196
-1731.40521
10112.7926
10196.5913
-1148.6409
-5167.0748
-1328.53158
10123.4435
10191.3954
-967.049869
-5355.71628
-1642.82704
9833.49996
10657.5265
4426.02273
-2691.83903
-4226.4971
-6236.84996
-4811.64611
8772.70929
10083.3795
9313.30138
10235.2616
5497.8618
-3159.23864
-4046.26372
-4157.97417
-5486.68901
874.568196
9780.25571
10659.1
9920.5487
-1228.46678
-5505.04589
-2069.09286
9945.37815
10015.3137
-1910.53476
-5642.76226
-1869.51227
9939.25982
10118.3655
-1287.95098
-5584.62941
-1992.72232
9717.05421
8491.70291
-4613.67121
-2703.57927
9908.24728
10081.2522
-1126.6433
-5697.97184
-2350.53679
9729.74055
10087.6896
-758.579089
-5324.0217
-1964.07843
9731.51866
10066.8968
-909.237575
-5816.88146
-2171.72299
9290.12494
10471.5061
5054.13411
-4033.84866
-2290.78848
9800.72864
9875.7164
319.26506
-4370.68809
-4391.66275
1051.51104
4301.14646
-2170.85174
-1006.70453
9806.36874
8983.52592
-3839.56492
-4616.36991
6248.60623
10150.4133
6261.79732
-4308.40526
-2471.73139
9446.35962
9876.75409
-714.217997
-6537.42549
-4696.53413
8310.70598
10116.5572
5282.80933
-4502.93705
-2635.63043
9359.95719
9805.75329
-1112.82057
-4520.4964
881.362566
3381.71556
-2689.46458
-1328.46308
8971.44301
10142.4209
9963.09892
5171.78084
-2427.74239
-4565.40857
-5986.87164
-2752.68994
9049.43188
7117.2614
-3853.41355
-2555.40138
8484.7082
10426.1443
9561.06217
-1644.37378
-6225.39196
-2185.25669
8631.34731
10492.5158
6780.66886
-645.419867
-4622.34669
-6381.40063
-3121.40552
8347.12593
10227.6316
7069.90169
-3545.16721
-4910.36198
3773.92465
9386.71187
10250.3953
8600.20775
-1398.84393
-3809.82561
-4304.25864
-5213.97354
130.080175
9327.18578
6719.38101
-3868.10512
-1320.99817
8543.76552
9854.5617
9828.23522
6867.82265
-2262.30682
-3492.45209
-4251.4045
-5431.22547
-1355.34692
8818.31051
10253.788
4931.70537
-3686.13978
-15.3644238
9198.50983
8222.99258
-2486.41874
-5057.09439
443.712885
9295.73733
9732.51044
-259.313633
-5320.95955
-1723.47557
8492.185
10253.5708
5884.17554
-2225.14639
-3371.09546
-4468.82969
-4878.47021
2417.71427
9346.00157
9898.22176
10143.8351
6618.86568
-1525.21667
-4987.8059
-6410.66132
-1934.02411
8008.47503
10067.2979
10010.6606
-862.576232
-5899.92342
-985.491279
8659.93612
4091.3673
-3219.26385
1055.2736
9451.62762
9315.13006
2814.15884
-4337.90469
-5869.70195
-1658.95434
8464.64164
9753.48816
1126.58511
-5889.69045
-1700.20162
7736.60429
10082.0516
10171.0583
1389.89556
-5847.81337
-6540.5293
2419.66544
4573.71998
-3986.00752
-876.311395
8590.94587
9390.93578
727.184681
-7693.05645
-2746.68298
7372.37027
9262.25861
9040.54903
-540.850002
-9507.82154
-3332.52211
6535.55236
7055.22983
7144.7516
7170.06938
1133.97216
-8539.21471
-1394.76293
4878.85324
4293.76705
4777.42366
4584.4076
4730.62291
4622.63457
4648.73192
4569.94049
4607.27567
4606.33452
4889.07621
5462.73005
6597.95249
6686.78164
6663.1612
6494.3117
6190.64391
5811.644
5153.566
4463.5532
4297.15824
4487.28659
5566.38869
5494.91885
4877.1695
4035.84172
2536.87491
795.316353
-1584.35124
-3854.40068
-6689.74104
-9907.61906
-9904.2626
-12238.5053
-14442.7291
-15624.9148
-18498.4549
-19875.7805
-22703.3301
-27034.9607
-32776.9461
-40170.2906
-42189.6039
-46206.9977
-49794.0377
-53621.6999
-57522.1968
-60987.1614
-65581.2068
-68754.4005
-73600.669
-76679.178
-81516.8887
-84682.5883
-89836.2338
-92866.2834
-98402.4528
-101167.094
-107095.569
-109533.52
-115961.293
-117943.943
-124731.715
-126641.53
-134236.951
-134826.838
-141025.779
-144731.451
-153890.229
-143697.578
-151643.559
-170443.651
-180140.606
-133682.918
-159710.934
-213067.621
-214226.092
-103661.636
-147492.22
-255392.261
-254740.833
-107040.175
-145518.929
-281228.798
-279324.488
-139250.286
-165301.572
-279326.938
-274234.487
-162833.629
-187195.454
-266999.558
-267724.697
-175518.266
-192506.661
-251844.654
-251683.803
-176467.011
-193904.806
-236190.093
-238166.42
-175252.142
-191799.367
-223986.217
-225732.282
-172649.156
-188443.829
-214082.884
-215126.879
-169689.122
-184227.452
-205791.958
-206123.604
-166353.039
-179531.75
-198297.292
-198360.565
-162864.804
-174509.804
-191467.93
-191340.929
-159297.014
-169424.938
-184965.176
-184889.616
-155669.864
-163932.982
)
;

boundaryField
{
    closed
    {
        type            lookUpEnthalpy;
        h0              nonuniform List<scalar> 0();
        value           nonuniform List<scalar> 0();
    }
    open
    {
        type            zeroGradient;
    }
    sides
    {
        type            empty;
    }
    procBoundary4to3
    {
        type            processor;
        value           uniform 10150.2255;
    }
    procBoundary4to5
    {
        type            processor;
        value           uniform -179838.454;
    }
}


// ************************************************************************* //
