/*--------------------------------*- C++ -*----------------------------------*\
| =========                 |                                                 |
| \\      /  F ield         | OpenFOAM: The Open Source CFD Toolbox           |
|  \\    /   O peration     | Version:  2306                                  |
|   \\  /    A nd           | Website:  www.openfoam.com                      |
|    \\/     M anipulation  |                                                 |
\*---------------------------------------------------------------------------*/
FoamFile
{
    version     2.0;
    format      ascii;
    arch        "LSB;label=32;scalar=64";
    class       volScalarField;
    location    "0.00054";
    object      H2O;
}
// * * * * * * * * * * * * * * * * * * * * * * * * * * * * * * * * * * * * * //

dimensions      [0 0 0 0 0 0 0];

internalField   nonuniform List<scalar> 
531
(
0.00697536201
0.00711782851
0.000983111642
0.00105405579
0.00692508056
0.00703493601
0.00098426671
0.00105124049
0.00701082554
0.00713092692
0.000973873366
0.00103821195
0.00707212837
0.00719501792
0.000972526016
0.00103484369
0.00705063854
0.00715188578
0.000985987397
0.00104626079
0.00688000128
0.00687645776
0.00103978561
0.00107493481
0.00581596195
0.007379615
0.00678923767
0.000933397027
0.00113433824
0.00115329804
0.00654742396
0.0071962348
0.00719698925
0.00694674397
0.00104980378
0.00107011999
0.00529859082
0.00748257545
0.00683096851
0.000904607475
0.00112899706
0.000958117638
0.00658261487
0.0079902262
0.00733340252
0.000978436182
0.00102384362
0.00713445275
0.00721604502
0.00100509412
0.0010324405
0.0070403735
0.00711051509
0.00101199027
0.00104007636
0.00693353573
0.00686257424
0.00107461907
0.0010794862
0.00635331103
0.00744143422
0.00689164892
0.00101414879
0.00105347008
0.00702028058
0.0068224984
0.00107836429
0.00108067743
0.0061849516
0.00732495461
0.00661489358
0.00106262096
0.00109220423
0.00568621708
0.0071486759
0.00652044065
0.00107543588
0.00111614298
0.00487282744
0.00679779672
0.00688704586
0.00563033937
0.00386172321
0.00680414298
0.00666807388
0.000948639704
0.00110609233
0.000923084859
0.00717178779
0.00753683183
0.000999054804
0.00100768657
0.0074063122
0.00738256432
0.00100277479
0.00100277984
0.00725273882
0.00719205161
0.00103250613
0.000995281132
0.00715192953
0.00705034984
0.00104848111
0.00098873733
0.00701087408
0.00675425447
0.00108771418
0.00107860692
0.00593741069
0.00725149506
0.0065720583
0.00107982487
0.0011038912
0.00493811387
0.00691386653
0.00729884091
0.00692029907
0.00102042459
0.000992272023
0.00725780398
0.00705130762
0.00103919412
0.000945929787
0.00711357065
0.00678126373
0.00108010315
0.00105627214
0.0060589137
0.00740774804
0.0066862808
0.00104804928
0.00106899441
0.00519222571
0.00736311997
0.00681231388
0.00104507397
0.00105469189
0.00533666707
0.00741092055
0.00681636864
0.00104316252
0.00104969969
0.00548780591
0.00747154529
0.00690563727
0.0010104394
0.000968378718
0.00711889257
0.0066967465
0.00107191099
0.00105724491
0.00583566772
0.00753037137
0.0069680284
0.00100603986
0.00105440139
0.00461683552
0.00738185131
0.00699993062
0.0010077941
0.000950919744
0.00713782091
0.00687528053
0.00104779052
0.00108970074
0.00404154168
0.0068708261
0.00730909394
0.00629016624
0.00104970807
0.00106240292
0.00606406448
0.00730407282
0.00613392833
0.00105130398
0.00106164462
0.00599155078
0.00736074261
0.00624970045
0.00100818106
0.001130415
0.00341286859
0.00660502128
0.00703781627
0.00762604774
0.00720243943
0.000847524857
0.00104591854
0.000936399018
0.00106865687
0.00287163425
0.00673760796
0.00698917312
0.00701705574
0.00740358475
0.00519161188
0.00100207162
0.00113063755
0.00102489897
0.00608579329
0.0074071038
0.00640982963
0.00102460934
0.0010351766
0.00635598067
0.00744440901
0.00634114423
0.00102377676
0.00105078286
0.00613105321
0.00743008664
0.00639874937
0.000991673892
0.000802448458
0.00714806702
0.0066081092
0.00101895985
0.0010454424
0.00605637003
0.00746181452
0.00651520122
0.000992234856
0.00104626995
0.00593229035
0.00735520573
0.00638278896
0.000992620115
0.00104371336
0.00597976827
0.00750294139
0.00644631916
0.000926950533
0.00110302184
0.00307790287
0.00698252165
0.00649688852
0.00100273219
0.00101405193
0.00550857404
0.00707752015
0.00708385513
0.00515330562
0.00342263394
0.00645471904
0.00602736067
0.00100406993
0.000878030618
0.00692876921
0.00715255357
0.00209497088
0.00105806212
0.00231987991
0.00706128743
0.0065435897
0.000948622457
0.00101566269
0.00590511572
0.00772360126
0.00716985578
0.000779426942
0.00105161376
0.00301412388
0.00711708651
0.00659096265
0.000935727019
0.00100367908
0.00606422734
0.00712184324
0.00523252814
0.00400681448
0.00660535659
0.00613198831
0.000875699087
0.00105423457
0.00103024493
0.00292096264
0.00653004526
0.00713275983
0.00755258337
0.0066243608
0.000892663888
0.00138904395
0.00693646514
0.00656900864
0.000810899675
0.0010962892
0.000976974046
0.00623088861
0.0076370432
0.00643804669
0.000833067326
0.00110609944
0.0020955524
0.00591285272
0.0071499223
0.00767055058
0.0067297019
0.000786544727
0.00106687675
0.00187821672
0.00684595792
0.00724018746
0.00358045108
0.000950415524
0.00107116533
0.000832237456
0.00617544854
0.00692219574
0.00705855519
0.00732556491
0.00554590376
0.000937144037
0.00185768756
0.00693812292
0.00612894678
0.000813603396
0.00101137431
0.00100991768
0.00186801056
0.00648750908
0.00683088012
0.00704365984
0.00739200076
0.00612484577
0.000861663881
0.00107084974
0.00322387968
0.00688483932
0.00557535732
0.000913515474
0.000774605205
0.0065535014
0.00728328934
0.00538339897
0.000931841318
0.000993818501
0.00569293134
0.00735964703
0.00625829102
0.000815068191
0.00107071111
0.00265047947
0.0064750583
0.0067959173
0.00710684262
0.00722566474
0.00438778821
0.000939560225
0.00102045446
0.00105653418
0.00217950594
0.00623227248
0.00725191612
0.00767742356
0.00634011794
0.000912038199
0.00104292854
0.00103797894
0.00592512705
0.00752653967
0.00596103914
0.000840504226
0.00357522413
0.00675287181
0.00508189041
0.000958701946
0.000932714842
0.00442906913
0.00707043356
0.0075146911
0.00625422105
0.000809050632
0.000996402484
0.00505436741
0.00752540878
0.00623295388
0.001162669
0.00104512996
0.00105909692
0.00502301237
0.0075063861
0.00770039783
0.00423727766
0.00313494139
0.00696927722
0.00584788114
0.000818542647
0.000941128528
0.00506303926
0.00801018289
0.00652327645
0.000616836117
0.000945917366
0.000900147272
0.0053312239
0.00844641986
0.00634542388
0.000788694998
0.00128440362
0.00107910585
0.0014218971
0.00299332479
0.00823653202
0.003875354
0.00205777493
0.00212890725
0.00243313149
0.00256236023
0.00282045926
0.00298800396
0.00320340532
0.00337102189
0.00353087193
0.00365301515
0.00369879236
0.00359089018
0.00328659039
0.00353384701
0.00384778438
0.00408200194
0.00459053013
0.00477997922
0.00547929898
0.00562292865
0.00611944037
0.00596355258
0.00570701265
0.00582932412
0.00647216012
0.00681742798
0.00777923843
0.0083913154
0.00952470847
0.010131246
0.0111202474
0.0118032154
0.0102901908
0.00884156823
0.0117292504
0.00997444863
0.0143713915
0.0109061109
0.00945755294
0.0125012884
0.0137133083
0.0223623251
0.0229439801
0.0241222038
0.02547894
0.0285310329
0.0310321818
0.0333757664
0.0359818749
0.0386680635
0.0409462904
0.0440966539
0.0457377065
0.0482671353
0.04990806
0.0526636775
0.0545794206
0.0576777328
0.0598565067
0.0631594449
0.0656641759
0.0689256857
0.0715188702
0.0748866584
0.0772850908
0.0807873305
0.0829617711
0.085290892
0.0877736192
0.090645882
0.0916244141
0.0959863495
0.0959973216
0.0988776156
0.098791586
0.103387144
0.102031476
0.100307978
0.105563133
0.111282106
0.110890704
0.10521492
0.109423266
0.116485309
0.116439206
0.112398271
0.11172991
0.117878558
0.11819093
0.114260616
0.114942312
0.119474561
0.11889518
0.117273272
0.116024297
0.120143837
0.119715918
0.117897191
0.117597734
0.120666297
0.120169601
0.118445697
0.118544174
0.120861325
0.12048981
0.118814192
0.119152611
0.120920431
0.120653093
0.11906228
0.119468822
0.120900221
0.120715023
0.119211681
0.11960586
0.120851077
0.12070612
0.119291196
0.119655882
0.120779098
0.120661531
0.119326804
0.119654674
0.120704517
0.120598915
0.11933609
0.119596655
)
;

boundaryField
{
    closed
    {
        type            calculated;
        value           nonuniform List<scalar> 0();
    }
    open
    {
        type            calculated;
        value           nonuniform List<scalar> 0();
    }
    sides
    {
        type            empty;
    }
    procBoundary4to3
    {
        type            processor;
        value           uniform 0.00105552299;
    }
    procBoundary4to5
    {
        type            processor;
        value           uniform 0.12055566;
    }
}


// ************************************************************************* //
