/*--------------------------------*- C++ -*----------------------------------*\
| =========                 |                                                 |
| \\      /  F ield         | OpenFOAM: The Open Source CFD Toolbox           |
|  \\    /   O peration     | Version:  2306                                  |
|   \\  /    A nd           | Website:  www.openfoam.com                      |
|    \\/     M anipulation  |                                                 |
\*---------------------------------------------------------------------------*/
FoamFile
{
    version     2.0;
    format      ascii;
    arch        "LSB;label=32;scalar=64";
    class       volScalarField;
    location    "0.00104";
    object      prefDZ_H;
}
// * * * * * * * * * * * * * * * * * * * * * * * * * * * * * * * * * * * * * //

dimensions      [1 -1 -1 0 0 0 0];

internalField   nonuniform List<scalar> 
531
(
0.000107805274
0.000110337874
0.000110347429
0.000106936524
0.000106263442
0.000107788502
0.000110272602
0.000110371938
0.000107186469
0.000107401592
0.000110378784
0.000110305037
0.000106648073
0.000106187979
0.000107888572
0.000110246118
0.000110363974
0.000106864736
0.000106626291
0.000107184413
0.000107828485
0.00011031831
0.000110247917
0.000107108907
0.000106110491
0.000107823339
0.000110190034
0.000110234307
0.000105914575
0.000106400738
0.00011024066
0.000110094656
0.000110178658
0.000109163534
0.000106013908
0.000105219055
0.000107897611
0.000110164269
0.000110230327
0.000105900767
0.000106482709
0.000110325697
0.000110358914
0.000110233898
0.000107385335
0.000106556135
0.000107000194
0.000107797839
0.000110396274
0.000110287817
0.000107121199
0.000107340585
0.000110415176
0.000110312477
0.000106806748
0.000107720511
0.000110231895
0.000107692797
0.000105499855
0.000107527952
0.000110375514
0.000110434939
0.000110241994
0.000107649172
0.0001067088
0.000106962275
0.000107825593
0.000110443234
0.000110189641
0.00010675192
0.000105662828
0.000107777611
0.000110256192
0.000110188259
0.000106030414
0.000106556211
0.000110246503
0.000110283508
0.000110060673
0.000107121741
0.000106875715
0.000110487537
0.000110032338
0.000107088827
0.000105711049
0.000107601227
0.000110311698
0.00011033651
0.000110123764
0.00010719338
0.000106250933
0.000106459239
0.000107167025
0.000110495279
0.000110210549
0.000107772828
0.000106896326
0.000106976085
0.000107746089
0.000110442172
0.000110303546
0.000107305024
0.000107399508
0.000110506079
0.000110265958
0.000107462614
0.000107811387
0.000110419266
0.000110248218
0.000107135854
0.000106388924
0.000105864247
0.000106774372
0.000110348108
0.000110249215
0.000110245373
0.00011014083
0.000107468936
0.000107792766
0.000110356759
0.000110362441
0.000110144288
0.00010719441
0.000105969284
0.000106791335
0.000106217302
0.000107350062
0.000110420302
0.000110174247
0.000107509343
0.000105714145
0.000107283974
0.000110382138
0.000110412919
0.000110195755
0.000107746205
0.000107033666
0.000108109177
0.000110319203
0.000110339107
0.000107426676
0.00010614769
0.000106020003
0.000107173554
0.000110325951
0.000110344474
0.000110094842
0.000107389331
0.000105147514
0.000107299355
0.000110287787
0.000110333906
0.000110223029
0.000110279417
0.000107203417
0.000105953408
0.000106093859
0.000107784368
0.000110271355
0.00011024233
0.000110264096
0.00011021286
0.000107267434
0.000105715372
0.000106871842
0.000106367286
0.000107865039
0.000110255244
0.000110303464
0.000110259445
0.00011025902
0.00010744204
0.000105743358
0.000106873981
0.000106374665
0.000107851488
0.000110233495
0.000110293967
0.00011025337
0.000110263932
0.000107097024
0.00010553567
0.000106612848
0.000105980634
0.000107324186
0.000110272713
0.000110290762
0.000110237016
0.000107696294
0.000107006646
0.000110019465
0.000110241313
0.000110102199
0.000107200403
0.000106390538
0.000110269693
0.000110292089
0.000107186314
0.000106651621
0.000110316839
0.000110349922
0.000107703387
0.000106452468
0.0001068669
0.000107723386
0.000110311686
0.000110568065
0.000107838532
0.000107721424
0.000110326822
0.000107730821
0.000105825299
0.00010733119
0.000110253998
0.000110298092
0.000107800031
0.000105735437
0.000107507757
0.000110156992
0.000110363896
0.00011026395
0.000107836452
0.000106315017
0.000106185609
0.000107425689
0.000110143542
0.000110348155
0.000110226882
0.000107750077
0.000105399918
0.000106754372
0.000110064612
0.00011036744
0.000107884321
0.000106642679
0.000110052212
0.000110280969
0.000107780548
0.000105409436
0.000107775005
0.000110024492
0.000110312935
0.00011017995
0.000108807825
0.000106854067
0.000106381457
0.000106301103
0.000107736525
0.000110107727
0.000110310659
0.00011026644
0.000108861755
0.000107105856
0.000105784582
0.000106976855
0.000110113039
0.000110315758
0.000107738492
0.000105503777
0.000106703653
0.000109946359
0.000110373942
0.00010795672
0.000106882459
0.000109386751
0.000110331253
0.000107978651
0.000106983483
0.000109388749
0.000110290889
0.000107992468
0.000107039782
0.000109530584
0.000110227832
0.00010780234
0.000105794428
0.000107395294
0.000109948126
0.000110340878
0.000107783876
0.000105945561
0.000107417784
0.000109913528
0.000110377806
0.000107946518
0.000107145491
0.000109483173
0.00011021462
0.000107784452
0.000105777678
0.000107794583
0.000109910882
0.000110220082
0.000107646452
0.000105809905
0.000107731375
0.000110012261
0.000110405707
0.00011032086
0.000108068789
0.000106693102
0.000106757598
0.000106642224
0.000107223225
0.000109973314
0.000110549435
0.000107816507
0.000107512525
0.000109546815
0.000110325079
0.00010841386
0.000107319959
0.000107450442
0.000109968076
0.000110035794
0.000107361219
0.000105873771
0.000107271761
0.000109868839
0.00011043418
0.000107843707
0.000107033366
0.00010931769
0.000110126792
0.000107718325
0.000105783211
0.00010746987
0.000109787748
0.000110399696
0.000107874627
0.000107103686
0.000109264552
0.000110228395
0.000107712935
0.000105811508
0.000107679506
0.000109784353
0.000110402644
0.000107881405
0.000107140366
0.000109300218
0.000110258414
0.000107725135
0.000105892082
0.000107840134
0.000109792608
0.000110400131
0.000107888635
0.00010720596
0.000109343847
0.000110253843
0.000107742009
0.000105899536
0.000107827094
0.000109829084
0.000110374281
0.000107744899
0.000105833251
0.000107864698
0.000109838481
0.0001103753
0.000107723289
0.000105738315
0.000107708121
0.000109798902
0.000110431471
0.000107858976
0.000106892145
0.000109305197
0.000110421982
0.000107477117
0.000107553332
0.000109988968
0.000107824622
0.000107351027
0.000109194386
0.000110241327
0.000109825373
0.000107470538
0.00010705278
0.000109631504
0.00011028366
0.000107344857
0.000105529689
0.000107737044
0.00010995887
0.00011057149
0.000107713111
0.000107570748
0.000107828321
0.000107853103
0.000107794339
0.000109904119
0.00011049119
0.00010761142
0.000107076445
0.000109826025
0.000110193656
0.000106800108
0.000105291959
0.000107766302
0.000109832683
0.00011032668
0.000110329422
0.000107594225
0.000107234916
0.000109784508
0.000110185545
0.00011023678
0.000106745971
0.000105247587
0.000107811372
0.000109991174
0.00011041485
0.000106826154
0.000105703497
0.000107833369
0.000110027818
0.00011039213
0.000106876456
0.00010587056
0.000107826615
0.000110032579
0.000110394543
0.000106832058
0.000105944145
0.000107840996
0.000110049844
0.000110392986
0.000106707405
0.000105907769
0.000107843656
0.000110070057
0.000110408832
0.000106565704
0.00010590205
0.000107835574
0.000110135738
0.00011043565
0.000107237801
0.000107392167
0.000110206762
0.000110333506
0.000106347139
0.000105816863
0.000107828378
0.000110150115
0.000110434051
0.000107107326
0.000107496998
0.000110232538
0.000110326813
0.000106193864
0.000105850955
0.000107854397
0.000110167347
0.00011039976
0.00010709342
0.000107669354
0.000110244605
0.000110293672
0.000106105469
0.000105863476
0.000107894312
0.000110123321
0.000110331155
0.000106088287
0.000105920374
0.0001078993
0.000110190592
0.000110329274
0.000106954414
0.00010764462
0.000110263956
0.000110250593
0.000105904064
0.000105820589
0.000107313413
0.000107907848
0.000110103429
0.00011032286
0.000110187262
0.000107099297
0.000107444597
0.000110331356
0.000110146388
0.000105706382
0.000105556044
0.000107862466
0.000110168602
0.000110246459
0.000106738726
0.000107761376
0.000110267738
0.000110146912
0.000105696039
0.00010560939
0.000107887938
0.000110193319
0.000110188764
0.0001069454
0.000107922258
0.000110330115
0.000110084259
0.0001070145
0.000108036959
0.000110295915
0.000110065104
0.000105973347
0.000105908506
0.000107957735
0.000110102314
0.000110117554
0.000106017277
0.000105977653
0.000107970871
0.000110123653
0.000110099428
0.000106047005
0.000106015146
0.000107961889
0.000110177208
0.000110067574
0.000107069761
0.000108079779
0.00011025229
0.000109992942
0.000105868178
0.000105798165
0.000107953517
0.000110106513
)
;

boundaryField
{
    closed
    {
        type            calculated;
        value           nonuniform List<scalar> 0();
    }
    open
    {
        type            calculated;
        value           nonuniform List<scalar> 0();
    }
    sides
    {
        type            empty;
    }
    procBoundary3to2
    {
        type            processor;
        value           uniform 0.000105956241;
    }
    procBoundary3to4
    {
        type            processor;
        value           uniform 0.000109580538;
    }
}


// ************************************************************************* //
