/*--------------------------------*- C++ -*----------------------------------*\
| =========                 |                                                 |
| \\      /  F ield         | OpenFOAM: The Open Source CFD Toolbox           |
|  \\    /   O peration     | Version:  2306                                  |
|   \\  /    A nd           | Website:  www.openfoam.com                      |
|    \\/     M anipulation  |                                                 |
\*---------------------------------------------------------------------------*/
FoamFile
{
    version     2.0;
    format      ascii;
    arch        "LSB;label=32;scalar=64";
    class       volScalarField;
    location    "0.00104";
    object      prefDZ_H2;
}
// * * * * * * * * * * * * * * * * * * * * * * * * * * * * * * * * * * * * * //

dimensions      [1 -1 -1 0 0 0 0];

internalField   nonuniform List<scalar> 
531
(
6.23105801e-05
6.35829164e-05
6.35877001e-05
6.18767342e-05
6.15414941e-05
6.23028741e-05
6.35503434e-05
6.36000501e-05
6.2001879e-05
6.21091737e-05
6.36024745e-05
6.35676487e-05
6.17327854e-05
6.15038461e-05
6.23550497e-05
6.35375296e-05
6.3596069e-05
6.18418238e-05
6.17221558e-05
6.20012083e-05
6.23225192e-05
6.35721732e-05
6.35392667e-05
6.19630297e-05
6.14657698e-05
6.2319918e-05
6.35109404e-05
6.35344247e-05
6.13678061e-05
6.16100408e-05
6.35372077e-05
6.34657761e-05
6.35066369e-05
6.30048535e-05
6.14172088e-05
6.10216483e-05
6.23567483e-05
6.34989741e-05
6.35328982e-05
6.13606095e-05
6.16500491e-05
6.35778983e-05
6.35921432e-05
6.35345192e-05
6.21008256e-05
6.16876294e-05
6.19084089e-05
6.23072596e-05
6.36105247e-05
6.35598372e-05
6.19687125e-05
6.20778857e-05
6.36203843e-05
6.35722895e-05
6.18124349e-05
6.22673893e-05
6.35328273e-05
6.22543836e-05
6.11604399e-05
6.21706192e-05
6.36012274e-05
6.36283875e-05
6.35376645e-05
6.22320649e-05
6.17637538e-05
6.18891804e-05
6.23215038e-05
6.36339156e-05
6.35111747e-05
6.17842081e-05
6.1242116e-05
6.2295967e-05
6.35437721e-05
6.35124695e-05
6.14254373e-05
6.16867015e-05
6.35397778e-05
6.35553156e-05
6.34497352e-05
6.19696599e-05
6.18478121e-05
6.36565695e-05
6.34353072e-05
6.19528198e-05
6.12667979e-05
6.22081805e-05
6.35700519e-05
6.35804356e-05
6.34801773e-05
6.20051176e-05
6.15357148e-05
6.16382544e-05
6.19921384e-05
6.36595933e-05
6.35213879e-05
6.22934181e-05
6.18569111e-05
6.18960022e-05
6.22814225e-05
6.36329569e-05
6.35672353e-05
6.20602804e-05
6.21069326e-05
6.36652293e-05
6.35492261e-05
6.21391333e-05
6.23131077e-05
6.36223939e-05
6.35394845e-05
6.19768936e-05
6.1604075e-05
6.13423464e-05
6.17958349e-05
6.35905295e-05
6.35401384e-05
6.35388439e-05
6.34889897e-05
6.21434325e-05
6.23039871e-05
6.35928518e-05
6.35930639e-05
6.34905939e-05
6.20054822e-05
6.13950597e-05
6.1804309e-05
6.15184544e-05
6.20830935e-05
6.36235283e-05
6.35040122e-05
6.21622816e-05
6.12676479e-05
6.20492798e-05
6.36055071e-05
6.36176798e-05
6.35143457e-05
6.22805892e-05
6.19257663e-05
6.24679453e-05
6.35727991e-05
6.35849743e-05
6.21220574e-05
6.14833563e-05
6.14201148e-05
6.19950102e-05
6.35790354e-05
6.3584622e-05
6.34665311e-05
6.21026585e-05
6.09855448e-05
6.20575664e-05
6.35601207e-05
6.35814946e-05
6.35275459e-05
6.35564376e-05
6.20108827e-05
6.13869125e-05
6.14572842e-05
6.23006083e-05
6.35520882e-05
6.35362307e-05
6.35472888e-05
6.3523629e-05
6.20421585e-05
6.12686845e-05
6.18446939e-05
6.15944407e-05
6.23405304e-05
6.35434382e-05
6.35660328e-05
6.35447056e-05
6.35460941e-05
6.21291507e-05
6.12825616e-05
6.18456422e-05
6.15980859e-05
6.23337982e-05
6.35332008e-05
6.35616021e-05
6.35420971e-05
6.35487679e-05
6.19567696e-05
6.11789682e-05
6.17152452e-05
6.14014102e-05
6.20704629e-05
6.35538008e-05
6.35578854e-05
6.35343834e-05
6.22570778e-05
6.191231e-05
6.34347919e-05
6.35345771e-05
6.34702459e-05
6.20095473e-05
6.16051524e-05
6.35537645e-05
6.35607654e-05
6.20030809e-05
6.17349725e-05
6.35765913e-05
6.35893323e-05
6.22599582e-05
6.16353466e-05
6.18427194e-05
6.22695665e-05
6.35704298e-05
6.36939652e-05
6.23269448e-05
6.22680499e-05
6.35794867e-05
6.22736997e-05
6.13235146e-05
6.20738449e-05
6.35441217e-05
6.3563409e-05
6.23078047e-05
6.12789276e-05
6.21619997e-05
6.34985111e-05
6.35938716e-05
6.35467326e-05
6.23257513e-05
6.15673526e-05
6.15032435e-05
6.21218612e-05
6.34920297e-05
6.35862135e-05
6.35288284e-05
6.2282206e-05
6.11114795e-05
6.17859639e-05
6.34528287e-05
6.35972835e-05
6.23513175e-05
6.17306591e-05
6.34500311e-05
6.35570704e-05
6.22974255e-05
6.11164355e-05
6.22946487e-05
6.34335429e-05
6.35701996e-05
6.35051991e-05
6.28238504e-05
6.1835716e-05
6.15997099e-05
6.15606154e-05
6.22757384e-05
6.34735768e-05
6.35690968e-05
6.35474919e-05
6.28513403e-05
6.19607671e-05
6.13032203e-05
6.18977072e-05
6.34771517e-05
6.35738715e-05
6.22763463e-05
6.11634708e-05
6.17610158e-05
6.3396001e-05
6.36005754e-05
6.23871786e-05
6.18499883e-05
6.31183194e-05
6.35802842e-05
6.23981611e-05
6.1900781e-05
6.31193607e-05
6.35603544e-05
6.24051825e-05
6.19293095e-05
6.31914696e-05
6.35306852e-05
6.23089876e-05
6.13088567e-05
6.21062333e-05
6.33963613e-05
6.35849189e-05
6.2299996e-05
6.13837902e-05
6.21172551e-05
6.33792711e-05
6.36020897e-05
6.23823077e-05
6.19819437e-05
6.31673838e-05
6.3524969e-05
6.22997801e-05
6.1300647e-05
6.23056001e-05
6.33780375e-05
6.35284301e-05
6.22301578e-05
6.13162102e-05
6.227474e-05
6.34267237e-05
6.36154033e-05
6.3573871e-05
6.24472811e-05
6.17553622e-05
6.17871156e-05
6.17308971e-05
6.20196694e-05
6.34087774e-05
6.36863881e-05
6.23163896e-05
6.21637223e-05
6.31997043e-05
6.35758403e-05
6.26232986e-05
6.20684786e-05
6.21345159e-05
6.34065917e-05
6.34402259e-05
6.20877937e-05
6.13482496e-05
6.20442494e-05
6.335826e-05
6.36302102e-05
6.23301329e-05
6.19260453e-05
6.30832254e-05
6.34836984e-05
6.22660145e-05
6.13034621e-05
6.21432574e-05
6.3318295e-05
6.36132524e-05
6.23458848e-05
6.19609885e-05
6.30562142e-05
6.35321136e-05
6.22635519e-05
6.1317327e-05
6.22476189e-05
6.33163047e-05
6.36146943e-05
6.23493102e-05
6.19791952e-05
6.3074373e-05
6.35461697e-05
6.22697287e-05
6.13573589e-05
6.2327603e-05
6.33199307e-05
6.36134134e-05
6.23529607e-05
6.20119726e-05
6.30965911e-05
6.35437425e-05
6.22781978e-05
6.13611119e-05
6.23212748e-05
6.33378346e-05
6.36017948e-05
6.22796801e-05
6.13276161e-05
6.23401411e-05
6.33427671e-05
6.36025568e-05
6.22686082e-05
6.12802013e-05
6.22620175e-05
6.33233773e-05
6.36292803e-05
6.23374991e-05
6.18547852e-05
6.3076923e-05
6.36256006e-05
6.21460344e-05
6.21854788e-05
6.3417833e-05
6.23208326e-05
6.20844034e-05
6.30205816e-05
6.35347361e-05
6.33378244e-05
6.21434238e-05
6.19367021e-05
6.32429319e-05
6.35594219e-05
6.20790253e-05
6.11759885e-05
6.22754715e-05
6.34005472e-05
6.36976125e-05
6.22636894e-05
6.21930645e-05
6.23242389e-05
6.23345441e-05
6.23045144e-05
6.33743558e-05
6.36586051e-05
6.22128601e-05
6.19476161e-05
6.33381318e-05
6.35161428e-05
6.18076176e-05
6.10582889e-05
6.22911625e-05
6.33401721e-05
6.35757386e-05
6.35812221e-05
6.2204881e-05
6.20269457e-05
6.33180171e-05
6.35078054e-05
6.35368439e-05
6.1781323e-05
6.10351943e-05
6.23140346e-05
6.34154978e-05
6.36220639e-05
6.18219333e-05
6.12625357e-05
6.23254517e-05
6.34328294e-05
6.36109494e-05
6.18470421e-05
6.13460695e-05
6.23224594e-05
6.34347404e-05
6.36121762e-05
6.18250953e-05
6.13827679e-05
6.23300081e-05
6.3442986e-05
6.36115878e-05
6.17629658e-05
6.13645873e-05
6.23314402e-05
6.34528361e-05
6.36195274e-05
6.16922595e-05
6.13614955e-05
6.23272119e-05
6.34843238e-05
6.36321341e-05
6.20275457e-05
6.21052383e-05
6.35193828e-05
6.35834366e-05
6.15827523e-05
6.13192329e-05
6.23237355e-05
6.34912125e-05
6.36318718e-05
6.19625778e-05
6.21574633e-05
6.35317531e-05
6.35803853e-05
6.15064684e-05
6.13362416e-05
6.23371138e-05
6.3499407e-05
6.36155855e-05
6.19557902e-05
6.22435465e-05
6.35373724e-05
6.35643285e-05
6.14625903e-05
6.13427323e-05
6.23576639e-05
6.34784321e-05
6.35830277e-05
6.14545648e-05
6.13708289e-05
6.23600236e-05
6.35106635e-05
6.35821019e-05
6.18865246e-05
6.22313771e-05
6.35468609e-05
6.35447661e-05
6.13622133e-05
6.13210536e-05
6.2065984e-05
6.23646449e-05
6.34687291e-05
6.35738953e-05
6.35149869e-05
6.19581596e-05
6.21321463e-05
6.35798478e-05
6.34945611e-05
6.12632334e-05
6.11895566e-05
6.23411227e-05
6.35003151e-05
6.35431597e-05
6.1778992e-05
6.22898573e-05
6.35490185e-05
6.34952299e-05
6.12583698e-05
6.12160901e-05
6.2354144e-05
6.35122711e-05
6.35152921e-05
6.18818629e-05
6.23703197e-05
6.35785744e-05
6.34644673e-05
6.19159978e-05
6.24279863e-05
6.3562429e-05
6.3455296e-05
6.13969117e-05
6.13658325e-05
6.23901138e-05
6.34680876e-05
6.34812132e-05
6.14194703e-05
6.14001245e-05
6.23967396e-05
6.34785104e-05
6.3472635e-05
6.1434199e-05
6.1418746e-05
6.23921215e-05
6.35040709e-05
6.34568057e-05
6.19441849e-05
6.24493493e-05
6.35411766e-05
6.34210788e-05
6.13445345e-05
6.13108481e-05
6.23879051e-05
6.34705414e-05
)
;

boundaryField
{
    closed
    {
        type            calculated;
        value           nonuniform List<scalar> 0();
    }
    open
    {
        type            calculated;
        value           nonuniform List<scalar> 0();
    }
    sides
    {
        type            empty;
    }
    procBoundary3to2
    {
        type            processor;
        value           uniform 6.13879473e-05;
    }
    procBoundary3to4
    {
        type            processor;
        value           uniform 6.32167492e-05;
    }
}


// ************************************************************************* //
