/*--------------------------------*- C++ -*----------------------------------*\
| =========                 |                                                 |
| \\      /  F ield         | OpenFOAM: The Open Source CFD Toolbox           |
|  \\    /   O peration     | Version:  2306                                  |
|   \\  /    A nd           | Website:  www.openfoam.com                      |
|    \\/     M anipulation  |                                                 |
\*---------------------------------------------------------------------------*/
FoamFile
{
    version     2.0;
    format      ascii;
    arch        "LSB;label=32;scalar=64";
    class       volScalarField;
    location    "0.00186";
    object      prefDPV_T;
}
// * * * * * * * * * * * * * * * * * * * * * * * * * * * * * * * * * * * * * //

dimensions      [1 -1 -1 -1 0 0 0];

internalField   nonuniform List<scalar> 
530
(
6.19610693e-10
5.99717936e-10
5.97528077e-10
5.97546336e-10
5.97549736e-10
5.97549779e-10
5.97549775e-10
5.97549775e-10
5.97549775e-10
5.97549775e-10
5.97549775e-10
5.97549775e-10
5.97549775e-10
5.97549775e-10
5.97549775e-10
5.97549775e-10
5.97549775e-10
5.97549775e-10
5.97549775e-10
5.97549775e-10
5.97549775e-10
5.97549775e-10
5.97549775e-10
5.97549775e-10
5.97549775e-10
5.97549775e-10
5.97549775e-10
5.97549775e-10
5.97549775e-10
5.97549775e-10
5.97549775e-10
5.97549775e-10
5.97549775e-10
5.97549775e-10
5.97549775e-10
5.97549775e-10
5.97549775e-10
5.97549775e-10
5.97549775e-10
5.97549775e-10
5.97549775e-10
5.97549775e-10
5.97549775e-10
5.97549775e-10
5.97549775e-10
5.97549775e-10
5.97549775e-10
5.97549775e-10
5.97549775e-10
5.97549775e-10
5.97549775e-10
5.97549775e-10
5.97549775e-10
5.97549775e-10
5.97549775e-10
5.97549775e-10
5.97549775e-10
5.97549775e-10
5.97549775e-10
5.97549775e-10
5.97549775e-10
5.97549775e-10
5.97549775e-10
5.97549777e-10
5.97549779e-10
5.97549801e-10
5.97549767e-10
5.97549766e-10
5.9755012e-10
5.97550439e-10
5.97548979e-10
5.97543679e-10
5.97544438e-10
5.97611133e-10
5.97633982e-10
5.97249629e-10
5.97000927e-10
5.98315666e-10
5.99389923e-10
5.96861899e-10
5.91453297e-10
5.91803216e-10
6.0995622e-10
6.08322694e-10
5.97192144e-10
5.90976365e-10
5.94224984e-10
5.97175451e-10
5.94358908e-10
5.90612253e-10
5.89829141e-10
5.90835592e-10
6.10010367e-10
6.07878865e-10
6.08631646e-10
5.97324314e-10
5.89100782e-10
5.89193023e-10
6.09823398e-10
6.08432945e-10
6.08561884e-10
5.92117457e-10
5.90134837e-10
5.87491194e-10
5.87507614e-10
6.11189251e-10
6.09366207e-10
6.10183664e-10
6.08902419e-10
6.09073081e-10
5.90534677e-10
5.89473282e-10
6.09640466e-10
6.0878548e-10
5.92493241e-10
5.90252706e-10
5.88240093e-10
5.88179884e-10
6.10991767e-10
6.09007974e-10
6.10085097e-10
6.0849274e-10
6.09085952e-10
5.95196478e-10
5.89856961e-10
5.8971533e-10
5.87540731e-10
5.8742782e-10
6.11577774e-10
6.0976757e-10
6.1064877e-10
5.88754963e-10
5.88194103e-10
6.1171589e-10
6.09613036e-10
6.10166225e-10
6.09381225e-10
5.90804986e-10
5.89019628e-10
6.10271828e-10
6.09016906e-10
5.90137391e-10
5.89610401e-10
6.09937765e-10
6.08846162e-10
5.97512111e-10
5.90550904e-10
5.90423814e-10
5.8854564e-10
5.88451041e-10
6.10999653e-10
6.09464518e-10
6.0965438e-10
6.09337292e-10
5.91463512e-10
5.89442659e-10
6.09794457e-10
6.0929232e-10
5.97502258e-10
5.88739654e-10
5.88962177e-10
6.10322954e-10
5.92782138e-10
5.88428393e-10
6.10282645e-10
6.09253904e-10
5.90202221e-10
5.89390209e-10
6.10726539e-10
6.08975894e-10
5.89819855e-10
5.89715884e-10
6.112984e-10
6.09421865e-10
6.10350532e-10
6.07199283e-10
5.88576019e-10
5.88458123e-10
6.11261539e-10
6.09341139e-10
6.09542889e-10
6.09006802e-10
5.93956824e-10
5.90228535e-10
5.94290094e-10
5.91057737e-10
5.88867107e-10
6.09931578e-10
6.09553204e-10
5.93928633e-10
5.86985817e-10
5.87045737e-10
6.11010547e-10
6.09331381e-10
6.09776908e-10
5.90793693e-10
5.90378289e-10
6.10844351e-10
5.92231532e-10
5.88207146e-10
6.11175108e-10
6.08888405e-10
6.09891481e-10
5.96731807e-10
5.88842134e-10
5.88909801e-10
6.10417532e-10
6.09180273e-10
6.09220846e-10
6.08993964e-10
5.949414e-10
5.9016559e-10
5.87833189e-10
5.87745137e-10
6.11447405e-10
6.09560897e-10
5.90158709e-10
5.88812689e-10
6.1059313e-10
6.09140305e-10
5.9372881e-10
5.8985941e-10
5.88897883e-10
5.89795646e-10
6.10439955e-10
6.09091034e-10
6.09252662e-10
6.09267664e-10
5.90755671e-10
5.88741582e-10
5.95782932e-10
6.09434748e-10
6.08269647e-10
5.92259036e-10
5.9056245e-10
6.10891602e-10
6.00641912e-10
5.88416714e-10
6.1068327e-10
6.10003095e-10
5.94576879e-10
5.87509441e-10
5.8740461e-10
6.11263062e-10
6.09433619e-10
6.09594225e-10
5.90406841e-10
5.88285207e-10
6.10933512e-10
6.10720367e-10
5.91105552e-10
6.11324811e-10
6.091279e-10
5.93364604e-10
5.87409685e-10
5.87512824e-10
6.11687657e-10
6.09369469e-10
6.10346747e-10
5.91231446e-10
5.89086134e-10
6.11238519e-10
6.0936095e-10
5.89912767e-10
5.89532673e-10
6.11827812e-10
6.09060339e-10
6.09901605e-10
5.90835499e-10
5.89185824e-10
6.112654e-10
6.09480906e-10
5.89923062e-10
5.88726734e-10
6.00512171e-10
6.09467813e-10
6.09289622e-10
6.0240084e-10
5.88610657e-10
5.88530282e-10
6.11298674e-10
6.09830504e-10
5.93569165e-10
5.87165825e-10
5.87158583e-10
6.11332157e-10
6.09041439e-10
6.09451505e-10
5.94570614e-10
5.90410647e-10
5.88564701e-10
5.88485273e-10
6.05104762e-10
6.09578055e-10
6.09283395e-10
6.09157132e-10
5.93152102e-10
5.89906414e-10
6.10633031e-10
6.08828193e-10
5.90907847e-10
5.89521172e-10
6.10939619e-10
6.09003694e-10
5.90845726e-10
5.89500644e-10
6.10633627e-10
6.09429507e-10
5.95831722e-10
5.88520813e-10
5.88370398e-10
6.10933394e-10
6.09323109e-10
5.91181061e-10
5.89832414e-10
6.10713257e-10
6.0930453e-10
5.97359351e-10
5.8904539e-10
5.88978398e-10
6.10786814e-10
6.09551105e-10
5.96944148e-10
5.88511362e-10
5.88423612e-10
6.10963943e-10
6.08775131e-10
6.09003468e-10
5.94060785e-10
5.90878704e-10
5.88037201e-10
5.88103715e-10
6.11947006e-10
6.09013973e-10
6.09987363e-10
5.91603749e-10
5.89509211e-10
6.1092325e-10
6.08967657e-10
5.91142559e-10
5.90012809e-10
6.1090524e-10
6.08854704e-10
5.91335612e-10
5.90281714e-10
6.10810872e-10
6.09165682e-10
6.00361807e-10
5.89365872e-10
5.89179248e-10
6.11125927e-10
6.08954646e-10
5.91508156e-10
5.90426832e-10
6.10629737e-10
6.08511822e-10
5.94997e-10
5.91227615e-10
5.888342e-10
5.8873445e-10
6.11005668e-10
6.09327996e-10
5.92675121e-10
5.89336741e-10
5.91213864e-10
6.10126704e-10
6.08045471e-10
6.09005494e-10
6.08216743e-10
5.99064368e-10
5.90745171e-10
5.87909303e-10
5.87805928e-10
6.1147034e-10
6.09550535e-10
5.93392703e-10
5.88568461e-10
5.88361394e-10
5.93833984e-10
6.10270884e-10
6.08686563e-10
6.09391169e-10
6.08997119e-10
6.08663689e-10
6.08727064e-10
5.94721562e-10
5.89546731e-10
5.89553181e-10
5.88469954e-10
5.87921056e-10
5.91037601e-10
6.10024878e-10
6.08207156e-10
5.93036542e-10
5.8961162e-10
6.11422832e-10
6.08772404e-10
5.91659063e-10
5.90408603e-10
6.11281378e-10
6.08543341e-10
5.95694088e-10
5.91402825e-10
5.89229482e-10
5.88916061e-10
6.12127028e-10
6.09255452e-10
5.91251323e-10
5.89515578e-10
6.12016757e-10
6.09118155e-10
5.91331391e-10
5.89210106e-10
6.11736756e-10
6.08980377e-10
5.94781496e-10
5.89479681e-10
5.88343913e-10
5.88941446e-10
6.11773978e-10
6.08854351e-10
6.10658262e-10
6.08763724e-10
6.10180531e-10
6.0845226e-10
6.09449689e-10
5.92894342e-10
5.88374795e-10
5.88026448e-10
6.11667049e-10
6.0921047e-10
5.91435713e-10
5.89951697e-10
6.11451266e-10
6.08636025e-10
5.95458685e-10
5.9112234e-10
5.8897522e-10
5.88827312e-10
6.11872529e-10
6.09637418e-10
5.95921998e-10
5.88335441e-10
5.88255483e-10
6.12093405e-10
6.09089274e-10
6.09213602e-10
5.91657624e-10
5.90480992e-10
6.11651281e-10
6.09156557e-10
6.01573654e-10
5.89632125e-10
5.8953208e-10
6.11903151e-10
6.09401079e-10
5.98745248e-10
5.89335892e-10
5.89261169e-10
6.11767641e-10
6.09479149e-10
5.98478046e-10
5.89225312e-10
5.89048298e-10
6.11578679e-10
6.09046965e-10
5.94570474e-10
5.90879931e-10
5.88074626e-10
5.87909333e-10
6.12771752e-10
6.08920035e-10
6.09570867e-10
5.92090828e-10
5.89278336e-10
5.95359703e-10
6.09909568e-10
6.08437148e-10
6.08918292e-10
6.08590296e-10
5.99387114e-10
5.91021952e-10
5.88049846e-10
5.87894466e-10
6.12799019e-10
6.11286591e-10
5.91159493e-10
6.12520993e-10
6.08895811e-10
5.94714927e-10
5.88868581e-10
5.88903346e-10
6.11760053e-10
6.0972491e-10
5.96859795e-10
5.88842499e-10
5.8852822e-10
6.12017564e-10
6.09208513e-10
5.91727954e-10
5.90006633e-10
6.11824231e-10
6.08893561e-10
5.9185731e-10
5.90313521e-10
6.11814434e-10
6.09102219e-10
6.01806622e-10
5.89554464e-10
5.89523383e-10
6.11934223e-10
5.9468926e-10
5.88760981e-10
6.12214603e-10
6.09238427e-10
5.90943613e-10
5.90002897e-10
6.10854455e-10
6.08881321e-10
6.10158331e-10
6.02238508e-10
5.88930142e-10
5.8855644e-10
6.12398704e-10
6.09002863e-10
5.91249378e-10
5.90795396e-10
6.12066529e-10
5.96742004e-10
5.88667209e-10
)
;

boundaryField
{
    closed
    {
        type            calculated;
        value           uniform 7.28198765e-10;
    }
    open
    {
        type            calculated;
        value           nonuniform List<scalar> 0();
    }
    sides
    {
        type            empty;
    }
    procBoundary0to1
    {
        type            processor;
        value           uniform 6.12266619e-10;
    }
}


// ************************************************************************* //
