/*--------------------------------*- C++ -*----------------------------------*\
| =========                 |                                                 |
| \\      /  F ield         | OpenFOAM: The Open Source CFD Toolbox           |
|  \\    /   O peration     | Version:  2306                                  |
|   \\  /    A nd           | Website:  www.openfoam.com                      |
|    \\/     M anipulation  |                                                 |
\*---------------------------------------------------------------------------*/
FoamFile
{
    version     2.0;
    format      ascii;
    arch        "LSB;label=32;scalar=64";
    class       volScalarField;
    location    "0.0004";
    object      prefDZ_T;
}
// * * * * * * * * * * * * * * * * * * * * * * * * * * * * * * * * * * * * * //

dimensions      [1 -1 -1 -1 0 0 0];

internalField   nonuniform List<scalar> 
530
(
-1.07938807e-10
-1.07684733e-10
-1.07426264e-10
-1.07175231e-10
-1.06927013e-10
-1.06679254e-10
-1.06440541e-10
-1.06196243e-10
-1.05966353e-10
-1.05725666e-10
-1.05503975e-10
-1.05267015e-10
-1.0505295e-10
-1.04823843e-10
-1.04623972e-10
-1.04402066e-10
-1.04208483e-10
-1.0399026e-10
-1.03802606e-10
-1.03588125e-10
-1.03406077e-10
-1.03195373e-10
-1.03018639e-10
-1.02811732e-10
-1.02640044e-10
-1.02436939e-10
-1.02270051e-10
-1.02070746e-10
-1.01908428e-10
-1.01712911e-10
-1.0155495e-10
-1.01363202e-10
-1.01209401e-10
-1.01020088e-10
-1.00869276e-10
-1.00685561e-10
-1.00541434e-10
-1.00360836e-10
-1.00220309e-10
-1.00042822e-10
-9.99057649e-11
-9.97313721e-11
-9.95976695e-11
-9.94263413e-11
-9.92958989e-11
-9.91275895e-11
-9.90003341e-11
-9.88349791e-11
-9.87108617e-11
-9.85483735e-11
-9.84273738e-11
-9.82676347e-11
-9.81497704e-11
-9.79926198e-11
-9.78779624e-11
-9.77231761e-11
-9.76118787e-11
-9.74591321e-11
-9.73514865e-11
-9.72002732e-11
-9.70968438e-11
-9.69461659e-11
-9.68481308e-11
-9.67024507e-11
-9.66155666e-11
-9.6473099e-11
-9.63836571e-11
-9.62479481e-11
-9.61577098e-11
-9.60274061e-11
-9.59373048e-11
-9.58116159e-11
-9.5722185e-11
-9.56005983e-11
-9.55121681e-11
-9.53943272e-11
-9.53071067e-11
-9.51913971e-11
-9.51035698e-11
-9.49897045e-11
-9.49031e-11
-9.47921115e-11
-9.47067867e-11
-9.45986e-11
-9.45145853e-11
-9.44091434e-11
-9.43264519e-11
-9.42237079e-11
-9.41423417e-11
-9.4042254e-11
-9.39622079e-11
-9.38647367e-11
-9.37860014e-11
-9.36911065e-11
-9.36136705e-11
-9.35213096e-11
-9.34451604e-11
-9.33552885e-11
-9.32804134e-11
-9.3192982e-11
-9.31193684e-11
-9.30343255e-11
-9.2961961e-11
-9.28792507e-11
-9.28090523e-11
-9.27340079e-11
-9.26686742e-11
-9.25955705e-11
-9.25313339e-11
-9.2460137e-11
-9.23970035e-11
-9.23276769e-11
-9.22656531e-11
-9.21981577e-11
-9.21372506e-11
-9.20715452e-11
-9.2011762e-11
-9.19478039e-11
-9.18891511e-11
-9.18268964e-11
-9.17693801e-11
-9.17087842e-11
-9.16524096e-11
-9.15934276e-11
-9.15381984e-11
-9.14807854e-11
-9.14267042e-11
-9.13708154e-11
-9.1317883e-11
-9.12634744e-11
-9.12116899e-11
-9.11587182e-11
-9.11080789e-11
-9.10565013e-11
-9.10070031e-11
-9.09567777e-11
-9.09084148e-11
-9.08595003e-11
-9.08122661e-11
-9.07646212e-11
-9.07185084e-11
-9.06720916e-11
-9.06270924e-11
-9.05818204e-11
-9.0537398e-11
-9.04928093e-11
-9.04494762e-11
-9.04059753e-11
-9.03637555e-11
-9.03214072e-11
-9.02802897e-11
-9.02390512e-11
-9.01990215e-11
-9.01588526e-11
-9.01198939e-11
-9.00807556e-11
-9.00428501e-11
-9.00047035e-11
-8.99678342e-11
-8.99306387e-11
-8.98947917e-11
-8.98585033e-11
-8.98236685e-11
-8.97882384e-11
-8.97544104e-11
-8.97197848e-11
-8.96869612e-11
-8.9653082e-11
-8.96212606e-11
-8.95912101e-11
-8.95671725e-11
-8.95422689e-11
-8.95188872e-11
-8.94946562e-11
-8.94719549e-11
-8.94483607e-11
-8.94263506e-11
-8.94033671e-11
-8.9382049e-11
-8.93596577e-11
-8.93390252e-11
-8.93172129e-11
-8.92972557e-11
-8.92760119e-11
-8.9256718e-11
-8.92360338e-11
-8.92173902e-11
-8.91972573e-11
-8.91792511e-11
-8.91596611e-11
-8.91422795e-11
-8.91232239e-11
-8.91064543e-11
-8.90879248e-11
-8.90717545e-11
-8.90537425e-11
-8.90381591e-11
-8.90206562e-11
-8.90056469e-11
-8.89886447e-11
-8.89741969e-11
-8.8957687e-11
-8.89437882e-11
-8.89277623e-11
-8.89143997e-11
-8.88988495e-11
-8.88860104e-11
-8.88709277e-11
-8.88585995e-11
-8.88439759e-11
-8.88321458e-11
-8.88179731e-11
-8.88066286e-11
-8.87928984e-11
-8.87820269e-11
-8.87687309e-11
-8.87583198e-11
-8.87454496e-11
-8.87354865e-11
-8.87230337e-11
-8.8713506e-11
-8.87014625e-11
-8.86923575e-11
-8.86807153e-11
-8.86720202e-11
-8.86607714e-11
-8.86524731e-11
-8.86416106e-11
-8.86336954e-11
-8.86232125e-11
-8.8615666e-11
-8.86055572e-11
-8.85983639e-11
-8.8588625e-11
-8.8581768e-11
-8.85723963e-11
-8.85658571e-11
-8.8556852e-11
-8.85506098e-11
-8.85419733e-11
-8.8536005e-11
-8.85277413e-11
-8.85220213e-11
-8.85141376e-11
-8.85086379e-11
-8.85011436e-11
-8.84958342e-11
-8.84887404e-11
-8.84835905e-11
-8.84769091e-11
-8.84718877e-11
-8.84656302e-11
-8.84607074e-11
-8.84548838e-11
-8.84500317e-11
-8.84446491e-11
-8.84398423e-11
-8.84349046e-11
-8.84301199e-11
-8.84256279e-11
-8.84208448e-11
-8.84167967e-11
-8.84123433e-11
-8.84084556e-11
-8.84042133e-11
-8.84005835e-11
-8.8396442e-11
-8.83928304e-11
-8.83890428e-11
-8.8385492e-11
-8.83820048e-11
-8.83785518e-11
-8.83753179e-11
-8.8371991e-11
-8.83689718e-11
-8.83657901e-11
-8.83629557e-11
-8.83599301e-11
-8.83572583e-11
-8.8354393e-11
-8.83518675e-11
-8.83491622e-11
-8.8346771e-11
-8.83442221e-11
-8.83419565e-11
-8.83395585e-11
-8.83374116e-11
-8.83351577e-11
-8.8333124e-11
-8.83310071e-11
-8.83290818e-11
-8.83270945e-11
-8.83252734e-11
-8.83234084e-11
-8.83216875e-11
-8.83199377e-11
-8.8318313e-11
-8.83166719e-11
-8.83151395e-11
-8.83136006e-11
-8.83121568e-11
-8.83107143e-11
-8.83093551e-11
-8.83080033e-11
-8.83067249e-11
-8.83054586e-11
-8.83042574e-11
-8.83030716e-11
-8.83019437e-11
-8.83008338e-11
-8.82997757e-11
-8.82987373e-11
-8.82977454e-11
-8.82967743e-11
-8.82958452e-11
-8.82949374e-11
-8.82940678e-11
-8.82932197e-11
-8.82924063e-11
-8.82916143e-11
-8.8290854e-11
-8.82901149e-11
-8.82894048e-11
-8.82887153e-11
-8.82880525e-11
-8.82874097e-11
-8.82867914e-11
-8.82861924e-11
-8.8285616e-11
-8.82850582e-11
-8.82845212e-11
-8.8284002e-11
-8.82835021e-11
-8.82830191e-11
-8.8282554e-11
-8.82821049e-11
-8.82816725e-11
-8.82812552e-11
-8.82808533e-11
-8.82804657e-11
-8.82800925e-11
-8.82797328e-11
-8.82793863e-11
-8.82790526e-11
-8.82787312e-11
-8.82784218e-11
-8.82781239e-11
-8.82778372e-11
-8.82775611e-11
-8.82772956e-11
-8.82770399e-11
-8.82767941e-11
-8.82765575e-11
-8.82763301e-11
-8.82761112e-11
-8.82759009e-11
-8.82756985e-11
-8.82755041e-11
-8.82753171e-11
-8.82751376e-11
-8.82749648e-11
-8.8274799e-11
-8.82746395e-11
-8.82744866e-11
-8.82743394e-11
-8.82741983e-11
-8.82740625e-11
-8.82739324e-11
-8.82738072e-11
-8.82736873e-11
-8.82735719e-11
-8.82734614e-11
-8.82733552e-11
-8.82732534e-11
-8.82731555e-11
-8.82730618e-11
-8.82729717e-11
-8.82728855e-11
-8.82728025e-11
-8.82727233e-11
-8.82726468e-11
-8.82725741e-11
-8.82725035e-11
-8.82724368e-11
-8.8272372e-11
-8.82723103e-11
-8.82722514e-11
-8.82721935e-11
-8.82721408e-11
-8.82720957e-11
-8.82720859e-11
-8.82720765e-11
-8.82720677e-11
-8.82720594e-11
-8.82720516e-11
-8.82720443e-11
-8.82720373e-11
-8.82720309e-11
-8.82720247e-11
-8.8272019e-11
-8.82720136e-11
-8.82720086e-11
-8.82720038e-11
-8.82719994e-11
-8.82719952e-11
-8.82719913e-11
-8.82719876e-11
-8.82719842e-11
-8.8271981e-11
-8.8271978e-11
-8.82719752e-11
-8.82719726e-11
-8.82719701e-11
-8.82719678e-11
-8.82719656e-11
-8.82719636e-11
-8.82719617e-11
-8.827196e-11
-8.82719584e-11
-8.82719569e-11
-8.82719554e-11
-8.82719541e-11
-8.82719529e-11
-8.82719518e-11
-8.82719507e-11
-8.82719497e-11
-8.82719487e-11
-8.82719479e-11
-8.82719471e-11
-8.82719464e-11
-8.82719456e-11
-8.8271945e-11
-8.82719444e-11
-8.82719439e-11
-8.82719433e-11
-8.82719429e-11
-8.82719424e-11
-8.8271942e-11
-8.82719416e-11
-8.82719413e-11
-8.8271941e-11
-8.82719407e-11
-8.82719404e-11
-8.82719402e-11
-8.82719399e-11
-8.82719397e-11
-8.82719395e-11
-8.82719393e-11
-8.82719391e-11
-8.8271939e-11
-8.82719388e-11
-8.82719387e-11
-8.82719386e-11
-8.82719384e-11
-8.82719383e-11
-8.82719382e-11
-8.82719381e-11
-8.8271938e-11
-8.82719379e-11
-8.82719378e-11
-8.82719377e-11
-8.82719376e-11
-8.82719375e-11
-8.82719374e-11
-8.82719374e-11
-8.82719373e-11
-8.82719373e-11
-8.82719372e-11
-8.82719372e-11
-8.82719372e-11
-8.82719372e-11
-8.82719371e-11
-8.82719371e-11
-8.82719371e-11
-8.82719371e-11
-8.82719371e-11
-8.82719371e-11
-8.82719371e-11
-8.82719371e-11
-8.82719371e-11
-8.82719371e-11
-8.82719371e-11
-8.82719371e-11
-8.82719371e-11
-8.82719371e-11
-8.82719371e-11
-8.82719371e-11
-8.82719371e-11
-8.82719371e-11
-8.82719371e-11
-8.82719371e-11
-8.82719371e-11
-8.82719371e-11
-8.82719371e-11
-8.82719371e-11
-8.82719371e-11
-8.82719371e-11
-8.82719371e-11
-8.82719371e-11
-8.82719371e-11
-8.82719371e-11
-8.82719371e-11
-8.82719371e-11
-8.82719371e-11
-8.82719371e-11
-8.82719371e-11
-8.82719371e-11
-8.82719371e-11
-8.82719371e-11
-8.82719371e-11
-8.82719371e-11
-8.82719371e-11
-8.82719371e-11
-8.82719371e-11
-8.82719371e-11
-8.82719371e-11
-8.82719371e-11
-8.82719371e-11
-8.82719371e-11
-8.82719371e-11
-8.82719371e-11
-8.82719371e-11
-8.82719371e-11
-8.82719371e-11
-8.82719371e-11
-8.82719371e-11
-8.82719371e-11
-8.82719371e-11
-8.82719371e-11
-8.82719371e-11
)
;

boundaryField
{
    closed
    {
        type            calculated;
        value           nonuniform List<scalar> 0();
    }
    open
    {
        type            calculated;
        value           uniform -8.82719371e-11;
    }
    sides
    {
        type            empty;
    }
    procBoundary5to4
    {
        type            processor;
        value           uniform -1.08208354e-10;
    }
}


// ************************************************************************* //
