/*--------------------------------*- C++ -*----------------------------------*\
| =========                 |                                                 |
| \\      /  F ield         | OpenFOAM: The Open Source CFD Toolbox           |
|  \\    /   O peration     | Version:  2306                                  |
|   \\  /    A nd           | Website:  www.openfoam.com                      |
|    \\/     M anipulation  |                                                 |
\*---------------------------------------------------------------------------*/
FoamFile
{
    version     2.0;
    format      ascii;
    arch        "LSB;label=32;scalar=64";
    class       volScalarField;
    location    "0.0005";
    object      prefDZ_H2O;
}
// * * * * * * * * * * * * * * * * * * * * * * * * * * * * * * * * * * * * * //

dimensions      [1 -1 -1 0 0 0 0];

internalField   nonuniform List<scalar> 
530
(
-7.5496987e-07
-7.52159343e-07
-7.52077994e-07
-7.52079897e-07
-7.52080021e-07
-7.52080021e-07
-7.52080022e-07
-7.52080022e-07
-7.52080022e-07
-7.52080022e-07
-7.52080022e-07
-7.52080022e-07
-7.52080022e-07
-7.52080022e-07
-7.52080022e-07
-7.52080022e-07
-7.52080022e-07
-7.52080022e-07
-7.52080022e-07
-7.52080022e-07
-7.52080022e-07
-7.52080022e-07
-7.52080022e-07
-7.52080022e-07
-7.52080022e-07
-7.52080022e-07
-7.52080022e-07
-7.52080022e-07
-7.52080022e-07
-7.52080022e-07
-7.52080022e-07
-7.52080022e-07
-7.52080022e-07
-7.52080022e-07
-7.52080022e-07
-7.52080022e-07
-7.52080022e-07
-7.52080022e-07
-7.52080022e-07
-7.52080022e-07
-7.52080022e-07
-7.52080022e-07
-7.52080022e-07
-7.52080022e-07
-7.52080022e-07
-7.52080022e-07
-7.52080022e-07
-7.52080022e-07
-7.52080022e-07
-7.52080022e-07
-7.52080022e-07
-7.52080022e-07
-7.52080022e-07
-7.52080022e-07
-7.52080022e-07
-7.52080022e-07
-7.52080022e-07
-7.52080022e-07
-7.52080022e-07
-7.52080022e-07
-7.52080022e-07
-7.52080022e-07
-7.52080022e-07
-7.52080022e-07
-7.52080022e-07
-7.52080022e-07
-7.52080022e-07
-7.52080022e-07
-7.52080022e-07
-7.52080022e-07
-7.52080022e-07
-7.52080022e-07
-7.52080022e-07
-7.52080022e-07
-7.52080022e-07
-7.52080022e-07
-7.52080021e-07
-7.52080021e-07
-7.52080021e-07
-7.52080021e-07
-7.52080018e-07
-7.52080019e-07
-7.52080046e-07
-7.52080001e-07
-7.52079612e-07
-7.52080271e-07
-7.52082899e-07
-7.52080332e-07
-7.52054109e-07
-7.52040395e-07
-7.52152741e-07
-7.52398946e-07
-7.5218537e-07
-7.50596036e-07
-7.50666851e-07
-7.54851455e-07
-7.55877024e-07
-7.46434066e-07
-7.39621553e-07
-7.40971497e-07
-7.71732442e-07
-7.76408769e-07
-7.66498086e-07
-7.37747639e-07
-7.35297156e-07
-7.42696052e-07
-7.78730301e-07
-7.7588289e-07
-7.43468111e-07
-7.44442312e-07
-7.77783171e-07
-7.76350231e-07
-7.39461911e-07
-7.34846442e-07
-7.40045694e-07
-7.77126357e-07
-7.74954184e-07
-7.40811634e-07
-7.41956583e-07
-7.76374875e-07
-7.72084821e-07
-7.3963383e-07
-7.4137584e-07
-7.76036996e-07
-7.70479245e-07
-7.39063774e-07
-7.40984974e-07
-7.76409008e-07
-7.70340646e-07
-7.38938192e-07
-7.4089199e-07
-7.77230945e-07
-7.71296293e-07
-7.39174754e-07
-7.41216443e-07
-7.78588851e-07
-7.72324502e-07
-7.39755439e-07
-7.42080903e-07
-7.79927231e-07
-7.76243849e-07
-7.38287582e-07
-7.34661868e-07
-7.41178644e-07
-7.79610925e-07
-7.74764157e-07
-7.40659985e-07
-7.43341128e-07
-7.78788543e-07
-7.76838844e-07
-7.38250418e-07
-7.3465654e-07
-7.41699062e-07
-7.79378109e-07
-7.73528815e-07
-7.39485236e-07
-7.42514319e-07
-7.79586909e-07
-7.70182956e-07
-7.38725033e-07
-7.41980142e-07
-7.80037703e-07
-7.68577824e-07
-7.38296294e-07
-7.41588988e-07
-7.7968908e-07
-7.69572613e-07
-7.38437517e-07
-7.41807984e-07
-7.78897057e-07
-7.70918676e-07
-7.38954921e-07
-7.42352442e-07
-7.77874407e-07
-7.77177243e-07
-7.37174125e-07
-7.34072964e-07
-7.4199521e-07
-7.78203425e-07
-7.73944662e-07
-7.39143266e-07
-7.42844806e-07
-7.7736522e-07
-7.72858993e-07
-7.39255708e-07
-7.43028498e-07
-7.7685716e-07
-7.79098344e-07
-7.372074e-07
-7.3439544e-07
-7.42972409e-07
-7.77328162e-07
-7.74745919e-07
-7.39332001e-07
-7.43244995e-07
-7.76412773e-07
-7.7980373e-07
-7.36997452e-07
-7.34090999e-07
-7.43001222e-07
-7.77356198e-07
-7.73338939e-07
-7.38372329e-07
-7.4278518e-07
-7.77038664e-07
-7.70116411e-07
-7.37869902e-07
-7.42599169e-07
-7.7717919e-07
-7.69289927e-07
-7.37744287e-07
-7.42662485e-07
-7.76994315e-07
-7.69510143e-07
-7.37998667e-07
-7.42442703e-07
-7.76365902e-07
-7.79918221e-07
-7.36077584e-07
-7.33524962e-07
-7.4298108e-07
-7.77213792e-07
-7.72360115e-07
-7.3804175e-07
-7.43116172e-07
-7.76570946e-07
-7.69444931e-07
-7.37750118e-07
-7.43199787e-07
-7.76481572e-07
-7.69284643e-07
-7.37792514e-07
-7.42419997e-07
-7.75836168e-07
-7.78790356e-07
-7.3589204e-07
-7.33452406e-07
-7.43136416e-07
-7.76549388e-07
-7.76288172e-07
-7.38133915e-07
-7.42563141e-07
-7.75549914e-07
-7.74794599e-07
-7.38217551e-07
-7.424407e-07
-7.7510915e-07
-7.77719255e-07
-7.36395694e-07
-7.3410788e-07
-7.43645435e-07
-7.75457451e-07
-7.78358814e-07
-7.39683889e-07
-7.43880484e-07
-7.74221675e-07
-7.76437296e-07
-7.38663612e-07
-7.37574706e-07
-7.38031935e-07
-7.37223991e-07
-7.48140001e-07
-7.74560391e-07
-7.76642425e-07
-7.37466526e-07
-7.35028789e-07
-7.44353331e-07
-7.75164577e-07
-7.78269256e-07
-7.38148409e-07
-7.40927462e-07
-7.74396244e-07
-7.78660656e-07
-7.38171106e-07
-7.41937043e-07
-7.73844668e-07
-7.75797323e-07
-7.38797942e-07
-7.37863454e-07
-7.38906261e-07
-7.38237392e-07
-7.37708141e-07
-7.51392883e-07
-7.75037489e-07
-7.7337299e-07
-7.75237486e-07
-7.38034723e-07
-7.40083323e-07
-7.74435147e-07
-7.79817778e-07
-7.36855786e-07
-7.39758584e-07
-7.74469257e-07
-7.76436925e-07
-7.3622555e-07
-7.3380844e-07
-7.4305868e-07
-7.749998e-07
-7.75958373e-07
-7.36803459e-07
-7.3405107e-07
-7.42391842e-07
-7.74785078e-07
-7.76251354e-07
-7.3833258e-07
-7.40880524e-07
-7.73876655e-07
-7.75791846e-07
-7.37017971e-07
-7.34483424e-07
-7.44236557e-07
-7.7453569e-07
-7.75157038e-07
-7.37547099e-07
-7.35083404e-07
-7.45652255e-07
-7.74234627e-07
-7.74827592e-07
-7.38126563e-07
-7.35763317e-07
-7.47273345e-07
-7.73946314e-07
-7.7444785e-07
-7.39226325e-07
-7.36880356e-07
-7.37018517e-07
-7.45548815e-07
-7.73749724e-07
-7.74564723e-07
-7.38156238e-07
-7.35259934e-07
-7.44658478e-07
-7.74392813e-07
-7.74818665e-07
-7.37295086e-07
-7.33859284e-07
-7.40770055e-07
-7.74832933e-07
-7.7488488e-07
-7.37526388e-07
-7.38424367e-07
-7.74069944e-07
-7.75073947e-07
-7.37467296e-07
-7.38828153e-07
-7.74081494e-07
-7.748226e-07
-7.36747375e-07
-7.3368859e-07
-7.41507859e-07
-7.74947562e-07
-7.74691933e-07
-7.37564738e-07
-7.34030177e-07
-7.40772914e-07
-7.74857918e-07
-7.74392575e-07
-7.38517052e-07
-7.39012832e-07
-7.7430058e-07
-7.74343497e-07
-7.37186533e-07
-7.33371139e-07
-7.39011774e-07
-7.75334176e-07
-7.74204223e-07
-7.38624081e-07
-7.38663024e-07
-7.75310529e-07
-7.74155888e-07
-7.38333519e-07
-7.34338018e-07
-7.40203496e-07
-7.75882558e-07
-7.74327035e-07
-7.40566232e-07
-7.34727514e-07
-7.39274456e-07
-7.76905434e-07
-7.74570079e-07
-7.42127791e-07
-7.3409235e-07
-7.36974661e-07
-7.78933688e-07
-7.74636915e-07
-7.42703345e-07
-7.3779578e-07
-7.71316245e-07
-7.75491835e-07
-7.44197736e-07
-7.37994988e-07
-7.67310199e-07
-7.75993226e-07
-7.48529115e-07
-7.34053102e-07
-7.34092122e-07
-7.68667879e-07
-7.75885477e-07
-7.50258949e-07
-7.38286247e-07
-7.58546559e-07
-7.77163306e-07
-7.52797231e-07
-7.38737467e-07
-7.55976814e-07
-7.7760271e-07
-7.5857699e-07
-7.35832883e-07
-7.34594801e-07
-7.55132099e-07
-7.77501768e-07
-7.59217057e-07
-7.39837307e-07
-7.5165867e-07
-7.78577143e-07
-7.64475457e-07
-7.37075254e-07
-7.35039776e-07
-7.50038641e-07
-7.78638463e-07
-7.63421957e-07
-7.40472365e-07
-7.48695786e-07
-7.79451717e-07
-7.68155024e-07
-7.37475712e-07
-7.3482721e-07
-7.46532925e-07
-7.79842196e-07
-7.64739682e-07
-7.39505803e-07
-7.46277e-07
-7.78830076e-07
-7.63686006e-07
-7.39193709e-07
-7.4554583e-07
-7.78812793e-07
-7.64431918e-07
-7.39329205e-07
-7.44741251e-07
-7.79630775e-07
-7.72824454e-07
-7.38087433e-07
-7.3490627e-07
-7.44311058e-07
-7.79822128e-07
-7.68751884e-07
-7.40789788e-07
-7.45325497e-07
-7.79311662e-07
-7.75856168e-07
-7.3918822e-07
-7.35905858e-07
-7.45000015e-07
-7.78719431e-07
-7.77233266e-07
-7.39473354e-07
-7.35873442e-07
-7.45290493e-07
-7.78913258e-07
-7.70729591e-07
-7.40673465e-07
-7.44502236e-07
-7.78663066e-07
-7.77867419e-07
-7.38668267e-07
-7.35293849e-07
-7.44190441e-07
-7.78815786e-07
-7.71351849e-07
-7.40149356e-07
-7.43546383e-07
-7.78176802e-07
-7.79623403e-07
-7.39386676e-07
-7.35965461e-07
-7.45258834e-07
-7.77147417e-07
-7.76957849e-07
-7.46285318e-07
-7.39212726e-07
-7.38508439e-07
-7.38213018e-07
-7.59070664e-07
-7.74899382e-07
-7.75930445e-07
-7.47621746e-07
-7.40232691e-07
-7.40521699e-07
-7.39315331e-07
-7.38219462e-07
-7.48798788e-07
-7.75756584e-07
-7.78017094e-07
-7.42825751e-07
-7.43728563e-07
-7.76705245e-07
-7.78158041e-07
-7.39730471e-07
-7.35877358e-07
-7.4416494e-07
-7.76743585e-07
-7.78085429e-07
-7.41336574e-07
-7.36373386e-07
-7.35582296e-07
-7.41279457e-07
-7.77247453e-07
-7.79882181e-07
-7.41334983e-07
-7.43315825e-07
-7.76483106e-07
-7.76042395e-07
-7.43878896e-07
-7.37529249e-07
-7.46218698e-07
-7.7630577e-07
-7.77624098e-07
-7.39064595e-07
-7.34900005e-07
-7.41758762e-07
-7.77290099e-07
-7.78033052e-07
-7.38603159e-07
-7.34418034e-07
-7.40269003e-07
-7.77533012e-07
-7.79048036e-07
-7.40234863e-07
-7.41524001e-07
)
;

boundaryField
{
    closed
    {
        type            calculated;
        value           uniform -1.03238027e-06;
    }
    open
    {
        type            calculated;
        value           nonuniform List<scalar> 0();
    }
    sides
    {
        type            empty;
    }
    procBoundary0to1
    {
        type            processor;
        value           uniform -7.76798599e-07;
    }
}


// ************************************************************************* //
