/*--------------------------------*- C++ -*----------------------------------*\
| =========                 |                                                 |
| \\      /  F ield         | OpenFOAM: The Open Source CFD Toolbox           |
|  \\    /   O peration     | Version:  2306                                  |
|   \\  /    A nd           | Website:  www.openfoam.com                      |
|    \\/     M anipulation  |                                                 |
\*---------------------------------------------------------------------------*/
FoamFile
{
    version     2.0;
    format      ascii;
    arch        "LSB;label=32;scalar=64";
    class       volScalarField;
    location    "0.0005";
    object      prefDZ_H;
}
// * * * * * * * * * * * * * * * * * * * * * * * * * * * * * * * * * * * * * //

dimensions      [1 -1 -1 0 0 0 0];

internalField   nonuniform List<scalar> 
530
(
0.000109127357
0.000108043335
0.000107841304
0.00010784026
0.000107840097
0.000107840095
0.000107840095
0.000107840095
0.000107840095
0.000107840095
0.000107840095
0.000107840095
0.000107840095
0.000107840095
0.000107840095
0.000107840095
0.000107840095
0.000107840095
0.000107840095
0.000107840095
0.000107840095
0.000107840095
0.000107840095
0.000107840095
0.000107840095
0.000107840095
0.000107840095
0.000107840095
0.000107840095
0.000107840095
0.000107840095
0.000107840095
0.000107840095
0.000107840095
0.000107840095
0.000107840095
0.000107840095
0.000107840095
0.000107840095
0.000107840095
0.000107840095
0.000107840095
0.000107840095
0.000107840095
0.000107840095
0.000107840095
0.000107840095
0.000107840095
0.000107840095
0.000107840095
0.000107840095
0.000107840095
0.000107840095
0.000107840095
0.000107840095
0.000107840095
0.000107840095
0.000107840095
0.000107840095
0.000107840095
0.000107840095
0.000107840095
0.000107840095
0.000107840095
0.000107840095
0.000107840095
0.000107840095
0.000107840095
0.000107840095
0.000107840095
0.000107840095
0.000107840095
0.000107840095
0.000107840095
0.000107840095
0.000107840095
0.000107840095
0.000107840096
0.000107840096
0.000107840098
0.000107840104
0.000107840107
0.000107840148
0.000107840156
0.000107840309
0.000107840479
0.000107840984
0.000107841349
0.000107841503
0.000107842328
0.000107847384
0.000107860287
0.000107854119
0.000107815179
0.000107817372
0.000107970539
0.000108017294
0.000107745024
0.000107828117
0.000107756046
0.000109016387
0.000110196736
0.000108636078
0.000107520905
0.00010639373
0.000107741766
0.000109591592
0.000109356516
0.000107816201
0.000107801498
0.00010951318
0.000109382978
0.000107707264
0.000106173815
0.000107786744
0.000109467103
0.00010928985
0.000107852712
0.000107836356
0.000109409138
0.000109060735
0.000107895033
0.00010783009
0.000109382104
0.000108935248
0.000107779404
0.000107823718
0.000109414665
0.000108924659
0.000107722478
0.000107825631
0.000109484525
0.000108998767
0.00010779081
0.000107832849
0.000109599622
0.000109078715
0.000107971779
0.000107843604
0.00010975055
0.000109379567
0.000107562796
0.000106026404
0.000107790144
0.00010977246
0.000109271008
0.00010801245
0.000107875413
0.00010989624
0.000109425019
0.00010750732
0.000105994088
0.000107789188
0.000109818608
0.000109172867
0.000107805265
0.00010784547
0.0001098328
0.000108909974
0.000107531093
0.000107811777
0.000109779001
0.000108789037
0.000107377947
0.000107802678
0.000109836239
0.000108864389
0.000107421926
0.000107815557
0.000109940554
0.000108967423
0.000107606575
0.000107860415
0.00011006318
0.00010946237
0.000107105603
0.000105786143
0.000107778399
0.000109990147
0.000109209381
0.000107673045
0.000107858502
0.000110118073
0.000109118886
0.000107730334
0.000107890456
0.000110177344
0.000109628108
0.000107111433
0.000105895382
0.000107787224
0.000110081476
0.000109274906
0.000107753581
0.000107917994
0.000110217971
0.000109688536
0.00010703609
0.000105771958
0.000107781101
0.000110080377
0.00010916231
0.00010739941
0.000107839077
0.000110158813
0.000108905459
0.000107228284
0.00010781027
0.000110147964
0.000108842706
0.000107181774
0.000107807252
0.000110162791
0.000108858605
0.000107283257
0.000107892502
0.000110235925
0.000109742583
0.000106705409
0.000105567578
0.000107782616
0.000110096563
0.000109084086
0.000107281682
0.000107830401
0.000110198574
0.000108853877
0.000107203204
0.000107810071
0.000110218266
0.000108841587
0.000107242701
0.000107889606
0.000110301069
0.000109933859
0.000106655856
0.000105574322
0.000107796791
0.000110177855
0.000109415488
0.000107371926
0.000107892743
0.0001103212
0.000109282987
0.00010745469
0.000107915697
0.000110376091
0.000110070432
0.000106848641
0.000105873838
0.000107824741
0.000110283876
0.000110094061
0.000107920593
0.000107919478
0.000110413146
0.000110170943
0.000107632803
0.000107149536
0.000107446304
0.000107090937
0.000107839296
0.00011035101
0.000110154339
0.000107232709
0.000106254235
0.000107810943
0.000110321885
0.000110137363
0.000107480453
0.000107977038
0.000110480625
0.000110087222
0.000107557318
0.000107884453
0.00011052543
0.000110306216
0.000107751155
0.000107361716
0.000107763147
0.000107558065
0.000107330157
0.000107833087
0.000110257074
0.000110453979
0.000109326354
0.000107527949
0.000108016645
0.000110499782
0.000109926574
0.000107077615
0.000107951673
0.000110445936
0.000110203383
0.000106844514
0.000105847889
0.000107800692
0.000110303898
0.00011026402
0.000107000493
0.000105945692
0.000107820515
0.000110322641
0.00011032644
0.000107554054
0.000107923954
0.000110454695
0.000110245339
0.000107143773
0.000106119476
0.000107775824
0.000110336647
0.000110355756
0.000107294626
0.000106376773
0.000107781972
0.000110354988
0.000110381974
0.000107499135
0.000106629378
0.000107793099
0.000110355764
0.000110421786
0.000107858865
0.000107038262
0.000107120178
0.000107819708
0.000110420892
0.000110373336
0.000107539908
0.000106442413
0.000107782277
0.000110339588
0.000110378332
0.000107235218
0.000105938259
0.000107797095
0.000110316542
0.000110473867
0.000107311889
0.000107563243
0.000110434263
0.000110439491
0.000107332172
0.000107676503
0.000110443725
0.000110361055
0.000107089113
0.000105867324
0.000107791813
0.000110281311
0.000110390168
0.000107327258
0.000106007808
0.000107806802
0.000110282096
0.000110483759
0.000107666287
0.000107770778
0.000110378351
0.000110399347
0.000107255063
0.000105758482
0.000107814221
0.000110226789
0.000110510799
0.000107717387
0.000107665012
0.000110228394
0.00011039791
0.000107668785
0.000106107494
0.000107830713
0.000110115472
0.000110397112
0.000107768523
0.000106239016
0.000107873982
0.000109980246
0.000110358316
0.000107727653
0.000105986333
0.000107012915
0.000109719925
0.000110420344
0.000107727327
0.000107349384
0.000108988417
0.000110299108
0.000107693062
0.000107395822
0.000108693892
0.000110163312
0.000107753915
0.000105975968
0.000105920061
0.00010878954
0.000110247282
0.000107797842
0.00010753473
0.000108138083
0.000110064856
0.000107871735
0.000107689614
0.000107999948
0.000109941077
0.000108154255
0.000106692564
0.000106134057
0.000107969832
0.000110005899
0.000108180605
0.000107853743
0.000107833613
0.000109803782
0.000108501648
0.000107171157
0.000106284112
0.000107785644
0.000109847621
0.000108430361
0.000107863288
0.000107763275
0.000109701601
0.000108749732
0.000107330314
0.000106182372
0.000107711567
0.000109723167
0.000108514791
0.000107908721
0.00010774256
0.000109614125
0.000108442648
0.000107807104
0.00010773282
0.000109612916
0.000108492928
0.000107859383
0.000107719908
0.000109675147
0.000109101257
0.000107573745
0.000106196902
0.000107699452
0.000109739901
0.000108798769
0.000107911488
0.000107766869
0.000109779284
0.000109341846
0.00010777725
0.000106549348
0.00010772049
0.0001098442
0.00010945352
0.000107762167
0.000106512075
0.000107727438
0.000109870945
0.000108948729
0.000107934123
0.000107796963
0.000109911137
0.000109515645
0.000107770191
0.000106304278
0.000107716687
0.000109925432
0.000109000423
0.000107934643
0.00010780809
0.000110006325
0.000109784519
0.000107751947
0.000106606783
0.000107723128
0.000110063647
0.000110124773
0.000107772956
0.000107826692
0.000107610909
0.000107524318
0.000108179975
0.000110291614
0.000110219838
0.000107766965
0.000107892865
0.000107816967
0.00010784989
0.000107508697
0.000107812896
0.000110262679
0.000110075182
0.000107793714
0.000107854323
0.000110218102
0.000110004798
0.000107764203
0.000106531661
0.000107765517
0.000110147563
0.00011002274
0.000107810122
0.000106826512
0.000106535241
0.000107820599
0.000110150116
0.000109850389
0.000107869153
0.0001078588
0.00011018043
0.000110207752
0.000107766622
0.000107140874
0.000107786059
0.000110192227
0.00011005526
0.000107729196
0.000106170223
0.000107760322
0.000110118187
0.000110034532
0.000107747676
0.000106015275
0.000107776596
0.000110100809
0.000109994796
0.000107866123
0.000107902106
)
;

boundaryField
{
    closed
    {
        type            calculated;
        value           uniform 0.000143540519;
    }
    open
    {
        type            calculated;
        value           nonuniform List<scalar> 0();
    }
    sides
    {
        type            empty;
    }
    procBoundary0to1
    {
        type            processor;
        value           uniform 0.000110165993;
    }
}


// ************************************************************************* //
