/*--------------------------------*- C++ -*----------------------------------*\
| =========                 |                                                 |
| \\      /  F ield         | OpenFOAM: The Open Source CFD Toolbox           |
|  \\    /   O peration     | Version:  2306                                  |
|   \\  /    A nd           | Website:  www.openfoam.com                      |
|    \\/     M anipulation  |                                                 |
\*---------------------------------------------------------------------------*/
FoamFile
{
    version     2.0;
    format      ascii;
    arch        "LSB;label=32;scalar=64";
    class       volVectorField;
    location    "0.0005";
    object      U;
}
// * * * * * * * * * * * * * * * * * * * * * * * * * * * * * * * * * * * * * //

dimensions      [0 1 -1 0 0 0 0];

internalField   nonuniform List<vector> 
530
(
(0.0582853692 0 0)
(0.00133874803 0 0)
(-0.0439497703 0 0)
(0.145639053 0 0)
(0.377765376 0 0)
(0.389668589 0 0)
(0.199399231 0 0)
(0.0779273711 0 0)
(0.132828138 0 0)
(0.156335613 0 0)
(0.0679292375 0 0)
(0.186371489 0 0)
(0.494474651 0 0)
(0.502333391 0 0)
(0.105716152 0 0)
(-0.163272429 0 0)
(0.130757268 0 0)
(0.781519366 0 0)
(1.18220914 0 0)
(1.03787153 0 0)
(0.310608707 0 0)
(-0.732005909 0 0)
(-1.0201325 0 0)
(0.0922113762 0 0)
(1.1520836 0 0)
(0.65695174 0 0)
(-0.228663438 0 0)
(-0.0351138226 0 0)
(0.403373358 0 0)
(0.434950355 0 0)
(1.10414272 0 0)
(2.37400451 0 0)
(2.78433657 0 0)
(1.89027616 0 0)
(0.269222009 0 0)
(-1.25888763 0 0)
(-1.48694768 0 0)
(-0.408793334 0 0)
(0.493943695 0 0)
(0.427539193 0 0)
(0.0715776689 0 0)
(0.228905423 0 0)
(0.618692672 0 0)
(0.901690863 0 0)
(1.55439125 0 0)
(2.87936004 0 0)
(4.35293741 0 0)
(5.02508983 0 0)
(4.0753598 0 0)
(1.7104344 0 0)
(-0.717722252 0 0)
(-1.72970136 0 0)
(-1.25504391 0 0)
(-0.506848002 0 0)
(-0.289344103 0 0)
(-0.397855623 0 0)
(-0.437888932 0 0)
(-0.415440345 0 0)
(-0.406214845 0 0)
(-0.398488688 0 0)
(-0.392671633 0 0)
(-0.385333691 0 0)
(-0.373480272 0 0)
(-0.352280335 0 0)
(-0.318966567 0 0)
(-0.271367198 0 0)
(-0.205708135 0 0)
(-0.124725741 0 0)
(-0.0323964342 0 0)
(0.0640130702 0 0)
(0.160036146 0 0)
(0.257739598 0 0)
(0.367742129 0 0)
(0.508021717 0 0)
(0.704641827 0 0)
(0.995399158 0 0)
(1.43383322 0 0)
(2.08561334 0 0)
(3.01585556 0 0)
(4.26077493 0 0)
(5.78309867 0 0)
(7.43637627 0 0)
(8.97599639 0 0)
(10.1432099 0 0)
(10.767403 0 0)
(10.8271619 0 0)
(10.4410624 0 0)
(9.78839116 0 0)
(9.02585038 0 0)
(8.25234175 0 0)
(7.51859818 0 0)
(6.84645013 0 0)
(6.23741085 0 0)
(5.68460108 0 0)
(5.18715658 0 0)
(4.74520592 0 0)
(4.32708175 0 0)
(3.96078857 0 0)
(3.60647398 0 0)
(3.34472593 0 0)
(3.07091645 0 0)
(2.77391688 0 0)
(2.53116115 0 0)
(2.31299796 0 0)
(2.16777624 0 0)
(2.04420594 0 0)
(1.81478025 0 0)
(1.61536388 0 0)
(1.47814594 0 0)
(1.39055757 0 0)
(1.17608729 0 0)
(1.00263852 0 0)
(0.854989977 0 0)
(0.717344844 0 0)
(0.608316366 0 0)
(0.425832893 0 0)
(0.299100508 0 0)
(0.213243023 0 0)
(0.162092994 0 0)
(0.0132216974 0 0)
(-0.0440541136 0 0)
(-0.109345903 0 0)
(-0.155598732 0 0)
(-0.255205711 0 0)
(-0.238443284 0 0)
(-0.312390179 0 0)
(-0.375128918 0 0)
(-0.449554837 0 0)
(-0.442582291 0 0)
(-0.515248617 0 0)
(-0.562476999 0 0)
(-0.621092931 0 0)
(-0.62282905 0 0)
(-0.677952812 0 0)
(-0.708270158 0 0)
(-0.760530718 0 0)
(-0.739330006 0 0)
(-0.748072058 0 0)
(-0.738658015 0 0)
(-0.763711338 0 0)
(-0.713130351 0 0)
(-0.712282452 0 0)
(-0.727885581 0 0)
(-0.730129121 0 0)
(-0.735981905 0 0)
(-0.695408677 0 0)
(-0.658037817 0 0)
(-0.625462762 0 0)
(-0.626608748 0 0)
(-0.571961495 0 0)
(-0.563541979 0 0)
(-0.582257591 0 0)
(-0.593999072 0 0)
(-0.606855053 0 0)
(-0.588954452 0 0)
(-0.604221863 0 0)
(-0.622709738 0 0)
(-0.639167297 0 0)
(-0.612994856 0 0)
(-0.640628214 0 0)
(-0.658295961 0 0)
(-0.663311409 0 0)
(-0.632324406 0 0)
(-0.653206621 0 0)
(-0.663290999 0 0)
(-0.658727177 0 0)
(-0.622854805 0 0)
(-0.637721784 0 0)
(-0.644625816 0 0)
(-0.639522485 0 0)
(-0.605964668 0 0)
(-0.609519259 0 0)
(-0.606770529 0 0)
(-0.600629223 0 0)
(-0.549653775 0 0)
(-0.534945403 0 0)
(-0.546858576 0 0)
(-0.54640895 0 0)
(-0.539916002 0 0)
(-0.506485003 0 0)
(-0.498247035 0 0)
(-0.499326591 0 0)
(-0.492396311 0 0)
(-0.460923308 0 0)
(-0.456969568 0 0)
(-0.456414543 0 0)
(-0.451581966 0 0)
(-0.405502543 0 0)
(-0.388301367 0 0)
(-0.406256966 0 0)
(-0.408333403 0 0)
(-0.407281544 0 0)
(-0.382271264 0 0)
(-0.377529041 0 0)
(-0.388062638 0 0)
(-0.390661758 0 0)
(-0.355512338 0 0)
(-0.346581137 0 0)
(-0.372938848 0 0)
(-0.388143582 0 0)
(-0.397851696 0 0)
(-0.388893828 0 0)
(-0.400060573 0 0)
(-0.422053719 0 0)
(-0.433442853 0 0)
(-0.432063639 0 0)
(-0.452560342 0 0)
(-0.474038645 0 0)
(-0.484740565 0 0)
(-0.481192411 0 0)
(-0.498029854 0 0)
(-0.514854764 0 0)
(-0.518252101 0 0)
(-0.507206768 0 0)
(-0.512549304 0 0)
(-0.51615292 0 0)
(-0.517209864 0 0)
(-0.48039386 0 0)
(-0.463072976 0 0)
(-0.477536173 0 0)
(-0.480176251 0 0)
(-0.476075942 0 0)
(-0.455040922 0 0)
(-0.450925439 0 0)
(-0.461237035 0 0)
(-0.461664905 0 0)
(-0.451988847 0 0)
(-0.458932727 0 0)
(-0.471479782 0 0)
(-0.47578226 0 0)
(-0.468868231 0 0)
(-0.475405707 0 0)
(-0.48696064 0 0)
(-0.496086257 0 0)
(-0.473803569 0 0)
(-0.463876682 0 0)
(-0.477687445 0 0)
(-0.481566228 0 0)
(-0.482381193 0 0)
(-0.451553506 0 0)
(-0.430208518 0 0)
(-0.434603338 0 0)
(-0.427876032 0 0)
(-0.397061323 0 0)
(-0.377304344 0 0)
(-0.377820294 0 0)
(-0.373139382 0 0)
(-0.348157792 0 0)
(-0.333227661 0 0)
(-0.33569109 0 0)
(-0.33045608 0 0)
(-0.328664239 0 0)
(-0.301303135 0 0)
(-0.275713743 0 0)
(-0.274396658 0 0)
(-0.270695288 0 0)
(-0.252360933 0 0)
(-0.242231805 0 0)
(-0.248109122 0 0)
(-0.2409374 0 0)
(-0.232889873 0 0)
(-0.227161296 0 0)
(-0.225780916 0 0)
(-0.213586908 0 0)
(-0.208154845 0 0)
(-0.217173396 0 0)
(-0.219372642 0 0)
(-0.22456639 0 0)
(-0.210806692 0 0)
(-0.206275986 0 0)
(-0.221496448 0 0)
(-0.229400813 0 0)
(-0.214769772 0 0)
(-0.20974085 0 0)
(-0.225749154 0 0)
(-0.234044314 0 0)
(-0.229364527 0 0)
(-0.231593461 0 0)
(-0.247185337 0 0)
(-0.252514953 0 0)
(-0.253783951 0 0)
(-0.254275487 0 0)
(-0.252937846 0 0)
(-0.253900405 0 0)
(-0.253363437 0 0)
(-0.228389156 0 0)
(-0.213018575 0 0)
(-0.216359198 0 0)
(-0.216176545 0 0)
(-0.182789811 0 0)
(-0.161513115 0 0)
(-0.184407436 0 0)
(-0.19504096 0 0)
(-0.181464031 0 0)
(-0.176270912 0 0)
(-0.182474503 0 0)
(-0.184018917 0 0)
(-0.185172312 0 0)
(-0.172363037 0 0)
(-0.166743198 0 0)
(-0.172514968 0 0)
(-0.17313138 0 0)
(-0.175067134 0 0)
(-0.16061509 0 0)
(-0.154720058 0 0)
(-0.1662218 0 0)
(-0.168975115 0 0)
(-0.156819747 0 0)
(-0.150372436 0 0)
(-0.154829746 0 0)
(-0.154794722 0 0)
(-0.154816649 0 0)
(-0.142242997 0 0)
(-0.135666929 0 0)
(-0.139801186 0 0)
(-0.138463983 0 0)
(-0.137587924 0 0)
(-0.124781507 0 0)
(-0.117358288 0 0)
(-0.119998393 0 0)
(-0.115350284 0 0)
(-0.112349885 0 0)
(-0.0973884419 0 0)
(-0.0889085512 0 0)
(-0.0862092468 0 0)
(-0.0695610328 0 0)
(-0.0576496309 0 0)
(-0.0471565108 0 0)
(-0.0253367384 0 0)
(-0.00462823563 0 0)
(0.00838643564 0 0)
(0.02505691 0 0)
(0.0450756408 0 0)
(0.0735937378 0 0)
(0.0992213947 0 0)
(0.118278919 0 0)
(0.142107675 0 0)
(0.167389391 0 0)
(0.200473411 0 0)
(0.22829985 0 0)
(0.234912194 0 0)
(0.246527258 0 0)
(0.278423321 0 0)
(0.305254964 0 0)
(0.312543452 0 0)
(0.326398769 0 0)
(0.359250112 0 0)
(0.383295065 0 0)
(0.408526439 0 0)
(0.442785572 0 0)
(0.482057949 0 0)
(0.513714198 0 0)
(0.546669061 0 0)
(0.590886748 0 0)
(0.636879412 0 0)
(0.690328589 0 0)
(0.733451094 0 0)
(0.771569009 0 0)
(0.824644878 0 0)
(0.872272293 0 0)
(0.907608311 0 0)
(0.970317137 0 0)
(1.06132012 0 0)
(1.15955294 0 0)
(1.27390097 0 0)
(1.37066107 0 0)
(1.47345939 0 0)
(1.62581771 0 0)
(1.78829814 0 0)
(1.92693748 0 0)
(2.1153915 0 0)
(2.35917078 0 0)
(2.61963353 0 0)
(2.93530736 0 0)
(3.20197484 0 0)
(3.37475473 0 0)
(3.62031614 0 0)
(3.98308914 0 0)
(4.40221161 0 0)
(4.74262329 0 0)
(4.91677807 0 0)
(5.14415112 0 0)
(5.37884626 0 0)
(5.67215068 0 0)
(5.97950779 0 0)
(6.06215769 0 0)
(6.25887868 0 0)
(6.505401 0 0)
(6.62024789 0 0)
(6.62908497 0 0)
(6.75052859 0 0)
(6.90766334 0 0)
(6.92697901 0 0)
(6.89230014 0 0)
(6.93298077 0 0)
(7.08958706 0 0)
(7.13527445 0 0)
(6.99312348 0 0)
(6.84627005 0 0)
(6.82541352 0 0)
(6.8540802 0 0)
(6.7854689 0 0)
(6.63285121 0 0)
(6.57479572 0 0)
(6.55150651 0 0)
(6.43426871 0 0)
(6.2846856 0 0)
(6.18730945 0 0)
(6.1159906 0 0)
(6.02386236 0 0)
(5.82423203 0 0)
(5.6072797 0 0)
(5.42206354 0 0)
(5.27947402 0 0)
(5.0746456 0 0)
(4.87524835 0 0)
(4.71908806 0 0)
(4.57912804 0 0)
(4.45029001 0 0)
(4.23500127 0 0)
(4.0410644 0 0)
(3.86522108 0 0)
(3.75346807 0 0)
(3.55891027 0 0)
(3.40167857 0 0)
(3.28379959 0 0)
(3.18242102 0 0)
(3.10186958 0 0)
(2.93354898 0 0)
(2.81239897 0 0)
(2.70238078 0 0)
(2.65683574 0 0)
(2.49880092 0 0)
(2.40070721 0 0)
(2.32206921 0 0)
(2.30501581 0 0)
(2.16795741 0 0)
(2.08997272 0 0)
(2.02118028 0 0)
(2.01241634 0 0)
(1.9066398 0 0)
(1.84409082 0 0)
(1.80881574 0 0)
(1.76539063 0 0)
(1.73853157 0 0)
(1.63410415 0 0)
(1.58417141 0 0)
(1.5459871 0 0)
(1.53875893 0 0)
(1.44809112 0 0)
(1.40784109 0 0)
(1.36729155 0 0)
(1.29387534 0 0)
(1.25814636 0 0)
(1.1685549 0 0)
(1.12978042 0 0)
(1.09242506 0 0)
(1.01440454 0 0)
(0.976313875 0 0)
(0.883866775 0 0)
(0.851447226 0 0)
(0.825119817 0 0)
(0.811930121 0 0)
(0.73857142 0 0)
(0.725931294 0 0)
(0.713745758 0 0)
(0.650717198 0 0)
(0.62114923 0 0)
(0.557942148 0 0)
(0.553987 0 0)
(0.548394252 0 0)
(0.550231466 0 0)
(0.506930684 0 0)
(0.516427655 0 0)
(0.521812113 0 0)
(0.476345883 0 0)
(0.46756696 0 0)
(0.446725606 0 0)
(0.442318632 0 0)
(0.467159485 0 0)
(0.430681283 0 0)
(0.411533907 0 0)
(0.409507464 0 0)
(0.398827173 0 0)
(0.378869217 0 0)
(0.374897979 0 0)
(0.397875008 0 0)
(0.375729389 0 0)
(0.367105166 0 0)
(0.358663133 0 0)
(0.344943938 0 0)
(0.352486689 0 0)
(0.327030306 0 0)
(0.346619405 0 0)
(0.351714323 0 0)
(0.340179841 0 0)
(0.323091984 0 0)
(0.337905946 0 0)
(0.339611308 0 0)
(0.290785588 0 0)
(0.277156508 0 0)
(0.25708232 0 0)
(0.272937017 0 0)
(0.285557287 0 0)
(0.254217274 0 0)
(0.234488281 0 0)
(0.247115646 0 0)
(0.236565168 0 0)
(0.278236601 0 0)
(0.303426626 0 0)
(0.295977668 0 0)
(0.301123277 0 0)
(0.322174581 0 0)
(0.341155645 0 0)
(0.322881747 0 0)
(0.332902016 0 0)
(0.335768947 0 0)
(0.37243519 0 0)
(0.398764419 0 0)
(0.380718341 0 0)
(0.387572377 0 0)
(0.398567395 0 0)
(0.437075808 0 0)
(0.45890764 0 0)
(0.433543659 0 0)
(0.436120028 0 0)
(0.440162559 0 0)
(0.480147065 0 0)
(0.499971767 0 0)
(0.488235465 0 0)
)
;

boundaryField
{
    closed
    {
        type            noSlip;
    }
    open
    {
        type            inletOutlet;
        inletValue      nonuniform List<vector> 0();
        value           nonuniform List<vector> 0();
    }
    sides
    {
        type            empty;
    }
    procBoundary0to1
    {
        type            processor;
        value           uniform (0.487129198 0 0);
    }
}


// ************************************************************************* //
