/*--------------------------------*- C++ -*----------------------------------*\
| =========                 |                                                 |
| \\      /  F ield         | OpenFOAM: The Open Source CFD Toolbox           |
|  \\    /   O peration     | Version:  2306                                  |
|   \\  /    A nd           | Website:  www.openfoam.com                      |
|    \\/     M anipulation  |                                                 |
\*---------------------------------------------------------------------------*/
FoamFile
{
    version     2.0;
    format      ascii;
    arch        "LSB;label=32;scalar=64";
    class       volScalarField;
    location    "0.00028";
    object      H2O;
}
// * * * * * * * * * * * * * * * * * * * * * * * * * * * * * * * * * * * * * //

dimensions      [0 0 0 0 0 0 0];

internalField   nonuniform List<scalar> 
530
(
0.136815782
0.136743625
0.136682692
0.136607408
0.136544218
0.136466142
0.136400945
0.136320406
0.136254453
0.136174463
0.136107715
0.136024921
0.135956748
0.135872093
0.135802705
0.135716467
0.135646266
0.135558801
0.135487766
0.135399185
0.135327472
0.135238002
0.135165798
0.135075662
0.135003157
0.134912066
0.134838907
0.134747348
0.134674129
0.134582273
0.134509135
0.134417152
0.134344236
0.134252285
0.134179728
0.134087962
0.134015903
0.133924462
0.133853037
0.133762054
0.133691401
0.133601
0.133531257
0.133441553
0.133372716
0.133283417
0.133215394
0.133126916
0.133060268
0.132973125
0.132907854
0.132821866
0.132758052
0.132673264
0.132610987
0.132527433
0.132466781
0.13238448
0.132325554
0.132244505
0.132187423
0.132107612
0.132052504
0.131973936
0.131920914
0.131843644
0.131792754
0.131716718
0.131667982
0.131595437
0.131547828
0.131476696
0.131429106
0.131361316
0.131313797
0.131249137
0.131201812
0.131140165
0.13109323
0.131034436
0.130988088
0.13093198
0.130886378
0.130832809
0.130788076
0.130736923
0.130693152
0.13064431
0.130601574
0.130554954
0.130513311
0.13046883
0.130428328
0.130385911
0.130346589
0.130306166
0.130268054
0.130229559
0.130192684
0.130156055
0.130120438
0.130085615
0.130051274
0.130018196
0.129985612
0.129954789
0.129923603
0.129894356
0.129864401
0.129836668
0.129807925
0.129781207
0.129752996
0.129727516
0.129700496
0.129676375
0.129650522
0.129627709
0.129603153
0.129581782
0.129558467
0.129538315
0.129516125
0.129497143
0.12947605
0.12945819
0.129438168
0.129421386
0.129402405
0.129386658
0.129368691
0.129353938
0.129336957
0.129323158
0.129307133
0.129294251
0.129279156
0.129267152
0.129252962
0.1292418
0.129228488
0.129218133
0.129205678
0.129196093
0.129184472
0.129175623
0.129164817
0.129156673
0.129146658
0.129139191
0.129129945
0.129123129
0.129115722
0.129110797
0.129104845
0.129100463
0.129095166
0.12909129
0.129086611
0.1290832
0.129079107
0.129076119
0.129072581
0.129069976
0.129066963
0.129064706
0.129062187
0.129060245
0.129058187
0.129056533
0.129054903
0.129053513
0.129052275
0.129051131
0.129050248
0.129049333
0.129048769
0.129048066
0.129047785
0.129047274
0.129047245
0.129046917
0.1290471
0.129047065
0.129047356
0.129047534
0.129047976
0.129048246
0.12904877
0.12904922
0.129049837
0.129050429
0.129051143
0.129051843
0.129052653
0.129053434
0.129054332
0.129055177
0.129056151
0.129057047
0.129058084
0.129059021
0.129060109
0.129061078
0.129062203
0.129063197
0.129064349
0.129065362
0.129066528
0.129067554
0.129068726
0.129069759
0.129070928
0.129071964
0.129073124
0.129074157
0.1290753
0.129076326
0.129077449
0.129078464
0.129079561
0.129080561
0.12908163
0.12908261
0.129083649
0.129084607
0.129085612
0.129086546
0.129087516
0.129088423
0.129089357
0.129090234
0.129091132
0.129091978
0.129092839
0.129093653
0.129094476
0.129095258
0.129096043
0.129096791
0.129097539
0.129098253
0.129098965
0.129099645
0.12910032
0.129100966
0.129101606
0.129102219
0.129102823
0.129103404
0.129103974
0.129104522
0.12910506
0.129105576
0.129106082
0.129106568
0.129107043
0.1291075
0.129107945
0.129108374
0.129108791
0.129109192
0.129109581
0.129109956
0.12911032
0.12911067
0.129111009
0.129111335
0.12911165
0.129111954
0.129112247
0.129112529
0.129112801
0.129113062
0.129113315
0.129113557
0.12911379
0.129114015
0.12911423
0.129114438
0.129114637
0.129114828
0.129115012
0.129115188
0.129115358
0.12911552
0.129115676
0.129115825
0.129115968
0.129116105
0.129116236
0.129116362
0.129116483
0.129116598
0.129116708
0.129116814
0.129116915
0.129117012
0.129117104
0.129117192
0.129117277
0.129117358
0.129117435
0.129117508
0.129117579
0.129117646
0.12911771
0.129117771
0.129117829
0.129117885
0.129117938
0.129117989
0.129118037
0.129118083
0.129118127
0.12911817
0.129118209
0.129118248
0.129118283
0.129118319
0.129118351
0.129118383
0.129118371
0.12911834
0.129118312
0.129118285
0.129118261
0.129118239
0.129118218
0.129118199
0.129118182
0.129118166
0.129118151
0.129118138
0.129118126
0.129118115
0.129118104
0.129118095
0.129118086
0.129118078
0.129118071
0.129118064
0.129118058
0.129118053
0.129118047
0.129118043
0.129118039
0.129118035
0.129118031
0.129118028
0.129118025
0.129118022
0.12911802
0.129118018
0.129118016
0.129118014
0.129118012
0.129118011
0.129118009
0.129118008
0.129118007
0.129118006
0.129118005
0.129118004
0.129118003
0.129118003
0.129118002
0.129118001
0.129118001
0.129118
0.129118
0.129118
0.129117999
0.129117999
0.129117999
0.129117998
0.129117998
0.129117998
0.129117998
0.129117998
0.129117997
0.129117997
0.129117997
0.129117997
0.129117997
0.129117997
0.129117997
0.129117997
0.129117997
0.129117997
0.129117997
0.129117997
0.129117996
0.129117996
0.129117996
0.129117996
0.129117996
0.129117996
0.129117996
0.129117996
0.129117996
0.129117996
0.129117996
0.129117996
0.129117996
0.129117996
0.129117996
0.129117996
0.129117996
0.129117996
0.129117996
0.129117996
0.129117996
0.129117996
0.129117996
0.129117996
0.129117996
0.129117996
0.129117996
0.129117996
0.129117996
0.129117996
0.129117996
0.129117996
0.129117996
0.129117996
0.129117996
0.129117996
0.129117996
0.129117996
0.129117996
0.129117996
0.129117996
0.129117996
0.129117996
0.129117996
0.129117996
0.129117996
0.129117996
0.129117996
0.129117996
0.129117996
0.129117996
0.129117996
0.129117996
0.129117996
0.129117996
0.129117996
0.129117996
0.129117996
0.129117996
0.129117996
0.129117996
0.129117996
0.129117996
0.129117996
0.129117996
0.129117996
0.129117996
0.129117996
0.129117996
0.129117996
0.129117996
0.129117996
0.129117996
0.129117996
0.129117996
0.129117996
0.129117996
0.129117996
0.129117996
0.129117996
0.129117996
0.129117996
0.129117996
0.129117996
0.129117996
0.129117996
0.129117996
0.129117996
0.129117996
0.129117996
0.129117996
0.129117996
0.129117996
0.129117996
0.129117996
0.129117996
0.129117996
0.129117996
0.129117996
0.129117996
0.129117996
0.129117996
0.129117996
0.129117996
0.129117996
0.129117996
0.129117996
0.129117996
0.129117996
0.129117996
0.129117996
0.129117996
0.129117996
0.129117996
0.129117996
0.129117996
0.129117996
0.129117996
0.129117996
0.129117996
0.129117996
0.129117996
0.129117996
0.129117996
0.129117996
0.129117996
0.129117996
0.129117996
0.129117996
0.129117996
0.129117996
0.129117996
0.129117996
0.129117996
0.129117996
0.129117996
0.129117996
0.129117996
)
;

boundaryField
{
    closed
    {
        type            calculated;
        value           nonuniform List<scalar> 0();
    }
    open
    {
        type            calculated;
        value           uniform 0.129117996;
    }
    sides
    {
        type            empty;
    }
    procBoundary5to4
    {
        type            processor;
        value           uniform 0.136874199;
    }
}


// ************************************************************************* //
