/*--------------------------------*- C++ -*----------------------------------*\
| =========                 |                                                 |
| \\      /  F ield         | OpenFOAM: The Open Source CFD Toolbox           |
|  \\    /   O peration     | Version:  2306                                  |
|   \\  /    A nd           | Website:  www.openfoam.com                      |
|    \\/     M anipulation  |                                                 |
\*---------------------------------------------------------------------------*/
FoamFile
{
    version     2.0;
    format      ascii;
    arch        "LSB;label=32;scalar=64";
    class       volScalarField;
    location    "0.00118";
    object      p;
}
// * * * * * * * * * * * * * * * * * * * * * * * * * * * * * * * * * * * * * //

dimensions      [1 -1 -2 0 0 0 0];

internalField   nonuniform List<scalar> 
530
(
101559.75
101555.376
101554.597
101548.242
101538.764
101534.629
101534.009
101528.586
101519.831
101516.061
101516.187
101511.711
101503.554
101500.008
101500.451
101496.426
101488.611
101485.302
101486.075
101482.501
101475.034
101472.026
101473.234
101470.172
101463.199
101460.653
101462.26
101459.625
101453.134
101451.082
101453.219
101451.11
101445.155
101443.682
101446.479
101445.073
101439.791
101439.015
101442.551
101442.119
101437.817
101437.617
101441.708
101442.3
101439.027
101439.485
101443.952
101444.948
101442.43
101443.451
101448.071
101449.296
101446.992
101447.987
101452.461
101453.631
101451.311
101452.125
101456.251
101457.141
101454.67
101455.257
101459.027
101459.621
101456.959
101457.271
101460.636
101460.952
101458.162
101458.227
101461.167
101461.079
101458.069
101457.938
101460.595
101460.294
101457.107
101456.718
101459.085
101458.589
101455.325
101454.834
101457.062
101456.484
101453.199
101452.69
101454.899
101454.337
101451.09
101450.599
101452.818
101452.307
101449.151
101448.676
101450.848
101450.409
101447.404
101446.951
101449.058
101448.656
101445.755
101445.295
101447.316
101446.906
101444.04
101443.532
101445.469
101445.026
101442.139
101441.56
101443.414
101442.912
101439.969
101439.319
101441.097
101440.523
101437.528
101436.828
101438.51
101437.871
101434.893
101434.168
101435.73
101435.004
101432.01
101431.217
101432.622
101431.735
101428.646
101427.787
101429.085
101428.065
101424.854
101423.9
101425.123
101424.005
101420.68
101419.652
101420.838
101419.683
101416.314
101415.268
101416.473
101415.379
101412.108
101411.145
101412.435
101411.5
101408.458
101407.758
101409.339
101408.75
101406.124
101405.858
101407.854
101407.801
101405.731
101405.817
101408
101408.164
101406.39
101406.702
101409.047
101409.396
101407.787
101408.156
101410.493
101410.885
101409.368
101409.745
101411.99
101412.382
101410.983
101411.368
101413.468
101413.792
101412.45
101412.792
101414.699
101414.895
101413.538
101413.766
101415.417
101415.425
101413.973
101414.005
101415.306
101414.973
101413.275
101413.033
101413.984
101413.344
101411.415
101410.97
101411.69
101410.871
101408.9
101408.626
101409.492
101408.768
101406.901
101406.748
101407.716
101407.141
101405.483
101405.506
101406.621
101406.221
101404.703
101404.672
101405.76
101405.436
101403.99
101403.94
101404.998
101404.699
101403.286
101403.235
101404.343
101404.161
101402.846
101402.875
101404.137
101404.2
101403.111
101403.313
101404.82
101405.25
101404.527
101404.98
101406.717
101407.491
101407.16
101407.758
101409.379
101410.122
101409.757
101410.07
101411.288
101411.749
101411.164
101411.13
101411.935
101412.114
101411.448
101411.291
101411.896
101411.893
101411.012
101410.603
101410.869
101410.483
101409.32
101408.741
101408.941
101408.485
101407.294
101406.825
101407.11
101406.651
101405.483
101405.125
101405.502
101405.057
101403.905
101403.606
101404.049
101403.66
101402.569
101402.323
101402.797
101402.445
101401.431
101401.24
101401.699
101401.324
101400.349
101400.201
101400.625
101400.204
101399.242
101399.111
101399.494
101399.022
101398.058
101397.94
101398.285
101397.756
101396.775
101396.662
101396.965
101396.369
101395.357
101395.223
101395.48
101394.869
101393.886
101393.715
101393.899
101393.293
101392.347
101392.154
101392.284
101391.678
101390.757
101390.531
101390.593
101389.964
101389.047
101388.778
101388.767
101388.099
101387.17
101386.866
101386.794
101386.098
101385.171
101384.89
101384.848
101384.166
101383.151
101382.731
101382.655
101382.066
101381.16
101380.779
101380.739
101380.248
101379.475
101379.178
101379.19
101378.802
101378.162
101377.945
101378.011
101377.718
101377.196
101377.055
101377.169
101376.958
101376.538
101376.461
101376.613
101376.47
101376.136
101376.111
101376.292
101376.204
101375.939
101375.955
101376.156
101376.109
101375.901
101375.947
101376.16
101376.144
101375.98
101376.049
101376.267
101376.275
101376.147
101376.231
101376.451
101376.476
101376.376
101376.47
101376.689
101376.727
101376.65
101376.752
101376.966
101377.014
101376.957
101377.064
101377.273
101377.328
101377.287
101377.396
101377.599
101377.66
101377.632
101377.742
101377.938
101378.003
101377.986
101378.096
101378.285
101378.353
101378.345
101378.454
101378.636
101378.705
101378.705
101378.813
101378.987
101379.058
101379.064
101379.17
101379.337
101379.409
101379.42
101379.524
101379.684
101379.756
101379.772
101379.874
101380.027
101380.098
101380.119
101380.218
101380.364
101380.435
101380.459
101380.556
101380.695
101380.765
101380.792
101380.885
101381.018
101381.086
101381.114
101381.203
101381.328
101381.393
101381.42
101381.503
101381.618
101381.678
101381.702
101381.776
101381.879
101381.93
101381.948
101382.011
101382.1
101382.14
101382.148
101382.197
101382.268
101382.293
101382.286
101382.314
101382.358
101382.353
101382.314
101382.3
101382.295
101382.237
101382.137
101382.059
101381.992
101381.869
101381.717
101381.648
101381.701
101381.764
101381.805
101381.873
101381.976
101382.091
101382.213
101382.343
101382.48
101382.621
101382.765
101382.912
101383.06
101383.209
101383.357
101383.504
101383.649
101383.79
101383.925
101384.052
101384.169
101384.273
101384.36
101384.428
101384.471
101384.487
101384.469
101384.415
101384.319
101384.178
101383.99
101383.754
101383.473
101383.155
101382.813
101382.472
101382.162
101381.927
101381.817
101381.883
101382.159
101382.641
101383.266
101383.893
101384.316
101384.311
101383.719
101382.539
101380.957
101379.26
101377.637
101375.967
101373.8
101370.604
101366.173
101360.928
101355.895
101352.197
101350.244
101349.617
101350.548
101354.823
101363.475
101373.756
101380.206
101378.914
101370.562
101361.548
101358.245
101362.271
101376.344
101395.603
101404.731
101406.821
101421.979
101445.942
)
;

boundaryField
{
    closed
    {
        type            zeroGradient;
    }
    open
    {
        type            waveTransmissive;
        gamma           1.25;
        fieldInf        101325;
        lInf            1;
        value           uniform 101442.574;
    }
    sides
    {
        type            empty;
    }
    procBoundary5to4
    {
        type            processor;
        value           uniform 101569.515;
    }
}


// ************************************************************************* //
