/*--------------------------------*- C++ -*----------------------------------*\
| =========                 |                                                 |
| \\      /  F ield         | OpenFOAM: The Open Source CFD Toolbox           |
|  \\    /   O peration     | Version:  2306                                  |
|   \\  /    A nd           | Website:  www.openfoam.com                      |
|    \\/     M anipulation  |                                                 |
\*---------------------------------------------------------------------------*/
FoamFile
{
    version     2.0;
    format      ascii;
    arch        "LSB;label=32;scalar=64";
    class       volScalarField;
    location    "0.00118";
    object      prefDZ_H2O;
}
// * * * * * * * * * * * * * * * * * * * * * * * * * * * * * * * * * * * * * //

dimensions      [1 -1 -1 0 0 0 0];

internalField   nonuniform List<scalar> 
530
(
2.03469265e-06
2.03522213e-06
2.08590954e-06
2.08558116e-06
2.03780895e-06
2.04554914e-06
2.08921685e-06
2.08930254e-06
2.04173455e-06
2.05248275e-06
2.09266445e-06
2.09266708e-06
2.04724905e-06
2.0572889e-06
2.09587427e-06
2.09572867e-06
2.05290977e-06
2.06177319e-06
2.09910858e-06
2.09878736e-06
2.05807902e-06
2.06594893e-06
2.10218384e-06
2.10182372e-06
2.06269962e-06
2.07044607e-06
2.1051672e-06
2.10480636e-06
2.06700336e-06
2.07459251e-06
2.10811805e-06
2.10777111e-06
2.07108056e-06
2.07844715e-06
2.11099766e-06
2.11071815e-06
2.07502867e-06
2.08204289e-06
2.11368593e-06
2.11356175e-06
2.07935121e-06
2.0852674e-06
2.11618661e-06
2.11633765e-06
2.08312133e-06
2.08848693e-06
2.11846072e-06
2.11874497e-06
2.08597326e-06
2.09133709e-06
2.12060011e-06
2.12097792e-06
2.088805e-06
2.09350147e-06
2.12273586e-06
2.12314612e-06
2.09159226e-06
2.0957674e-06
2.12492053e-06
2.12528331e-06
2.09428136e-06
2.09813978e-06
2.12712566e-06
2.12746212e-06
2.09690912e-06
2.10061718e-06
2.12928902e-06
2.12963194e-06
2.09944929e-06
2.10321453e-06
2.13153958e-06
2.13179981e-06
2.1018083e-06
2.10581628e-06
2.13385988e-06
2.13411659e-06
2.10465128e-06
2.10864504e-06
2.1362352e-06
2.13652167e-06
2.10744216e-06
2.11172526e-06
2.13864647e-06
2.13897642e-06
2.11021659e-06
2.11472668e-06
2.1410883e-06
2.14144617e-06
2.11304986e-06
2.11764927e-06
2.14355318e-06
2.1439133e-06
2.11593372e-06
2.12054471e-06
2.14599476e-06
2.14638406e-06
2.11884008e-06
2.12345477e-06
2.14846932e-06
2.14888632e-06
2.12173387e-06
2.12638341e-06
2.15099418e-06
2.15144689e-06
2.1247363e-06
2.12933717e-06
2.15357863e-06
2.15406512e-06
2.12779347e-06
2.13232494e-06
2.15622835e-06
2.15672102e-06
2.13093637e-06
2.13527797e-06
2.15894233e-06
2.15939095e-06
2.13418098e-06
2.13823311e-06
2.16169443e-06
2.16206355e-06
2.13749356e-06
2.14124338e-06
2.16447911e-06
2.16478568e-06
2.14082262e-06
2.14436694e-06
2.16731166e-06
2.16756649e-06
2.14403593e-06
2.14757566e-06
2.17020498e-06
2.17043984e-06
2.1473658e-06
2.1508932e-06
2.1731392e-06
2.17337358e-06
2.150693e-06
2.15428302e-06
2.176086e-06
2.17632995e-06
2.15405841e-06
2.15764197e-06
2.17904311e-06
2.17928966e-06
2.15750307e-06
2.16099357e-06
2.18202535e-06
2.18226458e-06
2.16103106e-06
2.16434555e-06
2.18506046e-06
2.18524625e-06
2.16459294e-06
2.16764604e-06
2.18799305e-06
2.18819974e-06
2.1681112e-06
2.17096725e-06
2.19072314e-06
2.19096899e-06
2.17101585e-06
2.17385963e-06
2.19339479e-06
2.19367003e-06
2.17394917e-06
2.17666921e-06
2.19604043e-06
2.19632074e-06
2.17688983e-06
2.17951622e-06
2.19865757e-06
2.19891993e-06
2.17983422e-06
2.18237275e-06
2.2012514e-06
2.20148077e-06
2.18275457e-06
2.18521949e-06
2.20381621e-06
2.20401226e-06
2.1856254e-06
2.18804309e-06
2.2063239e-06
2.20650678e-06
2.18841436e-06
2.19085004e-06
2.20883253e-06
2.20896851e-06
2.19123439e-06
2.19362978e-06
2.2113756e-06
2.21148953e-06
2.19419996e-06
2.19680183e-06
2.2139009e-06
2.21404552e-06
2.19677746e-06
2.20011248e-06
2.2163721e-06
2.21657287e-06
2.19937274e-06
2.2031619e-06
2.21871334e-06
2.21898545e-06
2.20185385e-06
2.20582163e-06
2.22098644e-06
2.22129047e-06
2.20463191e-06
2.20814086e-06
2.22321579e-06
2.22352772e-06
2.2072237e-06
2.21064889e-06
2.22539024e-06
2.22576186e-06
2.20962703e-06
2.21317315e-06
2.22751091e-06
2.22795829e-06
2.21196396e-06
2.21567695e-06
2.22955382e-06
2.23012038e-06
2.21409211e-06
2.2181637e-06
2.23143644e-06
2.23219291e-06
2.21576892e-06
2.22033398e-06
2.23312589e-06
2.23400935e-06
2.21696708e-06
2.22244513e-06
2.23470136e-06
2.23580384e-06
2.21828978e-06
2.22437039e-06
2.23629852e-06
2.23754807e-06
2.21991388e-06
2.22638548e-06
2.23795759e-06
2.23922746e-06
2.22184741e-06
2.22828737e-06
2.23965604e-06
2.24087466e-06
2.22406851e-06
2.23016912e-06
2.24139058e-06
2.24248295e-06
2.22645842e-06
2.23212258e-06
2.2431382e-06
2.24414743e-06
2.22899765e-06
2.23415358e-06
2.24482709e-06
2.24564716e-06
2.23131204e-06
2.2358404e-06
2.24641848e-06
2.24708315e-06
2.23350016e-06
2.23748128e-06
2.2478768e-06
2.24848053e-06
2.23545262e-06
2.23914474e-06
2.24923866e-06
2.24978659e-06
2.23726852e-06
2.24074159e-06
2.25053958e-06
2.25100266e-06
2.23896463e-06
2.24228246e-06
2.25177248e-06
2.25217112e-06
2.24062788e-06
2.24375902e-06
2.25295774e-06
2.25328528e-06
2.24226154e-06
2.24517266e-06
2.25409619e-06
2.25434566e-06
2.24382965e-06
2.24654811e-06
2.25518145e-06
2.25536126e-06
2.24539129e-06
2.24784856e-06
2.25618654e-06
2.25631477e-06
2.24696886e-06
2.24914363e-06
2.25710272e-06
2.25723214e-06
2.24846222e-06
2.25044002e-06
2.25797141e-06
2.25810854e-06
2.24986021e-06
2.25172396e-06
2.25878206e-06
2.25893851e-06
2.25115105e-06
2.25298025e-06
2.25954661e-06
2.25972536e-06
2.2523917e-06
2.25416832e-06
2.26028155e-06
2.26045401e-06
2.25363521e-06
2.25516443e-06
2.26103958e-06
2.26117794e-06
2.25536819e-06
2.25589962e-06
2.26177018e-06
2.26182025e-06
2.25703264e-06
2.25680617e-06
2.26241357e-06
2.2624155e-06
2.25827549e-06
2.25776727e-06
2.26299425e-06
2.26296684e-06
2.25932503e-06
2.25868347e-06
2.26352105e-06
2.26347843e-06
2.26022798e-06
2.25953844e-06
2.26400103e-06
2.2639511e-06
2.26101995e-06
2.26032653e-06
2.26443959e-06
2.26438661e-06
2.26172294e-06
2.26104967e-06
2.26484086e-06
2.26478697e-06
2.26235339e-06
2.26171078e-06
2.26520787e-06
2.26515451e-06
2.26292168e-06
2.26231579e-06
2.26554353e-06
2.26549131e-06
2.26343683e-06
2.26286941e-06
2.26585026e-06
2.2657995e-06
2.26390638e-06
2.26337539e-06
2.2661303e-06
2.266081e-06
2.2643342e-06
2.26383881e-06
2.26638572e-06
2.26633758e-06
2.26472514e-06
2.26426249e-06
2.26661827e-06
2.26657108e-06
2.2650821e-06
2.26464999e-06
2.26682946e-06
2.26678332e-06
2.26540799e-06
2.26500422e-06
2.26702094e-06
2.26697582e-06
2.26570527e-06
2.26532794e-06
2.26719425e-06
2.26715006e-06
2.26597638e-06
2.26562353e-06
2.26735071e-06
2.26730752e-06
2.26622317e-06
2.26589347e-06
2.26749169e-06
2.26744954e-06
2.26644774e-06
2.26613977e-06
2.26761845e-06
2.26757737e-06
2.26665188e-06
2.26636442e-06
2.26773217e-06
2.2676922e-06
2.26683742e-06
2.26656916e-06
2.267834e-06
2.26779512e-06
2.26700586e-06
2.26675576e-06
2.26792495e-06
2.2678872e-06
2.26715926e-06
2.26692522e-06
2.26800595e-06
2.26796945e-06
2.26729823e-06
2.26707969e-06
2.26807792e-06
2.26804277e-06
2.26742383e-06
2.26722066e-06
2.26814173e-06
2.26810796e-06
2.26753763e-06
2.267349e-06
2.26819816e-06
2.26816581e-06
2.26764072e-06
2.26746585e-06
2.26824793e-06
2.26821703e-06
2.26773407e-06
2.26757225e-06
2.26829171e-06
2.26826227e-06
2.26781855e-06
2.26766917e-06
2.2683301e-06
2.26830216e-06
2.26789501e-06
2.26775753e-06
2.2683637e-06
2.26833728e-06
2.26796443e-06
2.26783844e-06
2.26839338e-06
2.2683684e-06
2.2680284e-06
2.2679135e-06
2.26842121e-06
2.26839867e-06
2.26810285e-06
2.26800129e-06
2.26846165e-06
2.26843953e-06
2.26818999e-06
2.26810967e-06
2.26837521e-06
2.26838791e-06
2.26834017e-06
2.26830355e-06
2.2683656e-06
2.26834937e-06
2.26838196e-06
2.26836218e-06
2.26839994e-06
2.26838146e-06
2.26841787e-06
2.2684009e-06
2.26843541e-06
2.26842066e-06
2.26845214e-06
2.26844019e-06
2.26846768e-06
2.26845896e-06
2.26848186e-06
2.26847643e-06
2.26849474e-06
2.26849219e-06
2.26850647e-06
2.26850598e-06
2.26851716e-06
2.26851783e-06
2.26852673e-06
2.26852801e-06
2.26853506e-06
2.26853687e-06
2.26854219e-06
2.26854469e-06
2.26854837e-06
2.26855042e-06
2.2685486e-06
2.26854682e-06
2.26854568e-06
2.26854489e-06
2.26854439e-06
2.26854409e-06
2.26854393e-06
2.26854385e-06
2.26854381e-06
2.26854379e-06
2.26854378e-06
2.26854378e-06
2.26854378e-06
2.26854378e-06
2.26854378e-06
2.26854378e-06
2.26854378e-06
2.26854378e-06
2.26854378e-06
2.26854378e-06
2.26854378e-06
2.26854378e-06
2.26854378e-06
2.26854378e-06
2.26854378e-06
2.26854378e-06
2.26854378e-06
2.26854378e-06
2.26854378e-06
2.26854378e-06
2.26854378e-06
2.26854378e-06
2.26854378e-06
2.26854378e-06
2.26854378e-06
2.26854378e-06
2.26854378e-06
2.26854378e-06
2.26854378e-06
2.26854378e-06
2.26854378e-06
2.26854378e-06
)
;

boundaryField
{
    closed
    {
        type            calculated;
        value           nonuniform List<scalar> 0();
    }
    open
    {
        type            calculated;
        value           uniform 2.26854378e-06;
    }
    sides
    {
        type            empty;
    }
    procBoundary5to4
    {
        type            processor;
        value           uniform 2.08179272e-06;
    }
}


// ************************************************************************* //
