/*--------------------------------*- C++ -*----------------------------------*\
| =========                 |                                                 |
| \\      /  F ield         | OpenFOAM: The Open Source CFD Toolbox           |
|  \\    /   O peration     | Version:  2306                                  |
|   \\  /    A nd           | Website:  www.openfoam.com                      |
|    \\/     M anipulation  |                                                 |
\*---------------------------------------------------------------------------*/
FoamFile
{
    version     2.0;
    format      ascii;
    arch        "LSB;label=32;scalar=64";
    class       volScalarField;
    location    "0.0008";
    object      h;
}
// * * * * * * * * * * * * * * * * * * * * * * * * * * * * * * * * * * * * * //

dimensions      [0 2 -2 0 0 0 0];

internalField   nonuniform List<scalar> 
530
(
10298.9593
109.608676
-2883.06371
-2236.29542
-3694.77417
-2826.2195
10210.3326
9864.9446
-3233.99557
-3087.55009
10088.3308
9792.24847
-3905.80827
-3515.22832
10162.1124
9797.97258
-2174.07116
-5533.80723
-2465.61534
10278.24
10735.4987
9944.07121
-881.092992
-4089.37468
-3188.87433
-4671.36809
-3448.59153
10202.306
10605.7246
9797.89639
-1729.79173
-4827.43011
-3306.65002
10307.9405
9856.60656
-1677.19743
-5238.46547
-3227.56411
10095.5411
10610.0937
9668.19752
-2106.53609
-5248.48697
-3675.47241
10285.0229
9982.98415
-1367.41153
-3880.99936
-3099.22343
-4476.56598
-3156.59264
10232.1369
10641.151
9864.57114
-1252.47343
-4637.53279
-2734.16347
10369.2202
10100.1514
-1224.07548
-4127.61979
-2811.57487
10410.6441
10091.3688
-1192.16631
-4233.68484
-2940.49391
10407.0671
10083.0994
-1413.19848
-4252.86956
-2934.5035
10430.4483
10283.4722
113.304952
-3226.71931
-2646.35785
-3882.06998
-2955.78742
10267.9246
9819.4907
-4002.19004
-2868.05702
9941.71697
10671.9943
9606.07318
-2586.18385
-5535.53959
-3761.8862
10350.7732
9885.93242
-2373.50623
-5524.03161
-3924.63125
10023.2378
10039.9511
10205.3894
9669.624
-3974.39847
-6182.3222
-5843.36751
-5187.63551
10032.0662
9669.52685
-4394.64263
-3890.25083
10251.0992
9905.71673
-4031.4539
-3725.76855
10407.9442
9924.12318
-3326.55629
-5685.21481
-3652.50506
10210.9847
10619.8884
9920.70697
-1936.10291
-4834.48394
-2198.23208
10367.2682
10149.777
-3125.70056
-5475.57377
-4300.4903
10192.7623
9950.83231
-4099.77786
-4052.51113
10374.2794
9972.41227
-3707.21339
-5572.85739
-4336.1401
10168.5646
9855.11283
-4378.68642
-4484.62749
10130.0829
9773.13878
-5217.31922
-5070.65609
10041.3009
9736.92934
-5253.67013
-4938.28619
10094.1225
9828.29263
-4778.2243
-4346.42595
10208.7799
9987.53223
-4075.46601
-3646.30613
10405.801
10140.5709
-2836.77813
-4766.51838
-2903.18376
10291.6694
10728.9218
10178.9294
-1955.16361
-4382.82232
-3577.40439
-4997.99186
-4082.96493
10191.4963
9970.81732
-3907.85453
-3956.51999
10194.985
10033.0531
-4091.95483
-3856.34908
10227.176
10139.9069
-3781.15597
-3426.58636
10376.7089
10167.734
-2650.36621
-5303.57222
-3215.73632
10070.5151
10208.3251
10364.9153
9970.7721
-2801.69079
-5353.77582
-4079.44323
-5432.38414
-4165.00685
10262.0588
10167.0034
-2529.8549
-4772.65172
-3222.55467
10206.0455
10123.9082
-3786.15208
-4019.00464
9947.26888
9942.58131
-5829.38213
-4542.76918
9434.02384
10220.1602
9427.22893
-5250.83674
-5923.56276
9813.25347
9883.57229
-5091.10612
-3202.83535
9870.28457
-2020.21896
-3765.41669
10490.4715
10420.9277
-1928.30518
-3088.56746
-2988.22753
-915.386508
10579.9326
10513.4471
-1253.11276
-4564.68449
-3247.83046
10199.699
10213.6438
-3368.68595
-3421.09423
10262.4716
10259.4567
-3120.51415
-4908.78288
-3461.67162
10280.2747
10173.1896
-2580.79786
-5397.63281
-3363.8338
9914.19266
10663.971
9906.24216
-2125.64994
-6412.71059
-2351.61272
9809.53012
-3032.80223
-3583.26134
9942.01572
10673.9515
10086.3837
-223.910753
-3725.18776
-2657.28313
-2739.48083
-3454.87185
-1778.22902
10176.0123
10843.2147
10176.0078
-1467.08576
-4862.7189
-3568.13446
10315.0001
10201.601
-2202.76112
-5445.7231
-3530.78089
9853.10798
10488.8561
9903.10145
-3844.09254
-6706.63759
-5315.57217
9957.29667
10054.5229
-4072.19921
-4233.19024
10172.9633
10242.3742
-3174.03993
-4861.73068
-3846.21936
10245.0686
10330.1026
-3110.33274
-3296.942
10395.6352
10443.9024
-1519.02608
-4065.55328
-2954.26026
10437.2093
10543.7052
122.620711
-3363.92475
-2805.0528
-3798.47536
-3493.23088
10330.5886
10396.7515
-3417.99609
-3585.43944
10194.8794
10375.0617
-3765.88731
-3957.49391
10251.6182
10235.9692
-3164.4807
-5766.57059
-3644.5649
9894.58888
10568.714
10105.9986
-2879.98919
-4105.19979
10387.8333
10414.5049
-2913.00856
-3884.77605
-3848.18474
-3967.07716
10307.3249
10291.6859
-2615.89864
-5140.5267
948.812302
10114.5734
-2508.5453
-4241.59052
10285.4131
10462.7826
-3855.04641
-3044.87974
10146.5363
-1504.29003
-4539.07183
10550.7474
10346.2502
-2184.52126
-4189.26411
-3779.84126
10427.1986
10214.5323
-2224.82495
-5744.44034
-3829.49218
9790.74576
10412.8399
9941.47732
-4017.80729
-5558.33082
9962.91635
10136.4689
-4421.21535
-4948.9785
10018.7227
10146.5765
-3421.06139
-5459.62462
-4462.64175
10082.2029
10360.6372
-3368.31095
-3857.5054
10199.838
10349.9882
-2357.98835
-4293.66097
-3644.70753
10328.9439
10389.6969
-1743.17155
-4182.82248
-3528.8517
10321.4131
10391.1936
-1843.20272
-4244.18765
-3624.42136
10321.8268
10360.6418
-614.049269
-4800.83279
-2289.8479
9989.18584
-874.852488
-4058.90007
10230.6702
10332.348
-1686.08309
-4359.80495
-3495.18783
10249.8213
10479.0863
999.221601
-3923.51201
-3479.12836
10282.6238
10410.0799
-1412.56306
-4206.2296
-3642.99057
10245.0819
10392.9753
-1285.3795
-4206.59192
-3633.31413
10236.3514
10383.0961
-1332.36552
-4313.23143
-3811.55407
10185.6452
10288.0152
-2042.7475
-4923.58723
-4200.60264
10000.8296
10365.0571
-3014.13081
-3820.42843
9869.41093
10252.3448
-2571.31236
-5121.40683
-4476.60099
9947.83899
10337.5506
-2948.82287
-3801.91721
9808.70258
10255.314
-2488.00857
-5123.10481
-4496.99338
9919.21395
10336.151
-2841.28563
-3770.46827
9758.6164
10253.8445
-2358.07311
-5136.953
-4507.20453
9880.10064
10333.3832
-2815.01482
-3780.95573
9680.4554
10243.5831
-2369.93577
-5247.59005
-4632.98752
9821.88804
10311.4447
-2866.11831
-3875.95553
9577.84503
10200.6755
-2535.89591
-5612.61175
-5119.29205
9681.95072
10176.9875
-3398.76371
-4646.85764
9274.44338
10200.508
-3678.82947
-4491.02292
9272.70269
10289.0045
-3210.57747
-3894.50908
9456.08207
10220.5178
-2078.07682
-5335.43071
-4870.52963
9633.81883
10197.0242
-3399.2559
-4662.67314
9184.5173
10267.3002
-3036.86303
-3633.46673
9446.63624
10502.9549
-1005.81669
-2881.35266
-3955.75847
-2942.02118
9682.96641
-1264.81237
-4366.57028
9267.78563
10205.7184
-3393.941
-4681.24234
8937.23553
10166.7429
-4238.03267
-4596.19175
8634.24229
10515.51
9810.19994
-1051.23619
-7154.79381
-3731.93839
9298.73261
-1866.06194
-3863.76797
8867.65344
10614.3229
10004.5398
-1151.6902
-5778.28898
-4736.36033
9638.41561
10221.3024
-1180.06302
-4820.53112
)
;

boundaryField
{
    closed
    {
        type            lookUpEnthalpy;
        h0              nonuniform List<scalar> 0();
        value           nonuniform List<scalar> 0();
    }
    open
    {
        type            zeroGradient;
    }
    sides
    {
        type            empty;
    }
    procBoundary2to1
    {
        type            processor;
        value           uniform 10214.0742;
    }
    procBoundary2to3
    {
        type            processor;
        value           uniform -4299.28847;
    }
}


// ************************************************************************* //
