/*--------------------------------*- C++ -*----------------------------------*\
| =========                 |                                                 |
| \\      /  F ield         | OpenFOAM: The Open Source CFD Toolbox           |
|  \\    /   O peration     | Version:  2306                                  |
|   \\  /    A nd           | Website:  www.openfoam.com                      |
|    \\/     M anipulation  |                                                 |
\*---------------------------------------------------------------------------*/
FoamFile
{
    version     2.0;
    format      ascii;
    arch        "LSB;label=32;scalar=64";
    class       volScalarField;
    location    "0.0008";
    object      prefDh_T;
}
// * * * * * * * * * * * * * * * * * * * * * * * * * * * * * * * * * * * * * //

dimensions      [1 1 -3 -1 0 0 0];

internalField   nonuniform List<scalar> 
530
(
-0.000743353603
-0.000589137177
-0.00058134319
-0.000596798958
-0.00055470312
-0.000581182553
-0.000751734216
-0.000741004268
-0.000569283223
-0.000573358777
-0.000755450089
-0.000740373207
-0.00054703563
-0.000559889513
-0.000759754565
-0.000741563978
-0.000589866157
-0.000493168693
-0.000589617444
-0.000753374843
-0.000752627314
-0.000740442776
-0.000588287993
-0.000541873975
-0.000569994354
-0.000522321675
-0.00056114383
-0.000749784993
-0.000749111807
-0.000738856547
-0.000595633545
-0.000517076615
-0.000566339063
-0.00075135307
-0.000740835764
-0.000593455066
-0.000503154024
-0.000568293955
-0.000750948522
-0.000748992923
-0.000741305057
-0.000597256436
-0.000502887844
-0.000554365439
-0.000752360149
-0.000742356539
-0.00059208558
-0.000548741579
-0.000573107267
-0.000528791861
-0.000570519755
-0.000750657404
-0.000750266342
-0.000742450447
-0.000591244887
-0.000523427418
-0.000583976934
-0.000752533625
-0.00074539993
-0.000590914807
-0.000540240562
-0.00058184291
-0.000753647913
-0.00074456065
-0.000589499874
-0.000536837376
-0.000577488433
-0.000752388066
-0.000746297046
-0.000591844305
-0.000536101999
-0.000578075567
-0.000753559169
-0.000744466242
-0.00058619116
-0.000570201047
-0.000587192156
-0.000548538063
-0.000577251607
-0.000749531854
-0.00074532506
-0.000544305787
-0.000580361463
-0.000750758607
-0.00074929093
-0.000744497913
-0.000590061632
-0.000492912083
-0.000552068825
-0.000746491152
-0.000742223338
-0.00059746243
-0.000493090566
-0.000546834829
-0.000745394384
-0.000742970796
-0.000743223109
-0.000741010166
-0.000545804694
-0.000470272383
-0.000482454615
-0.000504827756
-0.000746426596
-0.000738215343
-0.000531571344
-0.000548819849
-0.000747687516
-0.000737769389
-0.000543395195
-0.000554288583
-0.000749853407
-0.000740504475
-0.000566160287
-0.000487515381
-0.000555321582
-0.000744687884
-0.00074858231
-0.000744429109
-0.000596359253
-0.000516806603
-0.000597416374
-0.000745553298
-0.000747819568
-0.000573261826
-0.000495158385
-0.000534618754
-0.000747228184
-0.000744241619
-0.000541120172
-0.000543283585
-0.000748472898
-0.00074017899
-0.00055398785
-0.000491000367
-0.00053342153
-0.000739681092
-0.000745261848
-0.000532220029
-0.00052866759
-0.000744046231
-0.000744017262
-0.000503959167
-0.000508763173
-0.000746173091
-0.000745298021
-0.000502773435
-0.000513283412
-0.000747445254
-0.000745597535
-0.000518682115
-0.000533338113
-0.000749398454
-0.000745325523
-0.000541656532
-0.000556818545
-0.000750360983
-0.000744165527
-0.000581368577
-0.00051909704
-0.000579385878
-0.000741114659
-0.000748492768
-0.000744929616
-0.000596577505
-0.00053214387
-0.000557987854
-0.000511245556
-0.0005415644
-0.000744225216
-0.000750937849
-0.000547507409
-0.000546111514
-0.00074714934
-0.000749199241
-0.0005411655
-0.000549533979
-0.000749866159
-0.000749246903
-0.000551076708
-0.000563867719
-0.000750135983
-0.000746304063
-0.000587214645
-0.000500804737
-0.000569694913
-0.00074555157
-0.000746375462
-0.00074595261
-0.000746789563
-0.000583652654
-0.000499048188
-0.000542026617
-0.000496503844
-0.000539283434
-0.000745027199
-0.000744935166
-0.000592272109
-0.000518778473
-0.000570151926
-0.000737538054
-0.000747640994
-0.000552131305
-0.000544261149
-0.000740929466
-0.00074796927
-0.000483043917
-0.000526652513
-0.000745691898
-0.000743127851
-0.000748440391
-0.000502855448
-0.000479735594
-0.00074373149
-0.000749561361
-0.000508255955
-0.000570824632
-0.000751868855
-0.000598154254
-0.000552212614
-0.000749036694
-0.000749305987
-0.000593193554
-0.000574744385
-0.000576565225
-0.000596720648
-0.000751444234
-0.000749025632
-0.000589530908
-0.000525892857
-0.000568101293
-0.000747049201
-0.000754284061
-0.000564684256
-0.000563341478
-0.000747824014
-0.000749676008
-0.000572697365
-0.000514343593
-0.000562081939
-0.000747415996
-0.00074824344
-0.000589533325
-0.000497559902
-0.000564489128
-0.000741651819
-0.000750780557
-0.000747654505
-0.000593035432
-0.000462726586
-0.000594307161
-0.000750968363
-0.000574735034
-0.000557800162
-0.000751696917
-0.000748840439
-0.000753571799
-0.000590585855
-0.000553226344
-0.00058793853
-0.00058507602
-0.000562434916
-0.000595775122
-0.000747074513
-0.000748251705
-0.000750393495
-0.000594235551
-0.000515892339
-0.000558409688
-0.000747741228
-0.00074875491
-0.000596697152
-0.000495944956
-0.000559557031
-0.000742106966
-0.00074628409
-0.000746602214
-0.000549499539
-0.000452179017
-0.000500720653
-0.000742678937
-0.000749059419
-0.0005421395
-0.000536934709
-0.000745642148
-0.000746385742
-0.000570971234
-0.000515910823
-0.000549245561
-0.000745191567
-0.000751220357
-0.000572975338
-0.000567254757
-0.000750016086
-0.000750354985
-0.000590574748
-0.000542195468
-0.000577613212
-0.000750945204
-0.000750117809
-0.000586331713
-0.000565099774
-0.000581997078
-0.000550990632
-0.000560136315
-0.000749146091
-0.000753480086
-0.000562700138
-0.000557497016
-0.000750660328
-0.000750957283
-0.000551268435
-0.000545723632
-0.000750400642
-0.000749947591
-0.000570616154
-0.00048529709
-0.000555560665
-0.000747557898
-0.00074877575
-0.000749546662
-0.000580234522
-0.00054106615
-0.00074755644
-0.00074724299
-0.000578899646
-0.0005485176
-0.000548975443
-0.000545632024
-0.000749473013
-0.000748879073
-0.000587816854
-0.000506574054
-0.000586974588
-0.000748013521
-0.000591291064
-0.000536470075
-0.000749541561
-0.00074854626
-0.000548422043
-0.000575466002
-0.000752372434
-0.000594846543
-0.000526522505
-0.000746262335
-0.000748948812
-0.000596385254
-0.000538406776
-0.000551478906
-0.000745076468
-0.000747498811
-0.000599259467
-0.000485920158
-0.000550005462
-0.000746150901
-0.000746839143
-0.000747529969
-0.000543649664
-0.000492421437
-0.00074586717
-0.00074513683
-0.000530383061
-0.000512981078
-0.000746748875
-0.000744027545
-0.000562711324
-0.000495490249
-0.000529021419
-0.000743127201
-0.000749286803
-0.000565276195
-0.000549069872
-0.000744932594
-0.000747351549
-0.000597037383
-0.000534928401
-0.000555930118
-0.0007466452
-0.000748282131
-0.000595046393
-0.00053853776
-0.000559534803
-0.000747355138
-0.000749799193
-0.0005954973
-0.000536353885
-0.000556562304
-0.000749957546
-0.000748156679
-0.000587990175
-0.000517959866
-0.000594207475
-0.000748712105
-0.000588697707
-0.000542470195
-0.000750966209
-0.000748096742
-0.000590404174
-0.000532648615
-0.000560194175
-0.000748574281
-0.00075099662
-0.000588691762
-0.000546568922
-0.000561066219
-0.000751401577
-0.000750060859
-0.000590149516
-0.000537611098
-0.000555558814
-0.00074936393
-0.000750519992
-0.000591522553
-0.000537610436
-0.000556065536
-0.00074882816
-0.000749628983
-0.000592632151
-0.000534135326
-0.000550447178
-0.000748903783
-0.000748276606
-0.000594383654
-0.000513842949
-0.000537554012
-0.00074590127
-0.0007505676
-0.000576551961
-0.000550254021
-0.000747379453
-0.000746638448
-0.00058995638
-0.000507090466
-0.000528597082
-0.000743961312
-0.00074966878
-0.000579011601
-0.000550961743
-0.000746128124
-0.000745799138
-0.00059288131
-0.000506993098
-0.000527976959
-0.000743294203
-0.000749115581
-0.000582634397
-0.000552053793
-0.000745723891
-0.000745304522
-0.0005971056
-0.000506480316
-0.000527658715
-0.000742571216
-0.000748865362
-0.000583675302
-0.000551742743
-0.000744928582
-0.000744814702
-0.000596972471
-0.000502635211
-0.000523535196
-0.000741570419
-0.000747767052
-0.000582262328
-0.000548757356
-0.000743708759
-0.000743215353
-0.000591921054
-0.000489809679
-0.000507291719
-0.000739188581
-0.000748482693
-0.000565153606
-0.000523039141
-0.000739344469
-0.000748671547
-0.000555851056
-0.000528258787
-0.000739874025
-0.000746308804
-0.000571299488
-0.000548342007
-0.00074246824
-0.000741206074
-0.000600336163
-0.000499261997
-0.000515626514
-0.000738491811
-0.000749213747
-0.000565151124
-0.000522464138
-0.000739537367
-0.00074973022
-0.000577188044
-0.000556492628
-0.000740317094
-0.000745714396
-0.000598968506
-0.000581745369
-0.000546332007
-0.000580185333
-0.000745400764
-0.000602695093
-0.000532481429
-0.000737925317
-0.000748620356
-0.000565663062
-0.000521886997
-0.000736138487
-0.000748975334
-0.000537139239
-0.000524756398
-0.000735941903
-0.000746001755
-0.000738505006
-0.000594481821
-0.000434781967
-0.000553650767
-0.000740668185
-0.000602077492
-0.000549649937
-0.000741006714
-0.000742811953
-0.000741455764
-0.000596129367
-0.000484025596
-0.000520144708
-0.000740575748
-0.000744137119
-0.000598016916
-0.000517278654
)
;

boundaryField
{
    closed
    {
        type            calculated;
        value           nonuniform List<scalar> 0();
    }
    open
    {
        type            calculated;
        value           nonuniform List<scalar> 0();
    }
    sides
    {
        type            empty;
    }
    procBoundary2to1
    {
        type            processor;
        value           uniform -0.000751098014;
    }
    procBoundary2to3
    {
        type            processor;
        value           uniform -0.000534835989;
    }
}


// ************************************************************************* //
