/*--------------------------------*- C++ -*----------------------------------*\
| =========                 |                                                 |
| \\      /  F ield         | OpenFOAM: The Open Source CFD Toolbox           |
|  \\    /   O peration     | Version:  2306                                  |
|   \\  /    A nd           | Website:  www.openfoam.com                      |
|    \\/     M anipulation  |                                                 |
\*---------------------------------------------------------------------------*/
FoamFile
{
    version     2.0;
    format      ascii;
    arch        "LSB;label=32;scalar=64";
    class       volScalarField;
    location    "0.0008";
    object      prefDPV_H2O;
}
// * * * * * * * * * * * * * * * * * * * * * * * * * * * * * * * * * * * * * //

dimensions      [1 -1 -1 0 0 0 0];

internalField   nonuniform List<scalar> 
530
(
-3.83933703e-07
-3.69511264e-07
-3.66166156e-07
-3.6657463e-07
-3.65541965e-07
-3.6603414e-07
-3.83802373e-07
-3.84444758e-07
-3.65834124e-07
-3.65881652e-07
-3.83827426e-07
-3.84536917e-07
-3.65269834e-07
-3.65590247e-07
-3.83631355e-07
-3.84500277e-07
-3.66599008e-07
-3.6414747e-07
-3.66244989e-07
-3.83687574e-07
-3.83238789e-07
-3.84376735e-07
-3.68204306e-07
-3.65288259e-07
-3.65794337e-07
-3.64812317e-07
-3.65545634e-07
-3.83863244e-07
-3.83466357e-07
-3.84569808e-07
-3.67170483e-07
-3.64708721e-07
-3.65717697e-07
-3.83711845e-07
-3.84457798e-07
-3.67222492e-07
-3.64392313e-07
-3.65721855e-07
-3.83942565e-07
-3.83465078e-07
-3.84642887e-07
-3.66731743e-07
-3.64358977e-07
-3.65428597e-07
-3.83708196e-07
-3.84286835e-07
-3.67596163e-07
-3.65432443e-07
-3.65884258e-07
-3.6493889e-07
-3.65772151e-07
-3.83808919e-07
-3.8339909e-07
-3.84407773e-07
-3.67736414e-07
-3.64817229e-07
-3.66093306e-07
-3.8361665e-07
-3.84085634e-07
-3.67771134e-07
-3.65176594e-07
-3.66060976e-07
-3.83543619e-07
-3.84116787e-07
-3.67808872e-07
-3.65118152e-07
-3.65942999e-07
-3.83581645e-07
-3.84079667e-07
-3.67538922e-07
-3.65079248e-07
-3.65981073e-07
-3.83525672e-07
-3.83920562e-07
-3.6954953e-07
-3.65914184e-07
-3.66192719e-07
-3.65400941e-07
-3.65952628e-07
-3.83802214e-07
-3.84379828e-07
-3.65261002e-07
-3.66045068e-07
-3.84107687e-07
-3.83393845e-07
-3.84625268e-07
-3.66313302e-07
-3.64182897e-07
-3.65428125e-07
-3.83797834e-07
-3.84391372e-07
-3.6651875e-07
-3.64226814e-07
-3.65317546e-07
-3.84165631e-07
-3.84211672e-07
-3.84033694e-07
-3.84648984e-07
-3.65398043e-07
-3.63703926e-07
-3.63925745e-07
-3.64449648e-07
-3.84129238e-07
-3.84720532e-07
-3.65020226e-07
-3.65509506e-07
-3.83868872e-07
-3.84484941e-07
-3.65247775e-07
-3.65623136e-07
-3.83649275e-07
-3.84395922e-07
-3.65750903e-07
-3.64100041e-07
-3.65471752e-07
-3.83989596e-07
-3.83466066e-07
-3.84297673e-07
-3.66927914e-07
-3.64744601e-07
-3.6662452e-07
-3.83805636e-07
-3.83970165e-07
-3.65964406e-07
-3.64190968e-07
-3.65065958e-07
-3.83941384e-07
-3.84271195e-07
-3.65190523e-07
-3.65364565e-07
-3.83720918e-07
-3.84354019e-07
-3.65488211e-07
-3.64240469e-07
-3.65034495e-07
-3.84163341e-07
-3.84344269e-07
-3.65081052e-07
-3.65012254e-07
-3.84090127e-07
-3.84462561e-07
-3.64375615e-07
-3.64559027e-07
-3.8412634e-07
-3.84466945e-07
-3.64329502e-07
-3.64658204e-07
-3.84037813e-07
-3.84363464e-07
-3.64670497e-07
-3.65122041e-07
-3.83866918e-07
-3.8420457e-07
-3.6516254e-07
-3.6566075e-07
-3.83637817e-07
-3.84076142e-07
-3.66069269e-07
-3.64818305e-07
-3.66031335e-07
-3.83999345e-07
-3.83357196e-07
-3.84016398e-07
-3.66906666e-07
-3.65116995e-07
-3.65556807e-07
-3.64613995e-07
-3.65183313e-07
-3.84021875e-07
-3.84072534e-07
-3.65350319e-07
-3.65350544e-07
-3.83941177e-07
-3.84054472e-07
-3.65158062e-07
-3.65446543e-07
-3.83835342e-07
-3.83942287e-07
-3.65364389e-07
-3.65792061e-07
-3.83673815e-07
-3.83991765e-07
-3.6620146e-07
-3.64375729e-07
-3.65829445e-07
-3.8411239e-07
-3.83947883e-07
-3.83797518e-07
-3.84183393e-07
-3.6619658e-07
-3.64343983e-07
-3.65254001e-07
-3.64252091e-07
-3.65212775e-07
-3.83927926e-07
-3.84028594e-07
-3.66388288e-07
-3.64873403e-07
-3.65896385e-07
-3.84179268e-07
-3.84001722e-07
-3.65549762e-07
-3.65351315e-07
-3.84360884e-07
-3.84181452e-07
-3.63922221e-07
-3.64924086e-07
-3.84775352e-07
-3.84020913e-07
-3.84709885e-07
-3.64337852e-07
-3.63858368e-07
-3.8442806e-07
-3.84200501e-07
-3.6443105e-07
-3.65914518e-07
-3.84152259e-07
-3.66840599e-07
-3.65462928e-07
-3.83586423e-07
-3.83650626e-07
-3.66917117e-07
-3.66021326e-07
-3.65958714e-07
-3.68163808e-07
-3.83429853e-07
-3.83563155e-07
-3.6773235e-07
-3.64891532e-07
-3.65749582e-07
-3.83938958e-07
-3.83729503e-07
-3.657069e-07
-3.65707535e-07
-3.83853494e-07
-3.8380709e-07
-3.65894362e-07
-3.64623842e-07
-3.65684291e-07
-3.83845972e-07
-3.83934628e-07
-3.66261849e-07
-3.64306211e-07
-3.65673414e-07
-3.84376698e-07
-3.83361896e-07
-3.84227705e-07
-3.66678562e-07
-3.6348418e-07
-3.66418023e-07
-3.84240091e-07
-3.65889362e-07
-3.65552682e-07
-3.84082051e-07
-3.83403936e-07
-3.83880902e-07
-3.69051818e-07
-3.6545064e-07
-3.66272971e-07
-3.66192434e-07
-3.65705487e-07
-3.67113115e-07
-3.83962795e-07
-3.83247396e-07
-3.83874103e-07
-3.67481598e-07
-3.64643765e-07
-3.65578655e-07
-3.83801501e-07
-3.83891571e-07
-3.66613509e-07
-3.6426182e-07
-3.65598734e-07
-3.84428638e-07
-3.83661407e-07
-3.84258864e-07
-3.65382874e-07
-3.63271361e-07
-3.64268564e-07
-3.84305196e-07
-3.84035902e-07
-3.65233198e-07
-3.65139458e-07
-3.84003823e-07
-3.83912422e-07
-3.65853938e-07
-3.64694457e-07
-3.65353807e-07
-3.83941144e-07
-3.83692577e-07
-3.65897218e-07
-3.65787827e-07
-3.83657562e-07
-3.83598806e-07
-3.67404051e-07
-3.65207377e-07
-3.65980844e-07
-3.83589756e-07
-3.83502794e-07
-3.6956092e-07
-3.65739257e-07
-3.66061545e-07
-3.65417173e-07
-3.65555467e-07
-3.83747908e-07
-3.83562503e-07
-3.6562766e-07
-3.65523116e-07
-3.83847379e-07
-3.83653364e-07
-3.65338224e-07
-3.65286951e-07
-3.83795703e-07
-3.83824064e-07
-3.65797848e-07
-3.63955697e-07
-3.65475582e-07
-3.84242428e-07
-3.83513231e-07
-3.83969414e-07
-3.66057976e-07
-3.65211324e-07
-3.83731408e-07
-3.83712315e-07
-3.66009071e-07
-3.65411199e-07
-3.65323218e-07
-3.65318108e-07
-3.8376313e-07
-3.83795177e-07
-3.66189319e-07
-3.64419362e-07
-3.70774739e-07
-3.84001488e-07
-3.66275534e-07
-3.65086909e-07
-3.83783899e-07
-3.83627972e-07
-3.65274058e-07
-3.65983124e-07
-3.83851134e-07
-3.67438943e-07
-3.648231e-07
-3.83598561e-07
-3.83737053e-07
-3.66632702e-07
-3.6517613e-07
-3.65413921e-07
-3.83756577e-07
-3.8391168e-07
-3.66608161e-07
-3.63993152e-07
-3.65398189e-07
-3.84388155e-07
-3.83724751e-07
-3.84194278e-07
-3.65224613e-07
-3.64110351e-07
-3.84215932e-07
-3.84054912e-07
-3.64908644e-07
-3.64604998e-07
-3.84134584e-07
-3.84073533e-07
-3.65636994e-07
-3.64246823e-07
-3.64876969e-07
-3.84163748e-07
-3.83713178e-07
-3.6577265e-07
-3.65374178e-07
-3.83994694e-07
-3.83775814e-07
-3.66460034e-07
-3.65094773e-07
-3.65522446e-07
-3.83816239e-07
-3.83710147e-07
-3.67151083e-07
-3.65160745e-07
-3.65590088e-07
-3.83805161e-07
-3.83667965e-07
-3.67033498e-07
-3.65078015e-07
-3.65534116e-07
-3.8373516e-07
-3.83743401e-07
-3.68551264e-07
-3.6468235e-07
-3.66490748e-07
-3.84113121e-07
-3.68211837e-07
-3.65222737e-07
-3.83802105e-07
-3.83774146e-07
-3.67197546e-07
-3.65019894e-07
-3.65567018e-07
-3.83846549e-07
-3.8354535e-07
-3.70807051e-07
-3.65271949e-07
-3.65618462e-07
-3.83736661e-07
-3.83641498e-07
-3.6753464e-07
-3.651084e-07
-3.65470415e-07
-3.83830313e-07
-3.83646726e-07
-3.67696154e-07
-3.65110559e-07
-3.65501263e-07
-3.83853681e-07
-3.83680872e-07
-3.67641028e-07
-3.65039911e-07
-3.6539032e-07
-3.839041e-07
-3.83815063e-07
-3.66787166e-07
-3.64616915e-07
-3.65064548e-07
-3.8417558e-07
-3.83674184e-07
-3.66015167e-07
-3.65397797e-07
-3.84273443e-07
-3.83895436e-07
-3.66278372e-07
-3.64498513e-07
-3.64875776e-07
-3.8428164e-07
-3.83726711e-07
-3.66097687e-07
-3.65427115e-07
-3.84369972e-07
-3.83914557e-07
-3.66361715e-07
-3.64511275e-07
-3.64875626e-07
-3.8432886e-07
-3.83742993e-07
-3.66191287e-07
-3.6546014e-07
-3.84433034e-07
-3.8392911e-07
-3.66465253e-07
-3.64513054e-07
-3.64873953e-07
-3.84388436e-07
-3.83752545e-07
-3.66228804e-07
-3.65457255e-07
-3.84535856e-07
-3.83952586e-07
-3.66474822e-07
-3.64439909e-07
-3.64796334e-07
-3.84475115e-07
-3.83804479e-07
-3.66214961e-07
-3.65408649e-07
-3.84675557e-07
-3.84038769e-07
-3.66370996e-07
-3.64185451e-07
-3.64432394e-07
-3.84682729e-07
-3.83924313e-07
-3.65864329e-07
-3.64768963e-07
-3.85108577e-07
-3.83894929e-07
-3.65657269e-07
-3.64908178e-07
-3.85096911e-07
-3.83866323e-07
-3.65994483e-07
-3.65431679e-07
-3.84836114e-07
-3.84070402e-07
-3.66789129e-07
-3.64431286e-07
-3.64623123e-07
-3.84750982e-07
-3.83884028e-07
-3.65865984e-07
-3.64735049e-07
-3.85199178e-07
-3.83797534e-07
-3.66143667e-07
-3.6555693e-07
-3.84901486e-07
-3.83662014e-07
-3.68058653e-07
-3.66201554e-07
-3.65390787e-07
-3.66200608e-07
-3.84520833e-07
-3.67763224e-07
-3.65032812e-07
-3.85151683e-07
-3.83890907e-07
-3.6592154e-07
-3.64736951e-07
-3.8554895e-07
-3.83921755e-07
-3.65286354e-07
-3.64823701e-07
-3.85879603e-07
-3.83641551e-07
-3.84565904e-07
-3.67992428e-07
-3.62984422e-07
-3.65540883e-07
-3.85048974e-07
-3.67051103e-07
-3.65515192e-07
-3.85500123e-07
-3.83624221e-07
-3.84287736e-07
-3.67872999e-07
-3.64055627e-07
-3.64771703e-07
-3.8469291e-07
-3.8399337e-07
-3.67844579e-07
-3.64757639e-07
)
;

boundaryField
{
    closed
    {
        type            calculated;
        value           nonuniform List<scalar> 0();
    }
    open
    {
        type            calculated;
        value           nonuniform List<scalar> 0();
    }
    sides
    {
        type            empty;
    }
    procBoundary2to1
    {
        type            processor;
        value           uniform -3.83815709e-07;
    }
    procBoundary2to3
    {
        type            processor;
        value           uniform -3.65121583e-07;
    }
}


// ************************************************************************* //
