/*--------------------------------*- C++ -*----------------------------------*\
| =========                 |                                                 |
| \\      /  F ield         | OpenFOAM: The Open Source CFD Toolbox           |
|  \\    /   O peration     | Version:  2306                                  |
|   \\  /    A nd           | Website:  www.openfoam.com                      |
|    \\/     M anipulation  |                                                 |
\*---------------------------------------------------------------------------*/
FoamFile
{
    version     2.0;
    format      ascii;
    arch        "LSB;label=32;scalar=64";
    class       volScalarField;
    location    "0.0008";
    object      Z;
}
// * * * * * * * * * * * * * * * * * * * * * * * * * * * * * * * * * * * * * //

dimensions      [0 0 0 0 0 0 0];

internalField   nonuniform List<scalar> 
530
(
0.0140753495
0.0145799891
0.0147247259
0.0146912522
0.0147577818
0.014712863
0.0140673752
0.0140865902
0.0147354403
0.0147259176
0.0140654804
0.0140887464
0.0147598086
0.0147452165
0.0140590861
0.0140872462
0.0146817037
0.0148353462
0.0146937029
0.0140641488
0.0140560097
0.0140856976
0.0146240621
0.0147770691
0.0147294542
0.0147993685
0.0147370978
0.0140697861
0.0140626318
0.0140904065
0.0146690458
0.0148069719
0.0147349508
0.0140658997
0.0140869496
0.0146645164
0.0148241819
0.0147286373
0.0140705334
0.0140626833
0.0140900803
0.0146863536
0.0148227889
0.0147494513
0.0140651866
0.0140827059
0.0146498314
0.0147674671
0.0147270245
0.0147897804
0.0147255762
0.0140681918
0.0140605979
0.0140849125
0.0146439217
0.0147965716
0.0147085885
0.0140633324
0.0140768721
0.0146423085
0.0147735072
0.0147131127
0.0140612326
0.0140780193
0.014639249
0.014779298
0.0147172321
0.0140627564
0.0140761648
0.0146515187
0.01477857
0.0147188013
0.0140609455
0.0140743602
0.0145751273
0.0147393947
0.0147067846
0.0147656325
0.014718996
0.0140687913
0.0140824498
0.0147676449
0.0147168459
0.0140737636
0.0140611176
0.0140875737
0.0147083285
0.0148381251
0.0147568076
0.0140706868
0.0140847594
0.0147020153
0.01484025
0.0147642961
0.0140783851
0.0140808755
0.0140773386
0.0140903963
0.0147736495
0.0148673165
0.0148496863
0.014823337
0.014077014
0.0140936609
0.0147875781
0.0147730888
0.0140712575
0.0140895695
0.0147694057
0.0147654427
0.014065668
0.0140860159
0.0147384941
0.0148469486
0.0147500056
0.0140755258
0.0140629655
0.0140815129
0.0146783962
0.0148100904
0.0146902903
0.0140714509
0.0140730923
0.0147337181
0.0148327987
0.0147819928
0.0140729348
0.0140811417
0.0147719074
0.0147785764
0.0140679278
0.0140854507
0.0147556566
0.0148462497
0.0147832024
0.0140821879
0.0140818274
0.0147900624
0.0147953177
0.0140778584
0.0140848749
0.0148209699
0.0148197742
0.0140771273
0.0140840928
0.0148212165
0.0148140067
0.014074617
0.0140819614
0.014799846
0.014789773
0.0140701064
0.014079164
0.0147680657
0.0147607104
0.0140651232
0.0140775141
0.0147156042
0.0148087012
0.0147189703
0.0140780993
0.0140609178
0.0140758739
0.0146794096
0.0147928031
0.01474856
0.0148166424
0.0147699864
0.0140764459
0.0140729872
0.0147648148
0.0147691076
0.0140729826
0.0140737809
0.0147692334
0.0147661545
0.0140692043
0.0140716325
0.0147547015
0.0147494065
0.0140659553
0.0140744976
0.01470757
0.014829335
0.0147336474
0.0140772767
0.0140736185
0.0140710337
0.0140777925
0.0147196543
0.0148319666
0.0147740351
0.0148330054
0.0147791036
0.014074129
0.0140761013
0.0147077592
0.014813121
0.0147380197
0.0140839552
0.0140738063
0.0147662839
0.0147747183
0.0140850675
0.0140769759
0.0148480046
0.0147948748
0.0140895338
0.0140771595
0.0140864765
0.01482153
0.0148526662
0.0140844241
0.0140762853
0.0148128452
0.014737388
0.0140738764
0.0146836888
0.0147591871
0.0140649892
0.014066046
0.0146748076
0.0147338192
0.0147219798
0.014635871
0.0140604436
0.0140645497
0.0146419397
0.0147947537
0.0147318466
0.0140730062
0.0140643679
0.014739533
0.0147439995
0.0140708761
0.0140687907
0.0147293489
0.0148088506
0.0147461068
0.0140709994
0.014072142
0.0147051615
0.0148335353
0.014737228
0.0140848726
0.0140595535
0.0140780513
0.0146829082
0.0148738077
0.014693574
0.0140761037
0.0147218469
0.0147488189
0.0140726731
0.0140616003
0.0140676835
0.0145975833
0.0147549816
0.014711952
0.014714318
0.0147467593
0.0146712188
0.0140734415
0.0140589388
0.014069598
0.014656484
0.0148058867
0.0147490416
0.0140699404
0.0140709923
0.0146897697
0.0148350354
0.0147470267
0.0140855365
0.0140682106
0.0140793332
0.0147612209
0.0148876961
0.0148228615
0.0140828332
0.0140735224
0.0147721027
0.0147805974
0.0140751634
0.0140729384
0.0147315435
0.0148092318
0.0147596664
0.0140742717
0.0140656177
0.0147286627
0.0147381033
0.0140657219
0.0140643807
0.0146546225
0.0147699297
0.0147204035
0.0140638301
0.0140626903
0.0145749049
0.0147409799
0.0147126154
0.0147593175
0.014741374
0.014068007
0.0140616993
0.0147391697
0.0147472896
0.0140689194
0.0140650382
0.0147518745
0.0147653123
0.0140681064
0.0140689375
0.0147276358
0.0148442277
0.0147495532
0.0140783911
0.0140637502
0.0140719501
0.0147185202
0.014773672
0.014068723
0.0140685618
0.0147185646
0.0147664974
0.0147580187
0.0147680482
0.0140680857
0.0140690803
0.0147041617
0.014816702
0.0145341334
0.0140735575
0.0147000929
0.0147780448
0.0140684367
0.014066102
0.014755711
0.0147280072
0.0140678891
0.0146587276
0.0147880042
0.0140670168
0.0140679277
0.0146887092
0.0147789692
0.0147575128
0.0140708258
0.0140721939
0.014693179
0.0148448233
0.0147608716
0.014082052
0.0140690628
0.0140775068
0.0147667994
0.014835047
0.0140790167
0.0140764659
0.01478287
0.0148113511
0.0140769013
0.0140775568
0.0147399561
0.0148353091
0.0147845716
0.0140798658
0.0140672537
0.0147432742
0.0147618643
0.0140754602
0.0140697045
0.0146976813
0.0147832073
0.0147523022
0.0140709371
0.0140678456
0.0146689868
0.0147774261
0.0147463621
0.0140702619
0.0140660601
0.0146736417
0.0147777205
0.0147512492
0.0140672402
0.0140685621
0.0146117023
0.0148027172
0.0146909163
0.0140752036
0.0146243054
0.0147702858
0.0140678636
0.0140691876
0.0146615795
0.0147844046
0.0147421955
0.0140702552
0.0140629467
0.0145350413
0.0147614606
0.0147437863
0.0140663408
0.0140653861
0.0146495628
0.0147762423
0.0147491197
0.014069434
0.0140651915
0.0146456626
0.0147764088
0.0147500895
0.0140702256
0.0140664162
0.0146489527
0.0147814896
0.0147588469
0.0140711329
0.0140698501
0.0146808191
0.0148097711
0.0147730376
0.0140782352
0.0140656853
0.0147272341
0.0147600615
0.0140790901
0.0140724494
0.0147052706
0.014820399
0.0147857454
0.0140815262
0.0140672654
0.0147263935
0.0147602113
0.0140817278
0.0140733651
0.0147029618
0.014821465
0.0147875679
0.0140828621
0.0140679331
0.0147226436
0.0147594588
0.0140831749
0.0140739682
0.0146979604
0.0148229341
0.0147883814
0.0140844683
0.0140682771
0.0147225384
0.0147601977
0.0140856235
0.0140747386
0.0146994126
0.0148284889
0.0147947879
0.0140867716
0.0140699803
0.0147260359
0.0147655651
0.0140890414
0.0140774401
0.014707326
0.0148460889
0.014815591
0.0140922816
0.0140717904
0.0147512814
0.014794272
0.0141000271
0.0140711103
0.0147633737
0.0147891137
0.0140994425
0.014072112
0.01474267
0.0147686168
0.014092855
0.0140793901
0.0146882244
0.0148366017
0.0148052279
0.014094034
0.0140705508
0.0147514231
0.0147935119
0.0141015458
0.014068574
0.0147364348
0.0147533674
0.0140955467
0.014068594
0.0146423118
0.0147265615
0.0147715298
0.014731625
0.0140850259
0.0146572329
0.0147858404
0.014101815
0.0140710674
0.014754295
0.0147953233
0.0141103077
0.0140714208
0.0147905442
0.0147932112
0.0141163828
0.0140680133
0.0140905768
0.0146390485
0.0149129054
0.0147609599
0.0140980104
0.0146812787
0.0147710643
0.01410596
0.0140697717
0.0140833332
0.014645239
0.0148530677
0.0148026972
0.0140915113
0.0140759634
0.0146485723
0.0148096619
)
;

boundaryField
{
    closed
    {
        type            zeroGradient;
    }
    open
    {
        type            zeroGradient;
    }
    sides
    {
        type            empty;
    }
    procBoundary2to1
    {
        type            processor;
        value           uniform 0.0140680369;
    }
    procBoundary2to3
    {
        type            processor;
        value           uniform 0.0147854325;
    }
}


// ************************************************************************* //
