/*--------------------------------*- C++ -*----------------------------------*\
| =========                 |                                                 |
| \\      /  F ield         | OpenFOAM: The Open Source CFD Toolbox           |
|  \\    /   O peration     | Version:  2306                                  |
|   \\  /    A nd           | Website:  www.openfoam.com                      |
|    \\/     M anipulation  |                                                 |
\*---------------------------------------------------------------------------*/
FoamFile
{
    version     2.0;
    format      ascii;
    arch        "LSB;label=32;scalar=64";
    class       volScalarField;
    location    "0.00172";
    object      prefDZ_H2O;
}
// * * * * * * * * * * * * * * * * * * * * * * * * * * * * * * * * * * * * * //

dimensions      [1 -1 -1 0 0 0 0];

internalField   nonuniform List<scalar> 
531
(
-7.51757871e-07
-7.3540549e-07
-7.34994831e-07
-7.78522777e-07
-7.73998655e-07
-7.51578113e-07
-7.3760548e-07
-7.3471873e-07
-7.34576026e-07
-7.7855478e-07
-7.74616864e-07
-7.56726983e-07
-7.35656419e-07
-7.35532961e-07
-7.78544236e-07
-7.74456525e-07
-7.56363223e-07
-7.35630575e-07
-7.35547437e-07
-7.78334606e-07
-7.74455397e-07
-7.56029247e-07
-7.35489616e-07
-7.35417125e-07
-7.78188559e-07
-7.74483121e-07
-7.55339245e-07
-7.35299509e-07
-7.35238483e-07
-7.77980067e-07
-7.74455542e-07
-7.55007534e-07
-7.35528881e-07
-7.35546835e-07
-7.76714023e-07
-7.74421915e-07
-7.48170748e-07
-7.35015138e-07
-7.46126112e-07
-7.75762817e-07
-7.72878189e-07
-7.7370695e-07
-7.52045957e-07
-7.36526981e-07
-7.36298316e-07
-7.34241818e-07
-7.33986231e-07
-7.77501307e-07
-7.74083695e-07
-7.42072416e-07
-7.37794303e-07
-7.77157294e-07
-7.742074e-07
-7.47335049e-07
-7.34220785e-07
-7.34047932e-07
-7.76610253e-07
-7.73969701e-07
-7.41599755e-07
-7.37920434e-07
-7.76482764e-07
-7.73909502e-07
-7.48257676e-07
-7.34986941e-07
-7.36356752e-07
-7.75433681e-07
-7.73594153e-07
-7.40662981e-07
-7.38584351e-07
-7.75506761e-07
-7.73421618e-07
-7.46141263e-07
-7.36962412e-07
-7.36141443e-07
-7.34911836e-07
-7.44548646e-07
-7.74551594e-07
-7.73643844e-07
-7.49490117e-07
-7.34688671e-07
-7.3578837e-07
-7.75535959e-07
-7.73807663e-07
-7.52110273e-07
-7.36299536e-07
-7.44394155e-07
-7.74188789e-07
-7.73301785e-07
-7.49082154e-07
-7.37263036e-07
-7.36497906e-07
-7.3503256e-07
-7.42360438e-07
-7.74506948e-07
-7.73717223e-07
-7.46830201e-07
-7.34809348e-07
-7.43890145e-07
-7.74436069e-07
-7.74579486e-07
-7.39739584e-07
-7.33627795e-07
-7.4349858e-07
-7.75796204e-07
-7.72682997e-07
-7.75071201e-07
-7.43817882e-07
-7.34985706e-07
-7.33823419e-07
-7.41800533e-07
-7.74743145e-07
-7.74980113e-07
-7.38615058e-07
-7.34273574e-07
-7.44647445e-07
-7.74633319e-07
-7.74829992e-07
-7.39203857e-07
-7.34624042e-07
-7.50364728e-07
-7.75209917e-07
-7.57404734e-07
-7.38036492e-07
-7.55377683e-07
-7.73914821e-07
-7.77980168e-07
-7.37196233e-07
-7.34323752e-07
-7.48057307e-07
-7.75094851e-07
-7.76524294e-07
-7.36874005e-07
-7.34145886e-07
-7.48339417e-07
-7.75214165e-07
-7.77323661e-07
-7.36009552e-07
-7.33963259e-07
-7.51243258e-07
-7.75867873e-07
-7.67908826e-07
-7.36379179e-07
-7.37704321e-07
-7.75867956e-07
-7.7671547e-07
-7.38196041e-07
-7.33508022e-07
-7.53154926e-07
-7.7655032e-07
-7.49022304e-07
-7.37297066e-07
-7.63715897e-07
-7.74934218e-07
-7.68577079e-07
-7.35397441e-07
-7.35058173e-07
-7.6070836e-07
-7.76419921e-07
-7.46040044e-07
-7.38150133e-07
-7.72649648e-07
-7.75000495e-07
-7.62636137e-07
-7.35399565e-07
-7.35704544e-07
-7.67780412e-07
-7.76489991e-07
-7.4346545e-07
-7.38975824e-07
-7.78833426e-07
-7.74340182e-07
-7.65566012e-07
-7.3760412e-07
-7.36553344e-07
-7.33726061e-07
-7.34939018e-07
-7.71174345e-07
-7.77722059e-07
-7.39685136e-07
-7.38583269e-07
-7.77193535e-07
-7.76088824e-07
-7.50025877e-07
-7.35017928e-07
-7.36571532e-07
-7.79151837e-07
-7.78592494e-07
-7.39797693e-07
-7.40178132e-07
-7.75773051e-07
-7.76324045e-07
-7.46719052e-07
-7.34386481e-07
-7.37049481e-07
-7.77619615e-07
-7.79324087e-07
-7.39024581e-07
-7.40081118e-07
-7.75223865e-07
-7.76528543e-07
-7.44755517e-07
-7.34031402e-07
-7.37460177e-07
-7.76389417e-07
-7.79466784e-07
-7.38728885e-07
-7.40347522e-07
-7.74884943e-07
-7.76443767e-07
-7.4443766e-07
-7.34293763e-07
-7.38132583e-07
-7.75749183e-07
-7.76249375e-07
-7.48318671e-07
-7.34303233e-07
-7.37911831e-07
-7.75738741e-07
-7.75027258e-07
-7.57193356e-07
-7.36344778e-07
-7.33442372e-07
-7.37347187e-07
-7.75043012e-07
-7.76565836e-07
-7.43847347e-07
-7.34066091e-07
-7.38084759e-07
-7.74945182e-07
-7.75788052e-07
-7.48334086e-07
-7.34403265e-07
-7.38109527e-07
-7.74684297e-07
-7.75615682e-07
-7.47735149e-07
-7.3443567e-07
-7.38083597e-07
-7.74318366e-07
-7.75548643e-07
-7.45676363e-07
-7.34367777e-07
-7.37815712e-07
-7.74270971e-07
-7.77028565e-07
-7.37795049e-07
-7.39718484e-07
-7.73198226e-07
-7.75191351e-07
-7.43273155e-07
-7.34741257e-07
-7.38173631e-07
-7.73687764e-07
-7.75162566e-07
-7.44987196e-07
-7.34130279e-07
-7.38107185e-07
-7.7408673e-07
-7.74971112e-07
-7.49751408e-07
-7.33961134e-07
-7.38058887e-07
-7.75779681e-07
-7.74291254e-07
-7.6944935e-07
-7.34918988e-07
-7.34108256e-07
-7.33911642e-07
-7.37414371e-07
-7.74518382e-07
-7.76604111e-07
-7.36918471e-07
-7.39139278e-07
-7.73758904e-07
-7.76055253e-07
-7.37608542e-07
-7.40314683e-07
-7.73343301e-07
-7.74733152e-07
-7.3924423e-07
-7.3467478e-07
-7.39802577e-07
-7.74078138e-07
-7.74835628e-07
-7.38912184e-07
-7.3389896e-07
-7.38679362e-07
-7.74825469e-07
-7.7609925e-07
-7.37461057e-07
-7.39223936e-07
-7.74172867e-07
-7.76062719e-07
-7.3773191e-07
-7.4036175e-07
-7.73846269e-07
-7.74465282e-07
-7.38246492e-07
-7.34708257e-07
-7.40937786e-07
-7.74617879e-07
-7.74906148e-07
-7.38907064e-07
-7.3439646e-07
-7.41008792e-07
-7.74855436e-07
-7.75008187e-07
-7.38588094e-07
-7.34282e-07
-7.4106206e-07
-7.74973449e-07
-7.75086409e-07
-7.38421397e-07
-7.3383647e-07
-7.4020307e-07
-7.75570075e-07
-7.78232076e-07
-7.37105657e-07
-7.4010641e-07
-7.74504568e-07
-7.74517909e-07
-7.39852109e-07
-7.34222684e-07
-7.46508476e-07
-7.77115026e-07
-7.42512473e-07
-7.39777516e-07
-7.75875946e-07
-7.75365702e-07
-7.36705917e-07
-7.33278195e-07
-7.40346789e-07
-7.75814731e-07
-7.79041913e-07
-7.37246252e-07
-7.40262216e-07
-7.74997014e-07
-7.79645643e-07
-7.38381116e-07
-7.43421402e-07
-7.74517849e-07
-7.74561062e-07
-7.38993017e-07
-7.35848972e-07
-7.35674874e-07
-7.43662478e-07
-7.74789077e-07
-7.74799944e-07
-7.38869006e-07
-7.33878858e-07
-7.49246234e-07
-7.77712835e-07
-7.42067701e-07
-7.4105274e-07
-7.75776994e-07
-7.73140394e-07
-7.37413218e-07
-7.42099112e-07
-7.75029938e-07
-7.75395947e-07
-7.35672551e-07
-7.33093615e-07
-7.43815567e-07
-7.75942237e-07
-7.7066618e-07
-7.36679156e-07
-7.44004703e-07
-7.75064905e-07
-7.68218017e-07
-7.37375824e-07
-7.44187972e-07
-7.74872431e-07
-7.75433082e-07
-7.3592602e-07
-7.3394572e-07
-7.47362681e-07
-7.7529351e-07
-7.67780868e-07
-7.38274983e-07
-7.47582324e-07
-7.74178924e-07
-7.74995845e-07
-7.37899521e-07
-7.35789395e-07
-7.36475868e-07
-7.47569015e-07
-7.74319717e-07
-7.75132214e-07
-7.37439309e-07
-7.34859485e-07
-7.48340971e-07
-7.74885466e-07
-7.75493436e-07
-7.36598391e-07
-7.34495708e-07
-7.48630567e-07
-7.74602076e-07
-7.75355252e-07
-7.37410418e-07
-7.35069981e-07
-7.4893065e-07
-7.74913691e-07
-7.75552204e-07
-7.35763632e-07
-7.33911929e-07
-7.35285661e-07
-7.44888785e-07
-7.75096075e-07
-7.72678634e-07
-7.76297825e-07
-7.38769371e-07
-7.32349482e-07
-7.54052031e-07
-7.79882831e-07
-7.39940365e-07
-7.41340708e-07
-7.73673208e-07
-7.75536137e-07
-7.3523565e-07
-7.34010626e-07
-7.48921715e-07
-7.73798792e-07
-7.75110313e-07
-7.38233212e-07
-7.33136663e-07
-7.54470286e-07
-7.77792199e-07
-7.38348757e-07
-7.41279657e-07
-7.73353662e-07
-7.64642663e-07
-7.36706293e-07
-7.47740968e-07
-7.73530704e-07
-7.65133372e-07
-7.37235237e-07
-7.46440389e-07
-7.73609026e-07
-7.74939016e-07
-7.35618934e-07
-7.3456111e-07
-7.48310766e-07
-7.74130519e-07
-7.7473362e-07
-7.36869657e-07
-7.34753417e-07
-7.48588436e-07
-7.7401667e-07
-7.747637e-07
-7.37199614e-07
-7.34683424e-07
-7.47188145e-07
-7.74450564e-07
-7.74878641e-07
-7.35650404e-07
-7.34194222e-07
-7.46058171e-07
-7.74561928e-07
-7.74840628e-07
-7.35679908e-07
-7.34015074e-07
-7.45459179e-07
-7.74598506e-07
-7.74897074e-07
-7.35480593e-07
-7.3366516e-07
-7.44172684e-07
-7.74518369e-07
-7.8000058e-07
-7.37091094e-07
-7.41487244e-07
-7.74005237e-07
-7.74800135e-07
-7.35764895e-07
-7.34434787e-07
-7.45793081e-07
-7.74936016e-07
-7.72848604e-07
-7.7501639e-07
-7.37710661e-07
-7.34984953e-07
-7.36184723e-07
-7.42469781e-07
-7.74361471e-07
-7.74871197e-07
-7.34663681e-07
-7.33254582e-07
-7.41305117e-07
-7.7462728e-07
-7.75935233e-07
-7.36937051e-07
-7.39359082e-07
-7.74031426e-07
-7.74720617e-07
-7.35537823e-07
-7.33814971e-07
-7.41209424e-07
-7.74400298e-07
-7.75071405e-07
-7.36917352e-07
-7.38738724e-07
-7.73471783e-07
-7.75270504e-07
-7.37515037e-07
-7.40449172e-07
-7.73353013e-07
-7.74330978e-07
-7.366034e-07
-7.348636e-07
-7.44120185e-07
-7.74008103e-07
-7.74041327e-07
-7.36982487e-07
-7.34484306e-07
-7.4385711e-07
-7.73988172e-07
-7.74050637e-07
-7.37095978e-07
-7.34537073e-07
-7.43662373e-07
-7.73966642e-07
-7.74015394e-07
-7.37281706e-07
-7.3459571e-07
-7.43459426e-07
-7.7392061e-07
-7.73939968e-07
-7.37517772e-07
-7.34662491e-07
-7.43258927e-07
-7.73864804e-07
)
;

boundaryField
{
    closed
    {
        type            calculated;
        value           nonuniform List<scalar> 0();
    }
    open
    {
        type            calculated;
        value           nonuniform List<scalar> 0();
    }
    sides
    {
        type            empty;
    }
    procBoundary1to0
    {
        type            processor;
        value           uniform -7.74490108e-07;
    }
    procBoundary1to2
    {
        type            processor;
        value           uniform -7.73839892e-07;
    }
}


// ************************************************************************* //
