/*--------------------------------*- C++ -*----------------------------------*\
| =========                 |                                                 |
| \\      /  F ield         | OpenFOAM: The Open Source CFD Toolbox           |
|  \\    /   O peration     | Version:  2306                                  |
|   \\  /    A nd           | Website:  www.openfoam.com                      |
|    \\/     M anipulation  |                                                 |
\*---------------------------------------------------------------------------*/
FoamFile
{
    version     2.0;
    format      ascii;
    arch        "LSB;label=32;scalar=64";
    class       volScalarField;
    location    "0.00172";
    object      prefDPV_H2O;
}
// * * * * * * * * * * * * * * * * * * * * * * * * * * * * * * * * * * * * * //

dimensions      [1 -1 -1 0 0 0 0];

internalField   nonuniform List<scalar> 
531
(
-3.72906868e-07
-3.64795326e-07
-3.6459162e-07
-3.86183506e-07
-3.83939331e-07
-3.728177e-07
-3.65886623e-07
-3.64454661e-07
-3.64383873e-07
-3.86199381e-07
-3.84245991e-07
-3.75371778e-07
-3.64919799e-07
-3.64858558e-07
-3.8619415e-07
-3.84166456e-07
-3.75191337e-07
-3.64906979e-07
-3.64865739e-07
-3.86090165e-07
-3.84165896e-07
-3.75025669e-07
-3.64837057e-07
-3.64801098e-07
-3.86017718e-07
-3.84179649e-07
-3.74683396e-07
-3.64742755e-07
-3.64712483e-07
-3.85914297e-07
-3.84165968e-07
-3.74518852e-07
-3.64856534e-07
-3.6486544e-07
-3.8528628e-07
-3.84149288e-07
-3.71127488e-07
-3.64601694e-07
-3.70113253e-07
-3.84814437e-07
-3.83383528e-07
-3.83794632e-07
-3.73049772e-07
-3.65351638e-07
-3.65238209e-07
-3.64218091e-07
-3.64091308e-07
-3.85676809e-07
-3.83981515e-07
-3.68102432e-07
-3.65980288e-07
-3.85506163e-07
-3.84042878e-07
-3.70712942e-07
-3.64207657e-07
-3.64121914e-07
-3.85234805e-07
-3.83924968e-07
-3.6786797e-07
-3.66042856e-07
-3.85171565e-07
-3.83895107e-07
-3.71170608e-07
-3.64587706e-07
-3.65267196e-07
-3.84651171e-07
-3.83738679e-07
-3.67403286e-07
-3.66372189e-07
-3.84687422e-07
-3.83653094e-07
-3.70120769e-07
-3.65567632e-07
-3.65160393e-07
-3.64550451e-07
-3.69330757e-07
-3.84213615e-07
-3.83763328e-07
-3.71781956e-07
-3.64439751e-07
-3.64985253e-07
-3.84701905e-07
-3.8384459e-07
-3.73081676e-07
-3.65238815e-07
-3.69254122e-07
-3.84033646e-07
-3.83593651e-07
-3.71579588e-07
-3.65716756e-07
-3.65337215e-07
-3.64610336e-07
-3.68245304e-07
-3.84191468e-07
-3.83799728e-07
-3.70462514e-07
-3.64499612e-07
-3.6900411e-07
-3.84156309e-07
-3.8422745e-07
-3.66945238e-07
-3.63913507e-07
-3.68809875e-07
-3.84830999e-07
-3.83286703e-07
-3.84471364e-07
-3.68968264e-07
-3.64587094e-07
-3.64010546e-07
-3.67967565e-07
-3.84308633e-07
-3.8442618e-07
-3.66387421e-07
-3.64233843e-07
-3.69379766e-07
-3.84254154e-07
-3.84351713e-07
-3.66679493e-07
-3.64407692e-07
-3.72215804e-07
-3.84540173e-07
-3.75707974e-07
-3.66100426e-07
-3.74702463e-07
-3.83897745e-07
-3.85914347e-07
-3.65683618e-07
-3.64258734e-07
-3.71071216e-07
-3.84483095e-07
-3.85192166e-07
-3.65523778e-07
-3.64170504e-07
-3.71211155e-07
-3.8454228e-07
-3.85588689e-07
-3.65094969e-07
-3.64079913e-07
-3.72651596e-07
-3.8486655e-07
-3.80918493e-07
-3.65278321e-07
-3.65935653e-07
-3.84866591e-07
-3.85286998e-07
-3.66179569e-07
-3.63854094e-07
-3.73599872e-07
-3.85205076e-07
-3.71549899e-07
-3.65733636e-07
-3.78838605e-07
-3.84403414e-07
-3.81249977e-07
-3.64791334e-07
-3.64623041e-07
-3.77346727e-07
-3.85140391e-07
-3.7007056e-07
-3.66156797e-07
-3.83270161e-07
-3.8443629e-07
-3.78302994e-07
-3.64792387e-07
-3.64943671e-07
-3.80854793e-07
-3.8517515e-07
-3.68793441e-07
-3.66566378e-07
-3.86337602e-07
-3.84108744e-07
-3.79756348e-07
-3.65885949e-07
-3.65364715e-07
-3.63962251e-07
-3.64563934e-07
-3.82538342e-07
-3.85786313e-07
-3.6691823e-07
-3.66371653e-07
-3.8552414e-07
-3.84976152e-07
-3.72047718e-07
-3.64603077e-07
-3.65373737e-07
-3.86495549e-07
-3.86218089e-07
-3.66974063e-07
-3.67162779e-07
-3.84819514e-07
-3.85092833e-07
-3.70407379e-07
-3.64289851e-07
-3.65610822e-07
-3.85735496e-07
-3.86580993e-07
-3.66590564e-07
-3.67114655e-07
-3.84547092e-07
-3.85194273e-07
-3.69433375e-07
-3.64113715e-07
-3.65814547e-07
-3.8512526e-07
-3.86651777e-07
-3.66443885e-07
-3.67246804e-07
-3.84378971e-07
-3.8515222e-07
-3.69275703e-07
-3.64243858e-07
-3.66148091e-07
-3.84807674e-07
-3.85055793e-07
-3.71200864e-07
-3.64248556e-07
-3.66038588e-07
-3.84802495e-07
-3.84449566e-07
-3.75603121e-07
-3.65261257e-07
-3.63821528e-07
-3.65758498e-07
-3.8445738e-07
-3.85212772e-07
-3.6898288e-07
-3.64130922e-07
-3.66124369e-07
-3.84408852e-07
-3.84826955e-07
-3.71208511e-07
-3.64298176e-07
-3.66136654e-07
-3.84279441e-07
-3.84741452e-07
-3.7091141e-07
-3.64314251e-07
-3.66123792e-07
-3.84097922e-07
-3.84708197e-07
-3.69890157e-07
-3.64280572e-07
-3.65990909e-07
-3.84074413e-07
-3.85442307e-07
-3.65980659e-07
-3.66934772e-07
-3.83542281e-07
-3.84530964e-07
-3.68698054e-07
-3.64465836e-07
-3.66168453e-07
-3.83785115e-07
-3.84516685e-07
-3.69548298e-07
-3.64162763e-07
-3.66135492e-07
-3.83983021e-07
-3.84421715e-07
-3.71911569e-07
-3.64078859e-07
-3.66111534e-07
-3.84822803e-07
-3.84084474e-07
-3.81682664e-07
-3.64553998e-07
-3.64151838e-07
-3.64054308e-07
-3.65791825e-07
-3.8419714e-07
-3.85231759e-07
-3.65545835e-07
-3.66647459e-07
-3.83820403e-07
-3.84959499e-07
-3.65888142e-07
-3.67230514e-07
-3.83614245e-07
-3.84303676e-07
-3.6669952e-07
-3.6443286e-07
-3.66976486e-07
-3.83978758e-07
-3.84354509e-07
-3.66534809e-07
-3.64048017e-07
-3.66419319e-07
-3.84349469e-07
-3.84981324e-07
-3.65814983e-07
-3.66689453e-07
-3.84025748e-07
-3.84963203e-07
-3.65949339e-07
-3.67253862e-07
-3.83863741e-07
-3.841708e-07
-3.66204595e-07
-3.64449466e-07
-3.67539603e-07
-3.84246495e-07
-3.8438949e-07
-3.6653227e-07
-3.642948e-07
-3.67574825e-07
-3.84364334e-07
-3.84440106e-07
-3.66374046e-07
-3.64238023e-07
-3.67601248e-07
-3.84422874e-07
-3.84478908e-07
-3.66291356e-07
-3.64017019e-07
-3.67175149e-07
-3.84718829e-07
-3.86039305e-07
-3.65638688e-07
-3.67127201e-07
-3.84190287e-07
-3.84196905e-07
-3.67001056e-07
-3.642086e-07
-3.70302924e-07
-3.85485196e-07
-3.6832072e-07
-3.66964055e-07
-3.84870555e-07
-3.8461745e-07
-3.65440398e-07
-3.63740089e-07
-3.6724644e-07
-3.84840189e-07
-3.86441021e-07
-3.6570843e-07
-3.67204488e-07
-3.84434564e-07
-3.867405e-07
-3.66271375e-07
-3.68771592e-07
-3.84196875e-07
-3.84218311e-07
-3.66574907e-07
-3.65015314e-07
-3.64928953e-07
-3.68891177e-07
-3.84331417e-07
-3.84336808e-07
-3.66513391e-07
-3.64038046e-07
-3.71660979e-07
-3.85781737e-07
-3.68100093e-07
-3.67596625e-07
-3.8482147e-07
-3.83513594e-07
-3.65791253e-07
-3.68115674e-07
-3.84450895e-07
-3.84632453e-07
-3.64927801e-07
-3.63648529e-07
-3.68967116e-07
-3.84903438e-07
-3.82286268e-07
-3.65427124e-07
-3.69060936e-07
-3.84468241e-07
-3.81071866e-07
-3.65772704e-07
-3.69151846e-07
-3.84372765e-07
-3.84650873e-07
-3.65053533e-07
-3.64071213e-07
-3.70726649e-07
-3.8458164e-07
-3.8085502e-07
-3.66218728e-07
-3.70835602e-07
-3.84028753e-07
-3.84433984e-07
-3.66032482e-07
-3.64985761e-07
-3.65326284e-07
-3.70829e-07
-3.84098593e-07
-3.84501629e-07
-3.65804195e-07
-3.64524482e-07
-3.71211927e-07
-3.84379231e-07
-3.84680812e-07
-3.6538706e-07
-3.64344032e-07
-3.71355579e-07
-3.84238656e-07
-3.84612266e-07
-3.65789864e-07
-3.64628898e-07
-3.71504435e-07
-3.84393231e-07
-3.84709963e-07
-3.64972981e-07
-3.64054451e-07
-3.64735886e-07
-3.69499481e-07
-3.84483702e-07
-3.83284539e-07
-3.85079826e-07
-3.66463968e-07
-3.63279404e-07
-3.74044878e-07
-3.86858156e-07
-3.67044835e-07
-3.67739471e-07
-3.83777894e-07
-3.84701993e-07
-3.64711078e-07
-3.64103409e-07
-3.71500002e-07
-3.8384019e-07
-3.84490765e-07
-3.66198008e-07
-3.63669883e-07
-3.74252352e-07
-3.85821105e-07
-3.66255324e-07
-3.67709186e-07
-3.83619385e-07
-3.79298324e-07
-3.65440585e-07
-3.70914297e-07
-3.83707206e-07
-3.79541738e-07
-3.65702966e-07
-3.70269149e-07
-3.83746057e-07
-3.84405794e-07
-3.64901204e-07
-3.64376474e-07
-3.71196944e-07
-3.84004741e-07
-3.84303908e-07
-3.65521621e-07
-3.64471868e-07
-3.71334681e-07
-3.83948267e-07
-3.84318829e-07
-3.65685295e-07
-3.64437148e-07
-3.70640071e-07
-3.84163499e-07
-3.84375845e-07
-3.64916815e-07
-3.64194481e-07
-3.70079551e-07
-3.84218741e-07
-3.84356989e-07
-3.64931451e-07
-3.64105615e-07
-3.69782423e-07
-3.84236885e-07
-3.84384989e-07
-3.64832581e-07
-3.63932041e-07
-3.69144262e-07
-3.84197133e-07
-3.86916565e-07
-3.65631464e-07
-3.67812159e-07
-3.83942596e-07
-3.84336902e-07
-3.64973608e-07
-3.64313812e-07
-3.69948054e-07
-3.84404306e-07
-3.83368852e-07
-3.84444175e-07
-3.65938798e-07
-3.6458672e-07
-3.65181862e-07
-3.68299543e-07
-3.84119305e-07
-3.84372152e-07
-3.64427354e-07
-3.63728376e-07
-3.67721815e-07
-3.84251158e-07
-3.84899964e-07
-3.65555052e-07
-3.66756492e-07
-3.83955587e-07
-3.84297458e-07
-3.6486097e-07
-3.64006355e-07
-3.67674348e-07
-3.84138565e-07
-3.84471465e-07
-3.6554528e-07
-3.66448765e-07
-3.83677978e-07
-3.84570227e-07
-3.6584176e-07
-3.67297227e-07
-3.83619062e-07
-3.84104179e-07
-3.65389545e-07
-3.64526524e-07
-3.6911822e-07
-3.83944018e-07
-3.83960498e-07
-3.6557759e-07
-3.64338376e-07
-3.68987723e-07
-3.83934131e-07
-3.83965117e-07
-3.65633887e-07
-3.64364551e-07
-3.68891124e-07
-3.83923451e-07
-3.83947635e-07
-3.65726017e-07
-3.64393638e-07
-3.68790453e-07
-3.83900617e-07
-3.8391022e-07
-3.65843117e-07
-3.64426764e-07
-3.68690996e-07
-3.83872935e-07
)
;

boundaryField
{
    closed
    {
        type            calculated;
        value           nonuniform List<scalar> 0();
    }
    open
    {
        type            calculated;
        value           nonuniform List<scalar> 0();
    }
    sides
    {
        type            empty;
    }
    procBoundary1to0
    {
        type            processor;
        value           uniform -3.84183115e-07;
    }
    procBoundary1to2
    {
        type            processor;
        value           uniform -3.83860577e-07;
    }
}


// ************************************************************************* //
