/*--------------------------------*- C++ -*----------------------------------*\
| =========                 |                                                 |
| \\      /  F ield         | OpenFOAM: The Open Source CFD Toolbox           |
|  \\    /   O peration     | Version:  2306                                  |
|   \\  /    A nd           | Website:  www.openfoam.com                      |
|    \\/     M anipulation  |                                                 |
\*---------------------------------------------------------------------------*/
FoamFile
{
    version     2.0;
    format      ascii;
    arch        "LSB;label=32;scalar=64";
    class       volScalarField;
    location    "0.00114";
    object      rho;
}
// * * * * * * * * * * * * * * * * * * * * * * * * * * * * * * * * * * * * * //

dimensions      [1 -3 0 0 0 0 0];

internalField   nonuniform List<scalar> 
530
(
0.908688001
0.905303916
0.930496964
0.947431495
0.949327783
0.963396934
0.959338
0.902462182
0.903642316
0.946245782
0.947558121
0.902258277
0.903921733
0.944865792
0.947113775
0.901808607
0.904651185
0.936355072
0.967019792
0.95596217
0.902950473
0.903362356
0.904540693
0.938446068
0.954332952
0.954078512
0.964725023
0.938260989
0.904156749
0.904224836
0.904970441
0.916589447
0.967432729
0.966449079
0.907183763
0.90629079
0.936377196
0.970877093
0.958369064
0.904227241
0.904479074
0.90590422
0.935043253
0.968500995
0.954075197
0.903063437
0.904986368
0.939672564
0.953251763
0.954887027
0.963992199
0.936542601
0.904825829
0.905006349
0.905284389
0.916528136
0.966810869
0.962874951
0.902958712
0.90632726
0.938908
0.963362331
0.952112622
0.903509782
0.905715178
0.937552694
0.96130478
0.950590881
0.903438009
0.905675935
0.936705278
0.960068766
0.94853523
0.903399125
0.90580743
0.935289272
0.948817744
0.950016263
0.963061133
0.954069605
0.904283337
0.906485969
0.952979574
0.942686128
0.904267707
0.904629381
0.905620551
0.935167169
0.967920951
0.954290039
0.903547759
0.906273488
0.940299561
0.974915756
0.954009211
0.903905075
0.904403145
0.904276625
0.905466825
0.93697845
0.953744323
0.963568369
0.954137366
0.90378852
0.906467832
0.953714784
0.948022162
0.903256067
0.906939268
0.951525226
0.946172054
0.90280572
0.906298105
0.940618632
0.970483927
0.952201259
0.904152016
0.904236629
0.905857739
0.938943222
0.968016204
0.95012644
0.903863488
0.905817142
0.939953901
0.967643402
0.950570479
0.904060192
0.906598388
0.95128281
0.947063123
0.902926595
0.90629831
0.940714149
0.968658303
0.952164679
0.904285693
0.906008866
0.953233014
0.948482392
0.903693252
0.906383613
0.952461706
0.946769504
0.903475233
0.906257387
0.952258375
0.9461718
0.903318918
0.906288845
0.951928946
0.945072133
0.903144948
0.906541017
0.950940027
0.944617341
0.902719589
0.905903032
0.940590008
0.968397897
0.949831327
0.903856679
0.903776156
0.905814988
0.937619829
0.955632044
0.953142504
0.966152087
0.952457185
0.904494328
0.906497055
0.952974524
0.946674513
0.90399457
0.906637444
0.951639568
0.945280104
0.90321075
0.906266911
0.953296384
0.946304602
0.902121403
0.905217134
0.944372649
0.957922546
0.940148756
0.903680826
0.903564412
0.904885133
0.904385009
0.922388366
0.95965444
0.962965099
0.969133563
0.954344117
0.902998123
0.905975742
0.949016039
0.971362562
0.950873638
0.904452471
0.906094258
0.952825103
0.94648689
0.903381913
0.906146199
0.954238627
0.940616936
0.903455588
0.903530402
0.905424056
0.945761966
0.940079116
0.901915511
0.904485257
0.940837444
0.939633711
0.936658883
0.940604006
0.940275604
0.902189
0.904483102
0.940517071
0.950329601
0.956294921
0.945146296
0.902249814
0.904802877
0.940494944
0.962373612
0.94567144
0.903766568
0.905639103
0.947983648
0.942495161
0.903049839
0.905253712
0.939587887
0.960203242
0.945667034
0.903377889
0.905506063
0.939698826
0.971192443
0.948340387
0.904537981
0.904416472
0.906622422
0.962444867
0.959758777
0.903943869
0.907431502
0.956619626
0.948018306
0.903660708
0.90579006
0.904402778
0.906314298
0.953626342
0.963720565
0.954071833
0.969551422
0.953151943
0.904202588
0.904231227
0.904850083
0.9345716
0.96830045
0.951854434
0.903581447
0.905511729
0.940005972
0.970349965
0.95092562
0.904057692
0.90338017
0.905035333
0.936943161
0.971725858
0.950124611
0.903666691
0.905455339
0.953566541
0.94865182
0.903713706
0.904805463
0.940151844
0.96402858
0.948479905
0.903527706
0.904782157
0.951895626
0.94964082
0.902894915
0.904734404
0.940550986
0.967106573
0.948402598
0.903378499
0.903331084
0.904010083
0.939682255
0.95666878
0.957138337
0.954386633
0.903109518
0.904994105
0.953879517
0.950075355
0.9028344
0.905166986
0.949980585
0.948238727
0.902557797
0.904608619
0.940558028
0.965440562
0.94580022
0.903225898
0.903391204
0.903493756
0.945354429
0.946123674
0.903568411
0.90432914
0.942092038
0.952873118
0.960396011
0.953469982
0.902779107
0.904016091
0.958603996
0.95296614
0.902783524
0.903778758
0.951712761
0.945786409
0.9022044
0.903751376
0.940333324
0.941287508
0.939739956
0.943831873
0.940468165
0.902654906
0.902886886
0.940428258
0.960354986
0.948521601
0.902584319
0.903270327
0.940705783
0.968686371
0.946523008
0.903197281
0.903229147
0.903340366
0.948582405
0.950135516
0.90286339
0.904047143
0.948939273
0.949010517
0.902283971
0.904040954
0.94098443
0.964895197
0.949192539
0.903542031
0.902874234
0.95159848
0.949901816
0.902995046
0.903841512
0.940185933
0.96080104
0.947154475
0.903626513
0.902994209
0.939632489
0.96145771
0.947622635
0.903176271
0.903577016
0.940021312
0.964101536
0.94916804
0.903892964
0.902761809
0.953223315
0.951498082
0.903174963
0.903462801
0.950032655
0.94962894
0.902845152
0.903716484
0.940305492
0.960831092
0.947019315
0.903397518
0.903076606
0.939402832
0.95976256
0.946235358
0.903336575
0.903184886
0.939114164
0.95893706
0.946663254
0.903362466
0.903159396
0.939405071
0.959311529
0.947400672
0.90342862
0.903006162
0.939544656
0.960036325
0.948176359
0.903194128
0.903012502
0.939797461
0.96156899
0.949067961
0.903541658
0.90284973
0.948470374
0.948928497
0.903202119
0.903512458
0.940218372
0.961533888
0.949612099
0.903612702
0.902709214
0.949087305
0.94980895
0.903309765
0.903417988
0.94036297
0.962105629
0.949957353
0.903740408
0.90275578
0.949054691
0.950066429
0.90350097
0.90342637
0.940349263
0.962333026
0.950157895
0.903851473
0.902818442
0.949106442
0.950558116
0.903650471
0.903405019
0.940368169
0.963020337
0.950712998
0.90391871
0.902901238
0.949634703
0.951356384
0.903674249
0.903532027
0.940582187
0.964013549
0.951778813
0.904376484
0.902603336
0.951037054
0.952102838
0.904063698
0.903353532
0.949500456
0.949634288
0.903734281
0.903527575
0.94853961
0.950020864
0.903661397
0.903543209
0.941098283
0.963976
0.951552764
0.904378553
0.902904105
0.951568162
0.952044164
0.904115982
0.90365866
0.950367634
0.952877519
0.904095323
0.903757142
0.947393893
0.970679345
0.956751073
0.904537572
0.902782385
0.955341016
0.95611186
0.904137849
0.903444815
0.951037555
0.950818959
0.903701904
0.903419231
0.948236453
0.948967473
0.90334719
0.903360412
0.940534494
0.961760407
0.949971402
0.904772611
0.902284058
0.953636516
0.951367909
0.91645472
0.903613767
0.904662022
0.938316342
0.961581661
0.950838245
0.903743471
0.902478512
0.94084402
)
;

boundaryField
{
    closed
    {
        type            calculated;
        value           nonuniform List<scalar> 0();
    }
    open
    {
        type            calculated;
        value           nonuniform List<scalar> 0();
    }
    sides
    {
        type            empty;
    }
    procBoundary2to1
    {
        type            processor;
        value           uniform 0.962160899;
    }
    procBoundary2to3
    {
        type            processor;
        value           uniform 0.961525997;
    }
}


// ************************************************************************* //
