/*--------------------------------*- C++ -*----------------------------------*\
| =========                 |                                                 |
| \\      /  F ield         | OpenFOAM: The Open Source CFD Toolbox           |
|  \\    /   O peration     | Version:  2306                                  |
|   \\  /    A nd           | Website:  www.openfoam.com                      |
|    \\/     M anipulation  |                                                 |
\*---------------------------------------------------------------------------*/
FoamFile
{
    version     2.0;
    format      ascii;
    arch        "LSB;label=32;scalar=64";
    class       volScalarField;
    location    "0.0002";
    object      H2O;
}
// * * * * * * * * * * * * * * * * * * * * * * * * * * * * * * * * * * * * * //

dimensions      [0 0 0 0 0 0 0];

internalField   nonuniform List<scalar> 
531
(
0.00452597429
0.00450781957
0.00449448402
0.00450380009
0.00451474968
0.00451065708
0.00450300317
0.00450448364
0.00450913904
0.00450876748
0.00450628311
0.0045063309
0.00450740496
0.0045074301
0.00450709411
0.00450709378
0.00450714733
0.00450707933
0.0045070674
0.00450721221
0.00450724309
0.00450710033
0.00450701908
0.00450710342
0.00450723345
0.00450721466
0.00450707628
0.00450705832
0.00450714171
0.00450718907
0.00450715703
0.00450711553
0.00450711889
0.00450712174
0.00450712259
0.00450717176
0.00450718668
0.00450709707
0.00450704282
0.00450714967
0.00450726829
0.00450717638
0.0045069704
0.00450700821
0.00450731591
0.00450732337
0.00450700982
0.00450690068
0.00450716041
0.00450739241
0.00450724115
0.00450689161
0.004506926
0.00450730699
0.00450736292
0.00450710253
0.00450694511
0.00450704326
0.00450724441
0.00450724141
0.00450717255
0.00450709333
0.00450702016
0.00450703956
0.00450725977
0.00450733323
0.00450709508
0.0045068793
0.00450704766
0.00450739815
0.00450734255
0.00450691181
0.00450690346
0.00450725038
0.00450734321
0.00450711484
0.00450698193
0.004507104
0.0045072248
0.00450717224
0.00450710112
0.00450712131
0.00450714374
0.00450711709
0.00450712019
0.00450718561
0.00450717971
0.00450706295
0.004507063
0.00450720456
0.00450722844
0.00450708866
0.00450703535
0.00450715082
0.00450722811
0.00450714779
0.00450706031
0.00450710798
0.00450719029
0.00450716452
0.00450709582
0.00450711044
0.00450716911
0.00450715953
0.00450710029
0.00450710433
0.00450717412
0.0045071738
0.0045071014
0.00450709054
0.00450715867
0.00450718363
0.00450712706
0.00450708734
0.00450712607
0.00450718088
0.00450716656
0.00450709388
0.00450709363
0.0045071565
0.00450718568
0.00450714217
0.00450707847
0.00450709618
0.00450719624
0.00450719552
0.00450708639
0.00450706061
0.00450716565
0.00450722198
0.00450712857
0.00450703773
0.00450711027
0.00450724495
0.00450720783
0.00450701685
0.00450702215
0.00450723067
0.00450728126
0.00450709765
0.00450696792
0.00450709213
0.00450730347
0.00450726264
0.00450699207
0.0045069818
0.00450720021
0.00450728441
0.0045071494
0.00450701312
0.00450706497
0.00450722284
0.00450721717
0.00450709031
0.00450706609
0.00450715144
0.00450719617
0.00450713119
0.00450706793
0.0045071264
0.0045072255
0.00450717862
0.00450701961
0.00450703422
0.0045072581
0.00450728596
0.00450706171
0.00450694955
0.00450711805
0.00450732748
0.00450726321
0.00450696719
0.00450696718
0.00450720969
0.00450730022
0.00450715831
0.00450699881
0.00450704589
0.00450723588
0.00450723398
0.00450708601
0.00450704717
0.00450714667
0.00450721403
0.00450715189
0.00450706378
0.00450709116
0.00450719745
0.00450719419
0.00450710434
0.00450707897
0.0045071211
0.00450717607
0.00450717282
0.00450712999
0.00450710096
0.00450711138
0.00450715765
0.00450716009
0.00450712485
0.00450712193
0.00450715308
0.00450714713
0.00450709064
0.00450710116
0.00450721408
0.00450721126
0.00450704028
0.00450701557
0.00450721422
0.00450729077
0.00450710069
0.0045069613
0.0045071101
0.00450730983
0.00450722252
0.00450697767
0.00450700176
0.00450726056
0.00450727463
0.00450707024
0.00450700601
0.00450714456
0.00450724655
0.00450717088
0.00450704771
0.00450706817
0.00450719897
0.00450720663
0.00450711087
0.00450706626
0.00450712532
0.00450719948
0.00450717299
0.00450708033
0.00450708486
0.00450717383
0.0045071831
0.00450711701
0.00450709934
0.00450714268
0.004507157
0.00450712609
0.00450712337
0.00450715838
0.00450715159
0.0045070919
0.00450709974
0.00450719744
0.00450719515
0.00450706857
0.00450705767
0.00450719308
0.004507222
0.00450709036
0.00450704768
0.00450717326
0.00450722546
0.00450709796
0.00450703148
0.00450717043
0.00450726898
0.00450712034
0.00450696322
0.00450709942
0.00450734216
0.00450725761
0.00450691064
0.00450693113
0.00450732854
0.0045073862
0.00450703561
0.0045068632
0.0045071139
0.00450739993
0.00450728934
0.00450690083
0.00450691421
0.00450727514
0.00450737438
0.00450711753
0.00450690064
0.00450704209
0.00450734774
0.00450730975
0.0045069615
0.00450694678
0.00450723525
0.00450731382
0.00450709696
0.00450698058
0.00450713473
0.00450726384
0.00450715642
0.00450702572
0.00450710127
0.00450723795
0.00450718943
0.00450703395
0.00450704939
0.00450722997
0.00450724269
0.00450708216
0.00450701335
0.00450712651
0.00450725718
0.00450721824
0.00450702784
0.00450702255
0.00450718148
0.00450725701
0.00450715785
0.00450702093
0.00450705148
0.00450723488
0.00450723796
0.00450708108
0.00450703051
0.00450714626
0.0045072332
0.00450715864
0.00450705058
0.00450708838
0.00450720594
0.00450719652
0.00450708007
0.00450707493
0.00450716641
0.00450719256
0.00450712828
0.00450708505
0.00450712144
0.00450717548
0.00450716408
0.0045071065
0.00450710674
0.00450714968
0.00450716014
0.00450713008
0.00450711277
0.00450713702
0.00450716014
0.00450713656
0.00450710505
0.00450712891
0.00450717313
0.00450715087
0.0045070916
0.00450710786
0.0045071828
0.00450717501
0.00450708877
0.00450708957
0.00450717451
0.00450718271
0.00450710705
0.00450709005
0.00450715329
0.00450717647
0.00450712578
0.00450709999
0.00450714013
0.00450716607
0.00450713267
0.0045071072
0.00450713713
0.00450716377
0.00450713567
0.00450710627
0.00450713182
0.0045071647
0.00450714233
0.00450710686
0.00450712633
0.00450716425
0.00450714659
0.00450710383
0.00450711856
0.00450717225
0.00450716582
0.00450709271
0.004507093
0.00450717119
0.0045071902
0.00450711774
0.00450707176
0.00450712444
0.00450720047
0.0045071821
0.00450707722
0.00450707457
0.00450715909
0.00450719785
0.00450715442
0.00450708348
0.00450708962
0.00450715765
0.00450718117
0.00450715685
0.00450710306
0.00450709917
0.00450712514
0.00450716892
0.00450717395
0.00450713722
0.00450708549
0.00450709047
0.0045071709
0.00450720911
0.00450715278
0.00450704731
0.00450705789
0.00450720056
0.00450724814
0.00450714913
0.00450701303
0.00450703441
0.00450722045
0.00450727721
0.00450715577
0.00450698549
0.00450701147
0.00450724748
0.00450730515
0.00450712124
0.00450695332
0.00450704246
0.00450730493
0.00450728907
0.00450702004
0.00450697136
0.00450717656
0.00450728692
0.0045071535
0.0045070081
0.00450708071
0.00450723769
0.00450720935
0.00450705199
0.00450705628
0.00450719829
0.00450721912
0.00450709919
0.00450704089
0.00450713268
0.00450724041
0.00450719469
0.00450702953
0.00450703437
0.00450720493
0.00450725417
0.00450713008
0.00450702001
0.00450707404
0.00450722958
0.00450722345
0.00450709155
0.00450705618
0.00450712667
0.00450719059
0.00450717332
0.00450710881
0.00450710479
0.00450712637
0.00450715104
0.00450715451
0.00450714403
0.00450711671
0.00450711485
0.00450714504
0.00450716023
0.00450713578
0.00450711038
0.00450712706
0.00450715789
0.0045071488
0.0045071181
0.00450712021
0.0045071455
0.00450714681
0.00450713715
0.00450713192
0.00450712662
0.00450712187
0.00450714442
0.00450716787
0.00450714208
0.00450709105
0.00450709761
0.00450715892
0.00450718475
0.00450720657
0.00450718264
0.00450684951
0.0045066885
0.00450770564
0.00450888893
0.00450683767
0.00450179054
0.00450359735
0.00452119353
0.00452186431
0.00448109841
0.00446282581
0.00453895226
0.00461955037
0.00451327653
0.00427343703
0.00434754227
0.00492105253
0.00495268178
0.00396723866
0.00363353236
0.00491080554
0.00588224876
0.0047781807
0.00185210845
0.00307227277
0.00654717349
0.00651544945
0.00177282567
0.000869551536
0.00561989221
0.00694843694
0.00479865834
0.000805110948
0.00283467024
0.00651263678
0.00598210114
0.00280022757
0.00283343969
)
;

boundaryField
{
    closed
    {
        type            calculated;
        value           nonuniform List<scalar> 0();
    }
    open
    {
        type            calculated;
        value           nonuniform List<scalar> 0();
    }
    sides
    {
        type            empty;
    }
    procBoundary3to2
    {
        type            processor;
        value           uniform 0.00451296393;
    }
    procBoundary3to4
    {
        type            processor;
        value           uniform 0.00541677586;
    }
}


// ************************************************************************* //
