/*--------------------------------*- C++ -*----------------------------------*\
| =========                 |                                                 |
| \\      /  F ield         | OpenFOAM: The Open Source CFD Toolbox           |
|  \\    /   O peration     | Version:  2306                                  |
|   \\  /    A nd           | Website:  www.openfoam.com                      |
|    \\/     M anipulation  |                                                 |
\*---------------------------------------------------------------------------*/
FoamFile
{
    version     2.0;
    format      ascii;
    arch        "LSB;label=32;scalar=64";
    class       volScalarField;
    location    "0.0002";
    object      sourcePV;
}
// * * * * * * * * * * * * * * * * * * * * * * * * * * * * * * * * * * * * * //

dimensions      [1 -3 -1 0 0 0 0];

internalField   nonuniform List<scalar> 
531
(
0.0819508814
0.0815457042
0.0812482881
0.0814560428
0.0817003298
0.0816090107
0.0814382664
0.0814712891
0.0815751413
0.081566852
0.0815114293
0.0815124954
0.0815364556
0.0815370165
0.081529521
0.0815295137
0.0815307084
0.0815291915
0.0815289253
0.0815321558
0.0815328446
0.0815296599
0.0815278474
0.0815297288
0.0815326295
0.0815322105
0.0815291233
0.0815287228
0.081530583
0.0815316396
0.0815309248
0.081529999
0.081530074
0.0815301375
0.0815301565
0.0815312534
0.0815315863
0.0815295871
0.081528377
0.0815307605
0.0815334069
0.0815313565
0.0815267614
0.0815276049
0.0815344691
0.0815346356
0.0815276408
0.0815252061
0.0815310001
0.0815361758
0.0815328014
0.0815250038
0.0815257708
0.0815342701
0.0815355178
0.081529709
0.0815261973
0.0815283867
0.0815328741
0.0815328071
0.0815312709
0.0815295036
0.0815278714
0.0815283042
0.0815332167
0.0815348555
0.0815295428
0.0815247291
0.0815284849
0.0815363039
0.0815350635
0.0815254544
0.0815252681
0.0815330072
0.0815350781
0.0815299835
0.0815270185
0.0815297417
0.0815324365
0.081531264
0.0815296774
0.081530128
0.0815306284
0.0815300337
0.0815301028
0.0815315624
0.0815314307
0.081528826
0.0815288271
0.081531985
0.0815325179
0.0815293996
0.0815282104
0.0815307862
0.0815325106
0.0815307186
0.0815287671
0.0815298306
0.0815316667
0.0815310919
0.0815295594
0.0815298854
0.0815311943
0.0815309806
0.0815296591
0.081529749
0.081531306
0.0815312989
0.0815296838
0.0815294415
0.0815309613
0.0815315183
0.0815302562
0.08152937
0.081530234
0.0815314568
0.0815311374
0.0815295161
0.0815295105
0.0815309129
0.0815315639
0.0815305932
0.0815291723
0.0815295672
0.0815317995
0.0815317834
0.0815293489
0.0815287738
0.0815311171
0.0815323737
0.0815302899
0.0815282634
0.0815298818
0.0815328861
0.081532058
0.0815277976
0.0815279159
0.0815325676
0.0815336962
0.0815296
0.0815267062
0.0815294769
0.0815341916
0.0815332807
0.0815272449
0.0815270156
0.081531888
0.0815337664
0.0815307546
0.0815277143
0.0815288711
0.0815323928
0.0815322665
0.0815294365
0.0815288961
0.0815308
0.0815317979
0.0815303484
0.0815289372
0.0815302414
0.0815324522
0.0815314063
0.0815278593
0.0815281852
0.0815331794
0.081533801
0.0815287984
0.0815262963
0.0815300552
0.0815347272
0.0815332936
0.0815266898
0.0815266896
0.0815320995
0.0815341192
0.0815309534
0.0815273952
0.0815284454
0.0815326839
0.0815326415
0.0815293403
0.0815284741
0.0815306937
0.0815321963
0.0815308101
0.0815288445
0.0815294553
0.0815318264
0.0815317537
0.0815297494
0.0815291835
0.0815301232
0.0815313496
0.0815312771
0.0815303216
0.0815296739
0.0815299065
0.0815309385
0.0815309931
0.0815302068
0.0815301418
0.0815308367
0.0815307039
0.0815294438
0.0815296785
0.0815321976
0.0815321347
0.0815283203
0.081527769
0.0815322007
0.0815339084
0.081529668
0.0815265584
0.0815298778
0.0815343335
0.0815323858
0.0815269235
0.0815274609
0.0815332344
0.0815335482
0.0815289887
0.0815275558
0.0815306467
0.0815329218
0.0815312338
0.081528486
0.0815289424
0.0815318604
0.0815320314
0.081529895
0.0815288998
0.0815302173
0.0815318717
0.0815312809
0.0815292136
0.0815293148
0.0815312996
0.0815315065
0.081530032
0.0815296378
0.0815306047
0.0815309241
0.0815302347
0.0815301738
0.0815309549
0.0815308035
0.0815294719
0.0815296467
0.0815318263
0.0815317752
0.0815289514
0.0815287083
0.0815317289
0.0815323741
0.0815294375
0.0815284854
0.0815312869
0.0815324514
0.0815296071
0.081528124
0.0815312237
0.0815334223
0.0815301063
0.0815266013
0.0815296397
0.0815350548
0.0815331686
0.0815254284
0.0815258854
0.081534751
0.0815360372
0.0815282161
0.0815243699
0.0815299627
0.0815363435
0.0815338765
0.0815252095
0.0815255079
0.0815335597
0.0815357736
0.0815300437
0.0815252053
0.0815283607
0.0815351793
0.0815343317
0.0815265628
0.0815262345
0.0815326698
0.0815344225
0.0815295847
0.0815269886
0.0815304274
0.0815333076
0.0815309112
0.0815279956
0.0815296808
0.0815327299
0.0815316475
0.0815281792
0.0815285235
0.081532552
0.0815328357
0.0815292545
0.0815277194
0.081530244
0.0815331589
0.0815322902
0.0815280429
0.0815279249
0.0815314701
0.0815331552
0.081530943
0.0815278887
0.0815285702
0.0815326615
0.0815327302
0.0815292305
0.0815281024
0.0815306845
0.081532624
0.0815309608
0.08152855
0.0815293934
0.0815320159
0.0815318058
0.081529208
0.0815290932
0.0815311341
0.0815317173
0.0815302834
0.081529319
0.0815301308
0.0815313364
0.0815310821
0.0815297975
0.0815298029
0.0815307608
0.0815309942
0.0815303236
0.0815299374
0.0815304784
0.0815309942
0.0815304682
0.0815297651
0.0815302975
0.081531284
0.0815307874
0.0815294651
0.0815298278
0.0815314996
0.0815313258
0.0815294019
0.0815294199
0.0815313147
0.0815314976
0.0815298098
0.0815294307
0.0815308413
0.0815313584
0.0815302277
0.0815296523
0.0815305478
0.0815311263
0.0815303813
0.0815298131
0.0815304808
0.0815310751
0.0815304483
0.0815297923
0.0815303623
0.0815310959
0.0815305969
0.0815298056
0.08153024
0.0815310858
0.0815306919
0.081529738
0.0815300666
0.0815312643
0.0815311208
0.08152949
0.0815294963
0.0815312406
0.0815316648
0.0815300482
0.0815290226
0.0815301977
0.0815318939
0.0815314841
0.0815291445
0.0815290853
0.0815309707
0.0815318354
0.0815308665
0.0815292841
0.0815294209
0.0815309387
0.0815314633
0.0815309207
0.0815297208
0.081529634
0.0815302135
0.0815311901
0.0815313023
0.0815304829
0.0815293288
0.08152944
0.0815312342
0.0815320866
0.0815308299
0.0815284771
0.0815287131
0.0815318959
0.0815329573
0.0815307486
0.0815277125
0.0815281894
0.0815323396
0.0815336059
0.0815308967
0.081527098
0.0815276777
0.0815329425
0.0815342291
0.0815301264
0.0815263804
0.0815283689
0.0815342243
0.0815338704
0.0815278687
0.0815267828
0.0815313605
0.0815338224
0.0815308461
0.0815276024
0.0815292223
0.0815327242
0.0815320919
0.0815285814
0.0815286771
0.0815318451
0.0815323099
0.0815296345
0.0815283339
0.0815303815
0.0815327847
0.081531765
0.0815280805
0.0815281884
0.0815319934
0.0815330917
0.0815303235
0.0815278682
0.0815290734
0.0815325432
0.0815324064
0.081529464
0.0815286751
0.0815302475
0.0815316735
0.0815312881
0.0815298491
0.0815297594
0.0815302409
0.081530791
0.0815308685
0.0815306347
0.0815300252
0.0815299838
0.0815306573
0.0815309961
0.0815304507
0.0815298842
0.0815302561
0.081530944
0.0815307412
0.0815300562
0.0815301035
0.0815306676
0.0815306969
0.0815304812
0.0815303646
0.0815302464
0.0815301404
0.0815306435
0.0815311665
0.0815305911
0.0815294528
0.0815295989
0.0815309664
0.0815315424
0.0815320284
0.0815314936
0.0815240599
0.0815204654
0.0815431494
0.0815695388
0.0815237583
0.0814111499
0.0814513969
0.081843941
0.0818587652
0.0809493408
0.0805418765
0.0822391495
0.0840424104
0.0816628829
0.0763378792
0.0779699351
0.0908522953
0.091563612
0.0696070622
0.0623199367
0.0906044376
0.113428717
0.0875722787
0.0250601843
0.050299081
0.132071215
0.130271076
0.0234743237
0.00418379562
0.107106513
0.149219636
0.088048303
0.00339111732
0.0455768142
0.13081895
0.115848615
0.0445174332
0.0453177804
)
;

boundaryField
{
    closed
    {
        type            calculated;
        value           nonuniform List<scalar> 0();
    }
    open
    {
        type            calculated;
        value           nonuniform List<scalar> 0();
    }
    sides
    {
        type            empty;
    }
    procBoundary3to2
    {
        type            processor;
        value           uniform 0;
    }
    procBoundary3to4
    {
        type            processor;
        value           uniform 0;
    }
}


// ************************************************************************* //
