/*--------------------------------*- C++ -*----------------------------------*\
| =========                 |                                                 |
| \\      /  F ield         | OpenFOAM: The Open Source CFD Toolbox           |
|  \\    /   O peration     | Version:  2306                                  |
|   \\  /    A nd           | Website:  www.openfoam.com                      |
|    \\/     M anipulation  |                                                 |
\*---------------------------------------------------------------------------*/
FoamFile
{
    version     2.0;
    format      ascii;
    arch        "LSB;label=32;scalar=64";
    class       volScalarField;
    location    "0.00032";
    object      prefDh_H2;
}
// * * * * * * * * * * * * * * * * * * * * * * * * * * * * * * * * * * * * * //

dimensions      [1 1 -3 0 0 0 0];

internalField   nonuniform List<scalar> 
531
(
23.9434895
33.4552525
38.2300461
29.5897204
23.8810769
33.2764233
38.2466849
29.5457744
23.8785575
33.1929203
38.2930668
29.550362
24.0273407
33.37372
38.3566094
29.7177234
24.737111
34.5836049
38.325633
30.1786498
28.055638
36.1738376
29.0127528
21.8228153
37.2818769
37.7337859
29.1367252
24.7403221
28.993219
37.4465075
30.316801
28.6988924
28.8719853
31.4508975
28.6956501
28.906497
31.0151227
30.5105074
29.3501026
28.6864907
33.5858157
29.0537032
26.7157152
28.6962413
37.866888
30.8798022
25.1683874
28.0584241
37.0964892
38.1399374
27.7483854
23.4489226
33.8397251
38.1107848
29.5626032
23.8958572
34.7400876
38.1098898
29.6819065
25.1316641
25.0198893
36.3224107
38.3185649
28.7912477
24.9568857
28.9149738
37.8593323
29.282867
29.3530584
29.1105434
29.4198861
29.3317758
28.7307367
37.8003396
29.5196471
24.9940255
28.4819738
37.4645028
32.6535016
25.7955931
25.1677681
35.7688328
38.3988567
29.3900373
24.0833031
33.9998127
38.1126182
28.8517131
25.0153443
28.9954039
37.6050485
28.9954676
27.253186
28.9563753
34.0046397
28.72394
27.2612407
29.1950348
37.465554
29.672957
26.1453607
29.3251445
37.3319817
36.7576217
29.064004
29.5890649
29.8532099
29.7031737
36.6852569
31.6623849
26.3289749
25.6685324
33.177581
38.2767394
28.8833833
24.5435974
28.4359878
37.4493453
29.3544004
25.5900192
28.6600427
37.3405361
34.1180759
25.8535426
23.6418235
31.0587414
37.7006074
31.0696395
26.7218553
25.4585279
33.1251617
37.9977582
29.2889138
24.8986152
26.4146696
36.4309335
38.4468915
28.5629014
23.9433174
28.2814915
36.9792722
36.5046018
27.6538832
24.0927651
29.2293219
37.2645273
32.9290391
27.0856551
24.4499497
29.9795265
37.7213632
29.1205247
25.6547574
29.2362728
37.5454999
33.038256
26.6102128
23.9153777
29.4211517
37.3708533
33.1658052
27.2582709
24.4904194
29.5366682
37.4603123
33.0572051
27.3624479
24.5354624
29.5993233
37.4961699
32.5909755
27.6537222
24.9923182
29.9977318
37.7329907
29.0435127
25.1672358
29.1557508
37.5093894
32.1946803
27.0234762
24.2497824
29.2375982
37.5829952
29.2483934
25.9981243
29.6416418
37.7988592
32.1875354
26.9259871
24.2591675
29.1211246
37.5064449
33.0471159
27.8133295
24.9652462
29.4955185
37.6861024
32.5331176
27.6189682
24.9721745
29.8187647
37.8045006
31.9394712
27.4532231
25.0101721
29.4276972
37.7481496
32.9048521
27.7949186
24.9427612
29.6372366
37.7822258
30.6773022
26.1426349
27.119991
36.8679265
38.2262658
28.7242158
24.482707
29.4787657
38.2075042
29.9677222
29.1595778
28.6305471
30.1198673
29.3110155
28.7881043
29.2699277
29.2250051
29.4650622
29.0670991
37.3568445
36.0318849
27.2197913
25.3768597
32.932279
38.11582
28.7237242
24.2174088
28.3784764
37.5081868
29.7639697
25.3901789
28.3110424
37.8086649
35.9350012
28.582532
24.037731
28.4812929
37.3906404
33.7288723
27.2643749
25.1626712
32.0858068
38.0534967
28.838474
24.3392355
28.2902301
37.462197
35.1784186
28.017211
24.6086245
30.2390671
37.794277
29.3268414
25.2006426
28.430459
37.3390392
31.5957389
25.6049202
29.0632955
37.0586634
33.1142848
25.793497
28.9893298
36.8966639
37.1910294
27.4120323
24.8603893
33.579209
37.9856495
28.7835788
24.0385619
28.5090641
37.4014157
30.1196326
24.8976734
28.1758018
37.5355008
30.2256066
25.6077066
28.3677683
37.7187927
36.8685388
28.8605765
23.7623151
28.4621892
37.2975153
32.065267
26.0294728
27.4031834
36.8959167
37.8708441
28.6834709
24.3049624
32.4972575
37.8535417
28.7459762
24.2007582
28.6312142
37.5027016
29.7808433
25.0341363
28.3916803
37.609163
36.6703946
28.1477991
24.1600947
29.2313915
37.6169283
31.5322391
25.6365271
25.0352757
35.8359666
38.2478738
29.3069686
25.2397733
25.4714242
37.5967432
38.4158296
28.8432807
25.1808625
29.4884043
37.7463612
38.2082612
28.9724211
25.8339412
29.9542771
37.3069244
29.0397682
29.1015163
28.5951361
31.951261
30.0399727
28.7354998
28.5664799
30.283474
29.8661668
28.5682525
28.5775511
29.5766847
29.5316783
28.6503182
28.6482492
29.1899311
29.1944685
28.7902257
28.8187578
29.0278605
28.9061211
28.800229
29.0580217
29.2300552
28.7450475
28.6622186
29.4077459
29.6458704
28.7092824
28.6927646
30.3291918
29.8123779
28.3083639
29.0163504
38.3774017
32.1248839
24.0595873
28.4561105
38.1205746
32.1690071
25.5515461
28.6413639
38.670087
38.5695768
28.4223256
22.4757927
28.157585
38.8226854
39.5344044
27.6695093
20.9117307
27.1891802
39.6683087
29.7452848
20.9400513
25.2652007
39.818049
42.4529088
39.171665
17.5223838
20.6677319
38.9795948
39.5351469
38.3392795
38.0511739
37.9293105
38.0596707
38.60444
39.1028601
39.970295
40.7703133
42.0616157
43.8610492
47.1074249
47.160766
43.4431709
39.472135
36.9189096
33.9002629
32.4072087
30.9164416
29.4384871
28.6753041
27.3842366
30.4689907
30.0187872
48.0238451
54.6699386
61.2831477
80.1788353
105.161892
86.9116115
122.623183
115.852529
100.884655
115.143952
244.316275
232.269913
281.959542
291.359592
321.501731
339.483562
363.875644
387.248068
416.388823
439.043262
491.160285
527.024455
613.092491
681.321762
774.947362
877.338905
1025.21403
1071.21528
1183.91851
1194.50478
1266.64633
1283.06442
1353.55864
1381.38965
1458.66701
1503.79869
1583.13995
1620.56426
1702.95915
1712.72779
1814.91418
1805.92626
1891.84988
1911.06755
1994.03633
1986.10496
2061.32351
2044.73214
2149.85191
2146.12543
2211.38788
2223.68708
2203.28891
2229.49986
2401.1684
2423.2592
2286.8025
2320.81518
2543.23121
2565.87163
2393.70784
2419.37358
2629.53626
2597.68093
2478.28396
2511.16003
2677.3077
2624.1502
2584.9669
2584.1713
2723.33787
2668.02671
2638.23959
2636.90345
2757.96905
2706.93922
2675.15958
2681.26936
2771.89737
2743.35155
2706.56546
2719.1306
2788.93452
2776.88291
2736.82992
2753.57807
2810.55386
2807.2183
2768.01413
2786.98924
2835.25449
2837.86482
2801.6963
2819.17457
2862.9866
2869.20983
2835.76565
2851.9427
2892.7128
2900.91044
2869.9887
2885.97221
2925.40637
2936.44786
2907.15066
)
;

boundaryField
{
    closed
    {
        type            calculated;
        value           nonuniform List<scalar> 0();
    }
    open
    {
        type            calculated;
        value           nonuniform List<scalar> 0();
    }
    sides
    {
        type            empty;
    }
    procBoundary4to3
    {
        type            processor;
        value           uniform 29.6526598;
    }
    procBoundary4to5
    {
        type            processor;
        value           uniform 2918.736;
    }
}


// ************************************************************************* //
