/*--------------------------------*- C++ -*----------------------------------*\
| =========                 |                                                 |
| \\      /  F ield         | OpenFOAM: The Open Source CFD Toolbox           |
|  \\    /   O peration     | Version:  2306                                  |
|   \\  /    A nd           | Website:  www.openfoam.com                      |
|    \\/     M anipulation  |                                                 |
\*---------------------------------------------------------------------------*/
FoamFile
{
    version     2.0;
    format      ascii;
    arch        "LSB;label=32;scalar=64";
    class       volScalarField;
    location    "0.00152";
    object      h;
}
// * * * * * * * * * * * * * * * * * * * * * * * * * * * * * * * * * * * * * //

dimensions      [0 2 -2 0 0 0 0];

internalField   nonuniform List<scalar> 
531
(
-2973.64736
-4785.33623
-4022.63352
-5805.43009
-3051.10093
9863.72296
10339.9033
10044.4423
10012.1674
3123.50937
-6999.36763
-5617.28564
9062.03191
9741.2069
-428.709047
-6287.50348
-4962.09441
9488.44763
10221.4934
9149.05329
10407.2027
9109.7391
-3523.37036
-5542.04364
-7046.33301
-6212.9919
9529.89271
9568.10743
-4108.85277
-4039.56826
9735.74056
9684.66547
-4510.62529
-3605.04425
9379.40839
10460.9819
9290.44109
-3730.99021
-3613.7603
9192.87434
10592.495
9412.69862
47.8332994
-4477.59457
-3825.5125
-4631.77948
-4501.8783
-6226.27511
-3694.55797
9775.21988
10439.7388
9796.75276
10529.6327
9908.18192
1960.51427
-6943.27191
-5979.4377
8626.56186
9569.53982
-4409.74541
-4292.21683
9580.51076
10352.9787
3454.67729
-2801.3674
-4527.92501
-3266.99884
10108.9602
10290.514
2288.27785
-4497.19687
-4455.46668
-6626.06458
-6567.87675
4219.96695
9964.38225
9911.88544
10334.6147
9908.80021
-2083.81497
-3981.78247
9871.04158
10332.4138
1866.04961
-3263.19484
-4819.93258
-4372.32219
9950.48716
9987.00385
-731.472672
-5877.84337
-4962.09235
10043.4226
10244.0873
-1043.21716
-3064.46646
9913.35309
10529.0863
2745.00111
-3180.66459
-3101.68754
-5098.18806
-3541.65249
9660.86604
294.062643
-5301.03862
9895.15786
10004.248
-1037.64863
-5360.03107
147.091153
9958.06452
10759.3883
10141.9846
417.492925
-5866.24688
-5471.05968
9853.67011
10042.6804
472.417415
-5671.27444
-4531.06795
9773.0708
9873.74075
-4965.1198
-4882.28359
9585.09616
9982.29741
10100.0864
9850.21436
-1878.4984
-5480.46353
-4455.47737
-6379.34954
-6150.94691
9698.18886
10006.3917
655.526194
-5463.947
-2868.22006
9716.02623
1335.2709
-4842.8407
9769.94466
10203.9034
1436.98861
-4958.70269
-3926.32741
9484.83914
10512.0672
9532.23751
10609.2307
6874.09045
-2872.70315
-7230.53919
-6581.39586
9536.16327
10120.9924
1248.49079
-3714.72123
-3292.17622
-4653.48191
-4607.66945
9976.69491
10327.6845
-732.256943
-4115.6727
9766.8303
10204.3051
1049.6068
-5574.08635
-4445.48933
9164.04432
10425.3233
9312.83992
10517.2073
9709.92183
-2733.59425
-4937.90377
-5719.12424
-5395.66534
9349.61019
9831.5926
-2797.22833
-7223.81629
-6169.01448
9333.23193
10219.7757
10180.5784
4019.10926
-3765.47198
-3254.74324
9890.34935
10670.6777
4258.23378
-2991.48568
-7015.20107
-7017.31346
8610.0715
9458.2988
9596.61693
9444.44024
-2517.69615
-5084.91725
-4899.20165
-4368.70579
9724.67724
10534.3349
3709.43583
-3170.55703
-6304.97435
-6303.45113
8836.03427
10056.55
-3319.3227
-4433.81726
8868.4232
10285.9527
-3512.61343
-4137.17835
8556.41962
10336.4719
10091.1673
-3838.35952
-6136.10108
8696.72884
9852.42219
1069.96248
-6525.21101
-6520.71372
8830.63835
9998.30281
-2837.01326
-4593.59916
8801.76914
10362.9497
2495.57791
-2912.21941
-4684.15376
-2344.06014
9434.22996
168.481168
-4845.9591
8799.47568
10179.4143
-3006.06099
-4369.4406
8670.92974
10243.7091
-3203.52651
-4222.92199
8314.25691
10194.226
6622.44036
-5556.53499
-6049.10456
8196.96607
10055.61
-3743.05434
-4415.98658
8228.22859
10511.2371
10031.2521
-1084.737
-5052.80029
-6535.119
-6483.48519
8150.76843
10252.3947
9804.3212
-2260.95701
-5217.10722
8134.65276
9605.37394
9687.61729
9395.83079
-2608.00752
-5240.53071
-4794.69333
-4530.40657
-6071.4674
-5760.95859
8710.57897
10210.6716
9703.15143
10087.3232
10018.4349
6909.7315
-5893.83532
-6551.08115
7907.83458
9724.92912
-697.091791
-7045.363
-5196.47691
8732.82267
10533.7903
10380.5668
-550.90261
-4682.63195
-4288.13617
-4288.30591
-5706.79669
-5171.05033
8940.19118
10404.3034
9999.63822
10526.6737
5466.40856
-2615.74333
-5426.96509
-5426.578
8515.0938
9668.23117
-4016.52826
-4622.22453
8446.20671
10573.7408
10436.9539
-655.894208
-4049.63838
8701.17838
10064.8194
1477.30146
-6496.48695
-6299.34643
8715.16679
10266.089
5066.55849
-2812.09419
-4882.45682
-4300.87759
9464.72759
10237.6262
-119.016365
-5286.40637
-2225.33086
9245.66855
10238.8123
-3996.7952
-6259.47567
8017.14498
9650.60173
1484.71979
-7333.94371
-7375.11595
8397.71185
9700.40636
-4185.356
-6385.16399
8004.38563
9519.94582
-2146.21889
-7987.31495
-5062.82818
8230.19622
9597.3216
8835.4358
9068.55577
8828.83554
8756.55088
-8567.60466
-11132.2586
5240.96284
8051.19399
7286.74903
-8517.45472
-11555.8816
4006.87202
6116.3306
5020.48596
5489.73003
4887.05779
4995.13391
4605.52572
4600.28411
4311.41492
4268.49361
4031.98584
3991.2677
3808.40758
3776.53007
3650.54423
3662.88273
3675.97604
3830.92099
4322.00887
5304.33465
6077.45393
6037.76133
6055.32381
5916.27062
5795.62393
5494.81646
5212.91311
4742.45655
4290.27402
3781.84818
4223.015
5187.21465
5785.05319
5498.52181
5455.50741
4752.59886
4127.29065
2949.61119
1646.23801
-22.0226701
-1300.27408
-3475.24315
-3330.1326
7969.38825
7990.22225
6075.2702
5003.06586
2891.23113
1364.14434
-941.137569
-3136.81972
-5841.57934
-8911.22234
-11347.1986
-9792.83969
-11576.061
-14197.2367
-17169.6273
-15505.773
-17137.8405
-16906.7465
-21972.0072
-30650.217
-31227.8687
-34880.8584
-36012.0116
-38956.5142
-40200.6077
-41978.7419
-41709.9837
-41517.0825
-40335.0394
-41271.4947
-41153.2404
-42172.0705
-43910.1115
-45594.2386
-48324.1994
-50561.6907
-54275.1895
-57207.0037
-61274.4693
-63860.8977
-67267.4984
-69480.3789
-72311.5213
-74184.6494
-76473.163
-78108.0995
-80175.4495
-81972.0295
-84346.5259
-86427.1079
-88365.1793
-89411.3752
-89843.9668
-89808.0656
-89040.4635
-88066.1574
-86140.6089
-84182.6108
-80923.5665
-77993.4357
-75887.9061
-74324.6187
-72747.8501
-71102.0968
-69493.0712
-67760.3206
-65935.4147
-63807.3782
-61985.1266
-59883.6394
-57741.2071
-54690.8681
-52427.2738
-50187.8867
-48540.3566
-46686.0741
-45035.7947
-43351.6651
-41972.5872
-40490.2422
-39150.9643
-37742.3966
-36428.1211
-35052.7411
-33732.8305
-32105.6451
-30621.4221
-29300.3138
-28022.4517
-26777.2477
-25554.3033
-24412.0746
-23352.9173
-22356.7128
-21360.3604
-20422.6261
-19473.2752
-18641.9492
-17871.3399
-17148.3736
-16394.7837
-15684.0573
-14944.3475
-14241.8304
-13520.6331
-12797.6435
-12050.5259
-11328.8154
-10461.2998
-9634.30209
-8816.35164
-8038.73938
-7270.37489
-6534.13142
-5808.32516
-5234.4756
-4697.88415
-4178.36027
-3664.47492
-3162.34073
)
;

boundaryField
{
    closed
    {
        type            lookUpEnthalpy;
        h0              nonuniform List<scalar> 0();
        value           nonuniform List<scalar> 0();
    }
    open
    {
        type            zeroGradient;
    }
    sides
    {
        type            empty;
    }
    procBoundary4to3
    {
        type            processor;
        value           uniform 6767.69603;
    }
    procBoundary4to5
    {
        type            processor;
        value           uniform -2668.56099;
    }
}


// ************************************************************************* //
