/*--------------------------------*- C++ -*----------------------------------*\
| =========                 |                                                 |
| \\      /  F ield         | OpenFOAM: The Open Source CFD Toolbox           |
|  \\    /   O peration     | Version:  2306                                  |
|   \\  /    A nd           | Website:  www.openfoam.com                      |
|    \\/     M anipulation  |                                                 |
\*---------------------------------------------------------------------------*/
FoamFile
{
    version     2.0;
    format      ascii;
    arch        "LSB;label=32;scalar=64";
    class       volScalarField;
    location    "0.00152";
    object      prefDPV_H2O;
}
// * * * * * * * * * * * * * * * * * * * * * * * * * * * * * * * * * * * * * //

dimensions      [1 -1 -1 0 0 0 0];

internalField   nonuniform List<scalar> 
531
(
-3.66049575e-07
-3.64996105e-07
-3.65214043e-07
-3.6410266e-07
-3.65916043e-07
-3.84348536e-07
-3.8384804e-07
-3.84247704e-07
-3.84334567e-07
-3.7419383e-07
-3.63067822e-07
-3.6408607e-07
-3.84956764e-07
-3.84737928e-07
-3.68766663e-07
-3.63736479e-07
-3.64604784e-07
-3.84863556e-07
-3.84113086e-07
-3.85500205e-07
-3.83937934e-07
-3.85598461e-07
-3.65796282e-07
-3.64378023e-07
-3.63017998e-07
-3.63693e-07
-3.84585039e-07
-3.84949362e-07
-3.65333879e-07
-3.65307425e-07
-3.84365061e-07
-3.84841081e-07
-3.64995528e-07
-3.65617391e-07
-3.84705503e-07
-3.83884413e-07
-3.85249383e-07
-3.65648016e-07
-3.65613782e-07
-3.84917906e-07
-3.83598722e-07
-3.85149392e-07
-3.6940281e-07
-3.65164106e-07
-3.65411659e-07
-3.65017216e-07
-3.64896114e-07
-3.63744395e-07
-3.65457559e-07
-3.84365074e-07
-3.83689154e-07
-3.84637557e-07
-3.83591632e-07
-3.84743503e-07
-3.7235124e-07
-3.63228657e-07
-3.63719856e-07
-3.85814285e-07
-3.84798455e-07
-3.65201778e-07
-3.65052773e-07
-3.84449225e-07
-3.83888572e-07
-3.74771716e-07
-3.66239854e-07
-3.65052122e-07
-3.65856098e-07
-3.8407888e-07
-3.84062688e-07
-3.72660537e-07
-3.64997901e-07
-3.65047867e-07
-3.63291863e-07
-3.63375738e-07
-3.77085315e-07
-3.84307241e-07
-3.84232666e-07
-3.83931767e-07
-3.84397936e-07
-3.66793905e-07
-3.65346082e-07
-3.83918108e-07
-3.83943639e-07
-3.72142087e-07
-3.6592365e-07
-3.64696294e-07
-3.65053248e-07
-3.83984044e-07
-3.84364984e-07
-3.68393037e-07
-3.63946711e-07
-3.64489615e-07
-3.84038426e-07
-3.83906493e-07
-3.68007465e-07
-3.6594061e-07
-3.83933266e-07
-3.83618066e-07
-3.73688835e-07
-3.6593055e-07
-3.66007876e-07
-3.64517424e-07
-3.65623476e-07
-3.84488882e-07
-3.69783887e-07
-3.64368278e-07
-3.83710821e-07
-3.84315073e-07
-3.68008721e-07
-3.64366568e-07
-3.69645281e-07
-3.84259116e-07
-3.83152971e-07
-3.84235283e-07
-3.69955492e-07
-3.63947775e-07
-3.6418117e-07
-3.84199328e-07
-3.842956e-07
-3.69939682e-07
-3.64172285e-07
-3.6499853e-07
-3.84535204e-07
-3.84390866e-07
-3.64712139e-07
-3.64816883e-07
-3.8469264e-07
-3.8448052e-07
-3.84236425e-07
-3.84515429e-07
-3.67047552e-07
-3.64353143e-07
-3.65006925e-07
-3.6359832e-07
-3.63723272e-07
-3.8436843e-07
-3.84357542e-07
-3.70230971e-07
-3.64318566e-07
-3.66145568e-07
-3.84513471e-07
-3.71299803e-07
-3.64753638e-07
-3.8403812e-07
-3.84163191e-07
-3.7148325e-07
-3.64746964e-07
-3.65337692e-07
-3.84937089e-07
-3.83659663e-07
-3.85132739e-07
-3.83532309e-07
-3.82664881e-07
-3.66091895e-07
-3.62955306e-07
-3.63302962e-07
-3.84495695e-07
-3.84095821e-07
-3.7116231e-07
-3.6558926e-07
-3.65815928e-07
-3.64880287e-07
-3.64831875e-07
-3.84149925e-07
-3.83837745e-07
-3.68388957e-07
-3.65224096e-07
-3.84137655e-07
-3.84055334e-07
-3.70862874e-07
-3.64257583e-07
-3.64948505e-07
-3.85338118e-07
-3.83763861e-07
-3.8527625e-07
-3.83616458e-07
-3.84719051e-07
-3.66189335e-07
-3.64838442e-07
-3.64005884e-07
-3.64405265e-07
-3.84835768e-07
-3.84525635e-07
-3.66196814e-07
-3.62943171e-07
-3.6365274e-07
-3.85053634e-07
-3.8404978e-07
-3.84268089e-07
-3.76076649e-07
-3.65641269e-07
-3.65910136e-07
-3.8446128e-07
-3.83549255e-07
-3.76093401e-07
-3.66098281e-07
-3.63156246e-07
-3.63070759e-07
-3.85951183e-07
-3.84977146e-07
-3.8493106e-07
-3.84883204e-07
-3.66551162e-07
-3.6465706e-07
-3.64784838e-07
-3.65182591e-07
-3.84716189e-07
-3.83762911e-07
-3.74934331e-07
-3.65921929e-07
-3.63707815e-07
-3.63536339e-07
-3.85751872e-07
-3.84164855e-07
-3.66048382e-07
-3.65039875e-07
-3.85785564e-07
-3.84006735e-07
-3.6591414e-07
-3.65295774e-07
-3.86076695e-07
-3.83980035e-07
-3.84279271e-07
-3.65504522e-07
-3.63788471e-07
-3.85820717e-07
-3.84560115e-07
-3.70781485e-07
-3.63518305e-07
-3.63387408e-07
-3.85772934e-07
-3.84194762e-07
-3.66297835e-07
-3.64849828e-07
-3.85679981e-07
-3.83751182e-07
-3.73042267e-07
-3.66030094e-07
-3.64842775e-07
-3.66489152e-07
-3.84859032e-07
-3.69565475e-07
-3.64681887e-07
-3.85628929e-07
-3.83993133e-07
-3.66176628e-07
-3.65044857e-07
-3.85891373e-07
-3.83998167e-07
-3.66142473e-07
-3.6523621e-07
-3.86488601e-07
-3.84225916e-07
-3.81722893e-07
-3.64299325e-07
-3.63868659e-07
-3.86659632e-07
-3.84304177e-07
-3.65782057e-07
-3.65098584e-07
-3.86564047e-07
-3.83815221e-07
-3.84441115e-07
-3.6796882e-07
-3.64707666e-07
-3.63506222e-07
-3.63572923e-07
-3.86644337e-07
-3.84199375e-07
-3.84658932e-07
-3.66811954e-07
-3.64616105e-07
-3.86835445e-07
-3.85030788e-07
-3.84937973e-07
-3.85038466e-07
-3.66368694e-07
-3.64571925e-07
-3.64844375e-07
-3.6507202e-07
-3.63912031e-07
-3.6412667e-07
-3.86067933e-07
-3.84228523e-07
-3.8484282e-07
-3.84403689e-07
-3.84381639e-07
-3.82590265e-07
-3.63927369e-07
-3.63445135e-07
-3.87030144e-07
-3.84642206e-07
-3.68432844e-07
-3.63093062e-07
-3.64425526e-07
-3.85856702e-07
-3.83633406e-07
-3.83781649e-07
-3.68622449e-07
-3.64824326e-07
-3.65092826e-07
-3.65144675e-07
-3.64092116e-07
-3.64514394e-07
-3.85727744e-07
-3.83843282e-07
-3.84478901e-07
-3.83642861e-07
-3.78782691e-07
-3.66280533e-07
-3.64395787e-07
-3.64249245e-07
-3.86426337e-07
-3.84397691e-07
-3.65289561e-07
-3.64866768e-07
-3.86436032e-07
-3.83650885e-07
-3.83815725e-07
-3.6848503e-07
-3.65331832e-07
-3.86061339e-07
-3.84269989e-07
-3.71475024e-07
-3.63481362e-07
-3.63544865e-07
-3.85904701e-07
-3.83861352e-07
-3.78152598e-07
-3.66083938e-07
-3.64735991e-07
-3.65123148e-07
-3.85018778e-07
-3.83960919e-07
-3.69202129e-07
-3.64374194e-07
-3.66565723e-07
-3.85189593e-07
-3.83732851e-07
-3.65200009e-07
-3.63482397e-07
-3.86770495e-07
-3.84438805e-07
-3.71615818e-07
-3.62666317e-07
-3.62579838e-07
-3.86067335e-07
-3.84120775e-07
-3.64795765e-07
-3.63203597e-07
-3.86297474e-07
-3.84108676e-07
-3.66545672e-07
-3.61948048e-07
-3.63904684e-07
-3.85549711e-07
-3.83322594e-07
-3.84354313e-07
-3.83601798e-07
-3.83881126e-07
-3.83609688e-07
-3.60815494e-07
-3.58930024e-07
-3.86399711e-07
-3.82507991e-07
-3.82731687e-07
-3.60151962e-07
-3.57974483e-07
-3.83777172e-07
-3.79875861e-07
-3.80409106e-07
-3.7829972e-07
-3.78146625e-07
-3.76517997e-07
-3.76038212e-07
-3.7457641e-07
-3.73891753e-07
-3.72448187e-07
-3.71601842e-07
-3.70221664e-07
-3.69208314e-07
-3.67913002e-07
-3.66742291e-07
-3.65603331e-07
-3.64432818e-07
-3.63416367e-07
-3.62605866e-07
-3.62481247e-07
-3.61575462e-07
-3.60209315e-07
-3.58256939e-07
-3.56765502e-07
-3.54360095e-07
-3.52709242e-07
-3.4989222e-07
-3.48109262e-07
-3.44921251e-07
-3.43264439e-07
-3.41178398e-07
-3.41666239e-07
-3.38587767e-07
-3.37467893e-07
-3.32919583e-07
-3.3125373e-07
-3.25672584e-07
-3.2340159e-07
-3.1642971e-07
-3.13124073e-07
-3.06323748e-07
-3.02510894e-07
-2.97371626e-07
-3.08132706e-07
-3.00903731e-07
-2.95879648e-07
-2.88018406e-07
-2.82358439e-07
-2.74543616e-07
-2.68331582e-07
-2.60507405e-07
-2.53678406e-07
-2.4566315e-07
-2.39513189e-07
-2.36938857e-07
-2.31656066e-07
-2.22607059e-07
-2.21052064e-07
-1.97889507e-07
-2.0256021e-07
-1.78590968e-07
-1.91606302e-07
-8.51770436e-08
-8.5904242e-08
-4.30712015e-08
-3.2685867e-08
2.95339797e-09
2.84858035e-08
7.79265163e-08
1.23541251e-07
1.99450505e-07
2.41834172e-07
2.92302875e-07
3.5720185e-07
4.03951274e-07
4.4619719e-07
4.81619169e-07
5.13065566e-07
5.43959704e-07
5.76315671e-07
6.05971168e-07
6.34959671e-07
6.59003483e-07
6.79813467e-07
6.98742328e-07
7.16328715e-07
7.32962214e-07
7.48688968e-07
7.63251055e-07
7.76969221e-07
7.8923093e-07
8.0100072e-07
8.11277532e-07
8.21889184e-07
8.31238534e-07
8.4169081e-07
8.50244594e-07
8.60397999e-07
8.68801212e-07
8.78821262e-07
8.87207172e-07
8.97663923e-07
9.05865143e-07
9.12816994e-07
9.18257954e-07
9.24114351e-07
9.29250081e-07
9.34706992e-07
9.3956898e-07
9.44939755e-07
9.49986022e-07
9.55058689e-07
9.59855077e-07
9.65045414e-07
9.70759898e-07
9.75812887e-07
9.8042859e-07
9.84491778e-07
9.88508211e-07
9.92345026e-07
9.9609186e-07
9.99534494e-07
1.00298448e-06
1.00620224e-06
1.00953954e-06
1.01270034e-06
1.01594817e-06
1.01897831e-06
1.02243361e-06
1.0255935e-06
1.02871148e-06
1.0315701e-06
1.03449288e-06
1.03717757e-06
1.03990871e-06
1.04238503e-06
1.04490808e-06
1.04722362e-06
1.04959006e-06
1.05176965e-06
1.05397222e-06
1.05597303e-06
1.05803298e-06
1.05994507e-06
1.06191421e-06
1.06374527e-06
1.06563099e-06
1.06746958e-06
1.0694581e-06
1.07132227e-06
1.07324356e-06
1.07519308e-06
1.07716266e-06
1.0789924e-06
1.08083455e-06
1.08254899e-06
1.08427754e-06
1.08588877e-06
1.08739522e-06
1.08878049e-06
1.09018959e-06
1.09151411e-06
1.09286296e-06
)
;

boundaryField
{
    closed
    {
        type            calculated;
        value           nonuniform List<scalar> 0();
    }
    open
    {
        type            calculated;
        value           nonuniform List<scalar> 0();
    }
    sides
    {
        type            empty;
    }
    procBoundary4to3
    {
        type            processor;
        value           uniform -3.82723193e-07;
    }
    procBoundary4to5
    {
        type            processor;
        value           uniform 1.09413066e-06;
    }
}


// ************************************************************************* //
