/*--------------------------------*- C++ -*----------------------------------*\
| =========                 |                                                 |
| \\      /  F ield         | OpenFOAM: The Open Source CFD Toolbox           |
|  \\    /   O peration     | Version:  2306                                  |
|   \\  /    A nd           | Website:  www.openfoam.com                      |
|    \\/     M anipulation  |                                                 |
\*---------------------------------------------------------------------------*/
FoamFile
{
    version     2.0;
    format      ascii;
    arch        "LSB;label=32;scalar=64";
    class       volScalarField;
    location    "0.00112";
    object      h;
}
// * * * * * * * * * * * * * * * * * * * * * * * * * * * * * * * * * * * * * //

dimensions      [0 2 -2 0 0 0 0];

internalField   nonuniform List<scalar> 
531
(
8843.48159
-4594.34928
-4596.01771
2756.74857
10226.9075
8576.51453
-4564.68082
-4565.64761
3267.5571
10274.5983
8683.33994
-4396.93591
-4397.2558
-2404.66558
4168.79213
10552.6575
8293.38436
-2618.93537
-502.031297
10283.7222
8226.4209
-5250.20446
-5249.84932
2176.15734
10131.6812
8047.52962
-3723.87298
1562.56293
9407.89955
-198.138908
-4912.38842
1167.72225
9957.80281
7860.72068
-5817.00748
-5820.08694
2194.94053
9958.56295
7923.05641
-5383.64952
-5382.38393
2071.63036
10103.6453
7894.34033
-3423.2052
-1074.74775
10185.3021
7442.93032
-3546.54395
-692.533525
10177.1826
7642.25776
-4536.73266
-4454.03715
5124.65776
10232.4554
8094.166
-4571.15285
-4574.84206
-3259.27393
-2329.76437
5541.31008
10398.6118
7955.42967
-4287.43053
-4287.79713
3448.70791
10029.2491
6651.94079
-4847.03308
-2557.12893
9821.55954
10198.9706
7043.72041
-5390.78588
-5390.68398
-3619.64696
2004.76303
10434.7264
9530.51518
-1370.39899
-3146.75579
2739.9562
10064.3146
6700.63923
-5670.31998
-5664.45912
3175.71947
9894.18884
6586.40757
-4075.48461
2408.56115
9350.26089
-527.067204
-4155.54241
2999.3963
9994.68497
6392.32866
-5623.93991
-4318.05175
9110.60589
9322.19712
-1921.28804
-4225.4664
2792.3296
10046.1389
6858.72144
-5335.17582
-3992.40923
9399.43408
9436.52531
-1789.53815
-4187.06849
2234.96513
10047.1307
7968.13115
-4870.36768
-5246.04661
2986.05307
9922.44761
8065.4845
-4685.32835
-5127.40843
2747.37418
9796.54161
8343.50529
-4462.20615
-5196.95013
2145.836
9570.68028
8577.31666
-3859.54375
-5202.60658
1390.29777
9288.63907
8678.5904
-2701.69308
-4851.89586
1416.65869
9068.42228
8719.60512
-1938.66408
-4022.82466
5445.20369
9338.60314
2402.76659
-3132.64741
-1834.25879
7837.47528
8864.32799
879.960262
-3700.56591
3057.14469
8891.19874
3895.29945
-3069.59524
-3226.15081
5927.00677
8995.34631
3179.26249
-4071.03286
-5116.82836
-4316.50565
5810.08867
9064.042
4636.59287
-3210.87542
-3264.12839
5869.02594
9019.01634
4888.01239
-3378.29364
-1335.80606
7540.09834
7747.20728
-629.594303
-2995.46345
2310.38154
8771.4176
6210.34018
-2715.32772
-3229.5474
5655.09672
8611.59237
2387.41669
-2183.23998
2865.06466
8147.68025
3157.60662
-4410.1361
-2302.77281
7519.45492
8748.30964
602.116869
-4898.14432
-2227.27542
7789.5479
8702.05188
257.29474
-4282.48058
-586.813355
8477.44528
8339.64385
-1251.01485
-3468.58007
1852.18652
8985.6386
7696.66117
-2187.052
-4580.45863
-4144.21851
4063.47933
9472.15189
8461.95645
-1946.28078
-4970.5213
-1651.62472
8710.19905
9012.41074
683.819552
-2760.71944
1614.90136
9085.17069
8338.14191
-2456.63588
-2497.61537
6661.60468
8544.16733
881.065654
-4730.20148
-2867.16338
7985.45142
8842.07071
882.979284
-4475.59592
-2539.67176
8267.01988
8902.07551
617.468822
-4530.42449
-2418.41985
8577.41073
8549.30503
-875.273182
-1810.04224
6689.1025
8764.12116
1069.25352
-4336.42701
-2077.86672
8803.30787
9140.59181
564.558922
-3836.15813
-3894.30454
-4469.59256
-2127.09416
7416.54766
10143.2136
8706.23169
-1751.65501
-2183.50617
7334.8781
9044.66009
797.991194
-4582.26222
-2144.65839
8820.17865
8802.77753
-1810.25113
-2597.92231
7090.69388
9145.00595
954.019244
-5207.71035
-3221.48878
8319.21423
9291.70915
423.402096
-5125.27605
-2541.15607
8847.56724
8814.35912
-2250.60298
-2261.99344
8660.16692
8630.72923
-2692.80178
-3214.77099
7137.24652
9421.11699
1643.11171
-5211.96923
-3086.38209
8804.49978
9543.19614
746.88874
-5313.88851
-2889.63629
8937.50182
9501.72429
110.574829
-5277.68752
-2366.87871
9184.14994
9293.71358
-1342.53982
-5229.70501
-1075.57398
9299.42492
8317.39884
-2514.73242
-1435.71124
9391.83613
8289.26613
-3730.21774
-5524.47526
26.8565525
9317.93104
7390.50763
-2545.81181
-231.449071
9341.3595
7200.96336
-4626.36416
-5083.67564
1990.64973
9065.03189
4935.61369
-2813.53215
1990.43948
8497.56992
2091.3835
-4357.75615
222.339908
9329.83781
7759.23858
-3289.85715
-3327.25897
5171.8791
8374.54085
780.165611
-4012.73638
1617.96
9373.38332
6352.40296
-3181.90275
-2648.02042
6697.65654
8282.49779
-292.621938
-4536.23991
-990.011962
8410.81128
7750.25238
-2557.54951
-3530.1387
5515.194
7958.14105
-556.85411
-3022.5354
4812.26867
9195.69141
3410.31164
-4483.88427
-2849.56016
7654.54852
8175.36788
-923.752537
-2449.57765
6137.80144
8989.45793
1562.93884
-4719.7112
-2277.72489
8158.09813
8968.82883
973.55087
-4649.88943
-1926.15455
8677.09148
8930.40399
524.735788
-4572.09617
-1496.69101
8873.14325
8851.41931
95.5612301
-4566.07789
-980.975092
8800.76138
8575.62049
-1196.35336
-4875.05388
-4062.74683
-8.30948453
9368.21399
10066.2397
6761.219
-2627.79907
-4659.60975
-360.50298
8941.12882
8587.57086
-1498.34945
-4800.08201
674.838432
8589.65179
6242.86165
-2058.93806
-223.182504
8525.43313
7542.41983
-3568.04254
-4852.72105
1194.66432
8624.45914
5714.54172
-2145.25519
485.763428
8328.21917
5152.77769
-2863.7025
239.278675
8233.07756
5002.29686
-3178.63827
-1105.6929
8794.183
8627.10975
-2453.21784
-4993.05879
980.985058
8728.48433
6184.91186
-2736.56099
-2348.26876
8464.59253
9159.40568
1091.64468
-4092.90247
-1763.70661
8584.21012
9119.35986
362.236151
-4579.00716
-2303.62909
8118.06289
9010.27848
968.804034
-4703.21362
-3095.11524
7260.19796
8604.29765
813.119548
-5099.47297
-4356.66035
6337.63387
8201.88937
1490.41705
-2124.25324
3842.9685
8633.52485
4063.2447
-3659.59866
-4455.99976
3723.74587
9386.90836
9818.8215
3659.61176
-2973.28191
-4300.98373
-4066.77899
3732.19513
8804.65338
6153.78372
-2340.59665
-3709.3623
2945.41829
8395.56146
4890.60143
-946.661247
1984.54416
8053.04535
5121.6534
-3285.72786
-4580.06854
2046.61484
8154.9936
4766.7952
-1417.84501
1709.3138
7991.39238
4699.97921
-1373.02674
1719.41271
8227.17283
5260.06842
-3066.56484
-4132.63884
2451.44824
8621.28854
5914.26081
-2705.13736
-3775.48124
2861.51631
8750.71194
5993.74147
-2761.82794
-3633.52579
3255.29201
8813.14599
5869.08606
-3016.44086
-3579.59845
3724.70491
8856.18114
5515.79014
-3384.87142
-3504.20586
4377.42336
8854.18107
4679.66615
-3555.98243
-3307.46303
5237.57173
8803.8268
3598.93111
-3580.94095
-2940.15155
6231.21643
)
;

boundaryField
{
    closed
    {
        type            lookUpEnthalpy;
        h0              nonuniform List<scalar> 0();
        value           nonuniform List<scalar> 0();
    }
    open
    {
        type            zeroGradient;
    }
    sides
    {
        type            empty;
    }
    procBoundary1to0
    {
        type            processor;
        value           uniform 10269.469;
    }
    procBoundary1to2
    {
        type            processor;
        value           uniform 8755.60935;
    }
}


// ************************************************************************* //
