/*--------------------------------*- C++ -*----------------------------------*\
| =========                 |                                                 |
| \\      /  F ield         | OpenFOAM: The Open Source CFD Toolbox           |
|  \\    /   O peration     | Version:  2306                                  |
|   \\  /    A nd           | Website:  www.openfoam.com                      |
|    \\/     M anipulation  |                                                 |
\*---------------------------------------------------------------------------*/
FoamFile
{
    version     2.0;
    format      ascii;
    arch        "LSB;label=32;scalar=64";
    class       volScalarField;
    location    "0.00112";
    object      prefDZ_H2;
}
// * * * * * * * * * * * * * * * * * * * * * * * * * * * * * * * * * * * * * //

dimensions      [1 -1 -1 0 0 0 0];

internalField   nonuniform List<scalar> 
531
(
6.3474325e-05
6.17230929e-05
6.17211925e-05
6.23822655e-05
6.35713346e-05
6.34406652e-05
6.17312559e-05
6.17278595e-05
6.24147427e-05
6.35620107e-05
6.34263803e-05
6.17756155e-05
6.17679427e-05
6.22841968e-05
6.24857614e-05
6.36266194e-05
6.34124555e-05
6.22317229e-05
6.23914138e-05
6.36020993e-05
6.33553127e-05
6.15507248e-05
6.15347512e-05
6.23570853e-05
6.35422002e-05
6.34376579e-05
6.1950932e-05
6.23220967e-05
6.3499413e-05
6.22675955e-05
6.16368555e-05
6.23165079e-05
6.35619769e-05
6.335841e-05
6.13952588e-05
6.13782513e-05
6.23690955e-05
6.35202149e-05
6.33323661e-05
6.1507314e-05
6.14985892e-05
6.23699281e-05
6.35602271e-05
6.33761275e-05
6.20289993e-05
6.24167459e-05
6.36163714e-05
6.33004778e-05
6.19966942e-05
6.24219241e-05
6.36019672e-05
6.3276599e-05
6.17386265e-05
6.17518631e-05
6.25927597e-05
6.35224908e-05
6.33504684e-05
6.17256398e-05
6.17208243e-05
6.20724055e-05
6.23061633e-05
6.26446811e-05
6.35798976e-05
6.33267017e-05
6.1803011e-05
6.17954226e-05
6.24279385e-05
6.35163616e-05
6.31089659e-05
6.16510151e-05
6.22517781e-05
6.35265942e-05
6.35307748e-05
6.3169809e-05
6.15040104e-05
6.14942e-05
6.19782615e-05
6.23547458e-05
6.36391959e-05
6.35038591e-05
6.22875456e-05
6.21012764e-05
6.23786426e-05
6.35657896e-05
6.30837446e-05
6.14361968e-05
6.14238427e-05
6.24080565e-05
6.35356231e-05
6.31229615e-05
6.18582206e-05
6.23572015e-05
6.35070041e-05
6.22862765e-05
6.18368762e-05
6.23938915e-05
6.35362996e-05
6.29686542e-05
6.14365185e-05
6.17927647e-05
6.35228199e-05
6.34861253e-05
6.23677377e-05
6.18155727e-05
6.23849253e-05
6.35203586e-05
6.3070989e-05
6.15167475e-05
6.18788719e-05
6.35560661e-05
6.35038317e-05
6.2350957e-05
6.18261193e-05
6.23622827e-05
6.35301065e-05
6.33681929e-05
6.16496056e-05
6.1534966e-05
6.24001179e-05
6.34952209e-05
6.33462872e-05
6.16982744e-05
6.15666974e-05
6.23871502e-05
6.34643606e-05
6.34010015e-05
6.1758595e-05
6.15478121e-05
6.23579768e-05
6.34202845e-05
6.34461663e-05
6.19164334e-05
6.15464943e-05
6.23312562e-05
6.3356491e-05
6.3449117e-05
6.22041399e-05
6.16417122e-05
6.23232578e-05
6.32874577e-05
6.3430594e-05
6.2228963e-05
6.18692581e-05
6.27009181e-05
6.34644999e-05
6.23518885e-05
6.21058207e-05
6.23908137e-05
6.30363788e-05
6.34757179e-05
6.22295995e-05
6.19569924e-05
6.23931813e-05
6.33758814e-05
6.24704614e-05
6.21215031e-05
6.20811661e-05
6.2721209e-05
6.34587922e-05
6.24049449e-05
6.18618344e-05
6.1577954e-05
6.17830081e-05
6.26940341e-05
6.34293537e-05
6.25710076e-05
6.20838069e-05
6.20708583e-05
6.27034896e-05
6.34293667e-05
6.26065903e-05
6.20407801e-05
6.22022204e-05
6.31020072e-05
6.30912983e-05
6.22907345e-05
6.21417201e-05
6.23435187e-05
6.33726249e-05
6.28235925e-05
6.22061387e-05
6.20782019e-05
6.27322406e-05
6.33710994e-05
6.2343713e-05
6.23537452e-05
6.23787798e-05
6.32528594e-05
6.24018427e-05
6.17641839e-05
6.22543637e-05
6.31313311e-05
6.33539962e-05
6.22743539e-05
6.16263369e-05
6.22656431e-05
6.32052318e-05
6.3365567e-05
6.22671112e-05
6.17956695e-05
6.22583441e-05
6.33557982e-05
6.33001125e-05
6.22979188e-05
6.20166588e-05
6.23199073e-05
6.34550012e-05
6.31530926e-05
6.23069455e-05
6.17202557e-05
6.18394731e-05
6.24805793e-05
6.34952008e-05
6.32844134e-05
6.22925009e-05
6.15988668e-05
6.22648753e-05
6.34358682e-05
6.34452156e-05
6.23036608e-05
6.22038791e-05
6.2322209e-05
6.34926901e-05
6.33812879e-05
6.22810466e-05
6.22700691e-05
6.29723508e-05
6.33748932e-05
6.22887834e-05
6.16678885e-05
6.21705549e-05
6.32807346e-05
6.34187154e-05
6.22998622e-05
6.17384314e-05
6.22533541e-05
6.33567661e-05
6.34342549e-05
6.22993493e-05
6.17239031e-05
6.22850356e-05
6.34171387e-05
6.34095685e-05
6.23667332e-05
6.23986995e-05
6.29679542e-05
6.34156503e-05
6.22952704e-05
6.17751525e-05
6.23058966e-05
6.34872605e-05
6.35015834e-05
6.2303865e-05
6.19200372e-05
6.19073985e-05
6.17459173e-05
6.22901e-05
6.3007328e-05
6.36177986e-05
6.33962052e-05
6.23590074e-05
6.23540521e-05
6.31433282e-05
6.34646743e-05
6.2301018e-05
6.17067813e-05
6.2344174e-05
6.34931983e-05
6.35013528e-05
6.24057452e-05
6.22466805e-05
6.30683194e-05
6.3473235e-05
6.23028892e-05
6.15314427e-05
6.20810257e-05
6.34169146e-05
6.35122089e-05
6.23062258e-05
6.15571023e-05
6.22560841e-05
6.35059328e-05
6.35154128e-05
6.23397549e-05
6.23355299e-05
6.34674202e-05
6.34466594e-05
6.22226177e-05
6.20840004e-05
6.30712805e-05
6.34833304e-05
6.23235196e-05
6.15319011e-05
6.21157132e-05
6.35167486e-05
6.35103236e-05
6.23188377e-05
6.15068489e-05
6.21661424e-05
6.35396819e-05
6.35037049e-05
6.2314387e-05
6.15202627e-05
6.2298232e-05
6.35608649e-05
6.34929001e-05
6.23248689e-05
6.1531973e-05
6.23189124e-05
6.35218668e-05
6.33824661e-05
6.22672845e-05
6.23948407e-05
6.35712318e-05
6.33149543e-05
6.19486882e-05
6.14426423e-05
6.23100392e-05
6.35096122e-05
6.31789307e-05
6.22587407e-05
6.23531863e-05
6.35491449e-05
6.30693301e-05
6.17070417e-05
6.15713634e-05
6.23347006e-05
6.34520619e-05
6.26577661e-05
6.21896489e-05
6.2327483e-05
6.33688177e-05
6.23150633e-05
6.17790789e-05
6.22495651e-05
6.35578579e-05
6.31582399e-05
6.20642455e-05
6.20545457e-05
6.26296498e-05
6.32963141e-05
6.22523014e-05
6.18730802e-05
6.22965587e-05
6.35401027e-05
6.28692742e-05
6.20928783e-05
6.22306114e-05
6.28898613e-05
6.32756892e-05
6.22516177e-05
6.17282508e-05
6.22409994e-05
6.33416176e-05
6.31885653e-05
6.22539294e-05
6.20008774e-05
6.27173836e-05
6.32715889e-05
6.22688015e-05
6.21346822e-05
6.25791783e-05
6.34606317e-05
6.24319916e-05
6.17410702e-05
6.21787041e-05
6.31162577e-05
6.33009516e-05
6.23028509e-05
6.2284121e-05
6.27989968e-05
6.34304616e-05
6.22788282e-05
6.1673222e-05
6.2320861e-05
6.32000617e-05
6.34191066e-05
6.22645965e-05
6.16903479e-05
6.23180256e-05
6.33462004e-05
6.34221939e-05
6.22605393e-05
6.17117934e-05
6.23075412e-05
6.33979792e-05
6.34172953e-05
6.22591266e-05
6.17114211e-05
6.23026969e-05
6.33898958e-05
6.34031248e-05
6.2274903e-05
6.16344242e-05
6.18609014e-05
6.22975733e-05
6.34307431e-05
6.35900891e-05
6.29093698e-05
6.22282574e-05
6.16911036e-05
6.22877722e-05
6.34484953e-05
6.3432036e-05
6.22750148e-05
6.16456745e-05
6.22712841e-05
6.33890317e-05
6.28745645e-05
6.23871731e-05
6.23212453e-05
6.34093029e-05
6.31662881e-05
6.19915672e-05
6.16342533e-05
6.22893037e-05
6.33989986e-05
6.27727665e-05
6.23655021e-05
6.2285355e-05
6.33842572e-05
6.26717756e-05
6.21773092e-05
6.2270476e-05
6.3367434e-05
6.2643783e-05
6.20934639e-05
6.23275981e-05
6.34672049e-05
6.34689254e-05
6.22734975e-05
6.1589143e-05
6.22881248e-05
6.33799202e-05
6.28436298e-05
6.22110654e-05
6.23114301e-05
6.33765917e-05
6.3483623e-05
6.22921873e-05
6.18467046e-05
6.23374218e-05
6.33555371e-05
6.35267822e-05
6.22697411e-05
6.1710505e-05
6.2320139e-05
6.32317581e-05
6.35121461e-05
6.22741076e-05
6.16750146e-05
6.2115794e-05
6.30519245e-05
6.34451011e-05
6.2251128e-05
6.15665406e-05
6.17687493e-05
6.28614966e-05
6.3357581e-05
6.22953488e-05
6.23699933e-05
6.24737432e-05
6.34042361e-05
6.24990292e-05
6.19670363e-05
6.17512885e-05
6.24549313e-05
6.34230417e-05
6.35674151e-05
6.24479087e-05
6.21456742e-05
6.17966719e-05
6.18511367e-05
6.24589229e-05
6.34116662e-05
6.27955739e-05
6.23050876e-05
6.1950174e-05
6.23833018e-05
6.33675129e-05
6.26103355e-05
6.23722958e-05
6.23233132e-05
6.33059368e-05
6.26503789e-05
6.20650467e-05
6.17111164e-05
6.23178028e-05
6.33562017e-05
6.26058835e-05
6.23861786e-05
6.23092962e-05
6.33231718e-05
6.25940226e-05
6.23994872e-05
6.23122363e-05
6.33664244e-05
6.26744638e-05
6.21221472e-05
6.18355312e-05
6.23490592e-05
6.3421866e-05
6.27824959e-05
6.22149717e-05
6.19327873e-05
6.23785598e-05
6.34358828e-05
6.27928461e-05
6.22011595e-05
6.19715198e-05
6.24097208e-05
6.34426058e-05
6.27697323e-05
6.21357678e-05
6.19866311e-05
6.24533291e-05
6.34463379e-05
6.2707931e-05
6.20394271e-05
6.20074562e-05
6.25276431e-05
6.34391681e-05
6.25782731e-05
6.19942236e-05
6.20598124e-05
6.26490354e-05
6.34193425e-05
6.24445812e-05
6.19876308e-05
6.21545381e-05
6.28190673e-05
)
;

boundaryField
{
    closed
    {
        type            calculated;
        value           nonuniform List<scalar> 0();
    }
    open
    {
        type            calculated;
        value           nonuniform List<scalar> 0();
    }
    sides
    {
        type            empty;
    }
    procBoundary1to0
    {
        type            processor;
        value           uniform 6.35674172e-05;
    }
    procBoundary1to2
    {
        type            processor;
        value           uniform 6.33952284e-05;
    }
}


// ************************************************************************* //
