/*--------------------------------*- C++ -*----------------------------------*\
| =========                 |                                                 |
| \\      /  F ield         | OpenFOAM: The Open Source CFD Toolbox           |
|  \\    /   O peration     | Version:  2306                                  |
|   \\  /    A nd           | Website:  www.openfoam.com                      |
|    \\/     M anipulation  |                                                 |
\*---------------------------------------------------------------------------*/
FoamFile
{
    version     2.0;
    format      ascii;
    arch        "LSB;label=32;scalar=64";
    class       volScalarField;
    location    "0.00142";
    object      H2O;
}
// * * * * * * * * * * * * * * * * * * * * * * * * * * * * * * * * * * * * * //

dimensions      [0 0 0 0 0 0 0];

internalField   nonuniform List<scalar> 
530
(
0.00666009111
0.000973028016
0.00107222378
0.00572795765
0.00719911834
0.00667690563
0.000975973827
0.00107457572
0.00569746752
0.00718192881
0.00667658142
0.00098498838
0.00107522793
0.00567881307
0.00716164788
0.00666696332
0.00099926351
0.00107701989
0.00557902015
0.00709693121
0.00660002688
0.00102208497
0.00108481714
0.00532609867
0.00696694256
0.0067903298
0.00721684628
0.0068089704
0.00099428829
0.00106408535
0.0010648158
0.00102756257
0.00624490592
0.0064315512
0.00103189818
0.0010522256
0.00654869773
0.00708201142
0.0071462208
0.00673561187
0.00102738705
0.00101738147
0.00660454002
0.007290377
0.00647524621
0.00106401479
0.0010355388
0.00654573243
0.00700952455
0.00708574013
0.00630871006
0.00102979538
0.00108360258
0.00107585056
0.000985439929
0.00651920042
0.00731491369
0.00632445192
0.00105518515
0.000992616968
0.00681253358
0.00714277796
0.00712711146
0.00638094731
0.0010496788
0.000972079436
0.00676530947
0.00722783963
0.00582132764
0.00106100338
0.000970903396
0.00668998717
0.00712394824
0.00540069234
0.0010468891
0.000739393454
0.00653105394
0.00544799814
0.00110442022
0.000994154389
0.00636675024
0.0070233342
0.00689479117
0.00714982784
0.00615361158
0.00107868817
0.00112229406
0.000936240519
0.00686772729
0.00724017886
0.00551942906
0.000997442429
0.00101832197
0.00687600038
0.00617065369
0.00104141102
0.000952017366
0.00683821449
0.00738548149
0.00486716785
0.000940287498
0.00439114953
0.00684874926
0.00284626081
0.000998321751
0.00463828671
0.00682202871
0.00541493548
0.0010572936
0.000996003958
0.00669389476
0.00729432307
0.00590559797
0.00101681499
0.000986736128
0.00679819604
0.00739786694
0.00611459296
0.00100043586
0.000993458198
0.00681687576
0.00737874754
0.00529517553
0.000978612456
0.00228822665
0.00680110787
0.00595039578
0.00102510327
0.00102167561
0.00653480988
0.00726099197
0.00615833863
0.000982435694
0.00101778986
0.00637997393
0.00728069933
0.00629983503
0.000950803726
0.00101724857
0.00626060403
0.00730357101
0.0064558286
0.000909373586
0.00101289439
0.00613981661
0.00732490385
0.00630060529
0.000876219399
0.000792360968
0.00651137277
0.00649118014
0.000824251437
0.00100870359
0.00556886427
0.0073009397
0.00644007243
0.00081595464
0.000833639953
0.00635204908
0.00638111128
0.00110833869
0.000991421233
0.00491338252
0.00723258077
0.00697428124
0.00139253824
0.000975145294
0.00478720768
0.00720845027
0.00645327123
0.0010903424
0.00281162514
0.00634991866
0.00490494413
0.000893676801
0.000922415945
0.00553400085
0.00708697091
0.00690334455
0.00170913486
0.000975099431
0.00402635943
0.00696004898
0.00692466487
0.00178914127
0.000962192038
0.0039031862
0.00687810287
0.00663281489
0.0015161272
0.000976752373
0.00383221853
0.00688075191
0.00707428322
0.00725912968
0.00654340612
0.00135216489
0.00337525202
0.00640161355
0.00417538864
0.000870398398
0.00400776699
0.0064827781
0.00402947621
0.000918808782
0.00268130828
0.006916357
0.00744325133
0.0044416459
0.000859774197
0.00420483041
0.00677779651
0.00426568909
0.000887707268
0.00434357971
0.00683775288
0.00418535026
0.000898509111
0.00448638902
0.00689556347
0.00405762321
0.000915446465
0.00461950953
0.00689794647
0.00381104749
0.000942025406
0.00472717331
0.00680863999
0.00342334554
0.000968977497
0.00352165656
0.00720812639
0.00752130579
0.00359126853
0.000963984487
0.00491734309
0.00675630163
0.00293141607
0.00101181482
0.00336044716
0.00710670382
0.00736272359
0.00308714732
0.000998206769
0.00511774314
0.00669317147
0.00246304252
0.00103154113
0.00343335595
0.00710619145
0.0072904951
0.00290887518
0.00100073281
0.00316937727
0.00717158814
0.00734326483
0.00287403122
0.000998769315
0.00526941506
0.00664274917
0.00219004689
0.00104422485
0.00334493825
0.00703481953
0.00715931258
0.00327317827
0.00103303751
0.00160249534
0.00688170842
0.00713471948
0.00355545431
0.00105217874
0.00107722088
0.00652113169
0.00730321168
0.0071737022
0.0037539195
0.000997087281
0.00231987961
0.00711448037
0.00725307785
0.0032559024
0.000978869731
0.00487739544
0.00654119913
0.00270228058
0.00103080552
0.00290332889
0.00703288708
0.00710877377
0.00374335023
0.00101147289
0.00142595805
0.00699988566
0.00716732348
0.00383647225
0.00101063973
0.00127460232
0.00700128947
0.00716907976
0.00390059654
0.00100718111
0.00128926894
0.00701951326
0.00717711885
0.00401185224
0.00100650424
0.00111750938
0.00701783387
0.00718034298
0.00411215435
0.00100973458
0.00085984198
0.00700139259
0.00717907974
0.00416706003
0.00101240027
0.000762939808
0.0069940625
0.00717692509
0.00417109071
0.00101093919
0.000932399661
0.00701835365
0.00718759626
0.0040399125
0.000993051675
0.00190729243
0.00712997775
0.00721981132
0.00399082731
0.000958867493
0.00276262464
0.00742933539
0.00739661538
0.00408059461
0.00104777564
0.000972628344
0.00524687407
0.00673857819
0.00344638404
0.000962131957
0.00388477271
0.00722756339
0.0071428511
0.00357454156
0.000972145163
0.00323713463
0.00714139762
0.00704136262
0.00289042666
0.000943909471
0.00506386409
0.00637232573
0.00229983885
0.00100823674
0.00380310474
0.00698539917
0.00684327778
0.00265139157
0.000983923647
0.00349999105
0.00717756864
0.00724743436
0.00699896551
0.00271783104
0.000869068666
0.00594128207
0.00668454386
0.00157681401
0.000908823895
0.00557028921
0.00734405525
0.00706161681
0.00216208168
0.000869697818
0.00619943935
0.00675159082
0.00107461509
0.000894071018
0.00645967468
0.00674739072
0.000758030079
0.000904290189
0.00655950873
0.00677217446
0.000799185194
0.000903494651
0.00663305828
0.00676129364
0.000826579322
0.000890952083
0.00666769232
0.00671216147
0.000856517878
0.000882440305
0.00668876571
0.00661926394
0.000900810273
0.00093554285
0.0064792956
0.00763506135
0.00714239319
0.000813721794
0.000892201296
0.00681315892
0.00683335235
0.000908335176
0.000890532268
0.00685034936
0.00674112244
0.000937207789
0.000896147078
0.00679464039
0.00658598917
0.000976128925
0.000959787192
0.00662292664
0.00767615775
0.00698851961
0.000912424111
0.000892062311
0.00685615303
0.00673916511
0.000977128366
0.000898538115
0.00682423017
0.0066342559
0.000998460904
0.000916343718
0.00671082599
0.00641445045
0.00102637662
0.000997756579
0.00643736425
0.0075277171
0.00653642574
0.000933807012
0.00104968157
0.000983020904
0.00255541731
0.00711410462
0.00716939399
0.00705394153
0.00748230732
0.00682508199
0.000947278954
0.000931771968
0.00659318708
0.0063700217
0.00102195481
0.00103863554
0.00614502557
0.00726533165
0.00654474861
0.000969478616
0.000958945176
0.00628722571
0.00626737103
0.000974047005
0.00104538156
0.0059183185
0.00722613253
0.00657625379
0.000921796684
0.00101672359
0.00569525273
0.00728704788
0.00675057288
0.000876155592
0.00100626545
0.00567483755
0.00737632469
0.00705460254
0.000826732228
0.000949150898
0.00586273879
0.00648027774
0.00132387848
0.00101488454
0.00546999548
0.00731339994
0.00710270644
0.000850240764
0.000993154254
0.00531646937
0.00740787774
0.00736319515
0.0010418345
0.000947862503
0.00560564309
0.00655608235
0.00186547395
0.000999389368
0.00528250407
0.00739395539
0.00740459381
0.00123407509
0.000949527155
0.00556743909
0.00666547999
0.002060901
0.000976383527
0.00550343214
0.00648326138
0.00169713124
0.00102652842
0.005009452
0.00718212746
0.00717256397
0.000783368431
0.0010214468
0.00484898565
0.00718175893
0.00717784861
0.000793694966
0.00102653529
0.0048265135
0.00716729836
0.00716487
0.000806115276
0.00103302554
0.00479998742
0.00715524343
0.00715350955
0.000814731135
0.0010367391
0.00479256931
0.00715411612
0.00715370508
)
;

boundaryField
{
    closed
    {
        type            calculated;
        value           nonuniform List<scalar> 0();
    }
    open
    {
        type            calculated;
        value           nonuniform List<scalar> 0();
    }
    sides
    {
        type            empty;
    }
    procBoundary2to1
    {
        type            processor;
        value           uniform 0.00721094085;
    }
    procBoundary2to3
    {
        type            processor;
        value           uniform 0.000821139634;
    }
}


// ************************************************************************* //
