/*--------------------------------*- C++ -*----------------------------------*\
| =========                 |                                                 |
| \\      /  F ield         | OpenFOAM: The Open Source CFD Toolbox           |
|  \\    /   O peration     | Version:  2306                                  |
|   \\  /    A nd           | Website:  www.openfoam.com                      |
|    \\/     M anipulation  |                                                 |
\*---------------------------------------------------------------------------*/
FoamFile
{
    version     2.0;
    format      ascii;
    arch        "LSB;label=32;scalar=64";
    class       volVectorField;
    location    "0.00142";
    object      U;
}
// * * * * * * * * * * * * * * * * * * * * * * * * * * * * * * * * * * * * * //

dimensions      [0 1 -1 0 0 0 0];

internalField   nonuniform List<vector> 
530
(
(0.190953505 0 0)
(0.143498588 0 0)
(0.0968033507 0 0)
(0.0468724407 0 0)
(-0.00406121024 0 0)
(-0.0627678792 0 0)
(-0.113826178 0 0)
(-0.164037742 0 0)
(-0.221086955 0 0)
(-0.27411335 0 0)
(-0.329631852 0 0)
(-0.385635218 0 0)
(-0.440798688 0 0)
(-0.492507765 0 0)
(-0.540549208 0 0)
(-0.589207331 0 0)
(-0.645709045 0 0)
(-0.70101685 0 0)
(-0.743993186 0 0)
(-0.782363976 0 0)
(-0.817419292 0 0)
(-0.864388469 0 0)
(-0.908023716 0 0)
(-0.93477618 0 0)
(-0.960664254 0 0)
(-1.00035003 0 0)
(-1.02131193 0 0)
(-1.0220912 0 0)
(-1.04705958 0 0)
(-1.04655905 0 0)
(-1.04925899 0 0)
(-1.06175426 0 0)
(-1.02333191 0 0)
(-1.00852261 0 0)
(-1.0264775 0 0)
(-1.02613564 0 0)
(-1.01272888 0 0)
(-1.00494213 0 0)
(-0.984784658 0 0)
(-0.931161739 0 0)
(-0.909442785 0 0)
(-0.900115166 0 0)
(-0.886233969 0 0)
(-0.873888848 0 0)
(-0.860840751 0 0)
(-0.873964317 0 0)
(-0.871373295 0 0)
(-0.856119207 0 0)
(-0.846350795 0 0)
(-0.815965628 0 0)
(-0.78973084 0 0)
(-0.788477759 0 0)
(-0.771751132 0 0)
(-0.748262164 0 0)
(-0.724172422 0 0)
(-0.681688098 0 0)
(-0.642151613 0 0)
(-0.61364596 0 0)
(-0.60238341 0 0)
(-0.581626293 0 0)
(-0.557802834 0 0)
(-0.536157077 0 0)
(-0.505115927 0 0)
(-0.471580403 0 0)
(-0.448715744 0 0)
(-0.418929378 0 0)
(-0.388675105 0 0)
(-0.358425545 0 0)
(-0.321857352 0 0)
(-0.293008001 0 0)
(-0.258519888 0 0)
(-0.224256269 0 0)
(-0.193779185 0 0)
(-0.15966434 0 0)
(-0.12892344 0 0)
(-0.0697325085 0 0)
(-0.0182210886 0 0)
(0.00806334897 0 0)
(0.0477740082 0 0)
(0.0978252811 0 0)
(0.143477269 0 0)
(0.17160619 0 0)
(0.211038968 0 0)
(0.248274163 0 0)
(0.289410843 0 0)
(0.331670654 0 0)
(0.341090584 0 0)
(0.399442064 0 0)
(0.435546833 0 0)
(0.464422134 0 0)
(0.491105722 0 0)
(0.515799192 0 0)
(0.599927987 0 0)
(0.669138608 0 0)
(0.682248069 0 0)
(0.723968158 0 0)
(0.760979672 0 0)
(0.781469742 0 0)
(0.793998809 0 0)
(0.807378575 0 0)
(0.849489114 0 0)
(0.845414422 0 0)
(0.847688136 0 0)
(0.856327984 0 0)
(0.881481678 0 0)
(0.871287108 0 0)
(0.874851363 0 0)
(0.877148456 0 0)
(0.897733185 0 0)
(0.910227375 0 0)
(0.91026927 0 0)
(0.911651317 0 0)
(0.914265972 0 0)
(0.9307086 0 0)
(0.92913377 0 0)
(0.929749061 0 0)
(0.945094559 0 0)
(0.953861045 0 0)
(0.975367506 0 0)
(0.976954704 0 0)
(0.983941128 0 0)
(1.01124999 0 0)
(1.02162802 0 0)
(1.05596735 0 0)
(1.10428455 0 0)
(1.15532643 0 0)
(1.19695592 0 0)
(1.27684956 0 0)
(1.34431029 0 0)
(1.42293156 0 0)
(1.52595102 0 0)
(1.61797659 0 0)
(1.74314795 0 0)
(1.83587432 0 0)
(1.86373618 0 0)
(1.91584643 0 0)
(2.01890769 0 0)
(2.15892475 0 0)
(2.25675356 0 0)
(2.28098002 0 0)
(2.34057178 0 0)
(2.46838859 0 0)
(2.64459765 0 0)
(2.76913772 0 0)
(2.80516378 0 0)
(2.88153305 0 0)
(3.02945364 0 0)
(3.22021262 0 0)
(3.34080301 0 0)
(3.45914167 0 0)
(3.58895631 0 0)
(3.67500287 0 0)
(3.70720295 0 0)
(3.67935239 0 0)
(3.71328941 0 0)
(3.83904867 0 0)
(4.02581817 0 0)
(4.20917818 0 0)
(4.29464904 0 0)
(4.29401088 0 0)
(4.27862673 0 0)
(4.17945924 0 0)
(4.09479655 0 0)
(4.08310256 0 0)
(4.0314829 0 0)
(3.94443391 0 0)
(3.85337321 0 0)
(3.71578333 0 0)
(3.6330857 0 0)
(3.60319434 0 0)
(3.57252845 0 0)
(3.47990819 0 0)
(3.39710833 0 0)
(3.30611843 0 0)
(3.23206643 0 0)
(3.13325802 0 0)
(3.01584616 0 0)
(2.9165562 0 0)
(2.81213413 0 0)
(2.70047895 0 0)
(2.59139225 0 0)
(2.49390668 0 0)
(2.43667267 0 0)
(2.3546487 0 0)
(2.24413982 0 0)
(2.13273844 0 0)
(2.04790445 0 0)
(1.99689815 0 0)
(1.91738829 0 0)
(1.82859243 0 0)
(1.73954721 0 0)
(1.66812779 0 0)
(1.62029101 0 0)
(1.56995351 0 0)
(1.52126409 0 0)
(1.44946905 0 0)
(1.3665277 0 0)
(1.34946158 0 0)
(1.33491656 0 0)
(1.34092309 0 0)
(1.26917954 0 0)
(1.26320552 0 0)
(1.26007973 0 0)
(1.26010945 0 0)
(1.1955701 0 0)
(1.17264801 0 0)
(1.17153049 0 0)
(1.16665982 0 0)
(1.14583827 0 0)
(1.05716797 0 0)
(1.0109704 0 0)
(0.983692636 0 0)
(0.960000691 0 0)
(0.871618184 0 0)
(0.822099027 0 0)
(0.789364545 0 0)
(0.761724105 0 0)
(0.677162556 0 0)
(0.628037846 0 0)
(0.592485836 0 0)
(0.563176167 0 0)
(0.485526442 0 0)
(0.43957112 0 0)
(0.401093854 0 0)
(0.371159723 0 0)
(0.303275438 0 0)
(0.263763527 0 0)
(0.223206709 0 0)
(0.190502624 0 0)
(0.139549123 0 0)
(0.104615925 0 0)
(0.0716279586 0 0)
(0.0380667551 0 0)
(0.00874517865 0 0)
(-0.0280539249 0 0)
(-0.0462164764 0 0)
(-0.0959387871 0 0)
(-0.125285326 0 0)
(-0.147773356 0 0)
(-0.173198135 0 0)
(-0.208842044 0 0)
(-0.241090695 0 0)
(-0.25549968 0 0)
(-0.281258567 0 0)
(-0.296477442 0 0)
(-0.329130868 0 0)
(-0.338748763 0 0)
(-0.347883238 0 0)
(-0.369611484 0 0)
(-0.398607354 0 0)
(-0.415983179 0 0)
(-0.423206047 0 0)
(-0.440191135 0 0)
(-0.454622539 0 0)
(-0.47683828 0 0)
(-0.494493673 0 0)
(-0.490429588 0 0)
(-0.497951343 0 0)
(-0.499291823 0 0)
(-0.512669947 0 0)
(-0.500664003 0 0)
(-0.489001372 0 0)
(-0.496849269 0 0)
(-0.51011455 0 0)
(-0.511069404 0 0)
(-0.506851572 0 0)
(-0.516838944 0 0)
(-0.506403679 0 0)
(-0.502617221 0 0)
(-0.513152375 0 0)
(-0.509975952 0 0)
(-0.519571099 0 0)
(-0.497966435 0 0)
(-0.485130478 0 0)
(-0.501261757 0 0)
(-0.491939851 0 0)
(-0.478059546 0 0)
(-0.477725475 0 0)
(-0.466432603 0 0)
(-0.462327715 0 0)
(-0.466517429 0 0)
(-0.447295833 0 0)
(-0.43121995 0 0)
(-0.42305566 0 0)
(-0.420340304 0 0)
(-0.400907887 0 0)
(-0.381226518 0 0)
(-0.375653457 0 0)
(-0.376523725 0 0)
(-0.374681126 0 0)
(-0.37057958 0 0)
(-0.376236771 0 0)
(-0.361863281 0 0)
(-0.358504322 0 0)
(-0.376757281 0 0)
(-0.38726508 0 0)
(-0.40491224 0 0)
(-0.399426557 0 0)
(-0.404729161 0 0)
(-0.434061542 0 0)
(-0.455322309 0 0)
(-0.483948431 0 0)
(-0.491603841 0 0)
(-0.508757123 0 0)
(-0.547159419 0 0)
(-0.578518425 0 0)
(-0.620285816 0 0)
(-0.638503112 0 0)
(-0.664323316 0 0)
(-0.713460162 0 0)
(-0.755494204 0 0)
(-0.812683389 0 0)
(-0.841750559 0 0)
(-0.875753742 0 0)
(-0.937728415 0 0)
(-0.990440377 0 0)
(-1.06367689 0 0)
(-1.10921922 0 0)
(-1.15517616 0 0)
(-1.2283485 0 0)
(-1.28909702 0 0)
(-1.37654765 0 0)
(-1.44272996 0 0)
(-1.50439116 0 0)
(-1.5837412 0 0)
(-1.64540788 0 0)
(-1.74048334 0 0)
(-1.82420157 0 0)
(-1.90375193 0 0)
(-1.97809313 0 0)
(-2.03732225 0 0)
(-2.14537385 0 0)
(-2.27023452 0 0)
(-2.33844825 0 0)
(-2.36021723 0 0)
(-2.41131408 0 0)
(-2.52739665 0 0)
(-2.62558115 0 0)
(-2.65760941 0 0)
(-2.69616604 0 0)
(-2.72172645 0 0)
(-2.8102582 0 0)
(-2.88411152 0 0)
(-2.92707812 0 0)
(-2.92707866 0 0)
(-2.93946725 0 0)
(-3.01678959 0 0)
(-3.09670289 0 0)
(-3.12716813 0 0)
(-3.10582036 0 0)
(-3.08402839 0 0)
(-3.11237012 0 0)
(-3.09252879 0 0)
(-3.10401668 0 0)
(-3.07264231 0 0)
(-3.06136693 0 0)
(-3.07227896 0 0)
(-3.06387381 0 0)
(-3.00936705 0 0)
(-2.94407025 0 0)
(-2.92142563 0 0)
(-2.89430527 0 0)
(-2.89126213 0 0)
(-2.8815584 0 0)
(-2.81520927 0 0)
(-2.73456669 0 0)
(-2.67999236 0 0)
(-2.58708777 0 0)
(-2.51341181 0 0)
(-2.40951436 0 0)
(-2.30552596 0 0)
(-2.21821499 0 0)
(-2.14746997 0 0)
(-2.07919271 0 0)
(-1.98597034 0 0)
(-1.89214975 0 0)
(-1.793809 0 0)
(-1.72678189 0 0)
(-1.61050591 0 0)
(-1.46717951 0 0)
(-1.43004172 0 0)
(-1.42686294 0 0)
(-1.3149066 0 0)
(-1.18898473 0 0)
(-1.16640684 0 0)
(-1.18382797 0 0)
(-1.12161848 0 0)
(-1.05260708 0 0)
(-1.03459841 0 0)
(-1.01407039 0 0)
(-0.951559011 0 0)
(-0.892844786 0 0)
(-0.866720767 0 0)
(-0.843678452 0 0)
(-0.780293072 0 0)
(-0.714528315 0 0)
(-0.681997132 0 0)
(-0.657467084 0 0)
(-0.600174263 0 0)
(-0.536903415 0 0)
(-0.515740146 0 0)
(-0.514590319 0 0)
(-0.504224667 0 0)
(-0.440863639 0 0)
(-0.361291134 0 0)
(-0.338308414 0 0)
(-0.332889969 0 0)
(-0.288526264 0 0)
(-0.229093141 0 0)
(-0.201408149 0 0)
(-0.197575458 0 0)
(-0.167332029 0 0)
(-0.108104595 0 0)
(-0.0784718885 0 0)
(-0.0778211624 0 0)
(-0.0539360114 0 0)
(-0.00280106426 0 0)
(0.0263245149 0 0)
(0.0454276757 0 0)
(0.065054041 0 0)
(0.0926700154 0 0)
(0.156325284 0 0)
(0.195183854 0 0)
(0.190516779 0 0)
(0.20773811 0 0)
(0.267519299 0 0)
(0.306440759 0 0)
(0.305695414 0 0)
(0.319905972 0 0)
(0.378824802 0 0)
(0.413939121 0 0)
(0.44241082 0 0)
(0.49706242 0 0)
(0.545840354 0 0)
(0.577118548 0 0)
(0.590203695 0 0)
(0.620361057 0 0)
(0.659690171 0 0)
(0.697444306 0 0)
(0.751768156 0 0)
(0.813851553 0 0)
(0.867256729 0 0)
(0.924692857 0 0)
(0.98084842 0 0)
(1.03868151 0 0)
(1.08265815 0 0)
(1.14447084 0 0)
(1.23891808 0 0)
(1.32556105 0 0)
(1.44540654 0 0)
(1.59019165 0 0)
(1.70013628 0 0)
(1.76540528 0 0)
(1.85108654 0 0)
(1.95494357 0 0)
(2.09321034 0 0)
(2.26337476 0 0)
(2.36681432 0 0)
(2.51690112 0 0)
(2.73367347 0 0)
(2.89293599 0 0)
(2.99637905 0 0)
(3.12564219 0 0)
(3.23902468 0 0)
(3.38451485 0 0)
(3.52690329 0 0)
(3.56450579 0 0)
(3.6377119 0 0)
(3.69764689 0 0)
(3.77851428 0 0)
(3.84545936 0 0)
(3.79362376 0 0)
(3.77863675 0 0)
(3.7582734 0 0)
(3.76397914 0 0)
(3.76465169 0 0)
(3.64803566 0 0)
(3.6097947 0 0)
(3.58162242 0 0)
(3.4662563 0 0)
(3.34640909 0 0)
(3.274671 0 0)
(3.19768536 0 0)
(3.120173 0 0)
(3.03831556 0 0)
(2.90799602 0 0)
(2.81166482 0 0)
(2.71914725 0 0)
(2.61034979 0 0)
(2.49807441 0 0)
(2.35984862 0 0)
(2.26944393 0 0)
(2.18284653 0 0)
(2.03201994 0 0)
(1.90831474 0 0)
(1.82611407 0 0)
(1.78831934 0 0)
(1.68488593 0 0)
(1.53909832 0 0)
(1.43576583 0 0)
(1.36408643 0 0)
(1.29759475 0 0)
(1.18469044 0 0)
(1.11144579 0 0)
(1.05940164 0 0)
(1.01265061 0 0)
(0.925028723 0 0)
(0.862645813 0 0)
(0.818142112 0 0)
(0.789022764 0 0)
(0.751698557 0 0)
(0.720366583 0 0)
(0.683679501 0 0)
(0.657386734 0 0)
(0.644852323 0 0)
(0.623681363 0 0)
(0.605039867 0 0)
(0.576937745 0 0)
(0.556684777 0 0)
(0.546989979 0 0)
(0.533342388 0 0)
(0.522459912 0 0)
(0.500056701 0 0)
(0.485239001 0 0)
(0.490554324 0 0)
(0.491046307 0 0)
(0.484841566 0 0)
(0.473306783 0 0)
(0.469758377 0 0)
(0.477476222 0 0)
)
;

boundaryField
{
    closed
    {
        type            noSlip;
    }
    open
    {
        type            inletOutlet;
        inletValue      nonuniform List<vector> 0();
        value           nonuniform List<vector> 0();
    }
    sides
    {
        type            empty;
    }
    procBoundary2to1
    {
        type            processor;
        value           uniform (0.239080528 0 0);
    }
    procBoundary2to3
    {
        type            processor;
        value           uniform (0.487742015 0 0);
    }
}


// ************************************************************************* //
