/*--------------------------------*- C++ -*----------------------------------*\
| =========                 |                                                 |
| \\      /  F ield         | OpenFOAM: The Open Source CFD Toolbox           |
|  \\    /   O peration     | Version:  2306                                  |
|   \\  /    A nd           | Website:  www.openfoam.com                      |
|    \\/     M anipulation  |                                                 |
\*---------------------------------------------------------------------------*/
FoamFile
{
    version     2.0;
    format      ascii;
    arch        "LSB;label=32;scalar=64";
    class       volScalarField;
    location    "0.0018";
    object      prefDPV_T;
}
// * * * * * * * * * * * * * * * * * * * * * * * * * * * * * * * * * * * * * //

dimensions      [1 -1 -1 -1 0 0 0];

internalField   nonuniform List<scalar> 
530
(
6.180342e-10
5.99617101e-10
5.97529007e-10
5.97546764e-10
5.97549752e-10
5.97549778e-10
5.97549775e-10
5.97549775e-10
5.97549775e-10
5.97549775e-10
5.97549775e-10
5.97549775e-10
5.97549775e-10
5.97549775e-10
5.97549775e-10
5.97549775e-10
5.97549775e-10
5.97549775e-10
5.97549775e-10
5.97549775e-10
5.97549775e-10
5.97549775e-10
5.97549775e-10
5.97549775e-10
5.97549775e-10
5.97549775e-10
5.97549775e-10
5.97549775e-10
5.97549775e-10
5.97549775e-10
5.97549775e-10
5.97549775e-10
5.97549775e-10
5.97549775e-10
5.97549775e-10
5.97549775e-10
5.97549775e-10
5.97549775e-10
5.97549775e-10
5.97549775e-10
5.97549775e-10
5.97549775e-10
5.97549775e-10
5.97549775e-10
5.97549775e-10
5.97549775e-10
5.97549775e-10
5.97549775e-10
5.97549775e-10
5.97549775e-10
5.97549775e-10
5.97549775e-10
5.97549775e-10
5.97549775e-10
5.97549775e-10
5.97549775e-10
5.97549775e-10
5.97549775e-10
5.97549775e-10
5.97549775e-10
5.97549775e-10
5.97549775e-10
5.97549775e-10
5.97549775e-10
5.97549777e-10
5.97549781e-10
5.97549782e-10
5.97549772e-10
5.97549846e-10
5.97550002e-10
5.97549499e-10
5.97549898e-10
5.97551312e-10
5.97550782e-10
5.97547728e-10
5.97551722e-10
5.97555662e-10
5.97560984e-10
5.97548957e-10
5.97532414e-10
5.97510492e-10
5.97524808e-10
5.9780169e-10
5.98117509e-10
5.97877549e-10
5.93534022e-10
5.9292779e-10
6.0077499e-10
6.09836345e-10
6.05755018e-10
5.9071182e-10
5.90643775e-10
5.90685277e-10
5.90497768e-10
5.90729731e-10
6.10078805e-10
6.08456185e-10
6.09460631e-10
6.0835915e-10
6.08748318e-10
5.97306475e-10
5.89818502e-10
5.89815726e-10
5.89602046e-10
5.89625256e-10
5.89707662e-10
5.89390025e-10
5.93493417e-10
6.09173263e-10
6.08217852e-10
6.09185684e-10
6.08784191e-10
6.08955436e-10
6.04089994e-10
5.89848175e-10
5.89500875e-10
5.89614767e-10
5.89683595e-10
5.89288601e-10
5.92239603e-10
6.09087416e-10
6.08207998e-10
6.09068251e-10
6.08532312e-10
6.08587538e-10
6.08797745e-10
5.97490545e-10
5.89709453e-10
5.89769621e-10
5.89619197e-10
5.89731087e-10
5.89569676e-10
5.9311231e-10
6.08354217e-10
6.08310616e-10
5.95294864e-10
5.89423977e-10
5.89472915e-10
5.98599585e-10
6.08712373e-10
6.08291236e-10
6.08775377e-10
5.99361184e-10
5.90103312e-10
5.89243211e-10
5.89677231e-10
6.09047042e-10
6.0910553e-10
5.95708222e-10
5.89528242e-10
5.89763735e-10
6.08770163e-10
6.08520051e-10
5.92108913e-10
5.90901784e-10
6.08469041e-10
6.08497318e-10
5.94588189e-10
5.89509586e-10
5.89989123e-10
6.0881884e-10
6.08958417e-10
5.96536057e-10
5.89276997e-10
5.8986646e-10
6.09407038e-10
6.08527192e-10
6.09230658e-10
6.00159004e-10
5.89636042e-10
5.89828133e-10
6.08791983e-10
6.08681775e-10
5.95946265e-10
5.89752704e-10
5.89998047e-10
6.08546954e-10
6.08481015e-10
5.95296861e-10
5.90224762e-10
5.90332252e-10
5.90070271e-10
5.89361429e-10
5.89373706e-10
6.09089141e-10
6.08547585e-10
5.90686845e-10
5.90413285e-10
6.1096256e-10
6.08353183e-10
6.09597814e-10
5.90611944e-10
5.90252282e-10
6.09832935e-10
6.08163711e-10
6.09282737e-10
5.92743109e-10
5.89456023e-10
5.89354229e-10
5.89411264e-10
6.09575212e-10
6.08727892e-10
5.90620902e-10
5.9008235e-10
6.09455883e-10
6.08448472e-10
5.90618127e-10
5.90130635e-10
6.09543085e-10
6.0841644e-10
5.90559185e-10
5.90096153e-10
6.09656764e-10
6.08486264e-10
5.90480565e-10
5.90074913e-10
6.09573834e-10
6.08915585e-10
5.91116213e-10
5.88920497e-10
5.89244011e-10
6.0949349e-10
6.08658147e-10
5.90664519e-10
5.89977169e-10
6.09832787e-10
6.08943345e-10
5.91003209e-10
5.88840228e-10
5.89062135e-10
6.09787739e-10
6.08655925e-10
5.90624393e-10
5.8969881e-10
6.10494639e-10
6.08535645e-10
5.9048672e-10
5.8971375e-10
6.10673101e-10
6.08535269e-10
5.90515259e-10
5.89726471e-10
6.10808419e-10
6.08530064e-10
5.90586778e-10
5.89812256e-10
6.10887075e-10
6.08539584e-10
5.90720453e-10
5.90007563e-10
6.1082346e-10
6.08901e-10
5.91275976e-10
5.8894053e-10
5.88950449e-10
6.10196149e-10
6.08595119e-10
5.91074214e-10
5.9000357e-10
6.11153325e-10
6.08432153e-10
5.91116146e-10
5.90257895e-10
6.11127681e-10
6.08767904e-10
5.91832731e-10
5.8920422e-10
5.89207134e-10
6.10252715e-10
6.08502032e-10
5.91449169e-10
5.90248837e-10
6.11280938e-10
6.08734596e-10
5.92061331e-10
5.89287959e-10
5.892564e-10
6.10322207e-10
6.0846776e-10
5.9158038e-10
5.90116314e-10
6.11555001e-10
6.08374912e-10
5.91711437e-10
5.90394836e-10
6.11487279e-10
6.08665029e-10
5.924727e-10
5.89411937e-10
5.89363205e-10
6.10406852e-10
6.083762e-10
5.92368758e-10
5.90523756e-10
6.11608013e-10
6.08488687e-10
5.93059889e-10
5.8994805e-10
5.9014227e-10
5.89677617e-10
5.89505805e-10
6.11482886e-10
6.08423556e-10
5.92819809e-10
5.90641813e-10
6.11983187e-10
6.08485603e-10
5.93925367e-10
5.8988614e-10
5.89978553e-10
6.10550152e-10
6.08468838e-10
5.95020126e-10
5.89885619e-10
5.89968652e-10
6.1065972e-10
6.08461383e-10
5.95664967e-10
5.89981039e-10
5.89999944e-10
6.1115395e-10
6.08468901e-10
5.96559589e-10
5.90039213e-10
5.90018091e-10
6.11979169e-10
6.08499474e-10
5.99000543e-10
5.90319814e-10
5.90144361e-10
6.11409311e-10
6.08430093e-10
5.97960751e-10
5.90339745e-10
5.90049479e-10
5.89844438e-10
6.09646004e-10
6.08483901e-10
5.94626026e-10
5.90952085e-10
6.09876769e-10
6.08581877e-10
5.9626471e-10
5.9013436e-10
5.89928815e-10
6.09727058e-10
6.08741575e-10
5.98431977e-10
5.90077823e-10
5.89815418e-10
6.08700927e-10
6.08886071e-10
5.98687711e-10
5.89964292e-10
5.89681786e-10
6.08130564e-10
6.08950246e-10
5.99551021e-10
5.90132874e-10
5.8974914e-10
6.07590323e-10
6.0887884e-10
5.98097896e-10
5.90267839e-10
5.8983987e-10
5.89661352e-10
6.05912394e-10
6.08953656e-10
5.94962789e-10
5.90755737e-10
6.0745287e-10
6.08965225e-10
5.96933471e-10
5.90044732e-10
5.89704445e-10
6.0760886e-10
6.08719323e-10
5.950567e-10
5.90675629e-10
6.0761916e-10
6.08933228e-10
5.96872927e-10
5.90033295e-10
5.8978962e-10
6.09475889e-10
6.08755017e-10
5.9409717e-10
5.9013144e-10
6.06622377e-10
6.09136669e-10
5.97418898e-10
5.90090784e-10
5.89858974e-10
6.103985e-10
6.08694073e-10
5.93973129e-10
5.9007435e-10
6.06952648e-10
6.09062081e-10
5.9679519e-10
5.9007499e-10
5.89955954e-10
6.11794024e-10
6.08661592e-10
5.96728514e-10
5.90171375e-10
5.90386636e-10
6.11055353e-10
6.08687414e-10
5.96182698e-10
5.89579374e-10
5.895213e-10
6.1213052e-10
6.09089626e-10
5.95499232e-10
5.89405385e-10
5.89255301e-10
6.12069631e-10
6.09092461e-10
5.92892117e-10
5.89458841e-10
6.03818766e-10
6.09225876e-10
5.94241582e-10
5.90208477e-10
6.06212194e-10
6.0884196e-10
5.94230348e-10
5.9058168e-10
6.08105726e-10
6.09026767e-10
5.96313965e-10
5.89877849e-10
5.8954885e-10
6.11546991e-10
6.08601372e-10
5.94461202e-10
5.90370699e-10
6.07622189e-10
6.08482705e-10
5.9450058e-10
5.90753258e-10
6.09364051e-10
6.08456382e-10
5.96281152e-10
5.90663059e-10
5.90264941e-10
5.90695434e-10
6.10497065e-10
6.08399339e-10
5.96688784e-10
5.90041485e-10
5.90063639e-10
5.89657223e-10
5.89496501e-10
6.11496742e-10
6.08645935e-10
5.94323357e-10
5.90119617e-10
6.05729013e-10
6.09183538e-10
5.97421224e-10
5.89876633e-10
5.89543596e-10
6.1241406e-10
6.08597853e-10
5.94576336e-10
5.90467123e-10
6.07185534e-10
6.08537195e-10
5.94564025e-10
5.9047417e-10
6.07949201e-10
6.08501722e-10
5.94083756e-10
5.90702429e-10
6.10654494e-10
6.0884465e-10
5.95753999e-10
5.89609093e-10
5.89491836e-10
6.11241814e-10
6.08942254e-10
5.95966759e-10
5.89472191e-10
5.89415208e-10
6.11121954e-10
6.08971952e-10
5.95832108e-10
5.89497156e-10
5.8944353e-10
6.10948435e-10
6.08993342e-10
5.95788743e-10
5.8954245e-10
5.89328403e-10
6.1128795e-10
6.0855409e-10
5.93212338e-10
5.90663224e-10
6.11525198e-10
6.08778976e-10
5.94663066e-10
5.89528541e-10
5.89378582e-10
6.11022248e-10
6.0857674e-10
5.9315996e-10
5.90667634e-10
6.10959583e-10
6.08735363e-10
5.94572265e-10
5.89423432e-10
5.89566895e-10
6.1026157e-10
6.090679e-10
5.95733419e-10
5.8952085e-10
5.89545557e-10
6.10265053e-10
6.08366526e-10
6.09140046e-10
5.9577118e-10
5.9020073e-10
5.90044472e-10
5.89409912e-10
5.89378837e-10
6.1035454e-10
6.08432753e-10
6.0950521e-10
)
;

boundaryField
{
    closed
    {
        type            calculated;
        value           uniform 7.27959467e-10;
    }
    open
    {
        type            calculated;
        value           nonuniform List<scalar> 0();
    }
    sides
    {
        type            empty;
    }
    procBoundary0to1
    {
        type            processor;
        value           uniform 5.96170386e-10;
    }
}


// ************************************************************************* //
