/*--------------------------------*- C++ -*----------------------------------*\
| =========                 |                                                 |
| \\      /  F ield         | OpenFOAM: The Open Source CFD Toolbox           |
|  \\    /   O peration     | Version:  2306                                  |
|   \\  /    A nd           | Website:  www.openfoam.com                      |
|    \\/     M anipulation  |                                                 |
\*---------------------------------------------------------------------------*/
FoamFile
{
    version     2.0;
    format      ascii;
    arch        "LSB;label=32;scalar=64";
    class       volScalarField;
    location    "0.0018";
    object      rho;
}
// * * * * * * * * * * * * * * * * * * * * * * * * * * * * * * * * * * * * * //

dimensions      [1 -3 0 0 0 0 0];

internalField   nonuniform List<scalar> 
530
(
0.841115516
0.921480965
0.935271586
0.9341941
0.932843477
0.933212953
0.933484189
0.934092076
0.934531965
0.935193457
0.935695873
0.934389622
0.933922064
0.936088318
0.937086474
0.93607877
0.934892845
0.934551207
0.935409011
0.936460172
0.936480092
0.935819302
0.935096968
0.934597156
0.934462041
0.934595166
0.93438252
0.93385879
0.934415446
0.937274663
0.94061126
0.939882626
0.935281444
0.931786562
0.932734788
0.933397139
0.92914248
0.924931696
0.927752208
0.934457095
0.939891981
0.941688822
0.941270029
0.93963805
0.937290155
0.935208866
0.934017459
0.933690205
0.933790167
0.933959126
0.934124761
0.934219589
0.93415643
0.934026181
0.934032362
0.934249035
0.934626049
0.93506181
0.935442559
0.93569055
0.935793671
0.935786881
0.935709458
0.935584688
0.935431777
0.935270024
0.935109166
0.934952406
0.934799695
0.934665236
0.934552042
0.934462415
0.934402653
0.93437772
0.93438927
0.934426088
0.93449952
0.934595858
0.934732455
0.934879587
0.935047688
0.935158154
0.934921714
0.934599416
0.934958072
0.939027699
0.939099134
0.931256815
0.903326427
0.922457698
0.945357125
0.947835461
0.945546842
0.95030684
0.94472932
0.905340932
0.903708056
0.905017795
0.903471002
0.904561833
0.936672465
0.953529707
0.953622916
0.955522277
0.956405942
0.953747732
0.959433657
0.940524416
0.904169395
0.903444349
0.904751227
0.904224138
0.905030491
0.926038925
0.95408059
0.957355703
0.95681849
0.954229011
0.960539463
0.941107517
0.903670007
0.903144272
0.904203113
0.90319947
0.904017861
0.903989878
0.936395971
0.95428699
0.953045117
0.955625039
0.952852661
0.956169518
0.940684432
0.90330998
0.903339506
0.938514771
0.955495308
0.95600667
0.935015682
0.90350402
0.903542871
0.904541785
0.933587397
0.951425736
0.960019785
0.955572245
0.902948679
0.905250426
0.937880136
0.957964895
0.953124119
0.903350062
0.904004732
0.939898712
0.941955482
0.902128612
0.903988316
0.93863333
0.956613025
0.952123578
0.902729919
0.904975521
0.936904911
0.960712177
0.952565473
0.903691479
0.904288285
0.904870569
0.932078827
0.956552403
0.953446519
0.903163438
0.904189939
0.937250905
0.954156866
0.951199156
0.902945747
0.903815833
0.937802312
0.949181296
0.948517165
0.950607996
0.958631757
0.957150507
0.903644457
0.903366579
0.947064608
0.947085899
0.910947757
0.904260881
0.904483256
0.945664947
0.949553902
0.902943304
0.903866404
0.903615744
0.938987821
0.958587422
0.958058221
0.957989087
0.903862785
0.903518834
0.945365068
0.950124918
0.903867768
0.903001977
0.945232497
0.9490208
0.903932683
0.902781547
0.945594542
0.949281026
0.903842291
0.902846513
0.945612288
0.95013786
0.903447352
0.90319356
0.939602171
0.962930047
0.957836555
0.903850561
0.90266211
0.943504853
0.950921642
0.903691066
0.902980786
0.939476857
0.963717059
0.959339209
0.904206964
0.902231828
0.944511251
0.952417889
0.904824277
0.902071973
0.945744512
0.95211949
0.904975996
0.902031492
0.945313261
0.951947676
0.905087575
0.902002658
0.94435307
0.951207147
0.905126064
0.902202703
0.942594274
0.950070475
0.904926677
0.902686526
0.939190678
0.962305258
0.960316016
0.904472862
0.901894362
0.939310319
0.949000972
0.905526098
0.90193919
0.938800211
0.947122176
0.905244934
0.902425357
0.938795475
0.959295002
0.957703526
0.904346623
0.901871951
0.93821875
0.946908341
0.905294692
0.902270307
0.938604012
0.958352254
0.957000515
0.90430183
0.901482346
0.937857106
0.947114457
0.905485636
0.901328584
0.937503177
0.944931758
0.905015328
0.901783922
0.938034656
0.956413025
0.955278112
0.9037485
0.900833924
0.936895426
0.942717128
0.904823532
0.901076204
0.936818217
0.949504828
0.946284351
0.95321982
0.952967291
0.904756012
0.900044489
0.935544008
0.94048177
0.904406115
0.900019024
0.93514135
0.949498022
0.948196535
0.90221043
0.899506739
0.934009075
0.948604268
0.948049527
0.901934292
0.899253078
0.933040883
0.947321787
0.947232959
0.902546482
0.898968115
0.931663663
0.946386978
0.94657315
0.903551873
0.898839951
0.928304793
0.943417235
0.94445111
0.9052887
0.898246739
0.929254377
0.940624241
0.946668886
0.946531867
0.908662149
0.89794096
0.931948511
0.934936318
0.908077708
0.898268976
0.930910214
0.945523075
0.946542408
0.908505934
0.898541761
0.928524981
0.945702476
0.947629972
0.910777877
0.898857744
0.928442041
0.947141939
0.949357492
0.912255727
0.899345695
0.927639975
0.946089061
0.948992499
0.913794872
0.899518142
0.929926522
0.942948309
0.950074328
0.950144842
0.91763191
0.900079722
0.933439274
0.939522243
0.914830385
0.900691598
0.932200965
0.949188028
0.950529941
0.914922114
0.900314441
0.93395002
0.940416218
0.915116286
0.901152266
0.932864189
0.950353577
0.950928627
0.911565445
0.900843158
0.935237529
0.946630535
0.917566555
0.901679406
0.932659283
0.950637314
0.950710658
0.909887064
0.900967406
0.935453906
0.94713204
0.917072424
0.901562265
0.933578329
0.950643949
0.950564338
0.904584631
0.901569392
0.933529477
0.948799246
0.946104157
0.903230835
0.901444271
0.934165658
0.955418557
0.955334723
0.904391519
0.90219913
0.934625807
0.958288312
0.958013571
0.904465283
0.900937231
0.936490676
0.954121441
0.923265213
0.901348336
0.935598199
0.946503072
0.91851478
0.90100631
0.935154415
0.943054752
0.91454112
0.901906706
0.933759876
0.953714983
0.95333805
0.907132699
0.900542901
0.934342718
0.943083713
0.915487434
0.900064546
0.934567708
0.939731069
0.91179695
0.900537469
0.933469676
0.940969171
0.948171132
0.94204707
0.902277171
0.900720823
0.933563014
0.94828279
0.947681522
0.954780313
0.954619003
0.903601378
0.901009554
0.935311112
0.947211348
0.919695702
0.902123684
0.933086812
0.954500054
0.954137549
0.905264134
0.901326087
0.934735307
0.943295035
0.917185491
0.901006203
0.935492564
0.943312243
0.91579149
0.901332004
0.935793755
0.942210679
0.910080176
0.902541722
0.935345162
0.956501534
0.95632348
0.903740703
0.902968073
0.935445139
0.957591291
0.957276609
0.903510919
0.903297999
0.935871323
0.957806608
0.957266091
0.903604309
0.903741499
0.936245241
0.958698534
0.957406942
0.904680168
0.902846925
0.936567003
0.943803041
0.90409673
0.903642645
0.9373213
0.959391462
0.957697096
0.904990461
0.903441751
0.937101641
0.944060867
0.903676569
0.903877814
0.937750802
0.959470264
0.957753992
0.903999945
0.905311143
0.937540832
0.959461807
0.957218707
0.904220581
0.90448485
0.906458437
0.938313253
0.952219727
0.951639399
0.961492824
0.958911461
0.904973509
0.905109889
0.907806153
)
;

boundaryField
{
    closed
    {
        type            calculated;
        value           uniform 0.577663332;
    }
    open
    {
        type            calculated;
        value           nonuniform List<scalar> 0();
    }
    sides
    {
        type            empty;
    }
    procBoundary0to1
    {
        type            processor;
        value           uniform 0.938232431;
    }
}


// ************************************************************************* //
