/*--------------------------------*- C++ -*----------------------------------*\
| =========                 |                                                 |
| \\      /  F ield         | OpenFOAM: The Open Source CFD Toolbox           |
|  \\    /   O peration     | Version:  2306                                  |
|   \\  /    A nd           | Website:  www.openfoam.com                      |
|    \\/     M anipulation  |                                                 |
\*---------------------------------------------------------------------------*/
FoamFile
{
    version     2.0;
    format      ascii;
    arch        "LSB;label=32;scalar=64";
    class       volScalarField;
    location    "0.0009";
    object      prefDh_T;
}
// * * * * * * * * * * * * * * * * * * * * * * * * * * * * * * * * * * * * * //

dimensions      [1 1 -3 -1 0 0 0];

internalField   nonuniform List<scalar> 
530
(
-0.0007452765
-0.000594473013
-0.0005598659
-0.000562456006
-0.000520279217
-0.000520855888
-0.000748570942
-0.000749538063
-0.000580147175
-0.000551650388
-0.000751902413
-0.000748647709
-0.000582988022
-0.000548518579
-0.000754546657
-0.000746851725
-0.000588948244
-0.0005125891
-0.000521740771
-0.000748971678
-0.000749092423
-0.000745297703
-0.000589516665
-0.000552213866
-0.000559724349
-0.000506836596
-0.000512708572
-0.000749776076
-0.000747741632
-0.000745680432
-0.000592819323
-0.000519273237
-0.000525206842
-0.000751237654
-0.000746712407
-0.000591115585
-0.000504054715
-0.000525513289
-0.000750194866
-0.000747993232
-0.000746159764
-0.000592699616
-0.000525944198
-0.000535612827
-0.000752384084
-0.000745512519
-0.000587936393
-0.000544264223
-0.000560255709
-0.000507482514
-0.000519871632
-0.000749116553
-0.000747332608
-0.000744923047
-0.000591800642
-0.000528988768
-0.000542246166
-0.00075100441
-0.000745437241
-0.000589914547
-0.000530580952
-0.000544505673
-0.000751493514
-0.000744968968
-0.00058921741
-0.000531528863
-0.000546446171
-0.000750914133
-0.00074410071
-0.000590133939
-0.000527918521
-0.000551855469
-0.000748423694
-0.000742725521
-0.00060129782
-0.000556119806
-0.000551286191
-0.000516381212
-0.000531874794
-0.000748786298
-0.000740382302
-0.000546197703
-0.000572133144
-0.000750325383
-0.000745854412
-0.000744694322
-0.000597352233
-0.000503214527
-0.000530676095
-0.000748446956
-0.000742091013
-0.000579477619
-0.000470693132
-0.000514978794
-0.000747776358
-0.000745303879
-0.000746289705
-0.000741089119
-0.000600459467
-0.000516539578
-0.000502059867
-0.000519733331
-0.000749270057
-0.00073527693
-0.000518214279
-0.000535362573
-0.000749782489
-0.000735759832
-0.000537548113
-0.000543928237
-0.000750379758
-0.000736801599
-0.000576059221
-0.000490734682
-0.000542868396
-0.000746795814
-0.000744897804
-0.000738228239
-0.000598798526
-0.000517859463
-0.000559685845
-0.000745957386
-0.000738799041
-0.000588386907
-0.000499538912
-0.000548614951
-0.000745901897
-0.000737569572
-0.000547857676
-0.000549377523
-0.00074994301
-0.000734401656
-0.000561159149
-0.000477197057
-0.000535011491
-0.000742054151
-0.000734127373
-0.000530094417
-0.000542413062
-0.000746314096
-0.000730691876
-0.000520056847
-0.000545827066
-0.000747995317
-0.000730416477
-0.000517193954
-0.00054917858
-0.000748993512
-0.000730266631
-0.000524542833
-0.000559289438
-0.000750152071
-0.000730098034
-0.000541464317
-0.000567979081
-0.000751000453
-0.000735903611
-0.00057407638
-0.000502258372
-0.0005648033
-0.000747296566
-0.000748612027
-0.000737166154
-0.000595321826
-0.00053620068
-0.000553041442
-0.000501017419
-0.000553422599
-0.000744890895
-0.00073292472
-0.000539779227
-0.000568738877
-0.000748233795
-0.000730562823
-0.00054468873
-0.000580288069
-0.000749730689
-0.000730048098
-0.000550739109
-0.000577644262
-0.000749267285
-0.000735816336
-0.000559250216
-0.000476400581
-0.000573120518
-0.000746271164
-0.000743783678
-0.000747134685
-0.00073642486
-0.000591727824
-0.00052665177
-0.000546313949
-0.000499321087
-0.000559337219
-0.000746104396
-0.000736670354
-0.000541133267
-0.000477312014
-0.000562082288
-0.00074158644
-0.000733394248
-0.000532597222
-0.000563049325
-0.000747202169
-0.000732141146
-0.000503905607
-0.000579280129
-0.000744741268
-0.000745133516
-0.000735547676
-0.000538529206
-0.000550267962
-0.000748768806
-0.000735933791
-0.000524343842
-0.000599344738
-0.000747563729
-0.000597222328
-0.000555228685
-0.000752646001
-0.000740573395
-0.000594551632
-0.00054931066
-0.000550306068
-0.000598550618
-0.000753477838
-0.000740350681
-0.000593475888
-0.000518787118
-0.000592942594
-0.000746187516
-0.000741512414
-0.000565265087
-0.000588406683
-0.000750935346
-0.000742126925
-0.000582388804
-0.000511352835
-0.000582868196
-0.000748330442
-0.000745976856
-0.000576890069
-0.000491309083
-0.000567699784
-0.000745788675
-0.000749888791
-0.000741700596
-0.000595720832
-0.000486124328
-0.000592611595
-0.000741724468
-0.000544819904
-0.000538765486
-0.000750666818
-0.000738090367
-0.000747871227
-0.000735044949
-0.000533559242
-0.000498027252
-0.000538385725
-0.0004970951
-0.000559447406
-0.000743397895
-0.000746595545
-0.000742734284
-0.000599775373
-0.00051366053
-0.000589719787
-0.000746719381
-0.000745326213
-0.000575707908
-0.000489235162
-0.000564249556
-0.000745367555
-0.000748278419
-0.000745178215
-0.00055677601
-0.000480939641
-0.000560760913
-0.000746825229
-0.000744445941
-0.000539052293
-0.000556321482
-0.000750457181
-0.000742997352
-0.000561111014
-0.000496435493
-0.000570451067
-0.000745840999
-0.000744061542
-0.000563757509
-0.000581911347
-0.000750212487
-0.000737452952
-0.000596486223
-0.000500379995
-0.000575723166
-0.000731724881
-0.000742823365
-0.00073799316
-0.000528487917
-0.00047856992
-0.00051534521
-0.000556200363
-0.000748315716
-0.000740092041
-0.000546826293
-0.000570406656
-0.000751715131
-0.000741465082
-0.000553176909
-0.00057022246
-0.000753142369
-0.000744585683
-0.000567354264
-0.000484853969
-0.000569664375
-0.000748862191
-0.000751597947
-0.000748030017
-0.000578250109
-0.000579587863
-0.000752520519
-0.000744688895
-0.000592248831
-0.000548279983
-0.000543464611
-0.000575954573
-0.000754734246
-0.000744321893
-0.000591560446
-0.000499503608
-0.000590136697
-0.000745815682
-0.000596176046
-0.000549973541
-0.000750418555
-0.000745599285
-0.000547380084
-0.000599830523
-0.000750427792
-0.000591404111
-0.000528710682
-0.000751483491
-0.000745739272
-0.000583628298
-0.000500810952
-0.000559360467
-0.000745218441
-0.000747467226
-0.000574747033
-0.00046983968
-0.000558166765
-0.000748002608
-0.000747979554
-0.00074800005
-0.000554300974
-0.000539041065
-0.000750505906
-0.000741733489
-0.000539739047
-0.000542179712
-0.000752124741
-0.000743242232
-0.000554421697
-0.000485028657
-0.000549829521
-0.000745502846
-0.000747121324
-0.000549987868
-0.000556626495
-0.00074908117
-0.000744721189
-0.00058692773
-0.000519489738
-0.000571286283
-0.000746851271
-0.000747801776
-0.000598108108
-0.000522084037
-0.000572997403
-0.000747337494
-0.000747645846
-0.000597373047
-0.000522446219
-0.000573417803
-0.000750069563
-0.000745046564
-0.000586494671
-0.000509645341
-0.000591392192
-0.000746192655
-0.000586612876
-0.000531246637
-0.0007539284
-0.000745277175
-0.000590585309
-0.000511734866
-0.000566622105
-0.000748969508
-0.000749853407
-0.000589019048
-0.000529183322
-0.000563639388
-0.000751419591
-0.000748597574
-0.000592064529
-0.000527969668
-0.00056522322
-0.000749799098
-0.000750293874
-0.000592381734
-0.000526923558
-0.000562270079
-0.000750153265
-0.000750593949
-0.000593766716
-0.000523379401
-0.000555740363
-0.000750740557
-0.000749749831
-0.000594645964
-0.000510518217
-0.000550726051
-0.000749193254
-0.00075027913
-0.000557229061
-0.000542300508
-0.000752284829
-0.000746999675
-0.000587811872
-0.000506512231
-0.000545191187
-0.000747944277
-0.000750484626
-0.000554149119
-0.00053847994
-0.000751197175
-0.00074664661
-0.000585215054
-0.000505712441
-0.000544981214
-0.000747239678
-0.000749693499
-0.000554508753
-0.0005386661
-0.000750516416
-0.000745927921
-0.000585347992
-0.00050551427
-0.000545450196
-0.000746454776
-0.000749312986
-0.00055365227
-0.000537434117
-0.000749505118
-0.000745742261
-0.000582247718
-0.000502651226
-0.00054293039
-0.000746339112
-0.0007483097
-0.000549310365
-0.000530523999
-0.00074962496
-0.000744267383
-0.00057129047
-0.000488774559
-0.000531221673
-0.000743987166
-0.0007504961
-0.000532383442
-0.000530601862
-0.000747939595
-0.000747241879
-0.00053415571
-0.000538796916
-0.000750942353
-0.000745410288
-0.000539641666
-0.000534593691
-0.000751401595
-0.00074459809
-0.000566661975
-0.000492947773
-0.000536187035
-0.000744881002
-0.00075095726
-0.000543367553
-0.000543048488
-0.000748844733
-0.000747234369
-0.000560637125
-0.000565741716
-0.00075032281
-0.000744823597
-0.000585465461
-0.000563424788
-0.00053289855
-0.000577700313
-0.000752293552
-0.000581220749
-0.000509487311
-0.000746806903
-0.000748034193
-0.000534068123
-0.000531496031
-0.000748519477
-0.000747513102
-0.000503256917
-0.000561348198
-0.000749302356
-0.000746454665
-0.000748629315
-0.000594273489
-0.000459242662
-0.000569645878
-0.000748606037
-0.000544878764
-0.000529402755
-0.000751077631
-0.000744059113
-0.000751621677
-0.000589248805
-0.000500831843
-0.000546601396
-0.000747150115
-0.000748939836
-0.000582628906
-0.000513012486
)
;

boundaryField
{
    closed
    {
        type            calculated;
        value           nonuniform List<scalar> 0();
    }
    open
    {
        type            calculated;
        value           nonuniform List<scalar> 0();
    }
    sides
    {
        type            empty;
    }
    procBoundary2to1
    {
        type            processor;
        value           uniform -0.000748444946;
    }
    procBoundary2to3
    {
        type            processor;
        value           uniform -0.000547416813;
    }
}


// ************************************************************************* //
