/*--------------------------------*- C++ -*----------------------------------*\
| =========                 |                                                 |
| \\      /  F ield         | OpenFOAM: The Open Source CFD Toolbox           |
|  \\    /   O peration     | Version:  2306                                  |
|   \\  /    A nd           | Website:  www.openfoam.com                      |
|    \\/     M anipulation  |                                                 |
\*---------------------------------------------------------------------------*/
FoamFile
{
    version     2.0;
    format      ascii;
    arch        "LSB;label=32;scalar=64";
    class       volScalarField;
    location    "0.00166";
    object      prefDh_H2;
}
// * * * * * * * * * * * * * * * * * * * * * * * * * * * * * * * * * * * * * //

dimensions      [1 1 -3 0 0 0 0];

internalField   nonuniform List<scalar> 
531
(
38.526705
38.2547853
24.8626345
25.2159369
38.4578111
38.2161274
38.290864
29.0607046
21.9444644
22.2053404
38.2834572
38.2448372
29.1047464
21.2953076
24.4151562
38.2298378
27.1364372
21.2735216
38.0224639
38.0588531
37.9585055
38.1635881
37.8546694
28.8963131
21.8515674
24.8018329
20.342551
20.5387851
37.8257647
38.059876
24.9965011
25.0849643
38.1709279
38.0312908
38.1023516
29.1763618
24.8817947
23.1014454
22.9832525
38.0487599
38.2012967
24.151601
23.2305355
38.0549453
38.2297956
23.7576002
23.0901664
38.1144629
38.2613153
21.7983464
21.8288822
38.3525532
38.3636232
38.2860836
38.4496361
26.4629082
24.3984624
38.3922377
38.31619
25.3334761
25.7569311
38.6081372
28.5830196
22.8741204
38.4303559
38.2877406
38.308481
29.0310651
23.7291246
23.6388066
22.0615538
38.3493359
38.0941977
26.3546252
19.0427049
19.882558
37.9365697
38.2151967
24.0560725
22.0761997
38.1771512
38.0994485
22.2558853
22.5933266
38.3547859
38.2056099
38.2886318
25.2173536
21.587376
38.6801008
38.1004241
38.6867429
38.1753472
28.7486037
25.7191423
24.8177075
23.7997922
38.6066391
38.2716203
29.0586877
21.5824699
25.9650396
38.2751749
29.1228007
22.505723
38.4777
38.1280546
25.0294132
25.5950568
38.4419438
38.1381484
38.3306223
29.3680066
22.5413662
22.5410411
22.1813102
38.3520142
38.1220031
24.3167328
25.0138644
38.5559383
27.8192599
22.6101126
38.5839977
38.3311423
38.6872293
26.5472848
23.6915259
38.6180705
38.5275416
38.6474849
28.8040253
23.201984
38.7127383
38.421489
28.9934507
25.5819166
24.4006681
25.146931
38.6171014
29.0050278
22.1348504
38.5925037
38.2596686
29.3567576
22.2760521
24.3327454
38.340144
26.4811082
22.9930215
38.6113731
38.0796993
38.6266222
26.0321306
22.8006762
38.3055134
38.3090358
38.3378541
38.3164682
38.2493946
28.0419809
21.0530265
25.0777865
19.6921615
23.3004025
38.0201755
27.3050878
20.6544893
38.5292076
38.0068064
26.6788524
23.6856607
38.6560114
37.9974104
28.7439629
22.3010255
24.9996328
38.1451503
38.4452322
38.2332855
29.2469143
23.3898588
23.5610446
38.2563344
38.2782018
28.6719954
21.1233401
22.1835287
38.0782707
38.2607189
38.121047
38.2520833
25.285933
21.4482969
22.1010899
21.8628159
38.1563756
38.1921747
25.2970748
24.5867446
38.3227287
38.2980438
25.6925934
25.4129427
38.5110022
38.34122
24.4083118
24.8133895
38.6651335
38.2693144
38.6465112
38.2350728
29.2272095
26.3603488
27.062098
24.6705668
24.9559353
21.3774204
22.0613197
38.3347506
38.1285603
38.3993513
23.4798967
22.2990257
38.3341709
38.2954132
38.4457819
27.5521979
21.6344183
38.3627692
38.3420676
27.727049
21.565552
23.0744929
38.3077558
38.5639181
26.4370306
23.1096525
38.4631135
38.5004021
29.1352843
23.7122646
24.3078751
38.4549375
38.5259332
29.0847765
22.2817018
24.483164
38.3221728
38.6763289
24.876397
26.6023042
38.5855667
28.8316208
22.069563
38.6286177
38.5271013
26.0672549
24.1368291
38.6891463
38.3082439
26.7637979
25.8769927
38.6314828
38.2378565
27.9151031
25.9940885
23.8493282
24.5826413
38.6984744
38.3010584
38.7092506
29.1147901
22.9238984
38.4431135
38.3894149
25.4739396
23.7894309
38.5758411
38.3301923
23.7515954
23.6278662
38.5807665
38.3380169
23.0131551
24.1254294
38.619721
38.2800787
38.5539652
26.9453151
22.8070611
21.9173773
22.4003753
38.5499553
38.1445212
38.5953565
27.7267868
18.7525648
24.1417642
38.4369278
38.2736296
38.5275004
26.8005849
26.2296521
38.399918
29.0181094
23.5593047
38.5200152
38.4306188
27.241549
25.4474622
38.4358315
38.1776644
28.4472494
25.9385333
23.5936292
23.9776743
37.6562484
37.9088656
38.0158503
20.8483831
19.2488848
38.1115271
24.4659684
18.9512675
38.3500397
38.0900418
38.5738982
38.1638672
28.9352721
22.0476893
23.8561996
38.0601928
38.5331369
26.62091
22.7500933
22.9683877
38.2171874
38.2810331
27.4586221
20.3663932
24.6587824
38.1974173
38.3123469
38.2544057
27.3978332
22.6246084
38.3661516
38.146446
28.097444
20.6236736
24.4564785
38.2112155
38.4801751
38.3249289
26.5637823
22.9274463
38.4842298
38.3058075
27.8002583
23.5074195
24.015345
38.2940858
38.628011
28.3196897
23.3581687
24.2226088
38.4594101
38.502738
27.8628276
22.5439936
24.0701444
38.3581148
38.5114406
26.2839019
24.3782862
38.4106424
38.2845402
26.1924158
24.2022363
21.9404725
22.5189662
38.5154264
38.3536075
38.4763568
38.4195387
38.4249832
29.1546642
21.3296081
24.0572465
38.3055246
38.548755
24.8380266
23.1960801
38.5454875
38.3684638
26.1599812
23.6219668
38.6175296
38.3021251
28.0203449
23.2105512
24.2554216
38.3412415
38.5136645
26.8470162
23.5136598
38.4986561
38.341564
27.8614184
22.593196
23.6615446
38.3645199
38.6119173
26.2510332
38.5407159
38.4785988
26.3292893
24.7084587
24.4967682
38.4562143
38.4275735
27.7821434
23.3141991
23.5725691
38.2718497
38.4775629
26.3489818
18.9830942
23.1799872
38.4840574
38.3178302
38.5257842
24.2562569
23.9082852
38.5521446
38.4223688
38.5808058
28.8754862
18.7394406
24.930322
38.5451636
38.6302428
38.5319299
28.7990382
24.4686993
38.7692363
38.2651054
28.875877
26.0414979
25.6320856
24.976557
38.7514691
38.3419393
26.09614
25.323341
38.6243111
38.2624637
27.2026645
25.2488007
23.8762617
23.7046123
38.5781178
38.2662108
22.7384841
23.0578942
38.571716
38.2669846
22.2250738
23.4693352
38.5967087
38.2792855
38.5073761
26.1362388
22.3719008
38.4702188
38.0498282
25.7696664
22.4098268
38.3911685
37.8481818
26.0282879
18.1267991
21.8983015
37.9149191
38.1658053
37.9393472
38.1358073
37.9082095
20.052451
21.0836383
38.3208888
23.7532739
22.1139422
38.080752
38.1847572
38.1272201
29.1209272
22.2735452
25.6297948
20.858422
22.0224315
38.2121394
38.1628413
22.4359716
23.5205501
38.4885944
38.0802053
38.49933
26.8552733
23.67957
38.3414879
38.2360872
25.0962426
26.1139722
38.516195
38.2241935
38.4433016
29.1119449
23.8363696
25.6027199
22.205947
38.5196921
38.1120644
24.3538227
17.7672945
22.2925864
38.0201928
38.6520373
37.987813
27.2740348
)
;

boundaryField
{
    closed
    {
        type            calculated;
        value           nonuniform List<scalar> 0();
    }
    open
    {
        type            calculated;
        value           nonuniform List<scalar> 0();
    }
    sides
    {
        type            empty;
    }
    procBoundary1to0
    {
        type            processor;
        value           uniform 21.5136951;
    }
    procBoundary1to2
    {
        type            processor;
        value           uniform 20.2282628;
    }
}


// ************************************************************************* //
