/*--------------------------------*- C++ -*----------------------------------*\
| =========                 |                                                 |
| \\      /  F ield         | OpenFOAM: The Open Source CFD Toolbox           |
|  \\    /   O peration     | Version:  2306                                  |
|   \\  /    A nd           | Website:  www.openfoam.com                      |
|    \\/     M anipulation  |                                                 |
\*---------------------------------------------------------------------------*/
FoamFile
{
    version     2.0;
    format      ascii;
    arch        "LSB;label=32;scalar=64";
    class       volScalarField;
    location    "0.00166";
    object      prefDZ_H2;
}
// * * * * * * * * * * * * * * * * * * * * * * * * * * * * * * * * * * * * * //

dimensions      [1 -1 -1 0 0 0 0];

internalField   nonuniform List<scalar> 
531
(
6.35872428e-05
6.35519535e-05
6.17503908e-05
6.17938889e-05
6.35757159e-05
6.35497725e-05
6.35551695e-05
6.2325276e-05
6.13606696e-05
6.13962168e-05
6.35560092e-05
6.35504077e-05
6.23311017e-05
6.12737699e-05
6.16864837e-05
6.354544e-05
6.20460516e-05
6.12708688e-05
6.35161398e-05
6.35260814e-05
6.35084074e-05
6.3541655e-05
6.34968033e-05
6.22828102e-05
6.13412462e-05
6.17390646e-05
6.11431452e-05
6.11745612e-05
6.3492606e-05
6.35257337e-05
6.1762437e-05
6.177419e-05
6.35385474e-05
6.35251375e-05
6.35308207e-05
6.23450779e-05
6.17478951e-05
6.15120658e-05
6.14981717e-05
6.35214563e-05
6.35447625e-05
6.16510682e-05
6.15313371e-05
6.35227247e-05
6.35487138e-05
6.15991584e-05
6.15132747e-05
6.35300668e-05
6.35526781e-05
6.1341587e-05
6.13472354e-05
6.35613911e-05
6.3566024e-05
6.35548387e-05
6.35779632e-05
6.19601257e-05
6.1687326e-05
6.35695041e-05
6.35613197e-05
6.18124547e-05
6.18661552e-05
6.35979522e-05
6.22420797e-05
6.14854153e-05
6.35741835e-05
6.35585621e-05
6.35582933e-05
6.23199016e-05
6.15954495e-05
6.15867166e-05
6.13749827e-05
6.35633964e-05
6.35291639e-05
6.19464669e-05
6.09743965e-05
6.10896253e-05
6.35075308e-05
6.3545341e-05
6.16389584e-05
6.13777655e-05
6.35393953e-05
6.35308899e-05
6.14027793e-05
6.14461735e-05
6.35622259e-05
6.35458844e-05
6.35541055e-05
6.1797632e-05
6.13128138e-05
6.36076967e-05
6.35312183e-05
6.36109498e-05
6.35423309e-05
6.22919451e-05
6.18597101e-05
6.1745527e-05
6.16066803e-05
6.35995271e-05
6.35541695e-05
6.23129866e-05
6.13116074e-05
6.18974831e-05
6.35525568e-05
6.2320906e-05
6.14341176e-05
6.35823205e-05
6.35354997e-05
6.17721516e-05
6.18430261e-05
6.35748435e-05
6.35391463e-05
6.35604334e-05
6.23457351e-05
6.14381065e-05
6.1441085e-05
6.13912991e-05
6.35629159e-05
6.3534424e-05
6.16776406e-05
6.17664407e-05
6.35911078e-05
6.2140843e-05
6.14507117e-05
6.35949787e-05
6.35630421e-05
6.36089885e-05
6.19738014e-05
6.1596014e-05
6.3599043e-05
6.35904329e-05
6.3603216e-05
6.22759288e-05
6.15296021e-05
6.36153856e-05
6.35753768e-05
6.23031237e-05
6.18433601e-05
6.1690846e-05
6.17873563e-05
6.35992077e-05
6.23101107e-05
6.13877431e-05
6.35986719e-05
6.35525289e-05
6.23878364e-05
6.1405712e-05
6.16812493e-05
6.35619309e-05
6.19662341e-05
6.14989607e-05
6.35983014e-05
6.35293795e-05
6.36006111e-05
6.19021266e-05
6.1476711e-05
6.35566276e-05
6.35601221e-05
6.35608856e-05
6.35622997e-05
6.35497588e-05
6.21715689e-05
6.12396617e-05
6.1778965e-05
6.10599197e-05
6.15441348e-05
6.35178227e-05
6.20757394e-05
6.11875154e-05
6.35898209e-05
6.35186675e-05
6.1993869e-05
6.15879675e-05
6.3607697e-05
6.35177569e-05
6.22848458e-05
6.14053035e-05
6.17701406e-05
6.35360219e-05
6.357967e-05
6.35489466e-05
6.23691643e-05
6.155294e-05
6.15761561e-05
6.35534751e-05
6.35548632e-05
6.22533737e-05
6.12504851e-05
6.13937751e-05
6.35269202e-05
6.35514687e-05
6.35339351e-05
6.35501851e-05
6.1803436e-05
6.12941563e-05
6.13815712e-05
6.13497155e-05
6.35376899e-05
6.35435901e-05
6.18058207e-05
6.1710837e-05
6.35611512e-05
6.35588741e-05
6.18601577e-05
6.18212843e-05
6.35860622e-05
6.35647634e-05
6.16923586e-05
6.17419432e-05
6.36065764e-05
6.35552908e-05
6.36058432e-05
6.3551208e-05
6.23679893e-05
6.19460469e-05
6.20396317e-05
6.17219922e-05
6.17591347e-05
6.12866789e-05
6.13758467e-05
6.35609097e-05
6.35347832e-05
6.35701119e-05
6.1565256e-05
6.14093856e-05
6.35608067e-05
6.35585136e-05
6.35760053e-05
6.21065672e-05
6.13208218e-05
6.35686395e-05
6.3562764e-05
6.21315303e-05
6.13106638e-05
6.15152175e-05
6.35591645e-05
6.35930439e-05
6.19593936e-05
6.15176716e-05
6.35820851e-05
6.35849403e-05
6.2319273e-05
6.15963199e-05
6.16782883e-05
6.35804405e-05
6.35881156e-05
6.23128359e-05
6.14062254e-05
6.17028228e-05
6.35605843e-05
6.36097692e-05
6.17518546e-05
6.19828382e-05
6.35955113e-05
6.22915749e-05
6.13808134e-05
6.36040123e-05
6.35886228e-05
6.19138461e-05
6.16526889e-05
6.36110252e-05
6.35602489e-05
6.20060424e-05
6.18814355e-05
6.36041448e-05
6.35515315e-05
6.21584744e-05
6.1895861e-05
6.16186497e-05
6.17103898e-05
6.36102264e-05
6.3560455e-05
6.36118102e-05
6.23141608e-05
6.14931363e-05
6.35789241e-05
6.35702215e-05
6.18333596e-05
6.16063558e-05
6.35948241e-05
6.35624297e-05
6.16057878e-05
6.15852471e-05
6.3594704e-05
6.35636171e-05
6.15077707e-05
6.1650801e-05
6.35998818e-05
6.3556944e-05
6.35913138e-05
6.20259412e-05
6.14760081e-05
6.13606562e-05
6.14215981e-05
6.35891962e-05
6.35384598e-05
6.35947663e-05
6.21273919e-05
6.09406423e-05
6.16529768e-05
6.35744961e-05
6.35558444e-05
6.35883616e-05
6.20057272e-05
6.19314999e-05
6.35719143e-05
6.23367864e-05
6.15779724e-05
6.3589918e-05
6.35761843e-05
6.20674483e-05
6.18246647e-05
6.35786351e-05
6.35432525e-05
6.22238404e-05
6.18864388e-05
6.1576186e-05
6.16273835e-05
6.34674109e-05
6.35055391e-05
6.35127281e-05
6.12161047e-05
6.10007314e-05
6.35303891e-05
6.16940976e-05
6.09642818e-05
6.35662439e-05
6.35278271e-05
6.35976604e-05
6.3538352e-05
6.22987115e-05
6.13722236e-05
6.16193482e-05
6.35265444e-05
6.35889683e-05
6.19800341e-05
6.14683542e-05
6.14971412e-05
6.35481483e-05
6.35545002e-05
6.20925281e-05
6.11510306e-05
6.17221649e-05
6.35426406e-05
6.35614619e-05
6.35510216e-05
6.20855287e-05
6.14496147e-05
6.35697054e-05
6.35364355e-05
6.21799419e-05
6.11843079e-05
6.16977309e-05
6.35447173e-05
6.35835438e-05
6.35606383e-05
6.19765968e-05
6.14912579e-05
6.35851801e-05
6.3558625e-05
6.21415257e-05
6.15674525e-05
6.16401505e-05
6.35589951e-05
6.36017608e-05
6.22080644e-05
6.15503949e-05
6.16658277e-05
6.35809668e-05
6.35849814e-05
6.21490049e-05
6.14412243e-05
6.16466817e-05
6.35664522e-05
6.35867266e-05
6.19378706e-05
6.16844726e-05
6.35747509e-05
6.35566477e-05
6.19265642e-05
6.16595524e-05
6.13634744e-05
6.14382661e-05
6.35853046e-05
6.35660915e-05
6.35796973e-05
6.35765259e-05
6.35728776e-05
6.23210381e-05
6.12792852e-05
6.16454836e-05
6.35586098e-05
6.35914258e-05
6.1746821e-05
6.15289095e-05
6.35921829e-05
6.35672863e-05
6.1924459e-05
6.15834373e-05
6.3603114e-05
6.3558182e-05
6.21713102e-05
6.15281659e-05
6.16715838e-05
6.35646409e-05
6.35867896e-05
6.20131924e-05
6.15699536e-05
6.35874639e-05
6.35632156e-05
6.21495448e-05
6.1446952e-05
6.15933116e-05
6.35674541e-05
6.36000335e-05
6.19344492e-05
6.35911547e-05
6.35832341e-05
6.19451493e-05
6.17288634e-05
6.17018894e-05
6.35809687e-05
6.35751756e-05
6.21377714e-05
6.15423808e-05
6.15800454e-05
6.3555459e-05
6.3580312e-05
6.19456701e-05
6.09709257e-05
6.15266435e-05
6.35807085e-05
6.35606942e-05
6.35871847e-05
6.16692028e-05
6.16235021e-05
6.35909189e-05
6.35769322e-05
6.35934356e-05
6.22996064e-05
6.09395441e-05
6.17621398e-05
6.35888164e-05
6.36045167e-05
6.35881036e-05
6.22754128e-05
6.16957405e-05
6.36247622e-05
6.35544583e-05
6.22910243e-05
6.19029262e-05
6.18555487e-05
6.17633332e-05
6.36198446e-05
6.35646681e-05
6.19163214e-05
6.18087355e-05
6.36036602e-05
6.35541406e-05
6.20618708e-05
6.17977416e-05
6.16203777e-05
6.15944332e-05
6.35951316e-05
6.35535216e-05
6.14701805e-05
6.15090437e-05
6.35939205e-05
6.35535909e-05
6.14022586e-05
6.15638005e-05
6.35968062e-05
6.35562928e-05
6.35847118e-05
6.19183518e-05
6.14175141e-05
6.35827235e-05
6.35239331e-05
6.18708995e-05
6.14189105e-05
6.35722777e-05
6.34957067e-05
6.19035752e-05
6.08523417e-05
6.13562545e-05
6.35040172e-05
6.35387628e-05
6.35073519e-05
6.35344338e-05
6.35037357e-05
6.11115484e-05
6.12444398e-05
6.35596125e-05
6.15975735e-05
6.13839742e-05
6.35289609e-05
6.35447119e-05
6.35345458e-05
6.23315019e-05
6.1402766e-05
6.18493592e-05
6.12165348e-05
6.13718017e-05
6.35455e-05
6.3539341e-05
6.14276418e-05
6.15685919e-05
6.35827076e-05
6.35299279e-05
6.35842079e-05
6.20111503e-05
6.15915e-05
6.35653925e-05
6.35503323e-05
6.1780681e-05
6.191279e-05
6.35875327e-05
6.35511532e-05
6.3577464e-05
6.23255007e-05
6.16114698e-05
6.18483016e-05
6.13953226e-05
6.35885776e-05
6.35310079e-05
6.16847426e-05
6.08070994e-05
6.14126669e-05
6.35179654e-05
6.36062154e-05
6.35139636e-05
6.20745945e-05
)
;

boundaryField
{
    closed
    {
        type            calculated;
        value           nonuniform List<scalar> 0();
    }
    open
    {
        type            calculated;
        value           nonuniform List<scalar> 0();
    }
    sides
    {
        type            empty;
    }
    procBoundary1to0
    {
        type            processor;
        value           uniform 6.13051733e-05;
    }
    procBoundary1to2
    {
        type            processor;
        value           uniform 6.11295732e-05;
    }
}


// ************************************************************************* //
