/*--------------------------------*- C++ -*----------------------------------*\
| =========                 |                                                 |
| \\      /  F ield         | OpenFOAM: The Open Source CFD Toolbox           |
|  \\    /   O peration     | Version:  2306                                  |
|   \\  /    A nd           | Website:  www.openfoam.com                      |
|    \\/     M anipulation  |                                                 |
\*---------------------------------------------------------------------------*/
FoamFile
{
    version     2.0;
    format      ascii;
    arch        "LSB;label=32;scalar=64";
    class       volScalarField;
    location    "0.00166";
    object      Z;
}
// * * * * * * * * * * * * * * * * * * * * * * * * * * * * * * * * * * * * * //

dimensions      [0 0 0 0 0 0 0];

internalField   nonuniform List<scalar> 
531
(
0.0140786661
0.0140802684
0.014790847
0.0147885288
0.0140869403
0.01407172
0.0140845421
0.014591902
0.0148564433
0.0148495919
0.0140790698
0.01408111
0.0145879461
0.0148711748
0.0148072744
0.0140904122
0.0147518039
0.0148716462
0.014098906
0.0140828042
0.0140975978
0.0140760628
0.0140925691
0.0147089682
0.0148685544
0.0147971392
0.0148969156
0.0148853621
0.014094109
0.0140842753
0.014796761
0.0147948639
0.0140884874
0.0140748125
0.0140853233
0.0145521275
0.0147981577
0.0148351812
0.0148350326
0.014092993
0.0140813525
0.0148135219
0.0148292826
0.0140915415
0.0140804061
0.0148212947
0.0148314146
0.0140923329
0.014080607
0.014859076
0.0148561201
0.0140895869
0.0140797913
0.0140836867
0.0140769029
0.0147607519
0.0148029875
0.0140803374
0.0140756024
0.0147814391
0.0147762701
0.0140777586
0.0147143329
0.0148347874
0.0140809302
0.0140728742
0.0140818776
0.0146043333
0.0148217924
0.0148188323
0.0148557519
0.014082243
0.0140872034
0.0147619506
0.0149187828
0.0148961153
0.01409176
0.0140850231
0.0148146913
0.0148542277
0.014088327
0.0140839737
0.0148487364
0.0148436413
0.0140879239
0.0140795975
0.0140869131
0.0147830101
0.0148646332
0.0140761028
0.0140833482
0.0140687172
0.0140786234
0.0145676674
0.0147792927
0.0147901137
0.0148175199
0.0140723403
0.0140800729
0.0146753841
0.0148655324
0.0147660258
0.0140863933
0.0146735103
0.0148461191
0.0140745398
0.0140810431
0.0147878594
0.0147822695
0.0140834342
0.0140737489
0.0140839861
0.014698287
0.0148464507
0.014842029
0.0148526162
0.0140847528
0.0140819731
0.0148029591
0.0147937965
0.0140782775
0.0147305493
0.0148398885
0.0140774126
0.0140761886
0.01407494
0.0147550398
0.0148142408
0.0140783063
0.0140691731
0.0140770492
0.0147022107
0.0148268266
0.0140652825
0.0140737815
0.0146901881
0.0147793355
0.0147980069
0.0147859537
0.0140774249
0.0146504156
0.014849795
0.0140693979
0.0140804188
0.0144329732
0.0148479356
0.0148003508
0.0140831305
0.0147545381
0.014835576
0.0140779558
0.0140808531
0.0140768566
0.0147712538
0.014834799
0.0140858038
0.0140764752
0.0140854242
0.0140726788
0.0140848794
0.0147238842
0.0148790185
0.0147862178
0.0149061985
0.0148225299
0.0140929396
0.0147365808
0.0148863031
0.0140717269
0.0140851455
0.0147480781
0.0148252647
0.0140666134
0.0140842534
0.014610377
0.0148528284
0.0147854949
0.0140861443
0.0140698927
0.0140810616
0.014460912
0.0148252222
0.014820845
0.0140761891
0.0140805263
0.014713252
0.0148754396
0.0148493912
0.0140878401
0.0140840778
0.0140831002
0.014084627
0.0147866411
0.0148678432
0.0148529731
0.0148583351
0.0140854309
0.0140813716
0.0147850062
0.0148012298
0.0140786985
0.0140759884
0.0147736904
0.0147824007
0.014076131
0.0140748534
0.0147970785
0.0147948354
0.0140736711
0.0140757077
0.0140685902
0.0140747897
0.0144553416
0.0147636786
0.0147479481
0.0147993998
0.014794444
0.0148665721
0.0148544602
0.0140841428
0.0140834448
0.0140812599
0.0148227636
0.0148465351
0.0140842308
0.0140760628
0.014081389
0.0147344169
0.0148611023
0.0140713852
0.0140813356
0.0147278321
0.0148640207
0.0148257442
0.0140789207
0.0140754731
0.0147570505
0.0148283054
0.0140694974
0.0140754128
0.0146959813
0.0148174904
0.0148003622
0.0140713534
0.0140756891
0.0146967197
0.0148481617
0.014794661
0.0140802212
0.0140682475
0.0147911115
0.0147511101
0.0140763965
0.0146355515
0.0148486385
0.0140671694
0.0140745894
0.0147594221
0.0148084271
0.014069434
0.0140757712
0.0147448144
0.0147747234
0.0140678951
0.0140748907
0.0147205684
0.0147739581
0.0148083027
0.0148011687
0.0140755528
0.0140722862
0.014074924
0.0147004254
0.0148320763
0.0140713653
0.0140770282
0.0147749092
0.0148161594
0.0140746892
0.0140777014
0.0148102258
0.0148190911
0.0140769887
0.0140771262
0.0148260112
0.0148092379
0.0140763881
0.0140748522
0.0140768751
0.0147475838
0.0148369592
0.0148518056
0.0148462053
0.0140817739
0.014078406
0.0140824836
0.014734421
0.0149184272
0.0148088784
0.0140825397
0.0140757022
0.0140755491
0.0147522818
0.0147620829
0.0140759518
0.0144903206
0.0148178035
0.0140677822
0.0140748931
0.0147377218
0.0147835202
0.0140693714
0.0140766903
0.0147176098
0.0147783152
0.0148265654
0.0148181071
0.0141048644
0.0140870248
0.0141065825
0.0148782219
0.0149158878
0.0140902168
0.0148048771
0.0149179678
0.0140737634
0.0140896604
0.0140651468
0.0140863331
0.014672085
0.0148573717
0.0148084808
0.014081906
0.0140758997
0.0147590397
0.0148383034
0.0148339527
0.0140771802
0.0140827481
0.0147390151
0.0148898847
0.0147969969
0.01408633
0.014073642
0.0140829775
0.0147386156
0.0148440217
0.0140694167
0.0140853863
0.0147210565
0.0148857135
0.0147976146
0.0140853739
0.0140717412
0.0140811357
0.0147537273
0.0148354854
0.014068276
0.0140798129
0.0147258047
0.0148243569
0.0148055658
0.0140740482
0.0140738783
0.0147184902
0.0148234109
0.0148039314
0.0140714956
0.0140762047
0.0147257864
0.0148423378
0.0148055261
0.0140763097
0.0140742607
0.0147622241
0.0148036847
0.014071425
0.01407753
0.0147628714
0.0148097878
0.014851677
0.0148423333
0.0140801816
0.0140756444
0.0140820491
0.0140694481
0.0140828189
0.0146969694
0.0148690799
0.0148050181
0.0140797486
0.0140744862
0.0147918405
0.0148268161
0.0140708636
0.0140778159
0.0147601033
0.0148207574
0.0140655523
0.0140797275
0.0147201296
0.014830477
0.0148010899
0.0140752402
0.0140749421
0.0147492222
0.0148217221
0.014066914
0.0140797546
0.0147246445
0.0148424763
0.0148129468
0.0140757459
0.0140728599
0.0147614489
0.014072154
0.0140720754
0.0147592757
0.0147957757
0.0147985756
0.0140702227
0.0140767993
0.0147283692
0.0148275988
0.0148170496
0.0140761899
0.0140806449
0.0147621464
0.01491403
0.0148273525
0.0140819675
0.0140781776
0.0140784838
0.0148048752
0.0148115583
0.0140773716
0.0140693104
0.0140808747
0.0146163907
0.014917831
0.014785123
0.0140810655
0.0140662494
0.0140780767
0.0147020798
0.0148028732
0.0140586011
0.014076617
0.0146762935
0.0147717447
0.0147696351
0.014791764
0.0140668239
0.0140754316
0.0147609463
0.0147853274
0.0140665518
0.0140765548
0.0147392256
0.0147886113
0.0148105346
0.0148189621
0.0140746392
0.0140799384
0.0148335598
0.0148320213
0.0140758431
0.0140800294
0.014844153
0.0148230683
0.0140767943
0.0140765516
0.0140788483
0.0147652633
0.0148472531
0.0140703372
0.0140858595
0.014771239
0.0148517478
0.0140713691
0.0140933857
0.0147682785
0.0149383836
0.0148549348
0.014094036
0.014085835
0.0140933841
0.0140873476
0.0140922848
0.01489342
0.0148773692
0.0140826941
0.0148228947
0.0148516872
0.0140825576
0.0140749785
0.0140836477
0.0145981613
0.0148517972
0.014778864
0.0148792871
0.0148536599
0.0140833416
0.014082905
0.0148435165
0.0148249788
0.0140776316
0.0140793593
0.0140772406
0.0147540082
0.0148189077
0.0140730125
0.0140778991
0.0147869564
0.0147698155
0.0140736508
0.0140706327
0.0140759472
0.0146319645
0.014816841
0.0147755023
0.0148510003
0.0140718071
0.0140885426
0.0147988341
0.0149425931
0.0148405774
0.0140925131
0.0140696253
0.0140921047
0.0147324704
)
;

boundaryField
{
    closed
    {
        type            zeroGradient;
    }
    open
    {
        type            zeroGradient;
    }
    sides
    {
        type            empty;
    }
    procBoundary1to0
    {
        type            processor;
        value           uniform 0.0148631109;
    }
    procBoundary1to2
    {
        type            processor;
        value           uniform 0.0148970965;
    }
}


// ************************************************************************* //
