/*--------------------------------*- C++ -*----------------------------------*\
| =========                 |                                                 |
| \\      /  F ield         | OpenFOAM: The Open Source CFD Toolbox           |
|  \\    /   O peration     | Version:  2306                                  |
|   \\  /    A nd           | Website:  www.openfoam.com                      |
|    \\/     M anipulation  |                                                 |
\*---------------------------------------------------------------------------*/
FoamFile
{
    version     2.0;
    format      ascii;
    arch        "LSB;label=32;scalar=64";
    class       volScalarField;
    location    "0.0016";
    object      alpha;
}
// * * * * * * * * * * * * * * * * * * * * * * * * * * * * * * * * * * * * * //

dimensions      [1 -1 -1 0 0 0 0];

internalField   nonuniform List<scalar> 
530
(
3.49605712e-05
3.67684116e-05
3.67746816e-05
3.67742731e-05
3.67749652e-05
3.5748055e-05
3.45660946e-05
3.45993263e-05
3.6747822e-05
3.68072304e-05
3.54178385e-05
3.50771794e-05
3.67588745e-05
3.68068027e-05
3.53702922e-05
3.52852183e-05
3.67790569e-05
3.67993579e-05
3.67787172e-05
3.57648586e-05
3.53553139e-05
3.50334939e-05
3.50354288e-05
3.67743624e-05
3.67807167e-05
3.67768443e-05
3.67795295e-05
3.57700575e-05
3.49028957e-05
3.49193935e-05
3.67643681e-05
3.68129729e-05
3.55269211e-05
3.53188871e-05
3.67873575e-05
3.68067308e-05
3.67894994e-05
3.57421385e-05
3.52449878e-05
3.484342e-05
3.48408344e-05
3.67959065e-05
3.67881618e-05
3.67931531e-05
3.56129107e-05
3.50746276e-05
3.67772437e-05
3.68022338e-05
3.67737778e-05
3.68069558e-05
3.57981057e-05
3.54033379e-05
3.51546009e-05
3.5149718e-05
3.6795725e-05
3.67946928e-05
3.57506437e-05
3.50428466e-05
3.50543279e-05
3.67831735e-05
3.67994911e-05
3.57647978e-05
3.5038273e-05
3.50502316e-05
3.67789233e-05
3.68115526e-05
3.67819417e-05
3.57368715e-05
3.51287937e-05
3.5135135e-05
3.67774422e-05
3.68253988e-05
3.56644132e-05
3.5478955e-05
3.67945283e-05
3.68133524e-05
3.67964814e-05
3.57739461e-05
3.54835956e-05
3.51900331e-05
3.51862823e-05
3.68092485e-05
3.68010402e-05
3.57253797e-05
3.49184065e-05
3.4933765e-05
3.67779408e-05
3.68322391e-05
3.55623594e-05
3.53548966e-05
3.67919332e-05
3.68270523e-05
3.67909233e-05
3.57520478e-05
3.53381115e-05
3.54161322e-05
3.50231252e-05
3.50345537e-05
3.67909971e-05
3.68058878e-05
3.68069882e-05
3.56842403e-05
3.54141019e-05
3.68078337e-05
3.68087006e-05
3.68128333e-05
3.57409095e-05
3.54655181e-05
3.67977904e-05
3.57231419e-05
3.50865677e-05
3.68076573e-05
3.68007551e-05
3.68062752e-05
3.57534432e-05
3.52672596e-05
3.49815164e-05
3.49837573e-05
3.67980999e-05
3.68000238e-05
3.68000891e-05
3.57482874e-05
3.51979288e-05
3.67932361e-05
3.6797784e-05
3.5771178e-05
3.50417247e-05
3.50945489e-05
3.67948436e-05
3.57348112e-05
3.51725189e-05
3.68006715e-05
3.68052918e-05
3.67936648e-05
3.57353502e-05
3.49672791e-05
3.49820633e-05
3.67672497e-05
3.68174407e-05
3.55866459e-05
3.54944535e-05
3.67803102e-05
3.5751557e-05
3.49582187e-05
3.67787166e-05
3.68036116e-05
3.56183882e-05
3.52560041e-05
3.67676391e-05
3.68205841e-05
3.5577797e-05
3.53114192e-05
3.67685143e-05
3.68251577e-05
3.55429623e-05
3.54202003e-05
3.67782836e-05
3.68168593e-05
3.67782697e-05
3.5816338e-05
3.53818189e-05
3.54474997e-05
3.50437294e-05
3.50407072e-05
3.67624258e-05
3.67985371e-05
3.67634764e-05
3.67959696e-05
3.58719961e-05
3.50672643e-05
3.51038425e-05
3.68041558e-05
3.57433402e-05
3.49349287e-05
3.67838669e-05
3.68160842e-05
3.54941013e-05
3.51445311e-05
3.67741086e-05
3.6826868e-05
3.54453244e-05
3.53060856e-05
3.67814373e-05
3.68233349e-05
3.67828077e-05
3.57727643e-05
3.53578774e-05
3.54608315e-05
3.50933123e-05
3.51016406e-05
3.67570417e-05
3.67967525e-05
3.67669938e-05
3.67917047e-05
3.58578173e-05
3.52248387e-05
3.52254201e-05
3.67909595e-05
3.68034803e-05
3.57415562e-05
3.49654025e-05
3.4975903e-05
3.67786365e-05
3.68304307e-05
3.55163641e-05
3.53702002e-05
3.67895928e-05
3.57056478e-05
3.49549173e-05
3.68055695e-05
3.68081747e-05
3.67901566e-05
3.57325264e-05
3.50602728e-05
3.50760739e-05
3.67616252e-05
3.68172106e-05
3.6773242e-05
3.68238962e-05
3.57689427e-05
3.54450935e-05
3.67990829e-05
3.68291916e-05
3.57497506e-05
3.53816305e-05
3.50314126e-05
3.50328341e-05
3.67955834e-05
3.68152975e-05
3.67876892e-05
3.57740783e-05
3.50659865e-05
3.51719635e-05
3.67941644e-05
3.57697949e-05
3.51033687e-05
3.68033908e-05
3.67907612e-05
3.57641566e-05
3.51909196e-05
3.51922141e-05
3.67823388e-05
3.6807158e-05
3.67860484e-05
3.58207796e-05
3.56493413e-05
3.5346534e-05
3.53478833e-05
3.67988881e-05
3.57756634e-05
3.51932796e-05
3.67945961e-05
3.68100012e-05
3.57599917e-05
3.53669563e-05
3.50210277e-05
3.50282294e-05
3.67811408e-05
3.68090786e-05
3.67854331e-05
3.68114149e-05
3.68040916e-05
3.58128058e-05
3.54548584e-05
3.51920934e-05
3.51905803e-05
3.67888596e-05
3.68190616e-05
3.55900063e-05
3.52679315e-05
3.67915676e-05
3.68179635e-05
3.57531071e-05
3.52415439e-05
3.48255724e-05
3.48415373e-05
3.6767575e-05
3.68111544e-05
3.67675432e-05
3.68201011e-05
3.56413498e-05
3.53720246e-05
3.67893105e-05
3.57153213e-05
3.49306942e-05
3.68047139e-05
3.6788318e-05
3.67934401e-05
3.57553532e-05
3.51553028e-05
3.67863456e-05
3.6812238e-05
3.56620254e-05
3.52714385e-05
3.67904531e-05
3.68140963e-05
3.5759289e-05
3.53066665e-05
3.49143661e-05
3.49191653e-05
3.67776776e-05
3.68081551e-05
3.67678872e-05
3.68126742e-05
3.67789968e-05
3.58357619e-05
3.54491859e-05
3.54501001e-05
3.5079777e-05
3.5084808e-05
3.67909256e-05
3.67983786e-05
3.57523287e-05
3.50629254e-05
3.50727092e-05
3.67755221e-05
3.68083884e-05
3.57737546e-05
3.52905294e-05
3.67890177e-05
3.67880297e-05
3.57903747e-05
3.50309889e-05
3.50410772e-05
3.67692932e-05
3.68129378e-05
3.67718941e-05
3.68214313e-05
3.67895015e-05
3.57605844e-05
3.5338244e-05
3.53304879e-05
3.48691167e-05
3.48895385e-05
3.67607311e-05
3.68230063e-05
3.54401241e-05
3.51276349e-05
3.6756125e-05
3.68128327e-05
3.67566989e-05
3.68130059e-05
3.58261948e-05
3.54380024e-05
3.51840421e-05
3.51861909e-05
3.67924038e-05
3.68056528e-05
3.57480274e-05
3.48441135e-05
3.48586674e-05
3.679257e-05
3.67964441e-05
3.67961824e-05
3.56423464e-05
3.55188413e-05
3.67822661e-05
3.5781048e-05
3.48956516e-05
3.679889e-05
3.67771019e-05
3.57451624e-05
3.47695839e-05
3.47905433e-05
3.67647309e-05
3.68101238e-05
3.67682338e-05
3.6814787e-05
3.67917928e-05
3.57433322e-05
3.53660357e-05
3.49624924e-05
3.49578233e-05
3.68019682e-05
3.67913897e-05
3.67918666e-05
3.57628438e-05
3.52177615e-05
3.67883041e-05
3.67856383e-05
3.57707663e-05
3.50876419e-05
3.50954092e-05
3.67740552e-05
3.67973668e-05
3.67775444e-05
3.57552613e-05
3.52710998e-05
3.52915744e-05
3.476151e-05
3.47804006e-05
3.67705628e-05
3.67900231e-05
3.67771485e-05
3.53253905e-05
3.51067761e-05
3.67893369e-05
3.67910947e-05
3.67927278e-05
3.55543107e-05
3.51974545e-05
3.67855846e-05
3.68031092e-05
3.67732142e-05
3.57425606e-05
3.49756061e-05
3.49809278e-05
3.67829346e-05
3.67869331e-05
3.57570525e-05
3.4945876e-05
3.4954778e-05
3.67663856e-05
3.68059012e-05
3.56733319e-05
3.51244254e-05
3.67814486e-05
3.67950254e-05
3.5757086e-05
3.48035679e-05
3.48207173e-05
3.67816965e-05
3.67950299e-05
3.67958154e-05
3.57230758e-05
3.51758538e-05
3.67878771e-05
3.68160748e-05
3.56188885e-05
3.52680421e-05
3.6783057e-05
3.68150847e-05
3.57056944e-05
3.53460057e-05
3.6795619e-05
3.67961173e-05
3.57698562e-05
3.51979188e-05
3.52006118e-05
3.67957702e-05
3.67975896e-05
3.57561402e-05
3.50882466e-05
3.50970719e-05
3.67796156e-05
3.68253089e-05
3.57038367e-05
3.5296697e-05
3.67841102e-05
3.68203101e-05
3.57071837e-05
3.52854314e-05
3.67954762e-05
3.67935217e-05
3.57569168e-05
3.49922226e-05
3.49990086e-05
3.67735872e-05
3.67990541e-05
3.67742835e-05
3.67953795e-05
3.58126504e-05
3.52083756e-05
3.52724124e-05
3.46945235e-05
3.47135446e-05
3.67671179e-05
3.68080736e-05
3.67681812e-05
3.68085494e-05
3.6792493e-05
3.57593269e-05
3.53303597e-05
3.49934369e-05
3.49889814e-05
3.67783301e-05
3.68092033e-05
3.54310085e-05
3.51488383e-05
3.67618563e-05
3.68120474e-05
3.53989811e-05
3.51756236e-05
3.67605556e-05
3.68098308e-05
3.67618361e-05
3.68122318e-05
3.57991694e-05
3.54212633e-05
3.51280421e-05
3.51351533e-05
3.67788165e-05
3.68166465e-05
3.5477076e-05
3.53628477e-05
3.67989744e-05
3.68123632e-05
3.67988555e-05
3.57790619e-05
3.53712444e-05
3.5158131e-05
3.51585749e-05
3.6790799e-05
3.68182458e-05
3.56418247e-05
3.55760904e-05
3.67826247e-05
3.57735082e-05
3.53757699e-05
3.67957878e-05
3.57562608e-05
3.52373141e-05
3.6801107e-05
3.6794348e-05
3.67960548e-05
3.57829013e-05
3.53225745e-05
3.50276401e-05
3.5029977e-05
3.67932461e-05
3.6821504e-05
3.53177474e-05
3.51842862e-05
3.68072668e-05
3.68156196e-05
3.68133853e-05
3.55791642e-05
3.52860899e-05
3.68082821e-05
3.68177464e-05
)
;

boundaryField
{
    closed
    {
        type            calculated;
        value           nonuniform List<scalar> 0();
    }
    open
    {
        type            calculated;
        value           nonuniform List<scalar> 0();
    }
    sides
    {
        type            empty;
    }
    procBoundary2to1
    {
        type            processor;
        value           uniform 3.53686562e-05;
    }
    procBoundary2to3
    {
        type            processor;
        value           uniform 3.67929901e-05;
    }
}


// ************************************************************************* //
