/*--------------------------------*- C++ -*----------------------------------*\
| =========                 |                                                 |
| \\      /  F ield         | OpenFOAM: The Open Source CFD Toolbox           |
|  \\    /   O peration     | Version:  2306                                  |
|   \\  /    A nd           | Website:  www.openfoam.com                      |
|    \\/     M anipulation  |                                                 |
\*---------------------------------------------------------------------------*/
FoamFile
{
    version     2.0;
    format      ascii;
    arch        "LSB;label=32;scalar=64";
    class       volScalarField;
    location    "0.0016";
    object      prefDPV_H2;
}
// * * * * * * * * * * * * * * * * * * * * * * * * * * * * * * * * * * * * * //

dimensions      [1 -1 -1 0 0 0 0];

internalField   nonuniform List<scalar> 
530
(
-3.03702005e-05
-3.14364336e-05
-3.14796263e-05
-3.14751742e-05
-3.14776436e-05
-3.09271874e-05
-3.00814048e-05
-3.01112696e-05
-3.1429468e-05
-3.1509763e-05
-3.06998833e-05
-3.0457308e-05
-3.14360109e-05
-3.15160267e-05
-3.06661748e-05
-3.06084142e-05
-3.14531984e-05
-3.15178844e-05
-3.14920226e-05
-3.09297894e-05
-3.06568238e-05
-3.04228719e-05
-3.04251294e-05
-3.14480334e-05
-3.14892107e-05
-3.14816799e-05
-3.14875114e-05
-3.09204334e-05
-3.03268516e-05
-3.03435218e-05
-3.14488922e-05
-3.15204566e-05
-3.07806057e-05
-3.06330832e-05
-3.14628818e-05
-3.15241588e-05
-3.15024843e-05
-3.09280623e-05
-3.05774303e-05
-3.02863453e-05
-3.02847616e-05
-3.14644694e-05
-3.15007119e-05
-3.14952634e-05
-3.08443861e-05
-3.04546544e-05
-3.14481172e-05
-3.15102738e-05
-3.14783592e-05
-3.15171083e-05
-3.09293309e-05
-3.06935624e-05
-3.05116096e-05
-3.05094567e-05
-3.14771157e-05
-3.15034533e-05
-3.09267753e-05
-3.04295695e-05
-3.0440759e-05
-3.14691195e-05
-3.15068813e-05
-3.09234176e-05
-3.04268309e-05
-3.04382662e-05
-3.14649037e-05
-3.15269098e-05
-3.14994233e-05
-3.09084776e-05
-3.04917801e-05
-3.05010865e-05
-3.14633611e-05
-3.15355527e-05
-3.08812581e-05
-3.07499011e-05
-3.14745834e-05
-3.15330129e-05
-3.15126769e-05
-3.09158818e-05
-3.07520016e-05
-3.05385459e-05
-3.05364671e-05
-3.14894592e-05
-3.15081955e-05
-3.09131665e-05
-3.03393857e-05
-3.03553729e-05
-3.14607289e-05
-3.15382296e-05
-3.08072544e-05
-3.06607876e-05
-3.1467684e-05
-3.1543437e-05
-3.15045498e-05
-3.09037676e-05
-3.06454181e-05
-3.07045865e-05
-3.04161662e-05
-3.04272777e-05
-3.14686571e-05
-3.1519793e-05
-3.15190212e-05
-3.08974931e-05
-3.07020867e-05
-3.14830985e-05
-3.15262486e-05
-3.15220932e-05
-3.093865e-05
-3.07397252e-05
-3.14756524e-05
-3.09143117e-05
-3.04627937e-05
-3.1478514e-05
-3.15170699e-05
-3.15146851e-05
-3.09193151e-05
-3.0594626e-05
-3.03870272e-05
-3.03893934e-05
-3.14697907e-05
-3.15146806e-05
-3.1506988e-05
-3.09387493e-05
-3.05442199e-05
-3.14765093e-05
-3.150633e-05
-3.09214155e-05
-3.0429694e-05
-3.04696958e-05
-3.14827842e-05
-3.0925094e-05
-3.05254437e-05
-3.14742681e-05
-3.15216241e-05
-3.15043126e-05
-3.09139976e-05
-3.03748939e-05
-3.03897055e-05
-3.14506127e-05
-3.15267463e-05
-3.08244775e-05
-3.07604269e-05
-3.14575251e-05
-3.09180179e-05
-3.03691003e-05
-3.14586014e-05
-3.15115875e-05
-3.08473593e-05
-3.05875176e-05
-3.14480368e-05
-3.15302681e-05
-3.08174573e-05
-3.06286272e-05
-3.14479927e-05
-3.15362554e-05
-3.07923594e-05
-3.07076299e-05
-3.14538473e-05
-3.15348034e-05
-3.14922578e-05
-3.09227012e-05
-3.06762759e-05
-3.07264954e-05
-3.04294348e-05
-3.04307508e-05
-3.14397505e-05
-3.15067813e-05
-3.1471455e-05
-3.15051118e-05
-3.09482694e-05
-3.04490603e-05
-3.04757966e-05
-3.14884069e-05
-3.09271245e-05
-3.03537058e-05
-3.14599322e-05
-3.15210211e-05
-3.0757711e-05
-3.0507469e-05
-3.14486841e-05
-3.15345543e-05
-3.07218476e-05
-3.06252271e-05
-3.14534568e-05
-3.15393004e-05
-3.14956844e-05
-3.09093145e-05
-3.06589731e-05
-3.07364933e-05
-3.0465607e-05
-3.04752092e-05
-3.14364405e-05
-3.15075011e-05
-3.14762686e-05
-3.15044101e-05
-3.09417057e-05
-3.05626643e-05
-3.05650402e-05
-3.14746048e-05
-3.15113917e-05
-3.09145798e-05
-3.03738653e-05
-3.03856017e-05
-3.1460152e-05
-3.15370155e-05
-3.07740894e-05
-3.06718082e-05
-3.14623831e-05
-3.09080137e-05
-3.03672838e-05
-3.14749348e-05
-3.15220111e-05
-3.15008516e-05
-3.09102359e-05
-3.04418532e-05
-3.0457867e-05
-3.14439038e-05
-3.15264117e-05
-3.14832728e-05
-3.15351303e-05
-3.09327343e-05
-3.07259411e-05
-3.14851232e-05
-3.15407006e-05
-3.09247245e-05
-3.06792032e-05
-3.04230038e-05
-3.04262401e-05
-3.14708062e-05
-3.15299378e-05
-3.14983015e-05
-3.09134788e-05
-3.04473163e-05
-3.05263931e-05
-3.14828164e-05
-3.09147262e-05
-3.04750124e-05
-3.14863767e-05
-3.15011521e-05
-3.09157443e-05
-3.05371843e-05
-3.05413167e-05
-3.14719733e-05
-3.15248988e-05
-3.15053037e-05
-3.09265689e-05
-3.08720423e-05
-3.06518117e-05
-3.06532843e-05
-3.14868615e-05
-3.09201806e-05
-3.05410955e-05
-3.14802306e-05
-3.15208019e-05
-3.09313657e-05
-3.06674042e-05
-3.04144767e-05
-3.04221039e-05
-3.14538851e-05
-3.15201483e-05
-3.14848526e-05
-3.15280229e-05
-3.15200637e-05
-3.09257104e-05
-3.07321526e-05
-3.05390693e-05
-3.05404992e-05
-3.14713029e-05
-3.15283038e-05
-3.08277366e-05
-3.05965529e-05
-3.14734725e-05
-3.15266999e-05
-3.094301e-05
-3.0576384e-05
-3.02723576e-05
-3.02868078e-05
-3.14356988e-05
-3.15155302e-05
-3.14681074e-05
-3.15268823e-05
-3.08647822e-05
-3.06721407e-05
-3.14642151e-05
-3.09209002e-05
-3.03487605e-05
-3.1470398e-05
-3.15034002e-05
-3.14942647e-05
-3.09449353e-05
-3.05134568e-05
-3.14670281e-05
-3.15208686e-05
-3.08797478e-05
-3.05985921e-05
-3.14720516e-05
-3.1523858e-05
-3.09397099e-05
-3.06234536e-05
-3.03366602e-05
-3.03427146e-05
-3.14473176e-05
-3.15175006e-05
-3.14678157e-05
-3.15277768e-05
-3.1496918e-05
-3.09293828e-05
-3.07260724e-05
-3.07286405e-05
-3.04571588e-05
-3.04632836e-05
-3.14717292e-05
-3.15063045e-05
-3.0925471e-05
-3.04439226e-05
-3.04542764e-05
-3.14624269e-05
-3.15171277e-05
-3.09601351e-05
-3.06112091e-05
-3.14741236e-05
-3.14990755e-05
-3.09245502e-05
-3.04204996e-05
-3.04314605e-05
-3.14492712e-05
-3.15240602e-05
-3.14768558e-05
-3.15374196e-05
-3.15088254e-05
-3.09048946e-05
-3.06451958e-05
-3.06429192e-05
-3.03033835e-05
-3.03230697e-05
-3.14371931e-05
-3.15268923e-05
-3.07162901e-05
-3.04949245e-05
-3.14272528e-05
-3.15208975e-05
-3.1462743e-05
-3.15235713e-05
-3.09396283e-05
-3.0719536e-05
-3.05320378e-05
-3.05367823e-05
-3.14712862e-05
-3.15112877e-05
-3.09328103e-05
-3.02859946e-05
-3.02988279e-05
-3.14699665e-05
-3.15085885e-05
-3.15069699e-05
-3.08659494e-05
-3.0777581e-05
-3.14603271e-05
-3.09173498e-05
-3.03227013e-05
-3.14796723e-05
-3.14821957e-05
-3.09253282e-05
-3.02296481e-05
-3.02497437e-05
-3.14415453e-05
-3.15174751e-05
-3.14696275e-05
-3.15288829e-05
-3.1508208e-05
-3.09151874e-05
-3.06659117e-05
-3.03732879e-05
-3.03701224e-05
-3.1474606e-05
-3.1507024e-05
-3.14997076e-05
-3.09467689e-05
-3.05578462e-05
-3.1473304e-05
-3.14962585e-05
-3.09290025e-05
-3.04615273e-05
-3.04699545e-05
-3.14617891e-05
-3.15149352e-05
-3.14966341e-05
-3.09200574e-05
-3.0595447e-05
-3.06128529e-05
-3.02249258e-05
-3.02418e-05
-3.14416899e-05
-3.14983756e-05
-3.14858403e-05
-3.06357164e-05
-3.04777919e-05
-3.14556135e-05
-3.15047031e-05
-3.14982492e-05
-3.08019694e-05
-3.05439749e-05
-3.14577621e-05
-3.1519519e-05
-3.14843484e-05
-3.09222181e-05
-3.03798351e-05
-3.03870623e-05
-3.14676321e-05
-3.1493901e-05
-3.09316995e-05
-3.03578531e-05
-3.03683447e-05
-3.1452621e-05
-3.15121671e-05
-3.08869718e-05
-3.04908228e-05
-3.14638919e-05
-3.15006016e-05
-3.09355126e-05
-3.0255907e-05
-3.02709637e-05
-3.14594901e-05
-3.15080853e-05
-3.15020801e-05
-3.09250633e-05
-3.0528841e-05
-3.14679892e-05
-3.15244816e-05
-3.08481861e-05
-3.05964009e-05
-3.14644226e-05
-3.1525444e-05
-3.09114726e-05
-3.06521327e-05
-3.14796922e-05
-3.15085252e-05
-3.09209057e-05
-3.05426358e-05
-3.0546837e-05
-3.14825656e-05
-3.15075363e-05
-3.09166279e-05
-3.04627051e-05
-3.04729989e-05
-3.14657577e-05
-3.15328536e-05
-3.09098096e-05
-3.06177176e-05
-3.14671108e-05
-3.15298817e-05
-3.09126474e-05
-3.06083364e-05
-3.14789824e-05
-3.15033168e-05
-3.09235786e-05
-3.03920732e-05
-3.04004166e-05
-3.1453649e-05
-3.1506964e-05
-3.148196e-05
-3.15052855e-05
-3.09276534e-05
-3.05504988e-05
-3.05992121e-05
-3.01762211e-05
-3.01940579e-05
-3.14349247e-05
-3.15142614e-05
-3.14651761e-05
-3.15225453e-05
-3.15082048e-05
-3.09239471e-05
-3.06403131e-05
-3.03943278e-05
-3.03932707e-05
-3.14563452e-05
-3.15161173e-05
-3.07103517e-05
-3.05097088e-05
-3.14395181e-05
-3.15202996e-05
-3.06863396e-05
-3.05292772e-05
-3.143246e-05
-3.15187907e-05
-3.14674741e-05
-3.15228251e-05
-3.09348838e-05
-3.07071151e-05
-3.04915849e-05
-3.05000069e-05
-3.14591915e-05
-3.15265385e-05
-3.07451992e-05
-3.06655882e-05
-3.14729567e-05
-3.15305738e-05
-3.15098381e-05
-3.09187309e-05
-3.06708532e-05
-3.05146184e-05
-3.05171786e-05
-3.14734381e-05
-3.15304297e-05
-3.08646537e-05
-3.08197424e-05
-3.14674871e-05
-3.09174783e-05
-3.06718518e-05
-3.14783069e-05
-3.09302597e-05
-3.05717765e-05
-3.14781481e-05
-3.15137576e-05
-3.15052839e-05
-3.09219512e-05
-3.06353077e-05
-3.04199395e-05
-3.0423929e-05
-3.1469399e-05
-3.15281039e-05
-3.06302327e-05
-3.0536559e-05
-3.14756909e-05
-3.15282544e-05
-3.15202558e-05
-3.0821583e-05
-3.06096962e-05
-3.14828868e-05
-3.15340656e-05
)
;

boundaryField
{
    closed
    {
        type            calculated;
        value           nonuniform List<scalar> 0();
    }
    open
    {
        type            calculated;
        value           nonuniform List<scalar> 0();
    }
    sides
    {
        type            empty;
    }
    procBoundary2to1
    {
        type            processor;
        value           uniform -3.06657229e-05;
    }
    procBoundary2to3
    {
        type            processor;
        value           uniform -3.15037396e-05;
    }
}


// ************************************************************************* //
