/*--------------------------------*- C++ -*----------------------------------*\
| =========                 |                                                 |
| \\      /  F ield         | OpenFOAM: The Open Source CFD Toolbox           |
|  \\    /   O peration     | Version:  2306                                  |
|   \\  /    A nd           | Website:  www.openfoam.com                      |
|    \\/     M anipulation  |                                                 |
\*---------------------------------------------------------------------------*/
FoamFile
{
    version     2.0;
    format      ascii;
    arch        "LSB;label=32;scalar=64";
    class       volScalarField;
    location    "0.00092";
    object      prefDPV_T;
}
// * * * * * * * * * * * * * * * * * * * * * * * * * * * * * * * * * * * * * //

dimensions      [1 -1 -1 -1 0 0 0];

internalField   nonuniform List<scalar> 
530
(
6.03472701e-10
5.9797005e-10
5.97546681e-10
5.97549585e-10
5.97549777e-10
5.97549775e-10
5.97549775e-10
5.97549775e-10
5.97549775e-10
5.97549775e-10
5.97549775e-10
5.97549775e-10
5.97549775e-10
5.97549775e-10
5.97549775e-10
5.97549775e-10
5.97549775e-10
5.97549775e-10
5.97549775e-10
5.97549775e-10
5.97549775e-10
5.97549775e-10
5.97549775e-10
5.97549775e-10
5.97549775e-10
5.97549775e-10
5.97549775e-10
5.97549775e-10
5.97549775e-10
5.97549775e-10
5.97549775e-10
5.97549775e-10
5.97549775e-10
5.97549775e-10
5.97549775e-10
5.97549775e-10
5.97549775e-10
5.97549775e-10
5.97549775e-10
5.97549775e-10
5.97549775e-10
5.97549775e-10
5.97549775e-10
5.97549775e-10
5.97549775e-10
5.97549775e-10
5.97549775e-10
5.97549775e-10
5.97549775e-10
5.97549775e-10
5.97549775e-10
5.97549775e-10
5.97549775e-10
5.97549775e-10
5.97549775e-10
5.97549775e-10
5.97549775e-10
5.97549775e-10
5.97549775e-10
5.97549775e-10
5.97549775e-10
5.97549775e-10
5.97549775e-10
5.97549775e-10
5.97549775e-10
5.97549775e-10
5.97549775e-10
5.97549775e-10
5.97549775e-10
5.97549775e-10
5.97549775e-10
5.97549775e-10
5.97549776e-10
5.97549778e-10
5.97549789e-10
5.97549795e-10
5.97549745e-10
5.97549812e-10
5.97550274e-10
5.97550255e-10
5.97549187e-10
5.97549421e-10
5.97551037e-10
5.97554705e-10
5.9756722e-10
5.97577238e-10
5.97493967e-10
5.97263815e-10
5.97340726e-10
5.98390535e-10
5.99048736e-10
5.97642993e-10
5.92358132e-10
5.91287741e-10
5.93498825e-10
6.09777039e-10
6.09408115e-10
6.02722672e-10
5.9025279e-10
5.90054767e-10
5.90100128e-10
5.9183498e-10
6.09164067e-10
6.0891683e-10
6.10270757e-10
6.09260312e-10
6.07975406e-10
5.89687099e-10
5.89713804e-10
5.90089276e-10
5.90277829e-10
5.93585992e-10
6.08938773e-10
6.08122578e-10
6.10693798e-10
5.90587836e-10
5.8972981e-10
5.90460687e-10
5.94411597e-10
6.08764698e-10
6.08103527e-10
6.10512247e-10
5.90757208e-10
5.8981229e-10
5.901909e-10
5.94026372e-10
6.08565583e-10
6.10332274e-10
5.90969608e-10
5.92089503e-10
6.08840062e-10
6.10272259e-10
5.89788912e-10
5.8924408e-10
5.93044821e-10
6.09155252e-10
6.1049079e-10
5.90693093e-10
5.91482507e-10
6.08937783e-10
6.11057529e-10
5.90351306e-10
5.91483069e-10
6.09040617e-10
6.11339267e-10
5.90222685e-10
5.91449364e-10
6.09098905e-10
6.11520331e-10
5.90169485e-10
5.91460973e-10
6.09140423e-10
6.11695606e-10
5.90148346e-10
5.91523435e-10
6.0916882e-10
6.12190119e-10
5.90021489e-10
5.91376474e-10
6.09153285e-10
6.10514045e-10
5.89421242e-10
5.88876513e-10
5.92213243e-10
6.09373058e-10
6.10884278e-10
5.90265205e-10
5.91266934e-10
6.09034739e-10
6.10323361e-10
5.89529673e-10
5.88965381e-10
5.92271878e-10
6.09289707e-10
6.10729986e-10
5.9038467e-10
5.91371162e-10
6.08958337e-10
6.11279737e-10
5.90167134e-10
5.91438866e-10
6.08978815e-10
6.11438834e-10
5.90078661e-10
5.91420822e-10
6.09003655e-10
6.11566288e-10
5.90034884e-10
5.91500458e-10
6.09020912e-10
6.12225484e-10
5.89923098e-10
5.91240796e-10
6.08959517e-10
6.09981205e-10
5.89507649e-10
5.8888439e-10
5.92015524e-10
6.09216051e-10
6.10417834e-10
5.90349833e-10
5.91340954e-10
6.08829986e-10
6.11050955e-10
5.9008702e-10
5.91192232e-10
6.08840729e-10
6.09688235e-10
5.89632583e-10
5.88941904e-10
5.92077699e-10
6.09180886e-10
6.10235914e-10
5.90229136e-10
5.91043829e-10
6.08797556e-10
6.09515382e-10
5.89681884e-10
5.88945144e-10
5.91979197e-10
6.09163683e-10
6.09948964e-10
5.90285811e-10
5.91204864e-10
6.08794969e-10
6.10707729e-10
5.90072788e-10
5.91321455e-10
6.0883721e-10
6.11079678e-10
5.89968521e-10
5.9140997e-10
6.08887189e-10
6.1186998e-10
5.89835905e-10
5.90984264e-10
6.0888774e-10
6.09278223e-10
5.89613498e-10
5.88728162e-10
5.91621405e-10
6.09273823e-10
6.10029508e-10
5.90203638e-10
5.91192878e-10
6.08911984e-10
6.11006678e-10
5.90005e-10
5.91403929e-10
6.08970256e-10
6.1201727e-10
5.89896705e-10
5.90892352e-10
6.08974443e-10
6.09029962e-10
5.89935598e-10
5.88869943e-10
5.91536608e-10
6.09240362e-10
6.09205977e-10
5.90569924e-10
5.91053156e-10
6.08847099e-10
6.09561649e-10
5.90306516e-10
5.90875506e-10
6.08832245e-10
6.08815187e-10
5.90232004e-10
5.89194728e-10
5.92014062e-10
6.09098117e-10
6.08721518e-10
5.90760555e-10
5.90797552e-10
6.09030165e-10
6.08691238e-10
5.90063534e-10
5.8951971e-10
5.90351958e-10
5.9014167e-10
5.93235561e-10
6.08778783e-10
6.08424261e-10
5.90824647e-10
5.89698414e-10
5.93350716e-10
6.0875531e-10
6.08433376e-10
5.91386746e-10
5.91232142e-10
6.08908539e-10
6.08970615e-10
5.90561347e-10
5.90924275e-10
6.09077824e-10
6.08778583e-10
5.89705949e-10
5.89270214e-10
5.90126431e-10
5.89937259e-10
5.92662821e-10
6.08650901e-10
6.08046975e-10
5.97598394e-10
5.90305546e-10
5.92855354e-10
6.08366544e-10
6.08027081e-10
5.96969898e-10
5.9042722e-10
5.93479864e-10
6.08566836e-10
6.08613617e-10
5.90024071e-10
5.8913079e-10
5.92464789e-10
6.09081164e-10
6.08709903e-10
5.90266348e-10
5.89295691e-10
5.92946168e-10
6.08910079e-10
6.0893658e-10
5.9064052e-10
5.9092759e-10
6.08696917e-10
6.08737283e-10
5.89982373e-10
5.89337237e-10
5.93172646e-10
6.08959779e-10
6.08770898e-10
5.90324361e-10
5.89523055e-10
5.94006414e-10
6.08818226e-10
6.0882999e-10
5.90304282e-10
5.89603245e-10
5.94238159e-10
6.08890391e-10
6.08866476e-10
5.90138302e-10
5.89749212e-10
5.90267095e-10
5.93891339e-10
6.08556595e-10
6.08899252e-10
5.90135681e-10
5.89588339e-10
5.94373225e-10
6.08728139e-10
6.0903803e-10
5.90082167e-10
5.89508611e-10
5.93983954e-10
6.0853254e-10
6.09584808e-10
5.90660546e-10
5.91206415e-10
6.08273036e-10
6.10030459e-10
5.90224459e-10
5.91085509e-10
6.08455541e-10
6.09455092e-10
5.8949196e-10
5.89186103e-10
5.93199116e-10
6.08834621e-10
6.09155469e-10
5.89802091e-10
5.89291603e-10
5.93378347e-10
6.08651232e-10
6.09530743e-10
5.90409895e-10
5.90937322e-10
6.08473159e-10
6.09208846e-10
5.89681636e-10
5.89303975e-10
5.93107479e-10
6.08712054e-10
6.09167022e-10
5.90411374e-10
5.90861043e-10
6.08501712e-10
6.09047965e-10
5.89636777e-10
5.89186483e-10
5.92750204e-10
6.08828847e-10
6.08770139e-10
5.89799525e-10
5.89172803e-10
5.92758476e-10
6.08785054e-10
6.08691978e-10
5.89844923e-10
5.89221797e-10
5.92605355e-10
6.08747395e-10
6.08674647e-10
5.90415498e-10
5.90722357e-10
6.08489418e-10
6.09015864e-10
5.9008574e-10
5.90722833e-10
6.08688432e-10
6.08839827e-10
5.89477003e-10
5.88981193e-10
5.91972703e-10
6.0895958e-10
6.08705439e-10
5.9033232e-10
5.90689429e-10
6.08602962e-10
6.09077862e-10
5.9007413e-10
5.90733296e-10
6.08756078e-10
6.08869751e-10
5.89475982e-10
5.88942368e-10
5.92013714e-10
6.09025695e-10
6.08765798e-10
5.90226348e-10
5.90721764e-10
6.08820089e-10
6.08923061e-10
5.89568953e-10
5.88960946e-10
5.92077623e-10
6.09066039e-10
6.08868854e-10
5.90222743e-10
5.90709788e-10
6.08893005e-10
6.08959875e-10
5.89513911e-10
5.88923134e-10
5.91973961e-10
6.09083709e-10
6.08842278e-10
5.90339898e-10
5.90670697e-10
6.08692764e-10
6.09112474e-10
5.9022196e-10
5.90699079e-10
6.08778088e-10
6.09180676e-10
5.90063673e-10
5.90743504e-10
6.08853707e-10
6.08838982e-10
5.89411576e-10
5.89014323e-10
5.92782668e-10
6.09218839e-10
6.0863076e-10
5.89742916e-10
5.89222097e-10
5.9280556e-10
6.08955444e-10
6.08537283e-10
5.90405441e-10
5.90826876e-10
6.08908466e-10
6.08809084e-10
5.89522907e-10
5.89121191e-10
5.93336343e-10
6.09217822e-10
6.08622321e-10
5.89793213e-10
5.89388101e-10
5.93586079e-10
6.08850039e-10
6.08575246e-10
5.90567986e-10
5.91043568e-10
6.08849317e-10
6.08769261e-10
5.89594573e-10
5.89294701e-10
5.94187352e-10
6.09131529e-10
6.08760337e-10
5.89619987e-10
5.89247219e-10
5.93104381e-10
6.0924805e-10
6.09108286e-10
5.89520075e-10
5.8980899e-10
6.09768633e-10
6.09170833e-10
6.09451504e-10
6.09401908e-10
5.90082574e-10
5.89807657e-10
5.90534243e-10
5.9057304e-10
5.90445404e-10
5.95028279e-10
6.08500616e-10
6.08765496e-10
5.90071229e-10
5.89941252e-10
6.0299418e-10
6.08593582e-10
6.09318688e-10
5.89841651e-10
5.89558307e-10
5.95241125e-10
6.08799057e-10
6.08767288e-10
5.89737115e-10
5.89424627e-10
5.94541099e-10
6.08761969e-10
6.08730111e-10
5.89937491e-10
5.89626829e-10
)
;

boundaryField
{
    closed
    {
        type            calculated;
        value           uniform 7.28141497e-10;
    }
    open
    {
        type            calculated;
        value           nonuniform List<scalar> 0();
    }
    sides
    {
        type            empty;
    }
    procBoundary0to1
    {
        type            processor;
        value           uniform 5.96340743e-10;
    }
}


// ************************************************************************* //
