/*--------------------------------*- C++ -*----------------------------------*\
| =========                 |                                                 |
| \\      /  F ield         | OpenFOAM: The Open Source CFD Toolbox           |
|  \\    /   O peration     | Version:  2306                                  |
|   \\  /    A nd           | Website:  www.openfoam.com                      |
|    \\/     M anipulation  |                                                 |
\*---------------------------------------------------------------------------*/
FoamFile
{
    version     2.0;
    format      ascii;
    arch        "LSB;label=32;scalar=64";
    class       volScalarField;
    location    "0.00092";
    object      T;
}
// * * * * * * * * * * * * * * * * * * * * * * * * * * * * * * * * * * * * * //

dimensions      [0 0 0 1 0 0 0];

internalField   nonuniform List<scalar> 
530
(
342.399855
331.485607
329.605298
329.576101
329.573431
329.573357
329.573353
329.573353
329.573353
329.573353
329.573353
329.573353
329.573353
329.573353
329.573353
329.573353
329.573353
329.573353
329.573353
329.573353
329.573353
329.573353
329.573353
329.573353
329.573353
329.573353
329.573353
329.573353
329.573353
329.573353
329.573353
329.573353
329.573353
329.573353
329.573353
329.573353
329.573353
329.573353
329.573353
329.573353
329.573353
329.573353
329.573353
329.573353
329.573353
329.573353
329.573353
329.573353
329.573353
329.573353
329.573353
329.573353
329.573353
329.573353
329.573353
329.573353
329.573353
329.573353
329.573353
329.573353
329.573353
329.573353
329.573353
329.573353
329.573353
329.573353
329.573353
329.573353
329.573353
329.573354
329.573357
329.573363
329.573379
329.573407
329.573478
329.573619
329.573889
329.574417
329.575568
329.577057
329.57967
329.583384
329.591178
329.598862
329.611942
329.624623
329.610821
329.554092
329.593213
329.948424
330.207729
329.757898
329.001592
329.272549
328.849008
340.024664
339.915971
331.898157
325.28174
325.165923
324.717505
328.964577
340.13749
340.281795
339.399728
339.981366
335.051796
323.781498
323.129737
325.623642
325.437898
328.920505
339.660242
340.421456
339.693783
327.187035
323.380416
326.730537
329.259012
339.852505
340.300762
339.735202
327.726101
323.446988
325.946735
329.516167
340.413498
339.781151
328.604705
329.683636
340.470523
339.628101
324.19378
321.369134
329.249349
339.883562
339.885007
327.147237
329.518144
340.293611
339.395087
326.090026
329.097463
340.237368
339.197356
325.5837
328.851432
340.181368
339.072467
325.339514
328.816867
340.136407
338.938412
325.217832
328.928994
340.096708
338.484505
324.85023
328.682343
340.179621
339.405923
322.740199
319.855288
329.487698
339.698858
339.537434
325.521172
328.669618
340.148512
339.416934
323.148875
320.260836
329.441107
339.687489
339.590966
325.883262
328.829764
340.056929
339.084487
325.366567
328.719314
340.067459
338.983191
325.071165
328.590446
340.056314
338.916094
324.92024
328.7257
340.056629
338.34991
324.678404
328.290371
340.171629
339.574326
323.201093
320.208825
329.478931
339.703743
339.720029
325.858099
328.602977
340.069019
339.170775
325.34036
328.246791
340.186364
339.629542
323.702412
320.530008
329.51141
339.733736
339.851783
325.597631
328.085029
340.153643
339.725576
323.95803
320.621035
329.430831
339.735066
340.046421
325.697773
328.276597
340.049248
339.468052
325.258072
328.276255
340.097107
339.239739
324.932679
328.407503
340.109037
338.592371
324.618588
327.549775
340.226577
339.974493
323.951382
320.065894
329.469052
339.742804
340.107467
325.549707
328.117672
340.029352
339.334029
325.168298
328.513337
340.093795
338.487914
324.951405
327.380472
340.198434
340.17582
325.305497
320.814378
329.292591
339.811581
340.548331
327.184807
328.041216
340.092528
340.231418
326.538143
327.635615
340.225907
340.162567
326.488117
322.084978
329.078187
339.854448
340.828583
327.973337
327.986288
340.003068
340.296814
325.770174
323.365296
326.577621
325.399855
329.011135
339.947254
340.495892
328.540407
324.232023
328.963361
339.976076
340.706535
329.121142
329.35726
339.94362
340.599722
327.615875
328.13337
340.008574
340.240774
324.645941
322.560487
325.901999
324.883416
328.966554
340.093766
340.454019
329.666491
327.011779
328.79018
340.430045
340.520662
329.449595
327.323154
328.833183
340.295554
340.546322
326.087557
322.277982
328.882463
339.88725
340.407405
326.448542
322.845662
329.0331
339.948
340.573996
327.864768
328.592851
340.162562
340.286823
325.797424
322.838641
328.910019
339.875277
340.316111
326.62136
323.653208
329.05871
339.946289
340.216527
326.558742
323.792603
329.049799
339.815994
340.222105
325.508265
324.593959
326.012501
329.100859
340.060476
340.117244
325.921525
323.717953
329.069872
339.976772
340.08853
325.44886
323.584965
329.128761
340.137122
339.863354
327.687264
329.23386
340.349134
339.720942
326.420251
329.069129
340.367352
339.649783
323.809236
322.168338
328.934381
339.979683
339.964095
324.414017
322.831725
329.04307
340.098272
339.87226
326.700764
328.923005
340.213499
339.821592
324.322581
322.618684
328.953701
339.995506
340.121858
326.608092
328.622117
340.192248
339.943245
324.241907
322.165774
328.978615
339.96892
340.214646
324.49115
322.309974
329.101095
340.019073
340.234348
324.612815
322.447839
329.134423
339.99588
340.508624
326.646551
327.603642
340.168686
340.440646
325.732817
327.4248
340.168449
340.040286
323.641093
321.318095
329.131101
339.853672
340.623249
326.293433
327.291338
340.089405
340.442313
325.653997
327.323557
340.112832
340.028859
323.580064
321.131791
329.177723
339.813288
340.723644
325.864103
327.543811
339.988404
340.05288
323.84018
321.188883
329.198633
339.792267
340.684372
325.889677
327.48267
339.967095
340.0537
323.727914
321.104956
329.162583
339.806803
340.576478
326.428929
327.218819
340.047923
340.319782
326.305683
327.070311
340.071795
340.397256
325.816205
327.395154
340.10179
340.070264
323.671383
321.492276
329.00778
339.692411
340.337123
324.42446
322.514353
329.064847
339.858197
340.664569
326.799157
328.220533
339.93395
340.201681
324.082172
321.940218
329.003105
339.639494
340.359826
324.616649
323.17585
329.08721
339.864495
340.613801
327.421242
329.070542
339.908904
340.218627
324.296368
322.611481
329.06938
339.690472
340.284412
324.022327
322.403153
329.132436
339.543508
340.331995
323.090548
324.379787
339.689973
339.650941
339.468622
339.82198
324.852025
324.131071
326.727311
327.054478
326.730582
329.220235
340.002745
340.485938
325.340468
325.143727
332.058159
339.850839
339.934166
324.739702
323.38656
329.247026
339.878039
340.358919
324.392821
323.20119
329.153921
339.947862
340.418012
325.112082
323.897845
)
;

boundaryField
{
    closed
    {
        type            fixedValue;
        value           uniform 400;
    }
    open
    {
        type            zeroGradient;
    }
    sides
    {
        type            empty;
    }
    procBoundary0to1
    {
        type            processor;
        value           uniform 329.452638;
    }
}


// ************************************************************************* //
