/*--------------------------------*- C++ -*----------------------------------*\
| =========                 |                                                 |
| \\      /  F ield         | OpenFOAM: The Open Source CFD Toolbox           |
|  \\    /   O peration     | Version:  2306                                  |
|   \\  /    A nd           | Website:  www.openfoam.com                      |
|    \\/     M anipulation  |                                                 |
\*---------------------------------------------------------------------------*/
FoamFile
{
    version     2.0;
    format      ascii;
    arch        "LSB;label=32;scalar=64";
    class       volScalarField;
    location    "0.00148";
    object      H2;
}
// * * * * * * * * * * * * * * * * * * * * * * * * * * * * * * * * * * * * * //

dimensions      [0 0 0 0 0 0 0];

internalField   nonuniform List<scalar> 
530
(
0.0111255848
0.0108373965
0.0108035773
0.0108034654
0.0108034615
0.0108034604
0.0108034603
0.0108034603
0.0108034603
0.0108034603
0.0108034603
0.0108034603
0.0108034603
0.0108034603
0.0108034603
0.0108034603
0.0108034603
0.0108034603
0.0108034603
0.0108034603
0.0108034603
0.0108034603
0.0108034603
0.0108034603
0.0108034603
0.0108034603
0.0108034603
0.0108034603
0.0108034603
0.0108034603
0.0108034603
0.0108034603
0.0108034603
0.0108034603
0.0108034603
0.0108034603
0.0108034603
0.0108034603
0.0108034603
0.0108034603
0.0108034603
0.0108034603
0.0108034603
0.0108034603
0.0108034603
0.0108034603
0.0108034603
0.0108034603
0.0108034603
0.0108034603
0.0108034603
0.0108034603
0.0108034603
0.0108034603
0.0108034603
0.0108034603
0.0108034603
0.0108034603
0.0108034603
0.0108034603
0.0108034603
0.0108034603
0.0108034603
0.0108034603
0.0108034603
0.0108034603
0.0108034604
0.0108034606
0.0108034609
0.0108034617
0.0108034613
0.0108034647
0.0108034763
0.0108034685
0.0108034593
0.0108035221
0.010803581
0.0108035099
0.0108035162
0.0108036653
0.0108038484
0.0108040939
0.0108038288
0.0108011949
0.010798822
0.0108002486
0.0108223822
0.0108282948
0.0108088787
0.0107146569
0.010683911
0.0106835644
0.0108086259
0.0110111609
0.0110064735
0.0110187618
0.0108621059
0.0106729349
0.0106707089
0.0106767568
0.0106753142
0.0106669151
0.0107168478
0.0110156194
0.0110038755
0.011017674
0.0110106614
0.0110167329
0.010880565
0.0106566186
0.0106558513
0.0106705481
0.0106716718
0.010672427
0.010813368
0.0110154891
0.0110072547
0.0110149149
0.0110117399
0.0110137466
0.0108944129
0.0106590204
0.0106567787
0.0106714432
0.0106737628
0.0106764609
0.0107625525
0.0110406231
0.0110032877
0.0110678253
0.0106622392
0.0106549381
0.0106676624
0.0107999959
0.0110229889
0.0109957226
0.0110062282
0.0107445603
0.0106673338
0.0106674336
0.010726063
0.0110365766
0.0110077054
0.0106914701
0.0106561988
0.0107156958
0.01104909
0.0110030312
0.0107502117
0.0106945934
0.0109998191
0.0110146596
0.010741621
0.010667097
0.0107231065
0.0110682088
0.0110180633
0.0107483633
0.0106540374
0.0106884746
0.0110173293
0.0110131307
0.011018017
0.0107856214
0.010668487
0.0107107708
0.0110489061
0.0110214134
0.0108123854
0.010673546
0.0106963028
0.011032741
0.0110207584
0.0108149735
0.0106682561
0.010667427
0.0106751442
0.0106780125
0.0106911902
0.0110167219
0.0110184448
0.0108457637
0.0106784617
0.0107036039
0.011050546
0.0110206163
0.0108470211
0.0106768628
0.0106913536
0.0110357626
0.0110194738
0.0108358668
0.010671194
0.0106650913
0.0106807196
0.0110003329
0.0110132316
0.0108711884
0.0107015007
0.0108399575
0.0110356727
0.0108304574
0.0106857003
0.0108237171
0.0110366671
0.010833258
0.0106688978
0.0106650683
0.0109614523
0.0110186763
0.010814247
0.010688338
0.0108711047
0.0110591201
0.0107359629
0.0106705143
0.0108373582
0.0110408426
0.0108049937
0.0106691079
0.0106723505
0.0110231325
0.0110387378
0.0107544078
0.0106773889
0.0108611099
0.0110481314
0.0107675831
0.010660529
0.0106656145
0.0110195899
0.011038784
0.0107601684
0.0106875052
0.010921288
0.0110598286
0.0107297539
0.0106870476
0.0109454691
0.011057976
0.0107297469
0.0106897149
0.0109714083
0.0110683362
0.0107074191
0.0106854614
0.0109679108
0.0110593622
0.0107226259
0.0106597575
0.0106732054
0.0110531219
0.0110477208
0.0107309654
0.010688409
0.0109686926
0.0110498963
0.0107288624
0.010690641
0.0109875822
0.0110535578
0.0107153818
0.010659555
0.0106762606
0.0110412044
0.0110397726
0.0107236683
0.0106876251
0.0109757805
0.0110493798
0.0107211891
0.0106571191
0.0106712365
0.0110490997
0.0110327237
0.0107415111
0.0106892222
0.0109551208
0.0110373091
0.010750269
0.0106895049
0.0109473899
0.0110469269
0.0107520122
0.0106603279
0.0106634745
0.0110747013
0.0110277466
0.0107699553
0.0106925067
0.0109119347
0.011044332
0.0107847704
0.0106721083
0.0106684116
0.0106667763
0.0106663567
0.0110231833
0.0110242935
0.0108134184
0.0107046743
0.0108874567
0.0110439606
0.0108490629
0.0106803393
0.0106780878
0.0109996965
0.0110280519
0.0108635296
0.0106804076
0.0106763551
0.0109520865
0.0110340689
0.0108700009
0.0106758961
0.0106666044
0.0109007906
0.0110377664
0.0108978406
0.0106857148
0.0106803014
0.0109402602
0.0110279749
0.0109234499
0.0106900585
0.0106831293
0.0109280221
0.0110256533
0.0109255888
0.0106912011
0.0106718061
0.0106678424
0.0108647774
0.0110321409
0.0109093992
0.0107106933
0.0107909606
0.011050937
0.010953299
0.0106866016
0.0106745953
0.0108803201
0.0110320897
0.0109274207
0.0106822137
0.0106707188
0.0108634632
0.0110337736
0.0109216713
0.0106811091
0.010669548
0.0108658688
0.0110328712
0.0109169525
0.0106802446
0.010668604
0.0108640639
0.0110306146
0.0109078058
0.0106856203
0.0106654186
0.0106638783
0.010849152
0.0110326425
0.0108856639
0.0107017203
0.0108024252
0.0110419041
0.0109221979
0.0106730019
0.0106688134
0.0108947501
0.0110360626
0.0108532724
0.0107065728
0.0108429353
0.0110461477
0.0108639471
0.0106709415
0.0106719167
0.0109396566
0.0110501136
0.0108049596
0.0107035456
0.0108789879
0.0110619386
0.0107958958
0.0106661884
0.0106737553
0.010990865
0.0110682973
0.0107641324
0.0107070994
0.0109319438
0.0110720203
0.0107495367
0.0106674225
0.0106807341
0.0110539108
0.01106401
0.0107402497
0.0107144885
0.0109848621
0.0110539692
0.0107218485
0.0106693561
0.0107063992
0.0110746351
0.0110383741
0.0107058405
0.0106706941
0.0107208355
0.0110726099
0.0110303595
0.0106968205
0.0106704685
0.0107249908
0.0110663596
0.0110316904
0.0107194373
0.0107226912
0.0110464937
0.0110324067
0.0107186921
0.0107271165
0.0110522103
0.0110249444
0.0106886115
0.0106705333
0.0107545063
0.0110577004
0.0109827266
0.0107141275
0.010742215
0.0110714995
0.0109838588
0.0107162536
0.01075169
0.0110707439
0.0110161432
0.0106880321
0.0106792058
0.0108106405
0.011044399
0.0110062837
0.0106890466
0.0106772875
0.0106757154
0.0106807189
0.0108257837
0.0110427849
0.0109934973
0.010686785
0.0106851535
0.0108425497
0.0110424503
0.0109739692
0.0106811759
0.0106814074
0.0108463831
0.0110507635
0.0108760583
0.0107182529
0.010832979
0.0110659843
0.0108296424
0.0107086563
0.010872977
0.0110569073
0.0108089771
0.010696558
0.0108077866
0.0110533179
0.0109272293
0.0106741794
0.0106755789
0.0108606818
0.0110511571
0.0108775775
0.0106733209
0.0106772158
0.010877845
0.0110502754
0.0108656456
0.0106742916
0.0106795395
0.010893043
0.0110505427
0.0108497171
0.0106760835
0.0106834263
0.0109316605
0.0110546433
0.0108020307
0.0107014479
0.0108475344
0.0110529159
0.0108512135
0.0106763329
0.0106852481
0.0109670194
0.0110598996
0.0107720118
0.0106997766
0.0108742111
0.0110505517
0.0108389164
0.0106748283
0.0106834428
0.0109386985
0.0110516942
0.0108142437
0.0106758807
0.0106853694
0.010967838
0.0110139478
0.0110554695
0.0107766848
0.0106706738
0.0106680458
0.0106708258
0.0106852787
0.0109478642
0.011012129
0.011054968
0.0107676324
0.010678157
0.0106896464
0.0109740771
0.0110413533
)
;

boundaryField
{
    closed
    {
        type            calculated;
        value           uniform 0.0144411937;
    }
    open
    {
        type            calculated;
        value           nonuniform List<scalar> 0();
    }
    sides
    {
        type            empty;
    }
    procBoundary0to1
    {
        type            processor;
        value           uniform 0.0108337436;
    }
}


// ************************************************************************* //
