/*--------------------------------*- C++ -*----------------------------------*\
| =========                 |                                                 |
| \\      /  F ield         | OpenFOAM: The Open Source CFD Toolbox           |
|  \\    /   O peration     | Version:  2306                                  |
|   \\  /    A nd           | Website:  www.openfoam.com                      |
|    \\/     M anipulation  |                                                 |
\*---------------------------------------------------------------------------*/
FoamFile
{
    version     2.0;
    format      ascii;
    arch        "LSB;label=32;scalar=64";
    class       volScalarField;
    location    "0.00148";
    object      prefDPV_H2O;
}
// * * * * * * * * * * * * * * * * * * * * * * * * * * * * * * * * * * * * * //

dimensions      [1 -1 -1 0 0 0 0];

internalField   nonuniform List<scalar> 
530
(
-3.84563801e-07
-3.73918071e-07
-3.73044993e-07
-3.73064491e-07
-3.73066632e-07
-3.73066669e-07
-3.73066669e-07
-3.73066669e-07
-3.73066669e-07
-3.73066669e-07
-3.73066669e-07
-3.73066669e-07
-3.73066669e-07
-3.73066669e-07
-3.73066669e-07
-3.73066669e-07
-3.73066669e-07
-3.73066669e-07
-3.73066669e-07
-3.73066669e-07
-3.73066669e-07
-3.73066669e-07
-3.73066669e-07
-3.73066669e-07
-3.73066669e-07
-3.73066669e-07
-3.73066669e-07
-3.73066669e-07
-3.73066669e-07
-3.73066669e-07
-3.73066669e-07
-3.73066669e-07
-3.73066669e-07
-3.73066669e-07
-3.73066669e-07
-3.73066669e-07
-3.73066669e-07
-3.73066669e-07
-3.73066669e-07
-3.73066669e-07
-3.73066669e-07
-3.73066669e-07
-3.73066669e-07
-3.73066669e-07
-3.73066669e-07
-3.73066669e-07
-3.73066669e-07
-3.73066669e-07
-3.73066669e-07
-3.73066669e-07
-3.73066669e-07
-3.73066669e-07
-3.73066669e-07
-3.73066669e-07
-3.73066669e-07
-3.73066669e-07
-3.73066669e-07
-3.73066669e-07
-3.73066669e-07
-3.73066669e-07
-3.73066669e-07
-3.73066669e-07
-3.73066669e-07
-3.73066669e-07
-3.73066669e-07
-3.73066669e-07
-3.73066668e-07
-3.73066667e-07
-3.7306667e-07
-3.73066672e-07
-3.73066593e-07
-3.73066635e-07
-3.73067072e-07
-3.73066257e-07
-3.73065241e-07
-3.73067721e-07
-3.73069873e-07
-3.73064496e-07
-3.73062449e-07
-3.73068259e-07
-3.73075748e-07
-3.73086108e-07
-3.73068506e-07
-3.7292105e-07
-3.72785586e-07
-3.72860793e-07
-3.740516e-07
-3.74366673e-07
-3.73314802e-07
-3.67934197e-07
-3.66101309e-07
-3.66045248e-07
-3.73343279e-07
-3.8407839e-07
-3.83876356e-07
-3.84406264e-07
-3.76173863e-07
-3.65292991e-07
-3.65249216e-07
-3.65502677e-07
-3.65555324e-07
-3.64939986e-07
-3.6811175e-07
-3.84271934e-07
-3.83765457e-07
-3.84359553e-07
-3.84056722e-07
-3.84319404e-07
-3.7712758e-07
-3.64330827e-07
-3.64336887e-07
-3.6515324e-07
-3.65267205e-07
-3.65295145e-07
-3.73555641e-07
-3.8426685e-07
-3.83911786e-07
-3.84241267e-07
-3.84103828e-07
-3.84190983e-07
-3.77835453e-07
-3.64504974e-07
-3.64394488e-07
-3.65192419e-07
-3.65407824e-07
-3.65445942e-07
-3.70728147e-07
-3.85347353e-07
-3.83742227e-07
-3.86520947e-07
-3.64849036e-07
-3.64151615e-07
-3.65019729e-07
-3.7284253e-07
-3.8458972e-07
-3.83416506e-07
-3.83866412e-07
-3.69778182e-07
-3.65090942e-07
-3.65095858e-07
-3.68666149e-07
-3.85174155e-07
-3.83928324e-07
-3.6683639e-07
-3.64391447e-07
-3.68150926e-07
-3.85711229e-07
-3.83727113e-07
-3.70063712e-07
-3.66781338e-07
-3.83141303e-07
-3.8422988e-07
-3.69655294e-07
-3.64980837e-07
-3.68571248e-07
-3.86532013e-07
-3.84376413e-07
-3.7007765e-07
-3.64126645e-07
-3.66370863e-07
-3.83996683e-07
-3.84165431e-07
-3.84375072e-07
-3.72119333e-07
-3.64999779e-07
-3.67915504e-07
-3.85576298e-07
-3.84520806e-07
-3.73525329e-07
-3.65320867e-07
-3.6694972e-07
-3.84771883e-07
-3.84492619e-07
-3.73664337e-07
-3.65113587e-07
-3.65022873e-07
-3.65455068e-07
-3.65512146e-07
-3.66449781e-07
-3.83982348e-07
-3.84393124e-07
-3.75296541e-07
-3.65654114e-07
-3.67482379e-07
-3.85643241e-07
-3.8448627e-07
-3.75360954e-07
-3.65510752e-07
-3.66656652e-07
-3.8491246e-07
-3.84436958e-07
-3.74766346e-07
-3.65334191e-07
-3.64771494e-07
-3.65738913e-07
-3.83164929e-07
-3.84169173e-07
-3.76608085e-07
-3.67133608e-07
-3.74993376e-07
-3.85134951e-07
-3.74515431e-07
-3.66093596e-07
-3.74164301e-07
-3.85178091e-07
-3.74648218e-07
-3.65011825e-07
-3.64856922e-07
-3.81222126e-07
-3.84403149e-07
-3.73608823e-07
-3.6620791e-07
-3.76633769e-07
-3.8614558e-07
-3.69360189e-07
-3.6500906e-07
-3.74885493e-07
-3.85357764e-07
-3.73126881e-07
-3.64950087e-07
-3.65255522e-07
-3.84283455e-07
-3.8526723e-07
-3.70338597e-07
-3.65535926e-07
-3.76119444e-07
-3.85671521e-07
-3.71093818e-07
-3.64454336e-07
-3.64952087e-07
-3.84109328e-07
-3.85269179e-07
-3.70617105e-07
-3.66199963e-07
-3.7920056e-07
-3.86175681e-07
-3.6891383e-07
-3.66089724e-07
-3.80420451e-07
-3.86095398e-07
-3.68899995e-07
-3.66256821e-07
-3.81717472e-07
-3.86541493e-07
-3.6754273e-07
-3.65993348e-07
-3.81543325e-07
-3.86154012e-07
-3.68495921e-07
-3.64366165e-07
-3.6553426e-07
-3.85886829e-07
-3.85653693e-07
-3.68864246e-07
-3.66307665e-07
-3.81583064e-07
-3.85747842e-07
-3.68806698e-07
-3.66373673e-07
-3.82520853e-07
-3.85904794e-07
-3.68040393e-07
-3.64324392e-07
-3.65735071e-07
-3.85373464e-07
-3.85311806e-07
-3.68410661e-07
-3.66197257e-07
-3.81934372e-07
-3.85725439e-07
-3.68398952e-07
-3.64192639e-07
-3.65343051e-07
-3.8571362e-07
-3.85008189e-07
-3.6946609e-07
-3.66332133e-07
-3.8090417e-07
-3.85205658e-07
-3.70033475e-07
-3.6630065e-07
-3.80516872e-07
-3.8561981e-07
-3.7019023e-07
-3.64397562e-07
-3.64742029e-07
-3.86814685e-07
-3.84793678e-07
-3.71116313e-07
-3.66516883e-07
-3.78730878e-07
-3.85508163e-07
-3.72009434e-07
-3.65223772e-07
-3.65096392e-07
-3.64844581e-07
-3.64819844e-07
-3.84281457e-07
-3.84645198e-07
-3.73515345e-07
-3.67276422e-07
-3.77484975e-07
-3.85491997e-07
-3.75454593e-07
-3.65683917e-07
-3.65521906e-07
-3.83119863e-07
-3.84807135e-07
-3.76206906e-07
-3.65735578e-07
-3.65414787e-07
-3.80751797e-07
-3.85066209e-07
-3.76547886e-07
-3.65471921e-07
-3.64843494e-07
-3.78170302e-07
-3.85225419e-07
-3.77992582e-07
-3.66074267e-07
-3.65670513e-07
-3.80159059e-07
-3.84803906e-07
-3.79302544e-07
-3.66379388e-07
-3.65865028e-07
-3.79542208e-07
-3.84703756e-07
-3.79409995e-07
-3.66585056e-07
-3.65177764e-07
-3.64954426e-07
-3.76319002e-07
-3.84983238e-07
-3.7858559e-07
-3.67621682e-07
-3.72379504e-07
-3.85792408e-07
-3.80814782e-07
-3.66143453e-07
-3.653169e-07
-3.77119005e-07
-3.84981007e-07
-3.79505335e-07
-3.65914874e-07
-3.65068973e-07
-3.76252811e-07
-3.85053519e-07
-3.7921272e-07
-3.65815836e-07
-3.64992548e-07
-3.76374697e-07
-3.85014685e-07
-3.78972184e-07
-3.65746561e-07
-3.64967229e-07
-3.76276787e-07
-3.84917409e-07
-3.78504087e-07
-3.66107405e-07
-3.64824031e-07
-3.64744581e-07
-3.75500382e-07
-3.8500484e-07
-3.77370741e-07
-3.6702293e-07
-3.7298053e-07
-3.85403615e-07
-3.79243849e-07
-3.65240856e-07
-3.65047324e-07
-3.77849968e-07
-3.85152068e-07
-3.75682437e-07
-3.6734165e-07
-3.75145292e-07
-3.85586247e-07
-3.76250993e-07
-3.65115899e-07
-3.65287425e-07
-3.80127981e-07
-3.85756449e-07
-3.73109644e-07
-3.67169037e-07
-3.77033327e-07
-3.86265601e-07
-3.72647493e-07
-3.64826566e-07
-3.65501219e-07
-3.82687765e-07
-3.86537831e-07
-3.70843213e-07
-3.67400141e-07
-3.79738725e-07
-3.86678585e-07
-3.70073579e-07
-3.64872522e-07
-3.66038623e-07
-3.85795129e-07
-3.86293997e-07
-3.69429426e-07
-3.67852109e-07
-3.82389006e-07
-3.85796509e-07
-3.68430306e-07
-3.64947053e-07
-3.67622898e-07
-3.86801544e-07
-3.85035259e-07
-3.67380105e-07
-3.65017559e-07
-3.68468517e-07
-3.86725134e-07
-3.84639726e-07
-3.66814921e-07
-3.6501232e-07
-3.68730035e-07
-3.86456511e-07
-3.84702684e-07
-3.68109697e-07
-3.68371444e-07
-3.85424055e-07
-3.84734054e-07
-3.68097248e-07
-3.68655699e-07
-3.85697809e-07
-3.84366423e-07
-3.66298681e-07
-3.65018976e-07
-3.70416369e-07
-3.86084186e-07
-3.82280842e-07
-3.67751627e-07
-3.69578335e-07
-3.86639493e-07
-3.82337184e-07
-3.67883396e-07
-3.70119674e-07
-3.8664599e-07
-3.83935171e-07
-3.66123831e-07
-3.65554461e-07
-3.73444847e-07
-3.85511133e-07
-3.83450089e-07
-3.66105269e-07
-3.65430173e-07
-3.65493513e-07
-3.6574778e-07
-3.74237686e-07
-3.85441586e-07
-3.82819052e-07
-3.65989694e-07
-3.6592245e-07
-3.75128731e-07
-3.85427165e-07
-3.81846534e-07
-3.65676451e-07
-3.65707615e-07
-3.75343007e-07
-3.85785336e-07
-3.76882522e-07
-3.67980365e-07
-3.7463788e-07
-3.86441526e-07
-3.74452463e-07
-3.67400312e-07
-3.76732448e-07
-3.86050238e-07
-3.73346146e-07
-3.66598531e-07
-3.73280868e-07
-3.85895543e-07
-3.79502337e-07
-3.65249482e-07
-3.65394347e-07
-3.76090233e-07
-3.85802404e-07
-3.76972642e-07
-3.65200779e-07
-3.65534593e-07
-3.76975482e-07
-3.85764354e-07
-3.76353684e-07
-3.65255104e-07
-3.65685641e-07
-3.77757173e-07
-3.85775834e-07
-3.75523375e-07
-3.6536845e-07
-3.65957318e-07
-3.7972463e-07
-3.85952444e-07
-3.72967061e-07
-3.66948806e-07
-3.75398376e-07
-3.858782e-07
-3.75603795e-07
-3.65369179e-07
-3.66080429e-07
-3.81499612e-07
-3.86178762e-07
-3.71304698e-07
-3.66847781e-07
-3.7678959e-07
-3.85776233e-07
-3.74957726e-07
-3.65282272e-07
-3.65963251e-07
-3.80079177e-07
-3.85825349e-07
-3.7364874e-07
-3.65355141e-07
-3.66228447e-07
-3.81545881e-07
-3.84199438e-07
-3.85986323e-07
-3.7158999e-07
-3.65040908e-07
-3.65031411e-07
-3.65169687e-07
-3.66212116e-07
-3.80541375e-07
-3.84121017e-07
-3.85965038e-07
-3.71076322e-07
-3.65484617e-07
-3.66434274e-07
-3.81855309e-07
-3.8537985e-07
)
;

boundaryField
{
    closed
    {
        type            calculated;
        value           uniform -5.12989556e-07;
    }
    open
    {
        type            calculated;
        value           nonuniform List<scalar> 0();
    }
    sides
    {
        type            empty;
    }
    procBoundary0to1
    {
        type            processor;
        value           uniform -3.74674776e-07;
    }
}


// ************************************************************************* //
