/*--------------------------------*- C++ -*----------------------------------*\
| =========                 |                                                 |
| \\      /  F ield         | OpenFOAM: The Open Source CFD Toolbox           |
|  \\    /   O peration     | Version:  2306                                  |
|   \\  /    A nd           | Website:  www.openfoam.com                      |
|    \\/     M anipulation  |                                                 |
\*---------------------------------------------------------------------------*/
FoamFile
{
    version     2.0;
    format      ascii;
    arch        "LSB;label=32;scalar=64";
    class       volScalarField;
    location    "0.00148";
    object      prefDZ_H2O;
}
// * * * * * * * * * * * * * * * * * * * * * * * * * * * * * * * * * * * * * //

dimensions      [1 -1 -1 0 0 0 0];

internalField   nonuniform List<scalar> 
530
(
-7.75257549e-07
-7.53796395e-07
-7.52036323e-07
-7.5207563e-07
-7.52079946e-07
-7.52080021e-07
-7.52080021e-07
-7.52080022e-07
-7.52080022e-07
-7.52080022e-07
-7.52080022e-07
-7.52080022e-07
-7.52080022e-07
-7.52080022e-07
-7.52080022e-07
-7.52080022e-07
-7.52080022e-07
-7.52080022e-07
-7.52080022e-07
-7.52080022e-07
-7.52080022e-07
-7.52080022e-07
-7.52080022e-07
-7.52080022e-07
-7.52080022e-07
-7.52080022e-07
-7.52080022e-07
-7.52080022e-07
-7.52080022e-07
-7.52080022e-07
-7.52080022e-07
-7.52080022e-07
-7.52080022e-07
-7.52080022e-07
-7.52080022e-07
-7.52080022e-07
-7.52080022e-07
-7.52080022e-07
-7.52080022e-07
-7.52080022e-07
-7.52080022e-07
-7.52080022e-07
-7.52080022e-07
-7.52080022e-07
-7.52080022e-07
-7.52080022e-07
-7.52080022e-07
-7.52080022e-07
-7.52080022e-07
-7.52080022e-07
-7.52080022e-07
-7.52080022e-07
-7.52080022e-07
-7.52080022e-07
-7.52080022e-07
-7.52080022e-07
-7.52080022e-07
-7.52080022e-07
-7.52080022e-07
-7.52080022e-07
-7.52080022e-07
-7.52080022e-07
-7.52080021e-07
-7.52080021e-07
-7.52080021e-07
-7.52080021e-07
-7.5208002e-07
-7.52080018e-07
-7.52080024e-07
-7.52080027e-07
-7.52079867e-07
-7.52079953e-07
-7.52080833e-07
-7.5207919e-07
-7.52077142e-07
-7.52082141e-07
-7.5208648e-07
-7.52075641e-07
-7.52071514e-07
-7.52083225e-07
-7.52098323e-07
-7.52119208e-07
-7.52083724e-07
-7.51786462e-07
-7.51513374e-07
-7.51664987e-07
-7.54065582e-07
-7.5470075e-07
-7.52580243e-07
-7.41733265e-07
-7.38038273e-07
-7.37925258e-07
-7.5263765e-07
-7.74278989e-07
-7.73871702e-07
-7.74939964e-07
-7.58343937e-07
-7.36408752e-07
-7.36320504e-07
-7.36831468e-07
-7.36937601e-07
-7.35697114e-07
-7.42091202e-07
-7.74669164e-07
-7.73648136e-07
-7.74845798e-07
-7.74235307e-07
-7.74764859e-07
-7.60266573e-07
-7.34469087e-07
-7.34481304e-07
-7.36127024e-07
-7.36356769e-07
-7.36413096e-07
-7.53065759e-07
-7.74658914e-07
-7.73943126e-07
-7.74607341e-07
-7.74330271e-07
-7.7450597e-07
-7.61693602e-07
-7.34820157e-07
-7.34597424e-07
-7.36206005e-07
-7.36640249e-07
-7.36717093e-07
-7.47365701e-07
-7.76837142e-07
-7.73601306e-07
-7.79203039e-07
-7.35513766e-07
-7.34107807e-07
-7.35857873e-07
-7.51628169e-07
-7.753098e-07
-7.72944672e-07
-7.73851654e-07
-7.45450629e-07
-7.36001434e-07
-7.36011344e-07
-7.43208836e-07
-7.76487986e-07
-7.73976465e-07
-7.39520153e-07
-7.34591294e-07
-7.42170177e-07
-7.77570695e-07
-7.73570835e-07
-7.4602624e-07
-7.3940917e-07
-7.72389878e-07
-7.74584384e-07
-7.45202893e-07
-7.35779468e-07
-7.43017522e-07
-7.79225345e-07
-7.74879785e-07
-7.46054338e-07
-7.3405747e-07
-7.38581677e-07
-7.74114272e-07
-7.74454459e-07
-7.74877082e-07
-7.50170249e-07
-7.35817654e-07
-7.41695581e-07
-7.77298683e-07
-7.75170873e-07
-7.53004652e-07
-7.3646495e-07
-7.39748618e-07
-7.7567703e-07
-7.7511405e-07
-7.53284884e-07
-7.36047084e-07
-7.35864211e-07
-7.3673549e-07
-7.36850556e-07
-7.38740771e-07
-7.74085374e-07
-7.74913474e-07
-7.56575309e-07
-7.37136754e-07
-7.40822427e-07
-7.77433636e-07
-7.75101251e-07
-7.56705162e-07
-7.36847745e-07
-7.39157812e-07
-7.75960425e-07
-7.75001842e-07
-7.55506467e-07
-7.36491808e-07
-7.35357446e-07
-7.37307705e-07
-7.72437507e-07
-7.74462002e-07
-7.59219302e-07
-7.40119326e-07
-7.55964146e-07
-7.76408953e-07
-7.55000638e-07
-7.38022724e-07
-7.5429278e-07
-7.7649592e-07
-7.55268329e-07
-7.35841938e-07
-7.35529664e-07
-7.68520933e-07
-7.74933684e-07
-7.53172971e-07
-7.38253173e-07
-7.59271081e-07
-7.78446321e-07
-7.44607979e-07
-7.35836364e-07
-7.55746661e-07
-7.7685813e-07
-7.52201404e-07
-7.35717479e-07
-7.36333218e-07
-7.74692388e-07
-7.76675619e-07
-7.46580392e-07
-7.36898495e-07
-7.58234233e-07
-7.77490647e-07
-7.48102871e-07
-7.34718075e-07
-7.3572151e-07
-7.74341359e-07
-7.76679548e-07
-7.47141847e-07
-7.38237153e-07
-7.64445576e-07
-7.78507002e-07
-7.43708147e-07
-7.38014917e-07
-7.66904805e-07
-7.78345157e-07
-7.43680255e-07
-7.38351775e-07
-7.69519521e-07
-7.79244457e-07
-7.4094409e-07
-7.37820631e-07
-7.6916845e-07
-7.78463319e-07
-7.42865666e-07
-7.34540327e-07
-7.36895136e-07
-7.77924694e-07
-7.77454706e-07
-7.43608187e-07
-7.38454275e-07
-7.69248561e-07
-7.77644505e-07
-7.43492176e-07
-7.38587342e-07
-7.71139088e-07
-7.7796091e-07
-7.41947351e-07
-7.34456116e-07
-7.37299958e-07
-7.76889781e-07
-7.76765483e-07
-7.42693788e-07
-7.38231699e-07
-7.69956777e-07
-7.77599341e-07
-7.42670184e-07
-7.34190509e-07
-7.3650967e-07
-7.77575515e-07
-7.76153408e-07
-7.44821469e-07
-7.385036e-07
-7.67879952e-07
-7.76551494e-07
-7.45965283e-07
-7.38440133e-07
-7.67099183e-07
-7.77386399e-07
-7.46281293e-07
-7.34603622e-07
-7.35298045e-07
-7.79795195e-07
-7.75720967e-07
-7.48148219e-07
-7.38876044e-07
-7.63498727e-07
-7.77161326e-07
-7.49948698e-07
-7.3626921e-07
-7.36012421e-07
-7.35504785e-07
-7.35454917e-07
-7.74688361e-07
-7.75421641e-07
-7.52984524e-07
-7.40407229e-07
-7.60987061e-07
-7.77128737e-07
-7.56893932e-07
-7.37196836e-07
-7.36870232e-07
-7.72346657e-07
-7.75748095e-07
-7.58410551e-07
-7.37300982e-07
-7.36654285e-07
-7.67572778e-07
-7.76270374e-07
-7.59097945e-07
-7.36769464e-07
-7.35502593e-07
-7.62368639e-07
-7.7659133e-07
-7.62010367e-07
-7.37983758e-07
-7.37169814e-07
-7.66377853e-07
-7.75741585e-07
-7.64651171e-07
-7.38598864e-07
-7.37561945e-07
-7.65134319e-07
-7.75539691e-07
-7.64867785e-07
-7.39013478e-07
-7.36176461e-07
-7.35726225e-07
-7.58636528e-07
-7.76103108e-07
-7.63205835e-07
-7.41103253e-07
-7.50694738e-07
-7.77734347e-07
-7.67699751e-07
-7.38123234e-07
-7.36456952e-07
-7.60249287e-07
-7.7609861e-07
-7.65059984e-07
-7.37662432e-07
-7.35957145e-07
-7.58503091e-07
-7.76244792e-07
-7.6447009e-07
-7.37462776e-07
-7.35803076e-07
-7.58748807e-07
-7.76166503e-07
-7.63985184e-07
-7.37323122e-07
-7.35752035e-07
-7.58551426e-07
-7.75970402e-07
-7.63041529e-07
-7.38050562e-07
-7.35463357e-07
-7.35303191e-07
-7.56986241e-07
-7.76146657e-07
-7.60756772e-07
-7.39896206e-07
-7.51906369e-07
-7.76950563e-07
-7.64532845e-07
-7.36303651e-07
-7.35913503e-07
-7.61722864e-07
-7.7644346e-07
-7.57353251e-07
-7.40538725e-07
-7.56270401e-07
-7.77318739e-07
-7.58499426e-07
-7.36051746e-07
-7.36397531e-07
-7.66315202e-07
-7.77661855e-07
-7.52166655e-07
-7.40190748e-07
-7.60076565e-07
-7.78688276e-07
-7.51234986e-07
-7.35468467e-07
-7.36828528e-07
-7.71475573e-07
-7.79237075e-07
-7.47597668e-07
-7.4065664e-07
-7.65530486e-07
-7.79520827e-07
-7.46046132e-07
-7.35561112e-07
-7.37911901e-07
-7.77739833e-07
-7.78745521e-07
-7.44747558e-07
-7.4156778e-07
-7.70873292e-07
-7.77742615e-07
-7.42733391e-07
-7.35711363e-07
-7.41105705e-07
-7.79768705e-07
-7.7620798e-07
-7.40616248e-07
-7.35853498e-07
-7.42810423e-07
-7.79614667e-07
-7.7541061e-07
-7.39476872e-07
-7.35842936e-07
-7.43337627e-07
-7.79073139e-07
-7.75537529e-07
-7.42087062e-07
-7.42614728e-07
-7.7699177e-07
-7.75600769e-07
-7.42061967e-07
-7.4318777e-07
-7.77543641e-07
-7.74859646e-07
-7.38436163e-07
-7.35856354e-07
-7.46737174e-07
-7.78322554e-07
-7.70655241e-07
-7.41365215e-07
-7.45047749e-07
-7.79442019e-07
-7.70768822e-07
-7.41630853e-07
-7.46139055e-07
-7.79455117e-07
-7.73990268e-07
-7.38083676e-07
-7.36935861e-07
-7.52842405e-07
-7.77167313e-07
-7.73012373e-07
-7.38046257e-07
-7.36685304e-07
-7.36812992e-07
-7.3732558e-07
-7.54440721e-07
-7.7702711e-07
-7.7174024e-07
-7.37813263e-07
-7.37677703e-07
-7.56237014e-07
-7.76998039e-07
-7.69779702e-07
-7.37181785e-07
-7.3724461e-07
-7.56668982e-07
-7.77720091e-07
-7.59772552e-07
-7.41826337e-07
-7.55247487e-07
-7.79042929e-07
-7.54873698e-07
-7.40656984e-07
-7.59470012e-07
-7.78254116e-07
-7.5264343e-07
-7.39040642e-07
-7.52511833e-07
-7.77942261e-07
-7.65053942e-07
-7.36321041e-07
-7.36613081e-07
-7.58175344e-07
-7.77754499e-07
-7.59954228e-07
-7.36222858e-07
-7.36895808e-07
-7.59959954e-07
-7.77677791e-07
-7.58706445e-07
-7.36332375e-07
-7.37200311e-07
-7.61535796e-07
-7.77700935e-07
-7.57032593e-07
-7.36560872e-07
-7.37747996e-07
-7.6550207e-07
-7.78056969e-07
-7.51879218e-07
-7.39746776e-07
-7.56780602e-07
-7.77907299e-07
-7.57194714e-07
-7.36562344e-07
-7.37996181e-07
-7.69080328e-07
-7.78513214e-07
-7.48527992e-07
-7.39543115e-07
-7.59585206e-07
-7.7770174e-07
-7.55892279e-07
-7.36387144e-07
-7.37759956e-07
-7.66216816e-07
-7.77800754e-07
-7.53253441e-07
-7.36534043e-07
-7.38294575e-07
-7.69173603e-07
-7.74523015e-07
-7.78125268e-07
-7.49103124e-07
-7.35900569e-07
-7.35881422e-07
-7.36160178e-07
-7.38261653e-07
-7.6714858e-07
-7.74364922e-07
-7.78082359e-07
-7.48067601e-07
-7.36795058e-07
-7.38709511e-07
-7.69797392e-07
-7.76902655e-07
)
;

boundaryField
{
    closed
    {
        type            calculated;
        value           uniform -1.03415617e-06;
    }
    open
    {
        type            calculated;
        value           nonuniform List<scalar> 0();
    }
    sides
    {
        type            empty;
    }
    procBoundary0to1
    {
        type            processor;
        value           uniform -7.55321868e-07;
    }
}


// ************************************************************************* //
