/*--------------------------------*- C++ -*----------------------------------*\
| =========                 |                                                 |
| \\      /  F ield         | OpenFOAM: The Open Source CFD Toolbox           |
|  \\    /   O peration     | Version:  2306                                  |
|   \\  /    A nd           | Website:  www.openfoam.com                      |
|    \\/     M anipulation  |                                                 |
\*---------------------------------------------------------------------------*/
FoamFile
{
    version     2.0;
    format      ascii;
    arch        "LSB;label=32;scalar=64";
    class       volScalarField;
    location    "0.00164";
    object      H;
}
// * * * * * * * * * * * * * * * * * * * * * * * * * * * * * * * * * * * * * //

dimensions      [0 0 0 0 0 0 0];

internalField   nonuniform List<scalar> 
530
(
1.20373798e-05
1.8959185e-05
2.82028669e-10
2.83216149e-10
1.19608153e-05
1.61748314e-05
3.1028824e-10
3.09009314e-10
1.17920682e-05
1.36574476e-05
3.33807595e-10
3.33219796e-10
1.1941892e-05
1.11809225e-05
3.54811758e-10
3.53354506e-10
1.24453958e-05
9.06900997e-06
3.72738148e-10
3.74018241e-10
1.25952502e-05
7.91841625e-06
3.97321078e-10
3.98630501e-10
1.17279631e-05
7.61518753e-06
4.24173664e-10
4.23598607e-10
1.0899887e-05
7.264394e-06
4.52743705e-10
4.50173721e-10
1.02739649e-05
6.82096043e-06
4.79780143e-10
4.7697701e-10
9.79835479e-06
6.42299293e-06
5.06048272e-10
5.03381036e-10
9.38953854e-06
6.07254491e-06
1.72587549e-08
5.29607002e-10
9.03364972e-06
5.71554521e-06
6.78731941e-08
5.54049669e-10
8.75825467e-06
5.39480072e-06
8.47569863e-08
5.85960572e-10
8.24372268e-06
5.51960033e-06
3.30389612e-08
1.91709384e-08
7.74470264e-06
5.56736638e-06
6.3968547e-10
6.43243481e-10
7.45224994e-06
5.54380852e-06
6.64521999e-10
6.67590552e-10
7.19202335e-06
5.63361793e-06
6.87948482e-10
6.90577438e-10
6.96806193e-06
5.6511447e-06
7.10808462e-10
7.12502035e-10
6.78173283e-06
5.59229572e-06
7.33109538e-10
7.3427361e-10
6.61955066e-06
5.49158031e-06
7.54881374e-10
7.56564189e-10
6.46611549e-06
5.36742577e-06
7.86535715e-10
7.87972768e-10
6.30347676e-06
5.26133038e-06
8.17800313e-10
8.1875431e-10
6.23739969e-06
5.15111322e-06
8.50019869e-10
8.50096179e-10
6.16033901e-06
5.06665891e-06
8.82274955e-10
8.82682026e-10
6.0489375e-06
4.86438956e-06
9.14345888e-10
9.15902528e-10
5.95314817e-06
4.68702877e-06
9.46905331e-10
9.48796757e-10
5.74101394e-06
4.57956776e-06
9.79834231e-10
9.81598665e-10
5.55881365e-06
4.40473266e-06
1.01243773e-09
1.01442234e-09
5.48004706e-06
4.2262654e-06
1.05489052e-09
1.05870547e-09
5.34390643e-06
4.09110095e-06
1.09857916e-09
1.10284607e-09
5.23031617e-06
4.00123634e-06
1.14177584e-09
1.14629996e-09
5.08062373e-06
3.9504883e-06
1.18388672e-09
1.18918879e-09
4.97544049e-06
3.86545978e-06
1.22654553e-09
1.23230786e-09
4.85939269e-06
3.78870249e-06
1.26947038e-09
1.27536742e-09
4.74576873e-06
3.69328727e-06
1.31259211e-09
1.31871773e-09
4.65068305e-06
3.59828617e-06
1.35576787e-09
1.36241573e-09
4.55898935e-06
3.49855438e-06
1.41075738e-09
1.41988258e-09
4.47741622e-06
3.39859213e-06
1.46988779e-09
1.47968459e-09
4.39283979e-06
3.3102196e-06
1.52944459e-09
1.53978147e-09
4.30278935e-06
3.22253875e-06
1.59196468e-09
1.60020701e-09
4.24577567e-06
3.14907353e-06
1.65727846e-09
1.66397661e-09
4.09906019e-06
3.07694733e-06
1.7245513e-09
1.73059949e-09
3.9151235e-06
2.98352768e-06
1.79414129e-09
1.79888753e-09
3.74689639e-06
2.90137526e-06
1.8653205e-09
1.8707715e-09
3.58942145e-06
2.74276191e-06
1.95956644e-09
1.96343701e-09
3.54079179e-06
2.64320222e-06
2.0473372e-09
2.05687487e-09
3.47455273e-06
2.55250249e-06
2.13845614e-09
2.14954789e-09
3.32827008e-06
2.50101107e-06
2.22857934e-09
2.24117444e-09
3.20464027e-06
2.46480583e-06
2.3135439e-09
2.32767913e-09
3.14168399e-06
2.45109895e-06
2.39693093e-09
2.40846356e-09
3.07482485e-06
2.47434345e-06
2.47793179e-09
2.48847525e-09
3.03940104e-06
2.44989114e-06
2.5588717e-09
2.57417299e-09
3.04695983e-06
2.4021369e-06
2.65902445e-09
2.6793809e-09
3.05759554e-06
2.3416605e-06
2.75911488e-09
2.7843262e-09
3.05433514e-06
2.27182763e-06
2.85975365e-09
2.88842022e-09
3.03504001e-06
2.19890684e-06
2.96063206e-09
2.99206775e-09
3.00336762e-06
2.12451142e-06
3.06299686e-09
3.09402161e-09
2.96418618e-06
2.05827929e-06
3.1660811e-09
3.19717396e-09
2.91021529e-06
1.99379088e-06
3.26915668e-09
3.30172395e-09
2.85201345e-06
1.91630862e-06
3.37218405e-09
3.40612796e-09
2.78638684e-06
1.84760176e-06
3.47526737e-09
3.50978062e-09
2.70521582e-06
1.78731199e-06
3.59329354e-09
3.63980132e-09
2.6044913e-06
1.73235277e-06
3.7356524e-09
3.77738534e-09
2.48945012e-06
1.67560292e-06
3.8771463e-09
3.91519442e-09
2.37023605e-06
1.61236711e-06
4.01631276e-09
4.05321012e-09
2.26998242e-06
1.54823586e-06
4.15273352e-09
4.19031796e-09
2.19817231e-06
1.49574818e-06
4.28469767e-09
4.3243329e-09
2.1654109e-06
1.47783717e-06
4.40975338e-09
4.45491481e-09
2.17785236e-06
1.43410462e-06
4.52510417e-09
4.57613499e-09
2.23786581e-06
1.40345946e-06
4.63593525e-09
4.70445724e-09
2.26943635e-06
1.34682921e-06
4.75014436e-09
4.83161758e-09
2.25229789e-06
1.27892729e-06
4.87080923e-09
4.95782489e-09
2.17267775e-06
1.21056927e-06
4.99972716e-09
5.08171304e-09
2.03390587e-06
1.19057407e-06
5.13573402e-09
5.21132628e-09
1.84436542e-06
1.15631695e-06
5.30513465e-09
5.37089663e-09
1.5984353e-06
1.14284203e-06
5.48088166e-09
5.51976775e-09
1.38393467e-06
1.11718326e-06
5.64702714e-09
5.66407725e-09
1.28142487e-06
1.09111777e-06
5.79575746e-09
5.80471371e-09
1.23444776e-06
1.04860627e-06
5.94161456e-09
5.94406383e-09
1.19280469e-06
1.00946906e-06
6.078283e-09
6.08382982e-09
1.16324528e-06
9.67467058e-07
6.21259647e-09
6.2190027e-09
1.1258371e-06
9.28072605e-07
6.34079514e-09
6.34502417e-09
1.10066211e-06
8.82122324e-07
6.46410448e-09
6.4688721e-09
1.07933316e-06
8.59929941e-07
6.57943875e-09
6.58982025e-09
1.04490787e-06
8.20464058e-07
6.69649794e-09
6.70591043e-09
1.01375569e-06
7.88562207e-07
6.80886963e-09
6.81785074e-09
9.53794503e-07
7.65462168e-07
6.91854917e-09
6.92627974e-09
8.94075399e-07
7.32065897e-07
7.02717024e-09
7.03272883e-09
8.41548423e-07
6.95180275e-07
7.1311011e-09
7.13598915e-09
7.94621136e-07
6.57657557e-07
7.23115624e-09
7.23605459e-09
7.50188192e-07
6.20502201e-07
7.32760829e-09
7.33268649e-09
7.07514889e-07
5.84332214e-07
7.42045459e-09
7.4257948e-09
6.66858345e-07
5.49272736e-07
7.50982029e-09
7.51527819e-09
6.27996443e-07
5.15922035e-07
7.59553953e-09
7.60116709e-09
5.90521067e-07
4.84314993e-07
7.67764452e-09
7.68313084e-09
5.55007272e-07
4.5464942e-07
7.75593218e-09
7.76159022e-09
5.21518839e-07
4.25314638e-07
7.83096156e-09
7.83696473e-09
4.89000987e-07
3.96949842e-07
7.90252456e-09
7.90877135e-09
4.57997031e-07
3.70357263e-07
7.97712938e-09
7.98500424e-09
4.282515e-07
3.45676372e-07
8.05164262e-09
8.0592341e-09
3.99536203e-07
3.2289691e-07
8.12234727e-09
8.12932635e-09
3.71816451e-07
3.01856227e-07
8.1893142e-09
8.19543062e-09
3.45189117e-07
2.82271052e-07
8.25258535e-09
8.25773443e-09
3.19781933e-07
2.63843886e-07
8.31222403e-09
8.31639209e-09
2.95700803e-07
2.46222911e-07
8.36830814e-09
8.37179139e-09
2.72925877e-07
2.28984647e-07
8.42097681e-09
8.42391271e-09
2.52481576e-07
2.12842136e-07
8.46982305e-09
8.4725397e-09
2.35019316e-07
1.969739e-07
8.51490097e-09
8.51805546e-09
2.20000219e-07
1.81475119e-07
8.55710878e-09
8.56051673e-09
2.04591064e-07
1.68883286e-07
8.59695031e-09
8.59996013e-09
1.87105094e-07
1.57547882e-07
8.63444356e-09
8.63687513e-09
1.7101078e-07
1.45573049e-07
8.67058014e-09
8.67332123e-09
1.51856301e-07
1.28644771e-07
8.71125066e-09
8.71328783e-09
1.28129038e-07
1.04107603e-07
4.65056232e-08
3.60943504e-08
7.46097363e-08
6.21247745e-08
6.22914505e-08
5.23873787e-08
6.00190737e-08
5.18397976e-08
5.60983313e-08
4.9380107e-08
5.22359951e-08
4.67208209e-08
4.83141981e-08
4.36994568e-08
4.43834731e-08
4.03567668e-08
4.04960779e-08
3.67294601e-08
3.67224455e-08
3.28516727e-08
3.2999789e-08
2.89589052e-08
2.92586461e-08
2.5285683e-08
2.56083445e-08
2.1894776e-08
2.21407912e-08
1.88654735e-08
1.89482258e-08
1.62536518e-08
1.61251845e-08
1.40758576e-08
1.37515243e-08
1.23130692e-08
1.18676642e-08
1.09221608e-08
1.04570594e-08
9.83989059e-09
9.44758348e-09
9.02859717e-09
9.02823863e-09
9.02793911e-09
9.0277403e-09
9.02760479e-09
9.0275259e-09
9.02748186e-09
9.02745732e-09
9.02744553e-09
9.02744064e-09
9.02743874e-09
9.02743806e-09
9.02743784e-09
9.02743777e-09
9.02743775e-09
9.02743775e-09
9.02743775e-09
9.02743774e-09
9.02743774e-09
9.02743774e-09
9.02743774e-09
9.02743774e-09
9.02743774e-09
9.02743774e-09
9.02743774e-09
9.02743774e-09
9.02743774e-09
9.02743774e-09
9.02743774e-09
9.02743774e-09
9.02743774e-09
9.02743774e-09
9.02743774e-09
9.02743774e-09
9.02743774e-09
9.02743774e-09
9.02743774e-09
)
;

boundaryField
{
    closed
    {
        type            calculated;
        value           nonuniform List<scalar> 0();
    }
    open
    {
        type            calculated;
        value           uniform 9.02743774e-09;
    }
    sides
    {
        type            empty;
    }
    procBoundary5to4
    {
        type            processor;
        value           uniform 2.55866803e-10;
    }
}


// ************************************************************************* //
