/*--------------------------------*- C++ -*----------------------------------*\
| =========                 |                                                 |
| \\      /  F ield         | OpenFOAM: The Open Source CFD Toolbox           |
|  \\    /   O peration     | Version:  2306                                  |
|   \\  /    A nd           | Website:  www.openfoam.com                      |
|    \\/     M anipulation  |                                                 |
\*---------------------------------------------------------------------------*/
FoamFile
{
    version     2.0;
    format      ascii;
    arch        "LSB;label=32;scalar=64";
    class       volScalarField;
    location    "0.00164";
    object      H2O;
}
// * * * * * * * * * * * * * * * * * * * * * * * * * * * * * * * * * * * * * //

dimensions      [0 0 0 0 0 0 0];

internalField   nonuniform List<scalar> 
530
(
0.12444253
0.124400039
0.125854555
0.125814395
0.12465519
0.12466586
0.126037691
0.125972478
0.124855531
0.12490119
0.126163478
0.126109037
0.125013322
0.125118503
0.126257665
0.126203079
0.125124868
0.125322512
0.126319407
0.126292918
0.125228036
0.125458951
0.126393554
0.126372893
0.125363785
0.125537871
0.126454235
0.126434814
0.125477036
0.125613805
0.126514922
0.126487629
0.125565073
0.1256933
0.126561939
0.126533468
0.125633454
0.125758176
0.126598201
0.126571304
0.125689286
0.125810133
0.126611796
0.126601846
0.125732851
0.125854501
0.126593483
0.126617845
0.125764388
0.125890256
0.126588313
0.126628636
0.125803185
0.125896412
0.126610002
0.126617574
0.125825091
0.125904685
0.126609318
0.1266154
0.125819984
0.125905886
0.12658071
0.126588562
0.12580964
0.125879529
0.126547018
0.126554662
0.125793959
0.125853312
0.12651231
0.12651594
0.125773163
0.125828101
0.126476073
0.126476562
0.125748749
0.125802036
0.126438233
0.126437782
0.125721798
0.125776649
0.126400535
0.126397936
0.125694065
0.125749467
0.126359558
0.1263549
0.125657833
0.125721182
0.126320402
0.126313853
0.12562505
0.125687515
0.126281599
0.126276862
0.12560088
0.125669408
0.126243956
0.126241982
0.125573979
0.125650401
0.126209342
0.1262083
0.125552821
0.125625502
0.126176381
0.126175734
0.125533625
0.125605567
0.126144373
0.126143101
0.125506449
0.125585631
0.126111553
0.126112875
0.125484838
0.125563421
0.126077903
0.126080942
0.125463348
0.125539279
0.126043695
0.12604867
0.125446333
0.125514021
0.126008183
0.12601623
0.125426561
0.125493095
0.125976892
0.125986673
0.125408749
0.125472341
0.125948684
0.125959222
0.1253928
0.125455177
0.125923282
0.125934587
0.125377995
0.125440305
0.125899942
0.125913161
0.125365656
0.125428301
0.125879328
0.125894614
0.125355142
0.125418949
0.125861916
0.125878799
0.125347647
0.125411633
0.125847667
0.125865793
0.125343516
0.125407044
0.12584032
0.125854994
0.125340258
0.125404023
0.125840496
0.125851153
0.125353754
0.125411278
0.125847018
0.125855362
0.12537193
0.125427565
0.125860328
0.125864739
0.125391233
0.125445108
0.125875695
0.125878886
0.125412831
0.125472998
0.125897997
0.125897005
0.125430956
0.125497297
0.125909421
0.125918422
0.12545433
0.125524481
0.125928735
0.12594167
0.125486951
0.125551691
0.125949478
0.125965061
0.12552618
0.125581567
0.125966899
0.125985402
0.125549994
0.125607943
0.125985447
0.126001261
0.125578668
0.125628631
0.126003876
0.126018413
0.125607882
0.12565809
0.126022735
0.126039895
0.125636616
0.12569276
0.12604237
0.12606602
0.125667954
0.125731445
0.126065955
0.126095946
0.125702901
0.12577361
0.1260945
0.126128695
0.125741437
0.125818638
0.126127618
0.126164547
0.125783146
0.125866018
0.126166115
0.126202029
0.125827591
0.125914535
0.126207657
0.126243898
0.125879844
0.125964907
0.126251854
0.126289933
0.125934914
0.126021361
0.12629882
0.126338707
0.125992049
0.126078406
0.126348665
0.12638913
0.126051683
0.126135876
0.126402138
0.12644086
0.12611393
0.126194034
0.126459668
0.126494341
0.126178491
0.126253296
0.126518618
0.126550049
0.126244387
0.12631404
0.126577476
0.126607739
0.126309654
0.126375541
0.126635483
0.126666384
0.126373274
0.126436648
0.126691086
0.126723758
0.126434381
0.126495478
0.126742191
0.12677924
0.126492806
0.126558687
0.126787116
0.126829204
0.126548612
0.126620621
0.126829968
0.126886619
0.126607588
0.126685303
0.126877928
0.12694489
0.126670713
0.126751004
0.126933492
0.12700408
0.126738304
0.126818462
0.12699787
0.127063248
0.126809376
0.126887944
0.127070005
0.127123416
0.126883133
0.12696061
0.127151178
0.127193104
0.126959245
0.127024733
0.127234323
0.12725749
0.127032383
0.127092773
0.127312348
0.127319921
0.127105064
0.127160659
0.127379829
0.12738127
0.127177692
0.127233007
0.127446263
0.12744308
0.127248231
0.127303155
0.12750806
0.127505917
0.127313786
0.127373323
0.12756952
0.127567497
0.127380998
0.127441881
0.127628247
0.127624788
0.127443661
0.127511523
0.127685123
0.127681769
0.127504317
0.127572802
0.127737828
0.127738164
0.127568211
0.127638329
0.127793005
0.127792505
0.127629616
0.127700409
0.127846516
0.127846177
0.127698454
0.127758512
0.127899207
0.127898602
0.127766141
0.127818345
0.127952447
0.1279507
0.127830427
0.127877873
0.12800392
0.128001949
0.127891772
0.12793625
0.128054021
0.128052306
0.127951089
0.127993212
0.128102926
0.128101568
0.128008592
0.128048566
0.128150633
0.128149616
0.128064193
0.128102281
0.128197193
0.12819641
0.128117938
0.128154177
0.128242435
0.12824193
0.128169668
0.128204195
0.128286334
0.128285973
0.128219488
0.1282521
0.128328733
0.128328717
0.128267388
0.128298592
0.128369938
0.128370345
0.128313719
0.128343521
0.128409799
0.128410524
0.12835832
0.128386643
0.12844827
0.128449187
0.128401255
0.12842793
0.128485378
0.128486351
0.128442586
0.128467389
0.128521141
0.128522024
0.128482327
0.128505064
0.128555562
0.128556225
0.12852047
0.128541042
0.128588636
0.128588994
0.128556999
0.128575423
0.128620356
0.128620389
0.128591895
0.128608345
0.128650697
0.128650568
0.128625185
0.128639941
0.12867967
0.128679469
0.128656568
0.128669992
0.128707059
0.128706937
0.128685914
0.128698813
0.128732904
0.128733065
0.128713414
0.128726431
0.128757589
0.128757936
0.128739884
0.1287521
0.128781241
0.128781609
0.128765852
0.128776334
0.128803925
0.128804248
0.128790113
0.128799596
0.128826148
0.128826844
0.128813554
0.12882269
0.128850819
0.128851651
0.128834441
0.128844584
0.128867694
0.128873771
0.128869018
0.128877062
0.128884126
0.128892228
0.12889713
0.128905559
0.128911827
0.128920552
0.128927627
0.128936602
0.128944485
0.128953635
0.128962254
0.128971422
0.128980743
0.128989663
0.128999737
0.129008663
0.129018771
0.129027795
0.1290373
0.129046068
0.129054799
0.129062992
0.129070713
0.129078022
0.129084539
0.129090697
0.129095897
0.129100732
0.129104607
0.12910809
0.129110745
0.129113007
0.129114647
0.129115955
0.129116848
0.129117506
0.129117755
0.129117893
0.129117961
0.129117991
0.129118
0.129118002
0.129118
0.129117998
0.129117997
0.129117997
0.129117996
0.129117996
0.129117996
0.129117996
0.129117996
0.129117996
0.129117996
0.129117996
0.129117996
0.129117996
0.129117996
0.129117996
0.129117996
0.129117996
0.129117996
0.129117996
0.129117996
0.129117996
0.129117996
0.129117996
0.129117996
0.129117996
0.129117996
0.129117996
0.129117996
0.129117996
)
;

boundaryField
{
    closed
    {
        type            calculated;
        value           nonuniform List<scalar> 0();
    }
    open
    {
        type            calculated;
        value           uniform 0.129117996;
    }
    sides
    {
        type            empty;
    }
    procBoundary5to4
    {
        type            processor;
        value           uniform 0.125635629;
    }
}


// ************************************************************************* //
