/*--------------------------------*- C++ -*----------------------------------*\
| =========                 |                                                 |
| \\      /  F ield         | OpenFOAM: The Open Source CFD Toolbox           |
|  \\    /   O peration     | Version:  2306                                  |
|   \\  /    A nd           | Website:  www.openfoam.com                      |
|    \\/     M anipulation  |                                                 |
\*---------------------------------------------------------------------------*/
FoamFile
{
    version     2.0;
    format      ascii;
    arch        "LSB;label=32;scalar=64";
    class       volScalarField;
    location    "0.00164";
    object      prefDh_H;
}
// * * * * * * * * * * * * * * * * * * * * * * * * * * * * * * * * * * * * * //

dimensions      [1 1 -3 0 0 0 0];

internalField   nonuniform List<scalar> 
530
(
82136.9969
82230.9945
82761.1884
82769.3762
82359.7999
82439.394
82969.7241
82960.2093
82560.5595
82631.7813
83139.2783
83135.4319
82739.0818
82813.8375
83288.3309
83278.8172
82889.0103
82990.7256
83414.316
83424.0439
83034.2885
83142.4985
83555.2735
83561.2406
83195.9084
83269.5243
83690.9948
83689.8013
83348.4178
83399.6396
83827.8621
83818.2452
83488.3176
83537.0144
83956.8694
83946.7187
83620.0209
83669.3242
84082.1372
84072.9061
83748.3308
83797.6076
84197.3557
84198.1825
83872.1933
83924.6112
84296.7473
84316.2669
83990.6467
84047.9822
84399.5511
84430.7503
84114.8237
84156.2581
84518.6473
84533.8339
84230.1063
84266.3427
84626.0419
84638.1608
84330.5073
84371.6959
84719.1345
84729.2146
84428.8109
84461.0288
84808.5708
84817.0194
84524.2747
84551.3087
84896.9559
84902.5595
84617.0743
84642.6359
84984.4352
84988.6159
84707.7759
84733.8951
85070.7643
85075.3641
84797.1089
84825.375
85156.7313
85160.5664
84885.8459
84915.3524
85240.9416
85243.4452
84970.8794
85004.4318
85328.4235
85328.5428
85058.552
85091.5819
85416.6247
85417.7211
85151.8006
85188.8483
85504.9338
85509.2359
85242.8781
85285.6884
85595.1583
85600.404
85338.1256
85378.4571
85686.9331
85691.8412
85434.3499
85474.3693
85778.3155
85783.8738
85525.6184
85570.2133
85868.393
85876.3153
85619.8193
85664.5353
85958.1143
85967.0123
85713.724
85757.4534
86047.3502
86056.7961
85809.5334
85848.9454
86134.8735
86145.9222
85902.9153
85942.6224
86224.0715
86236.0224
85996.7813
86035.2028
86314.2749
86326.4353
86091.0241
86129.2911
86405.2715
86417.823
86185.2596
86224.0071
86496.7181
86510.2227
86280.2425
86319.6443
86588.669
86603.3626
86375.3928
86416.144
86681.5028
86697.1632
86471.5506
86512.8886
86775.2994
86791.6889
86568.8424
86610.396
86873.9743
86886.9254
86666.6729
86708.8111
86977.0787
86987.5146
86774.3077
86812.6761
87083.1201
87092.4799
86884.2532
86921.2532
87192.4759
87199.8188
86994.1793
87029.5974
87301.8943
87308.4343
87104.8067
87143.162
87413.8956
87418.4519
87211.6174
87253.2715
87517.7249
87529.0675
87319.6509
87364.0876
87625.3013
87638.3831
87432.1832
87472.8319
87731.3428
87746.0427
87544.77
87580.1715
87831.0037
87847.3238
87644.3114
87680.9459
87928.4953
87941.663
87744.3124
87775.1622
88022.893
88034.8062
87841.4024
87872.6058
88114.5049
88128.5346
87935.2089
87970.6242
88203.6471
88222.1399
88028.0128
88068.4311
88292.5064
88315.1774
88120.465
88165.6365
88381.5559
88407.0533
88212.4673
88262.0999
88470.43
88498.0797
88303.6784
88357.2103
88560.137
88587.1259
88394.2198
88450.4076
88649.9261
88676.6716
88486.9167
88542.7208
88739.1176
88766.813
88578.872
88636.243
88827.638
88856.1723
88669.8418
88727.6288
88915.5382
88944.0892
88760.022
88816.876
89003.0035
89029.8523
88849.7749
88904.1272
89090.3713
89114.0425
88939.1214
88989.7488
89175.9688
89197.1884
89026.9808
89074.2443
89259.0351
89279.2806
89112.2618
89157.1223
89339.4498
89359.7159
89194.199
89237.6465
89416.3946
89437.408
89271.9755
89314.4582
89488.7109
89512.3036
89345.3464
89391.2972
89555.0397
89581.2896
89413.3694
89465.3635
89618.2424
89652.9644
89481.2319
89538.9596
89682.2751
89723.0186
89550.1777
89610.8437
89748.5788
89791.5911
89621.0379
89681.7942
89817.918
89858.0136
89693.5093
89751.9615
89889.5608
89922.8997
89767.098
89822.6915
89964.3072
89991.7163
89842.5523
89887.3542
90039.133
90055.2212
89913.705
89952.4437
90108.9685
90116.1155
89981.2377
90015.5721
90170.9042
90174.8069
90045.9727
90080.0764
90230.96
90232.2935
90107.7704
90141.5742
90286.6836
90289.3024
90165.1437
90201.8273
90340.8503
90343.8246
90222.2123
90259.5623
90392.0557
90394.1873
90275.0565
90316.7352
90440.8319
90443.183
90325.4357
90367.2471
90486.109
90490.5502
90376.4328
90419.6565
90531.5401
90535.614
90424.7526
90468.4653
90574.7495
90578.6033
90476.818
90513.5466
90616.5519
90619.88
90527.2335
90558.9847
90657.5366
90660.0383
90574.5533
90603.3262
90696.4094
90698.6406
90619.1111
90646.0735
90733.5141
90735.7166
90661.5615
90687.0972
90768.98
90771.2143
90702.0655
90726.3201
90802.8351
90805.1354
90740.6005
90763.765
90835.1533
90837.4697
90777.2539
90799.3321
90865.9087
90868.2578
90811.9865
90833.0453
90895.1419
90897.4096
90844.8834
90864.7849
90922.8091
90925.1035
90875.9918
90895.0836
90949.1296
90951.5124
90905.5832
90923.8591
90974.0531
90976.4931
90933.5712
90950.9877
90997.5801
91000.0072
90960.0529
90976.4771
91019.7963
91022.125
90985.1189
91000.3727
91040.7734
91042.9068
91008.8185
91022.7517
91060.5476
91062.4138
91031.1739
91043.7194
91079.1454
91080.7165
91052.2001
91063.3783
91096.5986
91097.8731
91071.9257
91081.8363
91112.9428
91114.0091
91090.4177
91099.2295
91128.2308
91129.1295
91107.502
91115.4486
91142.3539
91143.1816
91123.084
91130.7241
91155.3371
91156.2879
91137.3156
91145.0984
91167.4502
91168.4705
91150.8105
91158.0712
91178.8481
91179.7456
91163.9492
91170.0481
91189.5393
91190.2621
91176.053
91181.4523
91199.8126
91200.617
91188.0115
91193.189
91211.3586
91211.9469
91200.0825
91205.7884
91219.6296
91223.0599
91218.3817
91222.6192
91225.3255
91229.3618
91230.6947
91234.6631
91236.7226
91240.6147
91243.0257
91246.8268
91249.5516
91253.2394
91256.1953
91259.7159
91262.8379
91266.0924
91269.3604
91272.479
91275.5604
91278.5563
91281.2344
91283.966
91286.21
91288.5726
91290.3479
91292.2641
91293.5718
91295.0033
91295.8851
91296.8463
91297.3777
91297.9381
91298.215
91298.4853
91298.6047
91298.7102
91298.7522
91298.7775
91298.6672
91298.5766
91298.517
91298.4767
91298.4535
91298.4406
91298.4334
91298.43
91298.4286
91298.4281
91298.4279
91298.4278
91298.4278
91298.4278
91298.4278
91298.4278
91298.4278
91298.4278
91298.4278
91298.4278
91298.4278
91298.4278
91298.4278
91298.4278
91298.4278
91298.4278
91298.4278
91298.4278
91298.4278
91298.4278
91298.4278
91298.4278
91298.4278
91298.4278
91298.4278
91298.4278
)
;

boundaryField
{
    closed
    {
        type            calculated;
        value           nonuniform List<scalar> 0();
    }
    open
    {
        type            calculated;
        value           uniform 91298.4278;
    }
    sides
    {
        type            empty;
    }
    procBoundary5to4
    {
        type            processor;
        value           uniform 82561.7314;
    }
}


// ************************************************************************* //
