/*--------------------------------*- C++ -*----------------------------------*\
| =========                 |                                                 |
| \\      /  F ield         | OpenFOAM: The Open Source CFD Toolbox           |
|  \\    /   O peration     | Version:  2306                                  |
|   \\  /    A nd           | Website:  www.openfoam.com                      |
|    \\/     M anipulation  |                                                 |
\*---------------------------------------------------------------------------*/
FoamFile
{
    version     2.0;
    format      ascii;
    arch        "LSB;label=32;scalar=64";
    class       volScalarField;
    location    "0.00164";
    object      prefDh_H2;
}
// * * * * * * * * * * * * * * * * * * * * * * * * * * * * * * * * * * * * * //

dimensions      [1 1 -3 0 0 0 0];

internalField   nonuniform List<scalar> 
530
(
2956.72587
2967.86384
3008.63014
3009.32766
2977.47697
2986.4098
3028.14334
3027.1683
2996.18231
3003.53377
3043.98939
3043.55129
3012.92576
3019.68653
3057.90402
3056.94002
3027.10737
3035.43753
3069.64327
3070.5001
3040.73912
3049.18063
3082.88092
3083.41073
3055.64415
3060.91111
3095.67448
3095.52866
3069.67961
3072.92116
3108.59766
3107.64696
3082.60089
3085.65652
3120.76426
3119.76018
3094.80422
3097.93182
3132.56386
3131.64771
3106.70987
3109.8457
3143.41792
3143.43872
3118.21129
3121.63279
3152.80329
3154.52955
3129.22866
3133.09306
3162.57688
3165.39829
3140.68227
3143.33249
3173.7754
3175.19477
3151.31182
3153.704
3183.87422
3185.03428
3160.64948
3163.61335
3192.64374
3193.61404
3169.80097
3172.09859
3201.05502
3201.87048
3178.69694
3180.63049
3209.36251
3209.90064
3187.35403
3189.21954
3217.57885
3217.97593
3195.8203
3197.77727
3225.68195
3226.12201
3204.15789
3206.33528
3233.86345
3234.22725
3212.43347
3214.75299
3241.87342
3242.10646
3220.39292
3223.08147
3250.19697
3250.19854
3228.63702
3231.23311
3258.58742
3258.68514
3237.47192
3240.3725
3266.98748
3267.39643
3246.10349
3249.51069
3275.57341
3276.0741
3255.08045
3258.29808
3284.30823
3284.77714
3264.15162
3267.35172
3293.00487
3293.53491
3272.80198
3276.39868
3301.6667
3302.43591
3281.70818
3285.3266
3310.3053
3311.17156
3290.6024
3294.14772
3318.89382
3319.81614
3299.66702
3302.8562
3327.31221
3328.39465
3308.58542
3311.76786
3335.89724
3337.07001
3317.57996
3320.67096
3344.58265
3345.77719
3326.61832
3329.71518
3353.34773
3354.5817
3335.67292
3338.82672
3362.15826
3363.4881
3344.80906
3348.03183
3371.10144
3372.56281
3353.97374
3357.32785
3380.16089
3381.71983
3363.24226
3366.6618
3389.31846
3390.95126
3372.62635
3376.07799
3398.96371
3400.255
3382.10321
3385.59737
3409.05446
3410.09347
3392.59646
3395.73514
3419.44348
3420.37366
3403.3049
3406.37407
3430.16917
3430.8955
3414.03069
3417.00594
3440.91273
3441.56491
3424.84329
3428.11835
3452.03342
3452.4829
3435.35345
3438.93456
3462.32963
3463.46678
3445.98645
3449.83806
3473.01049
3474.32662
3457.0317
3460.57156
3483.54324
3485.02453
3468.1151
3471.18757
3493.44016
3495.08742
3478.01473
3481.22048
3503.12546
3504.45661
3487.97098
3490.66625
3512.50546
3513.71071
3497.66731
3500.41512
3521.61982
3523.05093
3507.07214
3510.21704
3530.57654
3532.46532
3516.38749
3520.00043
3539.51243
3541.83058
3525.66777
3529.72837
3548.47681
3551.08594
3534.9022
3539.3907
3557.43287
3560.26332
3544.05911
3548.92665
3566.48328
3569.24717
3553.15359
3558.28492
3575.54933
3578.2907
3562.53498
3567.58085
3584.56248
3587.40354
3571.86244
3577.06564
3593.51571
3596.44539
3581.09452
3586.34894
3602.41448
3605.34867
3590.24563
3595.42931
3611.32119
3614.11921
3599.34974
3604.3187
3620.29236
3622.76153
3608.41263
3613.04897
3629.09
3631.30525
3617.33097
3621.66801
3637.63385
3639.74901
3626.00759
3630.12893
3645.90994
3648.02952
3634.36931
3638.36428
3653.83181
3656.03189
3642.33851
3646.24946
3661.27715
3663.74917
3649.89324
3654.13044
3668.10396
3670.85737
3656.94248
3661.74139
3674.61085
3678.25653
3664.01741
3669.31901
3681.21459
3685.49536
3671.17626
3676.75768
3688.06718
3692.58807
3678.49586
3684.09569
3695.24938
3699.46464
3685.94758
3691.3399
3702.6851
3706.20441
3693.48679
3698.6191
3710.51188
3713.40929
3701.18589
3705.31707
3718.36199
3720.0606
3708.46876
3712.04192
3725.69245
3726.44201
3715.39627
3718.56965
3732.1928
3732.59693
3722.0495
3725.21253
3738.50003
3738.63086
3728.41525
3731.55584
3744.35455
3744.61966
3734.35031
3737.76906
3750.05008
3750.35205
3740.24292
3743.73108
3755.43715
3755.64956
3745.72527
3749.62582
3760.57207
3760.8073
3750.96264
3754.87953
3765.33976
3765.79768
3756.2425
3760.29867
3770.12962
3770.54811
3761.25285
3765.36169
3774.68858
3775.08481
3766.59907
3770.05671
3779.10214
3779.44373
3771.77684
3774.76989
3783.43371
3783.68788
3776.64875
3779.36367
3787.54512
3787.77098
3781.24592
3783.79164
3791.47248
3791.69595
3785.62999
3788.04209
3795.22935
3795.45687
3789.81598
3792.10789
3798.81852
3799.05359
3793.80173
3795.99139
3802.24761
3802.48487
3797.59559
3799.68313
3805.51351
3805.75475
3801.20566
3803.18824
3808.62025
3808.85343
3804.63015
3806.5043
3811.56292
3811.7996
3807.87104
3809.66943
3814.36466
3814.61139
3810.95438
3812.6763
3817.01994
3817.27326
3813.87217
3815.51354
3819.53852
3819.79335
3816.63385
3818.18214
3821.92416
3822.16887
3819.24831
3820.68674
3824.17843
3824.40263
3821.72052
3823.03491
3826.30505
3826.50099
3824.05295
3825.237
3828.30671
3828.47132
3826.24738
3827.30302
3830.18668
3830.31976
3828.30694
3829.24353
3831.9486
3832.05964
3830.23857
3831.0718
3833.59792
3833.69136
3832.02613
3832.7778
3835.1229
3835.20908
3833.66111
3834.38402
3836.52616
3836.62572
3835.15828
3835.89514
3837.83656
3837.94373
3836.57583
3837.26404
3839.07048
3839.16487
3837.95007
3838.52975
3840.22891
3840.30499
3839.21686
3839.73235
3841.34293
3841.42823
3840.45918
3840.95664
3842.5945
3842.65747
3841.69677
3842.24918
3843.58793
3843.93038
3843.53304
3843.95808
3844.25424
3844.66509
3844.8332
3845.24207
3845.47985
3845.88511
3846.15746
3846.55683
3846.8602
3847.25041
3847.57693
3847.95125
3848.29503
3848.64178
3849.00184
3849.33414
3849.67518
3849.99442
3850.29262
3850.58394
3850.83541
3851.08779
3851.28822
3851.49345
3851.64235
3851.79632
3851.89772
3852.00177
3852.06361
3852.12485
3852.15752
3852.18747
3852.20177
3852.21359
3852.21861
3852.22137
3852.2103
3852.20108
3852.19497
3852.19082
3852.1884
3852.18705
3852.18631
3852.18595
3852.1858
3852.18574
3852.18572
3852.18571
3852.18571
3852.18571
3852.18571
3852.18571
3852.18571
3852.18571
3852.18571
3852.18571
3852.18571
3852.18571
3852.18571
3852.18571
3852.18571
3852.18571
3852.18571
3852.18571
3852.18571
3852.18571
3852.18571
3852.18571
3852.18571
3852.18571
3852.18571
3852.18571
)
;

boundaryField
{
    closed
    {
        type            calculated;
        value           nonuniform List<scalar> 0();
    }
    open
    {
        type            calculated;
        value           uniform 3852.18571;
    }
    sides
    {
        type            empty;
    }
    procBoundary5to4
    {
        type            processor;
        value           uniform 2989.92504;
    }
}


// ************************************************************************* //
