/*--------------------------------*- C++ -*----------------------------------*\
| =========                 |                                                 |
| \\      /  F ield         | OpenFOAM: The Open Source CFD Toolbox           |
|  \\    /   O peration     | Version:  2306                                  |
|   \\  /    A nd           | Website:  www.openfoam.com                      |
|    \\/     M anipulation  |                                                 |
\*---------------------------------------------------------------------------*/
FoamFile
{
    version     2.0;
    format      ascii;
    arch        "LSB;label=32;scalar=64";
    class       volScalarField;
    location    "0.0018";
    object      alpha;
}
// * * * * * * * * * * * * * * * * * * * * * * * * * * * * * * * * * * * * * //

dimensions      [1 -1 -1 0 0 0 0];

internalField   nonuniform List<scalar> 
530
(
3.68407475e-05
3.57031061e-05
3.51531532e-05
3.57356752e-05
3.68208379e-05
3.68427672e-05
3.56927741e-05
3.51723868e-05
3.57264396e-05
3.6809849e-05
3.68445103e-05
3.56945715e-05
3.51789136e-05
3.57202495e-05
3.68001046e-05
3.68456528e-05
3.56917925e-05
3.51468597e-05
3.57152251e-05
3.67969879e-05
3.68491052e-05
3.56631331e-05
3.50312534e-05
3.56621672e-05
3.67518043e-05
3.68621287e-05
3.68745618e-05
3.56915769e-05
3.52834732e-05
3.53000361e-05
3.53258129e-05
3.60695537e-05
3.67661498e-05
3.6821247e-05
3.68426551e-05
3.57277383e-05
3.57507474e-05
3.67602143e-05
3.68439517e-05
3.57202117e-05
3.53847082e-05
3.52793808e-05
3.56242288e-05
3.68013932e-05
3.68523634e-05
3.56804903e-05
3.50592703e-05
3.55217675e-05
3.67816749e-05
3.68626688e-05
3.56880396e-05
3.52569e-05
3.52986151e-05
3.52684589e-05
3.5840264e-05
3.68076984e-05
3.68296244e-05
3.6833423e-05
3.68628388e-05
3.57341889e-05
3.57170244e-05
3.67593498e-05
3.68491873e-05
3.57223743e-05
3.53486131e-05
3.51966921e-05
3.53783709e-05
3.68072777e-05
3.68446906e-05
3.57010908e-05
3.5065823e-05
3.53511813e-05
3.67886931e-05
3.68375668e-05
3.57383174e-05
3.51548611e-05
3.5337729e-05
3.67814141e-05
3.68584067e-05
3.57346578e-05
3.57294622e-05
3.67639381e-05
3.68169619e-05
3.58145547e-05
3.55008889e-05
3.54819568e-05
3.51471373e-05
3.5249653e-05
3.67777193e-05
3.68286635e-05
3.68110394e-05
3.59404949e-05
3.51695358e-05
3.54144094e-05
3.68139781e-05
3.57399197e-05
3.55490214e-05
3.67693317e-05
3.68319065e-05
3.68038492e-05
3.58668002e-05
3.51194311e-05
3.53336794e-05
3.68055931e-05
3.57717635e-05
3.54662877e-05
3.67728907e-05
3.68628394e-05
3.57518389e-05
3.56662272e-05
3.67646948e-05
3.68387923e-05
3.58195279e-05
3.55985231e-05
3.53103275e-05
3.53101785e-05
3.67733864e-05
3.68242844e-05
3.58352415e-05
3.52574115e-05
3.52571815e-05
3.67753777e-05
3.68210974e-05
3.59436302e-05
3.53425478e-05
3.53679987e-05
3.68103155e-05
3.59610175e-05
3.57116933e-05
3.676272e-05
3.68471917e-05
3.58378342e-05
3.56135492e-05
3.52931225e-05
3.52944431e-05
3.67535236e-05
3.68178588e-05
3.58856213e-05
3.52828723e-05
3.52839106e-05
3.67485468e-05
3.68136034e-05
3.58734608e-05
3.52546167e-05
3.52569799e-05
3.6740205e-05
3.68102272e-05
3.58599683e-05
3.51352885e-05
3.51234429e-05
3.66231338e-05
3.6788683e-05
3.57941313e-05
3.65516373e-05
3.6844193e-05
3.58223323e-05
3.56048331e-05
3.52559527e-05
3.52205708e-05
3.66187559e-05
3.67972519e-05
3.57262056e-05
3.62157701e-05
3.68386794e-05
3.58985954e-05
3.56742356e-05
3.52924091e-05
3.53088166e-05
3.6719837e-05
3.68051688e-05
3.59579357e-05
3.53388778e-05
3.53294646e-05
3.65893943e-05
3.68425249e-05
3.57904771e-05
3.56246889e-05
3.67246604e-05
3.6819695e-05
3.58254847e-05
3.51859058e-05
3.52148882e-05
3.66161175e-05
3.6805573e-05
3.59500331e-05
3.53212605e-05
3.53390442e-05
3.66220785e-05
3.68023177e-05
3.6007205e-05
3.53758401e-05
3.5381643e-05
3.66299808e-05
3.681325e-05
3.60433117e-05
3.5609574e-05
3.54833225e-05
3.5095945e-05
3.51124112e-05
3.64264772e-05
3.68350473e-05
3.57696703e-05
3.54332178e-05
3.66426077e-05
3.68331338e-05
3.57886523e-05
3.54693391e-05
3.67652373e-05
3.68031484e-05
3.57831633e-05
3.49344001e-05
3.49675074e-05
3.6475375e-05
3.68369568e-05
3.57736368e-05
3.53265001e-05
3.66793544e-05
3.68458155e-05
3.57933877e-05
3.53924302e-05
3.67477079e-05
3.68513694e-05
3.58047469e-05
3.54525209e-05
3.6784319e-05
3.68522339e-05
3.58024066e-05
3.57045702e-05
3.67956503e-05
3.58607251e-05
3.53701415e-05
3.68397005e-05
3.67930318e-05
3.58087488e-05
3.50398644e-05
3.50505258e-05
3.68028735e-05
3.68363303e-05
3.57793525e-05
3.5441071e-05
3.68275592e-05
3.68085586e-05
3.58080618e-05
3.50731849e-05
3.50804858e-05
3.67993726e-05
3.68291854e-05
3.57823951e-05
3.54955024e-05
3.68181613e-05
3.68073775e-05
3.58302246e-05
3.51582783e-05
3.51595913e-05
3.68135087e-05
3.67900445e-05
3.58354918e-05
3.51047388e-05
3.51112502e-05
3.68007272e-05
3.68232592e-05
3.57736051e-05
3.54955351e-05
3.68220777e-05
3.67997854e-05
3.58084946e-05
3.50686823e-05
3.50958941e-05
3.67862042e-05
3.68079653e-05
3.67391091e-05
3.59112777e-05
3.51991524e-05
3.52053669e-05
3.68014196e-05
3.68252773e-05
3.58214768e-05
3.55009812e-05
3.50904096e-05
3.51017104e-05
3.67372039e-05
3.68276933e-05
3.57024577e-05
3.52836272e-05
3.67706059e-05
3.683925e-05
3.55923456e-05
3.53080765e-05
3.65675218e-05
3.68172881e-05
3.67469907e-05
3.58588023e-05
3.51101432e-05
3.51213811e-05
3.67952639e-05
3.68363275e-05
3.57654187e-05
3.54322268e-05
3.68156147e-05
3.68121999e-05
3.58011638e-05
3.51113501e-05
3.51116064e-05
3.68116718e-05
3.67931784e-05
3.58607384e-05
3.51828178e-05
3.51833355e-05
3.68061145e-05
3.67924853e-05
3.58653137e-05
3.51888828e-05
3.51885139e-05
3.68134314e-05
3.67917166e-05
3.58375384e-05
3.51395299e-05
3.51435748e-05
3.68075754e-05
3.68281575e-05
3.57537136e-05
3.55233967e-05
3.68256586e-05
3.68130158e-05
3.58204828e-05
3.51841082e-05
3.51871361e-05
3.68313589e-05
3.67990905e-05
3.58597177e-05
3.52114322e-05
3.52235289e-05
3.68302796e-05
3.68263341e-05
3.58321029e-05
3.56141847e-05
3.52238408e-05
3.52392239e-05
3.68273445e-05
3.6829699e-05
3.57564011e-05
3.55998985e-05
3.68495761e-05
3.6808092e-05
3.58344757e-05
3.52293205e-05
3.52729406e-05
3.68533156e-05
3.67928211e-05
3.58034851e-05
3.51175522e-05
3.5181578e-05
3.68529563e-05
3.68219946e-05
3.57492295e-05
3.55701729e-05
3.68672304e-05
3.68009114e-05
3.58071526e-05
3.52234844e-05
3.52999975e-05
3.68592714e-05
3.68197838e-05
3.5799675e-05
3.55190956e-05
3.51448624e-05
3.52055686e-05
3.68541946e-05
3.6830158e-05
3.56974619e-05
3.55620115e-05
3.68698575e-05
3.68211686e-05
3.57658056e-05
3.5583694e-05
3.51832934e-05
3.52986078e-05
3.68430996e-05
3.57653407e-05
3.52036559e-05
3.68720595e-05
3.682284e-05
3.55694356e-05
3.53943524e-05
3.68564724e-05
3.68392973e-05
3.55652275e-05
3.53953757e-05
3.68540176e-05
3.68426405e-05
3.55735592e-05
3.54045535e-05
3.68494751e-05
3.68400606e-05
3.55889302e-05
3.54296939e-05
3.68542924e-05
3.68321382e-05
3.55909133e-05
3.5449487e-05
3.68806132e-05
3.68169248e-05
3.57388588e-05
3.50948873e-05
3.51491818e-05
3.62016854e-05
3.68393098e-05
3.57564866e-05
3.53232955e-05
3.68392817e-05
3.68403292e-05
3.56124181e-05
3.53823808e-05
3.68311307e-05
3.68329253e-05
3.56133027e-05
3.54006642e-05
3.68661691e-05
3.68161544e-05
3.57411032e-05
3.50785312e-05
3.510775e-05
3.62337496e-05
3.68371208e-05
3.57581613e-05
3.5340415e-05
3.68213431e-05
3.68413158e-05
3.56733208e-05
3.54288681e-05
3.6808164e-05
3.68370767e-05
3.57286798e-05
3.55043485e-05
3.68218025e-05
3.68259966e-05
3.57687448e-05
3.54950588e-05
3.52851698e-05
3.51654432e-05
3.58530034e-05
3.68055579e-05
3.68169969e-05
3.68181611e-05
3.68213887e-05
3.57065985e-05
3.47640869e-05
3.48193326e-05
3.6788367e-05
3.68185964e-05
3.5692763e-05
3.53475762e-05
3.68040609e-05
3.67974541e-05
3.5762823e-05
3.49607616e-05
3.49678199e-05
3.67974979e-05
3.68172522e-05
3.57512209e-05
3.54797399e-05
3.67920593e-05
3.67965122e-05
3.58106016e-05
3.51834833e-05
3.51830138e-05
3.67932575e-05
3.67882099e-05
3.58443192e-05
3.51906447e-05
3.5190386e-05
3.67973452e-05
3.67859758e-05
3.58171353e-05
3.5133591e-05
3.51379009e-05
3.67865698e-05
3.68196062e-05
3.57517608e-05
3.55034958e-05
3.67991843e-05
3.68073521e-05
3.57980683e-05
3.51424031e-05
3.51425924e-05
3.68005723e-05
3.67964859e-05
3.57938459e-05
3.50681903e-05
3.50741716e-05
3.67930636e-05
3.68229829e-05
3.57421143e-05
3.54319325e-05
3.68126346e-05
3.6806144e-05
3.57664056e-05
3.50524263e-05
3.50604983e-05
3.67880968e-05
3.68376723e-05
3.57613668e-05
3.54635707e-05
3.67951885e-05
3.68358326e-05
3.57566308e-05
3.55289517e-05
3.68060423e-05
3.68106534e-05
3.58090419e-05
3.52301736e-05
3.52304466e-05
3.67992112e-05
3.67988044e-05
3.58462784e-05
3.52388733e-05
3.52395322e-05
3.67999326e-05
3.67997362e-05
3.58363863e-05
3.52344579e-05
3.52352944e-05
3.68017617e-05
3.6802661e-05
3.58324542e-05
3.52357409e-05
3.52371465e-05
3.68019315e-05
3.68043313e-05
3.58296967e-05
)
;

boundaryField
{
    closed
    {
        type            calculated;
        value           nonuniform List<scalar> 0();
    }
    open
    {
        type            calculated;
        value           nonuniform List<scalar> 0();
    }
    sides
    {
        type            empty;
    }
    procBoundary2to1
    {
        type            processor;
        value           uniform 3.68350535e-05;
    }
    procBoundary2to3
    {
        type            processor;
        value           uniform 3.52372906e-05;
    }
}


// ************************************************************************* //
