/*--------------------------------*- C++ -*----------------------------------*\
| =========                 |                                                 |
| \\      /  F ield         | OpenFOAM: The Open Source CFD Toolbox           |
|  \\    /   O peration     | Version:  2306                                  |
|   \\  /    A nd           | Website:  www.openfoam.com                      |
|    \\/     M anipulation  |                                                 |
\*---------------------------------------------------------------------------*/
FoamFile
{
    version     2.0;
    format      ascii;
    arch        "LSB;label=32;scalar=64";
    class       volScalarField;
    location    "0.0018";
    object      mu;
}
// * * * * * * * * * * * * * * * * * * * * * * * * * * * * * * * * * * * * * //

dimensions      [1 -1 -1 0 0 0 0];

internalField   nonuniform List<scalar> 
530
(
2.02997124e-05
1.97573393e-05
1.94615377e-05
1.97650646e-05
2.02897959e-05
2.03012223e-05
1.97511646e-05
1.94718434e-05
1.97618136e-05
2.02823878e-05
2.03025867e-05
1.97504855e-05
1.94753665e-05
1.97605762e-05
2.02753216e-05
2.03031461e-05
1.97493889e-05
1.94581781e-05
1.97609401e-05
2.02718421e-05
2.03045961e-05
1.97355516e-05
1.93960294e-05
1.9736774e-05
2.02412743e-05
2.03206076e-05
2.03232804e-05
1.97455237e-05
1.95323395e-05
1.9542154e-05
1.95548897e-05
1.99046311e-05
2.0254794e-05
2.0293589e-05
2.0300548e-05
1.97592174e-05
1.97754034e-05
2.02469042e-05
2.03058251e-05
1.9759419e-05
1.95866867e-05
1.95304725e-05
1.97152012e-05
2.02724568e-05
2.03082426e-05
1.97421779e-05
1.94114558e-05
1.96608612e-05
2.02596606e-05
2.03147751e-05
1.97466346e-05
1.95185116e-05
1.95417667e-05
1.95250033e-05
1.98014758e-05
2.02813828e-05
2.02956961e-05
2.03015313e-05
2.03157148e-05
1.97622792e-05
1.97620439e-05
2.02434359e-05
2.030923e-05
1.97610755e-05
1.95676284e-05
1.9486254e-05
1.95831047e-05
2.02752619e-05
2.0304413e-05
1.97508999e-05
1.94152664e-05
1.95689395e-05
2.02643297e-05
2.03008727e-05
1.97648488e-05
1.94629067e-05
1.95616997e-05
2.02605867e-05
2.03142289e-05
1.97682879e-05
1.97713524e-05
2.02474144e-05
2.0292136e-05
1.97936943e-05
1.96487701e-05
1.96395703e-05
1.94585e-05
1.95145516e-05
2.02542464e-05
2.02989475e-05
2.02866678e-05
1.98464819e-05
1.9470884e-05
1.96026263e-05
2.02765456e-05
1.97675435e-05
1.96750295e-05
2.02423692e-05
2.03019032e-05
2.02811918e-05
1.98140374e-05
1.94441406e-05
1.9559782e-05
2.02712481e-05
1.9776424e-05
1.96307474e-05
2.02463052e-05
2.03175977e-05
1.97784914e-05
1.9738646e-05
2.02431937e-05
2.03054138e-05
1.97967513e-05
1.97020265e-05
1.95466017e-05
1.95467941e-05
2.02498493e-05
2.02940284e-05
1.98017767e-05
1.95181635e-05
1.95183593e-05
2.02511712e-05
2.02923961e-05
1.98484493e-05
1.95639726e-05
1.95771467e-05
2.02749284e-05
1.98561582e-05
1.97609813e-05
2.02379088e-05
2.03099096e-05
1.98051374e-05
1.97101348e-05
1.95365738e-05
1.9538307e-05
2.02339657e-05
2.02899023e-05
1.98235801e-05
1.95312388e-05
1.95326971e-05
2.02302401e-05
2.02870889e-05
1.98187818e-05
1.95156503e-05
1.9518111e-05
2.02246897e-05
2.0284379e-05
1.98141587e-05
1.94518549e-05
1.94460146e-05
2.01675446e-05
2.02638858e-05
1.97840805e-05
2.01327751e-05
2.03071947e-05
1.98002497e-05
1.9704545e-05
1.95158997e-05
1.94971809e-05
2.01650724e-05
2.02669592e-05
1.97621783e-05
1.99728784e-05
2.03043447e-05
1.98298965e-05
1.97424473e-05
1.95353965e-05
1.95458691e-05
2.02138075e-05
2.02826398e-05
1.98551721e-05
1.95610833e-05
1.95575502e-05
2.01509046e-05
2.03055919e-05
1.97928517e-05
1.97160586e-05
2.02163736e-05
2.02916696e-05
1.98000019e-05
1.94790332e-05
1.94957164e-05
2.01638424e-05
2.02823709e-05
1.98517438e-05
1.95515287e-05
1.95620968e-05
2.0166619e-05
2.02813291e-05
1.9877125e-05
1.95807885e-05
1.95849303e-05
2.01704235e-05
2.02890205e-05
1.98933207e-05
1.9707371e-05
1.96393481e-05
1.94311233e-05
1.9441195e-05
2.00728801e-05
2.02990554e-05
1.97867434e-05
1.96132367e-05
2.0176698e-05
2.02996222e-05
1.97988529e-05
1.96320086e-05
2.02389886e-05
2.02799348e-05
1.97855693e-05
1.93439748e-05
1.93635618e-05
2.00962371e-05
2.02992434e-05
1.97921971e-05
1.95561199e-05
2.01945266e-05
2.03065055e-05
1.98039361e-05
1.95917409e-05
2.02277264e-05
2.0310625e-05
1.98098207e-05
1.96242072e-05
2.02524672e-05
2.03127176e-05
1.98073323e-05
1.97588574e-05
2.02626802e-05
1.98124686e-05
1.9577579e-05
2.02876431e-05
2.02743782e-05
1.97929192e-05
1.94001966e-05
1.94078607e-05
2.02664485e-05
2.03006955e-05
1.97957884e-05
1.9617195e-05
2.0281486e-05
2.02842957e-05
1.9793011e-05
1.94182787e-05
1.94237619e-05
2.02654842e-05
2.02969936e-05
1.97960498e-05
1.96462718e-05
2.02770706e-05
2.02843872e-05
1.98023869e-05
1.94642707e-05
1.94653538e-05
2.02752621e-05
2.02723987e-05
1.98034894e-05
1.9435152e-05
1.94401432e-05
2.02674965e-05
2.02937803e-05
1.97915819e-05
1.96460852e-05
2.02807613e-05
2.02795456e-05
1.97929709e-05
1.94156326e-05
1.94317206e-05
2.02562973e-05
2.02858221e-05
2.02407739e-05
1.98341312e-05
1.9484915e-05
1.94907601e-05
2.02682891e-05
2.02956934e-05
1.98019749e-05
1.96494212e-05
1.9426688e-05
1.94353495e-05
2.02223479e-05
2.02951752e-05
1.97547217e-05
1.95330967e-05
2.02440383e-05
2.03028348e-05
1.96962549e-05
1.95462956e-05
2.01405899e-05
2.02920048e-05
2.02457971e-05
1.98115369e-05
1.94372722e-05
1.94460546e-05
2.02627638e-05
2.03015184e-05
1.97895988e-05
1.96125446e-05
2.02768144e-05
2.02869568e-05
1.97900899e-05
1.94395414e-05
1.943983e-05
2.02749489e-05
2.02744556e-05
1.98137126e-05
1.94775278e-05
1.94780971e-05
2.02720612e-05
2.02744603e-05
1.98157098e-05
1.94809624e-05
1.94808626e-05
2.02765748e-05
2.02737063e-05
1.98034251e-05
1.94542694e-05
1.94577281e-05
2.02732568e-05
2.02973782e-05
1.97811164e-05
1.96613957e-05
2.02847494e-05
2.02885318e-05
1.97972159e-05
1.94788856e-05
1.94804968e-05
2.02884988e-05
2.02786438e-05
1.98122765e-05
1.94932042e-05
1.95006358e-05
2.02890988e-05
2.02973841e-05
1.9802782e-05
1.97105078e-05
1.94994382e-05
1.95095508e-05
2.02872277e-05
2.02990256e-05
1.97824715e-05
1.97025612e-05
2.03019986e-05
2.02862488e-05
1.9802549e-05
1.95031557e-05
1.9526629e-05
2.0304015e-05
2.02744385e-05
1.97892973e-05
1.94426534e-05
1.94784363e-05
2.03044434e-05
2.02932655e-05
1.97809547e-05
1.96866111e-05
2.03138655e-05
2.02812898e-05
1.97907948e-05
1.94997777e-05
1.9541893e-05
2.0309701e-05
2.02925966e-05
1.97916639e-05
1.96593773e-05
1.94569474e-05
1.94917714e-05
2.0304929e-05
2.0297827e-05
1.97535364e-05
1.96828162e-05
2.03165811e-05
2.0294624e-05
1.97797943e-05
1.96934606e-05
1.94781853e-05
1.95407665e-05
2.02979046e-05
1.97794392e-05
1.94899326e-05
2.03156372e-05
2.02927644e-05
1.96843409e-05
1.95927825e-05
2.03063259e-05
2.0303492e-05
1.96818122e-05
1.95936824e-05
2.030446e-05
2.03055015e-05
1.96861931e-05
1.95985765e-05
2.03013658e-05
2.03040685e-05
1.96944912e-05
1.96118365e-05
2.03046736e-05
2.02993989e-05
1.96963133e-05
1.96219904e-05
2.03220012e-05
2.02891223e-05
1.97667362e-05
1.94311918e-05
1.94614524e-05
1.99662674e-05
2.03017445e-05
1.97848176e-05
1.95546728e-05
2.02923217e-05
2.03044468e-05
1.97071116e-05
1.95863127e-05
2.02880143e-05
2.03003979e-05
1.97085041e-05
1.95955424e-05
2.03125038e-05
2.02889474e-05
1.97668039e-05
1.94222119e-05
1.94391244e-05
1.99813308e-05
2.03006005e-05
1.97850792e-05
1.95638165e-05
2.02811223e-05
2.03054438e-05
1.97401349e-05
1.96112834e-05
2.02738763e-05
2.03036248e-05
1.97704114e-05
1.96514657e-05
2.02840518e-05
2.0297327e-05
1.97790638e-05
1.96460157e-05
1.95337166e-05
1.94693336e-05
1.98077245e-05
2.02803059e-05
2.02867602e-05
2.0291542e-05
2.02904554e-05
1.97596887e-05
1.92518999e-05
1.92838884e-05
2.02617236e-05
2.02892396e-05
1.97516578e-05
1.95664664e-05
2.02695098e-05
2.0276627e-05
1.97756458e-05
1.93583284e-05
1.93632621e-05
2.02667438e-05
2.02895364e-05
1.97812807e-05
1.96373326e-05
2.02632701e-05
2.02779477e-05
1.97944589e-05
1.94779808e-05
1.94777786e-05
2.0265022e-05
2.02718561e-05
1.98074296e-05
1.94817977e-05
1.94816367e-05
2.02673363e-05
2.02702427e-05
1.97955593e-05
1.9450933e-05
1.94544894e-05
2.02602302e-05
2.02920917e-05
1.97796323e-05
1.96504332e-05
2.0268022e-05
2.02846677e-05
1.97890751e-05
1.94563662e-05
1.94565732e-05
2.02682924e-05
2.02761188e-05
1.97861957e-05
1.94161157e-05
1.94205767e-05
2.02635813e-05
2.02935054e-05
1.97763734e-05
1.96120721e-05
2.02756957e-05
2.0283132e-05
1.97755715e-05
1.9407718e-05
1.94136998e-05
2.02601192e-05
2.03025021e-05
1.97866765e-05
1.96299331e-05
2.0264548e-05
2.03034581e-05
1.97835725e-05
1.9664518e-05
2.02720386e-05
2.0287343e-05
1.97930345e-05
1.95032367e-05
1.95038168e-05
2.02676744e-05
2.02789392e-05
1.98076753e-05
1.95077485e-05
1.95086447e-05
2.02680733e-05
2.02795383e-05
1.9803528e-05
1.95054071e-05
1.95065129e-05
2.02690595e-05
2.02813164e-05
1.98018488e-05
1.95061366e-05
1.95075928e-05
2.02689941e-05
2.02823541e-05
1.98007196e-05
)
;

boundaryField
{
    closed
    {
        type            calculated;
        value           nonuniform List<scalar> 0();
    }
    open
    {
        type            calculated;
        value           nonuniform List<scalar> 0();
    }
    sides
    {
        type            empty;
    }
    procBoundary2to1
    {
        type            processor;
        value           uniform 2.0297041e-05;
    }
    procBoundary2to3
    {
        type            processor;
        value           uniform 1.95069848e-05;
    }
}


// ************************************************************************* //
