/*--------------------------------*- C++ -*----------------------------------*\
| =========                 |                                                 |
| \\      /  F ield         | OpenFOAM: The Open Source CFD Toolbox           |
|  \\    /   O peration     | Version:  2306                                  |
|   \\  /    A nd           | Website:  www.openfoam.com                      |
|    \\/     M anipulation  |                                                 |
\*---------------------------------------------------------------------------*/
FoamFile
{
    version     2.0;
    format      ascii;
    arch        "LSB;label=32;scalar=64";
    class       volScalarField;
    location    "0.00148";
    object      PV;
}
// * * * * * * * * * * * * * * * * * * * * * * * * * * * * * * * * * * * * * //

dimensions      [0 0 0 0 0 0 0];

internalField   nonuniform List<scalar> 
531
(
-0.00717015097
-0.00714159327
-0.00716934402
-0.00714491104
-0.00693591619
-0.00692014515
-0.00693127532
-0.00691943976
-0.00699356031
-0.00712529735
-0.00718247437
-0.00717162233
-0.00694460235
-0.00692318921
-0.00714898784
-0.00716348989
-0.00695267273
-0.00692466406
-0.00693866538
-0.00692240244
-0.00694363054
-0.00712540603
-0.00717047405
-0.00714548161
-0.00716724122
-0.00713989905
-0.00693305634
-0.0069183574
-0.00711589067
-0.00714881705
-0.00693799172
-0.00692095613
-0.00714141417
-0.00715387858
-0.00693787778
-0.00692258533
-0.00692265914
-0.00711530173
-0.00715483238
-0.00693510174
-0.00692454691
-0.00704481877
-0.00713513081
-0.00713518298
-0.00714934496
-0.00714192917
-0.00717015945
-0.00714750378
-0.00692964313
-0.00692176459
-0.0069249988
-0.00692298672
-0.00692359502
-0.00700164179
-0.00714055239
-0.00717742252
-0.0071749686
-0.00693202032
-0.00692248824
-0.00713193371
-0.00715625352
-0.00693006293
-0.00692416439
-0.00707374649
-0.00716085846
-0.00715818234
-0.00692605907
-0.00692106101
-0.00704830736
-0.00714258618
-0.00714749255
-0.00714578829
-0.00717205402
-0.00710476724
-0.00693220896
-0.00691959499
-0.00693002464
-0.00692179799
-0.00692334581
-0.00715938971
-0.00718225513
-0.0069272021
-0.00692784814
-0.00710019809
-0.0071725429
-0.00716406137
-0.00692346278
-0.00692264797
-0.00709503276
-0.00718567815
-0.00716686425
-0.00692468089
-0.00692238818
-0.00692233243
-0.00713046662
-0.00715772072
-0.00692170718
-0.00692246245
-0.00711497851
-0.00715072207
-0.00716752452
-0.00716515515
-0.00692122841
-0.00692178206
-0.00715337957
-0.00715542218
-0.00692240938
-0.0069223587
-0.00715599305
-0.00714641269
-0.0069221122
-0.00692185006
-0.00692463562
-0.00707600187
-0.00717669391
-0.00716347004
-0.00691956645
-0.00692412379
-0.00707979094
-0.0071719335
-0.0071578825
-0.0069230847
-0.00692450001
-0.00714923772
-0.00715435901
-0.00692155001
-0.00692858918
-0.00692391324
-0.00692624019
-0.00714405479
-0.00717632795
-0.00715526568
-0.00717952022
-0.00717186716
-0.00691793466
-0.00692587069
-0.00706692891
-0.00716878896
-0.00715505566
-0.00692239186
-0.00692154068
-0.00714463121
-0.00714659126
-0.00692334559
-0.00692424317
-0.00716441989
-0.0071519555
-0.00692333274
-0.00692338467
-0.00692686032
-0.00692298979
-0.00692923155
-0.0071404772
-0.00717563114
-0.00717047815
-0.00717059893
-0.00691808942
-0.00692705483
-0.00710239097
-0.00714939936
-0.007168752
-0.00716661973
-0.00692104492
-0.00692718444
-0.00692396889
-0.00714648575
-0.00717165148
-0.00692393658
-0.00692716152
-0.00717128655
-0.00716395901
-0.00692490633
-0.00692602218
-0.0069282397
-0.00692505554
-0.00693037629
-0.00713938592
-0.00717647478
-0.0071739595
-0.00718006942
-0.00691947579
-0.00693042033
-0.00711423274
-0.00720599398
-0.007183559
-0.00692787151
-0.00692487565
-0.0069298754
-0.00692420572
-0.00716453579
-0.00716249571
-0.006932235
-0.00692540534
-0.00693490694
-0.00713442124
-0.00717038
-0.00715892362
-0.00715892592
-0.00692219828
-0.00692439896
-0.00692272786
-0.00708000898
-0.00714518756
-0.00717308205
-0.00716400633
-0.00692434944
-0.00692237308
-0.00692228048
-0.00713130877
-0.00717007048
-0.00715940727
-0.00715964011
-0.00692267452
-0.00692183877
-0.00712973922
-0.00714034003
-0.00692161017
-0.00692122396
-0.0071309436
-0.00714255616
-0.00692149645
-0.00692296093
-0.0070335224
-0.00716116976
-0.0071608477
-0.00692125089
-0.00692327871
-0.00707706748
-0.00717420672
-0.00716835442
-0.00692195901
-0.00692175857
-0.00713436208
-0.0071594733
-0.00692119107
-0.00692513994
-0.007085451
-0.00717883276
-0.00716943902
-0.00692599235
-0.00692009956
-0.00714736455
-0.00715845042
-0.00692632389
-0.0069212653
-0.00714566706
-0.0071506688
-0.00692650901
-0.00692274261
-0.00713448883
-0.00714936039
-0.00692430718
-0.00692461516
-0.0070623628
-0.00716658892
-0.00716290438
-0.00692503926
-0.00692133925
-0.00713033206
-0.00714249035
-0.00692458913
-0.00692341019
-0.00704466913
-0.00713799596
-0.00713407627
-0.00715950763
-0.00714335124
-0.00692487988
-0.00692369283
-0.00692347615
-0.0071405781
-0.00715900152
-0.00692568858
-0.00692310085
-0.00692310386
-0.00709687616
-0.00716022305
-0.00714977788
-0.00715655987
-0.0071759991
-0.00717598949
-0.00692828118
-0.00692943826
-0.0069255603
-0.00692699103
-0.00692266675
-0.00692469709
-0.00712425134
-0.00719337705
-0.00714247819
-0.00692917495
-0.00696313038
-0.00720118062
-0.00719971755
-0.00692686665
-0.00692338083
-0.00692383279
-0.00706354781
-0.00714899462
-0.00714894373
-0.0071498678
-0.00717982421
-0.00716701443
-0.00692793204
-0.00692454547
-0.00692916308
-0.00692303663
-0.00692929168
-0.00712301278
-0.00720002026
-0.00718883756
-0.00693208832
-0.00692505489
-0.00716590711
-0.00717191129
-0.00692930308
-0.00692688186
-0.00693083149
-0.0069257012
-0.00714375691
-0.00717280681
-0.0069225789
-0.0069271362
-0.00710251256
-0.00717875431
-0.00717015006
-0.00692399643
-0.0069259263
-0.00706348978
-0.00717501553
-0.00716599583
-0.00692325576
-0.00692488608
-0.00702911978
-0.00717061124
-0.00716272934
-0.00692062824
-0.00692279488
-0.00705384427
-0.00717011202
-0.00716157715
-0.00691693203
-0.00692129484
-0.00707655378
-0.00718314981
-0.00716864604
-0.00691728688
-0.00691388262
-0.00715498089
-0.007162875
-0.00691209637
-0.0069109294
-0.00717635821
-0.00717725892
-0.00690666318
-0.00690495007
-0.00690745052
-0.00690110879
-0.00689867346
-0.00689720243
-0.00709141112
-0.00720536657
-0.00718168906
-0.00688890394
-0.00688301944
-0.00688335052
-0.00713781368
-0.00716519738
-0.00688379229
-0.00687638941
-0.00687965971
-0.00687248415
-0.00687102339
-0.00686572273
-0.00685956009
-0.00685226167
-0.00684405815
-0.0068337657
-0.00682437735
-0.00681174206
-0.00680101291
-0.006785657
-0.00677323797
-0.00675442064
-0.0067393359
-0.00671491377
-0.00669490686
-0.00665433393
-0.00661586276
-0.00658729603
-0.0065684519
-0.00653906171
-0.00651641749
-0.00648588607
-0.0064588044
-0.00642698118
-0.00639513941
-0.00635916842
-0.00631108307
-0.00624447425
-0.00617500143
-0.0061093487
-0.00605484947
-0.00598807733
-0.00592565719
-0.00586062222
-0.00579798349
-0.00574717587
-0.00567930512
-0.0056256759
-0.00552077612
-0.00541075188
-0.0051309624
-0.00507431424
-0.00496193511
-0.00488100826
-0.00475379897
-0.00464901885
-0.00450134231
-0.00436542773
-0.00419878183
-0.00400667579
-0.00374071784
-0.00348821179
-0.00323440574
-0.00297219466
-0.00256738601
-0.0022175196
-0.00178913151
-0.00146793333
-0.00145120504
-0.00118535271
-0.000840909338
-0.000558812314
-0.000145726314
0.000155811929
0.000562078492
0.000850206075
0.00113181761
0.00145206831
0.0017467493
0.00201561234
0.0022509255
0.00255441843
0.00280630913
0.00311493917
0.00335779405
0.0036245868
0.00382161033
0.00404738834
0.00424453232
0.00447561866
0.00467700904
0.00489135235
0.00507248497
0.00525947205
0.00541916996
0.00558153266
0.0057227534
0.00586385413
0.00598667032
0.00610693581
0.0062087793
0.00630423794
0.00638584565
0.00645832473
0.00652383003
0.00657974127
0.00662962351
0.0066717402
0.0067160762
0.00675760451
0.00680460228
0.00684268418
0.00688374446
0.0069162324
0.00695189551
0.00697963835
0.00700994541
0.00703368344
0.00706046914
0.00708130302
0.00710275644
0.00712063731
0.0071412486
0.00715915972
0.00717919051
0.00719598904
0.00721443915
0.00723052889
0.00724791366
0.00726313029
0.00727926965
0.00729343731
0.00730829503
0.00732167479
0.00733477151
0.00734664321
0.00735929497
0.00737091027
0.00738299566
0.00739418286
0.00740576998
0.00741642572
0.0074274235
0.00743773907
0.00744835168
0.00745833382
0.00746856586
0.00747809985
0.00748784445
0.0074970251
0.00750633897
0.00751506361
0.00752398592
0.00753230223
0.00754041024
0.00754801273
0.00755552437
0.00756245061
0.00756963652
0.00757637094
0.00758336286
0.00758991275
0.00759671858
0.00760309222
0.00760973298
0.00761597773
0.00762246373
0.00762851818
0.00763481064
)
;

boundaryField
{
    closed
    {
        type            zeroGradient;
    }
    open
    {
        type            zeroGradient;
    }
    sides
    {
        type            empty;
    }
    procBoundary4to3
    {
        type            processor;
        value           uniform -0.00711249561;
    }
    procBoundary4to5
    {
        type            processor;
        value           uniform 0.00764068388;
    }
}


// ************************************************************************* //
