/*--------------------------------*- C++ -*----------------------------------*\
| =========                 |                                                 |
| \\      /  F ield         | OpenFOAM: The Open Source CFD Toolbox           |
|  \\    /   O peration     | Version:  2306                                  |
|   \\  /    A nd           | Website:  www.openfoam.com                      |
|    \\/     M anipulation  |                                                 |
\*---------------------------------------------------------------------------*/
FoamFile
{
    version     2.0;
    format      ascii;
    arch        "LSB;label=32;scalar=64";
    class       volScalarField;
    location    "0.00012";
    object      prefDPV_T;
}
// * * * * * * * * * * * * * * * * * * * * * * * * * * * * * * * * * * * * * //

dimensions      [1 -1 -1 -1 0 0 0];

internalField   nonuniform List<scalar> 
531
(
5.97546476e-10
5.9754668e-10
5.97551271e-10
5.97551565e-10
5.97549313e-10
5.97548899e-10
5.97549849e-10
5.97550146e-10
5.97549795e-10
5.97549636e-10
5.9754975e-10
5.9754982e-10
5.97549788e-10
5.97549761e-10
5.97549769e-10
5.97549778e-10
5.97549777e-10
5.97549774e-10
5.97549774e-10
5.97549775e-10
5.97549774e-10
5.97549775e-10
5.97549775e-10
5.97549775e-10
5.97549774e-10
5.97549774e-10
5.97549775e-10
5.97549775e-10
5.97549774e-10
5.97549774e-10
5.97549775e-10
5.97549775e-10
5.97549774e-10
5.97549774e-10
5.97549775e-10
5.97549775e-10
5.97549774e-10
5.97549774e-10
5.97549775e-10
5.97549775e-10
5.97549774e-10
5.97549774e-10
5.97549775e-10
5.97549775e-10
5.97549774e-10
5.97549775e-10
5.97549775e-10
5.97549775e-10
5.97549774e-10
5.97549774e-10
5.97549775e-10
5.97549775e-10
5.97549774e-10
5.97549774e-10
5.97549775e-10
5.97549775e-10
5.97549775e-10
5.97549774e-10
5.97549774e-10
5.97549775e-10
5.97549775e-10
5.97549775e-10
5.97549774e-10
5.97549775e-10
5.97549775e-10
5.97549775e-10
5.97549774e-10
5.97549774e-10
5.97549775e-10
5.97549775e-10
5.97549774e-10
5.97549774e-10
5.97549775e-10
5.97549775e-10
5.97549775e-10
5.97549775e-10
5.97549775e-10
5.97549774e-10
5.97549774e-10
5.97549775e-10
5.97549775e-10
5.97549774e-10
5.97549774e-10
5.97549775e-10
5.97549775e-10
5.97549774e-10
5.97549774e-10
5.97549775e-10
5.97549775e-10
5.97549775e-10
5.97549774e-10
5.97549775e-10
5.97549775e-10
5.97549775e-10
5.97549774e-10
5.97549775e-10
5.97549775e-10
5.97549775e-10
5.97549774e-10
5.97549775e-10
5.97549775e-10
5.97549774e-10
5.97549774e-10
5.97549775e-10
5.97549775e-10
5.97549775e-10
5.97549774e-10
5.97549775e-10
5.97549775e-10
5.97549775e-10
5.97549774e-10
5.97549774e-10
5.97549775e-10
5.97549775e-10
5.97549775e-10
5.97549775e-10
5.97549774e-10
5.97549774e-10
5.97549775e-10
5.97549775e-10
5.97549775e-10
5.97549774e-10
5.97549774e-10
5.97549775e-10
5.97549775e-10
5.97549774e-10
5.97549774e-10
5.97549775e-10
5.97549775e-10
5.97549775e-10
5.97549774e-10
5.97549774e-10
5.97549775e-10
5.97549775e-10
5.97549774e-10
5.97549774e-10
5.97549775e-10
5.97549775e-10
5.97549775e-10
5.97549774e-10
5.97549774e-10
5.97549775e-10
5.97549775e-10
5.97549775e-10
5.97549774e-10
5.97549774e-10
5.97549775e-10
5.97549775e-10
5.97549775e-10
5.97549774e-10
5.97549774e-10
5.97549775e-10
5.97549775e-10
5.97549774e-10
5.97549774e-10
5.97549774e-10
5.97549775e-10
5.97549775e-10
5.97549774e-10
5.97549774e-10
5.97549775e-10
5.97549775e-10
5.97549775e-10
5.97549774e-10
5.97549774e-10
5.97549775e-10
5.97549775e-10
5.97549775e-10
5.97549774e-10
5.97549774e-10
5.97549775e-10
5.97549775e-10
5.97549775e-10
5.97549774e-10
5.97549774e-10
5.97549775e-10
5.97549775e-10
5.97549774e-10
5.97549774e-10
5.97549774e-10
5.97549775e-10
5.97549775e-10
5.97549774e-10
5.97549774e-10
5.97549775e-10
5.97549775e-10
5.97549774e-10
5.97549774e-10
5.97549775e-10
5.97549775e-10
5.97549775e-10
5.97549774e-10
5.97549774e-10
5.97549775e-10
5.97549775e-10
5.97549775e-10
5.97549774e-10
5.97549774e-10
5.97549775e-10
5.97549775e-10
5.97549775e-10
5.97549774e-10
5.97549774e-10
5.97549775e-10
5.97549775e-10
5.97549774e-10
5.97549774e-10
5.97549774e-10
5.97549775e-10
5.97549775e-10
5.97549775e-10
5.97549774e-10
5.97549774e-10
5.97549775e-10
5.97549775e-10
5.97549774e-10
5.97549774e-10
5.97549774e-10
5.97549775e-10
5.97549775e-10
5.97549774e-10
5.97549774e-10
5.97549775e-10
5.97549775e-10
5.97549775e-10
5.97549774e-10
5.97549775e-10
5.97549775e-10
5.97549775e-10
5.97549775e-10
5.97549775e-10
5.97549775e-10
5.97549775e-10
5.97549775e-10
5.97549775e-10
5.97549775e-10
5.97549775e-10
5.97549775e-10
5.97549775e-10
5.97549774e-10
5.97549774e-10
5.97549775e-10
5.97549775e-10
5.97549775e-10
5.97549774e-10
5.97549774e-10
5.97549775e-10
5.97549775e-10
5.97549775e-10
5.97549774e-10
5.97549774e-10
5.97549775e-10
5.97549775e-10
5.97549774e-10
5.97549774e-10
5.97549775e-10
5.97549775e-10
5.97549775e-10
5.97549774e-10
5.97549774e-10
5.97549775e-10
5.97549775e-10
5.97549775e-10
5.97549774e-10
5.97549774e-10
5.97549775e-10
5.97549775e-10
5.97549775e-10
5.97549774e-10
5.97549774e-10
5.97549775e-10
5.97549775e-10
5.97549774e-10
5.97549775e-10
5.97549775e-10
5.97549774e-10
5.97549774e-10
5.97549775e-10
5.97549775e-10
5.97549775e-10
5.97549774e-10
5.97549774e-10
5.97549775e-10
5.97549775e-10
5.97549774e-10
5.97549774e-10
5.97549775e-10
5.97549775e-10
5.97549774e-10
5.97549774e-10
5.97549775e-10
5.97549775e-10
5.97549774e-10
5.97549774e-10
5.97549775e-10
5.97549775e-10
5.97549775e-10
5.97549774e-10
5.97549774e-10
5.97549775e-10
5.97549775e-10
5.97549775e-10
5.97549774e-10
5.97549774e-10
5.97549775e-10
5.97549775e-10
5.97549775e-10
5.97549775e-10
5.97549775e-10
5.97549774e-10
5.97549774e-10
5.97549775e-10
5.97549775e-10
5.97549775e-10
5.97549774e-10
5.97549774e-10
5.97549775e-10
5.97549775e-10
5.97549774e-10
5.97549774e-10
5.97549775e-10
5.97549775e-10
5.97549775e-10
5.97549774e-10
5.97549774e-10
5.97549775e-10
5.97549775e-10
5.97549775e-10
5.97549774e-10
5.97549774e-10
5.97549775e-10
5.97549775e-10
5.97549775e-10
5.97549774e-10
5.97549774e-10
5.97549775e-10
5.97549775e-10
5.97549775e-10
5.97549774e-10
5.97549774e-10
5.97549775e-10
5.97549775e-10
5.97549774e-10
5.97549774e-10
5.97549775e-10
5.97549775e-10
5.97549774e-10
5.97549774e-10
5.97549775e-10
5.97549775e-10
5.97549775e-10
5.97549775e-10
5.97549775e-10
5.97549775e-10
5.97549774e-10
5.97549775e-10
5.97549775e-10
5.97549775e-10
5.97549775e-10
5.97549775e-10
5.97549775e-10
5.97549775e-10
5.97549775e-10
5.97549775e-10
5.97549775e-10
5.97549775e-10
5.97549775e-10
5.97549775e-10
5.97549775e-10
5.97549775e-10
5.97549775e-10
5.97549775e-10
5.97549775e-10
5.97549775e-10
5.97549775e-10
5.97549775e-10
5.97549775e-10
5.97549774e-10
5.97549774e-10
5.97549774e-10
5.97549774e-10
5.97549774e-10
5.97549774e-10
5.97549774e-10
5.97549774e-10
5.97549773e-10
5.97549772e-10
5.97549771e-10
5.9754977e-10
5.97549767e-10
5.97549764e-10
5.97549759e-10
5.97549752e-10
5.97549741e-10
5.97549727e-10
5.97549707e-10
5.97549678e-10
5.97549633e-10
5.97549592e-10
5.97549553e-10
5.97549343e-10
5.97549012e-10
5.9754973e-10
5.97550361e-10
5.97543722e-10
5.9753817e-10
5.97576319e-10
5.97610435e-10
5.97430621e-10
5.97211154e-10
5.97824951e-10
5.98706089e-10
5.97143516e-10
5.92702263e-10
5.95958687e-10
6.12928439e-10
6.03798451e-10
5.89772051e-10
5.88687292e-10
5.98091753e-10
6.07019153e-10
6.08289544e-10
5.86026278e-10
5.86595705e-10
6.03512937e-10
6.02372248e-10
6.01254275e-10
5.99833823e-10
5.98758175e-10
5.96834436e-10
5.95952808e-10
5.93303626e-10
5.92970858e-10
5.89282123e-10
5.89825877e-10
5.81904578e-10
5.75267361e-10
5.62237774e-10
5.61877854e-10
5.55188083e-10
5.47564502e-10
5.46994468e-10
5.41981736e-10
5.36620708e-10
5.20246271e-10
5.29049589e-10
5.05123716e-10
5.19779898e-10
5.06855496e-10
4.9434016e-10
5.11771319e-10
4.80891847e-10
4.44488415e-10
4.21858333e-10
4.08293939e-10
3.90803683e-10
3.75372968e-10
3.56605995e-10
3.39869342e-10
3.19920929e-10
3.02820867e-10
2.83329783e-10
2.73685124e-10
2.52287728e-10
2.44225895e-10
2.23870064e-10
2.27981964e-10
1.91462967e-10
1.77397826e-10
1.69331053e-10
2.181992e-10
1.25708911e-10
8.30990059e-11
1.20899357e-10
2.13442399e-10
9.43325825e-11
1.80877248e-11
8.636392e-11
2.0744897e-10
6.7371519e-11
-9.79358305e-12
3.88968652e-11
1.66083623e-10
2.43173333e-11
-2.85247816e-11
-1.32401888e-12
1.14831026e-10
-1.36827888e-11
-3.82804029e-11
-1.92790804e-11
4.63169714e-11
-3.35046579e-11
-3.8914504e-11
-3.06579645e-11
2.39735541e-11
-3.79776139e-11
-3.84907938e-11
-3.86017408e-11
6.50389191e-12
-3.82209658e-11
-3.96251207e-11
-3.86650466e-11
-8.41470285e-12
-3.87130498e-11
-3.97323982e-11
-3.90658717e-11
-1.89163166e-11
-3.92158479e-11
-3.99053884e-11
-3.94403337e-11
-2.58278525e-11
-3.96343076e-11
-4.01236988e-11
-3.9781381e-11
-2.98814529e-11
-3.99419678e-11
-4.03242175e-11
-4.00826151e-11
-3.27089553e-11
-4.02533247e-11
-4.05089736e-11
-4.03851387e-11
-3.47215758e-11
-4.05461759e-11
-4.07050645e-11
-4.06673462e-11
-3.612374e-11
-4.04473845e-11
-4.09123968e-11
-4.07308877e-11
-3.71524645e-11
)
;

boundaryField
{
    closed
    {
        type            calculated;
        value           nonuniform List<scalar> 0();
    }
    open
    {
        type            calculated;
        value           nonuniform List<scalar> 0();
    }
    sides
    {
        type            empty;
    }
    procBoundary4to3
    {
        type            processor;
        value           uniform 5.97553834e-10;
    }
    procBoundary4to5
    {
        type            processor;
        value           uniform -4.04474865e-11;
    }
}


// ************************************************************************* //
