/*--------------------------------*- C++ -*----------------------------------*\
| =========                 |                                                 |
| \\      /  F ield         | OpenFOAM: The Open Source CFD Toolbox           |
|  \\    /   O peration     | Version:  2306                                  |
|   \\  /    A nd           | Website:  www.openfoam.com                      |
|    \\/     M anipulation  |                                                 |
\*---------------------------------------------------------------------------*/
FoamFile
{
    version     2.0;
    format      ascii;
    arch        "LSB;label=32;scalar=64";
    class       volScalarField;
    location    "0.00184";
    object      mu;
}
// * * * * * * * * * * * * * * * * * * * * * * * * * * * * * * * * * * * * * //

dimensions      [1 -1 -1 0 0 0 0];

internalField   nonuniform List<scalar> 
530
(
5.35072849e-05
5.36146943e-05
5.37572633e-05
5.37786129e-05
5.36383786e-05
5.37173748e-05
5.38761132e-05
5.38811149e-05
5.3756693e-05
5.38121235e-05
5.39850598e-05
5.39763659e-05
5.3861964e-05
5.39019789e-05
5.40748819e-05
5.40658623e-05
5.39567498e-05
5.39877097e-05
5.41562167e-05
5.41406152e-05
5.40424997e-05
5.40686424e-05
5.42298108e-05
5.42190977e-05
5.41286435e-05
5.41446853e-05
5.43083123e-05
5.42955322e-05
5.42132852e-05
5.42188309e-05
5.43851317e-05
5.43696673e-05
5.4292589e-05
5.42947562e-05
5.44596983e-05
5.444319e-05
5.43682495e-05
5.43687575e-05
5.45312811e-05
5.45155416e-05
5.44403403e-05
5.44408626e-05
5.45958494e-05
5.45871099e-05
5.451037e-05
5.45102424e-05
5.46586345e-05
5.46562971e-05
5.45788838e-05
5.45783732e-05
5.47192666e-05
5.47237247e-05
5.46459307e-05
5.46446559e-05
5.47809703e-05
5.47806566e-05
5.47119679e-05
5.47095235e-05
5.48363099e-05
5.48378122e-05
5.4767971e-05
5.47731963e-05
5.48862727e-05
5.48966482e-05
5.48201018e-05
5.48292775e-05
5.49335417e-05
5.4956212e-05
5.4871266e-05
5.487981e-05
5.49801102e-05
5.50050501e-05
5.49212467e-05
5.49298076e-05
5.50258371e-05
5.50513705e-05
5.49701005e-05
5.49792779e-05
5.50713354e-05
5.50975248e-05
5.50178402e-05
5.50279965e-05
5.51160725e-05
5.51430421e-05
5.50645443e-05
5.50758732e-05
5.5159813e-05
5.5187614e-05
5.5110483e-05
5.51228861e-05
5.52043756e-05
5.52313345e-05
5.51549495e-05
5.51691647e-05
5.5250605e-05
5.52747959e-05
5.52009768e-05
5.52141308e-05
5.52981128e-05
5.53202015e-05
5.52503996e-05
5.52610326e-05
5.53461378e-05
5.53667245e-05
5.52990254e-05
5.53098714e-05
5.53941922e-05
5.54139415e-05
5.53471474e-05
5.53582185e-05
5.54416728e-05
5.54614337e-05
5.53950113e-05
5.54060666e-05
5.548844e-05
5.55085237e-05
5.54426502e-05
5.54536322e-05
5.55348846e-05
5.55552687e-05
5.54901513e-05
5.55010112e-05
5.5580986e-05
5.56017245e-05
5.55375959e-05
5.55483041e-05
5.56271846e-05
5.56481421e-05
5.55850257e-05
5.55955485e-05
5.56726909e-05
5.56946338e-05
5.56325974e-05
5.56428131e-05
5.57178463e-05
5.57404135e-05
5.56785689e-05
5.56899027e-05
5.57626828e-05
5.57858637e-05
5.57244395e-05
5.57359391e-05
5.58076192e-05
5.58308057e-05
5.5770504e-05
5.57821164e-05
5.58527749e-05
5.58757749e-05
5.58167863e-05
5.58285105e-05
5.58982377e-05
5.59210722e-05
5.58632799e-05
5.58749955e-05
5.59437172e-05
5.59655594e-05
5.5909789e-05
5.59217785e-05
5.59893692e-05
5.60111794e-05
5.5956763e-05
5.59690836e-05
5.60356447e-05
5.60571999e-05
5.60041197e-05
5.60167095e-05
5.60828998e-05
5.61034869e-05
5.60513661e-05
5.60651174e-05
5.61336851e-05
5.61529137e-05
5.61024163e-05
5.6113619e-05
5.61866336e-05
5.62037343e-05
5.61552529e-05
5.61662467e-05
5.62401188e-05
5.62560358e-05
5.62084557e-05
5.6219069e-05
5.62942646e-05
5.63092908e-05
5.62620474e-05
5.62721557e-05
5.63485598e-05
5.63627641e-05
5.63160014e-05
5.63255433e-05
5.64028753e-05
5.6416354e-05
5.63703384e-05
5.63792569e-05
5.64575683e-05
5.64703659e-05
5.64250349e-05
5.64332538e-05
5.65124932e-05
5.65247321e-05
5.64799627e-05
5.6487465e-05
5.65665882e-05
5.65795372e-05
5.65350775e-05
5.65418059e-05
5.66164786e-05
5.66324647e-05
5.65848497e-05
5.65947258e-05
5.66639203e-05
5.6681952e-05
5.66328285e-05
5.66430854e-05
5.67101679e-05
5.6729556e-05
5.66808389e-05
5.66914553e-05
5.67562166e-05
5.67763632e-05
5.6728664e-05
5.67397754e-05
5.68022604e-05
5.68223883e-05
5.67762402e-05
5.67874475e-05
5.68477008e-05
5.6866608e-05
5.68231965e-05
5.68350344e-05
5.68927754e-05
5.69114285e-05
5.68698959e-05
5.68821608e-05
5.6937809e-05
5.69562176e-05
5.69161878e-05
5.69288895e-05
5.6982311e-05
5.7000756e-05
5.69620493e-05
5.69752136e-05
5.70264849e-05
5.70444638e-05
5.7007167e-05
5.70204478e-05
5.70712769e-05
5.70877606e-05
5.70533695e-05
5.70651243e-05
5.71163335e-05
5.71312714e-05
5.70990678e-05
5.71105919e-05
5.71609352e-05
5.71747332e-05
5.71440503e-05
5.71553415e-05
5.72050121e-05
5.72179523e-05
5.71882799e-05
5.71994186e-05
5.72484487e-05
5.72605958e-05
5.72318081e-05
5.72431561e-05
5.72910568e-05
5.73026151e-05
5.72746935e-05
5.72861169e-05
5.73334212e-05
5.73443086e-05
5.73170325e-05
5.73285374e-05
5.73756569e-05
5.73858615e-05
5.73589798e-05
5.73705553e-05
5.74169569e-05
5.74274871e-05
5.74005142e-05
5.74121854e-05
5.74579077e-05
5.74691183e-05
5.74415812e-05
5.74533374e-05
5.74986336e-05
5.7510652e-05
5.74821002e-05
5.74939026e-05
5.75391657e-05
5.75519369e-05
5.75220147e-05
5.75337459e-05
5.75790836e-05
5.75927173e-05
5.75611632e-05
5.75727181e-05
5.76181553e-05
5.76321886e-05
5.75987561e-05
5.76103568e-05
5.7656105e-05
5.76695515e-05
5.76351363e-05
5.76470421e-05
5.76927206e-05
5.77046992e-05
5.76702436e-05
5.76828002e-05
5.77280787e-05
5.77384377e-05
5.7704099e-05
5.77164982e-05
5.7762595e-05
5.77722467e-05
5.77374187e-05
5.77496502e-05
5.77953961e-05
5.78034943e-05
5.77691207e-05
5.77816684e-05
5.78266844e-05
5.7833844e-05
5.78002089e-05
5.78128637e-05
5.78564551e-05
5.78634806e-05
5.78308114e-05
5.78433497e-05
5.7885397e-05
5.78925438e-05
5.78607487e-05
5.78731658e-05
5.79137865e-05
5.79210797e-05
5.78900323e-05
5.79023021e-05
5.79416992e-05
5.79490973e-05
5.79186729e-05
5.79307776e-05
5.79691459e-05
5.79767219e-05
5.79466587e-05
5.7958601e-05
5.7996084e-05
5.80034815e-05
5.79739495e-05
5.79859184e-05
5.80224767e-05
5.8028545e-05
5.80005548e-05
5.80126037e-05
5.80483614e-05
5.80530117e-05
5.80265395e-05
5.80384939e-05
5.80738338e-05
5.80767531e-05
5.80519925e-05
5.80635703e-05
5.80975643e-05
5.8099743e-05
5.8076926e-05
5.80878445e-05
5.81198485e-05
5.81219609e-05
5.8101149e-05
5.81113218e-05
5.81414766e-05
5.81434378e-05
5.81245325e-05
5.81339802e-05
5.81623613e-05
5.81641686e-05
5.81470455e-05
5.8155804e-05
5.81824925e-05
5.81841498e-05
5.81686805e-05
5.8176791e-05
5.82018611e-05
5.8203381e-05
5.81894326e-05
5.8196945e-05
5.82204638e-05
5.82218636e-05
5.82093052e-05
5.82162712e-05
5.82383033e-05
5.82396011e-05
5.82283051e-05
5.82347758e-05
5.82553828e-05
5.82565955e-05
5.82464408e-05
5.82524626e-05
5.82717342e-05
5.82728541e-05
5.82637249e-05
5.82693312e-05
5.82873461e-05
5.82883961e-05
5.82801448e-05
5.82853804e-05
5.83022342e-05
5.83032174e-05
5.82957524e-05
5.83006213e-05
5.83164098e-05
5.83173284e-05
5.83105753e-05
5.83150974e-05
5.83298852e-05
5.83307413e-05
5.83246319e-05
5.83288281e-05
5.83426733e-05
5.83434736e-05
5.83379415e-05
5.83418431e-05
5.83547472e-05
5.83555012e-05
5.83505262e-05
5.83541774e-05
5.83661683e-05
5.83668989e-05
5.83624147e-05
5.83658594e-05
5.83769625e-05
5.83776896e-05
5.83736288e-05
5.83769028e-05
5.83871543e-05
5.83878903e-05
5.83842019e-05
5.83873214e-05
5.83967751e-05
5.83975269e-05
5.83941749e-05
5.8397146e-05
5.84058692e-05
5.84066615e-05
5.84035552e-05
5.84064637e-05
5.84148048e-05
5.84156548e-05
5.84129073e-05
5.84156903e-05
5.8424918e-05
5.84256285e-05
5.84223386e-05
5.84253817e-05
5.84346788e-05
5.84368432e-05
5.84353738e-05
5.84382919e-05
5.84409294e-05
5.84440696e-05
5.84457486e-05
5.84492264e-05
5.84512869e-05
5.8454956e-05
5.84572261e-05
5.84610344e-05
5.84635378e-05
5.8467419e-05
5.84701543e-05
5.84740179e-05
5.84769809e-05
5.84807142e-05
5.84838911e-05
5.84873633e-05
5.84907363e-05
5.84937982e-05
5.84969149e-05
5.84997622e-05
5.8502677e-05
5.85050584e-05
5.85078858e-05
5.85100111e-05
5.85122687e-05
5.85140302e-05
5.85157065e-05
5.85170359e-05
5.85181816e-05
5.85190805e-05
5.85197821e-05
5.85203127e-05
5.85206827e-05
5.85209446e-05
5.85211041e-05
5.85212071e-05
5.852126e-05
5.85212697e-05
5.85212246e-05
5.85211849e-05
5.85211585e-05
5.8521141e-05
5.85211308e-05
5.85211252e-05
5.85211224e-05
5.85211212e-05
5.85211206e-05
5.85211204e-05
5.85211203e-05
5.85211203e-05
5.85211203e-05
5.85211203e-05
5.85211203e-05
5.85211203e-05
5.85211203e-05
5.85211203e-05
5.85211203e-05
5.85211203e-05
5.85211203e-05
5.85211203e-05
5.85211203e-05
5.85211203e-05
5.85211203e-05
5.85211203e-05
5.85211203e-05
5.85211203e-05
5.85211203e-05
5.85211203e-05
5.85211203e-05
5.85211203e-05
5.85211203e-05
5.85211203e-05
)
;

boundaryField
{
    closed
    {
        type            calculated;
        value           nonuniform List<scalar> 0();
    }
    open
    {
        type            calculated;
        value           uniform 5.85211203e-05;
    }
    sides
    {
        type            empty;
    }
    procBoundary5to4
    {
        type            processor;
        value           uniform 5.36661809e-05;
    }
}


// ************************************************************************* //
