/*--------------------------------*- C++ -*----------------------------------*\
| =========                 |                                                 |
| \\      /  F ield         | OpenFOAM: The Open Source CFD Toolbox           |
|  \\    /   O peration     | Version:  2306                                  |
|   \\  /    A nd           | Website:  www.openfoam.com                      |
|    \\/     M anipulation  |                                                 |
\*---------------------------------------------------------------------------*/
FoamFile
{
    version     2.0;
    format      ascii;
    arch        "LSB;label=32;scalar=64";
    class       volScalarField;
    location    "0.00184";
    object      prefDh_H;
}
// * * * * * * * * * * * * * * * * * * * * * * * * * * * * * * * * * * * * * //

dimensions      [1 1 -3 0 0 0 0];

internalField   nonuniform List<scalar> 
530
(
82111.4099
82232.9352
82732.1701
82770.6229
82342.9911
82431.1316
82938.4112
82950.1862
82551.4289
82614.6745
83131.3423
83117.1906
82733.9379
82789.2187
83289.0095
83274.2389
82897.3355
82955.3983
83432.0137
83405.7411
83043.7911
83109.2644
83561.9652
83544.0245
83195.5504
83249.6308
83700.6592
83678.9397
83349.2022
83385.0689
83836.4952
83809.9818
83493.7599
83523.6204
83968.5243
83940.1128
83631.8328
83658.258
84095.4784
84068.3607
83762.4484
83789.5433
84209.1014
84195.3687
83889.2531
83915.0709
84320.4514
84318.3313
84013.5523
84038.8029
84427.9643
84438.1702
84136.126
84159.281
84540.5056
84536.9059
84257.1211
84277.1029
84640.4707
84637.3227
84358.9477
84393.081
84730.5994
84744.2722
84453.3917
84494.1718
84816.0977
84854.8496
84546.2596
84584.3648
84900.4068
84943.7413
84637.103
84674.0646
84983.2784
85027.6271
84726.0303
84763.3422
85065.7849
85111.27
84813.0318
84851.7224
85146.9809
85193.9001
84898.3011
84938.9152
85226.6709
85275.0843
84982.5038
85024.7736
85307.8596
85354.8037
85063.4328
85109.5375
85392.0141
85434.1015
85147.9228
85191.4863
85478.4353
85516.8541
85239.5088
85277.6199
85565.7772
85601.5831
85329.5973
85368.001
85653.1864
85687.5413
85418.7779
85457.5162
85739.6048
85773.9963
85507.4832
85546.0396
85824.7927
85859.7558
85595.749
85634.012
85909.4718
85945.029
85683.7087
85721.5864
85993.7773
86029.9534
85771.5224
85808.9505
86078.2584
86114.8125
85859.246
85896.1489
86161.513
86199.7981
85947.3281
85983.3248
86244.1388
86283.5167
86032.2634
86070.1976
86326.1918
86366.6417
86116.9253
86155.0059
86408.4021
86448.8536
86201.8845
86240.0146
86490.9706
86531.0885
86287.2058
86325.4077
86574.0419
86613.8735
86372.8593
86410.7725
86657.21
86695.3805
86458.3234
86496.6708
86740.8032
86778.9172
86544.7625
86583.6925
86825.4498
86863.1259
86631.9943
86671.243
86911.784
86947.774
86718.5301
86760.5409
87004.3223
87037.9203
86813.0157
86849.4769
87100.6327
87130.512
86910.9849
86946.8455
87197.8461
87225.6766
87009.5484
87044.7147
87296.192
87322.4811
87108.6267
87142.8905
87394.7742
87419.6805
87208.2513
87241.4838
87493.6217
87517.2588
87308.5052
87340.5738
87593.0942
87615.5313
87409.3711
87440.1238
87692.9304
87714.3708
87510.4994
87540.0512
87791.2504
87813.9197
87612.5112
87640.1763
87882.0549
87910.064
87703.5605
87737.9885
87968.4723
88000.0525
87790.8142
87826.2531
88052.7049
88086.6487
87878.1959
87914.516
88136.5027
88171.7689
87965.2634
88002.632
88220.29
88255.589
88051.9679
88089.0234
88303.0591
88336.2221
88137.3165
88175.612
88385.0783
88417.811
88222.4347
88261.4548
88466.9216
88499.2372
88306.9636
88346.8259
88547.7302
88580.1176
88390.7574
88431.5919
88627.8686
88659.4397
88472.9377
88513.7685
88709.025
88737.9607
88557.7313
88594.6056
88790.5664
88816.7765
88641.6228
88677.5675
88871.2061
88895.4177
88724.1253
88759.2007
88950.8392
88973.5406
88805.2628
88839.6183
89029.2756
89050.6187
88885.1569
88919.7145
89106.323
89126.6343
88963.9979
88998.3883
89182.8575
89201.985
89042.0236
89076.2324
89259.0781
89276.9957
89119.5305
89153.7187
89333.552
89352.0388
89196.5363
89230.8862
89407.3251
89426.9997
89272.8646
89307.4954
89480.615
89501.699
89348.4259
89383.2642
89553.4791
89575.8738
89423.1041
89457.8069
89625.1773
89649.0822
89496.4898
89530.6862
89695.3062
89719.9175
89566.794
89600.7499
89763.3842
89786.982
89634.5301
89669.0387
89829.0427
89850.0867
89699.5012
89735.3881
89892.4172
89910.64
89761.8159
89796.9221
89954.2841
89971.3073
89823.2306
89857.7116
90013.173
90027.4722
89881.0415
89916.1972
90069.3406
90081.9902
89937.8698
89973.2127
90122.7711
90135.1858
89994.0883
90029.0713
90174.6785
90187.3064
90049.2895
90083.8738
90225.5489
90238.4352
90103.5249
90137.5971
90275.517
90288.5896
90156.815
90190.2995
90324.6052
90337.9954
90209.1257
90241.9182
90372.7391
90385.8267
90260.3721
90293.1012
90419.8549
90430.6164
90310.5521
90343.1931
90466.0236
90474.3061
90359.7643
90391.8368
90511.4206
90516.6674
90408.1214
90439.0184
90553.7033
90557.6551
90456.0296
90484.8063
90593.4004
90597.235
90502.492
90529.1849
90631.9011
90635.465
90547.3486
90572.0718
90669.0521
90672.3389
90590.528
90613.408
90704.8359
90707.8522
90632.0132
90653.1746
90739.2379
90742.0066
90671.7894
90691.3708
90772.2537
90774.8061
90709.8588
90728.001
90803.8904
90806.2584
90746.2316
90763.0709
90834.1552
90836.3688
90780.9193
90796.5807
90863.1059
90865.1518
90813.9458
90828.5165
90890.7247
90892.6433
90845.3283
90858.8941
90917.0409
90918.8379
90875.1356
90887.7427
90942.0767
90943.7556
90903.4191
90915.1198
90965.8555
90967.4202
90930.2128
90941.0614
90988.4018
90989.864
90955.5535
90965.6308
91009.701
91011.0806
90979.4857
90988.9039
91029.8334
91031.1674
91002.0691
91010.9378
91048.8423
91050.166
91023.348
91031.7516
91066.7721
91068.1078
91043.3957
91051.3641
91083.6803
91085.0388
91062.3069
91069.8393
91099.6443
91101.0687
91080.1044
91087.3888
91115.3117
91116.8319
91098.3038
91105.1253
91133.0275
91134.2916
91117.3278
91124.5913
91146.7435
91151.4712
91145.1236
91151.5173
91155.9664
91162.624
91164.5041
91171.7656
91174.4559
91182.057
91185.1095
91192.9325
91196.4283
91204.3239
91208.2898
91216.0583
91220.5222
91227.9209
91232.8965
91239.6505
91245.1442
91250.9473
91256.1666
91261.4153
91266.3796
91270.7036
91275.5459
91279.3655
91283.2172
91286.3578
91289.1971
91291.5511
91293.4717
91295.0521
91296.2123
91297.1374
91297.739
91298.1918
91298.4472
91298.626
91298.712
91298.7285
91298.6332
91298.5534
91298.5011
91298.467
91298.4475
91298.4369
91298.4317
91298.4295
91298.4284
91298.428
91298.4279
91298.4278
91298.4278
91298.4278
91298.4278
91298.4278
91298.4278
91298.4278
91298.4278
91298.4278
91298.4278
91298.4278
91298.4278
91298.4278
91298.4278
91298.4278
91298.4278
91298.4278
91298.4278
91298.4278
91298.4278
91298.4278
91298.4278
91298.4278
)
;

boundaryField
{
    closed
    {
        type            calculated;
        value           nonuniform List<scalar> 0();
    }
    open
    {
        type            calculated;
        value           uniform 91298.4278;
    }
    sides
    {
        type            empty;
    }
    procBoundary5to4
    {
        type            processor;
        value           uniform 82573.8091;
    }
}


// ************************************************************************* //
