/*--------------------------------*- C++ -*----------------------------------*\
| =========                 |                                                 |
| \\      /  F ield         | OpenFOAM: The Open Source CFD Toolbox           |
|  \\    /   O peration     | Version:  2306                                  |
|   \\  /    A nd           | Website:  www.openfoam.com                      |
|    \\/     M anipulation  |                                                 |
\*---------------------------------------------------------------------------*/
FoamFile
{
    version     2.0;
    format      ascii;
    arch        "LSB;label=32;scalar=64";
    class       volScalarField;
    location    "0.00184";
    object      prefDPV_H2;
}
// * * * * * * * * * * * * * * * * * * * * * * * * * * * * * * * * * * * * * //

dimensions      [1 -1 -1 0 0 0 0];

internalField   nonuniform List<scalar> 
530
(
-8.60343046e-05
-8.61059961e-05
-8.66202662e-05
-8.66529967e-05
-8.62300511e-05
-8.62812694e-05
-8.67928937e-05
-8.68039052e-05
-8.64057585e-05
-8.64436999e-05
-8.69555348e-05
-8.69442999e-05
-8.65583079e-05
-8.65981823e-05
-8.70881251e-05
-8.70763672e-05
-8.66944778e-05
-8.67448331e-05
-8.72085154e-05
-8.71871275e-05
-8.68159634e-05
-8.68793073e-05
-8.73179179e-05
-8.73034341e-05
-8.69437413e-05
-8.70003609e-05
-8.74344443e-05
-8.74167513e-05
-8.70748708e-05
-8.71164354e-05
-8.75486185e-05
-8.75268733e-05
-8.71984991e-05
-8.72347854e-05
-8.76596854e-05
-8.76363195e-05
-8.73166535e-05
-8.73496407e-05
-8.77666004e-05
-8.77442862e-05
-8.74280423e-05
-8.74616856e-05
-8.78621386e-05
-8.78512893e-05
-8.75361603e-05
-8.75685154e-05
-8.79560893e-05
-8.79549881e-05
-8.76421254e-05
-8.76740139e-05
-8.80466489e-05
-8.80559042e-05
-8.77469537e-05
-8.7776792e-05
-8.81422354e-05
-8.81383326e-05
-8.78505471e-05
-8.7877285e-05
-8.82269773e-05
-8.82225848e-05
-8.79373263e-05
-8.79763325e-05
-8.83034643e-05
-8.83133752e-05
-8.80176547e-05
-8.80621154e-05
-8.83761683e-05
-8.84079203e-05
-8.80967312e-05
-8.81382558e-05
-8.84479134e-05
-8.84836255e-05
-8.81741546e-05
-8.82141711e-05
-8.8518494e-05
-8.85550241e-05
-8.82500173e-05
-8.8289939e-05
-8.8588799e-05
-8.86262569e-05
-8.83242963e-05
-8.83651314e-05
-8.86580368e-05
-8.86966233e-05
-8.83971763e-05
-8.84394558e-05
-8.8725863e-05
-8.87656672e-05
-8.84692877e-05
-8.85127481e-05
-8.87949349e-05
-8.88335232e-05
-8.85384084e-05
-8.85852102e-05
-8.88664912e-05
-8.89010577e-05
-8.86107491e-05
-8.86551615e-05
-8.89399416e-05
-8.89714822e-05
-8.8689288e-05
-8.87287497e-05
-8.90141662e-05
-8.90435563e-05
-8.87665461e-05
-8.88060532e-05
-8.90884614e-05
-8.91166591e-05
-8.88430439e-05
-8.8882643e-05
-8.91619532e-05
-8.91901867e-05
-8.89190577e-05
-8.89583706e-05
-8.92344473e-05
-8.92631518e-05
-8.89946287e-05
-8.90336229e-05
-8.93065053e-05
-8.93356398e-05
-8.90699235e-05
-8.91085205e-05
-8.93780904e-05
-8.94077273e-05
-8.91450806e-05
-8.9183222e-05
-8.94498288e-05
-8.94797677e-05
-8.92201387e-05
-8.92577551e-05
-8.95205563e-05
-8.95519158e-05
-8.9295529e-05
-8.93322448e-05
-8.9590764e-05
-8.96230154e-05
-8.93679664e-05
-8.94064276e-05
-8.96604978e-05
-8.96936225e-05
-8.94400964e-05
-8.94786013e-05
-8.97303549e-05
-8.976347e-05
-8.95124488e-05
-8.95509153e-05
-8.98004889e-05
-8.98333258e-05
-8.95850851e-05
-8.96235407e-05
-8.98709934e-05
-8.99036222e-05
-8.96579718e-05
-8.96960621e-05
-8.994149e-05
-8.99727245e-05
-8.97306073e-05
-8.97690197e-05
-9.00121925e-05
-9.00433811e-05
-8.98040994e-05
-8.9842975e-05
-9.00837395e-05
-9.01145689e-05
-8.98782782e-05
-8.99173435e-05
-9.0156656e-05
-9.01861041e-05
-8.99516855e-05
-8.99932846e-05
-9.02346714e-05
-9.02621465e-05
-9.00319526e-05
-9.00687058e-05
-9.03157679e-05
-9.03401965e-05
-9.01150928e-05
-9.01511874e-05
-9.0397581e-05
-9.04203417e-05
-9.01986869e-05
-9.02339744e-05
-9.04803055e-05
-9.05018113e-05
-9.02826196e-05
-9.03169434e-05
-9.05631965e-05
-9.05835349e-05
-9.03669469e-05
-9.04001988e-05
-9.06460655e-05
-9.06653651e-05
-9.0451754e-05
-9.04838152e-05
-9.07294203e-05
-9.07477329e-05
-9.0537034e-05
-9.05677726e-05
-9.08130434e-05
-9.08305283e-05
-9.06224231e-05
-9.06520128e-05
-9.08953891e-05
-9.09138627e-05
-9.07085022e-05
-9.07363767e-05
-9.0971513e-05
-9.09943473e-05
-9.07848766e-05
-9.081879e-05
-9.10439993e-05
-9.10697293e-05
-9.08578412e-05
-9.089268e-05
-9.11146463e-05
-9.11422784e-05
-9.09309012e-05
-9.09665266e-05
-9.11848839e-05
-9.12135718e-05
-9.1003678e-05
-9.10401993e-05
-9.12549785e-05
-9.12836236e-05
-9.107615e-05
-9.11122347e-05
-9.13240776e-05
-9.13509722e-05
-9.11473911e-05
-9.11845095e-05
-9.13924919e-05
-9.14190296e-05
-9.1218484e-05
-9.12561642e-05
-9.14606798e-05
-9.14868822e-05
-9.12891031e-05
-9.13274743e-05
-9.15279584e-05
-9.15542191e-05
-9.13590891e-05
-9.1398289e-05
-9.15946277e-05
-9.16202229e-05
-9.14276291e-05
-9.14667348e-05
-9.16620731e-05
-9.16855208e-05
-9.14983028e-05
-9.15338533e-05
-9.17297721e-05
-9.1750999e-05
-9.15681814e-05
-9.16027799e-05
-9.17966661e-05
-9.18162715e-05
-9.16368534e-05
-9.16705738e-05
-9.18626812e-05
-9.18810569e-05
-9.17043678e-05
-9.17373372e-05
-9.19276445e-05
-9.19448833e-05
-9.17708356e-05
-9.18039008e-05
-9.19912698e-05
-9.20076738e-05
-9.18364424e-05
-9.18692599e-05
-9.20544197e-05
-9.20698616e-05
-9.19014058e-05
-9.19339558e-05
-9.21172527e-05
-9.21317081e-05
-9.19659747e-05
-9.19984516e-05
-9.21786018e-05
-9.21935121e-05
-9.20301812e-05
-9.20627833e-05
-9.22393216e-05
-9.22551823e-05
-9.20938567e-05
-9.21267292e-05
-9.22995866e-05
-9.23165745e-05
-9.2156947e-05
-9.21900297e-05
-9.23594444e-05
-9.23774784e-05
-9.2219353e-05
-9.22523221e-05
-9.24182972e-05
-9.24375419e-05
-9.22806989e-05
-9.23131916e-05
-9.24758221e-05
-9.24956355e-05
-9.23392529e-05
-9.23715186e-05
-9.25316334e-05
-9.25506375e-05
-9.23955433e-05
-9.24282289e-05
-9.25854371e-05
-9.26023963e-05
-9.24493877e-05
-9.24832322e-05
-9.26373433e-05
-9.26520426e-05
-9.25009032e-05
-9.25339134e-05
-9.2687977e-05
-9.27016913e-05
-9.25516887e-05
-9.25840403e-05
-9.2736071e-05
-9.2747599e-05
-9.25992681e-05
-9.26321757e-05
-9.27819338e-05
-9.27921353e-05
-9.26460559e-05
-9.26790943e-05
-9.28255486e-05
-9.28355606e-05
-9.26924026e-05
-9.27250899e-05
-9.28678933e-05
-9.28780751e-05
-9.27379599e-05
-9.27702563e-05
-9.29093584e-05
-9.2919747e-05
-9.2782782e-05
-9.28145739e-05
-9.29500534e-05
-9.29605916e-05
-9.28268878e-05
-9.2858099e-05
-9.29899984e-05
-9.30007932e-05
-9.28702459e-05
-9.29007552e-05
-9.30291344e-05
-9.30396921e-05
-9.29127832e-05
-9.29431955e-05
-9.30674108e-05
-9.30761073e-05
-9.29544926e-05
-9.29847455e-05
-9.31048877e-05
-9.3111603e-05
-9.29954489e-05
-9.30250945e-05
-9.31417112e-05
-9.31459948e-05
-9.3035727e-05
-9.30642394e-05
-9.31759983e-05
-9.31792473e-05
-9.30757822e-05
-9.31022519e-05
-9.32081799e-05
-9.32113342e-05
-9.31145899e-05
-9.31391123e-05
-9.3239371e-05
-9.32423046e-05
-9.3152046e-05
-9.31747403e-05
-9.32694486e-05
-9.32721556e-05
-9.3188088e-05
-9.32090785e-05
-9.32983996e-05
-9.33008851e-05
-9.32227018e-05
-9.32421071e-05
-9.3326213e-05
-9.33284959e-05
-9.32558739e-05
-9.32738239e-05
-9.33528867e-05
-9.33549926e-05
-9.32876056e-05
-9.33042313e-05
-9.33784281e-05
-9.33803827e-05
-9.33179057e-05
-9.3333333e-05
-9.34028442e-05
-9.34046718e-05
-9.33467827e-05
-9.33611276e-05
-9.34261828e-05
-9.34278729e-05
-9.33742577e-05
-9.33876e-05
-9.34484312e-05
-9.34500164e-05
-9.3400325e-05
-9.34127543e-05
-9.34696145e-05
-9.34710992e-05
-9.34250639e-05
-9.34366116e-05
-9.34897517e-05
-9.34911389e-05
-9.34485222e-05
-9.34592364e-05
-9.35088635e-05
-9.35101561e-05
-9.34707282e-05
-9.3480659e-05
-9.35269706e-05
-9.35281782e-05
-9.34917134e-05
-9.35009347e-05
-9.35440356e-05
-9.35451711e-05
-9.35115161e-05
-9.35201304e-05
-9.35601496e-05
-9.35612459e-05
-9.3530188e-05
-9.35382948e-05
-9.35753519e-05
-9.35764375e-05
-9.35477675e-05
-9.35554421e-05
-9.35896792e-05
-9.35907719e-05
-9.35643191e-05
-9.35715859e-05
-9.36031788e-05
-9.36042866e-05
-9.35799281e-05
-9.35867819e-05
-9.36159122e-05
-9.36170693e-05
-9.35946178e-05
-9.36012226e-05
-9.36283972e-05
-9.36296272e-05
-9.3609795e-05
-9.36159424e-05
-9.36425033e-05
-9.3643522e-05
-9.36259058e-05
-9.36323995e-05
-9.36522124e-05
-9.36563251e-05
-9.3649871e-05
-9.36554349e-05
-9.36589054e-05
-9.36646325e-05
-9.36657287e-05
-9.36719396e-05
-9.36737312e-05
-9.36802118e-05
-9.36822875e-05
-9.3688934e-05
-9.36913728e-05
-9.36980534e-05
-9.37008866e-05
-9.37074268e-05
-9.37106893e-05
-9.37168787e-05
-9.37205947e-05
-9.37261976e-05
-9.37303854e-05
-9.37351418e-05
-9.37391724e-05
-9.37434173e-05
-9.37472777e-05
-9.37507444e-05
-9.37545146e-05
-9.37575558e-05
-9.37605406e-05
-9.37630243e-05
-9.37652081e-05
-9.37670557e-05
-9.37685169e-05
-9.37697455e-05
-9.37706142e-05
-9.37713237e-05
-9.37717635e-05
-9.37721036e-05
-9.37722836e-05
-9.37724141e-05
-9.37724718e-05
-9.37724788e-05
-9.37723928e-05
-9.37723228e-05
-9.37722775e-05
-9.37722483e-05
-9.37722317e-05
-9.37722228e-05
-9.37722185e-05
-9.37722166e-05
-9.37722157e-05
-9.37722154e-05
-9.37722153e-05
-9.37722152e-05
-9.37722152e-05
-9.37722152e-05
-9.37722152e-05
-9.37722152e-05
-9.37722152e-05
-9.37722152e-05
-9.37722152e-05
-9.37722152e-05
-9.37722152e-05
-9.37722152e-05
-9.37722152e-05
-9.37722152e-05
-9.37722152e-05
-9.37722152e-05
-9.37722152e-05
-9.37722152e-05
-9.37722152e-05
-9.37722152e-05
-9.37722152e-05
-9.37722152e-05
-9.37722152e-05
-9.37722152e-05
)
;

boundaryField
{
    closed
    {
        type            calculated;
        value           nonuniform List<scalar> 0();
    }
    open
    {
        type            calculated;
        value           uniform -9.37722152e-05;
    }
    sides
    {
        type            empty;
    }
    procBoundary5to4
    {
        type            processor;
        value           uniform -8.64876168e-05;
    }
}


// ************************************************************************* //
