/*--------------------------------*- C++ -*----------------------------------*\
| =========                 |                                                 |
| \\      /  F ield         | OpenFOAM: The Open Source CFD Toolbox           |
|  \\    /   O peration     | Version:  2306                                  |
|   \\  /    A nd           | Website:  www.openfoam.com                      |
|    \\/     M anipulation  |                                                 |
\*---------------------------------------------------------------------------*/
FoamFile
{
    version     2.0;
    format      ascii;
    arch        "LSB;label=32;scalar=64";
    class       volVectorField;
    location    "0.00184";
    object      U;
}
// * * * * * * * * * * * * * * * * * * * * * * * * * * * * * * * * * * * * * //

dimensions      [0 1 -1 0 0 0 0];

internalField   nonuniform List<vector> 
530
(
(0.760849078 0 0)
(0.623542607 0 0)
(0.689512012 0 0)
(0.838546598 0 0)
(0.778398393 0 0)
(0.628735203 0 0)
(0.687206508 0 0)
(0.83783086 0 0)
(0.786129271 0 0)
(0.632800077 0 0)
(0.683560427 0 0)
(0.838236647 0 0)
(0.798648675 0 0)
(0.646325999 0 0)
(0.683875964 0 0)
(0.835282493 0 0)
(0.807665203 0 0)
(0.660419078 0 0)
(0.687619242 0 0)
(0.829090568 0 0)
(0.805105846 0 0)
(0.667008716 0 0)
(0.685767414 0 0)
(0.818863363 0 0)
(0.8014093 0 0)
(0.665035712 0 0)
(0.674112568 0 0)
(0.801842044 0 0)
(0.78884915 0 0)
(0.65394734 0 0)
(0.65746494 0 0)
(0.781111626 0 0)
(0.769058329 0 0)
(0.635689864 0 0)
(0.637247938 0 0)
(0.758833706 0 0)
(0.748908422 0 0)
(0.617136946 0 0)
(0.616306269 0 0)
(0.735853686 0 0)
(0.726082828 0 0)
(0.593663492 0 0)
(0.587150258 0 0)
(0.702851407 0 0)
(0.695182046 0 0)
(0.562692981 0 0)
(0.549927487 0 0)
(0.661468081 0 0)
(0.657812418 0 0)
(0.527319038 0 0)
(0.508217112 0 0)
(0.614636588 0 0)
(0.616488694 0 0)
(0.494609837 0 0)
(0.476926487 0 0)
(0.574221862 0 0)
(0.57684352 0 0)
(0.467367414 0 0)
(0.450337788 0 0)
(0.538812012 0 0)
(0.538844442 0 0)
(0.436887358 0 0)
(0.421699652 0 0)
(0.506714585 0 0)
(0.505931181 0 0)
(0.403325665 0 0)
(0.383278879 0 0)
(0.471361018 0 0)
(0.478758221 0 0)
(0.373073817 0 0)
(0.345123446 0 0)
(0.429744361 0 0)
(0.439087054 0 0)
(0.338411892 0 0)
(0.311226833 0 0)
(0.391906503 0 0)
(0.40118805 0 0)
(0.304707966 0 0)
(0.278646662 0 0)
(0.356632577 0 0)
(0.366126299 0 0)
(0.273389987 0 0)
(0.248365789 0 0)
(0.323849466 0 0)
(0.333692389 0 0)
(0.245553986 0 0)
(0.221534331 0 0)
(0.293473821 0 0)
(0.303693515 0 0)
(0.221031298 0 0)
(0.199304637 0 0)
(0.268456396 0 0)
(0.276185529 0 0)
(0.19661072 0 0)
(0.179251397 0 0)
(0.247820451 0 0)
(0.254180586 0 0)
(0.175790354 0 0)
(0.159476288 0 0)
(0.22787367 0 0)
(0.235746043 0 0)
(0.160089289 0 0)
(0.144991923 0 0)
(0.212268937 0 0)
(0.21935544 0 0)
(0.145619382 0 0)
(0.132477839 0 0)
(0.199707264 0 0)
(0.206654117 0 0)
(0.133974731 0 0)
(0.121911837 0 0)
(0.189519071 0 0)
(0.197085544 0 0)
(0.125370297 0 0)
(0.113715018 0 0)
(0.181573023 0 0)
(0.189917142 0 0)
(0.119073064 0 0)
(0.10760485 0 0)
(0.175598845 0 0)
(0.184937759 0 0)
(0.11575316 0 0)
(0.104471477 0 0)
(0.171711232 0 0)
(0.181720193 0 0)
(0.114141503 0 0)
(0.10316583 0 0)
(0.169770835 0 0)
(0.180568899 0 0)
(0.11443602 0 0)
(0.103189565 0 0)
(0.168758729 0 0)
(0.180972244 0 0)
(0.117146807 0 0)
(0.105920201 0 0)
(0.170119181 0 0)
(0.18178882 0 0)
(0.119284531 0 0)
(0.109271985 0 0)
(0.173450497 0 0)
(0.185320979 0 0)
(0.123299736 0 0)
(0.11355365 0 0)
(0.177629762 0 0)
(0.189682297 0 0)
(0.128512358 0 0)
(0.119294668 0 0)
(0.183125931 0 0)
(0.195270501 0 0)
(0.13497897 0 0)
(0.126306247 0 0)
(0.18991462 0 0)
(0.202199314 0 0)
(0.142736616 0 0)
(0.134136143 0 0)
(0.195956676 0 0)
(0.207673416 0 0)
(0.150003006 0 0)
(0.14162429 0 0)
(0.201579917 0 0)
(0.213012259 0 0)
(0.157299255 0 0)
(0.149460025 0 0)
(0.207698241 0 0)
(0.218873983 0 0)
(0.165118625 0 0)
(0.158139182 0 0)
(0.214934494 0 0)
(0.22373552 0 0)
(0.170421204 0 0)
(0.166704897 0 0)
(0.226188447 0 0)
(0.235537798 0 0)
(0.180993814 0 0)
(0.17737912 0 0)
(0.237928742 0 0)
(0.246959403 0 0)
(0.192008361 0 0)
(0.189463761 0 0)
(0.251031911 0 0)
(0.259250161 0 0)
(0.202955053 0 0)
(0.201117197 0 0)
(0.264297274 0 0)
(0.272117975 0 0)
(0.214252639 0 0)
(0.212684961 0 0)
(0.277186243 0 0)
(0.284996249 0 0)
(0.226619711 0 0)
(0.225124179 0 0)
(0.289611418 0 0)
(0.297155918 0 0)
(0.238778439 0 0)
(0.237509272 0 0)
(0.302022379 0 0)
(0.309430879 0 0)
(0.250979878 0 0)
(0.249752412 0 0)
(0.314310428 0 0)
(0.321791531 0 0)
(0.263172682 0 0)
(0.261198096 0 0)
(0.325353547 0 0)
(0.335669691 0 0)
(0.279120632 0 0)
(0.27446489 0 0)
(0.335297757 0 0)
(0.344883796 0 0)
(0.290335733 0 0)
(0.286799893 0 0)
(0.347230179 0 0)
(0.357370066 0 0)
(0.302898572 0 0)
(0.297853445 0 0)
(0.356975037 0 0)
(0.367885222 0 0)
(0.315133135 0 0)
(0.30959092 0 0)
(0.366725623 0 0)
(0.377551075 0 0)
(0.326486647 0 0)
(0.32061914 0 0)
(0.374908009 0 0)
(0.385257415 0 0)
(0.336869432 0 0)
(0.330740123 0 0)
(0.38059167 0 0)
(0.389440334 0 0)
(0.344813957 0 0)
(0.339838974 0 0)
(0.386308903 0 0)
(0.394599178 0 0)
(0.353301325 0 0)
(0.348937908 0 0)
(0.392495651 0 0)
(0.400389992 0 0)
(0.361979916 0 0)
(0.357888973 0 0)
(0.39838957 0 0)
(0.405959965 0 0)
(0.370458437 0 0)
(0.366695589 0 0)
(0.40427658 0 0)
(0.410607749 0 0)
(0.377114028 0 0)
(0.374213333 0 0)
(0.410097673 0 0)
(0.416024329 0 0)
(0.384140159 0 0)
(0.381607245 0 0)
(0.415725612 0 0)
(0.420673118 0 0)
(0.389901691 0 0)
(0.387926858 0 0)
(0.420605346 0 0)
(0.424522103 0 0)
(0.394407454 0 0)
(0.392878376 0 0)
(0.424788539 0 0)
(0.42831447 0 0)
(0.398974722 0 0)
(0.397880193 0 0)
(0.428896324 0 0)
(0.432112578 0 0)
(0.404228715 0 0)
(0.403648267 0 0)
(0.433067148 0 0)
(0.435650931 0 0)
(0.409204288 0 0)
(0.409301317 0 0)
(0.437713604 0 0)
(0.439853526 0 0)
(0.414411828 0 0)
(0.415262098 0 0)
(0.443176358 0 0)
(0.445065756 0 0)
(0.420199144 0 0)
(0.42112391 0 0)
(0.448656672 0 0)
(0.450907183 0 0)
(0.426511927 0 0)
(0.427247182 0 0)
(0.454817324 0 0)
(0.4575632 0 0)
(0.43308118 0 0)
(0.433524351 0 0)
(0.461722113 0 0)
(0.464982582 0 0)
(0.439752043 0 0)
(0.439831058 0 0)
(0.469232858 0 0)
(0.473024969 0 0)
(0.446420317 0 0)
(0.445873161 0 0)
(0.476710433 0 0)
(0.481112084 0 0)
(0.453029707 0 0)
(0.452043683 0 0)
(0.484369469 0 0)
(0.488451658 0 0)
(0.458318176 0 0)
(0.45728505 0 0)
(0.491013903 0 0)
(0.494418033 0 0)
(0.462985907 0 0)
(0.462565665 0 0)
(0.496673773 0 0)
(0.498642527 0 0)
(0.466711245 0 0)
(0.467656802 0 0)
(0.501933081 0 0)
(0.502049074 0 0)
(0.46808044 0 0)
(0.468803312 0 0)
(0.504338035 0 0)
(0.504508214 0 0)
(0.470655992 0 0)
(0.472220915 0 0)
(0.50686321 0 0)
(0.505775238 0 0)
(0.472444478 0 0)
(0.474649426 0 0)
(0.508249695 0 0)
(0.50669113 0 0)
(0.474558896 0 0)
(0.476826027 0 0)
(0.508870443 0 0)
(0.507345685 0 0)
(0.476752778 0 0)
(0.478907436 0 0)
(0.509439084 0 0)
(0.508020757 0 0)
(0.478812284 0 0)
(0.480840474 0 0)
(0.51010414 0 0)
(0.50876712 0 0)
(0.480640017 0 0)
(0.482557075 0 0)
(0.510861364 0 0)
(0.509581181 0 0)
(0.482223187 0 0)
(0.484060702 0 0)
(0.511806243 0 0)
(0.510654538 0 0)
(0.483633227 0 0)
(0.485291231 0 0)
(0.512436617 0 0)
(0.511079149 0 0)
(0.485049784 0 0)
(0.487501176 0 0)
(0.513480177 0 0)
(0.511049481 0 0)
(0.486048064 0 0)
(0.489573377 0 0)
(0.514651952 0 0)
(0.511143257 0 0)
(0.486987338 0 0)
(0.491695335 0 0)
(0.516130783 0 0)
(0.511681568 0 0)
(0.48838547 0 0)
(0.493381185 0 0)
(0.516425294 0 0)
(0.512305006 0 0)
(0.491017464 0 0)
(0.495670489 0 0)
(0.516732293 0 0)
(0.512903469 0 0)
(0.493496501 0 0)
(0.497875966 0 0)
(0.517128527 0 0)
(0.513599954 0 0)
(0.495972049 0 0)
(0.500101023 0 0)
(0.517681873 0 0)
(0.514439103 0 0)
(0.49845678 0 0)
(0.502351039 0 0)
(0.518392155 0 0)
(0.515421537 0 0)
(0.500957008 0 0)
(0.504630351 0 0)
(0.519254856 0 0)
(0.516540144 0 0)
(0.503471079 0 0)
(0.506938318 0 0)
(0.520263947 0 0)
(0.517789846 0 0)
(0.506002 0 0)
(0.509278929 0 0)
(0.521416804 0 0)
(0.519168414 0 0)
(0.508555501 0 0)
(0.511657901 0 0)
(0.522711962 0 0)
(0.52066974 0 0)
(0.511114629 0 0)
(0.514072187 0 0)
(0.524162326 0 0)
(0.52229719 0 0)
(0.513693994 0 0)
(0.516542921 0 0)
(0.525823129 0 0)
(0.524052117 0 0)
(0.516167368 0 0)
(0.518943739 0 0)
(0.527646231 0 0)
(0.526041585 0 0)
(0.518725193 0 0)
(0.521366466 0 0)
(0.529567388 0 0)
(0.528132681 0 0)
(0.521328034 0 0)
(0.523842308 0 0)
(0.531594046 0 0)
(0.530316483 0 0)
(0.523967183 0 0)
(0.526357065 0 0)
(0.533707471 0 0)
(0.532627036 0 0)
(0.526793652 0 0)
(0.529041779 0 0)
(0.535840964 0 0)
(0.534912616 0 0)
(0.529682841 0 0)
(0.531853425 0 0)
(0.53813326 0 0)
(0.537344815 0 0)
(0.532681726 0 0)
(0.534792679 0 0)
(0.540604479 0 0)
(0.539949014 0 0)
(0.53580627 0 0)
(0.537858563 0 0)
(0.54323285 0 0)
(0.542675804 0 0)
(0.538969174 0 0)
(0.540920031 0 0)
(0.545853737 0 0)
(0.545339871 0 0)
(0.541964978 0 0)
(0.543783353 0 0)
(0.548337437 0 0)
(0.547796584 0 0)
(0.544634036 0 0)
(0.546661032 0 0)
(0.551572477 0 0)
(0.551396937 0 0)
(0.548322324 0 0)
(0.550937644 0 0)
(0.556760975 0 0)
(0.552435988 0 0)
(0.544252371 0 0)
(0.545215637 0 0)
(0.55433085 0 0)
(0.55830691 0 0)
(0.55721089 0 0)
(0.557493645 0 0)
(0.559175424 0 0)
(0.560634057 0 0)
(0.561930632 0 0)
(0.563391475 0 0)
(0.565029239 0 0)
(0.566819966 0 0)
(0.568774053 0 0)
(0.570906627 0 0)
(0.573224615 0 0)
(0.575739545 0 0)
(0.578460833 0 0)
(0.581402959 0 0)
(0.584578544 0 0)
(0.588003859 0 0)
(0.591694303 0 0)
(0.595664234 0 0)
(0.599931834 0 0)
(0.604515763 0 0)
(0.609432669 0 0)
(0.614696462 0 0)
(0.620325193 0 0)
(0.626328964 0 0)
(0.632718521 0 0)
(0.639499379 0 0)
(0.646675165 0 0)
(0.654238351 0 0)
(0.662174098 0 0)
(0.670453068 0 0)
(0.679033241 0 0)
(0.6878566 0 0)
(0.696852178 0 0)
(0.705938895 0 0)
(0.715032609 0 0)
(0.72405242 0 0)
(0.732924495 0 0)
(0.741577155 0 0)
(0.749924399 0 0)
(0.757831864 0 0)
(0.765069978 0 0)
(0.771258419 0 0)
(0.775794956 0 0)
(0.777781143 0 0)
(0.775987651 0 0)
(0.768959894 0 0)
(0.755391312 0 0)
(0.734779318 0 0)
(0.708155296 0 0)
(0.678425518 0 0)
(0.650056192 0 0)
(0.627978812 0 0)
(0.616340904 0 0)
(0.617215509 0 0)
(0.630148016 0 0)
(0.651342116 0 0)
(0.675810352 0 0)
(0.696841168 0 0)
(0.71414544 0 0)
(0.729124482 0 0)
(0.755724972 0 0)
(0.795286619 0 0)
(0.84589236 0 0)
(0.881612823 0 0)
(0.899430512 0 0)
(0.895461901 0 0)
(0.889949409 0 0)
(0.871348614 0 0)
(0.854300345 0 0)
(0.833612462 0 0)
(0.832149902 0 0)
(0.819613811 0 0)
(0.824908852 0 0)
)
;

boundaryField
{
    closed
    {
        type            noSlip;
    }
    open
    {
        type            inletOutlet;
        inletValue      uniform (0 0 0);
        value           uniform (0.824908852 0 0);
    }
    sides
    {
        type            empty;
    }
    procBoundary5to4
    {
        type            processor;
        value           uniform (0.821121877 0 0);
    }
}


// ************************************************************************* //
