/*--------------------------------*- C++ -*----------------------------------*\
| =========                 |                                                 |
| \\      /  F ield         | OpenFOAM: The Open Source CFD Toolbox           |
|  \\    /   O peration     | Version:  2306                                  |
|   \\  /    A nd           | Website:  www.openfoam.com                      |
|    \\/     M anipulation  |                                                 |
\*---------------------------------------------------------------------------*/
FoamFile
{
    version     2.0;
    format      ascii;
    arch        "LSB;label=32;scalar=64";
    class       volScalarField;
    location    "0.00184";
    object      prefDPV_H2;
}
// * * * * * * * * * * * * * * * * * * * * * * * * * * * * * * * * * * * * * //

dimensions      [1 -1 -1 0 0 0 0];

internalField   nonuniform List<scalar> 
531
(
-3.14817956e-05
-3.09418551e-05
-3.06000196e-05
-3.06062407e-05
-3.13867579e-05
-3.15401718e-05
-3.09655234e-05
-3.08151166e-05
-3.04856249e-05
-3.04887946e-05
-3.14074092e-05
-3.14994181e-05
-3.10087881e-05
-3.06073087e-05
-3.06047964e-05
-3.13807365e-05
-3.150605e-05
-3.1007875e-05
-3.0613534e-05
-3.06132336e-05
-3.13803929e-05
-3.15059085e-05
-3.10058106e-05
-3.06158681e-05
-3.06183724e-05
-3.13824564e-05
-3.15062754e-05
-3.09999062e-05
-3.0617078e-05
-3.06193973e-05
-3.13797315e-05
-3.15053701e-05
-3.09977444e-05
-3.06073139e-05
-3.06095449e-05
-3.14284682e-05
-3.15073776e-05
-3.09655499e-05
-3.05335524e-05
-3.05362561e-05
-3.13036006e-05
-3.15067642e-05
-3.14839169e-05
-3.15245502e-05
-3.09230522e-05
-3.06455942e-05
-3.04488794e-05
-3.04506486e-05
-3.12383429e-05
-3.15301519e-05
-3.09161076e-05
-3.07500375e-05
-3.11745797e-05
-3.15157868e-05
-3.09377605e-05
-3.04822126e-05
-3.04901328e-05
-3.14588211e-05
-3.15477506e-05
-3.09322245e-05
-3.08309914e-05
-3.12370656e-05
-3.15303505e-05
-3.09591454e-05
-3.05886808e-05
-3.06008731e-05
-3.14927472e-05
-3.15676753e-05
-3.09315129e-05
-3.0895225e-05
-3.13379415e-05
-3.15530777e-05
-3.09749072e-05
-3.07886156e-05
-3.0760546e-05
-3.0581824e-05
-3.05956012e-05
-3.14715544e-05
-3.15367867e-05
-3.10486399e-05
-3.07820652e-05
-3.05304849e-05
-3.08640203e-05
-3.15057921e-05
-3.15903392e-05
-3.09215087e-05
-3.09144607e-05
-3.12972386e-05
-3.15472439e-05
-3.10970124e-05
-3.09080904e-05
-3.07836103e-05
-3.05787242e-05
-3.05830564e-05
-3.14109195e-05
-3.15247047e-05
-3.0976318e-05
-3.06362879e-05
-3.06379724e-05
-3.14644973e-05
-3.15273078e-05
-3.09605866e-05
-3.05475674e-05
-3.05869157e-05
-3.14723949e-05
-3.15265464e-05
-3.14926603e-05
-3.09946416e-05
-3.08882968e-05
-3.05364901e-05
-3.0542887e-05
-3.1447035e-05
-3.15183787e-05
-3.09455486e-05
-3.05342114e-05
-3.05406734e-05
-3.14405614e-05
-3.15248562e-05
-3.09472634e-05
-3.05851726e-05
-3.05953948e-05
-3.14619057e-05
-3.15482558e-05
-3.09317792e-05
-3.08813536e-05
-3.129989e-05
-3.15268956e-05
-3.09375671e-05
-3.05478713e-05
-3.06031564e-05
-3.1462747e-05
-3.15326439e-05
-3.09279498e-05
-3.051965e-05
-3.06463558e-05
-3.14716522e-05
-3.15324331e-05
-3.09062785e-05
-3.04856768e-05
-3.05916597e-05
-3.14524673e-05
-3.15306384e-05
-3.09399637e-05
-3.08228205e-05
-3.1438681e-05
-3.15257562e-05
-3.089298e-05
-3.04867253e-05
-3.07409991e-05
-3.1452414e-05
-3.12705366e-05
-3.08202461e-05
-3.08955214e-05
-3.14974593e-05
-3.14063022e-05
-3.08026911e-05
-3.04954875e-05
-3.08860446e-05
-3.14839508e-05
-3.09415603e-05
-3.08139534e-05
-3.11091649e-05
-3.15080822e-05
-3.10996978e-05
-3.06831196e-05
-3.05504099e-05
-3.10571415e-05
-3.1517981e-05
-3.09251079e-05
-3.08651314e-05
-3.12059629e-05
-3.15268852e-05
-3.10651694e-05
-3.08948856e-05
-3.07892571e-05
-3.04581033e-05
-3.04540261e-05
-3.10866437e-05
-3.15107869e-05
-3.09224116e-05
-3.0759225e-05
-3.12613855e-05
-3.15099635e-05
-3.09944141e-05
-3.05675822e-05
-3.05217823e-05
-3.12113558e-05
-3.15237909e-05
-3.09316573e-05
-3.07776814e-05
-3.13415923e-05
-3.15195374e-05
-3.09699403e-05
-3.05518888e-05
-3.05266984e-05
-3.12787755e-05
-3.15301723e-05
-3.09339926e-05
-3.07667409e-05
-3.13851178e-05
-3.1525396e-05
-3.09484771e-05
-3.05410795e-05
-3.05292064e-05
-3.13290486e-05
-3.15372482e-05
-3.09331055e-05
-3.07818421e-05
-3.14003832e-05
-3.15308191e-05
-3.09448939e-05
-3.05829878e-05
-3.05743784e-05
-3.13521592e-05
-3.1521121e-05
-3.09872008e-05
-3.06173568e-05
-3.05933992e-05
-3.13745353e-05
-3.15262624e-05
-3.09757014e-05
-3.08213806e-05
-3.05513988e-05
-3.05549475e-05
-3.13946037e-05
-3.15259443e-05
-3.09339048e-05
-3.05624925e-05
-3.05548365e-05
-3.14093389e-05
-3.15303683e-05
-3.09438145e-05
-3.05902394e-05
-3.05785315e-05
-3.14273653e-05
-3.15346193e-05
-3.09376126e-05
-3.05885524e-05
-3.058492e-05
-3.14559668e-05
-3.15355778e-05
-3.09181669e-05
-3.05630667e-05
-3.05696041e-05
-3.15025203e-05
-3.15528885e-05
-3.08976969e-05
-3.08342575e-05
-3.14848369e-05
-3.15451541e-05
-3.08990749e-05
-3.05888519e-05
-3.0628802e-05
-3.15201601e-05
-3.15469029e-05
-3.09040659e-05
-3.05592784e-05
-3.06436586e-05
-3.1529754e-05
-3.1539937e-05
-3.08915259e-05
-3.04081783e-05
-3.06680191e-05
-3.15114345e-05
-3.15480388e-05
-3.15450939e-05
-3.09053899e-05
-3.0479039e-05
-3.04620411e-05
-3.04785424e-05
-3.15421564e-05
-3.15362531e-05
-3.06734633e-05
-3.0725175e-05
-3.15629859e-05
-3.15255476e-05
-3.07683869e-05
-3.08381783e-05
-3.1573573e-05
-3.15259895e-05
-3.08967515e-05
-3.05165586e-05
-3.07998236e-05
-3.15647857e-05
-3.15212331e-05
-3.08874824e-05
-3.04652835e-05
-3.08181043e-05
-3.15437871e-05
-3.1501336e-05
-3.0773626e-05
-3.09094451e-05
-3.15680111e-05
-3.14734379e-05
-3.08072851e-05
-3.09277874e-05
-3.15783708e-05
-3.14995434e-05
-3.08900017e-05
-3.05372657e-05
-3.08878639e-05
-3.15596581e-05
-3.15053711e-05
-3.08989526e-05
-3.05170835e-05
-3.08892454e-05
-3.15549118e-05
-3.14979166e-05
-3.09053806e-05
-3.05054512e-05
-3.08879679e-05
-3.15620268e-05
-3.14936316e-05
-3.08820898e-05
-3.05125328e-05
-3.08720467e-05
-3.1484972e-05
-3.08883761e-05
-3.08985825e-05
-3.159252e-05
-3.15022549e-05
-3.08742152e-05
-3.05651438e-05
-3.08614129e-05
-3.14911913e-05
-3.08783833e-05
-3.0893323e-05
-3.15919389e-05
-3.14890855e-05
-3.08797202e-05
-3.06904489e-05
-3.06606332e-05
-3.08806887e-05
-3.15023458e-05
-3.08942547e-05
-3.09113712e-05
-3.15642487e-05
-3.13922824e-05
-3.0764156e-05
-3.09191853e-05
-3.15326452e-05
-3.15012557e-05
-3.1052353e-05
-3.05838579e-05
-3.05678768e-05
-3.06170691e-05
-3.09154689e-05
-3.15405705e-05
-3.13413662e-05
-3.07040213e-05
-3.09079646e-05
-3.14520995e-05
-3.09025154e-05
-3.09153142e-05
-3.15825654e-05
-3.13633392e-05
-3.07615116e-05
-3.09281959e-05
-3.15816498e-05
-3.14646536e-05
-3.08308114e-05
-3.07052452e-05
-3.06958311e-05
-3.09053758e-05
-3.14480078e-05
-3.08899806e-05
-3.09264762e-05
-3.15799668e-05
-3.13596548e-05
-3.07847601e-05
-3.09368991e-05
-3.15797796e-05
-3.14644904e-05
-3.07308474e-05
-3.05175501e-05
-3.08997064e-05
-3.15423747e-05
-3.14005681e-05
-3.08226528e-05
-3.09421806e-05
-3.15540194e-05
-3.14715624e-05
-3.08060104e-05
-3.0646249e-05
-3.06582925e-05
-3.09010604e-05
-3.15698951e-05
-3.1516054e-05
-3.08874071e-05
-3.0648847e-05
-3.06991038e-05
-3.09210168e-05
-3.15576296e-05
-3.15009047e-05
-3.08613601e-05
-3.05365903e-05
-3.09011065e-05
-3.15451478e-05
-3.13723881e-05
-3.07335398e-05
-3.09410204e-05
-3.15631277e-05
-3.1499091e-05
-3.08180586e-05
-3.06339148e-05
-3.0722628e-05
-3.05860716e-05
-3.08875123e-05
-3.15039126e-05
-3.1545026e-05
-3.13239484e-05
-3.07472733e-05
-3.09028518e-05
-3.15229761e-05
-3.0896517e-05
-3.09328041e-05
-3.15795248e-05
-3.15298734e-05
-3.08962765e-05
-3.0619314e-05
-3.06560241e-05
-3.09213631e-05
-3.1543131e-05
-3.13638742e-05
-3.06538466e-05
-3.0905865e-05
-3.15559807e-05
-3.08976768e-05
-3.08541575e-05
-3.15837349e-05
-3.13275213e-05
-3.06631798e-05
-3.09516915e-05
-3.15578894e-05
-3.15214652e-05
-3.07988833e-05
-3.07603322e-05
-3.09744301e-05
-3.15280357e-05
-3.15279777e-05
-3.08092099e-05
-3.04856234e-05
-3.08973879e-05
-3.15541705e-05
-3.15500151e-05
-3.09008177e-05
-3.05236191e-05
-3.08966564e-05
-3.1547921e-05
-3.15435455e-05
-3.088139e-05
-3.05264432e-05
-3.08962472e-05
-3.15430404e-05
-3.15430515e-05
-3.08313002e-05
-3.05029833e-05
-3.08954635e-05
-3.15401439e-05
-3.15422806e-05
-3.07788045e-05
-3.04813982e-05
-3.08977568e-05
-3.15434113e-05
-3.15328027e-05
-3.07804348e-05
-3.04666835e-05
-3.090891e-05
-3.15401016e-05
-3.15055939e-05
-3.07213243e-05
-3.09432088e-05
-3.15734471e-05
-3.15018547e-05
-3.0853845e-05
-3.05171958e-05
-3.0874804e-05
-3.15407093e-05
-3.15694157e-05
-3.15091088e-05
-3.0830579e-05
-3.05996814e-05
-3.06575138e-05
-3.0911745e-05
-3.15790054e-05
-3.15123476e-05
-3.08013077e-05
-3.04644078e-05
-3.08726042e-05
-3.15217041e-05
-3.08716514e-05
-3.0902603e-05
-3.15964683e-05
-3.15238564e-05
-3.08741459e-05
-3.07279798e-05
-3.07004064e-05
-3.08864789e-05
-3.15473347e-05
-3.08836954e-05
-3.09014222e-05
-3.15838293e-05
-3.15044604e-05
-3.07922496e-05
-3.09154129e-05
-3.15841969e-05
-3.15146644e-05
-3.08786652e-05
-3.07440856e-05
-3.07066275e-05
-3.09012066e-05
-3.15749448e-05
-3.15322236e-05
-3.08881956e-05
-3.05732357e-05
-3.08884427e-05
-3.15552475e-05
-3.15409527e-05
-3.08663566e-05
-3.05547264e-05
-3.08975106e-05
-3.15483661e-05
-3.15333651e-05
-3.08440162e-05
-3.05405185e-05
-3.09075656e-05
-3.153809e-05
-3.15249297e-05
-3.06371634e-05
-3.07561388e-05
-3.15639375e-05
)
;

boundaryField
{
    closed
    {
        type            calculated;
        value           nonuniform List<scalar> 0();
    }
    open
    {
        type            calculated;
        value           nonuniform List<scalar> 0();
    }
    sides
    {
        type            empty;
    }
    procBoundary1to0
    {
        type            processor;
        value           uniform -3.15287774e-05;
    }
    procBoundary1to2
    {
        type            processor;
        value           uniform -3.15226855e-05;
    }
}


// ************************************************************************* //
