/*--------------------------------*- C++ -*----------------------------------*\
| =========                 |                                                 |
| \\      /  F ield         | OpenFOAM: The Open Source CFD Toolbox           |
|  \\    /   O peration     | Version:  2306                                  |
|   \\  /    A nd           | Website:  www.openfoam.com                      |
|    \\/     M anipulation  |                                                 |
\*---------------------------------------------------------------------------*/
FoamFile
{
    version     2.0;
    format      ascii;
    arch        "LSB;label=32;scalar=64";
    class       volScalarField;
    location    "0.00184";
    object      T;
}
// * * * * * * * * * * * * * * * * * * * * * * * * * * * * * * * * * * * * * //

dimensions      [0 0 0 1 0 0 0];

internalField   nonuniform List<scalar> 
531
(
339.175121
329.97711
324.125406
324.191044
337.882762
340.069311
330.394475
327.566635
322.26941
322.308893
338.240094
339.458827
331.213446
324.238805
324.182034
337.772168
339.557175
331.194373
324.338815
324.31944
337.765093
339.554633
331.155985
324.376965
324.40242
337.801027
339.559715
331.046265
324.396557
324.419455
337.754678
339.545627
331.005079
324.238423
324.261536
338.574859
339.582137
330.396769
323.043835
323.077483
336.430026
339.597826
339.258738
339.861706
329.584244
324.836443
321.660951
321.685012
335.289741
339.947348
329.336187
326.522994
334.172975
339.724725
329.889572
322.214068
322.319556
338.980528
340.196469
329.613807
327.822428
335.269206
339.92741
330.296903
323.92352
324.109521
339.450063
340.494433
329.599665
328.850396
337.030766
340.252037
330.590032
327.136399
326.688628
323.819137
324.030505
339.156576
340.00766
331.940018
327.008241
322.982248
328.449321
339.596195
340.851139
329.409076
329.185365
336.324934
340.149395
332.809095
329.060846
327.068128
323.767792
323.822761
338.299145
339.837616
330.611123
324.695208
324.714437
339.082158
339.88266
330.323061
323.262193
323.889173
339.201075
339.848663
339.339008
330.96115
328.751415
323.089545
323.177414
338.837394
339.752757
330.027384
323.051765
323.139033
338.732325
339.848266
330.05018
323.870952
324.030326
339.001216
340.211604
329.59973
328.642586
336.371161
339.881016
329.873332
323.272317
324.153953
339.024132
339.976082
329.686975
322.810779
324.852243
339.149976
339.989482
329.241262
322.269847
323.972569
338.860344
339.985441
329.611605
327.71108
338.685936
339.900113
328.94378
322.288847
326.37957
338.85261
335.863178
327.665865
329.064479
339.470231
338.182682
327.347431
322.427324
328.966473
339.274181
329.971444
327.558929
333.020315
339.596568
332.857032
325.437895
323.295726
332.098421
339.750605
329.581869
328.375995
334.724328
339.856193
332.238456
328.85798
327.161179
321.808378
321.7347
332.621426
339.650891
329.465737
326.672762
335.69442
339.619555
330.948619
323.580855
322.826578
334.81777
339.831388
329.590147
326.965462
337.095249
339.75875
330.490348
323.326941
322.902187
335.998576
339.923848
329.601348
326.785991
337.855116
339.845457
330.082951
323.151231
322.937862
336.878556
340.0264
329.574702
327.02704
338.116702
339.920391
330.008595
323.827309
323.673898
337.2856
339.784249
330.818848
324.382896
323.982866
337.680703
339.845842
330.604228
327.665824
323.317257
323.361373
338.020173
339.860919
329.797299
323.489454
323.35794
338.208532
339.92179
330.004497
323.933176
323.740364
338.461374
339.983617
329.887494
323.900899
323.844216
338.874435
339.99859
329.525556
323.488791
323.590289
339.540773
340.248164
328.921867
327.872875
339.277804
340.128035
329.111905
323.903028
324.549779
339.782102
340.166345
329.214263
323.425582
324.794178
339.918661
340.065773
328.942863
320.992975
325.176118
339.678154
340.152767
340.164678
329.081096
322.139333
321.84674
322.128273
340.117198
340.035917
325.260758
326.122559
340.40175
339.861922
326.791696
327.947842
340.539699
339.869112
328.896288
322.737849
327.306121
340.424053
339.813942
328.762311
321.916404
327.59291
340.118951
339.547608
326.885613
329.09466
340.465787
339.128162
327.418451
329.414018
340.613337
339.495193
328.75672
323.075545
328.743018
340.347623
339.595778
328.926099
322.750357
328.777761
340.2772
339.490639
329.012274
322.56209
328.769476
340.387714
339.419347
328.694631
322.685279
328.599284
339.30428
328.778413
328.956671
340.840997
339.529556
328.752689
323.526214
328.424206
339.40773
328.633427
328.891296
340.815929
339.35156
328.638591
325.548568
325.055276
328.777934
339.570015
328.889034
329.171209
340.413822
337.981076
326.733685
329.407848
339.975311
339.475383
332.013241
323.844338
323.577581
324.367047
329.274948
340.083545
337.09123
325.772086
329.276079
338.865624
328.967326
329.202227
340.701203
337.468279
326.667698
329.527167
340.675251
339.003797
327.809839
325.79747
325.638787
329.294856
338.801345
328.805282
329.443834
340.658147
337.407149
327.046522
329.663585
340.650909
339.023725
326.19134
322.771519
329.064785
340.108542
338.118179
327.677459
329.778566
340.249917
339.104189
327.420085
324.850274
325.022207
329.130481
340.514081
339.735295
328.94478
324.887209
325.677819
329.514989
340.314771
339.548536
328.302758
323.077883
329.086499
340.15486
337.627442
326.233901
329.704933
340.394999
339.509832
327.605883
324.660589
326.057501
323.872799
328.85384
339.531096
340.120963
336.783346
326.484345
329.151375
339.904338
328.900416
329.508337
340.629292
339.968245
328.869625
324.414807
324.985108
329.372288
340.120794
337.480949
324.959925
329.1965
340.367751
328.904867
328.200179
340.73421
336.847471
325.086574
329.826224
340.325592
339.860722
327.300713
326.703041
330.586221
339.852141
339.946901
327.46512
322.24878
328.994052
340.269124
340.268159
328.947368
322.861279
328.998184
340.171133
340.17063
328.627097
322.909349
328.980237
340.098274
340.167604
327.820677
322.528825
328.950702
340.058101
340.161014
326.975175
322.176996
328.976967
340.108725
340.018366
327.003136
321.943666
329.125074
340.07174
339.66337
326.038871
329.66068
340.546285
339.54089
328.169355
322.762796
328.601362
340.051948
340.470391
339.664814
327.809059
324.091436
325.001156
329.15658
340.639714
339.707356
327.31964
321.9053
328.65509
339.83073
328.554749
329.036225
340.88176
339.843502
328.572242
326.151993
325.69261
328.867274
340.203154
328.796556
328.977289
340.705096
339.619543
327.170549
329.279805
340.705356
339.682612
328.734659
326.41891
325.792785
329.027208
340.572349
339.975079
328.777266
323.654523
328.801501
340.282007
340.112755
328.38503
323.357647
328.935923
340.179016
339.993552
328.029453
323.136419
329.089721
340.043094
339.904851
324.680793
326.617623
340.406719
)
;

boundaryField
{
    closed
    {
        type            fixedValue;
        value           nonuniform List<scalar> 0();
    }
    open
    {
        type            zeroGradient;
    }
    sides
    {
        type            empty;
    }
    procBoundary1to0
    {
        type            processor;
        value           uniform 339.889243;
    }
    procBoundary1to2
    {
        type            processor;
        value           uniform 339.836659;
    }
}


// ************************************************************************* //
