/*--------------------------------*- C++ -*----------------------------------*\
| =========                 |                                                 |
| \\      /  F ield         | OpenFOAM: The Open Source CFD Toolbox           |
|  \\    /   O peration     | Version:  2306                                  |
|   \\  /    A nd           | Website:  www.openfoam.com                      |
|    \\/     M anipulation  |                                                 |
\*---------------------------------------------------------------------------*/
FoamFile
{
    version     2.0;
    format      ascii;
    arch        "LSB;label=32;scalar=64";
    class       volScalarField;
    location    "0.00152";
    object      p;
}
// * * * * * * * * * * * * * * * * * * * * * * * * * * * * * * * * * * * * * //

dimensions      [1 -1 -2 0 0 0 0];

internalField   nonuniform List<scalar> 
531
(
101598.782
101592.169
101585.451
101578.666
101571.84
101565.032
101558.384
101551.571
101545.105
101539.174
101533.744
101528.72
101523.529
101518.398
101513.28
101508.11
101502.905
101497.24
101491.524
101485.881
101480.39
101475.15
101469.772
101464.678
101459.926
101455.503
101451.347
101446.989
101442.731
101438.55
101434.439
101430.388
101425.952
101421.518
101417.071
101412.592
101408.15
101403.71
101399.013
101394.234
101389.526
101384.602
101379.486
101373.985
101369.588
101364.666
101359.684
101354.647
101349.689
101344.9
101339.881
101335.002
101330.097
101325.229
101320.489
101315.47
101310.43
101305.413
101300.204
101294.473
101288.493
101282.087
101275.361
101268.153
101260.469
101251.615
101243.053
101234.345
101226.388
101215.959
101204.929
101193.39
101182.165
101170.284
101157.919
101144.931
101131.928
101118.428
101106.072
101093.759
101081.469
101068.579
101055.371
101043.267
101031.405
101020.113
101009.293
100998.923
100989.174
100980.756
100972.819
100965.452
100957.886
100950.801
100944.633
100939.131
100934.239
100930.42
100927.118
100924.482
100922.682
100921.437
100921.055
100921.019
100921.481
100922.549
100924.247
100926.401
100928.893
100932.28
100935.386
100936.058
100945.44
100952.149
100959.256
100966.637
100974.5
100982.528
100990.71
100999.801
101009.121
101018.695
101027.978
101037.964
101048.137
101058.552
101068.612
101078.441
101088.784
101099.227
101109.758
101119.713
101129.191
101138.882
101148.437
101157.852
101166.623
101174.841
101183.216
101191.53
101199.795
101207.56
101214.716
101221.962
101229.132
101236.269
101242.984
101249
101255.159
101261.123
101267.416
101272.254
101277.044
101282
101287.571
101292.649
101295.874
101299.748
101303.508
101307.382
101310.776
101314.557
101318.162
101321.6
101324.665
101327.495
101330.209
101332.865
101335.207
101337.298
101339.439
101341.37
101343.15
101344.723
101346.051
101347.131
101348.146
101349.215
101350.305
101351.46
101352.355
101353.31
101354.509
101355.723
101357.175
101358.807
101360.524
101362.337
101363.946
101365.827
101368.155
101370.982
101374.215
101377.498
101380.852
101384.381
101388.33
101391.908
101395.652
101399.657
101404.011
101408.75
101413.501
101418.296
101423.159
101428.328
101432.944
101437.84
101443.053
101448.513
101454.346
101459.718
101465.616
101471.914
101478.512
101485.387
101491.545
101498.112
101504.938
101511.871
101519.128
101526.566
101533.243
101540.427
101547.974
101555.754
101563.859
101571.14
101579.022
101587.359
101596.124
101605.409
101613.93
101623.235
101633.06
101643.202
101653.64
101662.839
101672.186
101681.831
101691.201
101700.445
101708.624
101718.174
101729.949
101742.446
101754.325
101767.477
101782.682
101798.693
101814.566
101827.778
101840.376
101851.934
101862.03
101870.896
101877.65
101884.696
101892.752
101901.596
101909.214
101914.944
101919.632
101923.815
101927.455
101929.418
101928.669
101925.462
101920.314
101913.929
101906.138
101898.309
101890.491
101882.943
101874.663
101866.603
101858.596
101850.624
101841.392
101830.875
101819.531
101808.216
101798.523
101789.309
101778.896
101770.418
101764.38
101759.22
101753.178
101746.358
101738.81
101730.697
101721.64
101712.922
101705.004
101698.13
101691.843
101686.93
101683.222
101679.896
101676.368
101671.926
101667.09
101661.98
101656.754
101652.056
101647.582
101643.715
101640.093
101636.3
101632.208
101627.077
101621.294
101615.11
101608.668
101602.173
101595.02
101588.226
101582.025
101576.581
101571.22
101566.295
101561.949
101558.129
101554.663
101550.861
101547.258
101543.752
101540.201
101535.927
101531.277
101526.412
101521.444
101516.418
101510.441
101504.688
101499.18
101493.868
101487.737
101481.967
101476.441
101470.993
101464.903
101458.496
101451.973
101445.309
101438.492
101430.618
101421.93
101412.6
101401.589
101391.53
101380.249
101371.577
101360.759
101350.844
101338.821
101327.79
101316.44
101305.312
101293.835
101282.304
101271.175
101261.195
101252.067
101243.048
101234.438
101226.763
101219.65
101212.654
101206.008
101200.272
101195.103
101190.341
101185.94
101182.042
101178.636
101175.745
101173.583
101171.472
101169.986
101168.88
101168.328
101168.209
101168.202
101168.333
101168.65
101169.486
101170.744
101172.427
101174.563
101176.973
101179.787
101182.687
101185.464
101188.051
101190.519
101193.711
101197.938
101202.415
101206.682
101211.058
101216.414
101222.29
101227.992
101233.119
101237.532
101240.948
101242.751
101249.589
101250.893
101253.947
101257.086
101259.874
101262.665
101265.56
101268.31
101270.615
101272.966
101275.472
101277.918
101279.97
101282.052
101283.997
101285.781
101287.345
101288.481
101289.519
101290.372
101291.002
101291.353
101291.863
101292.574
101293.408
101294.088
101294.897
101295.715
101296.506
101297.121
101297.998
101299.019
101300.112
101301.171
101301.842
101302.47
101302.916
101303.201
101303.122
101302.988
101302.65
101302.085
101301.431
101300.328
101299.074
101297.461
101295.467
101293.356
101290.769
101288
101284.855
101281.346
101277.891
101274.134
101270.365
101266.421
101262.318
101258.489
101254.517
101250.634
101246.694
101242.703
101238.65
101234.615
101230.429
101226.121
101222.226
101218.404
101215.058
101210.277
101206.398
101202.606
101200.2
101194.273
101191.55
101188.186
101184.684
101181.171
101178.055
101174.902
101172.062
101169.353
101166.799
101164.346
101162.203
101160.19
101158.315
101156.832
101155.338
101154.224
101153.283
101152.53
101151.838
101151.535
101151.448
101151.643
101152.033
101153.091
101154.576
101155.127
101152.364
101151.864
101153.056
101154.727
101156.626
101158.629
101160.575
101162.94
101165.478
101168.158
101170.882
101173.625
101176.887
101180.259
101182.541
101191.666
101195.066
101199.676
101204.663
101210.985
101216.863
101223.319
)
;

boundaryField
{
    closed
    {
        type            zeroGradient;
    }
    open
    {
        type            waveTransmissive;
        gamma           1.25;
        fieldInf        101325;
        lInf            1;
        value           nonuniform List<scalar> 0();
    }
    sides
    {
        type            empty;
    }
    procBoundary1to0
    {
        type            processor;
        value           uniform 101604.85;
    }
    procBoundary1to2
    {
        type            processor;
        value           uniform 101229.577;
    }
}


// ************************************************************************* //
