/*--------------------------------*- C++ -*----------------------------------*\
| =========                 |                                                 |
| \\      /  F ield         | OpenFOAM: The Open Source CFD Toolbox           |
|  \\    /   O peration     | Version:  2306                                  |
|   \\  /    A nd           | Website:  www.openfoam.com                      |
|    \\/     M anipulation  |                                                 |
\*---------------------------------------------------------------------------*/
FoamFile
{
    version     2.0;
    format      ascii;
    arch        "LSB;label=32;scalar=64";
    class       volScalarField;
    location    "0.00052";
    object      H2O;
}
// * * * * * * * * * * * * * * * * * * * * * * * * * * * * * * * * * * * * * //

dimensions      [0 0 0 0 0 0 0];

internalField   nonuniform List<scalar> 
530
(
0.00102811007
0.00603592955
0.00715279704
0.00167686522
0.00105183353
0.00612236495
0.0069954001
0.00136893195
0.00106927873
0.00327020986
0.00703144576
0.00728772781
0.00415131132
0.00103868617
0.00113802889
0.00703423679
0.00753772962
0.00397662028
0.00101673086
0.0058313095
0.00706517059
0.000689749483
0.00107043126
0.00578137224
0.0068319803
0.00403689614
0.00109125018
0.00106241905
0.00553170694
0.00688460886
0.00720117695
0.00733565972
0.00389607088
0.00103927859
0.00202586704
0.00694542428
0.00730797286
0.00391045397
0.00102800056
0.00564543283
0.00701093765
0.000677166417
0.00106206028
0.00627987354
0.00696883192
0.000958366285
0.00107003734
0.00367565618
0.00692148283
0.00712183762
0.00442833968
0.00104047181
0.000793116226
0.00679475874
0.00733086716
0.00432579571
0.0010249773
0.00190410489
0.00689076794
0.00729143776
0.00452399807
0.00101315616
0.00173948778
0.00699467903
0.00731816817
0.00334944995
0.00101278991
0.00512851411
0.00710858743
0.00350371538
0.00100353608
0.00506708247
0.00718311587
0.00379086198
0.0010000265
0.00536481814
0.00704074429
0.00251969654
0.00103531092
0.00324427327
0.00702869593
0.00717945172
0.00357089367
0.00101540106
0.00242991023
0.00711031429
0.00713423267
0.000788248572
0.00440968632
0.0070946536
0.0013391011
0.00104066871
0.00363622665
0.0070118818
0.00717161912
0.00362099409
0.000995691393
0.00524003706
0.00703806256
0.00270699027
0.00101328314
0.0055934067
0.00698023769
0.00232683867
0.00103208162
0.0030427141
0.0070724833
0.00717431722
0.00152733833
0.00107780609
0.00324474441
0.0062484674
0.00703133756
0.00718917548
0.00490335515
0.000952229049
0.00510817458
0.00692129811
0.00172901905
0.00103511381
0.00327828393
0.00689760438
0.00718036697
0.00418304577
0.000975427436
0.00515956614
0.00687512833
0.00170911127
0.00103129377
0.00365680722
0.00696418892
0.00728522927
0.00470136634
0.000935831708
0.00448853616
0.00703073043
0.0040536304
0.000959999793
0.00464132922
0.0070067956
0.00396853905
0.000965164895
0.00474952303
0.00697227743
0.00370880699
0.000978790073
0.00521126425
0.00693785144
0.00209659723
0.0010096486
0.00382987908
0.00710361299
0.00744153301
0.0047309036
0.000922950864
0.00432995307
0.00706522357
0.00463403759
0.00093359037
0.00426972746
0.00703555816
0.00450033232
0.00093807771
0.00436189595
0.00702817149
0.00438896031
0.000944172614
0.00460769364
0.00698404503
0.00382079681
0.000976347103
0.00508631393
0.00680263161
0.0023556535
0.00105393406
0.00357202731
0.00616350607
0.00719755204
0.00726017649
0.00321084559
0.000984061486
0.00473518566
0.0070486051
0.00451547332
0.000943848847
0.00494073566
0.00697246733
0.00262352389
0.00100343072
0.00302916859
0.00708044883
0.00739385412
0.00371793224
0.000973813158
0.00507148819
0.0069160941
0.00282761627
0.00100495988
0.00284648952
0.00708248878
0.00746777094
0.00392332855
0.000955136825
0.00473066429
0.00705268396
0.0042277337
0.000956392478
0.00488169409
0.00700460005
0.0031541694
0.00099483933
0.00516948931
0.00688673175
0.0032654822
0.00103687251
0.00196600028
0.00602341976
0.00726076675
0.00727818552
0.00108421946
0.000978302208
0.00574798934
0.00734458002
0.00435944726
0.000959849585
0.0045866168
0.00690549671
0.00360841258
0.00101262221
0.00176422285
0.00664909211
0.00707167205
0.00438770346
0.00102272016
0.0013944899
0.00574815823
0.00721435792
0.00738243584
0.00480557681
0.000941206291
0.00437260565
0.00697162489
0.00460156955
0.000983473343
0.000953116158
0.00650063344
0.00743666852
0.00496094793
0.000933308514
0.00423643344
0.00697592481
0.00409537554
0.000985554061
0.004376268
0.00676065925
0.00441189076
0.00103041383
0.000901943405
0.00538205516
0.00704142863
0.00706402761
0.004561811
0.00102014985
0.00173186618
0.00590764054
0.00718504978
0.00744480702
0.00573708615
0.000923840252
0.00105372012
0.0041224637
0.00709948771
0.00474456073
0.000949669817
0.00421287015
0.00699846188
0.00457894938
0.000984036518
0.0014950946
0.00676491694
0.00743579895
0.00530730403
0.000941095785
0.00386457482
0.00688154906
0.00431606189
0.00100151649
0.0016653103
0.00675335676
0.00745586644
0.00540363657
0.000930110236
0.00380085857
0.00704672115
0.00461507147
0.000969770695
0.00410181979
0.00706228989
0.00460173304
0.000970742459
0.0041859903
0.00708240402
0.00451982013
0.000978463344
0.00423338215
0.00703412667
0.00427713466
0.00100195881
0.00447809084
0.00681740276
0.00376974507
0.00105738998
0.0024691177
0.00639123524
0.00711074352
0.00730135127
0.0049834213
0.000967744077
0.00430605286
0.00715428907
0.00497464863
0.00101098362
0.000910024886
0.0066737012
0.00734360361
0.00412218832
0.00100098379
0.00462892607
0.0070923408
0.003895257
0.00100345978
0.00484692101
0.00714953334
0.00381282229
0.00100282775
0.00506233299
0.00715904582
0.00336932001
0.00101089552
0.00547676585
0.0070499382
0.00269888875
0.00103931793
0.00360534905
0.00721392204
0.00740550203
0.00307832625
0.0010188345
0.00570574459
0.00695634165
0.00196946758
0.00105551843
0.00376170592
0.00722661615
0.00736872866
0.00261823002
0.00102422619
0.00594122087
0.00699866076
0.00166192443
0.00105981345
0.003772052
0.00724131801
0.00734127685
0.00210120978
0.00103525282
0.00596883582
0.00689765112
0.00197289747
0.00110720371
0.00292070732
0.00642301755
0.00737253277
0.00715240935
0.000759666215
0.00106327224
0.00401707054
0.00727780707
0.00729795828
0.00146924515
0.00103284348
0.00628442816
0.00713770515
0.00114387773
0.00103796285
0.00639740449
0.00710808836
0.0014672163
0.00105869853
0.00363731033
0.00729449449
0.00728343077
0.00131816859
0.00104989902
0.0041349812
0.00738240452
0.00720331386
0.000817150498
0.00106846346
0.00400754964
0.00728524801
0.0071501021
0.000801727391
0.0010648533
0.00425511314
0.00736465045
0.00722414952
0.000815611279
0.00105531636
0.00448956895
0.00744420683
0.00729580436
0.000812868061
0.00105000573
0.00654647853
0.00703855868
0.00083971415
0.00105445514
0.00471956211
0.00748846664
0.00738672579
0.000822785686
0.00104310143
0.00649542024
0.00701211249
0.000865735743
0.00105730627
0.00482432304
0.00746700216
0.00734428524
0.000846964125
0.0010548757
0.00648253482
0.00696450522
0.000886247412
0.00105608309
0.00484465766
0.0075645515
0.00746194442
0.000787712989
0.00104161234
0.00656272521
0.00703955647
0.000877029067
0.00105335311
0.00477666273
0.00752744517
0.0074583889
0.000841036424
0.00104618921
0.00653451568
0.00702062405
0.000886807225
0.00105161787
0.00496846492
0.00757271784
0.00753503106
0.00085596071
0.00103647823
0.00660180446
0.00714841669
0.000809702276
0.00104890321
0.00668881185
0.00717594767
0.000786674207
0.00105160603
0.00664436671
0.00708602775
0.000873658345
0.00104496576
0.00504337026
0.00758367391
0.00757019902
0.000881827199
0.00104454486
0.00651336842
0.00700787602
0.000891600919
0.00105138096
0.00499074761
0.00753955274
0.00753198114
0.000885228534
0.00104707212
0.00650750501
0.0070047034
0.000894742278
0.00104868376
0.00504124257
0.00758277108
0.00756824334
0.000873573116
0.00104160854
0.00660051314
0.00712431094
0.000852814531
0.00102430646
0.00704865528
0.00738385445
0.000848012885
0.00105571332
0.00649487573
0.00702835229
0.000887073552
0.00104724965
0.0050062338
0.00755307916
0.00754231768
0.000878079478
0.00104780651
0.00651354606
0.00697237105
0.000889381269
0.00106322562
0.00486942501
0.00737827036
0.00737676833
0.000891959465
0.00104072683
0.0046873222
0.00747522465
0.00747621045
0.000881905349
0.00105249558
0.00650862965
0.00695327035
0.000885283093
0.00106425815
0.00470265667
)
;

boundaryField
{
    closed
    {
        type            calculated;
        value           nonuniform List<scalar> 0();
    }
    open
    {
        type            calculated;
        value           nonuniform List<scalar> 0();
    }
    sides
    {
        type            empty;
    }
    procBoundary2to1
    {
        type            processor;
        value           uniform 0.00252536304;
    }
    procBoundary2to3
    {
        type            processor;
        value           uniform 0.00743009239;
    }
}


// ************************************************************************* //
