/*--------------------------------*- C++ -*----------------------------------*\
| =========                 |                                                 |
| \\      /  F ield         | OpenFOAM: The Open Source CFD Toolbox           |
|  \\    /   O peration     | Version:  2306                                  |
|   \\  /    A nd           | Website:  www.openfoam.com                      |
|    \\/     M anipulation  |                                                 |
\*---------------------------------------------------------------------------*/
FoamFile
{
    version     2.0;
    format      ascii;
    arch        "LSB;label=32;scalar=64";
    class       volScalarField;
    location    "0.00052";
    object      prefDPV_H2;
}
// * * * * * * * * * * * * * * * * * * * * * * * * * * * * * * * * * * * * * //

dimensions      [1 -1 -1 0 0 0 0];

internalField   nonuniform List<scalar> 
530
(
-3.15358565e-05
-3.0914777e-05
-3.06122925e-05
-3.12471367e-05
-3.15310022e-05
-3.09418241e-05
-3.06845198e-05
-3.12962332e-05
-3.1520761e-05
-3.10375474e-05
-3.06683684e-05
-3.05473402e-05
-3.09500784e-05
-3.15069997e-05
-3.13288939e-05
-3.06672771e-05
-3.04289231e-05
-3.09598166e-05
-3.15180486e-05
-3.09170938e-05
-3.06528036e-05
-3.14506861e-05
-3.15413213e-05
-3.09176362e-05
-3.07597714e-05
-3.09547812e-05
-3.15332365e-05
-3.15464969e-05
-3.09040653e-05
-3.0735298e-05
-3.05904733e-05
-3.05252067e-05
-3.09665637e-05
-3.14986989e-05
-3.11897571e-05
-3.07077985e-05
-3.0538531e-05
-3.09677823e-05
-3.15184539e-05
-3.09222534e-05
-3.0677834e-05
-3.14208205e-05
-3.15428399e-05
-3.09669599e-05
-3.06970773e-05
-3.1369529e-05
-3.15313157e-05
-3.10001745e-05
-3.07188796e-05
-3.06256096e-05
-3.09330277e-05
-3.15014195e-05
-3.14091416e-05
-3.07766145e-05
-3.0524955e-05
-3.09353701e-05
-3.14882558e-05
-3.12065864e-05
-3.07329328e-05
-3.05452149e-05
-3.09223632e-05
-3.14812115e-05
-3.12315014e-05
-3.06851172e-05
-3.05337399e-05
-3.10178927e-05
-3.1505026e-05
-3.09086931e-05
-3.06326368e-05
-3.09993546e-05
-3.15161016e-05
-3.09018327e-05
-3.0598496e-05
-3.0969278e-05
-3.15116766e-05
-3.09010532e-05
-3.06637708e-05
-3.11211908e-05
-3.15065358e-05
-3.1038835e-05
-3.06694306e-05
-3.05988295e-05
-3.09947076e-05
-3.14858562e-05
-3.11333635e-05
-3.06310094e-05
-3.0618916e-05
-3.14015055e-05
-3.09503629e-05
-3.06382982e-05
-3.13079944e-05
-3.15094402e-05
-3.10032057e-05
-3.06770865e-05
-3.06034403e-05
-3.09880139e-05
-3.15111265e-05
-3.09111885e-05
-3.06654639e-05
-3.10951943e-05
-3.15241475e-05
-3.09117477e-05
-3.06916246e-05
-3.11489225e-05
-3.14926739e-05
-3.10609245e-05
-3.06473127e-05
-3.0601064e-05
-3.12718495e-05
-3.15194758e-05
-3.10424541e-05
-3.09148723e-05
-3.06678105e-05
-3.05953753e-05
-3.08991564e-05
-3.14795939e-05
-3.09171547e-05
-3.0718656e-05
-3.12424816e-05
-3.15130647e-05
-3.10379327e-05
-3.07297475e-05
-3.05984034e-05
-3.09381356e-05
-3.14808921e-05
-3.09213814e-05
-3.07398599e-05
-3.12446938e-05
-3.15161496e-05
-3.1004179e-05
-3.06993672e-05
-3.05498299e-05
-3.08986973e-05
-3.14765206e-05
-3.09316234e-05
-3.0668399e-05
-3.09426421e-05
-3.14949636e-05
-3.09238942e-05
-3.06795211e-05
-3.09505144e-05
-3.14954403e-05
-3.09210191e-05
-3.06952821e-05
-3.09767361e-05
-3.14918766e-05
-3.09162716e-05
-3.07108626e-05
-3.11836552e-05
-3.150451e-05
-3.09904433e-05
-3.06350847e-05
-3.04763258e-05
-3.08941643e-05
-3.14696199e-05
-3.09400284e-05
-3.06520529e-05
-3.09011713e-05
-3.14769081e-05
-3.09433923e-05
-3.06659886e-05
-3.09078113e-05
-3.14828975e-05
-3.09373919e-05
-3.06694922e-05
-3.09161365e-05
-3.14881462e-05
-3.09253087e-05
-3.06899271e-05
-3.09645151e-05
-3.15015313e-05
-3.09173248e-05
-3.07732022e-05
-3.11446245e-05
-3.15233639e-05
-3.10140429e-05
-3.09189219e-05
-3.05887611e-05
-3.05617598e-05
-3.10308317e-05
-3.15012056e-05
-3.09242408e-05
-3.06598329e-05
-3.09107476e-05
-3.14799944e-05
-3.09127357e-05
-3.06946852e-05
-3.1106241e-05
-3.14895962e-05
-3.10632709e-05
-3.06450211e-05
-3.04978906e-05
-3.09748368e-05
-3.14838388e-05
-3.0917431e-05
-3.07206255e-05
-3.10793081e-05
-3.14870486e-05
-3.1083335e-05
-3.06443602e-05
-3.04634103e-05
-3.09527166e-05
-3.14926498e-05
-3.09199683e-05
-3.06580583e-05
-3.09309323e-05
-3.14995219e-05
-3.09143929e-05
-3.06805345e-05
-3.10365279e-05
-3.15213802e-05
-3.09101234e-05
-3.0734725e-05
-3.10251225e-05
-3.15284245e-05
-3.11950146e-05
-3.09046128e-05
-3.05552355e-05
-3.05519728e-05
-3.13409585e-05
-3.15234369e-05
-3.08990764e-05
-3.05214611e-05
-3.09173741e-05
-3.14851444e-05
-3.09263623e-05
-3.07257786e-05
-3.09862798e-05
-3.15032816e-05
-3.12259457e-05
-3.08430112e-05
-3.06477805e-05
-3.09286212e-05
-3.14908718e-05
-3.1280144e-05
-3.09168989e-05
-3.05816387e-05
-3.05044508e-05
-3.08913107e-05
-3.14852681e-05
-3.09341139e-05
-3.06950539e-05
-3.09062427e-05
-3.14991627e-05
-3.15193031e-05
-3.0886121e-05
-3.04759188e-05
-3.08802977e-05
-3.14843985e-05
-3.09426159e-05
-3.0693632e-05
-3.09381521e-05
-3.15194384e-05
-3.0936601e-05
-3.07923452e-05
-3.09240711e-05
-3.15210632e-05
-3.14705006e-05
-3.09045787e-05
-3.06614834e-05
-3.0652719e-05
-3.09230347e-05
-3.14976911e-05
-3.12303118e-05
-3.09237451e-05
-3.05968903e-05
-3.04746676e-05
-3.08571365e-05
-3.14844107e-05
-3.15690346e-05
-3.09571427e-05
-3.06368627e-05
-3.08896253e-05
-3.14967327e-05
-3.09418962e-05
-3.0682524e-05
-3.09108306e-05
-3.14985476e-05
-3.12673787e-05
-3.07901216e-05
-3.0475432e-05
-3.08784791e-05
-3.14761759e-05
-3.09743665e-05
-3.07366119e-05
-3.09309123e-05
-3.15054811e-05
-3.12410022e-05
-3.07953094e-05
-3.04663162e-05
-3.08760484e-05
-3.14838835e-05
-3.09773954e-05
-3.06604047e-05
-3.09037302e-05
-3.15073763e-05
-3.09513581e-05
-3.06535161e-05
-3.09038297e-05
-3.15113254e-05
-3.09442521e-05
-3.06442426e-05
-3.09094247e-05
-3.15148795e-05
-3.094227e-05
-3.06666857e-05
-3.09293268e-05
-3.15218056e-05
-3.09313553e-05
-3.07664352e-05
-3.09777578e-05
-3.15267387e-05
-3.11283685e-05
-3.09267737e-05
-3.06311472e-05
-3.05423779e-05
-3.08920185e-05
-3.15055479e-05
-3.09359483e-05
-3.06100586e-05
-3.08965227e-05
-3.15134469e-05
-3.15094904e-05
-3.0831753e-05
-3.05191937e-05
-3.09450768e-05
-3.15047338e-05
-3.09200754e-05
-3.06394671e-05
-3.09616187e-05
-3.15254745e-05
-3.09058582e-05
-3.06131408e-05
-3.09691718e-05
-3.15255618e-05
-3.08990303e-05
-3.06087135e-05
-3.10153592e-05
-3.15286417e-05
-3.08957058e-05
-3.0658986e-05
-3.10973665e-05
-3.15120055e-05
-3.10029173e-05
-3.05831794e-05
-3.04940539e-05
-3.1050617e-05
-3.15292182e-05
-3.09096061e-05
-3.07024271e-05
-3.12008683e-05
-3.15154989e-05
-3.09908771e-05
-3.05770294e-05
-3.05114076e-05
-3.11084006e-05
-3.15336988e-05
-3.09188815e-05
-3.06829967e-05
-3.12487986e-05
-3.15158521e-05
-3.09894764e-05
-3.05697074e-05
-3.0524771e-05
-3.11807049e-05
-3.15458576e-05
-3.09277809e-05
-3.07297547e-05
-3.11993196e-05
-3.15436717e-05
-3.10743822e-05
-3.09195194e-05
-3.05026584e-05
-3.06122214e-05
-3.14403119e-05
-3.15093524e-05
-3.09754645e-05
-3.05516637e-05
-3.05445699e-05
-3.12787246e-05
-3.15379345e-05
-3.09511931e-05
-3.06193914e-05
-3.13343674e-05
-3.15440323e-05
-3.09505981e-05
-3.0632592e-05
-3.12808248e-05
-3.15125332e-05
-3.1001037e-05
-3.05441087e-05
-3.05504056e-05
-3.13051987e-05
-3.15010921e-05
-3.09643453e-05
-3.05012316e-05
-3.05877666e-05
-3.14962324e-05
-3.15011518e-05
-3.09762363e-05
-3.05469788e-05
-3.06121283e-05
-3.14895169e-05
-3.15004262e-05
-3.09611657e-05
-3.05098304e-05
-3.05776781e-05
-3.15033503e-05
-3.14984588e-05
-3.09463784e-05
-3.04714516e-05
-3.05456764e-05
-3.14816645e-05
-3.15360707e-05
-3.08913373e-05
-3.066462e-05
-3.15245536e-05
-3.15117276e-05
-3.09334452e-05
-3.04509904e-05
-3.05035647e-05
-3.13881976e-05
-3.15322928e-05
-3.0914758e-05
-3.06766409e-05
-3.15317518e-05
-3.15049836e-05
-3.0930658e-05
-3.04607656e-05
-3.05226626e-05
-3.14940209e-05
-3.15282188e-05
-3.09205882e-05
-3.06985651e-05
-3.15311149e-05
-3.15055156e-05
-3.09291464e-05
-3.04140892e-05
-3.04679855e-05
-3.1468848e-05
-3.15280619e-05
-3.0883781e-05
-3.06638238e-05
-3.15287583e-05
-3.15033901e-05
-3.09319146e-05
-3.04323041e-05
-3.04691202e-05
-3.14960994e-05
-3.15244653e-05
-3.08966584e-05
-3.06724541e-05
-3.15240904e-05
-3.15006897e-05
-3.09278042e-05
-3.04105434e-05
-3.04330517e-05
-3.14915357e-05
-3.15279751e-05
-3.08658578e-05
-3.06141859e-05
-3.14759932e-05
-3.1538865e-05
-3.08253875e-05
-3.06016151e-05
-3.14709313e-05
-3.15322513e-05
-3.084611e-05
-3.06422428e-05
-3.151782e-05
-3.15022728e-05
-3.09264954e-05
-3.04064959e-05
-3.04163058e-05
-3.15035402e-05
-3.15207019e-05
-3.09060205e-05
-3.06782965e-05
-3.15174055e-05
-3.15037462e-05
-3.09265186e-05
-3.04279189e-05
-3.04345354e-05
-3.15030738e-05
-3.15227273e-05
-3.09085235e-05
-3.06798264e-05
-3.15156043e-05
-3.15044354e-05
-3.09240468e-05
-3.04070528e-05
-3.04175983e-05
-3.14840399e-05
-3.15193997e-05
-3.08663494e-05
-3.06247247e-05
-3.1468105e-05
-3.15348919e-05
-3.06583601e-05
-3.0504392e-05
-3.14662965e-05
-3.151945e-05
-3.09145479e-05
-3.06688999e-05
-3.15089214e-05
-3.15100062e-05
-3.09218933e-05
-3.04225771e-05
-3.04305817e-05
-3.14904726e-05
-3.15281926e-05
-3.09054836e-05
-3.06950413e-05
-3.1502936e-05
-3.15169799e-05
-3.0931356e-05
-3.05058048e-05
-3.05062495e-05
-3.14946843e-05
-3.14997611e-05
-3.09328504e-05
-3.04590192e-05
-3.04618348e-05
-3.14848417e-05
-3.15340577e-05
-3.09073465e-05
-3.07039801e-05
-3.15087229e-05
-3.15131635e-05
-3.09254745e-05
)
;

boundaryField
{
    closed
    {
        type            calculated;
        value           nonuniform List<scalar> 0();
    }
    open
    {
        type            calculated;
        value           nonuniform List<scalar> 0();
    }
    sides
    {
        type            empty;
    }
    procBoundary2to1
    {
        type            processor;
        value           uniform -3.11205767e-05;
    }
    procBoundary2to3
    {
        type            processor;
        value           uniform -3.04789372e-05;
    }
}


// ************************************************************************* //
