/*--------------------------------*- C++ -*----------------------------------*\
| =========                 |                                                 |
| \\      /  F ield         | OpenFOAM: The Open Source CFD Toolbox           |
|  \\    /   O peration     | Version:  2306                                  |
|   \\  /    A nd           | Website:  www.openfoam.com                      |
|    \\/     M anipulation  |                                                 |
\*---------------------------------------------------------------------------*/
FoamFile
{
    version     2.0;
    format      ascii;
    arch        "LSB;label=32;scalar=64";
    class       volScalarField;
    location    "0.00052";
    object      prefDZ_T;
}
// * * * * * * * * * * * * * * * * * * * * * * * * * * * * * * * * * * * * * //

dimensions      [1 -1 -1 -1 0 0 0];

internalField   nonuniform List<scalar> 
530
(
-1.22755754e-09
-1.19375607e-09
-1.18789329e-09
-1.22653383e-09
-1.22725743e-09
-1.19347813e-09
-1.18875873e-09
-1.22913073e-09
-1.2271492e-09
-1.21363336e-09
-1.18838545e-09
-1.18771651e-09
-1.20676356e-09
-1.22787625e-09
-1.23104657e-09
-1.18827512e-09
-1.18664999e-09
-1.20803321e-09
-1.22804082e-09
-1.19515717e-09
-1.18825601e-09
-1.23435311e-09
-1.22678402e-09
-1.19549874e-09
-1.18931684e-09
-1.20757493e-09
-1.2265832e-09
-1.22682679e-09
-1.19702065e-09
-1.18946421e-09
-1.18753519e-09
-1.18744516e-09
-1.20864545e-09
-1.22800884e-09
-1.22359849e-09
-1.18882066e-09
-1.187517e-09
-1.20856637e-09
-1.22785302e-09
-1.19646382e-09
-1.18845428e-09
-1.23507229e-09
-1.22689372e-09
-1.19269883e-09
-1.18869792e-09
-1.23266427e-09
-1.22695852e-09
-1.21051233e-09
-1.18880858e-09
-1.18830645e-09
-1.20472502e-09
-1.227943e-09
-1.23347813e-09
-1.18925622e-09
-1.18781594e-09
-1.20543256e-09
-1.22841824e-09
-1.22460092e-09
-1.18889212e-09
-1.18775946e-09
-1.20396347e-09
-1.22872955e-09
-1.22597076e-09
-1.18863141e-09
-1.18747357e-09
-1.21285481e-09
-1.22832573e-09
-1.19977384e-09
-1.18811433e-09
-1.21161672e-09
-1.2282854e-09
-1.20010537e-09
-1.1876997e-09
-1.20936705e-09
-1.22841681e-09
-1.19810473e-09
-1.18848154e-09
-1.21951979e-09
-1.22793843e-09
-1.21381657e-09
-1.18849171e-09
-1.1880426e-09
-1.21112231e-09
-1.22861324e-09
-1.22029412e-09
-1.18834628e-09
-1.18846379e-09
-1.23369091e-09
-1.20505513e-09
-1.18841182e-09
-1.22943509e-09
-1.22780271e-09
-1.21080865e-09
-1.18860834e-09
-1.18784828e-09
-1.21071089e-09
-1.22849557e-09
-1.19905625e-09
-1.18828853e-09
-1.2179825e-09
-1.22799287e-09
-1.19669401e-09
-1.18877123e-09
-1.22110621e-09
-1.22822805e-09
-1.21540945e-09
-1.18884774e-09
-1.1880997e-09
-1.22780024e-09
-1.2270333e-09
-1.21386516e-09
-1.19232807e-09
-1.18864032e-09
-1.18775393e-09
-1.20116699e-09
-1.22973032e-09
-1.20000726e-09
-1.18910595e-09
-1.22611596e-09
-1.22783028e-09
-1.21358731e-09
-1.18900792e-09
-1.18803847e-09
-1.20640899e-09
-1.22933823e-09
-1.19971189e-09
-1.18935832e-09
-1.22627851e-09
-1.22783922e-09
-1.21068684e-09
-1.18858928e-09
-1.18750765e-09
-1.20250598e-09
-1.23004423e-09
-1.20430875e-09
-1.18852273e-09
-1.20731551e-09
-1.22934174e-09
-1.2032016e-09
-1.18858755e-09
-1.20797082e-09
-1.22925124e-09
-1.20244732e-09
-1.18881188e-09
-1.20999591e-09
-1.22909508e-09
-1.19930715e-09
-1.18912861e-09
-1.22302212e-09
-1.22838489e-09
-1.2093784e-09
-1.18808624e-09
-1.18685247e-09
-1.2022564e-09
-1.23036843e-09
-1.20546091e-09
-1.18851229e-09
-1.20298226e-09
-1.23007312e-09
-1.20590007e-09
-1.1885732e-09
-1.2039475e-09
-1.22989826e-09
-1.20521769e-09
-1.18857015e-09
-1.20478394e-09
-1.22971088e-09
-1.20344205e-09
-1.18872433e-09
-1.20911166e-09
-1.22896849e-09
-1.20015545e-09
-1.18952002e-09
-1.22087067e-09
-1.22735258e-09
-1.21136767e-09
-1.19294482e-09
-1.18827421e-09
-1.18757435e-09
-1.21391301e-09
-1.22885085e-09
-1.20258055e-09
-1.18855891e-09
-1.20388213e-09
-1.22985669e-09
-1.20107533e-09
-1.18905024e-09
-1.21865543e-09
-1.22874043e-09
-1.21553007e-09
-1.18843668e-09
-1.18717917e-09
-1.2099123e-09
-1.22931304e-09
-1.20025584e-09
-1.18938195e-09
-1.21700492e-09
-1.22875989e-09
-1.21697124e-09
-1.1883394e-09
-1.18680603e-09
-1.20829408e-09
-1.22945893e-09
-1.20256069e-09
-1.18850163e-09
-1.20602689e-09
-1.2293211e-09
-1.20148866e-09
-1.18859598e-09
-1.21434974e-09
-1.2283352e-09
-1.19951619e-09
-1.1890586e-09
-1.21348799e-09
-1.22754175e-09
-1.22407519e-09
-1.19372591e-09
-1.18852328e-09
-1.18773424e-09
-1.23152971e-09
-1.2285649e-09
-1.19551317e-09
-1.18733954e-09
-1.20499385e-09
-1.22951309e-09
-1.20359466e-09
-1.18928691e-09
-1.21076969e-09
-1.22835824e-09
-1.22575269e-09
-1.1900669e-09
-1.18883028e-09
-1.20494179e-09
-1.22840934e-09
-1.22882155e-09
-1.19571349e-09
-1.18806258e-09
-1.18706197e-09
-1.20172649e-09
-1.22980764e-09
-1.20510751e-09
-1.18906287e-09
-1.2032577e-09
-1.22889522e-09
-1.22903667e-09
-1.19031066e-09
-1.1872063e-09
-1.20056376e-09
-1.22994813e-09
-1.20611089e-09
-1.18877919e-09
-1.20698616e-09
-1.22851662e-09
-1.20511297e-09
-1.18963901e-09
-1.2047272e-09
-1.22777002e-09
-1.23068593e-09
-1.19802953e-09
-1.18907353e-09
-1.18848163e-09
-1.20372027e-09
-1.22833331e-09
-1.22601834e-09
-1.19471919e-09
-1.18786791e-09
-1.18685317e-09
-1.19511103e-09
-1.23009825e-09
-1.22659317e-09
-1.20703995e-09
-1.18814677e-09
-1.2021123e-09
-1.22947592e-09
-1.20625785e-09
-1.1889744e-09
-1.20346211e-09
-1.22889676e-09
-1.22800117e-09
-1.18935878e-09
-1.18731341e-09
-1.19823112e-09
-1.22996657e-09
-1.20894941e-09
-1.18954189e-09
-1.20544339e-09
-1.22849857e-09
-1.22657694e-09
-1.18937608e-09
-1.18717641e-09
-1.197559e-09
-1.23000781e-09
-1.20940455e-09
-1.18866681e-09
-1.20313838e-09
-1.22897366e-09
-1.20710554e-09
-1.18849183e-09
-1.20322807e-09
-1.22889092e-09
-1.20646388e-09
-1.18838914e-09
-1.20383759e-09
-1.22870724e-09
-1.20612688e-09
-1.18856596e-09
-1.2056815e-09
-1.228214e-09
-1.20437493e-09
-1.1895327e-09
-1.20961231e-09
-1.22723981e-09
-1.21997499e-09
-1.19150061e-09
-1.18825235e-09
-1.18742269e-09
-1.20055019e-09
-1.22903717e-09
-1.20557015e-09
-1.18826393e-09
-1.20066097e-09
-1.22821115e-09
-1.22988806e-09
-1.18991393e-09
-1.18772356e-09
-1.2068946e-09
-1.22851986e-09
-1.20323919e-09
-1.18839514e-09
-1.20858896e-09
-1.22812794e-09
-1.2016212e-09
-1.18808305e-09
-1.20922252e-09
-1.22813659e-09
-1.20010472e-09
-1.18804329e-09
-1.21269339e-09
-1.22795531e-09
-1.19729379e-09
-1.18862901e-09
-1.21807205e-09
-1.22778072e-09
-1.21100602e-09
-1.18780396e-09
-1.18690048e-09
-1.21503021e-09
-1.22781821e-09
-1.19591583e-09
-1.1889918e-09
-1.2240779e-09
-1.22746048e-09
-1.20983113e-09
-1.18779568e-09
-1.18704093e-09
-1.21873669e-09
-1.2276562e-09
-1.19443877e-09
-1.18875219e-09
-1.22665501e-09
-1.22738524e-09
-1.20974566e-09
-1.18781738e-09
-1.18707202e-09
-1.22298149e-09
-1.2272752e-09
-1.19435321e-09
-1.18895778e-09
-1.22404502e-09
-1.22614942e-09
-1.21637262e-09
-1.19120575e-09
-1.18792592e-09
-1.18796342e-09
-1.23344777e-09
-1.2274402e-09
-1.20795964e-09
-1.18781398e-09
-1.18733035e-09
-1.22827309e-09
-1.22744656e-09
-1.19249217e-09
-1.1879232e-09
-1.23104948e-09
-1.22726209e-09
-1.1917249e-09
-1.18820173e-09
-1.22830318e-09
-1.2274597e-09
-1.2107736e-09
-1.18769475e-09
-1.18756176e-09
-1.229566e-09
-1.22779695e-09
-1.2070448e-09
-1.1874973e-09
-1.1879246e-09
-1.23157962e-09
-1.22749678e-09
-1.20803196e-09
-1.18795866e-09
-1.18825689e-09
-1.23193653e-09
-1.22756745e-09
-1.20621062e-09
-1.18755198e-09
-1.18790378e-09
-1.23148248e-09
-1.2277549e-09
-1.20447662e-09
-1.18727392e-09
-1.18732097e-09
-1.2318966e-09
-1.22720161e-09
-1.19136163e-09
-1.18855304e-09
-1.2307446e-09
-1.2275418e-09
-1.20279231e-09
-1.187012e-09
-1.18687382e-09
-1.23378659e-09
-1.22737633e-09
-1.19152875e-09
-1.18874986e-09
-1.2302132e-09
-1.22761101e-09
-1.20206069e-09
-1.18715483e-09
-1.18717563e-09
-1.23114851e-09
-1.22725535e-09
-1.19154012e-09
-1.18900035e-09
-1.22989954e-09
-1.22762162e-09
-1.20190733e-09
-1.1867356e-09
-1.18659855e-09
-1.23251204e-09
-1.22747161e-09
-1.19123023e-09
-1.18866716e-09
-1.23008496e-09
-1.22770196e-09
-1.20239348e-09
-1.18685148e-09
-1.18668463e-09
-1.23120631e-09
-1.22745869e-09
-1.19127967e-09
-1.18880147e-09
-1.23000881e-09
-1.22777618e-09
-1.20106446e-09
-1.18666521e-09
-1.18634832e-09
-1.23104931e-09
-1.22755567e-09
-1.19127436e-09
-1.18794952e-09
-1.23204402e-09
-1.22717246e-09
-1.19096133e-09
-1.1877829e-09
-1.23249224e-09
-1.22724006e-09
-1.19086409e-09
-1.18846721e-09
-1.23032258e-09
-1.2278561e-09
-1.20054836e-09
-1.18650297e-09
-1.18621107e-09
-1.23043581e-09
-1.22754888e-09
-1.19120056e-09
-1.18888266e-09
-1.23004578e-09
-1.22772762e-09
-1.20090061e-09
-1.18665629e-09
-1.18635634e-09
-1.23038997e-09
-1.22747388e-09
-1.1911521e-09
-1.18887557e-09
-1.23002653e-09
-1.22775925e-09
-1.20053438e-09
-1.18649467e-09
-1.1861789e-09
-1.23090024e-09
-1.22761821e-09
-1.1910504e-09
-1.18822718e-09
-1.23150304e-09
-1.22763486e-09
-1.18897761e-09
-1.18696553e-09
-1.23161003e-09
-1.22739023e-09
-1.19131209e-09
-1.18875688e-09
-1.23026127e-09
-1.22768718e-09
-1.20074366e-09
-1.1864833e-09
-1.18620366e-09
-1.2307185e-09
-1.22736968e-09
-1.19101547e-09
-1.18891288e-09
-1.23032663e-09
-1.22731105e-09
-1.20176755e-09
-1.1871671e-09
-1.18721073e-09
-1.23042685e-09
-1.22796733e-09
-1.20300033e-09
-1.18687622e-09
-1.18646445e-09
-1.23075484e-09
-1.22719532e-09
-1.19090772e-09
-1.1889298e-09
-1.23029297e-09
-1.22735932e-09
-1.20281176e-09
)
;

boundaryField
{
    closed
    {
        type            calculated;
        value           nonuniform List<scalar> 0();
    }
    open
    {
        type            calculated;
        value           nonuniform List<scalar> 0();
    }
    sides
    {
        type            empty;
    }
    procBoundary2to1
    {
        type            processor;
        value           uniform -1.21948071e-09;
    }
    procBoundary2to3
    {
        type            processor;
        value           uniform -1.18724732e-09;
    }
}


// ************************************************************************* //
