/*--------------------------------*- C++ -*----------------------------------*\
| =========                 |                                                 |
| \\      /  F ield         | OpenFOAM: The Open Source CFD Toolbox           |
|  \\    /   O peration     | Version:  2306                                  |
|   \\  /    A nd           | Website:  www.openfoam.com                      |
|    \\/     M anipulation  |                                                 |
\*---------------------------------------------------------------------------*/
FoamFile
{
    version     2.0;
    format      ascii;
    arch        "LSB;label=32;scalar=64";
    class       volScalarField;
    location    "0.00052";
    object      prefDh_H2;
}
// * * * * * * * * * * * * * * * * * * * * * * * * * * * * * * * * * * * * * //

dimensions      [1 1 -3 0 0 0 0];

internalField   nonuniform List<scalar> 
530
(
38.4294797
29.0963917
24.5882529
34.0224805
38.3496072
29.5737161
25.7010388
34.8071952
38.1905791
30.7501297
25.4346518
23.6422887
29.3950945
37.9926867
35.3336553
25.4082953
21.8455281
29.5285899
38.1650794
29.106405
25.2004991
37.244528
38.4993261
29.1083798
26.8257682
29.4528516
38.3716679
38.5794942
28.8363639
26.4931788
24.2430522
23.3003362
29.6298797
37.8678026
33.1203624
26.0382168
23.4980349
29.6553697
38.1679103
29.1677859
25.576037
36.7996631
38.5246075
30.027114
25.8736727
35.9776906
38.3490085
30.18099
26.1942944
24.8173993
29.1513388
37.9083278
36.5929415
27.0577918
23.3291752
29.1717558
37.7150755
33.3890688
26.402008
23.6155919
28.9825095
37.6126902
33.7834957
25.697059
23.425394
30.4078033
37.9705215
28.8519781
24.899493
30.1156682
38.139623
28.7223562
24.3730605
29.6512952
38.0741333
28.7579562
25.3785686
32.0191815
37.9866939
30.7650346
25.4601536
24.4098723
30.0512903
37.6817978
32.2368484
24.898299
24.7363333
36.4797554
29.453093
25.0085944
34.987548
38.0287822
30.2256981
25.5805231
24.4576413
29.9437316
38.0671142
28.9135641
25.383832
31.6076372
38.2577443
28.9785811
25.8033861
32.4549185
37.7793809
31.1095403
25.1784559
24.4471298
34.4157845
38.1687698
30.8342945
29.1285398
25.4514965
24.3336001
28.647073
37.6058385
28.9956271
26.2209273
33.9405802
38.0848574
30.760359
26.3686204
24.403394
29.1898096
37.6187204
29.0774028
26.5474745
33.9781755
38.1323256
30.2489171
25.8953562
23.6592456
28.6014447
37.5643409
29.1384775
25.4484873
29.2398431
37.834484
29.0318419
25.6131366
29.3597714
37.8401716
29.0013417
25.8594215
29.7636669
37.7827412
28.9970881
26.1123095
33.0054087
37.9636742
30.0434415
24.9316933
22.5458418
28.5276719
37.4643644
29.2549738
25.2144813
28.6317062
37.570795
29.3019648
25.4190441
28.7215197
37.6594735
29.2149332
25.4686638
28.8450487
37.7365791
29.0503466
25.7746233
29.5732767
37.928485
28.9949766
27.0369409
32.3891661
38.2341778
30.4064189
29.1860048
24.2868406
23.8362196
30.5985694
37.9213817
29.0551014
25.3299179
28.7763586
37.6142349
28.8905039
25.8742437
31.777965
37.7414182
31.1499492
25.106927
22.8843698
29.7317295
37.6634358
28.9943664
26.2762056
31.3591223
37.702714
31.4610661
25.08821
22.3559557
29.3877488
37.8011111
28.9795416
25.2991063
29.0718638
37.9039942
28.9091153
25.6283843
30.6832131
38.221463
28.8835896
26.4443602
30.5122423
38.3152069
33.2116413
28.9196856
23.8267045
23.7103702
35.5246187
38.2571265
28.7833462
23.2371958
28.8605808
37.6870301
29.0648557
26.3401791
29.9081502
37.9443601
33.698123
28.0812657
25.1835161
29.0653549
37.7550195
34.5611821
29.0907443
24.1655056
22.968387
28.4919438
37.694191
29.1592383
25.8807245
28.7143859
37.8908572
38.2021913
28.6708173
22.5703057
28.3283336
37.6833711
29.2811284
25.8327285
29.1697042
38.1949452
29.2038909
27.3202767
28.9900231
38.2064298
37.4835142
28.8217642
25.4023431
25.2210486
29.0016775
37.8581972
33.7679912
29.2321162
24.3659041
22.5220466
28.0575884
37.686236
38.9210456
29.5143982
24.9628475
28.4507475
37.8640035
29.2632502
25.6935136
28.7905496
37.881455
34.3556934
27.2593785
22.5723581
28.3571542
37.5576722
29.7624223
26.519569
29.0908351
37.9806067
33.9367235
27.3344333
22.4292765
28.3309834
37.676542
29.8008183
25.3484222
28.6729083
38.0181914
29.4067797
25.2333944
28.672008
38.0772576
29.2991868
25.091285
28.7539462
38.1284592
29.2743374
25.4282762
29.0543362
38.2258079
29.1317187
26.9423311
29.7991437
38.2838975
32.1569258
29.3530251
24.891384
23.5447541
28.5368593
37.9912964
29.1778396
24.5910491
28.6138321
38.0975805
38.0669433
27.9060396
23.2382084
29.299505
37.9695319
28.9625455
25.023702
29.5406901
38.2805253
28.753935
24.6182565
29.6553207
38.2820186
28.6727788
24.5512672
30.36747
38.325991
28.6831903
25.3245635
31.6505067
38.0677216
30.2119302
24.1638966
22.8048504
30.9223481
38.3323639
28.9586234
25.9787931
33.2880281
38.1155096
30.034542
24.0751097
23.0663899
31.8277184
38.3981646
29.1532755
25.6787122
34.0502052
38.1195659
30.0118246
23.9722061
23.2608002
32.9700031
38.5777916
29.3104239
26.3636426
33.2666138
38.523868
31.3183175
29.2329984
23.0170474
24.5938688
37.0697812
38.0208873
29.8177172
23.7130593
23.5678173
34.5288434
38.4593513
29.757206
24.6923645
35.416637
38.5495566
29.7625978
24.9071938
34.5602242
38.0700153
30.1864235
23.5939513
23.6723851
34.9499173
37.9006727
29.6451604
22.9599775
24.240664
37.8937197
37.8961617
29.8293985
23.658563
24.6200102
37.7970943
37.8863142
29.6135025
23.0885352
24.0942867
38.0011054
37.8595377
29.3981165
22.5115926
23.5828129
37.6760483
38.4263397
28.9020913
25.3975916
38.3131042
38.0591459
29.2132719
22.1942869
22.9390095
36.2799986
38.3715503
29.2512593
25.5879449
38.4140482
37.9569822
29.1829117
22.347357
23.239865
37.8521981
38.3068798
29.3348914
25.9246511
38.3987071
37.9653328
29.1600474
21.6381999
22.4039058
37.4905035
38.308379
28.7812494
25.3972341
38.3658687
37.9341929
29.1965736
21.9110574
22.427683
37.8850799
38.2529863
28.9687336
25.5332365
38.2929417
37.8941276
29.1576439
21.5811707
21.8797551
37.8123498
38.3085663
28.5316965
24.6205985
37.5917416
38.468674
27.9245686
24.4254271
37.5220761
38.3684522
28.2091338
25.070169
38.2023782
37.9198432
29.1472882
21.5093962
21.6268633
37.9854709
38.1968978
29.0925592
25.6243805
38.1911025
37.9401157
29.1389879
21.8315527
21.9018054
37.9775075
38.2266052
29.1226412
25.6455115
38.1631437
37.9512544
29.1043706
21.5167675
21.6427955
37.6948191
38.1781792
28.5154556
24.7972967
37.4613034
38.4160795
25.348664
22.9590197
37.4354856
38.1748322
29.224992
25.4782553
38.0648638
38.0353747
29.0611011
21.7400601
21.8319037
37.7901859
38.3085433
29.0649084
25.8659156
37.9742678
38.1355195
29.2028164
22.9970876
23.0073058
37.8495604
37.8833391
29.1971182
22.2986727
22.3038558
37.7045264
38.3953497
29.0793601
25.9947796
38.0623831
38.0778664
29.0708048
)
;

boundaryField
{
    closed
    {
        type            calculated;
        value           nonuniform List<scalar> 0();
    }
    open
    {
        type            calculated;
        value           nonuniform List<scalar> 0();
    }
    sides
    {
        type            empty;
    }
    procBoundary2to1
    {
        type            processor;
        value           uniform 32.0131215;
    }
    procBoundary2to3
    {
        type            processor;
        value           uniform 22.6173088;
    }
}


// ************************************************************************* //
