/*--------------------------------*- C++ -*----------------------------------*\
| =========                 |                                                 |
| \\      /  F ield         | OpenFOAM: The Open Source CFD Toolbox           |
|  \\    /   O peration     | Version:  2306                                  |
|   \\  /    A nd           | Website:  www.openfoam.com                      |
|    \\/     M anipulation  |                                                 |
\*---------------------------------------------------------------------------*/
FoamFile
{
    version     2.0;
    format      ascii;
    arch        "LSB;label=32;scalar=64";
    class       volScalarField;
    location    "0.00052";
    object      rho;
}
// * * * * * * * * * * * * * * * * * * * * * * * * * * * * * * * * * * * * * //

dimensions      [1 -3 0 0 0 0 0];

internalField   nonuniform List<scalar> 
530
(
0.904517269
0.939988776
0.955171425
0.917130247
0.904714905
0.938948656
0.951686511
0.91435805
0.905094579
0.929103448
0.952346803
0.958040665
0.934467946
0.905408688
0.91236509
0.952255549
0.963462111
0.933549177
0.904746921
0.939024593
0.952776874
0.906180445
0.903891986
0.938771083
0.947596465
0.933621208
0.904155649
0.903501726
0.938672216
0.948602219
0.955370805
0.958419723
0.932597118
0.905091094
0.919363847
0.949652924
0.957593102
0.932379956
0.904077729
0.937712143
0.950845683
0.906584102
0.903073516
0.936929829
0.949769502
0.909146666
0.903394753
0.930152986
0.948570983
0.95293799
0.934343111
0.904257015
0.906976241
0.945615767
0.957452718
0.933813821
0.904507646
0.917450032
0.947451905
0.956257793
0.934516429
0.904500832
0.915815389
0.949447933
0.956515581
0.927846564
0.903292897
0.935922569
0.951626202
0.928707483
0.902609344
0.935857079
0.953001394
0.930327405
0.902556104
0.936267191
0.949713114
0.921160703
0.902672668
0.926027994
0.949232841
0.952503424
0.928345889
0.903158929
0.920157894
0.950778077
0.951297589
0.905469581
0.931612577
0.950219361
0.910247769
0.901922992
0.92764974
0.948200916
0.951611846
0.928082099
0.901487243
0.934495639
0.948520041
0.921570798
0.900885903
0.935025158
0.947153106
0.918408801
0.902054041
0.923543165
0.949129616
0.951257683
0.911507019
0.901030091
0.924602397
0.935909579
0.948004807
0.95137802
0.93382067
0.902039637
0.933459685
0.945528244
0.912943089
0.900962491
0.92469151
0.944950548
0.951119101
0.930624035
0.901969485
0.933295546
0.944450286
0.912743632
0.900764603
0.926809333
0.946320755
0.953351476
0.933278762
0.901978045
0.93149251
0.947783709
0.930130445
0.901341344
0.932124519
0.947262255
0.929633092
0.901344594
0.932468545
0.946531428
0.928019969
0.901537656
0.933604263
0.945817474
0.916095234
0.901163048
0.927757627
0.949379338
0.956836338
0.933571028
0.902253269
0.930878164
0.948620918
0.933106526
0.902027117
0.930638387
0.947987344
0.932580735
0.901831423
0.931098608
0.947845828
0.932032814
0.901671194
0.932124864
0.946910197
0.928886907
0.901284265
0.933451492
0.943025012
0.91840928
0.900728576
0.926415698
0.935566589
0.951748203
0.953014168
0.92496403
0.901412454
0.932552735
0.948459316
0.932676312
0.902147673
0.933489791
0.946878105
0.920702941
0.902026008
0.923413075
0.949257936
0.956174817
0.928497484
0.902217294
0.93368446
0.945793038
0.922381481
0.902259159
0.922338309
0.949426073
0.957934195
0.929978817
0.901951497
0.933039876
0.948874574
0.931585636
0.901759051
0.933652076
0.947891732
0.925061657
0.901113742
0.934491323
0.945425358
0.925857024
0.901067243
0.91620421
0.936529998
0.953996002
0.954163202
0.908371264
0.901211074
0.936351156
0.95570899
0.932833035
0.902744164
0.93299021
0.946222989
0.928535728
0.902321901
0.914854278
0.940795188
0.95003971
0.932682169
0.90298047
0.911980831
0.935998811
0.953287477
0.956935313
0.935250725
0.903088483
0.932659393
0.948108042
0.934332674
0.902800537
0.901933282
0.939054527
0.958555185
0.936307673
0.903383485
0.932337534
0.948490625
0.932301946
0.90235069
0.93303913
0.944001348
0.93370652
0.902597517
0.90417322
0.936604935
0.950397138
0.950833781
0.934305355
0.903715429
0.915783926
0.937100773
0.95366381
0.95945376
0.93965704
0.904141513
0.901308707
0.932362391
0.952032099
0.936506876
0.903948359
0.933340607
0.950068373
0.935460257
0.90415644
0.914348503
0.945126177
0.960015192
0.938488744
0.905083058
0.931649926
0.947898389
0.93445645
0.904298164
0.916159662
0.945244224
0.960811901
0.939142245
0.905086504
0.93173963
0.951835722
0.936540478
0.904446113
0.933588141
0.952304396
0.936652588
0.904431499
0.934195312
0.952880885
0.936387779
0.904447242
0.93450694
0.951952288
0.935189793
0.904375806
0.93558615
0.947366976
0.932250459
0.904483087
0.92335538
0.939746612
0.95388362
0.958091866
0.938455577
0.905148346
0.935292657
0.955001347
0.938338993
0.905069335
0.904895771
0.944594243
0.959385142
0.934671428
0.905468624
0.936789552
0.953782144
0.933576564
0.904722002
0.937881544
0.95507712
0.933142906
0.904762527
0.938647518
0.955327115
0.930336402
0.904700282
0.939650768
0.952985605
0.925545893
0.905468621
0.931392753
0.956565204
0.960763725
0.928294844
0.90472278
0.939540504
0.950936973
0.919703584
0.905375958
0.932198982
0.956828256
0.959909616
0.924886019
0.904516646
0.939563793
0.951785105
0.916989261
0.905300809
0.932192816
0.957081451
0.959177417
0.920690851
0.903971904
0.939133053
0.949445488
0.919591768
0.904251161
0.926775171
0.940300706
0.960094306
0.954905469
0.907040645
0.905360055
0.933070328
0.957714658
0.958027203
0.91506927
0.904070512
0.938567767
0.954446272
0.912013139
0.903801968
0.938767044
0.953780879
0.914875706
0.905066572
0.931064332
0.957910664
0.957599305
0.91349393
0.905431458
0.933560156
0.959873041
0.955783673
0.904780843
0.905440926
0.932754686
0.957669656
0.954586606
0.904942946
0.905408493
0.933839184
0.959365752
0.956160009
0.904402823
0.90540913
0.934886432
0.961125223
0.957617526
0.905205081
0.903875787
0.941338066
0.951985622
0.903584266
0.904819015
0.935822369
0.962017803
0.959534198
0.908752603
0.903941101
0.940168026
0.951361786
0.903333742
0.905038422
0.936094962
0.961503123
0.958582351
0.904725414
0.90409328
0.939841573
0.950283595
0.903386578
0.904972899
0.93615886
0.963654875
0.961117796
0.905478949
0.904022911
0.941551445
0.951893453
0.903424058
0.905025338
0.935886459
0.962782281
0.961049707
0.904578767
0.904169563
0.940929908
0.951481886
0.903636119
0.905122323
0.93644413
0.963804129
0.962748479
0.904812665
0.904003686
0.942408609
0.954225443
0.905270996
0.903625544
0.944326204
0.954824251
0.905399487
0.903903214
0.943342231
0.952930163
0.903865212
0.905066935
0.936682333
0.964030407
0.963573259
0.904466646
0.90435536
0.940523818
0.951259342
0.903966779
0.905055832
0.936600832
0.963051649
0.962743582
0.904522806
0.904311505
0.94042878
0.951216403
0.904077802
0.905050164
0.936838268
0.964066873
0.963576868
0.905259223
0.904452105
0.942470322
0.953837162
0.905824842
0.903795835
0.952277559
0.959514511
0.905892882
0.90452521
0.940209523
0.951788818
0.904369303
0.904881952
0.936913881
0.963396996
0.963024813
0.905076899
0.904182395
0.940648859
0.950578891
0.904635016
0.904683935
0.936263074
0.959497686
0.95947838
0.904979508
0.905293747
0.935843677
0.961712403
0.961577888
0.905345176
0.904002906
0.940586566
0.950190491
0.904428489
0.904872251
0.936202575
)
;

boundaryField
{
    closed
    {
        type            calculated;
        value           nonuniform List<scalar> 0();
    }
    open
    {
        type            calculated;
        value           nonuniform List<scalar> 0();
    }
    sides
    {
        type            empty;
    }
    procBoundary2to1
    {
        type            processor;
        value           uniform 0.92425632;
    }
    procBoundary2to3
    {
        type            processor;
        value           uniform 0.960802157;
    }
}


// ************************************************************************* //
