/*--------------------------------*- C++ -*----------------------------------*\
| =========                 |                                                 |
| \\      /  F ield         | OpenFOAM: The Open Source CFD Toolbox           |
|  \\    /   O peration     | Version:  2306                                  |
|   \\  /    A nd           | Website:  www.openfoam.com                      |
|    \\/     M anipulation  |                                                 |
\*---------------------------------------------------------------------------*/
FoamFile
{
    version     2.0;
    format      ascii;
    arch        "LSB;label=32;scalar=64";
    class       volScalarField;
    location    "0.00052";
    object      T;
}
// * * * * * * * * * * * * * * * * * * * * * * * * * * * * * * * * * * * * * //

dimensions      [0 0 0 1 0 0 0];

internalField   nonuniform List<scalar> 
530
(
340.020062
329.249836
324.288824
335.445131
339.933513
329.681332
325.463285
336.304573
339.768741
331.739826
325.192811
323.25822
330.14914
339.57696
336.88351
325.170814
321.3469
330.33752
339.756342
329.323631
324.942221
338.91068
340.079767
329.341237
326.671744
330.244574
339.945764
340.162636
329.159766
326.293265
323.929882
322.897987
330.461951
339.450893
334.447976
325.832295
323.110987
330.48037
339.756343
329.441034
325.344766
338.465342
340.107382
330.06846
325.658225
337.576434
339.928296
331.056963
326.006073
324.516299
329.822418
339.491451
338.227772
326.933854
322.909556
329.877308
339.300528
334.746069
326.230796
323.226537
329.629901
339.200292
335.182822
325.467123
323.033658
331.396332
339.561169
329.30452
324.618648
331.064773
339.734015
329.201026
324.063272
330.521816
339.66887
329.138268
325.124646
333.231892
339.571772
331.764468
325.214165
324.083241
330.978237
339.2694
333.455469
324.603042
324.417628
338.114896
330.113991
324.720633
336.498256
339.612852
331.113323
325.339739
324.147514
330.859082
339.66289
329.327145
325.14287
332.772747
339.85065
329.276273
325.575641
333.719082
339.363564
332.162298
324.881343
324.120875
335.875974
339.744588
331.826413
329.214343
325.195136
324.01647
329.183512
339.208796
329.44814
326.015664
335.356126
339.670799
331.745576
326.185832
324.076353
329.944937
339.215918
329.509532
326.360384
335.396913
339.719629
331.126954
325.689468
323.288616
329.208313
339.171101
329.789592
325.199283
330.039032
339.437362
329.636726
325.377143
330.182817
339.441791
329.57149
325.634975
330.657948
339.38044
329.41618
325.894024
334.328312
339.55506
330.871866
324.655961
322.102725
329.128287
339.073557
329.954325
324.941529
329.260056
339.178174
330.019657
325.163541
329.391337
339.266449
329.905448
325.218553
329.547049
339.34265
329.665627
325.546877
330.43781
339.528006
329.454619
326.892001
333.644392
339.816591
331.304639
329.29604
323.934497
323.479383
331.630314
339.518893
329.627326
325.066024
329.437891
339.219379
329.40271
325.63599
332.967229
339.332542
332.204059
324.827554
322.456297
330.624802
339.26141
329.458858
326.058753
332.491772
339.293132
332.564737
324.812941
321.897183
330.225959
339.404943
329.557093
325.035605
329.818035
339.508359
329.439914
325.39346
331.732576
339.818736
329.321362
326.266366
331.527813
339.902617
334.548314
329.084134
323.416516
323.331969
337.089261
339.85888
329.040226
322.834516
329.57214
339.28873
329.686511
326.135686
330.831354
339.534834
335.088919
328.014
324.887962
329.755316
339.341373
336.043217
329.334793
323.813296
322.55478
329.068996
339.300662
329.84917
325.642343
329.349506
339.488265
339.809857
328.695753
322.111022
328.861169
339.291749
330.011762
325.607579
329.957959
339.794347
329.890043
327.198322
329.675779
339.794571
339.098169
329.193709
325.114229
324.950687
329.635108
339.446053
335.166475
329.420275
324.045219
322.076615
328.348597
339.297029
340.509257
330.271464
324.686573
329.050682
339.469737
330.003297
325.441258
329.42938
339.478642
335.814741
327.150776
322.107782
328.774111
339.163047
330.597232
326.317349
329.804461
339.574191
335.352809
327.233091
321.958354
328.717759
339.285671
330.656882
325.079701
329.305593
339.620119
330.177855
324.963677
329.309336
339.679429
330.046655
324.813241
329.415194
339.729103
330.006451
325.174198
329.78388
339.821315
329.786775
326.786142
330.667173
339.865849
333.36626
329.385757
324.601162
323.167612
329.052017
339.593514
329.889966
324.269567
329.128178
339.689738
339.684375
327.830145
322.814868
330.069868
339.56316
329.575227
324.738317
330.379122
339.876108
329.303929
324.310351
330.51711
339.877773
329.155348
324.238928
331.351154
339.920069
329.030807
325.055731
332.812203
339.652456
331.112522
323.826552
322.384152
331.980978
339.924485
329.221559
325.755286
334.63631
339.696536
330.888779
323.729331
322.66352
333.008167
339.989469
329.334097
325.439029
335.4756
339.699537
330.863807
323.614911
322.875381
334.283563
340.167803
329.476287
326.183725
334.611676
340.095187
332.404135
329.260474
322.562522
324.290728
338.716914
339.599164
330.593495
323.330464
323.19823
336.000667
340.048984
329.807491
324.401872
336.968975
340.138646
329.77777
324.621722
336.034257
339.649859
331.076626
323.206378
323.299979
336.460119
339.481344
330.389881
322.522239
323.903954
339.53315
339.472091
330.607827
323.262717
324.301864
339.439612
339.463077
330.318304
322.660089
323.744152
339.641813
339.438497
330.034937
322.043374
323.215262
339.314759
340.011349
328.832141
325.141123
339.950329
339.639974
329.782737
321.709857
322.532901
337.908597
339.957852
329.207923
325.338892
340.04555
339.536242
329.719266
321.869923
322.846542
339.483767
339.889659
329.30009
325.694881
340.024903
339.544972
329.690827
321.116411
321.960661
339.134024
339.894532
328.707414
325.133543
339.994118
339.514266
329.747969
321.408511
321.982141
339.518416
339.837519
328.912117
325.275229
339.918115
339.474309
329.648017
321.057591
321.399554
339.44132
339.896021
328.427492
324.321059
339.230555
340.054316
327.776852
324.115963
339.166118
339.952573
328.098571
324.78513
339.830117
339.501923
329.613796
320.987104
321.129836
339.609347
339.78138
329.055705
325.370726
339.814218
339.520738
329.622984
321.331321
321.423278
339.600459
339.810694
329.092841
325.3945
339.785234
339.532652
329.573568
320.995549
321.148889
339.318375
339.76325
328.425221
324.498955
339.088174
340.007513
325.060915
322.549798
339.063355
339.756302
329.194798
325.217344
339.688074
339.617832
329.543719
321.239953
321.354616
339.413392
339.893128
329.038846
325.635603
339.596144
339.714759
329.723391
322.580531
322.58937
339.469753
339.466191
329.778116
321.830862
321.858116
339.32606
339.979469
329.063197
325.77701
339.686024
339.656366
329.653097
)
;

boundaryField
{
    closed
    {
        type            fixedValue;
        value           nonuniform List<scalar> 0();
    }
    open
    {
        type            zeroGradient;
    }
    sides
    {
        type            empty;
    }
    procBoundary2to1
    {
        type            processor;
        value           uniform 333.221962;
    }
    procBoundary2to3
    {
        type            processor;
        value           uniform 322.160319;
    }
}


// ************************************************************************* //
