/*--------------------------------*- C++ -*----------------------------------*\
| =========                 |                                                 |
| \\      /  F ield         | OpenFOAM: The Open Source CFD Toolbox           |
|  \\    /   O peration     | Version:  2306                                  |
|   \\  /    A nd           | Website:  www.openfoam.com                      |
|    \\/     M anipulation  |                                                 |
\*---------------------------------------------------------------------------*/
FoamFile
{
    version     2.0;
    format      ascii;
    arch        "LSB;label=32;scalar=64";
    class       volScalarField;
    location    "0.00116";
    object      prefDPV_H2;
}
// * * * * * * * * * * * * * * * * * * * * * * * * * * * * * * * * * * * * * //

dimensions      [1 -1 -1 0 0 0 0];

internalField   nonuniform List<scalar> 
531
(
-3.15623042e-05
-3.14855192e-05
-3.08702385e-05
-3.06095679e-05
-3.08964122e-05
-3.15648303e-05
-3.14892728e-05
-3.09051615e-05
-3.06035358e-05
-3.0891754e-05
-3.15662959e-05
-3.15047328e-05
-3.09041757e-05
-3.05579249e-05
-3.07889903e-05
-3.09767245e-05
-3.15531518e-05
-3.145981e-05
-3.08656324e-05
-3.09290406e-05
-3.15876303e-05
-3.14891687e-05
-3.07830591e-05
-3.04864499e-05
-3.08727354e-05
-3.15011347e-05
-3.15750057e-05
-3.14872341e-05
-3.08312764e-05
-3.08109453e-05
-3.09088931e-05
-3.08978343e-05
-3.09163483e-05
-3.15677232e-05
-3.15620631e-05
-3.07539584e-05
-3.04667572e-05
-3.08902375e-05
-3.15477422e-05
-3.15723952e-05
-3.07976493e-05
-3.05024397e-05
-3.09086633e-05
-3.15156145e-05
-3.15725491e-05
-3.0891099e-05
-3.08532724e-05
-3.14668806e-05
-3.15611224e-05
-3.08774875e-05
-3.08282004e-05
-3.14291463e-05
-3.15534055e-05
-3.08800079e-05
-3.0631645e-05
-3.08923018e-05
-3.14510562e-05
-3.15587231e-05
-3.0878693e-05
-3.06605785e-05
-3.07505218e-05
-3.07548058e-05
-3.08935767e-05
-3.14258924e-05
-3.15523966e-05
-3.08819984e-05
-3.06897022e-05
-3.0915174e-05
-3.13247793e-05
-3.15484839e-05
-3.09068247e-05
-3.08147539e-05
-3.08777034e-05
-3.13693992e-05
-3.1525547e-05
-3.09247975e-05
-3.07165405e-05
-3.0611532e-05
-3.06564922e-05
-3.11665493e-05
-3.151352e-05
-3.10988435e-05
-3.08974197e-05
-3.08439526e-05
-3.10660654e-05
-3.15087979e-05
-3.10325423e-05
-3.07527537e-05
-3.06831195e-05
-3.10274112e-05
-3.1500875e-05
-3.1212051e-05
-3.08926107e-05
-3.08990627e-05
-3.08988329e-05
-3.09178711e-05
-3.09152485e-05
-3.11049877e-05
-3.15080137e-05
-3.10756666e-05
-3.08353177e-05
-3.08563531e-05
-3.13585333e-05
-3.12271993e-05
-3.09057935e-05
-3.07333064e-05
-3.09261941e-05
-3.14402051e-05
-3.11083583e-05
-3.08364913e-05
-3.08702732e-05
-3.1357596e-05
-3.12773963e-05
-3.09089948e-05
-3.07376469e-05
-3.09197513e-05
-3.1449979e-05
-3.117151e-05
-3.08659198e-05
-3.06691303e-05
-3.09163853e-05
-3.14553165e-05
-3.11685595e-05
-3.0859426e-05
-3.06643957e-05
-3.09190153e-05
-3.14631913e-05
-3.11668272e-05
-3.08499749e-05
-3.06513606e-05
-3.09196349e-05
-3.14711483e-05
-3.11667433e-05
-3.08420397e-05
-3.06529945e-05
-3.09227286e-05
-3.14795917e-05
-3.11673692e-05
-3.08649976e-05
-3.06829295e-05
-3.09357397e-05
-3.14837065e-05
-3.11493217e-05
-3.07990704e-05
-3.09006509e-05
-3.14555232e-05
-3.14369886e-05
-3.09214103e-05
-3.07126562e-05
-3.09213158e-05
-3.14928984e-05
-3.11567449e-05
-3.07877201e-05
-3.0899965e-05
-3.14834118e-05
-3.13379767e-05
-3.08966357e-05
-3.06582121e-05
-3.09255305e-05
-3.15071172e-05
-3.11509633e-05
-3.08034786e-05
-3.06048867e-05
-3.06187104e-05
-3.09360092e-05
-3.15059082e-05
-3.12234848e-05
-3.0822403e-05
-3.07142476e-05
-3.09839912e-05
-3.14984958e-05
-3.11121401e-05
-3.07634181e-05
-3.0921035e-05
-3.15002589e-05
-3.14655641e-05
-3.09142022e-05
-3.07422979e-05
-3.09229912e-05
-3.15134288e-05
-3.12619988e-05
-3.07708975e-05
-3.07024667e-05
-3.10028412e-05
-3.15039706e-05
-3.10282008e-05
-3.0876236e-05
-3.09098335e-05
-3.15071793e-05
-3.10703775e-05
-3.06828134e-05
-3.07110697e-05
-3.10396182e-05
-3.14989131e-05
-3.10156127e-05
-3.06718159e-05
-3.07015883e-05
-3.10413672e-05
-3.14801602e-05
-3.09538282e-05
-3.0665077e-05
-3.0891371e-05
-3.15196329e-05
-3.143653e-05
-3.09145302e-05
-3.07090015e-05
-3.09308174e-05
-3.15232668e-05
-3.14205709e-05
-3.07726935e-05
-3.0632415e-05
-3.07668929e-05
-3.09772054e-05
-3.15350073e-05
-3.1398507e-05
-3.0811725e-05
-3.05776979e-05
-3.08825664e-05
-3.15218205e-05
-3.148671e-05
-3.09024174e-05
-3.08569503e-05
-3.09309088e-05
-3.15335818e-05
-3.13320701e-05
-3.077823e-05
-3.07977914e-05
-3.10711015e-05
-3.15071939e-05
-3.10610686e-05
-3.06283137e-05
-3.06755072e-05
-3.10308141e-05
-3.14901655e-05
-3.10066152e-05
-3.06231115e-05
-3.07679893e-05
-3.13405627e-05
-3.14403521e-05
-3.08945594e-05
-3.06060274e-05
-3.09004574e-05
-3.15168489e-05
-3.13237018e-05
-3.07786612e-05
-3.08221027e-05
-3.11511953e-05
-3.14909822e-05
-3.09856963e-05
-3.06393435e-05
-3.07732152e-05
-3.12954111e-05
-3.14871076e-05
-3.09218872e-05
-3.06355595e-05
-3.06425059e-05
-3.06017624e-05
-3.08871525e-05
-3.15255406e-05
-3.15042374e-05
-3.09585338e-05
-3.08802402e-05
-3.09098222e-05
-3.15753208e-05
-3.14393608e-05
-3.07925681e-05
-3.06365706e-05
-3.09387443e-05
-3.15002352e-05
-3.10585378e-05
-3.07388791e-05
-3.09019772e-05
-3.15600829e-05
-3.1421589e-05
-3.07952665e-05
-3.0550108e-05
-3.09005601e-05
-3.15365963e-05
-3.14227945e-05
-3.06096345e-05
-3.05757749e-05
-3.09580132e-05
-3.14922569e-05
-3.09866465e-05
-3.08240098e-05
-3.09352554e-05
-3.15009202e-05
-3.10057194e-05
-3.0691154e-05
-3.09032742e-05
-3.15206473e-05
-3.14303081e-05
-3.09279656e-05
-3.06264124e-05
-3.0912484e-05
-3.1531988e-05
-3.14154748e-05
-3.06048177e-05
-3.05926442e-05
-3.09456363e-05
-3.15119548e-05
-3.13088971e-05
-3.05968804e-05
-3.06182113e-05
-3.09881718e-05
-3.14906696e-05
-3.10743033e-05
-3.05848355e-05
-3.0678912e-05
-3.10764159e-05
-3.1475802e-05
-3.09187682e-05
-3.08800208e-05
-3.10072461e-05
-3.14857289e-05
-3.0917161e-05
-3.05357355e-05
-3.07369169e-05
-3.11374355e-05
-3.14740706e-05
-3.09001771e-05
-3.08919875e-05
-3.10712093e-05
-3.14712585e-05
-3.0888042e-05
-3.05198526e-05
-3.08023141e-05
-3.12363092e-05
-3.14583844e-05
-3.08935091e-05
-3.08364634e-05
-3.11474048e-05
-3.14466e-05
-3.08994639e-05
-3.07476713e-05
-3.10846804e-05
-3.14721435e-05
-3.09108924e-05
-3.06299089e-05
-3.09144857e-05
-3.1404959e-05
-3.14499536e-05
-3.09030877e-05
-3.07691783e-05
-3.10846094e-05
-3.14816356e-05
-3.09138177e-05
-3.06670963e-05
-3.09178851e-05
-3.14389543e-05
-3.14502484e-05
-3.08860368e-05
-3.05111731e-05
-3.09035632e-05
-3.1451967e-05
-3.14579627e-05
-3.09119006e-05
-3.08590753e-05
-3.11916431e-05
-3.12108495e-05
-3.08373241e-05
-3.08712479e-05
-3.13369085e-05
-3.14561296e-05
-3.08827833e-05
-3.05769399e-05
-3.09020071e-05
-3.14661285e-05
-3.14635584e-05
-3.09204581e-05
-3.0905694e-05
-3.12430499e-05
-3.14609898e-05
-3.08779835e-05
-3.05737779e-05
-3.09021706e-05
-3.14699592e-05
-3.14575084e-05
-3.08863693e-05
-3.05922668e-05
-3.08991431e-05
-3.14786245e-05
-3.14581969e-05
-3.0885494e-05
-3.06001817e-05
-3.08953558e-05
-3.14863058e-05
-3.1455993e-05
-3.08864092e-05
-3.05975485e-05
-3.08930956e-05
-3.14916874e-05
-3.14562317e-05
-3.0892819e-05
-3.05961346e-05
-3.06732464e-05
-3.09012687e-05
-3.12749998e-05
-3.15606481e-05
-3.13604358e-05
-3.09006288e-05
-3.05677397e-05
-3.08855847e-05
-3.14978757e-05
-3.14494978e-05
-3.08981478e-05
-3.05281577e-05
-3.08802116e-05
-3.15102716e-05
-3.14399237e-05
-3.09527383e-05
-3.09318794e-05
-3.14722748e-05
-3.14337315e-05
-3.08547006e-05
-3.04682278e-05
-3.08827461e-05
-3.151308e-05
-3.14113005e-05
-3.08868715e-05
-3.09285629e-05
-3.14942069e-05
-3.13678677e-05
-3.0788208e-05
-3.09313458e-05
-3.15143907e-05
-3.13281105e-05
-3.06865176e-05
-3.09216822e-05
-3.15276945e-05
-3.1442924e-05
-3.09210123e-05
-3.04865948e-05
-3.088589e-05
-3.15348926e-05
-3.14489204e-05
-3.08191603e-05
-3.08282475e-05
-3.1468388e-05
-3.14770599e-05
-3.09031501e-05
-3.05742443e-05
-3.08953781e-05
-3.15490777e-05
-3.14966078e-05
-3.09053815e-05
-3.0519713e-05
-3.09009986e-05
-3.15494113e-05
-3.15085389e-05
-3.09132369e-05
-3.04672359e-05
-3.08899429e-05
-3.15505256e-05
-3.15250997e-05
-3.09102202e-05
-3.04011547e-05
-3.0823939e-05
-3.15383452e-05
-3.1561296e-05
-3.0803801e-05
-3.07827337e-05
-3.15665961e-05
-3.15269113e-05
-3.08975223e-05
-3.05046351e-05
-3.08561626e-05
-3.11675939e-05
-3.15661086e-05
-3.15182473e-05
-3.09022476e-05
-3.06075156e-05
-3.06626956e-05
-3.08740916e-05
-3.15538315e-05
-3.15392672e-05
-3.08912182e-05
-3.05464422e-05
-3.08705487e-05
-3.15121668e-05
-3.15777285e-05
-3.09276611e-05
-3.08302675e-05
-3.15057202e-05
-3.15393422e-05
-3.09012988e-05
-3.04418266e-05
-3.07559225e-05
-3.14965139e-05
-3.15787341e-05
-3.0929742e-05
-3.07898309e-05
-3.14720066e-05
-3.15609544e-05
-3.09267052e-05
-3.07919762e-05
-3.14775551e-05
-3.15396484e-05
-3.08997883e-05
-3.04869219e-05
-3.07908995e-05
-3.15023617e-05
-3.15566439e-05
-3.08973118e-05
-3.05442577e-05
-3.08433799e-05
-3.15050568e-05
-3.15580618e-05
-3.08960234e-05
-3.05669712e-05
-3.08626903e-05
-3.1504796e-05
-3.15598382e-05
-3.08949932e-05
-3.05722834e-05
-3.08703609e-05
-3.15052033e-05
-3.15617364e-05
-3.08936571e-05
-3.05699227e-05
-3.08740856e-05
-3.15063777e-05
-3.15638637e-05
-3.08924956e-05
-3.05697086e-05
-3.0880972e-05
-3.1508119e-05
-3.15660289e-05
-3.08916064e-05
-3.0575533e-05
-3.0896839e-05
)
;

boundaryField
{
    closed
    {
        type            calculated;
        value           nonuniform List<scalar> 0();
    }
    open
    {
        type            calculated;
        value           nonuniform List<scalar> 0();
    }
    sides
    {
        type            empty;
    }
    procBoundary1to0
    {
        type            processor;
        value           uniform -3.09076708e-05;
    }
    procBoundary1to2
    {
        type            processor;
        value           uniform -3.15095146e-05;
    }
}


// ************************************************************************* //
