/*--------------------------------*- C++ -*----------------------------------*\
| =========                 |                                                 |
| \\      /  F ield         | OpenFOAM: The Open Source CFD Toolbox           |
|  \\    /   O peration     | Version:  2306                                  |
|   \\  /    A nd           | Website:  www.openfoam.com                      |
|    \\/     M anipulation  |                                                 |
\*---------------------------------------------------------------------------*/
FoamFile
{
    version     2.0;
    format      ascii;
    arch        "LSB;label=32;scalar=64";
    class       volScalarField;
    location    "0.00116";
    object      T;
}
// * * * * * * * * * * * * * * * * * * * * * * * * * * * * * * * * * * * * * //

dimensions      [0 0 0 1 0 0 0];

internalField   nonuniform List<scalar> 
531
(
340.407934
339.32956
328.452178
324.255975
329.059838
340.454231
339.377082
329.014247
324.160399
328.958353
340.478739
339.600937
329.020693
323.419355
327.127997
330.622228
340.247126
338.978873
328.37752
329.460636
340.802645
339.361774
327.03798
322.292123
328.574762
339.550784
340.564574
339.399575
327.82298
327.52816
329.128883
328.905427
329.488134
340.464877
340.449154
326.561135
321.939748
328.823132
340.206004
340.595433
327.27346
322.518676
329.12667
339.720728
340.608913
328.782517
328.195958
339.030673
340.435328
328.55443
327.788894
338.49849
340.295764
328.632255
324.608831
328.952729
338.772488
340.381051
328.684752
325.071275
326.523035
326.598127
329.0144
338.409047
340.285056
328.850505
325.545684
329.179108
336.825597
340.255327
329.346535
327.564014
328.763049
337.591305
339.901151
329.690847
325.968647
324.283362
325.035719
334.040235
339.704549
332.840842
328.897356
328.034122
332.256094
339.681612
331.65866
326.536555
325.429661
331.564236
339.531014
334.842816
329.002865
329.032282
329.016377
329.269794
329.21981
332.949889
339.662482
332.427358
327.881406
328.32407
337.398314
335.106148
329.045731
326.268701
329.689945
338.675843
333.007657
327.911555
328.530121
337.383857
335.988136
329.114263
326.339465
329.569148
338.802348
334.126999
328.368834
325.226462
329.513154
338.879184
334.075146
328.267227
325.151043
329.56284
338.992388
334.044606
328.115678
324.940649
329.575001
339.107299
334.042944
327.988978
324.966392
329.632165
339.226723
334.054314
328.364556
325.453822
329.871639
339.286415
333.73338
327.324405
328.992778
338.910978
338.62561
329.331582
325.950857
329.583398
339.426409
333.862876
327.143012
329.007729
339.317207
337.043115
328.891606
325.065054
329.671032
339.63549
333.762212
327.382002
324.17804
324.408651
329.868973
339.611266
335.038752
327.691743
325.962351
330.770134
339.498599
333.075006
326.756506
329.276246
339.579172
339.04262
329.256759
326.422517
329.610716
339.733439
335.710264
326.864755
325.772308
331.117617
339.591578
331.580205
328.57314
329.361818
339.666947
332.33327
325.446102
325.899328
331.781486
339.522616
331.351972
325.264521
325.746814
331.813584
339.251957
330.231632
325.170332
328.862701
339.855613
338.641651
329.18885
325.886388
329.752968
339.867809
338.427382
326.903921
324.641662
326.790018
330.631538
340.023167
338.082855
327.527712
323.777657
328.701614
339.872868
339.336926
329.168521
328.25305
329.757331
340.015383
336.930386
326.993573
327.313012
332.345698
339.627897
332.167698
324.556524
325.323142
331.622289
339.384445
331.192908
324.484875
326.81023
337.086946
338.663635
328.978978
324.214363
329.151395
339.774185
336.785177
327.006998
327.703023
333.770334
339.370758
330.813046
324.742634
326.884282
336.300679
339.327655
329.621632
324.681514
324.778271
324.146486
328.795927
339.892233
339.5418
330.303545
328.617316
329.320846
340.618256
338.655537
327.204665
324.701947
329.927394
339.518182
332.123044
326.347152
329.080451
340.407054
338.395841
327.254412
323.309361
329.154172
340.061413
338.446736
324.269696
323.726396
330.290469
339.413542
330.835141
327.722176
329.855951
339.5302
331.177407
325.59001
329.054037
339.851305
338.522113
329.402445
324.540787
329.401937
339.988883
338.353825
324.19887
324.005095
330.03163
339.686197
336.524642
324.066394
324.420481
330.840179
339.378432
332.40312
323.868246
325.38885
332.440723
339.17541
329.572683
328.631425
331.197919
339.321977
329.548552
323.074284
326.310075
333.525456
339.161043
329.189826
328.826952
332.347913
339.118463
328.962356
322.82442
327.361573
335.266928
338.941331
328.976168
327.939285
333.697392
338.793973
328.97724
326.500972
332.587811
339.126737
329.416764
324.615479
329.174412
338.167444
338.829944
329.042466
326.844865
332.58648
339.267394
329.476897
325.214321
329.245309
338.657122
338.818236
328.798797
322.695543
328.993535
338.851567
338.948879
329.18612
328.298509
334.476712
334.812986
327.953856
328.491358
337.024423
338.890831
328.818319
323.75734
328.993494
339.054643
339.027306
329.332795
329.048691
335.381204
338.970648
328.707088
323.705616
329.006486
339.096829
338.913615
328.839144
324.006347
328.970633
339.222434
338.922686
328.821724
324.132507
328.92066
339.334799
338.890001
328.827183
324.089556
328.894281
339.412701
338.898536
328.905426
324.047926
325.286418
329.019512
335.953771
340.367423
337.438038
328.950444
323.613898
328.787843
339.510476
338.802808
328.961787
322.962845
328.689564
339.690949
338.679021
329.814947
329.475459
339.167789
338.578671
328.216876
321.995295
328.719988
339.730965
338.269429
328.757771
329.412318
339.478924
337.562353
327.166614
329.45088
339.765292
336.86358
325.524024
329.294906
339.955269
338.685303
329.291856
322.28711
328.76119
340.030955
338.808744
327.664842
327.786971
339.106406
339.161799
329.139454
323.699649
328.91047
340.244782
339.459863
329.104244
322.816519
328.970199
340.248656
339.641937
329.197869
321.966444
328.764228
340.266451
339.896745
329.10239
320.897511
327.696686
340.070392
340.422736
327.404002
327.049186
340.525912
339.890443
328.969189
322.580424
328.211786
334.059211
340.426145
339.778514
329.022497
324.23435
325.103671
328.538769
340.308713
340.069247
328.922556
323.240596
328.451375
339.6865
340.644534
329.405378
327.814156
339.641561
340.087784
328.999187
321.552775
326.604549
339.46732
340.666685
329.426262
327.152428
339.138369
340.39598
329.371919
327.197277
339.228036
340.086661
328.998072
322.277085
327.176638
339.552713
340.332836
329.001026
323.197416
328.022721
339.589009
340.349002
328.995003
323.563567
328.332573
339.584176
340.374871
328.980632
323.648561
328.454765
339.590761
340.404195
328.952312
323.609574
328.513181
339.608618
340.436543
328.92752
323.605048
328.622435
339.633964
340.468772
328.90897
323.697964
328.876202
)
;

boundaryField
{
    closed
    {
        type            fixedValue;
        value           nonuniform List<scalar> 0();
    }
    open
    {
        type            zeroGradient;
    }
    sides
    {
        type            empty;
    }
    procBoundary1to0
    {
        type            processor;
        value           uniform 329.29976;
    }
    procBoundary1to2
    {
        type            processor;
        value           uniform 339.652541;
    }
}


// ************************************************************************* //
