/*--------------------------------*- C++ -*----------------------------------*\
| =========                 |                                                 |
| \\      /  F ield         | OpenFOAM: The Open Source CFD Toolbox           |
|  \\    /   O peration     | Version:  2306                                  |
|   \\  /    A nd           | Website:  www.openfoam.com                      |
|    \\/     M anipulation  |                                                 |
\*---------------------------------------------------------------------------*/
FoamFile
{
    version     2.0;
    format      ascii;
    arch        "LSB;label=32;scalar=64";
    class       volScalarField;
    location    "0.00074";
    object      H2O;
}
// * * * * * * * * * * * * * * * * * * * * * * * * * * * * * * * * * * * * * //

dimensions      [0 0 0 0 0 0 0];

internalField   nonuniform List<scalar> 
531
(
0.000942002084
0.0068196791
0.00731528555
0.00515819662
0.00103583783
0.000937548581
0.00689975807
0.00737167828
0.00441096657
0.000992999615
0.00292934318
0.0071907013
0.00574776345
0.000968736588
0.00334972834
0.00711444068
0.0058902734
0.00103091411
0.000954050537
0.00678660387
0.00737137868
0.00525377377
0.00102484068
0.000921898841
0.00691650998
0.00789413565
0.00657660481
0.00093415365
0.00108797601
0.000951883736
0.00109922843
0.00100566408
0.00593790666
0.00699063767
0.00685174971
0.00698023102
0.00718129577
0.00558436911
0.00104355117
0.00103233951
0.00622131876
0.00726721075
0.00532438496
0.0010051228
0.00110320542
0.00294996995
0.0070320802
0.0073163664
0.00366532461
0.00101752524
0.00265224624
0.00735038878
0.00735408958
0.000846991228
0.0010482455
0.0048283521
0.00696965493
0.00737510699
0.00659975483
0.000891708537
0.00107528677
0.00103983132
0.00107068723
0.00441672048
0.00676624359
0.00689595119
0.00740699019
0.00689584113
0.000873535189
0.00108476009
0.00361734838
0.00706504388
0.0069278358
0.000887441205
0.000942402718
0.0065426537
0.00710412059
0.00191565244
0.00107852229
0.00162686534
0.00629131338
0.00757626242
0.00724530916
0.000815299914
0.00104271056
0.00477197329
0.00728803509
0.00704344309
0.000833514437
0.00105344299
0.00463375539
0.00716994283
0.00685631453
0.000849476944
0.00105837951
0.00454200193
0.00724850883
0.00704044685
0.000827124738
0.00104469105
0.00475001271
0.00718898517
0.00680214937
0.000849165932
0.00106352343
0.00431879317
0.0071859835
0.00701840553
0.000826975068
0.00103017978
0.00498432385
0.00730098425
0.0070327964
0.000828895379
0.00106243744
0.0042852495
0.00618369569
0.00588917085
0.00651890394
0.00652816015
0.00155731575
0.00105083156
0.00439892666
0.00711909368
0.00671045987
0.000848466322
0.000845874169
0.00668565133
0.0069054528
0.0010342783
0.000995139694
0.00542123493
0.00732116668
0.00535746878
0.00090827223
0.00198226669
0.00681230857
0.0069067824
0.00111180751
0.00101891642
0.00448675654
0.00723205218
0.00690324646
0.000787418243
0.000822827919
0.00644116867
0.0068213481
0.00159561084
0.00102646711
0.00376404512
0.00712654327
0.00721141153
0.00154138679
0.00101755578
0.00370563053
0.00708160313
0.00716348181
0.00156129649
0.00102275053
0.00364481927
0.00701615904
0.00706698697
0.00141374766
0.000998257002
0.00391212572
0.00674004818
0.00709478006
0.00618537358
0.000840819664
0.00101942311
0.00449437737
0.00714889601
0.00672496287
0.000848487531
0.00094861065
0.0054459997
0.00720305393
0.00482806574
0.000917699059
0.00239814552
0.00684227414
0.00703696162
0.00215577036
0.00101188997
0.00323935632
0.00697766416
0.00711410772
0.00194971419
0.000984038875
0.00418605543
0.00705734266
0.00656343273
0.000814500189
0.000838873991
0.00590852834
0.00660638576
0.00500669797
0.00260082525
0.00345335489
0.00543051648
0.0054063203
0.00421872386
0.00394907802
0.00444747981
0.00479490283
0.00466130978
0.00439261661
0.00438980611
0.00453648168
0.00456486705
0.00451802455
0.00448405447
0.00449305519
0.00451444767
0.00451515416
0.00450634033
0.00450393141
0.00450621958
0.00450815085
0.00450785896
0.00450690929
0.00450683885
0.00450712034
0.00450722974
0.00450717288
0.00450711306
0.00450711677
0.0045071386
0.00450714068
0.00450713563
0.00450713437
0.00450713707
0.00450713754
0.00450712846
0.00450712602
0.00450715319
0.00450716865
0.0045071001
0.0045070336
0.00450718233
0.00450742179
0.00450714994
0.00450639421
0.0045067385
0.00450894545
0.00450888707
0.0045030944
0.0045025362
0.00451425685
0.00451818402
0.00449673678
0.0044826953
0.00451762249
0.00455775473
0.00450940707
0.00441011116
0.00445857129
0.00468275458
0.0046679198
0.00422105578
0.00417915342
0.00484427387
0.00507648177
0.00422144109
0.00356692958
0.00451400456
0.00575515839
0.00512957701
0.00251878816
0.00277264804
0.00643997294
0.00662887408
0.00200078693
0.000899555136
0.0051353437
0.00701849504
0.00577083743
0.000906045668
0.000784872181
0.00685036044
0.00713747765
0.00248197916
0.00099925768
0.00402972153
0.00701602057
0.00690387009
0.000835256838
0.000950549019
0.00554384957
0.00697529896
0.0056930115
0.000772621921
0.00154002481
0.00624169157
0.00647599035
0.00421464446
0.00195762654
0.00381930634
0.006062239
0.00584856729
0.00287359165
0.00247427898
0.00525355699
0.00621628846
0.00462940475
0.00185657801
0.00344959311
0.00633127557
0.006332252
0.00211644521
0.00125017375
0.00516251518
0.00648460901
0.00522350982
0.00183476688
0.00275286141
0.00584154435
0.00595626561
0.00402882745
0.00290364571
0.00427100609
0.00542915958
0.00510801713
0.00395144
0.00386362849
0.00468305739
0.00492153944
0.00459061762
0.00426472006
0.00435288925
0.00461840079
0.00462584666
0.0044852529
0.00444069547
0.00449104235
0.00453689549
0.00452622274
0.00449707569
0.00449641894
0.00450958642
0.00451071254
0.00450418359
0.00450461956
0.00451723622
0.00451611379
0.0044844818
0.00448275113
0.00454452635
0.0045603791
0.00446051155
0.00440196261
0.00454216742
0.00469910479
0.00453687907
0.00418274533
0.00431619702
0.00499198705
0.0050102942
0.00381627006
0.00366941818
0.00499275685
0.00568413438
0.00441944852
0.00257026419
0.00389989741
0.006433073
0.00635418088
0.000833042522
0.000746359007
0.00572010682
0.00694378653
0.00534065885
0.000915578007
0.00164167652
0.00699603393
0.00707502947
0.000724165608
0.000991069054
0.00513746136
0.00712527915
0.00651792473
0.000907294493
0.000939794888
0.00684390548
0.00721897601
0.000810723375
0.000969769498
0.00658786592
0.00724815653
0.00233895837
0.000982909729
0.0050541954
0.00723838325
0.00576132005
0.000943487794
0.0018615543
0.00713199506
0.00686711215
0.000928990703
0.000881381476
0.006908846
0.00695824646
0.000934560796
0.00102376148
0.00591324488
0.00743242737
0.00601385936
0.000957778208
0.00173698071
0.00707176377
0.00639425304
0.000983769233
0.000748808954
0.00700442689
0.00689007109
0.0010051099
0.00103611539
0.00610904049
0.00744120217
0.00588695598
0.000990344736
0.0012669027
0.00704030749
0.00677964162
0.00103168656
0.00105759402
0.00582151448
0.00726508041
0.00628626261
0.00103864486
0.00106774445
0.00556556285
0.00748150081
0.00723346594
0.000952074362
0.00107453272
0.0034098331
0.00681950396
0.00738341444
0.00552374557
0.000994719569
0.00244146004
0.00716981941
0.00659118468
0.0009870119
0.000880106279
0.00708229248
0.00708103763
0.000964410809
0.00100167627
0.00705317875
0.00725235054
0.000872812634
0.00102066869
0.00581536626
0.00728044931
0.00542879942
0.000988101614
0.00199769385
0.00719022867
0.00695107693
0.000953429984
0.000957611855
0.007031948
0.00715253439
0.000896575615
0.000952932765
0.00702857328
0.00712865867
0.000898549943
0.000933524505
0.00703828444
0.00715133215
0.000896802094
0.00103503808
0.00609988637
0.00725747097
0.00526888588
0.00100253348
0.00094431867
0.0067171668
0.00739506525
0.00487424977
0.00100948051
0.00091219845
0.00671018351
0.00743020625
0.00499971232
0.000958462303
0.00110622922
0.00110678971
0.00471185814
0.00685602323
0.00722670055
0.00746864398
0.00484432749
0.000965802432
0.00221396334
0.00720735995
0.0073466725
0.00287391713
0.00102169056
0.00228533844
0.00717148884
0.00723371811
0.00109372097
0.00104563413
0.0031623921
0.00716780174
0.00720225742
0.00101671236
0.00103906708
0.00364729575
0.00726288496
0.00728382269
0.00112538763
0.001031288
0.00354060373
0.00730502846
0.00733087798
0.00159769962
0.00105904079
0.00235500092
0.00631200293
0.00724503337
0.00643899152
0.00086073592
0.00112719505
0.00112862555
0.00517427728
0.00762873932
)
;

boundaryField
{
    closed
    {
        type            calculated;
        value           nonuniform List<scalar> 0();
    }
    open
    {
        type            calculated;
        value           nonuniform List<scalar> 0();
    }
    sides
    {
        type            empty;
    }
    procBoundary3to2
    {
        type            processor;
        value           uniform 0.00103872239;
    }
    procBoundary3to4
    {
        type            processor;
        value           uniform 0.00770938439;
    }
}


// ************************************************************************* //
