/*--------------------------------*- C++ -*----------------------------------*\
| =========                 |                                                 |
| \\      /  F ield         | OpenFOAM: The Open Source CFD Toolbox           |
|  \\    /   O peration     | Version:  2306                                  |
|   \\  /    A nd           | Website:  www.openfoam.com                      |
|    \\/     M anipulation  |                                                 |
\*---------------------------------------------------------------------------*/
FoamFile
{
    version     2.0;
    format      ascii;
    arch        "LSB;label=32;scalar=64";
    class       volScalarField;
    location    "0.00074";
    object      prefDh_T;
}
// * * * * * * * * * * * * * * * * * * * * * * * * * * * * * * * * * * * * * //

dimensions      [1 1 -3 -1 0 0 0];

internalField   nonuniform List<scalar> 
531
(
-0.00074290197
-0.000562827212
-0.000504414908
-0.000590938999
-0.000744573697
-0.000741824368
-0.000553385531
-0.000497627182
-0.000594768249
-0.000737338148
-0.000627661743
-0.000519341856
-0.000589319437
-0.000744055964
-0.000615217028
-0.000528249363
-0.000591437318
-0.000749807142
-0.000746480616
-0.000566245955
-0.000497637334
-0.000590244001
-0.000748430968
-0.000741538987
-0.000550655468
-0.00043304945
-0.000588374142
-0.00074097969
-0.000756184843
-0.000735220517
-0.000753962536
-0.000736284879
-0.000590242276
-0.000543136237
-0.000558763662
-0.000543897908
-0.000520180389
-0.000589403528
-0.000750063517
-0.000751069461
-0.000590752459
-0.00051018912
-0.000585289994
-0.00073749266
-0.000750742937
-0.000628573664
-0.000537302763
-0.000504260591
-0.000606962545
-0.000739767967
-0.00063748756
-0.000500168449
-0.000499684481
-0.00073886256
-0.000748414909
-0.000595832182
-0.000544349926
-0.000497204718
-0.000587295384
-0.000736670113
-0.000752102376
-0.000741497052
-0.000748180806
-0.000595832794
-0.000569317324
-0.000553055431
-0.000493358719
-0.000553654296
-0.000732548193
-0.00074737982
-0.000611876714
-0.000534099963
-0.000550748449
-0.000729443455
-0.00074759372
-0.000595486281
-0.000529654324
-0.000664693499
-0.000742628781
-0.00067372738
-0.000592426786
-0.000472340224
-0.000512737244
-0.000726705568
-0.000744173469
-0.000594784338
-0.000507698065
-0.000536751931
-0.000728041773
-0.000745548951
-0.000595944897
-0.000521832879
-0.000558725221
-0.000728657302
-0.000746142676
-0.000596681788
-0.000512417909
-0.000537041981
-0.000728582315
-0.000747030898
-0.000593903924
-0.000519553428
-0.000564821989
-0.00072765548
-0.000746695034
-0.000599860994
-0.000519892848
-0.000539748532
-0.000728743752
-0.000746725816
-0.000591976916
-0.00050616131
-0.000537861502
-0.000723642541
-0.000749749827
-0.000600442821
-0.000603466149
-0.00059852453
-0.000599802953
-0.000597141447
-0.000680236905
-0.000741681767
-0.000599618874
-0.000528027242
-0.000576607245
-0.000721690235
-0.000730216877
-0.000579304294
-0.000553779147
-0.000702094796
-0.000745141555
-0.000586759588
-0.000503698317
-0.000579385277
-0.000725427718
-0.000661372146
-0.000564425547
-0.000553262732
-0.000699071306
-0.000745616878
-0.00059510014
-0.00051440814
-0.000553659484
-0.00071376599
-0.000729163966
-0.00060134275
-0.000563461503
-0.000677908929
-0.000744204559
-0.00060847413
-0.00052692967
-0.000516827522
-0.000680750573
-0.000742905055
-0.000610287678
-0.000532362557
-0.000522602227
-0.000679725979
-0.000743175455
-0.000611766704
-0.000540132774
-0.000534207893
-0.000685110032
-0.000745075128
-0.000607060533
-0.000571738884
-0.000530954185
-0.000594674522
-0.000717537948
-0.000746043489
-0.000594088612
-0.000524564441
-0.000573995842
-0.000709098865
-0.000743640133
-0.000587283915
-0.000517957717
-0.000582453226
-0.000726476051
-0.000646124904
-0.000560785345
-0.000537615139
-0.000655426488
-0.000743196031
-0.000620923645
-0.000544545723
-0.000528500035
-0.000663554818
-0.000742298564
-0.000599874909
-0.00053540636
-0.000593045534
-0.000726950449
-0.000734932146
-0.000591913558
-0.000588983962
-0.000589287655
-0.000639051267
-0.000613048615
-0.000588819154
-0.000587872279
-0.000596245096
-0.000601032089
-0.000592359482
-0.000588421196
-0.000589562017
-0.000592875274
-0.000592880891
-0.000590864018
-0.000590500016
-0.000591071069
-0.000591506671
-0.000591384447
-0.000591103684
-0.000591093455
-0.000591206079
-0.000591236819
-0.000591206851
-0.000591181635
-0.000591185324
-0.000591197526
-0.000591198404
-0.000591194735
-0.000591193303
-0.000591194031
-0.000591194798
-0.000591194748
-0.000591194463
-0.000591194435
-0.0005911945
-0.000591194515
-0.00059119448
-0.000591194474
-0.000591194591
-0.000591194623
-0.000591194271
-0.000591194071
-0.000591194959
-0.000591195821
-0.000591193895
-0.000591190802
-0.000591194315
-0.000591204123
-0.000591199649
-0.000591171177
-0.000591171902
-0.000591247148
-0.000591254454
-0.000591103188
-0.000591053501
-0.00059133069
-0.000591518908
-0.000591060624
-0.000590570007
-0.000591167523
-0.000592548621
-0.000591854972
-0.000589233664
-0.000589383172
-0.000595594492
-0.000596387169
-0.000587849809
-0.000587053847
-0.000595531936
-0.000609918239
-0.000591290121
-0.000591733414
-0.000587577597
-0.000641914323
-0.000633356508
-0.000607696623
-0.000586142518
-0.000661718951
-0.000742588606
-0.000587719626
-0.000540386156
-0.000592730581
-0.000733472232
-0.000720053426
-0.000559863262
-0.000525948588
-0.000643093549
-0.000740273406
-0.000603244421
-0.000540440965
-0.000553705498
-0.000741963191
-0.000743471351
-0.000590418529
-0.00054570254
-0.000592923465
-0.000728233607
-0.000680358067
-0.000603571406
-0.000603890424
-0.000596976862
-0.000663012737
-0.000604123984
-0.000597507261
-0.000592331122
-0.000629795819
-0.000643458413
-0.000586827102
-0.000601498325
-0.00059029979
-0.000667132153
-0.000613071781
-0.000604754856
-0.000604310224
-0.000656943988
-0.000693301327
-0.000587381018
-0.000602996769
-0.000587617531
-0.000668119154
-0.000633743171
-0.000592243322
-0.000593122469
-0.000599516585
-0.000628793724
-0.000594972366
-0.000587470619
-0.000586634893
-0.000600842119
-0.000602555939
-0.000589333361
-0.000587365408
-0.000590247091
-0.000594833974
-0.000593398017
-0.000589888174
-0.000589783974
-0.000591495706
-0.000592096613
-0.000591410215
-0.000590820168
-0.000590952373
-0.000591327011
-0.00059133494
-0.000591163456
-0.000591148702
-0.00059123325
-0.000591227471
-0.000591065446
-0.000591079923
-0.000591493418
-0.000591517985
-0.000590724191
-0.000590537815
-0.000591818595
-0.00059266566
-0.00059076115
-0.000589071187
-0.000590858556
-0.000596278965
-0.000594071435
-0.000587086426
-0.00058715349
-0.000603580821
-0.000607316414
-0.00058699383
-0.000590372574
-0.000592804384
-0.000640100665
-0.00060280531
-0.000608922207
-0.00060883668
-0.0007134147
-0.000719895541
-0.00059168779
-0.000549503927
-0.000590736914
-0.00073127538
-0.000675467602
-0.000542829381
-0.000533412358
-0.000719620968
-0.00074054013
-0.000594464453
-0.000527492583
-0.000599008751
-0.000724800143
-0.00074445514
-0.00056065245
-0.000516135368
-0.000712196672
-0.000737809339
-0.000590699587
-0.000512593041
-0.000648401651
-0.000733903493
-0.000591551115
-0.000513780125
-0.000591472424
-0.000730850362
-0.000666589123
-0.000526467945
-0.000558456318
-0.000734642333
-0.000743470846
-0.000552275774
-0.000547412526
-0.000738809902
-0.000742016566
-0.000589143902
-0.000490273422
-0.000592257643
-0.000737495155
-0.000672153956
-0.000533520524
-0.000609890937
-0.000739952773
-0.000722196315
-0.000541065493
-0.000555537731
-0.000749375837
-0.000745385546
-0.000589775283
-0.00048923505
-0.0005924935
-0.00074080421
-0.000692544617
-0.000536969258
-0.000568228711
-0.000750182749
-0.00074671182
-0.000589794082
-0.000510315682
-0.000595859529
-0.00074716476
-0.000746030323
-0.000593651121
-0.000484355323
-0.000514030153
-0.00074373563
-0.000744571103
-0.000616776349
-0.000562082178
-0.00049620241
-0.000589079654
-0.000737620833
-0.000644646333
-0.000521950827
-0.000590776995
-0.000738122584
-0.000740786237
-0.000532380784
-0.000532803311
-0.000736417718
-0.000743029983
-0.000535795156
-0.000511920143
-0.000744941995
-0.00074010991
-0.000593142146
-0.000508647397
-0.000590208925
-0.000736207037
-0.000661197722
-0.00051949892
-0.000548178357
-0.000737076889
-0.00074552582
-0.000538355441
-0.00052410382
-0.000731473116
-0.000742245775
-0.000538768088
-0.000527067311
-0.000731424482
-0.000742498901
-0.000537458736
-0.000524161632
-0.000736896226
-0.000743581852
-0.000593824229
-0.000511327842
-0.00058894687
-0.000739104715
-0.000747950545
-0.000573844274
-0.000494783561
-0.00059116806
-0.000737012009
-0.000740855434
-0.000574245134
-0.000490412641
-0.000585808368
-0.000735577519
-0.000751073331
-0.000744622825
-0.000594286435
-0.000559023807
-0.000514625331
-0.000485872027
-0.000588307349
-0.000730332399
-0.000652656189
-0.000517425384
-0.000500652726
-0.000629570791
-0.000732109257
-0.000649902214
-0.000521908568
-0.000514321603
-0.000701740382
-0.000734833023
-0.000623842939
-0.000522324899
-0.000518064932
-0.000705234323
-0.000736059078
-0.000612943537
-0.000510811263
-0.000508211563
-0.000700210561
-0.000736041345
-0.000614517428
-0.000505701218
-0.000502467229
-0.000678843786
-0.000746564981
-0.000647444011
-0.000590118839
-0.000513031739
-0.00059528106
-0.000728279884
-0.000750761228
-0.000739532092
-0.000591548996
-0.000466254174
)
;

boundaryField
{
    closed
    {
        type            calculated;
        value           nonuniform List<scalar> 0();
    }
    open
    {
        type            calculated;
        value           nonuniform List<scalar> 0();
    }
    sides
    {
        type            empty;
    }
    procBoundary3to2
    {
        type            processor;
        value           uniform -0.000745679109;
    }
    procBoundary3to4
    {
        type            processor;
        value           uniform -0.000456947192;
    }
}


// ************************************************************************* //
