/*--------------------------------*- C++ -*----------------------------------*\
| =========                 |                                                 |
| \\      /  F ield         | OpenFOAM: The Open Source CFD Toolbox           |
|  \\    /   O peration     | Version:  2306                                  |
|   \\  /    A nd           | Website:  www.openfoam.com                      |
|    \\/     M anipulation  |                                                 |
\*---------------------------------------------------------------------------*/
FoamFile
{
    version     2.0;
    format      ascii;
    arch        "LSB;label=32;scalar=64";
    class       volScalarField;
    location    "0.0006";
    object      rho;
}
// * * * * * * * * * * * * * * * * * * * * * * * * * * * * * * * * * * * * * //

dimensions      [1 -3 0 0 0 0 0];

internalField   nonuniform List<scalar> 
530
(
0.93977288
0.959286115
0.94556998
0.902203599
0.904554867
0.940320174
0.95935274
0.94152742
0.902872235
0.9031201
0.904691156
0.936449276
0.94856201
0.958907658
0.94986894
0.901858901
0.904834826
0.938898446
0.961460568
0.948638765
0.903350307
0.90308899
0.923595455
0.942753275
0.962877036
0.949823716
0.901979776
0.904244892
0.937738047
0.959913789
0.941578323
0.902516201
0.902314065
0.904406493
0.937955992
0.950455719
0.95758103
0.954770322
0.901228171
0.904011721
0.937666453
0.96074005
0.952401479
0.90291991
0.902310634
0.946394003
0.950188139
0.902660147
0.902535129
0.94844737
0.951586515
0.902878664
0.902562306
0.948387188
0.950049894
0.901960356
0.903712536
0.937677021
0.961420285
0.95202014
0.903554882
0.902513732
0.946854838
0.949377297
0.902640006
0.903999862
0.937835485
0.962031631
0.951125796
0.904114947
0.902919049
0.949065081
0.95131598
0.904448143
0.903635006
0.948624825
0.949266923
0.90324524
0.904336537
0.938493657
0.961903211
0.94734567
0.904808268
0.905428187
0.950095745
0.944905784
0.903548915
0.904096138
0.939332133
0.961342502
0.940577653
0.905075769
0.922635325
0.950953236
0.939705125
0.904037639
0.90350872
0.940504872
0.960846658
0.93994254
0.904787009
0.903961029
0.941098989
0.963776454
0.937109008
0.904433708
0.938503334
0.948160245
0.92715952
0.904406376
0.919940698
0.948468922
0.956753159
0.930824641
0.904540603
0.922677151
0.950377034
0.956137943
0.928379017
0.904434908
0.924514492
0.950089537
0.954777879
0.926833559
0.904329462
0.92324367
0.948263683
0.953296899
0.925930734
0.904332364
0.924476748
0.949182534
0.95479791
0.923585803
0.903309446
0.938201138
0.947422112
0.927286373
0.904309066
0.922992512
0.948719002
0.955159712
0.928183736
0.904484885
0.925558272
0.950200251
0.956528791
0.9275958
0.903673573
0.937463717
0.946934872
0.929378469
0.9048092
0.924158951
0.949118372
0.955658021
0.928892671
0.905135012
0.926858251
0.950847478
0.954487218
0.920859566
0.904102509
0.937495064
0.947369792
0.930979904
0.905838225
0.926279127
0.95062756
0.9568142
0.929775012
0.906431414
0.928084119
0.951786375
0.957946423
0.928128324
0.90613973
0.938576638
0.953012478
0.932812739
0.906854548
0.93927252
0.955507766
0.933539697
0.906934968
0.939498989
0.953963988
0.932094785
0.906666038
0.939460024
0.951431774
0.931689659
0.907254383
0.929877128
0.955193562
0.960833094
0.927555428
0.906147493
0.939755304
0.950916011
0.928414077
0.906200286
0.940120834
0.951160156
0.92956372
0.906894441
0.929895694
0.955829188
0.960887188
0.92552645
0.905992047
0.940661151
0.951110327
0.925715753
0.906359008
0.940939844
0.951330738
0.927590856
0.906935124
0.930905575
0.95699583
0.960491209
0.921979587
0.906335399
0.941365105
0.95120722
0.925471045
0.906971306
0.931609979
0.957378391
0.959296149
0.917434248
0.906827134
0.941550481
0.950444248
0.921989965
0.906920893
0.931736098
0.956260047
0.958546792
0.919167645
0.906634442
0.934022325
0.958186354
0.955443802
0.910352181
0.909443673
0.945595279
0.949011172
0.913689412
0.906401932
0.933076156
0.9574944
0.958446754
0.914878439
0.906930195
0.935054201
0.958214522
0.956818517
0.910659781
0.906872176
0.937946113
0.960257361
0.947027757
0.910802988
0.906674647
0.941935228
0.963284968
0.942555009
0.909942027
0.908317711
0.944229378
0.965137004
0.941008711
0.909751453
0.938740072
0.952826693
0.937935062
0.909188014
0.911436784
0.948414194
0.965460046
0.941820138
0.910061786
0.908710497
0.944772257
0.964770691
0.940639533
0.910255241
0.913227861
0.949326125
0.962348059
0.937809339
0.909178025
0.926867168
0.943941962
0.953708056
0.942564058
0.909735988
0.928761485
0.942825152
0.942992613
0.936765134
0.936023624
0.940373762
0.941077441
0.93963198
0.938983742
0.939478985
0.939843083
0.939739489
0.939584778
0.939583852
0.939626325
0.939621423
0.939605569
0.939597953
0.939595952
0.939595404
0.939596161
0.939599061
0.939603879
0.939610332
0.939618761
0.939629708
0.939642868
0.939656896
0.939671531
0.939688129
0.939706867
0.939724533
0.939739744
0.93975539
0.939773144
0.939789295
0.939799363
0.939805545
0.939814945
0.93982711
0.939830584
0.93982351
0.939820081
0.939821946
0.939818378
0.939803647
0.939784692
0.939770464
0.939756283
0.939731348
0.939698767
0.939670816
0.939642634
0.939590635
0.939518392
0.939506355
0.939545183
0.939414502
0.939029558
0.939134415
0.93992737
0.939679554
0.937078756
0.93707949
0.941381682
0.941450243
0.931846579
0.929993813
0.941003466
0.946871792
0.91936776
0.906080655
0.9421129
0.960283097
0.920025394
0.906616525
0.939386185
0.95827286
0.917366341
0.905086711
0.939034901
0.9574576
0.915486377
0.904557061
0.938732126
0.953653011
0.912822915
0.90481176
0.934054801
0.95546481
0.956303368
0.915354587
0.903261759
0.936410641
0.952931269
0.914259339
0.901744321
0.93583499
0.954612314
0.914480943
0.900949275
0.934368675
0.949238917
0.911536856
0.899993465
0.92853223
0.948919392
0.951279827
0.914757294
0.898868195
0.931995165
0.948825746
0.91568135
0.898293962
0.932473034
0.948059318
0.917019796
0.898712833
0.932416619
0.947001528
0.917086545
0.899753901
0.921735861
0.946206938
0.95251716
0.9202209
0.899667455
0.932659292
0.946155245
0.919550289
0.900594734
0.921503578
0.946285118
0.953596369
0.922978312
0.900744799
0.933527628
0.946905472
0.922172492
0.901632051
0.920660922
0.94538838
0.953519651
0.924700915
0.901638469
0.934222162
0.947658569
0.924199517
0.902343495
0.918870541
0.944953599
0.95404835
0.926502765
0.903278549
0.917630463
0.944975295
0.954785302
0.927828015
0.903773604
0.917724456
0.944932656
0.954847592
0.928691808
0.904295644
0.91952161
0.946517518
0.956295911
0.930044996
0.90486863
0.920248669
0.948585985
0.958457072
0.931559461
0.90459886
0.935871961
0.949940711
0.928294018
0.904990506
0.923114599
0.94909935
0.95790799
0.931901825
0.904820098
0.935997747
0.95215017
0.932484332
0.904547544
0.936813967
0.953442841
0.932498843
0.904660433
0.937354645
0.951763578
0.929753087
0.904891817
0.917737973
0.946854438
0.955772532
0.933881588
0.904876289
0.910331208
0.938378686
0.95864151
0.959292695
0.933050543
0.904724266
0.930083204
0.950547558
0.947410029
0.909015091
0.90382485
0.91112868
0.947261046
0.965100582
0.937533341
0.904458183
0.936665839
0.9529697
0.933354174
0.904121586
0.914589182
0.946324708
0.957751496
0.936425799
0.904461455
0.90412133
0.941409092
0.956701536
0.936452946
0.904705035
0.907025106
)
;

boundaryField
{
    closed
    {
        type            calculated;
        value           nonuniform List<scalar> 0();
    }
    open
    {
        type            calculated;
        value           nonuniform List<scalar> 0();
    }
    sides
    {
        type            empty;
    }
    procBoundary2to1
    {
        type            processor;
        value           uniform 0.90468159;
    }
    procBoundary2to3
    {
        type            processor;
        value           uniform 0.947622083;
    }
}


// ************************************************************************* //
