/*--------------------------------*- C++ -*----------------------------------*\
| =========                 |                                                 |
| \\      /  F ield         | OpenFOAM: The Open Source CFD Toolbox           |
|  \\    /   O peration     | Version:  2306                                  |
|   \\  /    A nd           | Website:  www.openfoam.com                      |
|    \\/     M anipulation  |                                                 |
\*---------------------------------------------------------------------------*/
FoamFile
{
    version     2.0;
    format      ascii;
    arch        "LSB;label=32;scalar=64";
    class       volScalarField;
    location    "0.00038";
    object      mu;
}
// * * * * * * * * * * * * * * * * * * * * * * * * * * * * * * * * * * * * * //

dimensions      [1 -1 -1 0 0 0 0];

internalField   nonuniform List<scalar> 
531
(
2.02421425e-05
1.99994841e-05
1.96732356e-05
1.97409627e-05
2.02396548e-05
1.99801928e-05
1.96475893e-05
1.97374176e-05
2.02372096e-05
1.99616131e-05
1.96516392e-05
1.97371249e-05
2.02407631e-05
1.9901746e-05
1.9759476e-05
1.98186318e-05
1.98607145e-05
1.96822736e-05
1.97355708e-05
2.02386568e-05
1.98975273e-05
1.96707364e-05
1.97614073e-05
2.02432286e-05
2.00853212e-05
1.97227479e-05
1.95239563e-05
1.97597898e-05
2.02396547e-05
2.01927007e-05
1.97719221e-05
1.97855142e-05
1.96937694e-05
1.96565211e-05
1.98115513e-05
2.02632076e-05
1.9869166e-05
1.97309217e-05
1.98226264e-05
2.0267067e-05
2.00422102e-05
1.96738108e-05
1.9468784e-05
1.97667609e-05
2.02520172e-05
1.98396639e-05
1.96781137e-05
1.98265006e-05
2.02601883e-05
2.00483768e-05
1.9673593e-05
1.9471121e-05
1.97787514e-05
2.02530032e-05
1.98182934e-05
1.96681654e-05
1.97730689e-05
2.02521957e-05
2.03053982e-05
1.98327352e-05
1.96631547e-05
1.95271875e-05
1.95066586e-05
1.98527573e-05
2.02556547e-05
1.9998971e-05
1.97521178e-05
1.96610121e-05
1.99694369e-05
2.02765289e-05
1.99335335e-05
1.96079247e-05
1.95668134e-05
2.01435047e-05
2.00744288e-05
1.96413683e-05
1.97478595e-05
2.02403352e-05
2.00695339e-05
1.96632952e-05
1.95782359e-05
2.0014077e-05
2.0273993e-05
1.97590358e-05
1.9529344e-05
1.98917773e-05
2.02652634e-05
1.97693426e-05
1.95041089e-05
1.98441171e-05
2.02632617e-05
1.97696821e-05
1.96114354e-05
1.99570898e-05
2.02616597e-05
1.97566857e-05
1.95353311e-05
1.99200787e-05
2.02708714e-05
1.97764021e-05
1.95343124e-05
1.98927856e-05
2.0259473e-05
1.98833755e-05
1.95839812e-05
1.95139611e-05
1.99592262e-05
2.02794289e-05
1.97791365e-05
1.95346891e-05
1.99103691e-05
2.02788268e-05
1.97725285e-05
1.95642879e-05
1.9951226e-05
2.02704593e-05
1.98742166e-05
1.95769898e-05
1.95238982e-05
1.99391983e-05
2.0264361e-05
1.98963034e-05
1.9596077e-05
1.95436673e-05
2.00059278e-05
2.02851326e-05
1.97772427e-05
1.95214191e-05
1.99724778e-05
2.02852733e-05
1.97731727e-05
1.9565952e-05
2.00268232e-05
2.02722198e-05
1.98465873e-05
1.95288926e-05
1.94913091e-05
1.99868528e-05
2.0282671e-05
1.97843072e-05
1.95944765e-05
2.00875969e-05
2.02768014e-05
1.98401875e-05
1.95206389e-05
1.9492376e-05
2.00216179e-05
2.02848663e-05
1.97859428e-05
1.95737501e-05
2.01123857e-05
2.02760738e-05
1.98382977e-05
1.9506458e-05
1.94871856e-05
2.00463223e-05
2.02859838e-05
1.97891939e-05
1.95725991e-05
2.01458588e-05
2.02762368e-05
1.98323051e-05
1.94913874e-05
1.94834405e-05
2.0071394e-05
2.02897765e-05
1.97931982e-05
1.95908538e-05
2.01781595e-05
2.02791549e-05
1.98347797e-05
1.95100319e-05
1.95058928e-05
2.01503414e-05
2.02747547e-05
1.98400477e-05
1.94973399e-05
1.94995209e-05
2.01351947e-05
2.02918459e-05
1.97989502e-05
1.96028005e-05
2.022093e-05
2.02790052e-05
1.98094433e-05
1.94581336e-05
1.94610079e-05
2.01767098e-05
2.02922365e-05
1.98010816e-05
1.95884968e-05
2.02261846e-05
2.02770141e-05
1.98080199e-05
1.9452467e-05
1.94561265e-05
2.01997335e-05
2.02900385e-05
1.98017394e-05
1.95897756e-05
2.02310577e-05
2.02741698e-05
1.97999907e-05
1.94328081e-05
1.94380936e-05
2.020799e-05
2.02966841e-05
1.98062505e-05
1.95776655e-05
2.02296511e-05
2.02966965e-05
1.97976102e-05
1.95826526e-05
2.02409908e-05
2.02809805e-05
1.9792066e-05
1.94255865e-05
1.94281224e-05
2.02311257e-05
2.02916695e-05
1.97977428e-05
1.96085014e-05
2.02439899e-05
2.02794267e-05
1.97951735e-05
1.94375292e-05
1.94374904e-05
2.02371316e-05
2.02898774e-05
1.97966226e-05
1.96052394e-05
2.02473513e-05
2.02730985e-05
1.97963572e-05
1.94338487e-05
1.94422758e-05
2.02230649e-05
2.02904656e-05
1.97788801e-05
1.95449867e-05
2.02270078e-05
2.02920701e-05
1.97083655e-05
1.95012605e-05
2.02246346e-05
2.02916048e-05
1.9674275e-05
1.94736182e-05
2.02238865e-05
2.02911438e-05
1.96773935e-05
1.9489965e-05
2.02281447e-05
2.02914703e-05
1.96941538e-05
1.9510259e-05
2.02380841e-05
2.02892184e-05
1.97382122e-05
1.95420905e-05
2.02524016e-05
2.02751924e-05
1.97906959e-05
1.94062046e-05
1.94127e-05
2.02450431e-05
2.02879775e-05
1.97921658e-05
1.95970371e-05
2.02605251e-05
2.02778137e-05
1.97949835e-05
1.94277732e-05
1.94268862e-05
2.02562892e-05
2.02901625e-05
1.97879412e-05
1.95941448e-05
2.02649815e-05
2.02763145e-05
1.9793298e-05
1.94136723e-05
1.94200732e-05
2.02475163e-05
2.02955644e-05
1.97518989e-05
1.95563701e-05
2.02572541e-05
2.02939859e-05
1.9738668e-05
1.95562761e-05
2.02656094e-05
2.0279668e-05
1.97928336e-05
1.94087846e-05
1.94132892e-05
2.02533712e-05
2.02884262e-05
1.97803204e-05
1.95787598e-05
2.02649982e-05
2.02765147e-05
1.98014909e-05
1.94205404e-05
1.94256955e-05
2.02517705e-05
2.02876129e-05
1.97611111e-05
1.95695062e-05
2.02635937e-05
2.02753484e-05
1.98194878e-05
1.9421545e-05
1.94252896e-05
2.02498644e-05
2.02862347e-05
1.97357865e-05
1.95535834e-05
2.02599954e-05
2.02745164e-05
1.98372694e-05
1.9418507e-05
1.94145948e-05
2.02528466e-05
2.028443e-05
1.97221451e-05
1.95488365e-05
2.02580366e-05
2.02741357e-05
1.98417112e-05
1.94195193e-05
1.94212056e-05
2.02478228e-05
2.02886914e-05
1.97212527e-05
1.95463545e-05
2.02629438e-05
2.02843153e-05
1.9799927e-05
1.9496607e-05
1.94929832e-05
2.02651823e-05
2.02837045e-05
1.97907949e-05
1.95122564e-05
1.96788598e-05
2.02661518e-05
2.02956748e-05
1.95826612e-05
1.95951034e-05
2.02514561e-05
2.01669458e-05
1.95495225e-05
1.96814079e-05
2.02567156e-05
2.03017554e-05
1.95964792e-05
1.94392665e-05
2.02403831e-05
2.02814007e-05
1.97389693e-05
1.94893056e-05
2.02655569e-05
2.02814207e-05
1.97792815e-05
1.94939069e-05
1.96389586e-05
2.02485062e-05
2.03011676e-05
1.96081385e-05
1.94279994e-05
2.02311265e-05
2.02848591e-05
1.96921477e-05
1.9497705e-05
2.02381386e-05
2.02930842e-05
1.96725706e-05
1.94978258e-05
2.02469097e-05
2.02927461e-05
1.97059092e-05
1.95202125e-05
2.02581901e-05
2.02819779e-05
1.98020709e-05
1.94613554e-05
1.94587778e-05
2.02589752e-05
2.02792296e-05
1.98275568e-05
1.94852937e-05
1.94850937e-05
2.02601178e-05
2.0283016e-05
1.9849753e-05
1.95425628e-05
1.95397569e-05
2.0259076e-05
2.02950369e-05
1.98491652e-05
1.97633255e-05
1.95258074e-05
1.95298439e-05
2.02537483e-05
2.02829176e-05
1.98965582e-05
1.95279227e-05
1.95222416e-05
2.02618616e-05
2.02810879e-05
1.98263994e-05
1.94975391e-05
1.94980445e-05
2.02646758e-05
2.02799389e-05
1.98149386e-05
1.94589791e-05
1.94620579e-05
2.02640548e-05
2.02940637e-05
1.97702436e-05
1.96015421e-05
2.02782822e-05
2.02857203e-05
1.97871655e-05
1.94261552e-05
1.94267864e-05
2.02695145e-05
2.02935991e-05
1.97708243e-05
1.95865758e-05
2.02794387e-05
2.02837186e-05
1.97868338e-05
1.94277861e-05
1.94311947e-05
2.02694069e-05
2.02938844e-05
1.97723885e-05
1.95888574e-05
2.02799176e-05
2.02859232e-05
1.97917699e-05
1.94588762e-05
1.94572263e-05
2.02785688e-05
2.02788639e-05
1.98075911e-05
1.94750833e-05
1.94756503e-05
2.02754839e-05
2.0293807e-05
1.97710377e-05
1.95788014e-05
2.02880415e-05
2.02878313e-05
1.97933332e-05
1.946303e-05
1.94627103e-05
2.02835634e-05
2.02791005e-05
1.98394688e-05
1.95008901e-05
1.9501209e-05
2.02831202e-05
2.02921675e-05
1.98366385e-05
1.97653843e-05
1.95177393e-05
1.95211687e-05
2.0280329e-05
2.02924447e-05
1.97755292e-05
1.95977527e-05
2.02927801e-05
2.02752738e-05
1.98017319e-05
1.9435531e-05
1.94405272e-05
2.02746055e-05
2.02919194e-05
1.9655885e-05
1.94771207e-05
2.02766326e-05
2.02960257e-05
1.96104363e-05
1.94966196e-05
2.02825971e-05
2.0292025e-05
1.96640885e-05
1.95447591e-05
2.0295411e-05
2.0277287e-05
1.97904786e-05
1.94250391e-05
1.94334576e-05
2.02988691e-05
2.02699295e-05
1.98285024e-05
1.9446588e-05
1.94558018e-05
2.03017036e-05
2.02704669e-05
1.98319526e-05
1.94491283e-05
1.94641867e-05
2.03073862e-05
2.02698649e-05
1.98246407e-05
1.94233674e-05
1.94475564e-05
2.0302943e-05
2.02860291e-05
1.97175448e-05
1.956449e-05
2.03120508e-05
2.02728927e-05
1.97858944e-05
1.92581172e-05
1.93377195e-05
2.03020079e-05
2.02740058e-05
2.02758416e-05
1.96966619e-05
1.94653702e-05
2.03037503e-05
2.0285108e-05
1.9576049e-05
1.94964574e-05
2.02970668e-05
)
;

boundaryField
{
    closed
    {
        type            calculated;
        value           nonuniform List<scalar> 0();
    }
    open
    {
        type            calculated;
        value           nonuniform List<scalar> 0();
    }
    sides
    {
        type            empty;
    }
    procBoundary3to2
    {
        type            processor;
        value           uniform 1.97472544e-05;
    }
    procBoundary3to4
    {
        type            processor;
        value           uniform 2.02895023e-05;
    }
}


// ************************************************************************* //
