/*--------------------------------*- C++ -*----------------------------------*\
| =========                 |                                                 |
| \\      /  F ield         | OpenFOAM: The Open Source CFD Toolbox           |
|  \\    /   O peration     | Version:  2306                                  |
|   \\  /    A nd           | Website:  www.openfoam.com                      |
|    \\/     M anipulation  |                                                 |
\*---------------------------------------------------------------------------*/
FoamFile
{
    version     2.0;
    format      ascii;
    arch        "LSB;label=32;scalar=64";
    class       volScalarField;
    location    "0.0009";
    object      mu;
}
// * * * * * * * * * * * * * * * * * * * * * * * * * * * * * * * * * * * * * //

dimensions      [1 -1 -1 0 0 0 0];

internalField   nonuniform List<scalar> 
531
(
2.02776062e-05
2.02966485e-05
1.97585985e-05
1.95484728e-05
1.95498474e-05
2.02718207e-05
2.02957971e-05
1.9763642e-05
1.95706291e-05
1.95723062e-05
2.0262972e-05
2.03016528e-05
1.9778752e-05
1.96699774e-05
2.02718822e-05
2.02968509e-05
1.97636308e-05
1.96085657e-05
1.96346876e-05
1.94936182e-05
1.94970132e-05
2.02491295e-05
2.02936243e-05
2.02734723e-05
2.02934303e-05
1.97661143e-05
1.94831411e-05
1.94817305e-05
2.02694943e-05
2.02871147e-05
1.97571168e-05
1.94517184e-05
1.94569386e-05
2.02521043e-05
2.03022418e-05
1.97155381e-05
1.95619308e-05
2.0251655e-05
2.03022537e-05
1.96700039e-05
1.95797838e-05
2.02575868e-05
2.03034023e-05
2.02879316e-05
1.97553705e-05
1.94369271e-05
1.9440001e-05
2.02618626e-05
2.02870898e-05
1.97561424e-05
1.94693965e-05
1.94744285e-05
2.02499674e-05
2.0303061e-05
1.97827519e-05
1.96162486e-05
2.02511986e-05
2.03020227e-05
1.97889233e-05
1.96501918e-05
2.02582931e-05
2.02979079e-05
1.97723323e-05
1.96562201e-05
1.95560177e-05
1.95550312e-05
2.02671052e-05
2.02839985e-05
1.97592983e-05
1.95018763e-05
1.95068357e-05
2.02458541e-05
2.03062865e-05
1.9766634e-05
1.96038062e-05
2.02492474e-05
2.03068764e-05
1.97281107e-05
1.96225509e-05
2.0256444e-05
2.03059832e-05
2.02870655e-05
1.97551766e-05
1.95086718e-05
1.95093912e-05
2.02575008e-05
2.02973675e-05
1.97667495e-05
1.95826325e-05
1.96319775e-05
1.94880976e-05
1.94923409e-05
2.02533681e-05
2.02923521e-05
2.02904839e-05
1.97710774e-05
1.95924697e-05
2.02627604e-05
2.02881439e-05
1.97632057e-05
1.9504057e-05
1.95098405e-05
2.02445914e-05
2.02988715e-05
1.97853896e-05
1.9586262e-05
2.02590207e-05
2.02869204e-05
1.97615321e-05
1.94620335e-05
1.94647074e-05
2.02436005e-05
2.03023232e-05
1.97369832e-05
1.95589207e-05
2.02404713e-05
2.03026998e-05
1.97003396e-05
1.95801155e-05
2.02460028e-05
2.03030754e-05
2.02787118e-05
1.97558672e-05
1.94856727e-05
1.94870536e-05
2.02487115e-05
2.02862516e-05
1.97720613e-05
1.94990767e-05
1.95010237e-05
2.02562953e-05
2.02822464e-05
1.97645961e-05
1.94574853e-05
1.94648157e-05
2.0239401e-05
2.03019125e-05
1.97501699e-05
1.9557984e-05
2.02418573e-05
2.0304065e-05
1.97465511e-05
1.95771439e-05
2.02457638e-05
2.03016576e-05
1.97834105e-05
1.96066024e-05
2.02580093e-05
2.02881536e-05
1.97664016e-05
1.95618426e-05
1.95612092e-05
2.02546167e-05
2.03059727e-05
1.97807333e-05
1.96815594e-05
1.95825513e-05
1.9579743e-05
2.02573211e-05
2.03042376e-05
1.97859539e-05
1.97159523e-05
2.02549866e-05
1.97712671e-05
1.95260796e-05
2.02541218e-05
2.02971515e-05
1.97829466e-05
1.96292017e-05
2.02633314e-05
2.02945496e-05
1.97649256e-05
1.95503136e-05
1.95531726e-05
2.02626959e-05
2.02957433e-05
1.97666095e-05
1.95452219e-05
1.9542963e-05
2.02621461e-05
2.03045072e-05
1.97781068e-05
1.96233799e-05
2.02697329e-05
2.02933586e-05
1.97590228e-05
1.95165144e-05
1.9519481e-05
2.02572547e-05
2.03102491e-05
1.97813753e-05
1.96069349e-05
2.02666717e-05
2.02991619e-05
1.97650125e-05
1.95366314e-05
1.95350807e-05
2.02745215e-05
2.02925097e-05
1.97631088e-05
1.95568512e-05
1.95552557e-05
2.0261493e-05
2.03098802e-05
1.97839945e-05
1.9670111e-05
2.02637436e-05
2.03094419e-05
1.97766488e-05
1.96920846e-05
1.95855136e-05
1.95872736e-05
2.02625306e-05
2.03034835e-05
1.97785433e-05
1.96439149e-05
2.02716168e-05
2.02920691e-05
1.9764505e-05
1.95435384e-05
1.95453479e-05
2.02677746e-05
2.02951935e-05
1.97686533e-05
1.95321736e-05
1.95329177e-05
2.02739247e-05
2.02873582e-05
1.97637757e-05
1.95293051e-05
1.95312952e-05
2.02599272e-05
2.03018353e-05
1.97846966e-05
1.96183948e-05
2.02675873e-05
2.02903811e-05
1.97698817e-05
1.95247091e-05
1.95228048e-05
2.02741362e-05
2.02844174e-05
1.9763202e-05
1.94758389e-05
1.94812536e-05
2.02547626e-05
2.03033197e-05
1.97396881e-05
1.95546305e-05
2.02541833e-05
2.03046372e-05
1.96952457e-05
1.95399917e-05
2.02541841e-05
2.030436e-05
1.96765731e-05
1.95280308e-05
2.02554228e-05
2.03032874e-05
1.9683526e-05
1.95333814e-05
2.02584983e-05
2.02996712e-05
1.97223884e-05
1.95509168e-05
2.02692905e-05
2.02869173e-05
1.97688553e-05
1.94832195e-05
1.94861904e-05
2.02703542e-05
2.02832593e-05
1.97680473e-05
1.94789853e-05
1.94834039e-05
2.02607419e-05
2.02984198e-05
1.97730453e-05
1.95830078e-05
2.02629281e-05
2.02978373e-05
1.97602785e-05
1.95649445e-05
2.0273226e-05
2.02880269e-05
1.97671726e-05
1.94421609e-05
1.94442776e-05
2.02725701e-05
2.0299064e-05
2.0283469e-05
1.97580508e-05
1.94590435e-05
1.94629371e-05
2.0279174e-05
2.02980047e-05
2.02966042e-05
1.97659814e-05
1.95983234e-05
1.94819283e-05
1.94815401e-05
2.0274395e-05
2.02985722e-05
1.9738882e-05
1.95747417e-05
2.02790228e-05
2.02887774e-05
1.97667029e-05
1.95100379e-05
1.95109741e-05
2.02815752e-05
2.02895443e-05
1.9766734e-05
1.95144319e-05
1.95192224e-05
2.02743971e-05
2.0302417e-05
1.97760638e-05
1.96232002e-05
2.02845299e-05
2.02933024e-05
1.97664409e-05
1.95458962e-05
1.95488516e-05
2.02837573e-05
2.02945937e-05
1.97718956e-05
1.95590678e-05
1.95579679e-05
2.02902966e-05
2.02929625e-05
1.97746029e-05
1.95698113e-05
1.95713912e-05
2.02878159e-05
2.02945013e-05
1.97741743e-05
1.95704627e-05
1.95715661e-05
2.0289846e-05
2.02949413e-05
1.97728641e-05
1.95688672e-05
1.95684033e-05
2.02919589e-05
2.0295442e-05
1.97729302e-05
1.95689693e-05
1.95678905e-05
2.02931882e-05
2.02958267e-05
1.97713441e-05
1.9561823e-05
1.95607216e-05
2.02941567e-05
2.02960252e-05
1.97667029e-05
1.95461404e-05
1.95459868e-05
2.029304e-05
2.02970258e-05
1.97652733e-05
1.95352651e-05
1.95367441e-05
2.02930797e-05
2.02937458e-05
1.97628451e-05
1.95309607e-05
1.95341147e-05
2.02831873e-05
2.0303693e-05
1.97727733e-05
1.96203118e-05
2.02894586e-05
2.02936535e-05
1.9766093e-05
1.95287089e-05
1.95311438e-05
2.02875244e-05
2.03021741e-05
2.02913651e-05
1.97587406e-05
1.95938545e-05
1.96100887e-05
1.94162765e-05
1.94185574e-05
2.02886809e-05
2.0295127e-05
2.02938646e-05
1.97679313e-05
1.95426552e-05
2.02873838e-05
2.02963903e-05
1.97346164e-05
1.9546166e-05
2.02921216e-05
2.02884958e-05
1.97575168e-05
1.94461676e-05
1.94528266e-05
2.02788217e-05
2.0301134e-05
1.97452718e-05
1.95409619e-05
2.02903235e-05
2.02893536e-05
1.97584548e-05
1.94494882e-05
1.94550166e-05
2.02790239e-05
2.03045838e-05
1.97363583e-05
1.9577391e-05
2.02838731e-05
2.03009768e-05
1.97425819e-05
1.95917518e-05
2.02927599e-05
2.02912619e-05
1.97604139e-05
1.95068424e-05
1.95110329e-05
2.02861527e-05
2.03013118e-05
1.97683818e-05
1.96050606e-05
1.9486169e-05
1.94889693e-05
2.02910352e-05
2.02953777e-05
2.02963883e-05
1.97644451e-05
1.95553534e-05
2.02958216e-05
2.02936731e-05
1.97618343e-05
1.94892697e-05
1.94942571e-05
2.02920644e-05
2.03006391e-05
2.02982312e-05
1.97622291e-05
1.96589242e-05
1.95512614e-05
1.95514491e-05
2.02948948e-05
2.02946962e-05
1.97612906e-05
1.95227416e-05
1.95245959e-05
2.02931526e-05
2.02932685e-05
1.97658513e-05
1.95212654e-05
1.9524448e-05
2.0289402e-05
2.03016909e-05
1.97669221e-05
1.95930568e-05
2.02977892e-05
2.029439e-05
1.97570335e-05
1.94878908e-05
1.94913889e-05
2.02925195e-05
2.0305286e-05
1.97437435e-05
1.95548453e-05
2.03027948e-05
2.02966794e-05
1.97495479e-05
1.94605554e-05
1.94665242e-05
2.0290108e-05
2.03147602e-05
1.97326692e-05
1.960462e-05
2.02958843e-05
2.03123116e-05
1.97482604e-05
1.96849908e-05
2.03003737e-05
2.0306686e-05
1.97875825e-05
1.97537574e-05
1.97135185e-05
1.96972091e-05
1.95786859e-05
1.9578752e-05
2.02964694e-05
2.03033544e-05
1.97636229e-05
1.96553211e-05
2.03028855e-05
2.02982254e-05
1.9779906e-05
1.95294417e-05
1.9532333e-05
2.03055805e-05
2.0307532e-05
2.03033588e-05
1.9750651e-05
1.94874119e-05
1.94888787e-05
2.0308378e-05
2.03051538e-05
1.9750796e-05
1.9465507e-05
1.94711805e-05
2.03021925e-05
2.03062158e-05
1.97563191e-05
1.96221033e-05
2.03087758e-05
2.02956586e-05
1.97736128e-05
1.96377302e-05
1.96575063e-05
1.95085753e-05
1.95117405e-05
2.02958335e-05
2.03080352e-05
1.96553879e-05
1.96578245e-05
2.03034248e-05
2.03037392e-05
2.02953885e-05
1.97698268e-05
1.95261262e-05
1.95347498e-05
2.03066365e-05
)
;

boundaryField
{
    closed
    {
        type            calculated;
        value           nonuniform List<scalar> 0();
    }
    open
    {
        type            calculated;
        value           nonuniform List<scalar> 0();
    }
    sides
    {
        type            empty;
    }
    procBoundary1to0
    {
        type            processor;
        value           uniform 1.96348419e-05;
    }
    procBoundary1to2
    {
        type            processor;
        value           uniform 2.02980286e-05;
    }
}


// ************************************************************************* //
