/*--------------------------------*- C++ -*----------------------------------*\
| =========                 |                                                 |
| \\      /  F ield         | OpenFOAM: The Open Source CFD Toolbox           |
|  \\    /   O peration     | Version:  2306                                  |
|   \\  /    A nd           | Website:  www.openfoam.com                      |
|    \\/     M anipulation  |                                                 |
\*---------------------------------------------------------------------------*/
FoamFile
{
    version     2.0;
    format      ascii;
    arch        "LSB;label=32;scalar=64";
    class       volScalarField;
    location    "0.0009";
    object      p;
}
// * * * * * * * * * * * * * * * * * * * * * * * * * * * * * * * * * * * * * //

dimensions      [1 -1 -2 0 0 0 0];

internalField   nonuniform List<scalar> 
531
(
101352.514
101352.326
101352.21
101352.145
101352.11
101351.143
101350.902
101350.75
101350.672
101350.616
101349.623
101349.318
101349.076
101348.914
101348.725
101348.499
101348.331
101348.204
101348.082
101348
101347.958
101346.927
101346.613
101346.322
101345.944
101345.562
101345.167
101344.814
101345.482
101345.228
101344.955
101344.629
101344.319
101344.99
101344.804
101344.65
101344.543
101344.405
101344.218
101344.087
101343.981
101343.842
101343.659
101343.466
101343.293
101343.099
101342.847
101342.445
101341.987
101341.573
101341.209
101340.916
101341.703
101341.592
101341.513
101341.491
101341.44
101341.339
101341.291
101341.294
101341.276
101341.23
101341.259
101341.346
101341.475
101341.693
101340.913
101340.922
101341.026
101341.204
101341.413
101340.535
101340.434
101340.413
101340.418
101340.399
101340.319
101340.302
101340.343
101340.369
101340.362
101340.381
101340.482
101340.646
101340.88
101340.003
101339.92
101339.915
101339.965
101340.011
101340.089
101340.203
101339.126
101338.786
101338.451
101338.858
101339.281
101339.58
101339.777
101339.985
101340.164
101340.278
101340.229
101340.116
101340.051
101340.017
101339.926
101339.712
101339.497
101339.267
101339.051
101339.954
101339.847
101339.769
101339.756
101339.697
101339.559
101339.472
101339.424
101339.329
101339.161
101338.98
101338.834
101338.699
101338.633
101339.799
101339.969
101340.205
101340.492
101340.867
101340.071
101340.135
101340.293
101340.526
101340.785
101339.822
101339.707
101339.681
101339.692
101339.673
101339.571
101339.526
101339.548
101339.531
101339.419
101339.352
101339.341
101339.271
101339.075
101338.883
101338.668
101338.46
101339.316
101339.156
101339.013
101338.84
101338.621
101338.468
101339.431
101339.41
101339.414
101339.394
101339.31
101339.215
101339.17
101339.108
101338.958
101338.857
101338.794
101338.681
101338.495
101338.35
101338.208
101338.053
101337.805
101337.472
101337.159
101336.849
101336.558
101337.317
101337.137
101337.009
101336.899
101336.775
101336.621
101336.554
101336.564
101336.649
101335.655
101335.416
101335.235
101335.099
101334.905
101334.608
101334.321
101334.021
101333.732
101334.447
101334.211
101333.983
101333.729
101333.504
101334.265
101334.161
101334.102
101334.053
101333.974
101333.857
101333.785
101333.722
101333.621
101333.502
101333.286
101333.073
101332.935
101332.883
101332.817
101332.732
101332.723
101332.768
101332.839
101331.924
101331.752
101331.662
101331.656
101331.701
101330.744
101330.462
101330.209
101329.974
101329.787
101330.564
101330.525
101330.523
101330.526
101330.51
101330.466
101330.484
101330.555
101330.666
101329.803
101329.661
101329.613
101329.637
101329.696
101328.801
101328.594
101328.464
101328.355
101328.225
101328.043
101327.915
101327.83
101327.716
101327.549
101327.436
101327.362
101327.256
101327.101
101327.001
101326.939
101326.848
101326.714
101326.639
101326.606
101326.556
101326.48
101326.467
101326.504
101326.554
101325.622
101325.35
101325.104
101324.87
101324.612
101325.164
101324.993
101324.853
101324.756
101324.624
101324.434
101324.281
101324.163
101324.011
101323.798
101323.621
101323.488
101323.418
101323.413
101323.277
101323.102
101322.938
101322.733
101322.488
101323.011
101322.81
101322.581
101322.384
101322.168
101321.899
101321.661
101322.27
101322.147
101322.035
101321.953
101321.824
101321.634
101321.452
101321.273
101321.114
101321.748
101321.723
101321.745
101321.794
101321.864
101321.146
101321.009
101320.931
101320.928
101320.907
101320.866
101320.877
101320.93
101320.999
101320.323
101320.2
101320.131
101320.117
101320.157
101320.281
101320.332
101320.426
101320.548
101320.687
101320.134
101320.107
101320.135
101320.206
101320.282
101319.658
101319.512
101319.381
101319.255
101319.137
101319.637
101319.563
101319.511
101319.482
101319.499
101319.578
101319.578
101319.602
101319.647
101319.73
101319.862
101319.904
101319.952
101319.997
101320.062
101320.74
101320.901
101321.099
101321.32
101321.55
101321.139
101321.221
101321.37
101321.578
101321.796
101321.376
101321.406
101321.488
101321.636
101321.772
101321.866
101321.986
101322.125
101322.267
101322.384
101322.471
101322.563
101322.672
101322.79
101322.902
101323.025
101323.203
101323.437
101323.565
101323.698
101324.282
101324.55
101324.788
101325.002
101325.259
101325.566
101325.867
101326.144
101326.461
101326.814
101327.168
101326.882
101327.016
101327.202
101327.432
101327.654
101327.841
101328.063
101328.324
101328.616
101328.918
101329.185
101329.485
101329.839
101330.18
101330.483
101330.824
101331.223
101331.619
101331.993
101332.407
101332.861
101333.324
101333.229
101333.522
101333.868
101334.269
101334.7
101335.146
101335.075
101335.371
101335.686
101335.997
101336.338
101336.671
101336.963
101337.285
101337.645
101338.037
101338.429
101338.792
101339.163
101339.552
101339.945
101340.331
101340.697
101341.015
101341.308
101341.624
101341.968
101342.322
101343.098
101343.511
101343.957
101344.435
101344.925
101344.926
101345.25
101345.612
101346.026
101346.432
101346.79
101347.161
101347.544
101347.932
101348.706
101349.128
101349.574
101350.092
101350.609
101351.093
101351.611
101352.168
101352.736
101352.844
101353.243
101353.682
101354.184
101354.68
101355.134
101355.614
101356.166
101356.706
101357.205
101357.724
101358.266
101358.81
101359.349
101359.885
101360.434
101361.281
101361.845
101362.429
101363.034
101363.644
101364.216
101364.809
101365.438
101366.089
101366.705
101367.305
101367.914
101368.544
101369.187
101369.839
101370.459
101371.058
101371.677
101372.324
101372.983
101373.6
101374.195
101374.807
101375.625
101376.44
101377.206
101377.992
101378.808
101379.645
101380.488
101381.344
101382.164
101382.968
101383.794
101384.717
101385.618
101386.506
101387.409
101388.327
101389.271
101390.248
101391.172
)
;

boundaryField
{
    closed
    {
        type            zeroGradient;
    }
    open
    {
        type            waveTransmissive;
        gamma           1.25;
        fieldInf        101325;
        lInf            1;
        value           nonuniform List<scalar> 0();
    }
    sides
    {
        type            empty;
    }
    procBoundary1to0
    {
        type            processor;
        value           uniform 101352.69;
    }
    procBoundary1to2
    {
        type            processor;
        value           uniform 101392.081;
    }
}


// ************************************************************************* //
