/*--------------------------------*- C++ -*----------------------------------*\
| =========                 |                                                 |
| \\      /  F ield         | OpenFOAM: The Open Source CFD Toolbox           |
|  \\    /   O peration     | Version:  2306                                  |
|   \\  /    A nd           | Website:  www.openfoam.com                      |
|    \\/     M anipulation  |                                                 |
\*---------------------------------------------------------------------------*/
FoamFile
{
    version     2.0;
    format      ascii;
    arch        "LSB;label=32;scalar=64";
    class       volScalarField;
    location    "0.00074";
    object      H2O;
}
// * * * * * * * * * * * * * * * * * * * * * * * * * * * * * * * * * * * * * //

dimensions      [0 0 0 0 0 0 0];

internalField   nonuniform List<scalar> 
530
(
0.00426074281
0.00457902047
0.00450982047
0.00450734682
0.00450713951
0.00450713563
0.00450713543
0.00450713542
0.00450713542
0.00450713542
0.00450713542
0.00450713542
0.00450713542
0.00450713542
0.00450713542
0.00450713542
0.00450713542
0.00450713542
0.00450713542
0.00450713542
0.00450713542
0.00450713542
0.00450713542
0.00450713542
0.00450713542
0.00450713542
0.00450713542
0.00450713542
0.00450713542
0.00450713542
0.00450713542
0.00450713542
0.00450713542
0.00450713542
0.00450713542
0.00450713542
0.00450713542
0.00450713542
0.00450713542
0.00450713542
0.00450713542
0.00450713542
0.00450713542
0.00450713542
0.00450713542
0.00450713542
0.00450713542
0.00450713542
0.00450713542
0.00450713542
0.00450713542
0.00450713542
0.00450713542
0.00450713542
0.00450713542
0.00450713542
0.00450713542
0.00450713542
0.00450713542
0.00450713542
0.00450713542
0.00450713542
0.00450713542
0.00450713542
0.00450713542
0.00450713542
0.00450713542
0.00450713543
0.00450713543
0.00450713544
0.00450713545
0.00450713552
0.00450713554
0.00450713609
0.00450713715
0.00450713857
0.00450713541
0.0045071541
0.00450719024
0.00450720241
0.00450716695
0.00450740503
0.00450723132
0.00450763957
0.00451018255
0.00452038915
0.00451816279
0.00442158799
0.0044124299
0.00483724471
0.00500919811
0.004077662
0.00358562165
0.00520281735
0.00666619207
0.00605655514
0.000961635641
0.00106634938
0.00372385359
0.0068676142
0.00738413641
0.00724057946
0.00210380141
0.00095711539
0.00104908007
0.000867923635
0.00668931075
0.00732656093
0.00731693073
0.00582318712
0.000961248871
0.00113388464
0.00136503376
0.00677623631
0.00732303845
0.00744862161
0.0061833797
0.000984423041
0.00102051454
0.00103426582
0.000939754384
0.0067799923
0.00762394547
0.00613251614
0.00103723092
0.000966096583
0.00678714904
0.0076128012
0.00635271086
0.00103371122
0.0010063858
0.00683560373
0.00674581153
0.00106745548
0.000980965055
0.0068037761
0.00767851542
0.00642288205
0.00102326707
0.00100725757
0.00697808553
0.00689985678
0.00105503562
0.00100138575
0.00695557626
0.00685914604
0.00105749044
0.000969174355
0.00687489205
0.00773262092
0.00652536009
0.0010219069
0.00100917117
0.00700992666
0.00691466654
0.00106119775
0.00100452496
0.00691815006
0.00681578567
0.00107288434
0.00099060623
0.0067767886
0.00754511462
0.00620433754
0.00105421879
0.00103310717
0.00673839048
0.00660516488
0.00109505546
0.001024867
0.00664697611
0.00734551929
0.00579357506
0.00107341797
0.00100911557
0.00671276281
0.00714036441
0.00718559526
0.00660739215
0.00104267461
0.00101910911
0.00705129211
0.00697783856
0.00105983448
0.00100191215
0.00695972316
0.00688988332
0.001074622
0.000989902173
0.00677121273
0.00756989263
0.00631618817
0.00104906866
0.00103185177
0.00679348936
0.00669415406
0.00108724417
0.00101492164
0.00669736811
0.00747305966
0.00608091074
0.00105612877
0.000988518728
0.00673852188
0.00763728242
0.00654162318
0.00102271763
0.00101201129
0.00707107198
0.00702262325
0.0010370809
0.00100061465
0.00713665691
0.00708812753
0.00102884938
0.000991784544
0.0071692035
0.00712541077
0.00102716013
0.000989787643
0.00719687577
0.00715051104
0.00102370877
0.000986889122
0.00722487101
0.00717856837
0.00102091242
0.000987915473
0.00722746445
0.00718193379
0.00102316397
0.000993515237
0.00716522057
0.0071236214
0.00103358761
0.00100236601
0.00703495456
0.00700538941
0.00105055014
0.000975017856
0.00685186978
0.00777986784
0.00663890548
0.00101491254
0.00100865572
0.00703118404
0.00700619586
0.00104138621
0.00101743197
0.00692837235
0.00691094495
0.00104656512
0.00101307626
0.00674179957
0.0076130129
0.00648206755
0.0010242219
0.00100051752
0.00685445335
0.00684168196
0.00104179312
0.00102668851
0.00661084021
0.00751606038
0.00628294005
0.00103056914
0.00099281491
0.00668117992
0.00668079638
0.00104506785
0.0010244241
0.00646000513
0.00711992618
0.00715007496
0.00657134976
0.00100625796
0.000940152931
0.00697074909
0.00694882961
0.000991829687
0.0010798055
0.00633758007
0.00721151553
0.00392525336
0.000955651732
0.00108809828
0.000798743633
0.00662942004
0.00716786079
0.00721382291
0.00666234873
0.000986710503
0.000955616497
0.00658331609
0.00752906139
0.00636322211
0.000986988239
0.00110458256
0.00548505676
0.00699678448
0.00600814205
0.0010086838
0.000994693615
0.00623179209
0.00745983371
0.00616136483
0.000978686217
0.000946295353
0.00642515947
0.00747834054
0.00603327571
0.000970296981
0.00115681953
0.00677477326
0.00648345107
0.000965286439
0.000943922578
0.00645870083
0.00753241414
0.00612476883
0.000925530166
0.00177196145
0.00700475976
0.00660102002
0.000885132337
0.00105110081
0.00106364255
0.00102518341
0.00671000691
0.00711796677
0.00743198085
0.00677315527
0.000860460115
0.00155275118
0.0070456725
0.00650025099
0.000894411961
0.00181693521
0.00681887084
0.00630857388
0.000911199568
0.000890878742
0.00650530179
0.00739757112
0.0054623164
0.000918094006
0.00354350415
0.00684979681
0.0046366584
0.000965364572
0.00389143342
0.00679959537
0.00493444518
0.000958528277
0.000883593723
0.00702252093
0.00737041924
0.0025817228
0.00104530101
0.00245704928
0.00604141234
0.00654125249
0.00604068109
0.00675435209
0.00683772901
0.00190698924
0.000988527133
0.000998240969
0.0009104615
0.00673367693
0.00746324202
0.00582278222
0.00092707243
0.000903808361
0.0057606971
0.00676644209
0.0062797433
0.00682498932
0.00685983414
0.00237588097
0.00106426313
0.00108193428
0.00451960962
0.00696497985
0.00570700518
0.000910624432
0.00087983013
0.0064790893
0.00747069914
0.00575257821
0.000884328375
0.00389731607
0.00681797483
0.00422183892
0.00096433859
0.0018277506
0.00707417385
0.0074469648
0.00286464403
0.00099102322
0.00575236249
0.00684171562
0.00193663216
0.00129549476
0.00671699673
0.00669593666
0.000840373788
0.000965382494
0.00543308804
0.00729488424
0.00640356463
0.000854966157
0.0010630763
0.0047076912
0.00666089866
0.00556493777
0.00653546224
0.00669688114
0.00211087571
0.00104781738
0.00397742692
0.00666760463
0.00641008127
0.000857907426
0.0010313247
0.00500467774
0.00731810941
0.00660822029
0.000817059696
0.00104507878
0.00511061418
0.00725612985
0.00602018574
0.000886545686
0.00102006059
0.00646596221
0.00661430797
0.00102318829
0.00107011142
0.00469729327
0.00682764279
0.00706978684
0.00701187855
0.000777769475
0.00104782206
0.00483254399
0.0072672826
0.00699709366
0.000776670483
0.0010456942
0.00483958089
0.00723358184
0.00698852609
0.000780486337
0.00104775574
0.00481847194
0.00727573022
0.00717735035
0.000765167734
0.00101768043
0.00499301698
0.00759915759
0.00743539287
0.00117739423
0.000994092349
0.00100446084
0.00098474318
0.00495557117
0.0077304494
0.00768419169
0.000818856043
0.00100686251
0.00524718761
0.00755664704
0.00757309618
0.000763073701
0.00101887282
0.00571108789
0.00690146726
0.00228744562
0.001004343
0.0059028541
0.00743610582
0.00307254064
0.000980527444
0.0058160426
0.00695303901
0.00191927283
0.00103100771
0.00508362144
0.00727699374
0.00706768203
0.000834977635
0.0010517596
0.00593877957
0.00728361005
0.00262813438
0.00100140994
0.00594737041
0.00696202441
0.00160518924
0.00103412993
0.00522282736
0.00733258419
0.0071436092
0.000851058136
0.00104813181
0.00609277364
0.00731641882
0.00247784272
0.00100599805
0.0060892804
0.00699277621
0.00124374907
0.00104082648
0.0053036487
0.00727674825
0.00710128523
0.00088928257
0.00106174342
0.00509723869
0.00733368285
0.00694849182
0.000886743946
0.00345034045
0.00707434734
0.00155687265
0.00101885645
0.00642063263
0.00704049036
)
;

boundaryField
{
    closed
    {
        type            calculated;
        value           uniform 2.81683907e-07;
    }
    open
    {
        type            calculated;
        value           nonuniform List<scalar> 0();
    }
    sides
    {
        type            empty;
    }
    procBoundary0to1
    {
        type            processor;
        value           uniform 0.000768999631;
    }
}


// ************************************************************************* //
