/*--------------------------------*- C++ -*----------------------------------*\
| =========                 |                                                 |
| \\      /  F ield         | OpenFOAM: The Open Source CFD Toolbox           |
|  \\    /   O peration     | Version:  2306                                  |
|   \\  /    A nd           | Website:  www.openfoam.com                      |
|    \\/     M anipulation  |                                                 |
\*---------------------------------------------------------------------------*/
FoamFile
{
    version     2.0;
    format      ascii;
    arch        "LSB;label=32;scalar=64";
    class       volScalarField;
    location    "0.00074";
    object      prefDh_H;
}
// * * * * * * * * * * * * * * * * * * * * * * * * * * * * * * * * * * * * * //

dimensions      [1 1 -3 0 0 0 0];

internalField   nonuniform List<scalar> 
530
(
23899.749
23470.6228
23394.22
23393.2106
23393.1185
23393.1164
23393.1163
23393.1163
23393.1163
23393.1163
23393.1163
23393.1163
23393.1163
23393.1163
23393.1163
23393.1163
23393.1163
23393.1163
23393.1163
23393.1163
23393.1163
23393.1163
23393.1163
23393.1163
23393.1163
23393.1163
23393.1163
23393.1163
23393.1163
23393.1163
23393.1163
23393.1163
23393.1163
23393.1163
23393.1163
23393.1163
23393.1163
23393.1163
23393.1163
23393.1163
23393.1163
23393.1163
23393.1163
23393.1163
23393.1163
23393.1163
23393.1163
23393.1163
23393.1163
23393.1163
23393.1163
23393.1163
23393.1163
23393.1163
23393.1163
23393.1163
23393.1163
23393.1163
23393.1163
23393.1163
23393.1163
23393.1163
23393.1163
23393.1163
23393.1163
23393.1163
23393.1163
23393.1163
23393.1163
23393.1163
23393.1163
23393.1163
23393.1164
23393.1166
23393.1169
23393.1182
23393.1203
23393.126
23393.1311
23393.1597
23393.1846
23393.2772
23393.3527
23393.6187
23393.5459
23393.8345
23393.7719
23400.8941
23401.1212
23384.2239
23378.5896
23424.8902
23464.3105
23369.4667
23319.3957
23357.0324
23950.9146
23989.6428
23456.3428
23235.4331
23016.2501
23076.3143
23626.6603
23878.6867
23922.8188
23913.5434
23309.7207
23040.0724
23044.388
23372.9192
23910.1797
23981.1942
23729.1523
23273.4188
23041.5333
22991.0086
23397.0406
23963.5342
23942.6152
23956.8385
23948.0522
23271.9053
22911.1506
23386.6273
23943.0506
23970.7632
23268.9353
22916.2715
23389.7959
23936.1695
23986.0487
23248.7096
23286.0293
23976.3263
23949.9185
23262.0045
22887.211
23384.6879
23935.3003
23989.993
23189.0275
23221.6084
23967.6517
23967.2824
23198.9422
23238.2867
23980.7041
23946.7333
23232.5715
22864.0236
23376.8762
23940.002
23991.0769
23175.7645
23215.5308
23972.2953
23969.7912
23214.5606
23256.7435
23985.791
23953.3434
23273.1449
22946.2767
23377.0577
23944.375
23994.2284
23289.2211
23344.6715
23979.0956
23958.2676
23326.8116
23032.3418
23376.3462
23942.2437
23986.1223
23299.9196
23120.2917
23101.6029
23343.7777
23965.356
23972.7161
23158.8013
23189.0118
23974.267
23960.4901
23197.2477
23225.5738
23983.4321
23945.2358
23275.4825
22934.9279
23383.1569
23939.4623
23981.1393
23266.2446
23307.6917
23973.9882
23946.9437
23306.125
22977.1301
23390.4299
23945.395
23959.0114
23289.1625
22904.718
23370.6343
23929.6912
23973.4607
23149.3151
23169.96
23953.2462
23950.2369
23122.2162
23141.8828
23954.3287
23946.2193
23108.3967
23125.8917
23951.8234
23944.2927
23096.6176
23115.1686
23950.8742
23944.2582
23084.8151
23103.2921
23951.8264
23946.12
23083.8567
23102.0303
23953.8494
23949.4233
23110.2794
23126.7692
23957.2899
23948.2054
23165.4065
23176.2242
23970.8065
23936.4317
23242.0725
22842.6313
23330.4028
23931.3687
23979.3614
23166.4685
23176.8443
23959.4752
23961.6773
23210.1248
23216.7377
23975.0395
23953.4547
23287.6352
22916.7731
23391.1085
23934.8776
23983.1584
23240.8209
23245.9382
23966.9058
23960.5314
23341.5295
22959.153
23385.3502
23932.7409
23981.2667
23313.0471
23313.2787
23951.2658
23968.7162
23390.2825
23128.9544
23116.7308
23358.9822
23943.5175
23964.4045
23192.3585
23200.9382
23950.5066
23952.9759
23378.0879
23089.5011
23431.1598
23869.4993
23964.6296
23840.1057
23334.1257
23105.6872
23089.5903
23321.0041
23945.5116
23953.9508
23352.0782
22952.122
23369.8074
23918.2141
23978.5123
23385.1151
23181.3236
23382.0196
23938.7834
23973.0357
23369.2238
22982.5144
23385.7804
23913.5793
23954.0858
23371.2255
22973.0706
23381.8484
23893.4344
23756.7113
23274.0058
23396.0348
23921.4908
23940.8363
23356.7233
22949.4551
23368.6173
23881.2296
23670.1231
23177.1446
23346.3827
23883.4052
23926.7569
23928.6693
23777.6515
23300.7218
23130.2309
22995.8464
23274.708
23868.4987
23700.5077
23159.8966
23388.046
23870.1294
23663.0122
23255.4449
23409.2112
23876.9133
23911.9754
23360.3292
23008.3743
23356.1215
23877.3314
23469.9822
23242.6778
23380.1786
23901.6127
23441.9307
23263.5904
23371.9523
23875.9184
23796.0469
23169.9948
23021.7876
23565.7725
23941.1883
23581.4458
23368.2583
23371.674
23380.992
23282.374
23247.7565
23654.015
23898.4976
23921.0337
23935.084
23290.3324
22981.4761
23363.0311
23877.0661
23920.8256
23356.3414
23277.0374
23381.0235
23252.4753
23238.6359
23592.238
23950.7162
23951.2546
23400.8436
23194.381
23361.0546
23873.4609
23919.5041
23343.8651
22977.5187
23351.8081
23850.5507
23442.4437
23255.7782
23403.468
23872.7411
23659.2137
23147.7816
22990.1062
23531.3424
23928.2988
23388.0598
23245.729
23647.7455
23734.8202
23298.1207
23306.8969
23838.7564
23966.5865
23353.3435
23054.0323
23360.3482
23831.0024
23988.5556
23392.0516
23321.2044
23360.8417
23373.642
23306.0687
23627.5792
23961.0248
23441.48
23318.5193
23385.8429
23858.8621
23981.4418
23369.8132
23045.0755
23341.9888
23825.4839
23979.0692
23378.2144
23072.1007
23362.8978
23849.9363
23775.9481
23402.5876
23340.9879
23772.4695
23972.1404
23403.2439
23252.1312
23149.7004
23173.7986
23820.892
23947.2035
23392.1321
23065.417
23180.8213
23813.8706
23954.384
23397.5673
23079.5572
23183.984
23814.9533
23946.1233
23404.0615
23061.1949
23102.8161
23820.938
23935.3745
23396.3743
22920.9866
22991.1588
23756.5332
23917.5054
23909.8297
23929.6457
23384.6897
22862.8214
22885.481
23811.4746
23924.4273
23396.3664
22938.0087
22932.976
23817.3009
23944.4457
23406.3284
23220.9082
23603.0945
23931.0507
23383.9604
22995.094
23508.6587
23931.013
23385.404
23199.0258
23652.2327
23916.5217
23396.1035
23058.5662
23150.483
23867.3746
23954.7575
23399.1787
23061.2141
23560.5566
23949.2082
23391.4594
23195.5714
23697.0533
23924.927
23393.4195
23035.0819
23118.6255
23887.4714
23955.3716
23402.0041
23047.4909
23579.1749
23955.4401
23398.0401
23182.846
23750.8053
23936.1618
23393.8612
23060.6727
23136.6675
23917.8759
23941.4511
23394.8385
23036.7444
23200.9037
23910.0206
23481.3887
23148.3157
23705.6542
23964.3136
23421.7389
23162.8382
)
;

boundaryField
{
    closed
    {
        type            calculated;
        value           uniform 31701.0818;
    }
    open
    {
        type            calculated;
        value           nonuniform List<scalar> 0();
    }
    sides
    {
        type            empty;
    }
    procBoundary0to1
    {
        type            processor;
        value           uniform 23824.8378;
    }
}


// ************************************************************************* //
