/*--------------------------------*- C++ -*----------------------------------*\
| =========                 |                                                 |
| \\      /  F ield         | OpenFOAM: The Open Source CFD Toolbox           |
|  \\    /   O peration     | Version:  2306                                  |
|   \\  /    A nd           | Website:  www.openfoam.com                      |
|    \\/     M anipulation  |                                                 |
\*---------------------------------------------------------------------------*/
FoamFile
{
    version     2.0;
    format      ascii;
    arch        "LSB;label=32;scalar=64";
    class       volVectorField;
    location    "0.00074";
    object      U;
}
// * * * * * * * * * * * * * * * * * * * * * * * * * * * * * * * * * * * * * //

dimensions      [0 1 -1 0 0 0 0];

internalField   nonuniform List<vector> 
530
(
(0.129553725 0 0)
(0.135815837 0 0)
(0.0400510276 0 0)
(0.0386377613 0 0)
(0.145159274 0 0)
(0.328201045 0 0)
(0.418061221 0 0)
(0.370101333 0 0)
(0.248570537 0 0)
(0.172314444 0 0)
(0.147357136 0 0)
(0.127016052 0 0)
(0.0401000808 0 0)
(-0.0549734113 0 0)
(-0.0559273071 0 0)
(0.0582609539 0 0)
(0.160431417 0 0)
(0.177901421 0 0)
(0.178294702 0 0)
(0.236851734 0 0)
(0.355171551 0 0)
(0.535393438 0 0)
(0.790901954 0 0)
(1.0942459 0 0)
(1.31256366 0 0)
(1.28231931 0 0)
(0.960646064 0 0)
(0.503587167 0 0)
(0.113759139 0 0)
(-0.12391577 0 0)
(-0.212211787 0 0)
(-0.20732847 0 0)
(-0.176585682 0 0)
(-0.143581775 0 0)
(-0.110202355 0 0)
(-0.074736866 0 0)
(-0.0345309489 0 0)
(0.00987372391 0 0)
(0.0590700923 0 0)
(0.114516644 0 0)
(0.182731513 0 0)
(0.27335292 0 0)
(0.401726845 0 0)
(0.584957249 0 0)
(0.836313111 0 0)
(1.16031855 0 0)
(1.53705962 0 0)
(1.91874468 0 0)
(2.24582281 0 0)
(2.45596004 0 0)
(2.51554404 0 0)
(2.42334674 0 0)
(2.20734237 0 0)
(1.91669355 0 0)
(1.59641923 0 0)
(1.28393063 0 0)
(1.00118035 0 0)
(0.757331884 0 0)
(0.553842108 0 0)
(0.386812381 0 0)
(0.252695408 0 0)
(0.146565618 0 0)
(0.0638951449 0 0)
(0.00186860871 0 0)
(-0.0440528628 0 0)
(-0.0753162178 0 0)
(-0.0945856799 0 0)
(-0.105245754 0 0)
(-0.109339825 0 0)
(-0.108479497 0 0)
(-0.104028839 0 0)
(-0.0969055225 0 0)
(-0.0883492754 0 0)
(-0.0791951277 0 0)
(-0.0697961555 0 0)
(-0.0604412377 0 0)
(-0.0514826225 0 0)
(-0.0427749886 0 0)
(-0.0343184952 0 0)
(-0.0264808576 0 0)
(-0.0191802833 0 0)
(-0.0124030365 0 0)
(-0.00614177103 0 0)
(-0.00035362332 0 0)
(0.0049482788 0 0)
(0.00976782966 0 0)
(0.0143219418 0 0)
(0.0184517382 0 0)
(0.0223299533 0 0)
(0.0257581856 0 0)
(0.0277758177 0 0)
(0.0313810211 0 0)
(0.0353919169 0 0)
(0.0406630819 0 0)
(0.0357230874 0 0)
(0.0335497788 0 0)
(0.038715754 0 0)
(0.0446080749 0 0)
(0.043662259 0 0)
(0.040328477 0 0)
(0.037122134 0 0)
(0.029872469 0 0)
(0.0372603378 0 0)
(0.0507317104 0 0)
(0.050875381 0 0)
(0.0565132722 0 0)
(0.0577606746 0 0)
(0.050080247 0 0)
(0.0481252879 0 0)
(0.0497573625 0 0)
(0.0490478541 0 0)
(0.0426361469 0 0)
(0.0611519306 0 0)
(0.0793265244 0 0)
(0.0716228533 0 0)
(0.068335367 0 0)
(0.0722420696 0 0)
(0.0761551505 0 0)
(0.0780980757 0 0)
(0.0812557341 0 0)
(0.0856029392 0 0)
(0.0863514909 0 0)
(0.0846558059 0 0)
(0.0837779704 0 0)
(0.0844813483 0 0)
(0.0873221938 0 0)
(0.0896071078 0 0)
(0.0901142991 0 0)
(0.0898863447 0 0)
(0.0913297345 0 0)
(0.094665903 0 0)
(0.0941982291 0 0)
(0.0830104278 0 0)
(0.0747226 0 0)
(0.0776482131 0 0)
(0.0796126932 0 0)
(0.0796620873 0 0)
(0.0794340272 0 0)
(0.0804397263 0 0)
(0.0834805737 0 0)
(0.0828027413 0 0)
(0.0735627368 0 0)
(0.067924313 0 0)
(0.0717074693 0 0)
(0.071468413 0 0)
(0.0606310445 0 0)
(0.0536601682 0 0)
(0.0563690035 0 0)
(0.0580984886 0 0)
(0.0577028851 0 0)
(0.0515606249 0 0)
(0.0459249774 0 0)
(0.0486276788 0 0)
(0.0483374237 0 0)
(0.0388904565 0 0)
(0.0332654805 0 0)
(0.0369601973 0 0)
(0.0377256905 0 0)
(0.0274444713 0 0)
(0.0205041133 0 0)
(0.0233748574 0 0)
(0.0247434313 0 0)
(0.0253887242 0 0)
(0.0246394742 0 0)
(0.024231513 0 0)
(0.0275212122 0 0)
(0.0271787556 0 0)
(0.0170731537 0 0)
(0.0106678386 0 0)
(0.0133413231 0 0)
(0.0149330544 0 0)
(0.0158306072 0 0)
(0.0147423535 0 0)
(0.0139740326 0 0)
(0.0169990041 0 0)
(0.0149740889 0 0)
(0.0125126013 0 0)
(0.0171942359 0 0)
(0.0134466195 0 0)
(0.00780350077 0 0)
(0.0106887784 0 0)
(0.0108185391 0 0)
(0.00431398362 0 0)
(0.00080073233 0 0)
(0.00465486241 0 0)
(0.00592105081 0 0)
(-0.00179601503 0 0)
(-0.00680257219 0 0)
(-0.0043771411 0 0)
(-0.00205491065 0 0)
(-0.00111592836 0 0)
(-0.0014162274 0 0)
(-0.000447656972 0 0)
(0.00399642347 0 0)
(0.00448518763 0 0)
(-0.00316725393 0 0)
(-0.00777425082 0 0)
(-0.00516311229 0 0)
(-0.00217833732 0 0)
(-0.000209079483 0 0)
(-3.49803873e-05 0 0)
(0.00110757664 0 0)
(0.00571652942 0 0)
(0.00820028068 0 0)
(0.0087122594 0 0)
(0.00531620002 0 0)
(0.00326850763 0 0)
(0.00861966846 0 0)
(0.00978324671 0 0)
(0.00321891108 0 0)
(0.000795826434 0 0)
(0.00616615906 0 0)
(0.00812557439 0 0)
(0.00204263899 0 0)
(0.000300338322 0 0)
(0.00594998144 0 0)
(0.0076378805 0 0)
(0.00151453339 0 0)
(-9.76470741e-05 0 0)
(0.00592246393 0 0)
(0.0081891844 0 0)
(0.00206588132 0 0)
(0.000430734009 0 0)
(0.00701841031 0 0)
(0.0096152115 0 0)
(0.0039420055 0 0)
(0.0029015561 0 0)
(0.00927913925 0 0)
(0.011731821 0 0)
(0.00633872188 0 0)
(0.00557412132 0 0)
(0.012245991 0 0)
(0.0149693862 0 0)
(0.0100038117 0 0)
(0.00986938071 0 0)
(0.0167188801 0 0)
(0.0194823007 0 0)
(0.0127233914 0 0)
(0.0106308791 0 0)
(0.0171645356 0 0)
(0.0212355093 0 0)
(0.0246490648 0 0)
(0.0227756195 0 0)
(0.0220012457 0 0)
(0.0292051595 0 0)
(0.0322737976 0 0)
(0.0262214655 0 0)
(0.0266004551 0 0)
(0.0343468948 0 0)
(0.0368922991 0 0)
(0.031198537 0 0)
(0.0325265599 0 0)
(0.0396532423 0 0)
(0.0417335786 0 0)
(0.0454573564 0 0)
(0.048643917 0 0)
(0.0533691147 0 0)
(0.0616379175 0 0)
(0.0667052359 0 0)
(0.0627535781 0 0)
(0.0615314408 0 0)
(0.0673934998 0 0)
(0.0720452014 0 0)
(0.0758115617 0 0)
(0.0789099893 0 0)
(0.0845581629 0 0)
(0.0944771291 0 0)
(0.101235553 0 0)
(0.0970388695 0 0)
(0.0954637395 0 0)
(0.102010662 0 0)
(0.108401355 0 0)
(0.113425967 0 0)
(0.119633486 0 0)
(0.116017535 0 0)
(0.114295304 0 0)
(0.126054479 0 0)
(0.136778337 0 0)
(0.137519887 0 0)
(0.139394754 0 0)
(0.146076989 0 0)
(0.150305934 0 0)
(0.152394163 0 0)
(0.155579606 0 0)
(0.1616306 0 0)
(0.171626163 0 0)
(0.193058367 0 0)
(0.212919804 0 0)
(0.211998944 0 0)
(0.21182558 0 0)
(0.210297405 0 0)
(0.212730272 0 0)
(0.225975016 0 0)
(0.239029433 0 0)
(0.248924799 0 0)
(0.258437526 0 0)
(0.273583743 0 0)
(0.285747207 0 0)
(0.292173892 0 0)
(0.298379476 0 0)
(0.310959717 0 0)
(0.328584333 0 0)
(0.343422238 0 0)
(0.350727783 0 0)
(0.358222961 0 0)
(0.371383704 0 0)
(0.392335698 0 0)
(0.411329212 0 0)
(0.421067057 0 0)
(0.428247477 0 0)
(0.443455025 0 0)
(0.467387636 0 0)
(0.520844682 0 0)
(0.565737078 0 0)
(0.554691853 0 0)
(0.55118312 0 0)
(0.568520134 0 0)
(0.57373041 0 0)
(0.579416847 0 0)
(0.597151482 0 0)
(0.622965267 0 0)
(0.668585599 0 0)
(0.705387715 0 0)
(0.699345 0 0)
(0.700817163 0 0)
(0.71668554 0 0)
(0.722552154 0 0)
(0.766493961 0 0)
(0.819038455 0 0)
(0.830786059 0 0)
(0.836724452 0 0)
(0.83206785 0 0)
(0.837618127 0 0)
(0.890224048 0 0)
(0.93584747 0 0)
(0.950356512 0 0)
(0.972585267 0 0)
(1.02273083 0 0)
(1.06555639 0 0)
(1.09875655 0 0)
(1.14529192 0 0)
(1.17146677 0 0)
(1.18523188 0 0)
(1.20347004 0 0)
(1.23109871 0 0)
(1.2592711 0 0)
(1.28352555 0 0)
(1.31046097 0 0)
(1.33532404 0 0)
(1.35434753 0 0)
(1.37078757 0 0)
(1.39468532 0 0)
(1.41965607 0 0)
(1.45250663 0 0)
(1.52406259 0 0)
(1.59067044 0 0)
(1.61799991 0 0)
(1.61961783 0 0)
(1.60274696 0 0)
(1.62303607 0 0)
(1.65177821 0 0)
(1.66715849 0 0)
(1.68401716 0 0)
(1.70100639 0 0)
(1.72753386 0 0)
(1.73497385 0 0)
(1.72022412 0 0)
(1.74250847 0 0)
(1.77747183 0 0)
(1.80312722 0 0)
(1.8309048 0 0)
(1.87234012 0 0)
(1.92546776 0 0)
(1.93842054 0 0)
(1.92367086 0 0)
(1.93147277 0 0)
(1.95155705 0 0)
(1.96428702 0 0)
(1.98913672 0 0)
(1.99499498 0 0)
(1.97848383 0 0)
(1.97858966 0 0)
(1.96314836 0 0)
(1.9836171 0 0)
(2.029881 0 0)
(2.08881602 0 0)
(2.10561908 0 0)
(2.09351256 0 0)
(2.10989939 0 0)
(2.15504903 0 0)
(2.19660599 0 0)
(2.19296799 0 0)
(2.2120557 0 0)
(2.23007022 0 0)
(2.24094714 0 0)
(2.27651931 0 0)
(2.32030798 0 0)
(2.35057742 0 0)
(2.35803054 0 0)
(2.31166257 0 0)
(2.24903869 0 0)
(2.23364577 0 0)
(2.23613647 0 0)
(2.19913098 0 0)
(2.21947296 0 0)
(2.23115551 0 0)
(2.22692496 0 0)
(2.22253536 0 0)
(2.16752973 0 0)
(2.15293183 0 0)
(2.19139655 0 0)
(2.23983412 0 0)
(2.23405097 0 0)
(2.19055415 0 0)
(2.19469461 0 0)
(2.20945309 0 0)
(2.20918921 0 0)
(2.21367446 0 0)
(2.19874271 0 0)
(2.14606873 0 0)
(2.11054651 0 0)
(2.1117541 0 0)
(2.1338715 0 0)
(2.17430702 0 0)
(2.16185742 0 0)
(2.10688239 0 0)
(2.09033153 0 0)
(2.09879455 0 0)
(2.11439779 0 0)
(2.10234554 0 0)
(2.04444224 0 0)
(2.02235931 0 0)
(2.0503415 0 0)
(2.08355712 0 0)
(2.12350403 0 0)
(2.15733602 0 0)
(2.15020299 0 0)
(2.11941531 0 0)
(2.05443647 0 0)
(1.99868157 0 0)
(1.98051782 0 0)
(1.96565388 0 0)
(1.92334693 0 0)
(1.90649471 0 0)
(1.88481982 0 0)
(1.82930899 0 0)
(1.7953018 0 0)
(1.76645425 0 0)
(1.7504659 0 0)
(1.72834498 0 0)
(1.67409651 0 0)
(1.63786933 0 0)
(1.60727842 0 0)
(1.59011338 0 0)
(1.56853849 0 0)
(1.51723366 0 0)
(1.4782451 0 0)
(1.44722571 0 0)
(1.43128748 0 0)
(1.41072389 0 0)
(1.36054257 0 0)
(1.32158042 0 0)
(1.29298465 0 0)
(1.26354911 0 0)
(1.24297573 0 0)
(1.22122721 0 0)
(1.18558387 0 0)
(1.14142874 0 0)
(1.10559831 0 0)
(1.07944599 0 0)
(1.06599942 0 0)
(1.05053339 0 0)
(1.00999661 0 0)
(0.971607392 0 0)
(0.944720837 0 0)
(0.931942183 0 0)
(0.920204301 0 0)
(0.88712607 0 0)
(0.861499426 0 0)
(0.840524294 0 0)
(0.811167252 0 0)
(0.778244019 0 0)
(0.757080986 0 0)
(0.73928834 0 0)
(0.711767779 0 0)
(0.685095833 0 0)
(0.663440371 0 0)
(0.647515451 0 0)
(0.627571941 0 0)
(0.603550581 0 0)
(0.577370086 0 0)
(0.556169937 0 0)
(0.543013464 0 0)
(0.532589943 0 0)
(0.510043682 0 0)
(0.493102491 0 0)
(0.477657725 0 0)
(0.458156792 0 0)
(0.440516397 0 0)
(0.422958051 0 0)
(0.414447213 0 0)
(0.406956968 0 0)
(0.389141477 0 0)
(0.36611268 0 0)
(0.349115286 0 0)
(0.337312716 0 0)
(0.329843192 0 0)
(0.314627619 0 0)
(0.301539579 0 0)
(0.289113574 0 0)
(0.276701411 0 0)
(0.266341155 0 0)
(0.253098702 0 0)
(0.254340334 0 0)
(0.260388001 0 0)
(0.248016235 0 0)
(0.228679473 0 0)
(0.215847448 0 0)
(0.205397721 0 0)
(0.199678176 0 0)
(0.1879651 0 0)
(0.171853234 0 0)
(0.15876321 0 0)
(0.145913138 0 0)
(0.14393589 0 0)
(0.130534987 0 0)
(0.122879164 0 0)
(0.125674183 0 0)
(0.123721295 0 0)
(0.116902979 0 0)
)
;

boundaryField
{
    closed
    {
        type            noSlip;
    }
    open
    {
        type            inletOutlet;
        inletValue      nonuniform List<vector> 0();
        value           nonuniform List<vector> 0();
    }
    sides
    {
        type            empty;
    }
    procBoundary0to1
    {
        type            processor;
        value           uniform (0.133275876 0 0);
    }
}


// ************************************************************************* //
