/*--------------------------------*- C++ -*----------------------------------*\
| =========                 |                                                 |
| \\      /  F ield         | OpenFOAM: The Open Source CFD Toolbox           |
|  \\    /   O peration     | Version:  2306                                  |
|   \\  /    A nd           | Website:  www.openfoam.com                      |
|    \\/     M anipulation  |                                                 |
\*---------------------------------------------------------------------------*/
FoamFile
{
    version     2.0;
    format      ascii;
    arch        "LSB;label=32;scalar=64";
    class       volScalarField;
    location    "0.00164";
    object      mu;
}
// * * * * * * * * * * * * * * * * * * * * * * * * * * * * * * * * * * * * * //

dimensions      [1 -1 -1 0 0 0 0];

internalField   nonuniform List<scalar> 
531
(
1.95174311e-05
1.99894366e-05
2.02961842e-05
1.9881047e-05
1.9660449e-05
1.95107189e-05
1.95169987e-05
2.00190433e-05
2.02847594e-05
1.98928104e-05
1.9595204e-05
1.95764557e-05
2.00613797e-05
2.02874251e-05
1.98893127e-05
1.95926909e-05
1.95733226e-05
2.0072476e-05
2.02874557e-05
1.98825189e-05
1.95850392e-05
1.95682678e-05
2.00729875e-05
2.02872199e-05
1.98756295e-05
1.95735956e-05
1.95493585e-05
2.00412801e-05
2.02874457e-05
1.98826699e-05
1.95688044e-05
1.9568849e-05
2.02999586e-05
2.02912262e-05
1.98368823e-05
1.95374151e-05
1.95639157e-05
2.02902365e-05
2.02914076e-05
2.02762727e-05
1.98966098e-05
1.96748209e-05
1.96085996e-05
1.94798543e-05
1.94832136e-05
2.01106641e-05
2.02945764e-05
1.97937169e-05
1.96280786e-05
1.98456534e-05
2.02889484e-05
1.99096031e-05
1.9530283e-05
1.94984003e-05
1.99650116e-05
2.02965924e-05
1.97879198e-05
1.96894669e-05
2.00111735e-05
2.02931569e-05
1.99136343e-05
1.95950787e-05
1.95563504e-05
2.00000548e-05
2.03039866e-05
1.97902328e-05
1.97214072e-05
2.0151109e-05
2.031264e-05
1.98562691e-05
1.9710252e-05
1.96768758e-05
1.95284433e-05
1.95320039e-05
2.02309409e-05
2.03076712e-05
2.00786994e-05
1.97413798e-05
1.9486735e-05
1.95070046e-05
2.02597001e-05
2.03107126e-05
1.97976666e-05
1.97410419e-05
2.01567567e-05
2.0314035e-05
1.98749665e-05
1.97247134e-05
1.96787356e-05
1.95206314e-05
1.9559965e-05
2.02688624e-05
2.02798098e-05
1.99614099e-05
1.96065096e-05
1.95835689e-05
2.00174156e-05
2.02687167e-05
1.98845198e-05
1.955849e-05
1.95811687e-05
1.9963239e-05
2.0276783e-05
2.02687375e-05
1.99005107e-05
1.95999922e-05
1.94557766e-05
1.9568099e-05
2.00924553e-05
2.02431041e-05
1.98197849e-05
1.95605367e-05
1.96772248e-05
2.02232215e-05
2.02371303e-05
1.97948991e-05
1.95617885e-05
1.96976132e-05
2.02173724e-05
2.01947886e-05
1.97872201e-05
1.97468894e-05
2.02794456e-05
2.02273753e-05
1.97666547e-05
1.95049118e-05
1.97287728e-05
2.02602527e-05
2.0219238e-05
1.97675772e-05
1.94980405e-05
1.97294096e-05
2.02700948e-05
2.02175828e-05
1.97671229e-05
1.94941164e-05
1.97313906e-05
2.02747035e-05
2.02178428e-05
1.97672522e-05
1.9482858e-05
1.9731778e-05
2.02846274e-05
2.0219806e-05
1.97656401e-05
1.94730473e-05
1.97325951e-05
2.02568003e-05
2.01416423e-05
1.97924373e-05
1.97568018e-05
2.03033831e-05
2.02209436e-05
1.97652028e-05
1.94563967e-05
1.97344752e-05
2.02775361e-05
2.01266388e-05
1.97906867e-05
1.97658646e-05
2.03075747e-05
2.02231529e-05
1.97657063e-05
1.94733008e-05
1.97424053e-05
2.02910515e-05
2.01188968e-05
1.97834493e-05
1.97700702e-05
2.03136713e-05
2.0238039e-05
1.97740579e-05
1.95693246e-05
1.95811134e-05
1.94549706e-05
1.9739944e-05
2.02836289e-05
2.0126406e-05
1.97735718e-05
1.97712744e-05
2.03158716e-05
2.02385896e-05
1.97614844e-05
1.94889059e-05
1.97511993e-05
2.02982667e-05
2.01202086e-05
1.97562459e-05
1.97719643e-05
2.03169669e-05
2.02439463e-05
1.96831395e-05
1.94308867e-05
1.97485087e-05
2.02976611e-05
2.01241974e-05
1.97387694e-05
1.97730254e-05
2.03187539e-05
2.02523166e-05
1.96681223e-05
1.94273962e-05
1.97518259e-05
2.02973337e-05
2.01531601e-05
1.9737401e-05
1.97748154e-05
2.03180309e-05
2.02694984e-05
1.96960199e-05
1.94510319e-05
1.97538636e-05
2.03057735e-05
2.02854439e-05
1.97553621e-05
1.95067124e-05
1.97531853e-05
2.02962622e-05
2.02995032e-05
1.97747037e-05
1.95385098e-05
1.95323666e-05
1.97561252e-05
2.02993256e-05
2.03012327e-05
1.97520473e-05
1.94944746e-05
1.97541768e-05
2.0284413e-05
2.03016466e-05
1.97562923e-05
1.95225549e-05
1.97568103e-05
2.02733477e-05
2.03024369e-05
1.97596428e-05
1.95234124e-05
1.9758952e-05
2.0259158e-05
2.03023992e-05
1.97622855e-05
1.95139615e-05
1.96671869e-05
2.02336895e-05
2.03086377e-05
1.97541492e-05
1.97747986e-05
2.01792758e-05
2.02999444e-05
1.97656669e-05
1.95161607e-05
1.96239431e-05
2.02159084e-05
2.02994904e-05
1.97955156e-05
1.95513984e-05
1.96067736e-05
2.0203261e-05
2.02971059e-05
1.98219809e-05
1.95929432e-05
1.95986296e-05
2.01882252e-05
2.0297616e-05
1.98259914e-05
1.96704842e-05
1.9633854e-05
1.95198177e-05
1.95179403e-05
2.00734992e-05
2.02979712e-05
1.97785229e-05
1.97693366e-05
1.99952727e-05
2.02950168e-05
1.97780852e-05
1.97714415e-05
2.00090817e-05
2.0284682e-05
1.98070915e-05
1.9534998e-05
1.95141799e-05
2.00733671e-05
2.02870239e-05
1.98295247e-05
1.9551311e-05
1.95084722e-05
2.00218983e-05
2.02948904e-05
1.97866377e-05
1.97292456e-05
1.99583349e-05
2.02958591e-05
1.97760756e-05
1.9744969e-05
1.99850166e-05
2.02803441e-05
1.98157925e-05
1.95454872e-05
1.95180206e-05
2.00451339e-05
2.02852305e-05
1.98395458e-05
1.95692256e-05
1.95358307e-05
2.00432888e-05
2.02872616e-05
1.98287158e-05
1.95472164e-05
1.95216305e-05
2.00522248e-05
2.02851709e-05
1.98157134e-05
1.95131879e-05
1.968175e-05
2.02386464e-05
1.98475797e-05
1.9725031e-05
1.99258594e-05
2.02988756e-05
2.00032922e-05
1.97309303e-05
1.94985523e-05
1.97486713e-05
2.02555876e-05
1.98226508e-05
1.97448648e-05
1.99552239e-05
2.02798321e-05
1.98514761e-05
1.94888158e-05
1.94204362e-05
1.9955154e-05
2.02965973e-05
1.97712733e-05
1.9654969e-05
1.99468065e-05
2.03021991e-05
1.97834647e-05
1.97498321e-05
2.00014739e-05
2.02978008e-05
1.98612495e-05
1.97282575e-05
1.9550699e-05
1.95524091e-05
2.00836548e-05
2.02883856e-05
1.9777291e-05
1.94580445e-05
1.97521532e-05
2.02777435e-05
1.97897487e-05
1.965011e-05
1.99582975e-05
2.02939819e-05
1.97716539e-05
1.96946084e-05
2.0011302e-05
2.02811485e-05
1.98136842e-05
1.94300885e-05
1.94097791e-05
2.00360144e-05
2.02980627e-05
1.97673382e-05
1.96268713e-05
1.99938951e-05
2.03006073e-05
1.97716269e-05
1.96906409e-05
2.00566814e-05
2.02830989e-05
1.98099976e-05
1.9446616e-05
1.94529564e-05
2.01452515e-05
2.03098327e-05
1.97812645e-05
1.97206184e-05
2.00926264e-05
2.03023167e-05
1.98643185e-05
1.97368295e-05
1.95353083e-05
1.95419658e-05
2.02780307e-05
2.02813089e-05
1.98309609e-05
1.95084987e-05
1.95259218e-05
2.02760802e-05
2.02832929e-05
1.98130594e-05
1.94942211e-05
1.95151376e-05
2.02863697e-05
2.02795786e-05
1.98175539e-05
1.95098452e-05
1.95362078e-05
2.02768832e-05
2.02992248e-05
1.98143059e-05
1.96438028e-05
1.9460905e-05
1.94838244e-05
2.01994422e-05
2.03007795e-05
2.02508809e-05
1.97657639e-05
1.93923962e-05
1.96146205e-05
2.02906666e-05
1.9789409e-05
1.96443855e-05
2.03161982e-05
2.02984273e-05
1.97760751e-05
1.95785932e-05
1.97164027e-05
2.0306098e-05
2.03014259e-05
1.9787813e-05
1.94075921e-05
1.96417122e-05
2.02983908e-05
1.97850647e-05
1.95888013e-05
2.02811108e-05
2.03057179e-05
1.97797938e-05
1.96286103e-05
2.0269189e-05
2.0306216e-05
1.97981885e-05
1.96643269e-05
2.02858793e-05
2.02855203e-05
1.98151944e-05
1.94383673e-05
1.94408228e-05
2.02933856e-05
2.02946307e-05
1.9774922e-05
1.96133587e-05
1.97588882e-05
2.02863673e-05
2.02993766e-05
1.98009756e-05
1.94010763e-05
1.94025065e-05
2.02649462e-05
2.02775869e-05
1.98212511e-05
1.94648567e-05
1.94654932e-05
2.02697833e-05
2.02800944e-05
1.98061707e-05
1.94391839e-05
1.94399506e-05
2.02716554e-05
2.02783704e-05
1.98028335e-05
1.94416349e-05
1.94453403e-05
2.02683675e-05
2.03009285e-05
1.97761528e-05
1.96153721e-05
2.02816446e-05
2.02889747e-05
1.97934282e-05
1.94693781e-05
1.94923012e-05
2.02801872e-05
2.02891068e-05
2.02874776e-05
1.97907155e-05
1.96321389e-05
1.94501421e-05
1.9456563e-05
2.02745618e-05
2.02775587e-05
1.97800539e-05
1.94149032e-05
1.94281843e-05
2.02833198e-05
2.03021318e-05
1.97707327e-05
1.9643212e-05
2.02917691e-05
2.02877906e-05
1.97681781e-05
1.94243759e-05
1.94457358e-05
2.02851916e-05
2.03057501e-05
1.97758788e-05
1.96500315e-05
2.02931131e-05
2.03115078e-05
1.97676167e-05
1.96836849e-05
2.03052611e-05
2.02972981e-05
1.97716945e-05
1.94874931e-05
1.95022478e-05
2.03056636e-05
2.02861432e-05
1.97818307e-05
1.94929389e-05
1.95164987e-05
2.03091048e-05
2.0289212e-05
1.97786149e-05
1.94935322e-05
1.95187327e-05
2.03115254e-05
2.02901895e-05
1.97777051e-05
1.94979629e-05
1.9526555e-05
2.03131989e-05
2.02906188e-05
1.977775e-05
1.95037889e-05
1.95350276e-05
2.03146417e-05
)
;

boundaryField
{
    closed
    {
        type            calculated;
        value           nonuniform List<scalar> 0();
    }
    open
    {
        type            calculated;
        value           nonuniform List<scalar> 0();
    }
    sides
    {
        type            empty;
    }
    procBoundary1to0
    {
        type            processor;
        value           uniform 1.95866253e-05;
    }
    procBoundary1to2
    {
        type            processor;
        value           uniform 2.02909735e-05;
    }
}


// ************************************************************************* //
