/*--------------------------------*- C++ -*----------------------------------*\
| =========                 |                                                 |
| \\      /  F ield         | OpenFOAM: The Open Source CFD Toolbox           |
|  \\    /   O peration     | Version:  2306                                  |
|   \\  /    A nd           | Website:  www.openfoam.com                      |
|    \\/     M anipulation  |                                                 |
\*---------------------------------------------------------------------------*/
FoamFile
{
    version     2.0;
    format      ascii;
    arch        "LSB;label=32;scalar=64";
    class       volScalarField;
    location    "0.00154";
    object      prefDPV_T;
}
// * * * * * * * * * * * * * * * * * * * * * * * * * * * * * * * * * * * * * //

dimensions      [1 -1 -1 -1 0 0 0];

internalField   nonuniform List<scalar> 
531
(
6.09805152e-10
6.00545519e-10
5.9074893e-10
5.90197887e-10
5.9033865e-10
6.046776e-10
6.09854828e-10
6.01617572e-10
5.90800745e-10
5.90491599e-10
6.04286342e-10
6.09750217e-10
6.02110582e-10
5.90758844e-10
5.90429811e-10
6.04063992e-10
6.09700892e-10
6.01985321e-10
5.90664203e-10
5.90340739e-10
6.0416429e-10
6.09592931e-10
6.01877091e-10
5.90651246e-10
5.90360052e-10
6.04747629e-10
6.09428316e-10
6.01905601e-10
5.90651159e-10
5.90411707e-10
6.05629884e-10
6.09372378e-10
6.01172203e-10
5.90565223e-10
5.90269421e-10
6.05371521e-10
6.08890897e-10
6.08796334e-10
6.03218248e-10
5.90891973e-10
5.90436925e-10
5.90056609e-10
5.90120974e-10
6.05611445e-10
6.09573239e-10
5.99705218e-10
5.90257728e-10
5.90218843e-10
6.07342796e-10
6.09599608e-10
5.98618044e-10
5.90115549e-10
5.89989383e-10
6.06717338e-10
6.09546995e-10
5.96682185e-10
5.9203951e-10
6.06908776e-10
6.09598161e-10
5.97379818e-10
5.90352358e-10
5.90243706e-10
6.08995971e-10
6.09518846e-10
5.95420198e-10
5.91028176e-10
6.06210646e-10
6.09771123e-10
5.95622304e-10
5.89627534e-10
5.89429071e-10
5.89653078e-10
6.06234145e-10
6.08753573e-10
6.09890227e-10
5.95882572e-10
5.89568402e-10
5.89779428e-10
6.10684455e-10
6.09207949e-10
6.03421545e-10
5.90867725e-10
5.90869527e-10
6.10990558e-10
6.09408343e-10
5.97159793e-10
5.90112278e-10
5.89852144e-10
5.89959061e-10
6.05879726e-10
6.08636993e-10
6.09846778e-10
5.947254e-10
5.89461401e-10
5.896783e-10
6.11287738e-10
6.09320635e-10
5.96758018e-10
5.90681184e-10
5.91685914e-10
6.09723765e-10
6.08340487e-10
6.03209239e-10
5.90977004e-10
5.90700901e-10
5.90269362e-10
5.90530605e-10
6.09782663e-10
6.08874382e-10
5.97754773e-10
5.90248146e-10
5.90371456e-10
6.10432999e-10
6.08954738e-10
5.96684895e-10
5.90002684e-10
5.89897743e-10
6.11219842e-10
6.08667975e-10
5.94568443e-10
5.91307276e-10
6.1086706e-10
6.08996334e-10
5.9559459e-10
5.89626179e-10
5.89607121e-10
6.10555339e-10
6.09134023e-10
5.96127574e-10
5.89757461e-10
5.89704192e-10
6.10680374e-10
6.09115737e-10
5.96355068e-10
5.89810117e-10
5.89747961e-10
6.10902762e-10
6.09126901e-10
5.96452255e-10
5.89850107e-10
5.89795348e-10
6.11052606e-10
6.09220434e-10
5.96204662e-10
5.89752235e-10
5.89514515e-10
6.11799776e-10
6.09007702e-10
5.92904288e-10
5.90523311e-10
6.11037013e-10
6.0925185e-10
5.96295646e-10
5.89791063e-10
5.89548393e-10
6.11899905e-10
6.08844827e-10
5.93587902e-10
5.91030816e-10
6.1234748e-10
6.09007722e-10
5.95733739e-10
5.89986041e-10
5.89752162e-10
6.1172026e-10
6.08792798e-10
5.93352057e-10
5.90832308e-10
6.12322707e-10
6.0878488e-10
5.96056282e-10
5.90487979e-10
5.9035514e-10
5.89673314e-10
5.89426113e-10
6.12166253e-10
6.09001388e-10
5.92615219e-10
5.90612506e-10
6.10838382e-10
6.08989607e-10
6.01184767e-10
5.90103026e-10
5.89843156e-10
6.12134931e-10
6.08787841e-10
5.92569537e-10
5.90694744e-10
6.11641476e-10
6.08958313e-10
5.94718413e-10
5.89557094e-10
5.89364415e-10
6.10601538e-10
6.0864911e-10
5.92742692e-10
5.90728377e-10
6.10980827e-10
6.08786772e-10
5.94227984e-10
5.89359597e-10
5.89216554e-10
6.10181284e-10
6.08584701e-10
5.92240495e-10
5.90525173e-10
6.10470961e-10
6.0865115e-10
5.94068627e-10
5.89375134e-10
5.89436375e-10
6.09542559e-10
6.08872909e-10
5.96048339e-10
5.89729283e-10
5.89694959e-10
6.0940021e-10
6.08508406e-10
5.96940013e-10
5.90391009e-10
5.89799412e-10
5.89761629e-10
6.09670692e-10
6.08760468e-10
5.95905536e-10
5.89753794e-10
5.89819909e-10
6.090938e-10
6.08658143e-10
5.96654087e-10
5.89856254e-10
5.89937656e-10
6.08936547e-10
6.08648332e-10
5.96426957e-10
5.89752083e-10
5.89897244e-10
6.08907312e-10
6.08768479e-10
5.95421575e-10
5.89526913e-10
5.89544339e-10
6.09009522e-10
6.08338922e-10
5.91930273e-10
5.90733023e-10
6.08795803e-10
6.08459989e-10
5.93429309e-10
5.89394676e-10
5.89698628e-10
6.08802051e-10
6.08780709e-10
5.95305495e-10
5.896259e-10
5.8987979e-10
6.08743879e-10
6.08703763e-10
5.96051759e-10
5.89806631e-10
5.90063785e-10
6.08703671e-10
6.08612715e-10
5.95413476e-10
5.90366709e-10
5.90315245e-10
5.89564447e-10
5.8956915e-10
6.08911376e-10
6.08585817e-10
5.91399286e-10
5.90710191e-10
6.08720507e-10
6.08434076e-10
5.91056795e-10
5.90787849e-10
6.08681306e-10
6.08837525e-10
5.92831768e-10
5.893983e-10
5.89819225e-10
6.08796758e-10
6.09341703e-10
5.93411249e-10
5.89283577e-10
5.89488947e-10
6.08844014e-10
6.09207662e-10
5.9105375e-10
5.9058518e-10
6.08813278e-10
6.09377628e-10
5.90794048e-10
5.90748187e-10
6.08723362e-10
6.09255887e-10
5.92124566e-10
5.89408171e-10
5.89974156e-10
6.08768021e-10
6.09514508e-10
5.93580163e-10
5.8955132e-10
5.90109959e-10
6.08718884e-10
6.09541979e-10
5.9327354e-10
5.89459148e-10
5.90071401e-10
6.08676904e-10
6.09706741e-10
5.92496052e-10
5.89262128e-10
5.89829544e-10
6.08787167e-10
6.09937106e-10
5.90828924e-10
5.90864544e-10
6.0844701e-10
6.09633443e-10
5.90954648e-10
5.89134078e-10
5.89791225e-10
6.08809829e-10
6.10113743e-10
5.90692943e-10
5.90838744e-10
6.08410726e-10
6.09729943e-10
5.90805222e-10
5.89073768e-10
5.89749975e-10
6.08807399e-10
6.10313559e-10
5.9066186e-10
5.90770176e-10
6.08614843e-10
6.1014953e-10
5.90434199e-10
5.90884723e-10
6.08427161e-10
6.0952966e-10
5.90985549e-10
5.89271644e-10
5.90173946e-10
6.08538429e-10
6.09694414e-10
5.91701521e-10
5.89233941e-10
5.89956728e-10
6.08756423e-10
6.09820499e-10
5.90503747e-10
5.90662305e-10
6.08583348e-10
6.09696059e-10
5.90091156e-10
5.90613439e-10
6.08423125e-10
6.09390649e-10
5.9059504e-10
5.89005752e-10
5.89722924e-10
6.0890935e-10
6.09591757e-10
5.90331539e-10
5.90495139e-10
6.08665086e-10
6.09401595e-10
5.90081376e-10
5.90624856e-10
6.0841825e-10
6.09001236e-10
5.90790064e-10
5.89415615e-10
5.9018848e-10
6.08882417e-10
6.09093837e-10
5.90514949e-10
5.90733225e-10
6.0861034e-10
6.08652197e-10
5.91603049e-10
5.89511381e-10
5.90219658e-10
6.08722037e-10
6.08708239e-10
5.93189556e-10
5.89546724e-10
5.90218344e-10
6.08802394e-10
6.08634865e-10
5.93642144e-10
5.89586169e-10
5.90228646e-10
6.08859781e-10
6.08610089e-10
5.94226788e-10
5.89731396e-10
5.90201411e-10
6.09019908e-10
6.0857349e-10
5.93394352e-10
5.89990794e-10
5.89646903e-10
5.89879538e-10
6.09852497e-10
6.0823544e-10
6.08804871e-10
5.91246391e-10
5.89176788e-10
5.89487228e-10
6.09805715e-10
6.09156835e-10
5.90446788e-10
5.89993465e-10
6.10450442e-10
6.08953768e-10
5.9033187e-10
5.90284326e-10
6.10129024e-10
6.08867886e-10
5.91869566e-10
5.89173736e-10
5.89397374e-10
6.09818587e-10
6.08970296e-10
5.90770243e-10
5.90260741e-10
6.10457267e-10
6.08757653e-10
5.90690476e-10
5.90399018e-10
6.10344032e-10
6.08588081e-10
5.90818522e-10
5.90626846e-10
6.10143118e-10
6.08641936e-10
5.92321597e-10
5.89329901e-10
5.89519969e-10
6.09705122e-10
6.08685724e-10
5.91109122e-10
5.90626551e-10
6.10125345e-10
6.08558752e-10
5.93049753e-10
5.89593349e-10
5.89752448e-10
6.09451378e-10
6.08678766e-10
5.94356042e-10
5.89518524e-10
5.89656325e-10
6.09441684e-10
6.08720934e-10
5.93817439e-10
5.89385538e-10
5.89524174e-10
6.0940495e-10
6.08767529e-10
5.93379764e-10
5.89250482e-10
5.89344334e-10
6.09567007e-10
6.08561189e-10
5.9101592e-10
5.90476022e-10
6.09891377e-10
6.08663377e-10
5.93176299e-10
5.89258695e-10
5.89651715e-10
6.09861284e-10
6.08187652e-10
6.08418069e-10
5.96215542e-10
5.90124015e-10
5.89586895e-10
5.896322e-10
6.09989591e-10
6.08868987e-10
5.92304816e-10
5.89184376e-10
5.89209613e-10
6.09526855e-10
6.08547663e-10
5.91040295e-10
5.90401939e-10
6.09714497e-10
6.08601296e-10
5.92836988e-10
5.89429843e-10
5.89260723e-10
6.09409438e-10
6.08467873e-10
5.9104755e-10
5.90299886e-10
6.09787794e-10
6.08262412e-10
5.91056179e-10
5.90530579e-10
6.09595444e-10
6.08421638e-10
5.93635344e-10
5.89661769e-10
5.8959239e-10
6.09356777e-10
6.08619493e-10
5.94992414e-10
5.89578219e-10
5.89525414e-10
6.09257511e-10
6.08643961e-10
5.9497457e-10
5.8957264e-10
5.89522919e-10
6.09199113e-10
6.08644436e-10
5.95228702e-10
5.89597206e-10
5.89551105e-10
6.091812e-10
6.0864065e-10
5.95520801e-10
5.89626135e-10
5.89578471e-10
6.09168243e-10
6.08635584e-10
)
;

boundaryField
{
    closed
    {
        type            calculated;
        value           nonuniform List<scalar> 0();
    }
    open
    {
        type            calculated;
        value           nonuniform List<scalar> 0();
    }
    sides
    {
        type            empty;
    }
    procBoundary1to0
    {
        type            processor;
        value           uniform 6.05400573e-10;
    }
    procBoundary1to2
    {
        type            processor;
        value           uniform 5.95696354e-10;
    }
}


// ************************************************************************* //
