/*--------------------------------*- C++ -*----------------------------------*\
| =========                 |                                                 |
| \\      /  F ield         | OpenFOAM: The Open Source CFD Toolbox           |
|  \\    /   O peration     | Version:  2306                                  |
|   \\  /    A nd           | Website:  www.openfoam.com                      |
|    \\/     M anipulation  |                                                 |
\*---------------------------------------------------------------------------*/
FoamFile
{
    version     2.0;
    format      ascii;
    arch        "LSB;label=32;scalar=64";
    class       volScalarField;
    location    "0.00034";
    object      prefDZ_H2;
}
// * * * * * * * * * * * * * * * * * * * * * * * * * * * * * * * * * * * * * //

dimensions      [1 -1 -1 0 0 0 0];

internalField   nonuniform List<scalar> 
531
(
6.35457193e-05
6.3387534e-05
6.16050736e-05
6.21367622e-05
6.35546599e-05
6.33858014e-05
6.16032123e-05
6.21714325e-05
6.35121433e-05
6.34104284e-05
6.12507275e-05
6.23823159e-05
6.33733314e-05
6.19903522e-05
6.22482565e-05
6.3528943e-05
6.30846835e-05
6.15701085e-05
6.2108523e-05
6.35892471e-05
6.34061405e-05
6.20125847e-05
6.23464058e-05
6.26853916e-05
6.25170448e-05
6.22903319e-05
6.22946482e-05
6.24084148e-05
6.2395777e-05
6.23087261e-05
6.23119168e-05
6.23414099e-05
6.23420104e-05
6.2327489e-05
6.23274474e-05
6.23313537e-05
6.23318067e-05
6.2330318e-05
6.23301486e-05
6.23304947e-05
6.23305881e-05
6.23304669e-05
6.23304344e-05
6.23304588e-05
6.23304702e-05
6.23304621e-05
6.23304581e-05
6.23304595e-05
6.23304605e-05
6.23304601e-05
6.23304597e-05
6.23304597e-05
6.23304598e-05
6.23304598e-05
6.23304597e-05
6.23304597e-05
6.23304598e-05
6.23304598e-05
6.23304597e-05
6.23304597e-05
6.23304597e-05
6.23304597e-05
6.23304597e-05
6.23304597e-05
6.23304597e-05
6.23304597e-05
6.23304597e-05
6.23304597e-05
6.23304597e-05
6.23304597e-05
6.23304597e-05
6.23304597e-05
6.23304597e-05
6.23304597e-05
6.23304597e-05
6.23304598e-05
6.23304598e-05
6.23304597e-05
6.23304597e-05
6.23304598e-05
6.23304598e-05
6.23304597e-05
6.23304596e-05
6.23304598e-05
6.23304599e-05
6.23304598e-05
6.23304595e-05
6.23304596e-05
6.233046e-05
6.233046e-05
6.23304595e-05
6.23304595e-05
6.23304599e-05
6.233046e-05
6.23304597e-05
6.23304596e-05
6.23304598e-05
6.23304599e-05
6.23304598e-05
6.23304597e-05
6.23304597e-05
6.23304598e-05
6.23304597e-05
6.23304597e-05
6.23304598e-05
6.23304599e-05
6.23304597e-05
6.23304594e-05
6.23304595e-05
6.23304608e-05
6.23304608e-05
6.23304577e-05
6.23304566e-05
6.23304623e-05
6.23304675e-05
6.23304592e-05
6.23304435e-05
6.23304511e-05
6.23304887e-05
6.23304868e-05
6.23304201e-05
6.23304057e-05
6.23304967e-05
6.233055e-05
6.23304486e-05
6.23303309e-05
6.23304169e-05
6.23306184e-05
6.2330581e-05
6.23302885e-05
6.23302901e-05
6.23305893e-05
6.23306525e-05
6.23303961e-05
6.2330271e-05
6.23304578e-05
6.2330623e-05
6.23305088e-05
6.23303351e-05
6.23303893e-05
6.23305448e-05
6.23305295e-05
6.23304076e-05
6.23304087e-05
6.23304841e-05
6.23304914e-05
6.23304511e-05
6.23304423e-05
6.2330462e-05
6.23304685e-05
6.23304593e-05
6.23304555e-05
6.23304601e-05
6.2330462e-05
6.23304593e-05
6.23304583e-05
6.23304601e-05
6.23304608e-05
6.23304595e-05
6.23304591e-05
6.23304598e-05
6.23304602e-05
6.23304597e-05
6.23304595e-05
6.23304597e-05
6.23304599e-05
6.23304598e-05
6.23304597e-05
6.23304597e-05
6.23304598e-05
6.23304598e-05
6.23304597e-05
6.23304597e-05
6.23304598e-05
6.23304597e-05
6.23304597e-05
6.23304597e-05
6.23304598e-05
6.23304597e-05
6.23304597e-05
6.23304597e-05
6.23304598e-05
6.23304598e-05
6.23304597e-05
6.23304597e-05
6.23304598e-05
6.233046e-05
6.23304596e-05
6.23304592e-05
6.23304596e-05
6.2330461e-05
6.23304609e-05
6.23304574e-05
6.23304567e-05
6.23304624e-05
6.23304666e-05
6.23304596e-05
6.23304473e-05
6.23304507e-05
6.23304778e-05
6.23304806e-05
6.23304483e-05
6.23304267e-05
6.23304422e-05
6.23304956e-05
6.23305086e-05
6.23304776e-05
6.23303837e-05
6.23303501e-05
6.23304883e-05
6.23307019e-05
6.23306287e-05
6.23300499e-05
6.23300033e-05
6.23308972e-05
6.23313321e-05
6.23302566e-05
6.23290966e-05
6.23300451e-05
6.23323228e-05
6.23319214e-05
6.23283127e-05
6.23282039e-05
6.23321968e-05
6.23334215e-05
6.23296802e-05
6.2327241e-05
6.23300429e-05
6.23337226e-05
6.23320295e-05
6.23276667e-05
6.23281257e-05
6.23326988e-05
6.23328192e-05
6.23292659e-05
6.23284391e-05
6.23308217e-05
6.2332111e-05
6.23306692e-05
6.2329231e-05
6.23299165e-05
6.23313285e-05
6.23311566e-05
6.23299199e-05
6.23298944e-05
6.23306026e-05
6.2330795e-05
6.23305901e-05
6.23304486e-05
6.23303835e-05
6.23300255e-05
6.23300832e-05
6.23313161e-05
6.23315842e-05
6.23296049e-05
6.23283156e-05
6.23305637e-05
6.23338787e-05
6.23322344e-05
6.23260958e-05
6.23264078e-05
6.2334963e-05
6.23366906e-05
6.23278875e-05
6.23232644e-05
6.23301648e-05
6.23384632e-05
6.23337913e-05
6.23236734e-05
6.23250699e-05
6.23364018e-05
6.23363455e-05
6.23267377e-05
6.23249009e-05
6.2332466e-05
6.23369812e-05
6.23308407e-05
6.23229412e-05
6.23254778e-05
6.23403696e-05
6.23403536e-05
6.23233654e-05
6.23174341e-05
6.23315345e-05
6.23487411e-05
6.23394383e-05
6.23138986e-05
6.23149113e-05
6.23441522e-05
6.23528331e-05
6.23279693e-05
6.23112632e-05
6.23206073e-05
6.23504768e-05
6.23494043e-05
6.23219277e-05
6.23133476e-05
6.23250781e-05
6.23474121e-05
6.23460308e-05
6.23239968e-05
6.23153716e-05
6.23230149e-05
6.23456692e-05
6.23456811e-05
6.23261557e-05
6.23168706e-05
6.2322938e-05
6.23415954e-05
6.23430524e-05
6.23304497e-05
6.23206325e-05
6.2322024e-05
6.23345854e-05
6.2341969e-05
6.23356784e-05
6.23206498e-05
6.23210039e-05
6.23367261e-05
6.23417995e-05
6.23290938e-05
6.23205941e-05
6.23282589e-05
6.23402373e-05
6.23354806e-05
6.23222254e-05
6.23234258e-05
6.2338271e-05
6.23386789e-05
6.23256999e-05
6.23227929e-05
6.23322205e-05
6.23376972e-05
6.23314787e-05
6.23253014e-05
6.23278126e-05
6.23336165e-05
6.23331664e-05
6.23293765e-05
6.23291441e-05
6.23301776e-05
6.23302624e-05
6.23305244e-05
6.23318002e-05
6.23317399e-05
6.23289655e-05
6.23274718e-05
6.23297198e-05
6.23356126e-05
6.233539e-05
6.23251653e-05
6.23205863e-05
6.23324978e-05
6.2349615e-05
6.23379551e-05
6.23083413e-05
6.23125326e-05
6.23703701e-05
6.23702895e-05
6.22997174e-05
6.22993258e-05
6.24094036e-05
6.24017129e-05
6.22871475e-05
6.22849378e-05
6.26090893e-05
6.24834623e-05
6.21206602e-05
6.22751027e-05
6.36438805e-05
6.35361082e-05
6.23150382e-05
6.18282796e-05
6.21622657e-05
6.23677597e-05
6.36317527e-05
6.35529344e-05
6.10784935e-05
6.12096288e-05
6.3689337e-05
6.37793779e-05
6.37151075e-05
6.09713183e-05
6.11367634e-05
6.39239651e-05
6.40912173e-05
6.37160251e-05
6.07660393e-05
6.09769262e-05
6.38365125e-05
6.3831556e-05
6.36954553e-05
6.36551436e-05
6.36074551e-05
6.35848569e-05
6.3674399e-05
6.37005587e-05
6.38504656e-05
6.39484613e-05
6.41712687e-05
6.44894029e-05
6.50877329e-05
6.46699643e-05
6.42202312e-05
6.38198619e-05
6.34941142e-05
6.3270563e-05
6.31258784e-05
6.29287187e-05
6.27119786e-05
6.24320551e-05
6.22681156e-05
6.21664523e-05
6.21271237e-05
6.16853886e-05
6.19875258e-05
6.06004601e-05
6.51742745e-05
6.98770002e-05
7.1244714e-05
7.35132661e-05
7.20539938e-05
7.48319223e-05
7.3632854e-05
7.88282487e-05
8.01309196e-05
8.41138292e-05
8.8913115e-05
9.51403874e-05
0.000105694582
0.000111489443
0.000116754832
0.000122021407
0.000126833175
0.000130779484
0.000134351458
0.000137467103
0.000140391457
0.000143099795
0.000145670252
0.000148082123
0.000150312655
0.000152456312
0.000154431826
0.000156458435
0.000158162231
0.000159748026
0.000161123678
0.000162408369
0.000163461204
0.000164509452
0.000165425241
0.000166377783
0.000167326428
0.000168275283
0.000169176099
0.000170021619
0.000170857449
0.000171676125
0.000172479729
0.000173240374
0.000173910288
0.000174665958
0.000175328727
0.000176015415
0.00017654223
0.000177123567
0.000177581489
0.000178134211
0.000178562114
0.000179122387
0.000179552206
0.000180101533
0.000180512037
0.000181034742
0.000181401559
0.000181907767
0.000182220836
0.000182655669
0.000182904698
0.000183276296
0.00018350421
0.000183858553
0.000184085229
0.000184415846
0.000184634488
0.000184953463
0.000185196741
0.00018550664
0.000185740697
0.000186027895
0.000186263483
0.000186530311
0.000186749272
0.000186988696
0.000187192257
0.000187401098
0.000187569801
0.000187745434
0.000187906127
0.000188070662
0.000188223238
0.000188378324
0.000188518881
0.000188659427
0.00018878783
0.00018891859
0.000189033576
0.000189153417
0.000189258
0.000189370128
0.000189458964
0.000189559699
0.000189646401
0.000189744721
0.000189826046
0.000189916301
0.000189993419
0.00019007596
0.00019014898
0.000190223907
0.000190286565
0.000190348262
0.000190406603
0.000190462517
0.000190516618
0.000190567279
0.000190617295
0.000190663168
0.000190709312
0.000190750819
)
;

boundaryField
{
    closed
    {
        type            calculated;
        value           nonuniform List<scalar> 0();
    }
    open
    {
        type            calculated;
        value           nonuniform List<scalar> 0();
    }
    sides
    {
        type            empty;
    }
    procBoundary4to3
    {
        type            processor;
        value           uniform 6.21166585e-05;
    }
    procBoundary4to5
    {
        type            processor;
        value           uniform 0.000190793348;
    }
}


// ************************************************************************* //
