/*--------------------------------*- C++ -*----------------------------------*\
| =========                 |                                                 |
| \\      /  F ield         | OpenFOAM: The Open Source CFD Toolbox           |
|  \\    /   O peration     | Version:  2306                                  |
|   \\  /    A nd           | Website:  www.openfoam.com                      |
|    \\/     M anipulation  |                                                 |
\*---------------------------------------------------------------------------*/
FoamFile
{
    version     2.0;
    format      ascii;
    arch        "LSB;label=32;scalar=64";
    class       volScalarField;
    location    "0.00034";
    object      prefDPV_T;
}
// * * * * * * * * * * * * * * * * * * * * * * * * * * * * * * * * * * * * * //

dimensions      [1 -1 -1 -1 0 0 0];

internalField   nonuniform List<scalar> 
531
(
6.09013825e-10
6.12161328e-10
5.89553715e-10
5.9118573e-10
6.08995404e-10
6.12135132e-10
5.89602629e-10
5.91226618e-10
6.09273013e-10
6.12105846e-10
5.89028047e-10
5.97636806e-10
6.12099047e-10
5.90546427e-10
5.91459509e-10
6.08980003e-10
6.09735377e-10
5.89478751e-10
5.90989403e-10
6.08853509e-10
6.11562156e-10
5.90521737e-10
5.91394181e-10
6.04294885e-10
6.01379472e-10
5.94021779e-10
5.94924325e-10
5.99379198e-10
5.99063415e-10
5.96761549e-10
5.96829625e-10
5.97841506e-10
5.97841583e-10
5.97455512e-10
5.97445607e-10
5.97573918e-10
5.97584334e-10
5.97544795e-10
5.97539002e-10
5.97550451e-10
5.97553007e-10
5.97549838e-10
5.97548857e-10
5.97549685e-10
5.97550027e-10
5.9754982e-10
5.97549708e-10
5.97549758e-10
5.97549792e-10
5.9754978e-10
5.9754977e-10
5.97549773e-10
5.97549776e-10
5.97549775e-10
5.97549774e-10
5.97549774e-10
5.97549775e-10
5.97549775e-10
5.97549775e-10
5.97549775e-10
5.97549775e-10
5.97549775e-10
5.97549775e-10
5.97549775e-10
5.97549775e-10
5.97549775e-10
5.97549775e-10
5.97549775e-10
5.97549775e-10
5.97549775e-10
5.97549775e-10
5.97549775e-10
5.97549774e-10
5.97549774e-10
5.97549775e-10
5.97549775e-10
5.97549775e-10
5.97549774e-10
5.97549774e-10
5.97549776e-10
5.97549776e-10
5.97549773e-10
5.97549771e-10
5.97549776e-10
5.9754978e-10
5.97549775e-10
5.97549767e-10
5.97549771e-10
5.97549783e-10
5.97549781e-10
5.97549767e-10
5.97549767e-10
5.9754978e-10
5.97549781e-10
5.97549772e-10
5.97549769e-10
5.97549775e-10
5.97549778e-10
5.97549775e-10
5.97549773e-10
5.97549774e-10
5.97549775e-10
5.97549774e-10
5.97549773e-10
5.97549776e-10
5.97549778e-10
5.97549773e-10
5.97549763e-10
5.97549768e-10
5.97549805e-10
5.97549805e-10
5.97549716e-10
5.97549682e-10
5.9754985e-10
5.97550002e-10
5.97549757e-10
5.97549299e-10
5.9754952e-10
5.97550624e-10
5.97550568e-10
5.9754861e-10
5.97548187e-10
5.97550858e-10
5.97552423e-10
5.97549446e-10
5.97545991e-10
5.97548517e-10
5.97554428e-10
5.97553331e-10
5.97544747e-10
5.97544793e-10
5.97553576e-10
5.97555427e-10
5.97547906e-10
5.9754423e-10
5.97549718e-10
5.97554563e-10
5.97551213e-10
5.97546114e-10
5.97547707e-10
5.97552271e-10
5.97551821e-10
5.97548244e-10
5.97548276e-10
5.97550489e-10
5.97550704e-10
5.97549522e-10
5.97549261e-10
5.9754984e-10
5.97550032e-10
5.9754976e-10
5.9754965e-10
5.97549784e-10
5.97549841e-10
5.97549762e-10
5.97549732e-10
5.97549786e-10
5.97549805e-10
5.97549768e-10
5.97549754e-10
5.97549777e-10
5.97549787e-10
5.97549774e-10
5.97549768e-10
5.97549774e-10
5.97549778e-10
5.97549775e-10
5.97549773e-10
5.97549774e-10
5.97549775e-10
5.97549775e-10
5.97549774e-10
5.97549774e-10
5.97549775e-10
5.97549775e-10
5.97549774e-10
5.97549775e-10
5.97549775e-10
5.97549775e-10
5.97549774e-10
5.97549774e-10
5.97549775e-10
5.97549775e-10
5.97549773e-10
5.97549773e-10
5.97549777e-10
5.97549781e-10
5.97549772e-10
5.97549758e-10
5.9754977e-10
5.97549812e-10
5.97549807e-10
5.97549707e-10
5.97549684e-10
5.97549851e-10
5.97549976e-10
5.97549772e-10
5.97549409e-10
5.9754951e-10
5.97550304e-10
5.97550387e-10
5.97549439e-10
5.97548803e-10
5.97549259e-10
5.97550825e-10
5.97551208e-10
5.97550298e-10
5.97547541e-10
5.97546554e-10
5.97550611e-10
5.97556874e-10
5.9755473e-10
5.97537728e-10
5.97536354e-10
5.97562593e-10
5.97575301e-10
5.97543806e-10
5.97509586e-10
5.9753758e-10
5.97604128e-10
5.97592464e-10
5.97486325e-10
5.97483073e-10
5.97600471e-10
5.97635887e-10
5.97526829e-10
5.97454304e-10
5.9753752e-10
5.97644555e-10
5.9759562e-10
5.97467048e-10
5.97480759e-10
5.97615015e-10
5.97618504e-10
5.97514588e-10
5.97490072e-10
5.97560378e-10
5.97597974e-10
5.97555918e-10
5.97513562e-10
5.97533803e-10
5.97575196e-10
5.97570182e-10
5.97533899e-10
5.97533152e-10
5.97553964e-10
5.97559602e-10
5.97553598e-10
5.97549443e-10
5.97547531e-10
5.97537009e-10
5.975387e-10
5.97574835e-10
5.97582637e-10
5.97524606e-10
5.97486376e-10
5.9755279e-10
5.97649019e-10
5.97601514e-10
5.97419856e-10
5.97429201e-10
5.97680105e-10
5.97729125e-10
5.97473607e-10
5.97333412e-10
5.97541063e-10
5.97778998e-10
5.97646543e-10
5.97345982e-10
5.97388777e-10
5.97720936e-10
5.9771934e-10
5.97439094e-10
5.97383437e-10
5.97608182e-10
5.97737213e-10
5.9756075e-10
5.97323293e-10
5.97400855e-10
5.97832093e-10
5.97831303e-10
5.97336324e-10
5.97149223e-10
5.97580633e-10
5.98058777e-10
5.9780594e-10
5.97034211e-10
5.9706719e-10
5.97935353e-10
5.98166309e-10
5.97475054e-10
5.9694478e-10
5.97250584e-10
5.98104735e-10
5.9807663e-10
5.97290655e-10
5.97015268e-10
5.97388168e-10
5.98023411e-10
5.97986654e-10
5.9735473e-10
5.97082492e-10
5.97325167e-10
5.97976777e-10
5.97977296e-10
5.974207e-10
5.9713146e-10
5.97323157e-10
5.97865667e-10
5.97905994e-10
5.97548733e-10
5.97251452e-10
5.97294958e-10
5.97668821e-10
5.97876192e-10
5.9770026e-10
5.9725209e-10
5.97263204e-10
5.97729962e-10
5.9787145e-10
5.97509326e-10
5.97250091e-10
5.9748466e-10
5.97828248e-10
5.97694852e-10
5.97301166e-10
5.97338417e-10
5.97773586e-10
5.97785005e-10
5.97407782e-10
5.97318832e-10
5.97601119e-10
5.97757505e-10
5.97579612e-10
5.9739575e-10
5.97471515e-10
5.97641521e-10
5.97628644e-10
5.97517959e-10
5.97511134e-10
5.97541676e-10
5.97544199e-10
5.97551938e-10
5.97589251e-10
5.97587484e-10
5.97506012e-10
5.97461445e-10
5.97527976e-10
5.97698462e-10
5.97691325e-10
5.97389929e-10
5.97246184e-10
5.97603833e-10
5.98074913e-10
5.97751895e-10
5.96815915e-10
5.96948378e-10
5.98574362e-10
5.98560419e-10
5.96351308e-10
5.96287364e-10
5.99393509e-10
5.99212613e-10
5.94510562e-10
5.95037326e-10
6.03073919e-10
6.00937573e-10
5.90812185e-10
5.91306223e-10
6.09325242e-10
6.09510327e-10
5.91055511e-10
5.89998498e-10
5.90575257e-10
5.98141047e-10
6.08774633e-10
6.11696959e-10
5.87862405e-10
5.88091513e-10
6.09588404e-10
6.08871623e-10
6.1209066e-10
5.86833861e-10
5.87107365e-10
6.09036631e-10
6.07574143e-10
6.09074311e-10
5.84545907e-10
5.84606139e-10
6.04253384e-10
6.02806262e-10
6.01619638e-10
6.00328678e-10
5.98469241e-10
5.97033297e-10
5.94822485e-10
5.93134325e-10
5.90639579e-10
5.88662305e-10
5.86227552e-10
5.84311303e-10
5.83315216e-10
5.80151147e-10
5.76731078e-10
5.72824165e-10
5.68310745e-10
5.63424203e-10
5.58148253e-10
5.54247359e-10
5.51234339e-10
5.46088615e-10
5.39412458e-10
5.30621109e-10
5.22351489e-10
5.10759703e-10
5.06003566e-10
4.81301499e-10
4.72509521e-10
4.52665004e-10
4.4637819e-10
4.24766296e-10
4.25705788e-10
4.01701593e-10
4.00228147e-10
3.71570993e-10
3.61622065e-10
3.39130215e-10
3.186728e-10
2.9334532e-10
2.5619452e-10
2.35179858e-10
2.14683677e-10
1.95180097e-10
1.76302255e-10
1.60499889e-10
1.4493951e-10
1.31445779e-10
1.17943713e-10
1.05468198e-10
9.32316013e-11
8.17562717e-11
7.08202185e-11
6.0484418e-11
5.09728056e-11
4.14073897e-11
3.35153715e-11
2.64503604e-11
2.05553742e-11
1.53033481e-11
1.11907987e-11
7.37429884e-12
4.3093643e-12
1.27241052e-12
-1.6472105e-12
-4.39273626e-12
-6.86271038e-12
-9.04430332e-12
-1.10337752e-11
-1.2832941e-11
-1.45124395e-11
-1.59351038e-11
-1.71371741e-11
-1.83088354e-11
-1.93873432e-11
-2.04251839e-11
-2.11537241e-11
-2.18910993e-11
-2.24947882e-11
-2.31253905e-11
-2.36319444e-11
-2.42166055e-11
-2.46860264e-11
-2.52370038e-11
-2.56631753e-11
-2.61703599e-11
-2.65475886e-11
-2.70179233e-11
-2.73438506e-11
-2.77528864e-11
-2.80278815e-11
-2.83914917e-11
-2.86403608e-11
-2.89950151e-11
-2.92361193e-11
-2.95730788e-11
-2.97971647e-11
-3.01348491e-11
-3.03742032e-11
-3.07017975e-11
-3.09270434e-11
-3.12395014e-11
-3.14700139e-11
-3.17725342e-11
-3.19855175e-11
-3.22629185e-11
-3.246036e-11
-3.27142149e-11
-3.28945376e-11
-3.31299187e-11
-3.33017784e-11
-3.35244977e-11
-3.36884804e-11
-3.38994951e-11
-3.40618582e-11
-3.4269051e-11
-3.44227815e-11
-3.46177781e-11
-3.4760822e-11
-3.49428321e-11
-3.50777289e-11
-3.52496738e-11
-3.53810131e-11
-3.55494869e-11
-3.56799651e-11
-3.58429049e-11
-3.59675401e-11
-3.61216105e-11
-3.62419051e-11
-3.63869464e-11
-3.65032667e-11
-3.66399543e-11
-3.67539632e-11
-3.68843859e-11
-3.69945747e-11
-3.7117555e-11
-3.72239911e-11
-3.73399925e-11
-3.74427503e-11
-3.75522136e-11
-3.76513629e-11
-3.77547154e-11
)
;

boundaryField
{
    closed
    {
        type            calculated;
        value           nonuniform List<scalar> 0();
    }
    open
    {
        type            calculated;
        value           nonuniform List<scalar> 0();
    }
    sides
    {
        type            empty;
    }
    procBoundary4to3
    {
        type            processor;
        value           uniform 5.91164442e-10;
    }
    procBoundary4to5
    {
        type            processor;
        value           uniform -3.78503226e-11;
    }
}


// ************************************************************************* //
