/*--------------------------------*- C++ -*----------------------------------*\
| =========                 |                                                 |
| \\      /  F ield         | OpenFOAM: The Open Source CFD Toolbox           |
|  \\    /   O peration     | Version:  2306                                  |
|   \\  /    A nd           | Website:  www.openfoam.com                      |
|    \\/     M anipulation  |                                                 |
\*---------------------------------------------------------------------------*/
FoamFile
{
    version     2.0;
    format      ascii;
    arch        "LSB;label=32;scalar=64";
    class       volScalarField;
    location    "0.00152";
    object      alpha;
}
// * * * * * * * * * * * * * * * * * * * * * * * * * * * * * * * * * * * * * //

dimensions      [1 -1 -1 0 0 0 0];

internalField   nonuniform List<scalar> 
531
(
3.6802414e-05
3.6828804e-05
3.68018116e-05
3.53540253e-05
3.50269381e-05
3.51943373e-05
3.49404543e-05
3.50097657e-05
3.68120326e-05
3.68169809e-05
3.53508015e-05
3.52761063e-05
3.68293833e-05
3.68018812e-05
3.54336996e-05
3.5355653e-05
3.68457691e-05
3.67928069e-05
3.58082621e-05
3.51626326e-05
3.52708977e-05
3.68049301e-05
3.68093983e-05
3.51814843e-05
3.52184261e-05
3.68231198e-05
3.67939502e-05
3.68174198e-05
3.48586638e-05
3.49194125e-05
3.68180561e-05
3.67886119e-05
3.68207116e-05
3.56693841e-05
3.44702774e-05
3.51248651e-05
3.68101514e-05
3.68044057e-05
3.68097565e-05
3.51313398e-05
3.51208344e-05
3.6827955e-05
3.67936569e-05
3.682647e-05
3.57506258e-05
3.49761569e-05
3.5252295e-05
3.68048336e-05
3.68040208e-05
3.53968752e-05
3.51489558e-05
3.4963099e-05
3.50324101e-05
3.6838508e-05
3.67978329e-05
3.68367539e-05
3.54522125e-05
3.50463197e-05
3.68200888e-05
3.68107812e-05
3.53249126e-05
3.52728714e-05
3.68382831e-05
3.68140505e-05
3.52656669e-05
3.54554986e-05
3.68481457e-05
3.57155025e-05
3.50956217e-05
3.68479691e-05
3.68223767e-05
3.54327829e-05
3.52271732e-05
3.68570849e-05
3.68045002e-05
3.57108923e-05
3.51718866e-05
3.53484957e-05
3.68073012e-05
3.68343638e-05
3.60893655e-05
3.52646425e-05
3.52322228e-05
3.68507107e-05
3.67901768e-05
3.56854383e-05
3.51400911e-05
3.54634177e-05
3.4882118e-05
3.52917353e-05
3.68084702e-05
3.68278258e-05
3.68067128e-05
3.68220518e-05
3.68026626e-05
3.54394226e-05
3.47796671e-05
3.50664755e-05
3.68002183e-05
3.68336464e-05
3.52024842e-05
3.51617019e-05
3.68203176e-05
3.68210123e-05
3.52293286e-05
3.54194883e-05
3.68413439e-05
3.57198907e-05
3.50926045e-05
3.68313098e-05
3.68178567e-05
3.53029933e-05
3.52208811e-05
3.68428313e-05
3.68086711e-05
3.51484292e-05
3.52849655e-05
3.6849857e-05
3.6803924e-05
3.68472476e-05
3.57307296e-05
3.49839079e-05
3.51808846e-05
3.6824134e-05
3.68271881e-05
3.55028353e-05
3.50341626e-05
3.51773053e-05
3.68236233e-05
3.68338373e-05
3.54099069e-05
3.53044267e-05
3.6839383e-05
3.68218189e-05
3.5495251e-05
3.5472722e-05
3.68503806e-05
3.68131176e-05
3.57305495e-05
3.54716289e-05
3.52924022e-05
3.52742898e-05
3.6834175e-05
3.68186875e-05
3.51055587e-05
3.51955205e-05
3.68453782e-05
3.68120924e-05
3.68417162e-05
3.51983834e-05
3.48691796e-05
3.68259513e-05
3.68042794e-05
3.53658865e-05
3.5350122e-05
3.68329217e-05
3.67960765e-05
3.53126881e-05
3.54224205e-05
3.68447853e-05
3.67937444e-05
3.68412719e-05
3.55702703e-05
3.50962629e-05
3.51309901e-05
3.5043635e-05
3.68201288e-05
3.68141563e-05
3.51596535e-05
3.51767726e-05
3.68091987e-05
3.68012467e-05
3.51387438e-05
3.53634477e-05
3.68213147e-05
3.67878026e-05
3.68184514e-05
3.55423818e-05
3.47291247e-05
3.51821075e-05
3.67911398e-05
3.68056707e-05
3.51977189e-05
3.51200726e-05
3.68085555e-05
3.68100727e-05
3.68070704e-05
3.68200314e-05
3.53701173e-05
3.50468867e-05
3.51971758e-05
3.52639282e-05
3.50692998e-05
3.5567402e-05
3.68348915e-05
3.68135129e-05
3.68278781e-05
3.68202804e-05
3.57083181e-05
3.53634567e-05
3.51460275e-05
3.5153014e-05
3.68537934e-05
3.68135296e-05
3.68464002e-05
3.53354633e-05
3.52324687e-05
3.68347919e-05
3.68144883e-05
3.68343577e-05
3.57604456e-05
3.49919019e-05
3.51776029e-05
3.68201496e-05
3.6816479e-05
3.53858233e-05
3.4909157e-05
3.50711199e-05
3.67973805e-05
3.68289361e-05
3.5078225e-05
3.5186309e-05
3.68269678e-05
3.68271104e-05
3.68294573e-05
3.55500739e-05
3.47911491e-05
3.56983088e-05
3.68152744e-05
3.68353525e-05
3.68167626e-05
3.53832502e-05
3.54426545e-05
3.68555881e-05
3.57469594e-05
3.51338444e-05
3.68469205e-05
3.68300133e-05
3.56883933e-05
3.53829083e-05
3.53290257e-05
3.53163308e-05
3.68550737e-05
3.6819857e-05
3.59108908e-05
3.53891151e-05
3.52787001e-05
3.54068548e-05
3.5149917e-05
3.54898232e-05
3.68408592e-05
3.68222107e-05
3.68324746e-05
3.55323204e-05
3.55158093e-05
3.68538596e-05
3.68155222e-05
3.68501944e-05
3.5860372e-05
3.50788376e-05
3.51474127e-05
3.68414831e-05
3.6823736e-05
3.54930976e-05
3.49839806e-05
3.51702039e-05
3.68159789e-05
3.6832996e-05
3.52830504e-05
3.5350029e-05
3.68188844e-05
3.68149641e-05
3.68053805e-05
3.57472618e-05
3.50761009e-05
3.53659926e-05
3.47933275e-05
3.50233302e-05
3.68036131e-05
3.68156554e-05
3.6799303e-05
3.6810635e-05
3.67922553e-05
3.53725203e-05
3.47444923e-05
3.50510855e-05
3.67937325e-05
3.6815602e-05
3.52200091e-05
3.53051995e-05
3.68108755e-05
3.68010832e-05
3.68075546e-05
3.57411034e-05
3.50911106e-05
3.53841461e-05
3.49224559e-05
3.50743331e-05
3.68056102e-05
3.67990327e-05
3.67991262e-05
3.51180171e-05
3.49937738e-05
3.68314583e-05
3.67930903e-05
3.68282366e-05
3.67918425e-05
3.50961806e-05
3.50107888e-05
3.68311038e-05
3.67963733e-05
3.6822545e-05
3.67910407e-05
3.53100522e-05
3.50036475e-05
3.51835271e-05
3.49572141e-05
3.50605479e-05
3.68049827e-05
3.68029044e-05
3.53302859e-05
3.54193791e-05
3.68230868e-05
3.68113159e-05
3.68203331e-05
3.57706592e-05
3.50960408e-05
3.53488112e-05
3.49197137e-05
3.51562568e-05
3.68469107e-05
3.68267968e-05
3.68371265e-05
3.54388689e-05
3.54157698e-05
3.68457266e-05
3.68277836e-05
3.68425043e-05
3.55083773e-05
3.48493971e-05
3.51744821e-05
3.6842589e-05
3.68325182e-05
3.51801854e-05
3.53205974e-05
3.68547605e-05
3.68440655e-05
3.68438894e-05
3.56913224e-05
3.49090557e-05
3.51837982e-05
3.46202965e-05
3.47771266e-05
3.68850046e-05
3.68878869e-05
3.68994726e-05
3.68978304e-05
3.69110876e-05
3.69098956e-05
3.4933876e-05
3.41250524e-05
3.47048016e-05
3.69978028e-05
3.70345847e-05
3.7011025e-05
3.4701333e-05
3.46102699e-05
3.71378568e-05
3.71214734e-05
3.71495905e-05
3.70620483e-05
3.50466691e-05
3.70498477e-05
3.70675602e-05
3.46174402e-05
3.47653627e-05
3.69689332e-05
3.69428743e-05
3.68782159e-05
3.44740744e-05
3.43889862e-05
3.6791507e-05
3.67453423e-05
3.6707963e-05
3.66963234e-05
3.66516486e-05
3.66511292e-05
3.66119517e-05
3.66146747e-05
3.65841392e-05
3.65904925e-05
3.65717656e-05
3.65874837e-05
3.65889359e-05
3.66269993e-05
3.66736418e-05
3.67665774e-05
3.69632483e-05
3.72974431e-05
3.70678987e-05
3.68983695e-05
3.66979763e-05
3.65418384e-05
3.63708874e-05
3.62382636e-05
3.60991469e-05
3.59968095e-05
3.58554397e-05
3.57223084e-05
3.55815369e-05
3.55626636e-05
3.55436007e-05
3.54392807e-05
3.52994327e-05
3.52050669e-05
3.51066065e-05
3.50200096e-05
3.49749219e-05
3.47224056e-05
3.45807315e-05
3.41915817e-05
3.41796751e-05
3.36505828e-05
3.38084925e-05
3.31545015e-05
3.6570089e-05
3.54364789e-05
3.56408888e-05
3.46195475e-05
3.45681309e-05
3.37501283e-05
3.34848736e-05
3.28077698e-05
3.23821562e-05
3.17397594e-05
3.13714028e-05
3.12916706e-05
3.12113734e-05
3.11272143e-05
3.10409355e-05
3.09546906e-05
3.08653534e-05
3.08174896e-05
3.08220503e-05
3.08733927e-05
3.18465948e-05
3.32159823e-05
3.4393161e-05
3.46018593e-05
3.45209529e-05
3.83989742e-05
3.95049283e-05
4.11203763e-05
4.23382846e-05
4.36139087e-05
4.4519379e-05
4.58669925e-05
4.68705069e-05
4.83842553e-05
4.94826418e-05
5.1116741e-05
5.22051074e-05
5.38099009e-05
5.48218187e-05
5.63302393e-05
5.72310065e-05
5.85983801e-05
5.9378703e-05
6.06208518e-05
6.12995172e-05
6.24354409e-05
6.30672487e-05
6.41675523e-05
6.46965589e-05
6.56493496e-05
6.6057829e-05
6.68859569e-05
6.71962604e-05
6.79249786e-05
6.81651179e-05
6.88701203e-05
6.90650547e-05
6.96854922e-05
6.98343814e-05
7.03981458e-05
7.05109759e-05
7.09882936e-05
7.11416087e-05
7.16360364e-05
7.15534941e-05
7.19588827e-05
7.22202812e-05
7.27744076e-05
7.25713522e-05
7.28702259e-05
7.32707485e-05
7.42474926e-05
7.32188098e-05
7.34450804e-05
7.435528e-05
7.50010717e-05
7.37129327e-05
7.40540464e-05
7.44195646e-05
7.51772842e-05
7.41433142e-05
7.43816957e-05
7.48280405e-05
7.54523075e-05
7.46748234e-05
7.49131505e-05
7.51875051e-05
7.57239293e-05
7.51793398e-05
7.53234336e-05
7.54958194e-05
7.59729753e-05
7.5582868e-05
7.56802044e-05
7.57575613e-05
7.61751481e-05
7.58919749e-05
7.59553986e-05
7.5986702e-05
7.63389023e-05
7.61319286e-05
7.61736429e-05
7.619222e-05
7.64745684e-05
7.63374005e-05
7.63576974e-05
)
;

boundaryField
{
    closed
    {
        type            calculated;
        value           nonuniform List<scalar> 0();
    }
    open
    {
        type            calculated;
        value           nonuniform List<scalar> 0();
    }
    sides
    {
        type            empty;
    }
    procBoundary4to3
    {
        type            processor;
        value           uniform 3.68383086e-05;
    }
    procBoundary4to5
    {
        type            processor;
        value           uniform 7.63779968e-05;
    }
}


// ************************************************************************* //
