/*--------------------------------*- C++ -*----------------------------------*\
| =========                 |                                                 |
| \\      /  F ield         | OpenFOAM: The Open Source CFD Toolbox           |
|  \\    /   O peration     | Version:  2306                                  |
|   \\  /    A nd           | Website:  www.openfoam.com                      |
|    \\/     M anipulation  |                                                 |
\*---------------------------------------------------------------------------*/
FoamFile
{
    version     2.0;
    format      ascii;
    arch        "LSB;label=32;scalar=64";
    class       volScalarField;
    location    "0.00152";
    object      p;
}
// * * * * * * * * * * * * * * * * * * * * * * * * * * * * * * * * * * * * * //

dimensions      [1 -1 -2 0 0 0 0];

internalField   nonuniform List<scalar> 
531
(
101314.49
101314.494
101314.5
101314.498
101314.507
101314.516
101314.532
101314.546
101314.549
101314.566
101314.578
101314.598
101314.614
101314.638
101314.657
101314.679
101314.698
101314.724
101314.746
101314.78
101314.817
101314.837
101314.872
101314.902
101314.936
101314.967
101315.008
101315.049
101315.09
101315.138
101315.171
101315.218
101315.263
101315.29
101315.371
101315.437
101315.474
101315.531
101315.591
101315.648
101315.721
101315.775
101315.84
101315.908
101315.978
101316.055
101316.137
101316.197
101316.269
101316.333
101316.423
101316.516
101316.604
101316.671
101316.755
101316.84
101316.92
101317.023
101317.104
101317.196
101317.284
101317.38
101317.468
101317.564
101317.659
101317.761
101317.847
101317.943
101318.045
101318.127
101318.224
101318.321
101318.418
101318.508
101318.606
101318.703
101318.805
101318.912
101319.003
101319.104
101319.207
101319.311
101319.417
101319.517
101319.623
101319.727
101319.83
101319.939
101320.052
101320.162
101320.262
101320.367
101320.475
101320.583
101320.691
101320.792
101320.922
101321.045
101321.152
101321.265
101321.409
101321.52
101321.616
101321.717
101321.821
101321.931
101322.023
101322.123
101322.227
101322.313
101322.407
101322.501
101322.596
101322.683
101322.773
101322.864
101322.958
101323.034
101323.116
101323.198
101323.28
101323.369
101323.458
101323.515
101323.61
101323.652
101323.757
101323.838
101323.902
101323.983
101324.035
101324.119
101324.189
101324.262
101324.336
101324.412
101324.484
101324.558
101324.632
101324.709
101324.803
101324.88
101324.953
101325.029
101325.078
101325.168
101325.244
101325.322
101325.402
101325.466
101325.568
101325.638
101325.723
101325.8
101325.892
101325.979
101326.065
101326.153
101326.251
101326.334
101326.421
101326.512
101326.591
101326.704
101326.812
101326.909
101326.999
101327.096
101327.2
101327.307
101327.402
101327.499
101327.601
101327.71
101327.806
101327.905
101328.005
101328.1
101328.231
101328.346
101328.45
101328.558
101328.667
101328.793
101328.901
101329.014
101329.128
101329.243
101329.359
101329.499
101329.627
101329.761
101329.902
101330.027
101330.158
101330.288
101330.42
101330.553
101330.69
101330.831
101330.986
101331.131
101331.259
101331.401
101331.547
101331.688
101331.862
101332.004
101332.156
101332.309
101332.465
101332.637
101332.812
101332.95
101333.114
101333.265
101333.463
101333.652
101333.827
101334.008
101334.203
101334.418
101334.619
101334.824
101335.039
101335.264
101335.518
101335.762
101336.021
101336.284
101336.558
101336.852
101337.156
101337.435
101337.737
101338.065
101338.357
101338.671
101339.001
101339.343
101339.707
101340.071
101340.413
101340.775
101341.154
101341.561
101341.994
101342.436
101342.899
101343.369
101343.812
101344.278
101344.756
101345.256
101345.804
101346.315
101346.851
101347.397
101347.964
101348.58
101349.211
101349.779
101350.377
101350.998
101351.701
101352.406
101353.086
101353.776
101354.521
101355.278
101356.012
101356.757
101357.519
101358.306
101359.114
101359.938
101360.799
101361.668
101362.492
101363.325
101364.175
101365.041
101365.921
101366.823
101367.826
101368.826
101369.779
101370.738
101371.757
101372.784
101373.714
101374.68
101375.659
101376.665
101377.671
101378.683
101379.732
101380.792
101381.719
101382.689
101383.664
101384.653
101385.724
101386.662
101387.633
101388.608
101389.584
101390.574
101391.638
101392.564
101393.521
101394.48
101395.437
101396.39
101397.411
101398.425
101399.45
101400.469
101401.353
101402.27
101403.196
101404.107
101404.914
101405.746
101406.563
101407.367
101408.161
101408.94
101409.722
101410.49
101411.12
101411.777
101412.411
101413.332
101413.847
101414.265
101414.704
101415.11
101415.467
101415.853
101416.193
101416.414
101416.624
101416.744
101416.797
101417.257
101417.323
101417.326
101417.276
101417.142
101416.951
101416.696
101416.365
101415.954
101415.508
101414.978
101414.362
101413.662
101412.872
101411.915
101410.808
101409.592
101408.334
101407.065
101405.692
101404.109
101402.344
101400.635
101398.845
101396.947
101394.934
101392.719
101390.477
101388.19
101385.67
101383.05
101380.501
101377.876
101375.163
101372.216
101369.194
101366.258
101363.267
101360.228
101357.15
101354.044
101350.927
101347.806
101344.696
101341.608
101338.554
101335.545
101332.594
101329.714
101326.912
101324.207
101321.606
101319.13
101316.78
101314.54
101312.427
101310.425
101308.532
101306.746
101305.075
101303.515
101302.065
101300.717
101299.471
101298.318
101297.254
101296.267
101295.353
101294.511
101293.728
101293.01
101292.348
101291.751
101291.211
101290.759
101290.395
101290.14
101290.075
101290.127
101290.384
101290.412
101290.56
101290.579
101290.848
101291.171
101291.681
101292.286
101292.912
101293.498
101293.892
101294.111
101293.632
101292.21
101289.466
101284.889
101277.781
101267.193
101251.809
101229.754
101197.692
101150.283
101089.444
101006.672
100855.771
100557.641
100689.244
100837.349
100949.645
101034.067
101098.525
101148.208
101186.662
101216.663
101240.21
101258.916
101273.897
101286.067
101296.014
101304.243
101311.092
101316.848
101321.698
101325.812
101329.309
101332.295
101334.85
101337.041
101338.935
101340.575
101341.997
101343.228
101344.295
101345.217
101346.009
101346.683
101347.25
101347.692
101348.081
101348.531
101348.52
101347.606
101347.417
101348.667
101347.656
101342.657
101341.661
101348.182
101351.284
101349.735
101347.357
101353.852
101369.614
101377.967
101391.559
101420.375
101451.934
101479.409
101498.859
101519.929
101554.556
101579.881
101593.828
101607.603
101622.04
101632.967
101636.641
101638.715
101644.238
101647.009
101642.496
101636.945
101637.043
101636.709
101628.518
101618.941
101616.541
101615.169
101605.842
101594.961
101591.856
101590.795
101582.356
101572.047
101569.508
101569.733
101562.508
)
;

boundaryField
{
    closed
    {
        type            zeroGradient;
    }
    open
    {
        type            waveTransmissive;
        gamma           1.25;
        fieldInf        101325;
        lInf            1;
        value           nonuniform List<scalar> 0();
    }
    sides
    {
        type            empty;
    }
    procBoundary4to3
    {
        type            processor;
        value           uniform 101314.486;
    }
    procBoundary4to5
    {
        type            processor;
        value           uniform 101552.613;
    }
}


// ************************************************************************* //
