/*--------------------------------*- C++ -*----------------------------------*\
| =========                 |                                                 |
| \\      /  F ield         | OpenFOAM: The Open Source CFD Toolbox           |
|  \\    /   O peration     | Version:  2306                                  |
|   \\  /    A nd           | Website:  www.openfoam.com                      |
|    \\/     M anipulation  |                                                 |
\*---------------------------------------------------------------------------*/
FoamFile
{
    version     2.0;
    format      ascii;
    arch        "LSB;label=32;scalar=64";
    class       volScalarField;
    location    "0.00152";
    object      prefDZ_H2O;
}
// * * * * * * * * * * * * * * * * * * * * * * * * * * * * * * * * * * * * * //

dimensions      [1 -1 -1 0 0 0 0];

internalField   nonuniform List<scalar> 
531
(
-7.74479106e-07
-7.73967945e-07
-7.74808615e-07
-7.36068606e-07
-7.33496307e-07
-7.34720639e-07
-7.3270239e-07
-7.33129397e-07
-7.74415577e-07
-7.7467578e-07
-7.36077472e-07
-7.35522889e-07
-7.73671019e-07
-7.74384104e-07
-7.36639576e-07
-7.36283558e-07
-7.7313999e-07
-7.744877e-07
-7.50196888e-07
-7.34638611e-07
-7.35274481e-07
-7.74471626e-07
-7.74563885e-07
-7.34709936e-07
-7.35086899e-07
-7.74875777e-07
-7.74913448e-07
-7.75366953e-07
-7.32039401e-07
-7.32491138e-07
-7.75645048e-07
-7.74231506e-07
-7.76142721e-07
-7.38976462e-07
-7.28927733e-07
-7.34207521e-07
-7.75703913e-07
-7.74632021e-07
-7.75338647e-07
-7.34264152e-07
-7.34233836e-07
-7.74774212e-07
-7.73805508e-07
-7.75081936e-07
-7.41638271e-07
-7.33031326e-07
-7.35277774e-07
-7.74380808e-07
-7.74593823e-07
-7.3653918e-07
-7.34559652e-07
-7.32759208e-07
-7.33510766e-07
-7.74886515e-07
-7.7437903e-07
-7.74963197e-07
-7.37004601e-07
-7.33515734e-07
-7.73735771e-07
-7.745755e-07
-7.35763553e-07
-7.35461151e-07
-7.73869366e-07
-7.74113559e-07
-7.35194386e-07
-7.36893335e-07
-7.74217467e-07
-7.41817802e-07
-7.33801077e-07
-7.72900505e-07
-7.74460721e-07
-7.36472769e-07
-7.35092805e-07
-7.72809672e-07
-7.74508844e-07
-7.43417035e-07
-7.34719294e-07
-7.35817345e-07
-7.74531727e-07
-7.73778086e-07
-7.61798011e-07
-7.35118995e-07
-7.35260229e-07
-7.7319846e-07
-7.74715908e-07
-7.39158223e-07
-7.34612249e-07
-7.36817355e-07
-7.32398361e-07
-7.35365859e-07
-7.75462469e-07
-7.73711773e-07
-7.75578449e-07
-7.73595675e-07
-7.75590079e-07
-7.36721524e-07
-7.31515616e-07
-7.33480075e-07
-7.7494109e-07
-7.74388885e-07
-7.34918469e-07
-7.34393359e-07
-7.74304837e-07
-7.74083315e-07
-7.34991792e-07
-7.36624696e-07
-7.74360878e-07
-7.39854457e-07
-7.33840495e-07
-7.73362954e-07
-7.74393932e-07
-7.35522667e-07
-7.35017034e-07
-7.74074631e-07
-7.74281449e-07
-7.34183815e-07
-7.35571261e-07
-7.74486496e-07
-7.73540929e-07
-7.74716784e-07
-7.40594484e-07
-7.32923148e-07
-7.34546413e-07
-7.7408721e-07
-7.7447812e-07
-7.37316738e-07
-7.33415306e-07
-7.34465113e-07
-7.74234473e-07
-7.74084531e-07
-7.36512253e-07
-7.35623869e-07
-7.73556416e-07
-7.73800101e-07
-7.37124374e-07
-7.37133387e-07
-7.72950254e-07
-7.73603286e-07
-7.44548445e-07
-7.37117218e-07
-7.35455126e-07
-7.35382573e-07
-7.74352263e-07
-7.741485e-07
-7.33924549e-07
-7.34770339e-07
-7.74904298e-07
-7.74345591e-07
-7.75105738e-07
-7.3473497e-07
-7.32032977e-07
-7.74090391e-07
-7.74625111e-07
-7.3614806e-07
-7.36237971e-07
-7.73900479e-07
-7.74035551e-07
-7.35635654e-07
-7.3682913e-07
-7.74165885e-07
-7.73720486e-07
-7.74399727e-07
-7.3803645e-07
-7.33909998e-07
-7.34231466e-07
-7.33462815e-07
-7.74558434e-07
-7.74538445e-07
-7.34508445e-07
-7.3466349e-07
-7.74551453e-07
-7.74235604e-07
-7.34381098e-07
-7.36319327e-07
-7.75089404e-07
-7.73853136e-07
-7.75477903e-07
-7.37833296e-07
-7.31112417e-07
-7.34698299e-07
-7.75122814e-07
-7.74518749e-07
-7.34960533e-07
-7.34222442e-07
-7.7441621e-07
-7.7473731e-07
-7.74256089e-07
-7.74731763e-07
-7.36305607e-07
-7.3352798e-07
-7.34821316e-07
-7.35330606e-07
-7.33707989e-07
-7.37916826e-07
-7.74125053e-07
-7.73433956e-07
-7.73485717e-07
-7.73629919e-07
-7.39470092e-07
-7.36205987e-07
-7.34160922e-07
-7.34379779e-07
-7.74453998e-07
-7.74239095e-07
-7.74393997e-07
-7.35941134e-07
-7.34998251e-07
-7.74388384e-07
-7.73438511e-07
-7.74656962e-07
-7.45505758e-07
-7.33019268e-07
-7.345392e-07
-7.74285011e-07
-7.74691011e-07
-7.363415e-07
-7.32514928e-07
-7.33593729e-07
-7.75037825e-07
-7.74324888e-07
-7.33922939e-07
-7.34571788e-07
-7.75229312e-07
-7.73685213e-07
-7.75446367e-07
-7.3759397e-07
-7.31538866e-07
-7.40371432e-07
-7.74872414e-07
-7.73055201e-07
-7.74170731e-07
-7.36142696e-07
-7.36785135e-07
-7.73933324e-07
-7.45593106e-07
-7.34050459e-07
-7.72686629e-07
-7.74023922e-07
-7.39669984e-07
-7.36365364e-07
-7.35651931e-07
-7.35756443e-07
-7.7375844e-07
-7.73824038e-07
-7.5525914e-07
-7.36297757e-07
-7.3535037e-07
-7.36436589e-07
-7.34284028e-07
-7.37158081e-07
-7.74165524e-07
-7.73347291e-07
-7.73854919e-07
-7.37512406e-07
-7.37462037e-07
-7.7387572e-07
-7.73316034e-07
-7.74163186e-07
-7.52477353e-07
-7.33541818e-07
-7.34259999e-07
-7.73807829e-07
-7.74614987e-07
-7.3713419e-07
-7.33045323e-07
-7.34336686e-07
-7.74549789e-07
-7.7408213e-07
-7.35556804e-07
-7.35994888e-07
-7.74355269e-07
-7.73248905e-07
-7.74651051e-07
-7.44323598e-07
-7.33978979e-07
-7.36137918e-07
-7.3162384e-07
-7.33214661e-07
-7.75635109e-07
-7.74429577e-07
-7.75765094e-07
-7.74121507e-07
-7.75766823e-07
-7.36243635e-07
-7.31293775e-07
-7.33439838e-07
-7.75008903e-07
-7.7457874e-07
-7.35146018e-07
-7.35700788e-07
-7.74586583e-07
-7.73525868e-07
-7.74799189e-07
-7.40424975e-07
-7.34071828e-07
-7.36433145e-07
-7.32634922e-07
-7.33799957e-07
-7.75195097e-07
-7.74736387e-07
-7.75306153e-07
-7.34169184e-07
-7.33224364e-07
-7.74797815e-07
-7.75093782e-07
-7.74780171e-07
-7.75232152e-07
-7.33869933e-07
-7.33348817e-07
-7.74442781e-07
-7.74989783e-07
-7.74292271e-07
-7.75185104e-07
-7.35717214e-07
-7.33351002e-07
-7.34625611e-07
-7.32908159e-07
-7.33543958e-07
-7.74537894e-07
-7.74988427e-07
-7.35967809e-07
-7.36665129e-07
-7.74230673e-07
-7.73305856e-07
-7.74608175e-07
-7.46725369e-07
-7.33859911e-07
-7.35946796e-07
-7.3229585e-07
-7.34238933e-07
-7.74559018e-07
-7.73976939e-07
-7.74637843e-07
-7.367596e-07
-7.36465223e-07
-7.74159519e-07
-7.73410644e-07
-7.75083319e-07
-7.37272866e-07
-7.31715379e-07
-7.34252091e-07
-7.74443655e-07
-7.75066302e-07
-7.3445205e-07
-7.35543835e-07
-7.74063055e-07
-7.73131806e-07
-7.74950385e-07
-7.40586255e-07
-7.3212261e-07
-7.34321081e-07
-7.29529633e-07
-7.30715763e-07
-7.74922792e-07
-7.7530524e-07
-7.74657242e-07
-7.75565686e-07
-7.7420654e-07
-7.76232216e-07
-7.31625163e-07
-7.2464987e-07
-7.29183319e-07
-7.74086022e-07
-7.73477512e-07
-7.74666982e-07
-7.28481886e-07
-7.27683821e-07
-7.71657424e-07
-7.72986979e-07
-7.70438242e-07
-7.72596779e-07
-7.30430177e-07
-7.6919593e-07
-7.68971941e-07
-7.25640589e-07
-7.26595917e-07
-7.65934229e-07
-7.6381543e-07
-7.64533042e-07
-7.2244682e-07
-7.21161398e-07
-7.58921682e-07
-7.57382588e-07
-7.55982e-07
-7.54170537e-07
-7.52705304e-07
-7.50630728e-07
-7.49095079e-07
-7.46823466e-07
-7.45189643e-07
-7.42778729e-07
-7.41043911e-07
-7.38626185e-07
-7.36808514e-07
-7.34591746e-07
-7.32820595e-07
-7.31164237e-07
-7.30320656e-07
-7.31232363e-07
-7.28068231e-07
-7.25459561e-07
-7.22021445e-07
-7.18922576e-07
-7.15062023e-07
-7.11545611e-07
-7.07153767e-07
-7.03281521e-07
-6.98238184e-07
-6.9442468e-07
-6.90053003e-07
-6.88671783e-07
-6.87772114e-07
-6.84782247e-07
-6.79406882e-07
-6.74845959e-07
-6.68474862e-07
-6.62156258e-07
-6.55950409e-07
-6.46072392e-07
-6.40857385e-07
-6.27564564e-07
-6.26498965e-07
-6.08415058e-07
-6.12814893e-07
-5.89290666e-07
-6.3131146e-07
-6.01784889e-07
-6.06447939e-07
-5.78951408e-07
-5.77140454e-07
-5.54749944e-07
-5.47342604e-07
-5.28810719e-07
-5.17357303e-07
-5.00294917e-07
-4.87923648e-07
-4.779197e-07
-4.67890985e-07
-4.57388113e-07
-4.46664524e-07
-4.35852982e-07
-4.24707347e-07
-4.18754803e-07
-4.13069905e-07
-3.87977934e-07
-3.56330081e-07
-3.38007245e-07
-2.87948422e-07
-2.83691392e-07
-3.40576934e-07
-1.51228929e-07
-1.11743312e-07
-5.94933467e-08
-1.83244629e-08
3.43139085e-08
7.14447525e-08
1.30398767e-07
1.72203516e-07
2.4148767e-07
2.89512657e-07
3.70258368e-07
4.22606109e-07
5.11102377e-07
5.65302677e-07
6.57605522e-07
7.10611924e-07
8.00654764e-07
8.49003657e-07
9.32894515e-07
9.75163992e-07
1.04943588e-06
1.08617173e-06
1.15254205e-06
1.18370176e-06
1.24290328e-06
1.26901068e-06
1.32199222e-06
1.34398594e-06
1.39169773e-06
1.41083219e-06
1.45663758e-06
1.47398572e-06
1.51500293e-06
1.53048298e-06
1.56761569e-06
1.58239361e-06
1.61512889e-06
1.62862985e-06
1.65834772e-06
1.67278365e-06
1.70289154e-06
1.70256211e-06
1.72147569e-06
1.76802732e-06
1.8025561e-06
1.74474417e-06
1.75846377e-06
1.87382702e-06
1.93075885e-06
1.78636058e-06
1.7934229e-06
1.97849508e-06
2.01193275e-06
1.84654544e-06
1.85526393e-06
2.01818265e-06
2.02495932e-06
1.91911408e-06
1.89705423e-06
2.03326704e-06
2.03998363e-06
1.96119069e-06
1.93745928e-06
2.04748263e-06
2.05154063e-06
1.98886279e-06
1.96627843e-06
2.05882164e-06
2.06154043e-06
2.00741964e-06
1.9876432e-06
2.06745555e-06
2.06922767e-06
2.02040098e-06
2.00406592e-06
2.07356044e-06
2.07532392e-06
2.02976025e-06
2.01684823e-06
2.07960129e-06
2.0804507e-06
)
;

boundaryField
{
    closed
    {
        type            calculated;
        value           nonuniform List<scalar> 0();
    }
    open
    {
        type            calculated;
        value           nonuniform List<scalar> 0();
    }
    sides
    {
        type            empty;
    }
    procBoundary4to3
    {
        type            processor;
        value           uniform -7.73931813e-07;
    }
    procBoundary4to5
    {
        type            processor;
        value           uniform 2.03775281e-06;
    }
}


// ************************************************************************* //
