/*--------------------------------*- C++ -*----------------------------------*\
| =========                 |                                                 |
| \\      /  F ield         | OpenFOAM: The Open Source CFD Toolbox           |
|  \\    /   O peration     | Version:  2306                                  |
|   \\  /    A nd           | Website:  www.openfoam.com                      |
|    \\/     M anipulation  |                                                 |
\*---------------------------------------------------------------------------*/
FoamFile
{
    version     2.0;
    format      ascii;
    arch        "LSB;label=32;scalar=64";
    class       volScalarField;
    location    "0.0018";
    object      H2O;
}
// * * * * * * * * * * * * * * * * * * * * * * * * * * * * * * * * * * * * * //

dimensions      [0 0 0 0 0 0 0];

internalField   nonuniform List<scalar> 
531
(
0.00492360557
0.00720370799
0.00706197391
0.000960484007
0.00106161093
0.00530155298
0.00693175938
0.00724168418
0.00709217446
0.000931962427
0.00105433976
0.00494900506
0.00711950398
0.00689971049
0.000975938074
0.00105549122
0.00505068395
0.00716395089
0.00689377268
0.00098431707
0.00105199012
0.00508272934
0.00715778513
0.00686123213
0.000993527197
0.0010472979
0.0051937214
0.00717974951
0.00681334099
0.00100188406
0.00105001457
0.00518370248
0.00712398156
0.00675193981
0.00101608115
0.00103192316
0.00562519349
0.00741313549
0.00685399524
0.000941664221
0.00102763174
0.0010150087
0.000954651617
0.0063106309
0.00759810772
0.00762369534
0.00730432235
0.000977499215
0.000975540446
0.00658324153
0.0065636961
0.000988565514
0.0010103328
0.00637906861
0.00738295287
0.00692370254
0.00102577491
0.000992616758
0.00645303567
0.00642488249
0.00101178699
0.00103223095
0.00601723906
0.00717048733
0.00671927788
0.00104579366
0.00100415903
0.00628551092
0.00621634565
0.00103330998
0.00104687637
0.00602670518
0.00688808174
0.00674885114
0.00704770692
0.00644205259
0.0010547477
0.00107307225
0.00483185886
0.00675099459
0.00688724331
0.00600779764
0.00108628994
0.00100685635
0.00625272513
0.0061007837
0.00102702044
0.00107566491
0.00441921747
0.0069042198
0.00688996326
0.00712220794
0.00657073919
0.00105184301
0.0010293109
0.00578735225
0.00704406198
0.00627834089
0.00106030369
0.00101607202
0.00629853582
0.00729835584
0.00648843756
0.00103637253
0.00112479207
0.00102059503
0.00479183435
0.0070302597
0.00718757186
0.00674437154
0.00105282075
0.00100802094
0.00646679279
0.00727278276
0.00646549687
0.00106007872
0.00103885742
0.00640223209
0.00719053332
0.0065857841
0.00107434144
0.00105300257
0.00647557071
0.00644106749
0.00107886834
0.00105719887
0.0065159623
0.00719758568
0.00655211122
0.00106672483
0.00105941038
0.00643632283
0.007263069
0.00663549514
0.00105589158
0.00105554549
0.00662011559
0.0074000244
0.0068890987
0.0010411095
0.00104295281
0.00679287689
0.00682412762
0.001034261
0.00104690228
0.00678667891
0.00744528583
0.00692087844
0.00104373372
0.0010541838
0.0066438225
0.00669572999
0.00104041103
0.00106613062
0.00669963148
0.00731524565
0.00684239109
0.00105036732
0.00107044527
0.00651702274
0.00659623104
0.00104030013
0.00108078642
0.00658064419
0.00718661994
0.00674278937
0.001053493
0.00108103901
0.00631458705
0.00644654165
0.00103451995
0.00109318659
0.00658169231
0.0070670034
0.00688371822
0.00715559053
0.006940073
0.00103096876
0.00105417007
0.00649724417
0.00663079994
0.000991017611
0.00107039614
0.00659107827
0.00724737024
0.00683762624
0.0010190318
0.00105654118
0.00641458495
0.00659064881
0.000981138
0.00106975576
0.00655678223
0.00725273225
0.00686624871
0.00100898549
0.00104979572
0.00642644511
0.00661796615
0.000965763868
0.0010655105
0.00654414655
0.00726116396
0.00687779832
0.00100407312
0.00104998464
0.00637657108
0.00659383396
0.000967847898
0.00107220262
0.00635904927
0.00716321355
0.00663944604
0.00101451818
0.00107340115
0.00597752702
0.00703711155
0.00648969969
0.00102522499
0.00108228279
0.00603426973
0.0069257827
0.00693573254
0.00677970923
0.00101681172
0.00106324522
0.0061536499
0.00717808208
0.00662971545
0.00101157124
0.00106914136
0.00600461534
0.00711335137
0.00657690597
0.00101657358
0.00107264531
0.00597336881
0.00711879419
0.00660993935
0.00101454597
0.0010680233
0.00609529018
0.00717719424
0.00677331238
0.00100915132
0.00106745904
0.00627046226
0.00650961999
0.000981949545
0.00108143236
0.00625224958
0.00716134261
0.00665209912
0.00102056013
0.00106938167
0.00598977195
0.00716002477
0.00661928776
0.00102462406
0.00107039603
0.00605249303
0.00738725976
0.00677101813
0.000923178439
0.0011001549
0.000983124659
0.00695699395
0.00762587923
0.00742219251
0.00719632317
0.000995926216
0.00104255088
0.00665568482
0.00682317865
0.000971134339
0.00106968171
0.00659935522
0.00665669306
0.00100116574
0.00107858342
0.00649176608
0.00726983045
0.00676545777
0.00103089468
0.00106163037
0.00632253194
0.00733385911
0.00684499314
0.00102163266
0.00106968545
0.00657879979
0.00674957386
0.0010070199
0.00108143504
0.00658252677
0.00662732021
0.00102644697
0.00108492573
0.00653162858
0.00725927712
0.00671840279
0.00104301169
0.00106919908
0.00624002911
0.00727243895
0.00668584406
0.00104537613
0.00106865981
0.00635241958
0.00728907726
0.00671329361
0.00104991434
0.00106594279
0.00627535498
0.00741069337
0.00602622354
0.00102748164
0.00558895152
0.00668742712
0.00104778887
0.00108298434
0.0045530172
0.00739421818
0.00650968275
0.00101286951
0.00559470634
0.00687192895
0.00107174363
0.00109826034
0.00541802914
0.00685993636
0.0070937946
0.0062005529
0.00104884523
0.00547639555
0.00676987322
0.00107218644
0.0010921188
0.00669748118
0.00653915392
0.0010904605
0.00112126726
0.00474808627
0.00683540386
0.00678188665
0.00704250762
0.00593191318
0.00104716976
0.00108898432
0.00724213983
0.00678933885
0.00100807985
0.00600706774
0.00714213163
0.00106747744
0.00105931784
0.00690544639
0.00682280044
0.00108807471
0.0010932465
0.00566243872
0.00705457017
0.00709908563
0.00449925205
0.00105693808
0.00649702608
0.00682621254
0.0010740704
0.00108477845
0.00687203469
0.00675341687
0.00109384704
0.00107544863
0.00575907712
0.00750979003
0.00691601109
0.00103771512
0.00107080604
0.00681565281
0.00657791913
0.00111239013
0.00111323174
0.00572622636
0.00679849109
0.00725646885
0.00686240118
0.00104739036
0.00106868793
0.00435634956
0.00728655214
0.00710311568
0.00313215146
0.00106541655
0.00096082176
0.0072867785
0.00759081572
0.00420825556
0.00102931724
0.000926784503
0.00749744599
0.0072922829
0.00103115954
0.00101911016
0.0056723462
0.00700829773
0.00688076181
0.00714095847
0.0050125913
0.00106374294
0.00110752012
0.000839648604
0.00724721375
0.00663251177
0.000804814228
0.0059769148
0.00686723703
0.00101809711
0.00102123742
0.00476434276
0.00705378435
0.00708192486
0.00532265395
0.00104401932
0.00093330233
0.00738383215
0.0064062077
0.000860303758
0.00564275936
0.00699205204
0.000891038692
0.00110971584
0.00690526741
0.00621309638
0.0010654434
0.00114777378
0.00697644779
0.00600318104
0.000986371221
0.00103719478
0.00386366544
0.00709976528
0.0071139878
0.00466029743
0.00106741026
0.000980972928
0.00706533482
0.00706610778
0.0045457986
0.00106391831
0.00114867127
0.00709032214
0.00707083044
0.004543745
0.00105220918
0.00131780021
0.0071816718
0.00715527209
0.00459364984
0.00103653937
0.00155165689
0.00724021591
0.00719838396
0.0045496051
0.00102193615
0.0018928691
0.00726544847
0.00717451592
0.00373371874
0.000929971046
0.00454490588
0.00665622052
0.00364060914
0.00103578876
0.00235191264
0.00735994243
0.00716811664
0.00318688414
0.00106057585
0.0010547408
0.0024653364
0.00722437959
0.00722584531
0.00676561324
0.00411497603
0.000999837459
0.00294982596
0.00740249445
0.00717928886
0.0028269285
0.00144737753
0.00614973703
0.00544036484
0.00102696368
0.000858382715
0.00652536619
0.0071031209
0.00673533681
0.00253994763
0.00109639293
0.00622396055
0.00539594577
0.00104603979
0.00250610881
0.006664292
0.0050012096
0.00108879593
0.000893609671
0.00643945538
0.00696706582
0.00658262044
0.00345882038
0.00104370865
0.00252436628
0.00722550924
0.00706941171
0.00307522376
0.00101739
0.00290623484
0.00727812335
0.00705215217
0.00252388086
0.00100609671
0.00356564638
0.00743166409
0.0069669164
0.000894657426
0.000964193852
0.00539961699
0.00741152678
0.00590142639
0.000983118932
)
;

boundaryField
{
    closed
    {
        type            calculated;
        value           nonuniform List<scalar> 0();
    }
    open
    {
        type            calculated;
        value           nonuniform List<scalar> 0();
    }
    sides
    {
        type            empty;
    }
    procBoundary1to0
    {
        type            processor;
        value           uniform 0.00104126619;
    }
    procBoundary1to2
    {
        type            processor;
        value           uniform 0.000967892184;
    }
}


// ************************************************************************* //
