/*--------------------------------*- C++ -*----------------------------------*\
| =========                 |                                                 |
| \\      /  F ield         | OpenFOAM: The Open Source CFD Toolbox           |
|  \\    /   O peration     | Version:  2306                                  |
|   \\  /    A nd           | Website:  www.openfoam.com                      |
|    \\/     M anipulation  |                                                 |
\*---------------------------------------------------------------------------*/
FoamFile
{
    version     2.0;
    format      ascii;
    arch        "LSB;label=32;scalar=64";
    class       volScalarField;
    location    "0.0018";
    object      mu;
}
// * * * * * * * * * * * * * * * * * * * * * * * * * * * * * * * * * * * * * //

dimensions      [1 -1 -1 0 0 0 0];

internalField   nonuniform List<scalar> 
531
(
1.97870877e-05
1.95176724e-05
1.95668589e-05
2.03062345e-05
2.02945861e-05
1.9784319e-05
1.96110729e-05
1.9504963e-05
1.9556601e-05
2.03042672e-05
2.02771784e-05
1.97914306e-05
1.95470804e-05
1.9621873e-05
2.03111522e-05
2.0281249e-05
1.9784481e-05
1.95319607e-05
1.96237901e-05
2.0314666e-05
2.02808756e-05
1.97821039e-05
1.95340985e-05
1.96347001e-05
2.03170389e-05
2.02804575e-05
1.97766528e-05
1.95265798e-05
1.96507217e-05
2.03163578e-05
2.02799378e-05
1.9778818e-05
1.95456555e-05
1.96716749e-05
2.03159858e-05
2.02676545e-05
1.97686578e-05
1.94452096e-05
1.96371096e-05
2.03020115e-05
2.02894932e-05
2.02920103e-05
2.02757577e-05
1.97702166e-05
1.93818597e-05
1.93738048e-05
1.94842064e-05
2.03077035e-05
2.02643223e-05
1.97294613e-05
1.97348587e-05
2.03308564e-05
2.02734965e-05
1.97599225e-05
1.94563097e-05
1.96132965e-05
2.03108916e-05
2.02812307e-05
1.97653405e-05
1.97493802e-05
2.03378049e-05
2.02861153e-05
1.97530955e-05
1.95298071e-05
1.96813507e-05
2.0317897e-05
2.02863431e-05
1.97578527e-05
1.97465838e-05
2.03395299e-05
2.02947253e-05
1.97523225e-05
1.96258803e-05
1.96721569e-05
1.95717208e-05
1.97388468e-05
2.03199243e-05
2.03042553e-05
1.97885919e-05
1.96711088e-05
1.9626001e-05
1.97417271e-05
2.03195381e-05
2.02935907e-05
1.97524404e-05
1.97434609e-05
2.03382605e-05
2.03015723e-05
1.98073418e-05
1.96203054e-05
1.96250453e-05
1.95464133e-05
1.97314398e-05
2.03233351e-05
2.0286678e-05
1.97544781e-05
1.95729632e-05
1.97502007e-05
2.03238972e-05
2.02875752e-05
1.97445223e-05
1.94859176e-05
1.9736848e-05
2.03116395e-05
2.03122429e-05
2.02831486e-05
1.97876992e-05
1.95776595e-05
1.95242954e-05
1.96738126e-05
2.03291952e-05
2.02903502e-05
1.97430676e-05
1.9494707e-05
1.97452338e-05
2.03169996e-05
2.02991656e-05
1.97483935e-05
1.95229904e-05
1.97261169e-05
2.03123979e-05
2.03075098e-05
1.9752416e-05
1.97573175e-05
2.03310152e-05
2.03037284e-05
1.97457646e-05
1.95206303e-05
1.97378499e-05
2.03131413e-05
2.03077122e-05
1.97512944e-05
1.94983134e-05
1.97103328e-05
2.03121964e-05
2.03076057e-05
1.97150126e-05
1.94511807e-05
1.96250358e-05
2.03024805e-05
2.03121849e-05
1.96573532e-05
1.96473157e-05
2.03111148e-05
2.03067435e-05
1.96591246e-05
1.94355474e-05
1.96144168e-05
2.02970031e-05
2.03137134e-05
1.97072601e-05
1.96905609e-05
2.03042028e-05
2.03085305e-05
1.96880206e-05
1.94803604e-05
1.96407714e-05
2.02971491e-05
2.03176159e-05
1.9748001e-05
1.97237564e-05
2.03009689e-05
2.03108857e-05
1.97272548e-05
1.95243958e-05
1.96741231e-05
2.02947045e-05
2.03202999e-05
1.97518109e-05
1.9756475e-05
2.02927375e-05
2.03106098e-05
1.97273972e-05
1.95651561e-05
1.96269539e-05
1.95349504e-05
1.96081096e-05
2.0290562e-05
2.0318367e-05
1.97496001e-05
1.97123315e-05
2.0286161e-05
2.03096586e-05
1.97239356e-05
1.95035454e-05
1.96425197e-05
2.02868337e-05
2.03222208e-05
1.97517672e-05
1.9725649e-05
2.02819335e-05
2.03110668e-05
1.9735348e-05
1.95017022e-05
1.96329282e-05
2.02849167e-05
2.03235828e-05
1.97512883e-05
1.97164908e-05
2.02787653e-05
2.03114499e-05
1.9739487e-05
1.94988166e-05
1.96290261e-05
2.02839097e-05
2.03257298e-05
1.97505566e-05
1.97244008e-05
2.02782528e-05
2.0313834e-05
1.97418238e-05
1.95323844e-05
1.9708717e-05
2.02879441e-05
2.03178153e-05
1.97492224e-05
1.95753214e-05
1.97479393e-05
2.02858631e-05
2.03199226e-05
1.97507132e-05
1.96129036e-05
1.96094652e-05
1.9662384e-05
2.02961878e-05
2.03149434e-05
1.97417026e-05
1.95273203e-05
1.97117755e-05
2.02872515e-05
2.03203441e-05
1.97492959e-05
1.95494086e-05
1.97295182e-05
2.02892087e-05
2.03190146e-05
1.9749468e-05
1.95475525e-05
1.97186259e-05
2.0289416e-05
2.03178203e-05
1.97473579e-05
1.95276195e-05
1.96639759e-05
2.02870841e-05
2.03301601e-05
1.97513017e-05
1.97521831e-05
2.02806602e-05
2.03131116e-05
1.97440915e-05
1.95330044e-05
1.97044794e-05
2.02872156e-05
2.03181867e-05
1.97545917e-05
1.9533505e-05
1.97162447e-05
2.02908568e-05
2.03020379e-05
1.97516238e-05
1.94543277e-05
1.9665244e-05
2.02651915e-05
2.02992832e-05
2.03019502e-05
1.96022081e-05
1.93721112e-05
1.9443644e-05
1.95205818e-05
2.02851209e-05
2.03070616e-05
1.97035393e-05
1.96478013e-05
2.02796485e-05
2.03145508e-05
1.97220955e-05
1.97037991e-05
2.02855301e-05
2.03066685e-05
1.97455606e-05
1.9495841e-05
1.9666913e-05
2.02895137e-05
2.03109201e-05
1.97500068e-05
1.94738383e-05
1.96399361e-05
2.02868129e-05
2.03261171e-05
1.9729309e-05
1.96719866e-05
2.02856285e-05
2.03200099e-05
1.97274526e-05
1.9713399e-05
2.02930697e-05
2.03088052e-05
1.97423764e-05
1.94995551e-05
1.96824543e-05
2.02948112e-05
2.03153202e-05
1.97499963e-05
1.94951809e-05
1.9693314e-05
2.02975162e-05
2.03176132e-05
1.9750937e-05
1.94895842e-05
1.9684388e-05
2.03025906e-05
2.03101503e-05
1.97444911e-05
1.94476929e-05
1.97448363e-05
2.03003064e-05
1.97505043e-05
1.96934826e-05
2.03179877e-05
2.03028909e-05
1.97909715e-05
1.94538667e-05
1.97290977e-05
2.03158631e-05
1.97438773e-05
1.96306746e-05
2.03210919e-05
2.03176016e-05
1.97530926e-05
1.96347603e-05
1.95559853e-05
1.97495147e-05
2.03196736e-05
1.97584848e-05
1.96646171e-05
2.03152314e-05
2.03273228e-05
1.9688035e-05
1.97427113e-05
2.03248363e-05
2.02993561e-05
1.978492e-05
1.96438232e-05
1.96607323e-05
1.95734785e-05
1.97451987e-05
2.02906898e-05
2.03361033e-05
1.95056101e-05
1.9658101e-05
2.03147786e-05
1.97477565e-05
1.95396962e-05
2.03176448e-05
2.03213811e-05
1.96189081e-05
1.96476497e-05
2.03255251e-05
2.03080637e-05
1.97481853e-05
1.95693533e-05
1.9554196e-05
1.98041423e-05
2.03201523e-05
1.97461926e-05
1.96462822e-05
2.0324287e-05
2.03175443e-05
1.96299536e-05
1.96713144e-05
2.03318052e-05
2.0296774e-05
1.974202e-05
1.94133598e-05
1.96154983e-05
2.03066263e-05
2.03212803e-05
1.96500711e-05
1.97299553e-05
2.03072517e-05
2.02946371e-05
1.97634538e-05
1.96563814e-05
1.95007117e-05
1.96346786e-05
2.03108738e-05
2.02837508e-05
1.98143084e-05
1.94897366e-05
1.95528541e-05
1.9917034e-05
2.02828667e-05
2.02811307e-05
1.94898979e-05
1.93832513e-05
1.98276574e-05
2.02637446e-05
2.02642032e-05
1.94169022e-05
1.94882645e-05
2.0310188e-05
2.02610279e-05
1.97569365e-05
1.95851139e-05
1.96278615e-05
1.95397855e-05
1.9779978e-05
2.02935324e-05
2.02942172e-05
2.02182771e-05
1.9502899e-05
1.97103003e-05
2.0211393e-05
1.97669109e-05
1.96329109e-05
2.03249963e-05
2.02657937e-05
1.97898835e-05
1.95696547e-05
1.95600312e-05
1.97710381e-05
2.02789762e-05
2.01831819e-05
1.94561236e-05
1.97277613e-05
2.02702492e-05
1.97649996e-05
1.95902182e-05
2.02947783e-05
2.01562983e-05
1.9620388e-05
1.97628067e-05
2.02862159e-05
2.01533343e-05
1.9595973e-05
1.97445653e-05
2.03137827e-05
2.02748099e-05
1.98449386e-05
1.95539702e-05
1.95491289e-05
1.98017835e-05
2.028766e-05
2.01766968e-05
1.95657101e-05
1.9565462e-05
1.98112187e-05
2.02961969e-05
2.01541318e-05
1.95572135e-05
1.95638304e-05
1.98108843e-05
2.02936701e-05
2.01325049e-05
1.95260194e-05
1.95349406e-05
1.98075391e-05
2.02917944e-05
2.01022221e-05
1.95059927e-05
1.95201636e-05
1.9809097e-05
2.02896294e-05
2.00582572e-05
1.94972188e-05
1.95281522e-05
1.98640998e-05
2.02625935e-05
1.97930128e-05
1.97039436e-05
1.98744523e-05
2.02877083e-05
2.00016494e-05
1.94647221e-05
1.95304759e-05
1.99131536e-05
2.0279549e-05
2.02774801e-05
1.99881092e-05
1.95111906e-05
1.95101972e-05
1.96667229e-05
1.98395863e-05
2.02903646e-05
1.99331646e-05
1.94500541e-05
1.95263263e-05
1.9948661e-05
2.01158104e-05
1.9752888e-05
1.97688723e-05
2.03366987e-05
2.02403813e-05
1.97465518e-05
1.95523438e-05
1.96774497e-05
1.99797701e-05
2.01645392e-05
1.97573119e-05
1.97767153e-05
2.03175513e-05
1.99833732e-05
1.96995817e-05
1.97940195e-05
2.03247059e-05
2.02534942e-05
1.97471646e-05
1.95991861e-05
1.97276441e-05
1.98892338e-05
2.02916371e-05
1.99811744e-05
1.95106981e-05
1.95642275e-05
1.99244144e-05
2.02743619e-05
1.9938178e-05
1.94919483e-05
1.95701231e-05
1.99816183e-05
2.02665093e-05
1.98722236e-05
1.94373552e-05
1.95992841e-05
2.02679548e-05
2.02632469e-05
1.97630339e-05
1.94451709e-05
1.97547799e-05
2.0297041e-05
)
;

boundaryField
{
    closed
    {
        type            calculated;
        value           nonuniform List<scalar> 0();
    }
    open
    {
        type            calculated;
        value           nonuniform List<scalar> 0();
    }
    sides
    {
        type            empty;
    }
    procBoundary1to0
    {
        type            processor;
        value           uniform 2.0247056e-05;
    }
    procBoundary1to2
    {
        type            processor;
        value           uniform 2.02997124e-05;
    }
}


// ************************************************************************* //
