/*--------------------------------*- C++ -*----------------------------------*\
| =========                 |                                                 |
| \\      /  F ield         | OpenFOAM: The Open Source CFD Toolbox           |
|  \\    /   O peration     | Version:  2306                                  |
|   \\  /    A nd           | Website:  www.openfoam.com                      |
|    \\/     M anipulation  |                                                 |
\*---------------------------------------------------------------------------*/
FoamFile
{
    version     2.0;
    format      ascii;
    arch        "LSB;label=32;scalar=64";
    class       volScalarField;
    location    "0.0018";
    object      prefDZ_H2O;
}
// * * * * * * * * * * * * * * * * * * * * * * * * * * * * * * * * * * * * * //

dimensions      [1 -1 -1 0 0 0 0];

internalField   nonuniform List<scalar> 
531
(
-7.49321891e-07
-7.3556188e-07
-7.35890317e-07
-7.75352747e-07
-7.74184704e-07
-7.46884981e-07
-7.36686313e-07
-7.35236565e-07
-7.35806971e-07
-7.75784673e-07
-7.74637689e-07
-7.49210147e-07
-7.3584968e-07
-7.36831287e-07
-7.75041831e-07
-7.74538974e-07
-7.48485714e-07
-7.35544558e-07
-7.36821171e-07
-7.74856531e-07
-7.74595253e-07
-7.48255271e-07
-7.35562664e-07
-7.36970031e-07
-7.74682358e-07
-7.74668986e-07
-7.47488056e-07
-7.35443538e-07
-7.37196381e-07
-7.74580212e-07
-7.74641763e-07
-7.47575958e-07
-7.35750019e-07
-7.37609857e-07
-7.74390977e-07
-7.75143734e-07
-7.44643872e-07
-7.34395808e-07
-7.36998815e-07
-7.7569621e-07
-7.74759376e-07
-7.74883734e-07
-7.76046942e-07
-7.402539e-07
-7.33251176e-07
-7.33003732e-07
-7.34658045e-07
-7.75088755e-07
-7.75992767e-07
-7.38734825e-07
-7.38621884e-07
-7.7447964e-07
-7.75323659e-07
-7.397057e-07
-7.34443039e-07
-7.36490007e-07
-7.74357393e-07
-7.75411514e-07
-7.39285092e-07
-7.39300856e-07
-7.74023142e-07
-7.74763718e-07
-7.41962424e-07
-7.3546213e-07
-7.37510222e-07
-7.73941006e-07
-7.75148285e-07
-7.40286836e-07
-7.40613969e-07
-7.73691403e-07
-7.74386874e-07
-7.41893433e-07
-7.36930739e-07
-7.37491293e-07
-7.36050346e-07
-7.39080637e-07
-7.73776613e-07
-7.73831748e-07
-7.49919957e-07
-7.37407093e-07
-7.36859243e-07
-7.41902538e-07
-7.73344915e-07
-7.74964893e-07
-7.40441313e-07
-7.41323881e-07
-7.73803251e-07
-7.7384911e-07
-7.52736082e-07
-7.36785551e-07
-7.36828415e-07
-7.35589561e-07
-7.38413518e-07
-7.73749965e-07
-7.74792879e-07
-7.43452341e-07
-7.36111001e-07
-7.40253011e-07
-7.73621275e-07
-7.74958373e-07
-7.40063633e-07
-7.34794325e-07
-7.38761161e-07
-7.74195514e-07
-7.729507e-07
-7.74985179e-07
-7.50162509e-07
-7.36188418e-07
-7.35127555e-07
-7.37550774e-07
-7.73621615e-07
-7.75013962e-07
-7.38965238e-07
-7.34930517e-07
-7.38996105e-07
-7.73760079e-07
-7.74409323e-07
-7.39436485e-07
-7.35332565e-07
-7.38284598e-07
-7.73652399e-07
-7.74046378e-07
-7.39005784e-07
-7.39279044e-07
-7.73223561e-07
-7.7406326e-07
-7.38676467e-07
-7.3526719e-07
-7.38544848e-07
-7.73743782e-07
-7.7395322e-07
-7.39247055e-07
-7.34883539e-07
-7.38148401e-07
-7.73913242e-07
-7.74009106e-07
-7.38151887e-07
-7.34190485e-07
-7.36717691e-07
-7.74311819e-07
-7.74093327e-07
-7.37242164e-07
-7.37208007e-07
-7.74235222e-07
-7.74146419e-07
-7.37202379e-07
-7.33956407e-07
-7.36573409e-07
-7.74384873e-07
-7.73906977e-07
-7.38051565e-07
-7.37908634e-07
-7.74287182e-07
-7.73843425e-07
-7.37639017e-07
-7.34631823e-07
-7.36983962e-07
-7.74289738e-07
-7.73603617e-07
-7.38692827e-07
-7.3841066e-07
-7.74353238e-07
-7.73592506e-07
-7.38228786e-07
-7.35314544e-07
-7.37509703e-07
-7.74295288e-07
-7.73403154e-07
-7.40036516e-07
-7.39235014e-07
-7.74598464e-07
-7.73424963e-07
-7.38294587e-07
-7.35978299e-07
-7.36785437e-07
-7.35507904e-07
-7.36549657e-07
-7.74691535e-07
-7.73815311e-07
-7.38836883e-07
-7.38253171e-07
-7.75333795e-07
-7.73761637e-07
-7.38193219e-07
-7.35023613e-07
-7.3705454e-07
-7.74932317e-07
-7.7370652e-07
-7.39392025e-07
-7.38444906e-07
-7.7555593e-07
-7.7374264e-07
-7.38382488e-07
-7.34997215e-07
-7.36913462e-07
-7.75110285e-07
-7.7377356e-07
-7.39310633e-07
-7.38295744e-07
-7.75832505e-07
-7.73794168e-07
-7.38443477e-07
-7.34950504e-07
-7.36846503e-07
-7.75198692e-07
-7.73728837e-07
-7.39624289e-07
-7.38396399e-07
-7.75814171e-07
-7.73653793e-07
-7.39646e-07
-7.35440459e-07
-7.38074312e-07
-7.74972463e-07
-7.73558514e-07
-7.42176392e-07
-7.36109957e-07
-7.38868269e-07
-7.74866038e-07
-7.73393234e-07
-7.41827813e-07
-7.36610509e-07
-7.36516897e-07
-7.37477435e-07
-7.74774838e-07
-7.737566e-07
-7.40965676e-07
-7.35353952e-07
-7.38094199e-07
-7.75027278e-07
-7.73568059e-07
-7.42003257e-07
-7.35667812e-07
-7.38400748e-07
-7.74918467e-07
-7.7354542e-07
-7.42205693e-07
-7.35645912e-07
-7.38243102e-07
-7.74942391e-07
-7.73633318e-07
-7.41400324e-07
-7.35361276e-07
-7.37363361e-07
-7.75064182e-07
-7.73399149e-07
-7.40315238e-07
-7.38799606e-07
-7.75570549e-07
-7.73539437e-07
-7.40356893e-07
-7.35464092e-07
-7.38004095e-07
-7.74903413e-07
-7.73607183e-07
-7.42154704e-07
-7.35431236e-07
-7.38325129e-07
-7.74773634e-07
-7.7391324e-07
-7.41720367e-07
-7.34513185e-07
-7.37504858e-07
-7.76696246e-07
-7.73553061e-07
-7.75125693e-07
-7.36356897e-07
-7.3311113e-07
-7.34051384e-07
-7.35484186e-07
-7.75286932e-07
-7.7420056e-07
-7.38032434e-07
-7.3727024e-07
-7.75740448e-07
-7.7367474e-07
-7.38289828e-07
-7.38145409e-07
-7.75206153e-07
-7.73706914e-07
-7.3883026e-07
-7.34905714e-07
-7.37480876e-07
-7.74713682e-07
-7.73858676e-07
-7.39966525e-07
-7.34569322e-07
-7.36981636e-07
-7.74896674e-07
-7.7344719e-07
-7.3845792e-07
-7.37503833e-07
-7.75123115e-07
-7.73403336e-07
-7.38340573e-07
-7.38253149e-07
-7.74703827e-07
-7.7357603e-07
-7.38540369e-07
-7.34925868e-07
-7.37676892e-07
-7.74438861e-07
-7.73666265e-07
-7.40497412e-07
-7.34804899e-07
-7.37844101e-07
-7.74351769e-07
-7.73628537e-07
-7.39783791e-07
-7.34680924e-07
-7.37752527e-07
-7.7418726e-07
-7.73813906e-07
-7.4021245e-07
-7.34092438e-07
-7.41817251e-07
-7.74544424e-07
-7.44679238e-07
-7.37982767e-07
-7.73911493e-07
-7.73720749e-07
-7.51702126e-07
-7.34049818e-07
-7.38543747e-07
-7.74437893e-07
-7.44570392e-07
-7.36769045e-07
-7.73517114e-07
-7.73215968e-07
-7.45798346e-07
-7.3685276e-07
-7.35513799e-07
-7.40746315e-07
-7.73863603e-07
-7.45485157e-07
-7.37265674e-07
-7.73626408e-07
-7.73110889e-07
-7.37528644e-07
-7.38696851e-07
-7.731827e-07
-7.73256286e-07
-7.50406033e-07
-7.37264913e-07
-7.37229468e-07
-7.36202484e-07
-7.42426303e-07
-7.74463922e-07
-7.72983506e-07
-7.34928516e-07
-7.37157408e-07
-7.74525654e-07
-7.41971191e-07
-7.35372282e-07
-7.73644377e-07
-7.73684396e-07
-7.36426307e-07
-7.3717872e-07
-7.73202493e-07
-7.73474626e-07
-7.44184335e-07
-7.35900005e-07
-7.35476301e-07
-7.52196791e-07
-7.73741665e-07
-7.38802929e-07
-7.37093883e-07
-7.73421977e-07
-7.73405261e-07
-7.36580534e-07
-7.37638823e-07
-7.72999275e-07
-7.73948077e-07
-7.43499587e-07
-7.3359715e-07
-7.36404368e-07
-7.74276379e-07
-7.73526469e-07
-7.37221911e-07
-7.38521273e-07
-7.73223219e-07
-7.73463258e-07
-7.43940409e-07
-7.37488068e-07
-7.34857225e-07
-7.3711935e-07
-7.7405764e-07
-7.74304551e-07
-7.53213549e-07
-7.34926937e-07
-7.35787084e-07
-7.62051474e-07
-7.74368021e-07
-7.75852633e-07
-7.34855941e-07
-7.33434527e-07
-7.54301025e-07
-7.75260179e-07
-7.76666981e-07
-7.33782864e-07
-7.34744584e-07
-7.74296643e-07
-7.75457691e-07
-7.44215484e-07
-7.36527453e-07
-7.36770897e-07
-7.3569801e-07
-7.48676813e-07
-7.74176181e-07
-7.73551578e-07
-7.78820197e-07
-7.35251825e-07
-7.37989971e-07
-7.79741278e-07
-7.42367698e-07
-7.37032713e-07
-7.74185718e-07
-7.75330173e-07
-7.50361365e-07
-7.36010352e-07
-7.35973072e-07
-7.46604107e-07
-7.74744641e-07
-7.78699982e-07
-7.34414461e-07
-7.39195652e-07
-7.77454333e-07
-7.44491902e-07
-7.36070694e-07
-7.76536396e-07
-7.77325636e-07
-7.37124873e-07
-7.40804923e-07
-7.74299894e-07
-7.77040553e-07
-7.36507779e-07
-7.41962292e-07
-7.74845621e-07
-7.74924255e-07
-7.56644869e-07
-7.3584017e-07
-7.35750164e-07
-7.51156491e-07
-7.74243341e-07
-7.78331425e-07
-7.36031462e-07
-7.35978455e-07
-7.51988986e-07
-7.74120272e-07
-7.77036962e-07
-7.35856033e-07
-7.36013452e-07
-7.5199794e-07
-7.74333914e-07
-7.75736622e-07
-7.35380737e-07
-7.35586872e-07
-7.51644184e-07
-7.7458939e-07
-7.73939343e-07
-7.3506332e-07
-7.35357607e-07
-7.51939859e-07
-7.74835639e-07
-7.7132633e-07
-7.34972067e-07
-7.35574992e-07
-7.57696688e-07
-7.7665627e-07
-7.51777359e-07
-7.38144978e-07
-7.5840568e-07
-7.74682151e-07
-7.6783441e-07
-7.3446504e-07
-7.35551701e-07
-7.61676376e-07
-7.74502715e-07
-7.74625971e-07
-7.66973605e-07
-7.35238857e-07
-7.35390646e-07
-7.37445176e-07
-7.55030728e-07
-7.75126965e-07
-7.63344409e-07
-7.34236734e-07
-7.35620893e-07
-7.64316574e-07
-7.74740535e-07
-7.41108587e-07
-7.45828823e-07
-7.73834369e-07
-7.78098416e-07
-7.38659483e-07
-7.36132683e-07
-7.37747696e-07
-7.66453498e-07
-7.77452631e-07
-7.40677459e-07
-7.46198425e-07
-7.73944401e-07
-7.666755e-07
-7.37794211e-07
-7.48907669e-07
-7.7320848e-07
-7.77343364e-07
-7.39183934e-07
-7.36884783e-07
-7.38374789e-07
-7.59710081e-07
-7.74492961e-07
-7.66531648e-07
-7.35270265e-07
-7.36134204e-07
-7.62504887e-07
-7.75208204e-07
-7.63675658e-07
-7.35150213e-07
-7.36244293e-07
-7.66584932e-07
-7.75525311e-07
-7.58820646e-07
-7.34507162e-07
-7.36721904e-07
-7.77031043e-07
-7.76171479e-07
-7.46025049e-07
-7.34501989e-07
-7.42723923e-07
-7.75223987e-07
)
;

boundaryField
{
    closed
    {
        type            calculated;
        value           nonuniform List<scalar> 0();
    }
    open
    {
        type            calculated;
        value           nonuniform List<scalar> 0();
    }
    sides
    {
        type            empty;
    }
    procBoundary1to0
    {
        type            processor;
        value           uniform -7.75439632e-07;
    }
    procBoundary1to2
    {
        type            processor;
        value           uniform -7.75380729e-07;
    }
}


// ************************************************************************* //
