/*--------------------------------*- C++ -*----------------------------------*\
| =========                 |                                                 |
| \\      /  F ield         | OpenFOAM: The Open Source CFD Toolbox           |
|  \\    /   O peration     | Version:  2306                                  |
|   \\  /    A nd           | Website:  www.openfoam.com                      |
|    \\/     M anipulation  |                                                 |
\*---------------------------------------------------------------------------*/
FoamFile
{
    version     2.0;
    format      ascii;
    arch        "LSB;label=32;scalar=64";
    class       volScalarField;
    location    "0.00014";
    object      alpha;
}
// * * * * * * * * * * * * * * * * * * * * * * * * * * * * * * * * * * * * * //

dimensions      [1 -1 -1 0 0 0 0];

internalField   nonuniform List<scalar> 
3810
(
3.48214305e-05
3.59175611e-05
3.67703728e-05
3.68091029e-05
3.5063142e-05
3.50603528e-05
3.57537288e-05
3.5842181e-05
3.68125349e-05
3.68299428e-05
3.54872212e-05
3.57600654e-05
3.68273924e-05
3.65064327e-05
3.53495485e-05
3.57571726e-05
3.68199554e-05
3.58407674e-05
3.52270708e-05
3.6002082e-05
3.68141986e-05
3.56456208e-05
3.49273821e-05
3.53113811e-05
3.54057433e-05
3.53620231e-05
3.57286646e-05
3.68507494e-05
3.68291735e-05
3.5772095e-05
3.56857212e-05
3.64440006e-05
3.68556369e-05
3.67400715e-05
3.56336418e-05
3.5033032e-05
3.56712064e-05
3.68355147e-05
3.68311308e-05
3.57509084e-05
3.55148313e-05
3.66005061e-05
3.6803036e-05
3.57532527e-05
3.54988651e-05
3.6673735e-05
3.68061031e-05
3.57012838e-05
3.54665205e-05
3.67613134e-05
3.68090031e-05
3.56008881e-05
3.54430155e-05
3.67845969e-05
3.68064718e-05
3.55651578e-05
3.54377812e-05
3.67822406e-05
3.6798922e-05
3.55555396e-05
3.54377809e-05
3.68049537e-05
3.67808571e-05
3.55488091e-05
3.5676885e-05
3.62636864e-05
3.57986305e-05
3.56067756e-05
3.63327837e-05
3.6792288e-05
3.57292175e-05
3.55370317e-05
3.67058888e-05
3.67875988e-05
3.56160165e-05
3.55117752e-05
3.67858457e-05
3.67719521e-05
3.5580554e-05
3.55284371e-05
3.6789478e-05
3.67731555e-05
3.55776397e-05
3.55311105e-05
3.67582487e-05
3.67297392e-05
3.54780384e-05
3.56230809e-05
3.67574035e-05
3.59537671e-05
3.50017081e-05
3.50724441e-05
3.57667672e-05
3.6796985e-05
3.67718785e-05
3.54818222e-05
3.5252115e-05
3.53414e-05
3.57582343e-05
3.68480429e-05
3.6769256e-05
3.54264098e-05
3.51420882e-05
3.57140577e-05
3.68414748e-05
3.6811326e-05
3.57600976e-05
3.55993718e-05
3.67719334e-05
3.67660989e-05
3.5597789e-05
3.57041424e-05
3.68402308e-05
3.67690507e-05
3.53604e-05
3.55511864e-05
3.68296641e-05
3.67822047e-05
3.51561586e-05
3.53845541e-05
3.68302154e-05
3.67878366e-05
3.53770016e-05
3.53506302e-05
3.68008473e-05
3.67949051e-05
3.54954672e-05
3.52519689e-05
3.68427219e-05
3.68062355e-05
3.53305994e-05
3.55368571e-05
3.68082797e-05
3.68327358e-05
3.5069013e-05
3.50260468e-05
3.5525006e-05
3.5759403e-05
3.68253878e-05
3.68619567e-05
3.54766092e-05
3.55299298e-05
3.68374611e-05
3.68577366e-05
3.54541132e-05
3.5465162e-05
3.6831804e-05
3.68550232e-05
3.54208992e-05
3.54213997e-05
3.68219997e-05
3.68488416e-05
3.53770709e-05
3.55783406e-05
3.68219891e-05
3.68277853e-05
3.68231706e-05
3.68514563e-05
3.51115739e-05
3.49223461e-05
3.52006307e-05
3.56278883e-05
3.68115411e-05
3.68319515e-05
3.53200814e-05
3.49745656e-05
3.56138493e-05
3.67939139e-05
3.6859924e-05
3.55159886e-05
3.54144634e-05
3.67792971e-05
3.68498356e-05
3.54478718e-05
3.52069543e-05
3.52813519e-05
3.5494378e-05
3.68018122e-05
3.68428e-05
3.56057572e-05
3.5457913e-05
3.67935954e-05
3.68448015e-05
3.55361427e-05
3.53024576e-05
3.53128145e-05
3.54135153e-05
3.68133701e-05
3.68315802e-05
3.55463902e-05
3.55231259e-05
3.68244175e-05
3.68307991e-05
3.68316431e-05
3.56962506e-05
3.50922237e-05
3.54135146e-05
3.68270784e-05
3.68383775e-05
3.68174746e-05
3.6845932e-05
3.56405967e-05
3.524669e-05
3.520024e-05
3.52178605e-05
3.68414667e-05
3.6816902e-05
3.53187012e-05
3.54423511e-05
3.68576138e-05
3.68148633e-05
3.68290945e-05
3.54605858e-05
3.54329054e-05
3.68652946e-05
3.68228926e-05
3.6818098e-05
3.57169674e-05
3.51869549e-05
3.51226029e-05
3.52449029e-05
3.68740128e-05
3.67939224e-05
3.57071432e-05
3.51096698e-05
3.53699301e-05
3.68529036e-05
3.67935471e-05
3.57188662e-05
3.51072217e-05
3.53735857e-05
3.6849191e-05
3.68143321e-05
3.54958397e-05
3.55192043e-05
3.68870092e-05
3.68061415e-05
3.57195859e-05
3.54389731e-05
3.54924732e-05
3.51510406e-05
3.53041977e-05
3.68596793e-05
3.68351408e-05
3.56033057e-05
3.55951787e-05
3.68765512e-05
3.68296794e-05
3.57353325e-05
3.55631142e-05
3.5231023e-05
3.53170804e-05
3.68631445e-05
3.68131676e-05
3.56163205e-05
3.56871549e-05
3.6871869e-05
3.67905822e-05
3.6832572e-05
3.61942212e-05
3.55715285e-05
3.49961989e-05
3.52069869e-05
3.6849622e-05
3.68264084e-05
3.55078859e-05
3.55622062e-05
3.68604569e-05
3.68435862e-05
3.62468853e-05
3.56911586e-05
3.55344569e-05
3.56686489e-05
3.55433954e-05
3.53933867e-05
3.57904664e-05
3.68766367e-05
3.68725673e-05
3.68579464e-05
3.57020804e-05
3.56048584e-05
3.6905231e-05
3.68515478e-05
3.5932312e-05
3.55364021e-05
3.54292162e-05
3.54505841e-05
3.52305123e-05
3.57175633e-05
3.68176667e-05
3.58713965e-05
3.54101753e-05
3.64311807e-05
3.68063987e-05
3.59667391e-05
3.52816044e-05
3.57341787e-05
3.68435518e-05
3.59133863e-05
3.51522133e-05
3.49923422e-05
3.55725495e-05
3.68505929e-05
3.68431711e-05
3.680407e-05
3.56868959e-05
3.51054196e-05
3.5582578e-05
3.68244116e-05
3.68317531e-05
3.56653371e-05
3.51839804e-05
3.53213807e-05
3.59636307e-05
3.68142298e-05
3.68095765e-05
3.55202155e-05
3.55390708e-05
3.68283595e-05
3.67966177e-05
3.53417861e-05
3.5707562e-05
3.68199978e-05
3.58327589e-05
3.49558608e-05
3.55752085e-05
3.68211733e-05
3.6789884e-05
3.53386155e-05
3.54546462e-05
3.6836513e-05
3.67954236e-05
3.52657918e-05
3.47719871e-05
3.54945196e-05
3.6815097e-05
3.68147246e-05
3.68103905e-05
3.67978262e-05
3.52943108e-05
3.55889014e-05
3.68252259e-05
3.68220203e-05
3.68064909e-05
3.54193788e-05
3.55078825e-05
3.68364818e-05
3.68011493e-05
3.52865605e-05
3.52329943e-05
3.53871564e-05
3.54077221e-05
3.53680578e-05
3.57619987e-05
3.68244723e-05
3.68058717e-05
3.53608571e-05
3.49670399e-05
3.55986637e-05
3.68382932e-05
3.68108665e-05
3.56028967e-05
3.57310936e-05
3.68449465e-05
3.68172659e-05
3.55627555e-05
3.57202241e-05
3.68751882e-05
3.68212468e-05
3.56696386e-05
3.53930559e-05
3.53963457e-05
3.52978011e-05
3.59566004e-05
3.68248002e-05
3.68121603e-05
3.68276632e-05
3.6807857e-05
3.51360728e-05
3.52764858e-05
3.6861187e-05
3.67958452e-05
3.56874641e-05
3.53648764e-05
3.56008292e-05
3.52675534e-05
3.5705845e-05
3.68388677e-05
3.68366932e-05
3.68371717e-05
3.53812266e-05
3.53816848e-05
3.68623013e-05
3.68257282e-05
3.52803433e-05
3.52845284e-05
3.68619657e-05
3.68295587e-05
3.54282716e-05
3.50666006e-05
3.54126744e-05
3.68459783e-05
3.68390977e-05
3.560939e-05
3.53238642e-05
3.5627242e-05
3.68461072e-05
3.68399339e-05
3.56491685e-05
3.56590165e-05
3.68646069e-05
3.68295428e-05
3.56660573e-05
3.54508316e-05
3.55867041e-05
3.54043443e-05
3.54975289e-05
3.68275056e-05
3.68521449e-05
3.55025878e-05
3.53797784e-05
3.68464881e-05
3.68526259e-05
3.53913184e-05
3.52628454e-05
3.50677429e-05
3.54204681e-05
3.68497394e-05
3.68293883e-05
3.68387433e-05
3.555016e-05
3.51211827e-05
3.51569808e-05
3.55096637e-05
3.68407781e-05
3.68245229e-05
3.68401158e-05
3.68376145e-05
3.56800471e-05
3.50962573e-05
3.55859407e-05
3.681362e-05
3.68626329e-05
3.57010031e-05
3.56436509e-05
3.6806697e-05
3.68443118e-05
3.67945767e-05
3.68484742e-05
3.61422606e-05
3.53317264e-05
3.49124314e-05
3.53462598e-05
3.68302567e-05
3.68239708e-05
3.54752022e-05
3.47073276e-05
3.49673024e-05
3.67958059e-05
3.68152833e-05
3.56788962e-05
3.54373828e-05
3.67697779e-05
3.68262731e-05
3.57008914e-05
3.5487724e-05
3.67881036e-05
3.68101573e-05
3.57194146e-05
3.51179249e-05
3.55082216e-05
3.68046228e-05
3.68277338e-05
3.5698758e-05
3.50797422e-05
3.54317766e-05
3.67981931e-05
3.68568763e-05
3.56813625e-05
3.553832e-05
3.67678457e-05
3.63580926e-05
3.54185576e-05
3.57343081e-05
3.680396e-05
3.68389739e-05
3.56443613e-05
3.4943786e-05
3.54894474e-05
3.67918185e-05
3.68373556e-05
3.55133571e-05
3.49026472e-05
3.54805374e-05
3.67682995e-05
3.6858689e-05
3.55049213e-05
3.5374069e-05
3.6720518e-05
3.68028033e-05
3.67756331e-05
3.68148999e-05
3.68211489e-05
3.51570715e-05
3.46902994e-05
3.57120763e-05
3.67662731e-05
3.68590426e-05
3.54454854e-05
3.55185216e-05
3.67971437e-05
3.68484675e-05
3.50999664e-05
3.50149311e-05
3.53977813e-05
3.54059834e-05
3.58309659e-05
3.68005228e-05
3.68365004e-05
3.5306212e-05
3.52945192e-05
3.55475804e-05
3.5480545e-05
3.58171151e-05
3.68142619e-05
3.68290458e-05
3.50199311e-05
3.50061097e-05
3.58993788e-05
3.67952186e-05
3.67713848e-05
3.68024275e-05
3.6611975e-05
3.48528041e-05
3.48292548e-05
3.58152931e-05
3.67470101e-05
3.68155621e-05
3.67278355e-05
3.49689006e-05
3.49468971e-05
3.58760341e-05
3.67584075e-05
3.68208401e-05
3.67673713e-05
3.68131936e-05
3.64492481e-05
3.48233945e-05
3.48041589e-05
3.58083191e-05
3.67755252e-05
3.67906544e-05
3.53144302e-05
3.57087818e-05
3.67793392e-05
3.6797546e-05
3.67494251e-05
3.48529316e-05
3.48378971e-05
3.53682483e-05
3.54003752e-05
3.58229589e-05
3.67550989e-05
3.68217169e-05
3.66659939e-05
3.51498004e-05
3.54353111e-05
3.68335979e-05
3.67481473e-05
3.53651077e-05
3.5736635e-05
3.68168863e-05
3.67456788e-05
3.51385576e-05
3.51308494e-05
3.54011748e-05
3.57790354e-05
3.6828049e-05
3.67909315e-05
3.54089226e-05
3.56747172e-05
3.6845309e-05
3.67895545e-05
3.53795883e-05
3.56295315e-05
3.68491418e-05
3.68072957e-05
3.54858752e-05
3.5715346e-05
3.68209569e-05
3.6827846e-05
3.6806787e-05
3.68200206e-05
3.68057208e-05
3.50605888e-05
3.49994938e-05
3.53150967e-05
3.5751618e-05
3.6844145e-05
3.67923816e-05
3.50611343e-05
3.50582176e-05
3.53482722e-05
3.53845029e-05
3.54995821e-05
3.54872708e-05
3.57668414e-05
3.68379283e-05
3.68170708e-05
3.54224342e-05
3.52605184e-05
3.57606305e-05
3.68140944e-05
3.68175361e-05
3.56617336e-05
3.57145517e-05
3.68366707e-05
3.68260498e-05
3.68147079e-05
3.55939718e-05
3.55629141e-05
3.6864925e-05
3.67841998e-05
3.54985291e-05
3.55433885e-05
3.68474591e-05
3.68082825e-05
3.55158989e-05
3.54777606e-05
3.68390751e-05
3.68246175e-05
3.5559089e-05
3.54355781e-05
3.6801232e-05
3.68275089e-05
3.56629665e-05
3.54030406e-05
3.66793221e-05
3.68259465e-05
3.5758045e-05
3.5347862e-05
3.65601303e-05
3.68218063e-05
3.56529517e-05
3.50603034e-05
3.53626582e-05
3.53603383e-05
3.56747403e-05
3.67105885e-05
3.6829326e-05
3.577885e-05
3.56023101e-05
3.61263121e-05
3.68486211e-05
3.67890541e-05
3.57565078e-05
3.54637211e-05
3.60056055e-05
3.6792174e-05
3.56944618e-05
3.50319926e-05
3.53726185e-05
3.61319869e-05
3.67950537e-05
3.57450374e-05
3.51325773e-05
3.52569767e-05
3.56530624e-05
3.6177224e-05
3.68382686e-05
3.67655983e-05
3.57990932e-05
3.51268374e-05
3.51962564e-05
3.55923539e-05
3.60425701e-05
3.68090731e-05
3.68074708e-05
3.62563682e-05
3.55684712e-05
3.57808204e-05
3.68143444e-05
3.68326993e-05
3.648232e-05
3.56053644e-05
3.57674722e-05
3.68413e-05
3.674899e-05
3.53194483e-05
3.5311195e-05
3.5441893e-05
3.53835236e-05
3.54311339e-05
3.55133705e-05
3.55002598e-05
3.58108034e-05
3.68528811e-05
3.67993896e-05
3.53974536e-05
3.53663724e-05
3.57699816e-05
3.68455764e-05
3.68009061e-05
3.55263875e-05
3.5681636e-05
3.68589356e-05
3.68471304e-05
3.68310515e-05
3.56739433e-05
3.56950492e-05
3.68707684e-05
3.57029091e-05
3.53954003e-05
3.68586744e-05
3.68528198e-05
3.54680485e-05
3.54305106e-05
3.68592133e-05
3.68380936e-05
3.54928314e-05
3.55615374e-05
3.68482561e-05
3.57382665e-05
3.52167038e-05
3.53695617e-05
3.52646161e-05
3.50254094e-05
3.50318307e-05
3.68194492e-05
3.68114786e-05
3.68156208e-05
3.68210796e-05
3.68242802e-05
3.57018203e-05
3.51878024e-05
3.6823395e-05
3.68210095e-05
3.55452222e-05
3.52145107e-05
3.68139108e-05
3.6816092e-05
3.57284796e-05
3.50455298e-05
3.50506334e-05
3.67841876e-05
3.6802347e-05
3.57696172e-05
3.50387997e-05
3.5065564e-05
3.67941357e-05
3.68154624e-05
3.67988401e-05
3.68264659e-05
3.57448286e-05
3.52929437e-05
3.68019507e-05
3.68222977e-05
3.5749822e-05
3.5255401e-05
3.53369271e-05
3.52389532e-05
3.51777991e-05
3.51892892e-05
3.47732021e-05
3.47924107e-05
3.6702348e-05
3.67895467e-05
3.67458938e-05
3.6804442e-05
3.6767183e-05
3.6809185e-05
3.67729336e-05
3.58850538e-05
3.51113854e-05
3.51181584e-05
3.67642203e-05
3.68255316e-05
3.57633238e-05
3.52751935e-05
3.68183904e-05
3.68182971e-05
3.57835809e-05
3.51107895e-05
3.54891549e-05
3.68246339e-05
3.68296073e-05
3.68173299e-05
3.58121334e-05
3.54375274e-05
3.48491644e-05
3.48511336e-05
3.68112362e-05
3.68058873e-05
3.58208033e-05
3.55743888e-05
3.50780226e-05
3.50837717e-05
3.67625151e-05
3.6802806e-05
3.6752487e-05
3.68138265e-05
3.61046747e-05
3.54561842e-05
3.50523156e-05
3.49865095e-05
3.5839734e-05
3.6801392e-05
3.5978262e-05
3.55981775e-05
3.52379288e-05
3.51859011e-05
3.59063584e-05
3.67714101e-05
3.68365558e-05
3.67576376e-05
3.68078602e-05
3.64594791e-05
3.56683561e-05
3.5129397e-05
3.51095012e-05
3.57588047e-05
3.68044658e-05
3.63322618e-05
3.5511883e-05
3.53689789e-05
3.5278409e-05
3.51366725e-05
3.57388137e-05
3.6762649e-05
3.68582342e-05
3.67339681e-05
3.68418529e-05
3.67186143e-05
3.5518046e-05
3.49356409e-05
3.56901494e-05
3.67974246e-05
3.63331395e-05
3.56080098e-05
3.52521602e-05
3.51673955e-05
3.57378203e-05
3.67952609e-05
3.6837517e-05
3.68132324e-05
3.67640374e-05
3.6828233e-05
3.67377809e-05
3.56729626e-05
3.52711607e-05
3.53798519e-05
3.5129783e-05
3.51412893e-05
3.6767078e-05
3.68097586e-05
3.58926008e-05
3.56271378e-05
3.60374782e-05
3.68013648e-05
3.61103351e-05
3.53145185e-05
3.53151923e-05
3.67539329e-05
3.68286672e-05
3.58758954e-05
3.55532109e-05
3.59524669e-05
3.68110644e-05
3.58086852e-05
3.53743794e-05
3.62279029e-05
3.67840118e-05
3.56827596e-05
3.51553038e-05
3.5319449e-05
3.50694297e-05
3.50763618e-05
3.62820693e-05
3.68137094e-05
3.58312334e-05
3.54183859e-05
3.51960504e-05
3.50629203e-05
3.57691726e-05
3.67947903e-05
3.68431795e-05
3.68196317e-05
3.58295268e-05
3.55682427e-05
3.62647879e-05
3.68045381e-05
3.67974101e-05
3.67960199e-05
3.59512771e-05
3.51768253e-05
3.51779535e-05
3.66257302e-05
3.68211996e-05
3.57965927e-05
3.53677622e-05
3.67747234e-05
3.68353293e-05
3.57593758e-05
3.52664633e-05
3.5410688e-05
3.51607853e-05
3.52485701e-05
3.68009138e-05
3.68223938e-05
3.68021196e-05
3.57583753e-05
3.52992228e-05
3.52980755e-05
3.677587e-05
3.68150877e-05
3.57500418e-05
3.53596322e-05
3.53547871e-05
3.67762687e-05
3.68296166e-05
3.57497862e-05
3.55355494e-05
3.67843011e-05
3.68327444e-05
3.56868348e-05
3.54599145e-05
3.67976379e-05
3.68247812e-05
3.56802252e-05
3.52504066e-05
3.5367553e-05
3.68073612e-05
3.68411997e-05
3.55520019e-05
3.54481758e-05
3.68100417e-05
3.68363903e-05
3.54804926e-05
3.52269049e-05
3.55029317e-05
3.68266691e-05
3.68485348e-05
3.53672247e-05
3.52391521e-05
3.56130713e-05
3.68380443e-05
3.68423941e-05
3.52742603e-05
3.52485816e-05
3.56610501e-05
3.6835438e-05
3.68411992e-05
3.54150018e-05
3.56191372e-05
3.68485031e-05
3.68121652e-05
3.5421462e-05
3.57041536e-05
3.68386525e-05
3.6801182e-05
3.52603497e-05
3.57358394e-05
3.67917689e-05
3.56126984e-05
3.57592636e-05
3.68437599e-05
3.67877116e-05
3.52985298e-05
3.53063428e-05
3.5553974e-05
3.58277002e-05
3.68352927e-05
3.67605364e-05
3.68254415e-05
3.67165702e-05
3.5331845e-05
3.53317552e-05
3.55470354e-05
3.55193672e-05
3.55938819e-05
3.55878335e-05
3.58130305e-05
3.68325119e-05
3.67155578e-05
3.55104042e-05
3.57885938e-05
3.68277171e-05
3.63777287e-05
3.51572473e-05
3.51631329e-05
3.58146071e-05
3.6788179e-05
3.68318367e-05
3.63620673e-05
3.54307372e-05
3.575398e-05
3.68327467e-05
3.63838221e-05
3.5388606e-05
3.57646964e-05
3.68345358e-05
3.63968687e-05
3.5368435e-05
3.57742111e-05
3.68410324e-05
3.65451044e-05
3.5423145e-05
3.58240987e-05
3.68145895e-05
3.67996845e-05
3.67948241e-05
3.60726787e-05
3.50124819e-05
3.50427552e-05
3.53640437e-05
3.53708685e-05
3.58292726e-05
3.68107244e-05
3.67528338e-05
3.53682579e-05
3.57998642e-05
3.68092727e-05
3.66042347e-05
3.49569881e-05
3.49466506e-05
3.58371909e-05
3.67916163e-05
3.68012772e-05
3.53341851e-05
3.57509709e-05
3.68082933e-05
3.61576488e-05
3.5443049e-05
3.58726892e-05
3.6816627e-05
3.67788766e-05
3.60115991e-05
3.49305033e-05
3.49359933e-05
3.5149269e-05
3.51428734e-05
3.51389295e-05
3.54866209e-05
3.66206749e-05
3.67777843e-05
3.6766408e-05
3.6757417e-05
3.67866746e-05
3.67644781e-05
3.49725485e-05
3.50578192e-05
3.68176497e-05
3.67634829e-05
3.53701002e-05
3.54450685e-05
3.68283122e-05
3.67855957e-05
3.54988424e-05
3.5532891e-05
3.68307935e-05
3.68064207e-05
3.545756e-05
3.56421552e-05
3.68378739e-05
3.61679767e-05
3.5396475e-05
3.60965886e-05
3.67986195e-05
3.55406889e-05
3.55480992e-05
3.68632742e-05
3.64455027e-05
3.53878883e-05
3.59822113e-05
3.68191133e-05
3.55675643e-05
3.55236939e-05
3.68532541e-05
3.67986109e-05
3.54273543e-05
3.55191104e-05
3.68418365e-05
3.68102623e-05
3.5273892e-05
3.51151283e-05
3.53658928e-05
3.55891894e-05
3.64194111e-05
3.67891533e-05
3.58367041e-05
3.50469465e-05
3.54547183e-05
3.68394834e-05
3.68057564e-05
3.57498191e-05
3.54908937e-05
3.61970679e-05
3.67942677e-05
3.57484124e-05
3.54815565e-05
3.64529362e-05
3.67965618e-05
3.56396694e-05
3.51360946e-05
3.54642364e-05
3.5557554e-05
3.58666597e-05
3.68297531e-05
3.68006189e-05
3.54911437e-05
3.58099875e-05
3.6829004e-05
3.67690637e-05
3.54841535e-05
3.57947496e-05
3.68144673e-05
3.62228772e-05
3.50887149e-05
3.51136096e-05
3.5907483e-05
3.67848153e-05
3.67777049e-05
3.53320703e-05
3.5917346e-05
3.6734425e-05
3.57313452e-05
3.58082723e-05
3.68345929e-05
3.67456439e-05
3.53772274e-05
3.57867639e-05
3.68243981e-05
3.64315104e-05
3.49977508e-05
3.4986995e-05
3.58406331e-05
3.67760497e-05
3.66202337e-05
3.49235398e-05
3.49216188e-05
3.53022686e-05
3.58326575e-05
3.6795287e-05
3.67858556e-05
3.67905921e-05
3.6780548e-05
3.67743808e-05
3.62626554e-05
3.49612567e-05
3.49818331e-05
3.53102552e-05
3.57774734e-05
3.67916172e-05
3.67937185e-05
3.67517118e-05
3.51092694e-05
3.57462789e-05
3.67355193e-05
3.55334105e-05
3.56951034e-05
3.68161278e-05
3.67378635e-05
3.53212924e-05
3.56741509e-05
3.68131183e-05
3.67396319e-05
3.49957858e-05
3.49839905e-05
3.53616267e-05
3.54459778e-05
3.54975361e-05
3.57826244e-05
3.68081999e-05
3.67627815e-05
3.55424921e-05
3.57878167e-05
3.6812505e-05
3.67578102e-05
3.53950731e-05
3.56728399e-05
3.68168981e-05
3.67724385e-05
3.51181083e-05
3.57038586e-05
3.68069633e-05
3.68084273e-05
3.67843028e-05
3.52432421e-05
3.53295502e-05
3.68167782e-05
3.67777676e-05
3.52395738e-05
3.5451833e-05
3.68219603e-05
3.67918481e-05
3.5089173e-05
3.56155498e-05
3.6819842e-05
3.6815462e-05
3.68230168e-05
3.52048203e-05
3.53861248e-05
3.68254159e-05
3.68248542e-05
3.68181099e-05
3.6818299e-05
3.68143188e-05
3.5203305e-05
3.50574805e-05
3.54037811e-05
3.5187545e-05
3.56206829e-05
3.68110424e-05
3.68206854e-05
3.5163452e-05
3.51560344e-05
3.53087523e-05
3.5149229e-05
3.54295934e-05
3.68194622e-05
3.68290588e-05
3.5164128e-05
3.52639096e-05
3.68363672e-05
3.68279118e-05
3.68359492e-05
3.68361195e-05
3.68294861e-05
3.68398837e-05
3.51910682e-05
3.49279501e-05
3.52119832e-05
3.51956412e-05
3.52914759e-05
3.53571508e-05
3.68110568e-05
3.6828246e-05
3.5600158e-05
3.55176082e-05
3.68130333e-05
3.68372777e-05
3.55856674e-05
3.54874832e-05
3.68195987e-05
3.68453436e-05
3.55475252e-05
3.54516679e-05
3.6826684e-05
3.68459347e-05
3.5511313e-05
3.5461439e-05
3.6839133e-05
3.68359927e-05
3.55185061e-05
3.5552197e-05
3.68432547e-05
3.5717017e-05
3.53651942e-05
3.6831608e-05
3.68404837e-05
3.55873967e-05
3.55804025e-05
3.68223897e-05
3.57181251e-05
3.52443883e-05
3.68432025e-05
3.68243151e-05
3.56987599e-05
3.51419256e-05
3.51701231e-05
3.68295547e-05
3.68346275e-05
3.57217963e-05
3.54649218e-05
3.53423555e-05
3.53393669e-05
3.68224748e-05
3.68144411e-05
3.57586117e-05
3.53135639e-05
3.53703123e-05
3.68251308e-05
3.68130505e-05
3.5736671e-05
3.50654278e-05
3.50648218e-05
3.68267567e-05
3.68042133e-05
3.57402788e-05
3.49419017e-05
3.49840878e-05
3.67999502e-05
3.68105532e-05
3.67983506e-05
3.68124743e-05
3.68144272e-05
3.57368698e-05
3.53379171e-05
3.68236106e-05
3.68294635e-05
3.68107232e-05
3.6833933e-05
3.57834147e-05
3.53630715e-05
3.54172229e-05
3.53488138e-05
3.53197521e-05
3.53481351e-05
3.51109545e-05
3.51165188e-05
3.67879241e-05
3.68163438e-05
3.56923607e-05
3.54371102e-05
3.68016763e-05
3.68189248e-05
3.67936029e-05
3.68171771e-05
3.58210541e-05
3.53171608e-05
3.53757662e-05
3.49558653e-05
3.49668688e-05
3.67965753e-05
3.68117964e-05
3.67771683e-05
3.68200685e-05
3.57548871e-05
3.53474207e-05
3.68527314e-05
3.6822211e-05
3.57292476e-05
3.52709302e-05
3.53451289e-05
3.49748445e-05
3.49824251e-05
3.68248007e-05
3.68188553e-05
3.57720628e-05
3.54796017e-05
3.5146534e-05
3.51543126e-05
3.68021787e-05
3.68173469e-05
3.67734414e-05
3.68307043e-05
3.57801172e-05
3.55378271e-05
3.68263607e-05
3.68373004e-05
3.67779147e-05
3.57558543e-05
3.51289485e-05
3.51630339e-05
3.68236221e-05
3.6825008e-05
3.56669847e-05
3.56311903e-05
3.68427132e-05
3.57916231e-05
3.51619259e-05
3.68637131e-05
3.68138953e-05
3.55187475e-05
3.53655401e-05
3.68541077e-05
3.68289509e-05
3.54219944e-05
3.53172286e-05
3.68660508e-05
3.68328735e-05
3.53587567e-05
3.52648798e-05
3.6889756e-05
3.68265509e-05
3.56948396e-05
3.53183164e-05
3.55281449e-05
3.52641312e-05
3.55353811e-05
3.68465655e-05
3.68299391e-05
3.68190171e-05
3.56981585e-05
3.55814159e-05
3.68830208e-05
3.6827731e-05
3.55082967e-05
3.54810195e-05
3.68771115e-05
3.68194851e-05
3.5613007e-05
3.52397963e-05
3.53900131e-05
3.51230142e-05
3.53321937e-05
3.68505148e-05
3.68257223e-05
3.6845285e-05
3.68122924e-05
3.57029882e-05
3.52834155e-05
3.54753112e-05
3.5274405e-05
3.55509211e-05
3.68432409e-05
3.68270488e-05
3.55544649e-05
3.53098715e-05
3.55235303e-05
3.53707081e-05
3.56980614e-05
3.68341702e-05
3.68306872e-05
3.56142473e-05
3.57375416e-05
3.68590723e-05
3.68066355e-05
3.68545298e-05
3.68129811e-05
3.56421499e-05
3.53242087e-05
3.55414415e-05
3.54022422e-05
3.5723433e-05
3.68284272e-05
3.68361416e-05
3.54963793e-05
3.5226427e-05
3.57609531e-05
3.6837631e-05
3.68136403e-05
3.57420751e-05
3.53025712e-05
3.57206253e-05
3.68052428e-05
3.63226933e-05
3.48526871e-05
3.56620517e-05
3.68597674e-05
3.68268403e-05
3.58430199e-05
3.52570124e-05
3.56897407e-05
3.68244204e-05
3.68522914e-05
3.53411003e-05
3.55354117e-05
3.68420331e-05
3.68322592e-05
3.53519012e-05
3.55755551e-05
3.685978e-05
3.684279e-05
3.54492306e-05
3.57637737e-05
3.68760969e-05
3.68097518e-05
3.56482993e-05
3.50488341e-05
3.56144293e-05
3.6830544e-05
3.68735452e-05
3.54134955e-05
3.51431098e-05
3.5380028e-05
3.53963806e-05
3.53721912e-05
3.57371258e-05
3.68053243e-05
3.6823876e-05
3.68190228e-05
3.68178867e-05
3.68306196e-05
3.5051639e-05
3.49276422e-05
3.57804203e-05
3.67917538e-05
3.68468079e-05
3.53149086e-05
3.54867736e-05
3.68093313e-05
3.68375257e-05
3.53163321e-05
3.54202518e-05
3.68153513e-05
3.68363289e-05
3.52330182e-05
3.53875206e-05
3.68173968e-05
3.68452145e-05
3.49023925e-05
3.57204647e-05
3.68281391e-05
3.51814857e-05
3.48626827e-05
3.55173651e-05
3.63968444e-05
3.68195307e-05
3.56106076e-05
3.54101444e-05
3.68506863e-05
3.68241014e-05
3.51717369e-05
3.53192952e-05
3.68205913e-05
3.68370067e-05
3.51675054e-05
3.51858782e-05
3.5250073e-05
3.56776607e-05
3.68313469e-05
3.68370909e-05
3.68413551e-05
3.68371185e-05
3.68424077e-05
3.52277759e-05
3.52169023e-05
3.68417862e-05
3.68156358e-05
3.52255771e-05
3.53520039e-05
3.68377575e-05
3.68136722e-05
3.5211828e-05
3.52428993e-05
3.53362859e-05
3.57146894e-05
3.68347116e-05
3.68231567e-05
3.53477614e-05
3.52606382e-05
3.57153727e-05
3.68268066e-05
3.68313773e-05
3.54868593e-05
3.56445118e-05
3.68359129e-05
3.68265629e-05
3.5448574e-05
3.56018871e-05
3.68421139e-05
3.68135373e-05
3.53414359e-05
3.53420232e-05
3.54715302e-05
3.57992243e-05
3.68308214e-05
3.68315666e-05
3.6826045e-05
3.68359777e-05
3.50509074e-05
3.5028694e-05
3.54344453e-05
3.53859007e-05
3.58388707e-05
3.68186432e-05
3.68262317e-05
3.68214265e-05
3.68322937e-05
3.50951298e-05
3.48399366e-05
3.57120399e-05
3.68209219e-05
3.68317592e-05
3.51674372e-05
3.50386476e-05
3.57221873e-05
3.68232325e-05
3.68239044e-05
3.53649802e-05
3.54972526e-05
3.68469114e-05
3.68149506e-05
3.51840897e-05
3.49653028e-05
3.57080144e-05
3.68100357e-05
3.68374783e-05
3.51979964e-05
3.51621422e-05
3.52687644e-05
3.57169738e-05
3.6833186e-05
3.68268209e-05
3.54698835e-05
3.55476256e-05
3.67642205e-05
3.68186438e-05
3.67718308e-05
3.5473053e-05
3.53814331e-05
3.63923202e-05
3.68164607e-05
3.678583e-05
3.56254966e-05
3.51517737e-05
3.57197487e-05
3.68122383e-05
3.68568567e-05
3.55883793e-05
3.57166898e-05
3.68525085e-05
3.57570648e-05
3.5397119e-05
3.68243698e-05
3.68028722e-05
3.55476764e-05
3.55292496e-05
3.68443645e-05
3.68204709e-05
3.52823591e-05
3.57735841e-05
3.68118783e-05
3.57394557e-05
3.50822361e-05
3.53412121e-05
3.5337787e-05
3.55630292e-05
3.61626287e-05
3.68575116e-05
3.67834617e-05
3.57153898e-05
3.50049762e-05
3.55527886e-05
3.68443302e-05
3.68395031e-05
3.57487297e-05
3.54566833e-05
3.65343474e-05
3.68143292e-05
3.57562565e-05
3.54502814e-05
3.66085821e-05
3.67953364e-05
3.5714488e-05
3.49634017e-05
3.55746328e-05
3.68166921e-05
3.68286827e-05
3.57332473e-05
3.53942245e-05
3.6136495e-05
3.6809279e-05
3.57444941e-05
3.52718213e-05
3.53591221e-05
3.5745695e-05
3.68414344e-05
3.68082111e-05
3.57186076e-05
3.54539736e-05
3.61462584e-05
3.67863134e-05
3.56730277e-05
3.50659951e-05
3.52982269e-05
3.57539545e-05
3.63223697e-05
3.67818377e-05
3.56987746e-05
3.52524502e-05
3.59095811e-05
3.68074438e-05
3.68095676e-05
3.68462545e-05
3.67567957e-05
3.57437543e-05
3.53896955e-05
3.58335673e-05
3.67609912e-05
3.57879296e-05
3.49784602e-05
3.51073759e-05
3.55539845e-05
3.57243784e-05
3.64061035e-05
3.67978418e-05
3.62985002e-05
3.5573573e-05
3.57965302e-05
3.68104055e-05
3.65502488e-05
3.54994092e-05
3.58423263e-05
3.6790271e-05
3.67901892e-05
3.66009882e-05
3.47755327e-05
3.47701521e-05
3.53141655e-05
3.53325365e-05
3.53421e-05
3.57431112e-05
3.68396205e-05
3.6823611e-05
3.68547477e-05
3.68177529e-05
3.57268839e-05
3.53137229e-05
3.54161662e-05
3.58899012e-05
3.68323401e-05
3.68471256e-05
3.52468278e-05
3.51022682e-05
3.57239555e-05
3.68069764e-05
3.68592063e-05
3.55596358e-05
3.54444193e-05
3.67503954e-05
3.68410107e-05
3.56384979e-05
3.53243109e-05
3.67166719e-05
3.68513872e-05
3.56104211e-05
3.49766165e-05
3.57913838e-05
3.6775326e-05
3.68495162e-05
3.68200558e-05
3.68341748e-05
3.59563341e-05
3.52763909e-05
3.5199249e-05
3.51972508e-05
3.52001215e-05
3.53546231e-05
3.5236662e-05
3.53533935e-05
3.66615418e-05
3.68174827e-05
3.68103831e-05
3.59202664e-05
3.56423509e-05
3.58364663e-05
3.67812063e-05
3.68426072e-05
3.60455191e-05
3.55523832e-05
3.5793121e-05
3.67982321e-05
3.60170105e-05
3.55253013e-05
3.57848396e-05
3.67965006e-05
3.6021744e-05
3.54534996e-05
3.52355643e-05
3.5220133e-05
3.60087134e-05
3.67983545e-05
3.59817632e-05
3.54030519e-05
3.5339951e-05
3.53306098e-05
3.54064239e-05
3.52397231e-05
3.52778506e-05
3.67099429e-05
3.68180942e-05
3.67605458e-05
3.68352941e-05
3.59311501e-05
3.55114943e-05
3.59754492e-05
3.68452011e-05
3.58008508e-05
3.56236956e-05
3.65676202e-05
3.67986952e-05
3.58125054e-05
3.52754137e-05
3.54272718e-05
3.68579143e-05
3.68401165e-05
3.57752531e-05
3.54868176e-05
3.68289208e-05
3.68544148e-05
3.56186721e-05
3.54358924e-05
3.68574868e-05
3.68344455e-05
3.55204383e-05
3.54944504e-05
3.68548822e-05
3.68271456e-05
3.54616865e-05
3.56899164e-05
3.68471102e-05
3.57810503e-05
3.51356227e-05
3.53830851e-05
3.53217291e-05
3.5102188e-05
3.55026287e-05
3.68000679e-05
3.68238649e-05
3.67679213e-05
3.572726e-05
3.55756182e-05
3.68660318e-05
3.67975889e-05
3.54979699e-05
3.55182852e-05
3.68647645e-05
3.68108194e-05
3.57197877e-05
3.51969649e-05
3.54354301e-05
3.63799452e-05
3.68333819e-05
3.57315492e-05
3.54625759e-05
3.61868741e-05
3.68335462e-05
3.68058779e-05
3.59114385e-05
3.52625676e-05
3.52931079e-05
3.53496149e-05
3.53891622e-05
3.5357291e-05
3.58120623e-05
3.68258227e-05
3.63095778e-05
3.55032485e-05
3.57816272e-05
3.68024145e-05
3.68327633e-05
3.6398893e-05
3.55212972e-05
3.57667008e-05
3.68485518e-05
3.67973576e-05
3.50744093e-05
3.49850032e-05
3.57791152e-05
3.67880801e-05
3.68368177e-05
3.67978089e-05
3.52539682e-05
3.49056906e-05
3.57244387e-05
3.68050246e-05
3.68221095e-05
3.53493881e-05
3.57203696e-05
3.68323305e-05
3.6814401e-05
3.52188649e-05
3.50892651e-05
3.5726785e-05
3.68267719e-05
3.68234426e-05
3.68207167e-05
3.68027219e-05
3.5267421e-05
3.51568379e-05
3.53130868e-05
3.51439243e-05
3.52400368e-05
3.49460237e-05
3.54793835e-05
3.68309265e-05
3.68425295e-05
3.6811118e-05
3.68329655e-05
3.67884373e-05
3.5545133e-05
3.50010239e-05
3.5584225e-05
3.6813514e-05
3.68191468e-05
3.53440634e-05
3.53973109e-05
3.68500832e-05
3.68256287e-05
3.55343516e-05
3.50149686e-05
3.55522533e-05
3.68567905e-05
3.68460862e-05
3.68540284e-05
3.68374086e-05
3.56916338e-05
3.51541572e-05
3.53811041e-05
3.68458425e-05
3.68544218e-05
3.55236322e-05
3.54545097e-05
3.68367917e-05
3.68387332e-05
3.5403457e-05
3.56913664e-05
3.68616781e-05
3.5692509e-05
3.51401715e-05
3.68743089e-05
3.68005378e-05
3.56960495e-05
3.51324967e-05
3.52120613e-05
3.68399224e-05
3.68289087e-05
3.57290243e-05
3.51628129e-05
3.52370422e-05
3.68524671e-05
3.68068287e-05
3.57273445e-05
3.5161992e-05
3.52932604e-05
3.68292243e-05
3.68328611e-05
3.55016007e-05
3.55804788e-05
3.68598401e-05
3.68380545e-05
3.68148133e-05
3.570662e-05
3.52196691e-05
3.54011939e-05
3.52350713e-05
3.52995846e-05
3.51365988e-05
3.52152791e-05
3.68494696e-05
3.67940749e-05
3.57322936e-05
3.50631534e-05
3.5474669e-05
3.6843262e-05
3.68299617e-05
3.68325314e-05
3.68164008e-05
3.55759474e-05
3.53986603e-05
3.68766856e-05
3.67859383e-05
3.56000249e-05
3.49541899e-05
3.54995476e-05
3.68108351e-05
3.67543536e-05
3.50394029e-05
3.52302346e-05
3.68732737e-05
3.67678686e-05
3.5725533e-05
3.50487812e-05
3.5521295e-05