/*--------------------------------*- C++ -*----------------------------------*\
| =========                 |                                                 |
| \\      /  F ield         | OpenFOAM: The Open Source CFD Toolbox           |
|  \\    /   O peration     | Version:  2306                                  |
|   \\  /    A nd           | Website:  www.openfoam.com                      |
|    \\/     M anipulation  |                                                 |
\*---------------------------------------------------------------------------*/
FoamFile
{
    version     2.0;
    format      ascii;
    arch        "LSB;label=32;scalar=64";
    class       volScalarField;
    location    "0.00014";
    object      p;
}
// * * * * * * * * * * * * * * * * * * * * * * * * * * * * * * * * * * * * * //

dimensions      [1 -1 -2 0 0 0 0];

internalField   nonuniform List<scalar> 
3810
(
101944.55
101940.037
101936.807
101932.669
101932.48
101926.366
101922.611
101918.651
101914.58
101910.977
101906.267
101900.789
101896.209
101893.036
101884.333
101875.73
101867.297
101857.417
101845.123
101831.871
101817.771
101807.68
101804.075
101805.416
101807.644
101809.132
101809.056
101809.063
101810.973
101812.555
101813.261
101815.298
101812.317
101810.951
101813.313
101823.158
101835.849
101848.412
101862.565
101875.948
101887.419
101902.847
101904.563
101905.895
101898.681
101887.301
101848.708
101799.409
101789.557
101774.63
101772.307
101754.623
101727.784
101705.457
101692.614
101684.577
101680.972
101682.114
101688.739
101699.951
101715.276
101710.262
101720.858
101732.212
101744.371
101753.348
101756.544
101752.285
101741.557
101713.739
101675.434
101622.345
101569.246
101499.278
101425.487
101348.273
101289.511
101247.155
101221.234
101175.675
101103.388
101065.276
101019.099
100967.47
100914.511
100867.904
100824.998
100784.746
100746.69
100707.571
100667.811
100626.891
100585.336
100545.93
100508.875
100471.35
100437.982
100408.27
100381.212
100358.055
100338.943
100318.654
100300.324
100283.162
100266.741
100250.677
100230.758
100211.443
100198.904
100190.44
100183.164
100175.639
100168.797
100162.92
100155.592
100149.642
100147.019
100146.673
100145.755
100146.419
100149.471
100153.591
100156.252
100158.875
100162.69
100165.861
100166.324
100166.714
100166.104
100165.932
100164.051
100161.022
100158.006
100153.878
100148.159
100142.078
100135.329
100129.366
100124.663
100120.832
100118.137
100116.304
100115.983
100115.819
100115.827
100116.158
100116.134
100114.333
100111.433
100107.473
100102.04
100094.459
100086.116
100075.818
100067.013
100057.536
100048.432
100039.769
100032.365
100022.833
100012.982
100004.054
99997.8982
99991.8902
99989.1322
99986.3023
99984.4563
99985.3909
99986.3222
99990.3396
99997.5852
100006.629
100014.719
100024.366
100034.154
100043.382
100052.323
100061.217
100068.588
100077.331
100087.345
100097.472
100106.981
100118.567
100131.519
100145.123
100159.417
100173.715
100187.407
100202.365
100218.772
100234.699
100249.75
100264.672
100280.306
100295.668
100310.453
100323.781
100336.621
100348.975
100360.235
100370.073
100381.436
100392.043
100401.553
100408.704
100415.645
100421.467
100425.869
100428.211
100430.52
100431.886
100431.71
100431.41
100429.386
100428.12
100426.508
100424.153
100421.432
100419.574
100417.714
100415.686
100415.795
100415.87
100416.409
100417.994
100419.145
100422.537
100426.128
100430.609
100436.845
100443.452
100452.946
100462.057
100472.407
100481.837
100492.544
100504.317
100517.196
100531.846
100548.2
100565.667
100581.685
100599.939
100618.502
100639.252
100658.278
100678.772
100699.348
100720.264
100742.923
100765.483
100785.768
100807.343
100829.755
100852.547
100873.889
100896.596
100919.73
100943.164
100967.186
100994.066
101020.773
101043.874
101068.451
101093.941
101120.69
101140.311
101165.909
101191.003
101215.093
101239.091
101263.688
101288.35
101313.139
101336.746
101357.592
101382.317
101406.339
101429.616
101453.186
101474.4
101497.013
101519.247
101541.891
101565.777
101589.789
101613.854
101637.081
101660.188
101683.657
101708.828
101735.133
101750.878
101767.731
101787.217
101805.711
101824.301
101843.077
101861.528
101880.627
101897.951
101913.605
101929.421
101944.382
101957.713
101970.143
101983.351
101995.728
102010.516
102024.526
102040.133
102055.945
102071.96
102088.425
102105.282
102121.135
102135.9
102149.634
102164.582
102178.843
102192.125
102205.73
102219.414
102233.063
102246.595
102258.377
102270.635
102281.096
102290.034
102297.328
102304.621
102309.644
102314.651
102319.284
102322.333
102325.825
102329.053
102332.218
102335.009
102341.105
102333.038
102338.132
102340.135
102339.469
102337.909
102336.287
102334.922
102331.438
102327.533
102323.407
102319.118
102314.289
102309.056
102304.299
102300.031
102294.275
102288.543
102282.743
102277.361
102272.833
102267.137
102261.332
102256.156
102251.569
102246.029
102240.25
102235.23
102231.05
102226.261
102221.246
102216.807
102212.581
102208.614
102205.086
102202.244
102200.073
102198.743
102197.466
102196.648
102196.933
102198.863
102201.026
102203.772
102207.644
102212
102216.108
102221.489
102226.352
102231.712
102235.996
102240.142
102243.496
102247.175
102253.424
102254.042
102254.377
102255.054
102254.834
102254.666
102254.038
102252.975
102252.031
102250.277
102248.691
102246.638
102244.645
102242.597
102239.933
102238.061
102236.828
102235.963
102234.999
102234.665
102234.691
102235.451
102236.966
102239.269
102242.125
102245.274
102249.346
102252.818
102257.525
102262.799
102270.076
102277.28
102285.185
102293.727
102302.527
102312.105
102322.056
102333.649
102345.307
102356.615
102368.455
102379.69
102391.062
102402.059
102413.442
102424.834
102435.783
102446.257
102455.413
102464.153
102473.659
102482.205
102488.976
102494.814
102499.627
102503.407
102505.428
102506.186
102506.142
102506.053
102503.891
102502.027
102500.105
102499.373
102500.385
102501.005
102504.107
102510.131
102517.331
102523.462
102531.103
102540.523
102549.61
102556.744
102565.074
102574.726
102584.724
102595.012
102602.899
102611.217
102619.798
102627.807
102636.115
102643.95
102655.102
102669.804
102688.121
102706.745
102720.956
102740.066
102758.836
102777.009
102797.624
102818.895
102839.785
102859.49
102875.512
102892.392
102909.093
102925.399
102940.967
102953.543
102967.033
102981.524
102994.861
103005.287
103014.355
103020.714
103022.291
103033.699
103030.513
103028.03
103022.592
103013.752
103003.66
102987.862
102970
102948.772
102926.917
102898.001
102866.359
102833.295
102798.486
102762.975
102727.405
102688.998
102646.013
102603.139
102558.65
102513.414
102468.301
102424.194
102378.349
102328.87
102280.415
102234.381
102189.431
102145.065
102098.157
102061.96
102009.4
101965.503
101924.942
101887.921
101850.295
101820.556
101779.546
101744.538
101713.716
101683.928
101656.913
101629.392
101599.532
101585.274
101556.386
101532.809
101513.954
101497.732
101478.69
101457.101
101449.855
101434.19
101425.542
101400.081
101391.136
101380.287
101370.702
101361.8
101354.045
101348.119
101343.29
101338.978
101334.731
101332.509
101332.901
101332.007
101331.032
101331.417
101334.807
101342.653
101343.838
101346.302
101350.321
101355.961
101363.058
101369.128
101375.016
101381.77
101389.945
101397.057
101403.806
101411.015
101419.445
101426.772
101431.684
101445.767
101452.553
101461.221
101470.86
101481.129
101490.372
101500.313
101509.685
101517.616
101523.64
101527.414
101537.251
101534.432
101531.268
101529.055
101523.949
101515.868
101505.397
101493.757
101481.725
101467.013
101451.581
101436.412
101422.488
101409.672
101395.389
101381.498
101368.57
101355.851
101342.996
101327.84
101312.002
101297.541
101285.009
101272.534
101263.21
101258.279
101256.8
101255.761
101255.146
101245.908
101244.15
101241.347
101242.007
101248.68
101263.423
101282.967
101312.959
101352.036
101380.242
101415.031
101444.509
101475.029
101480.615
101482.756
101481.028
101469.672
101449.559
101429.013
101409.781
101367.51
101325.008
101277.299
101227.295
101174.957
101120.717
101063.029
101000.668
100937.945
100872.015
100803.09
100728.119
100650.039
100571.2
100488.748
100402.346
100308.542
100210.648
100111.318
100013.572
99915.6152
99817.8631
99717.9914
99613.0838
99509.1457
99408.7226
99314.4755
99223.5304
99137.6657
99056.59
98982.7278
98914.9158
98852.9634
98809.8757
98775.4046
98756.522
98748.1989
98755.136
98779.0163
98809.7382
98856.8229
98918.508
98990.9965
99071.6696
99158.4553
99249.8185
99341.3568
99432.1684
99524.231
99612.5019
99704.7419
99792.9066
99875.8186
99955.7091
100032.71
100105.716
100174.01
100239.542
100301.336
100360.175
100415.425
100467.089
100515.914
100562.531
100599.493
100635.525
100667.163
100697.688
100723.614
100746.662
100768.176
100791.465
100811.879
100829.625
100846.744
100862.96
100877.624
100891.37
100904.388
100916.294
100925.847
100934.609
100942.365
100950.04
100957.764
100965.148
100971.092
100974.906
100979.235
100984.507
100989.02
100990.945
100992.959
100995.843
101002.681
100997.915
101000.602
101001.227
101001.902
101002.643
101003.412
101002.421
101001.643
101000.74
101000.372
101000.719
101000.259
100997.833
100996.38
100995.589
100994.037
100992.043
100989.991
100988.249
100988.082
100990.345
100976.363
100978.943
100981.559
100983.712
100985.812
100988.398
100992.289
100992.683
100998.618
101009.214
101006.484
101013.128
101019.572
101026.42
101031.934
101035.605
101040.612
101046.413
101051.694
101056.89
101060.43
101063.818
101067.589
101070.936
101074.404
101083.46
101078.509
101083.487
101086.603
101089.615
101092.157
101092.38
101103.585
101103.656
101106.439
101110.341
101114.695
101118.626
101122.916
101126.868
101130.263
101133.575
101136.812
101138.782
101141.555
101144.191
101146.62
101149.49
101152.069
101154.595
101158.58
101163.315
101162.623
101163.861
101166.668
101169.031
101170.927
101173.353
101169.596
101167.453
101168.63
101169.954
101170.801
101171.838
101172.893
101173.849
101170.819
101165.139
101176.026
101185.353
101192.37
101197.37
101203.167
101202.63
101205.126
101209.927
101215.174
101219.568
101222.893
101225.738
101227.078
101224.518
101226.006
101237.541
101253.851
101269.312
101284.315
101303.379
101307.283
101320.698
101332.833
101345.667
101358.317
101371.279
101383.178
101391.975
101403.298
101414.903
101423.224
101432.703
101444.243
101457.012
101470.545
101484.56
101499.485
101514.302
101528.885
101544.792
101562.752
101580.393
101598.302
101618.342
101639.412
101660.144
101681.883
101705.795
101731.693
101757.658
101783.84
101807.624
101829.778
101854.704
101873.955
101898.558
101921.424
101943.669
101964.343
101984.388
102005.509
102027.035
102049.698
102070.905
102090.472
102110.695
102132.276
102152.842
102170.062
102189.23
102209.466
102228.164
102245.492
102262.294
102277.628
102289.871
102302.996
102311.799
102324.813
102337.085
102338.795
102342.694
102348.834
102353.667
102352.274
102366.648
102362.678
102363.694
102364.591
102364.107
102362.565
102362.695
102363.444
102363.361
102362.118
102361.94
102360.938
102359.707
102357.937
102354.931
102352.906
102350.017
102346.069
102341.42
102337.627
102332.118
102325.875
102319.46
102312.509
102306.192
102297.757
102288.613
102282.073
102274.199
102266.822
102258.586
102250.395
102243.286
102237.467
102231.693
102225.063
102219.103
102214.693
102209.343
102202.321
102195.71
102190.03
102181.612
102171.374
102161.086
102149.826
102135.89
102121.466
102107.248
102078.142
102060.21
102041.967
102021.318
101998.751
101976.315
101954.548
101941.918
101898.281
101881.799
101858.233
101833.836
101810.134
101787.236
101764.884
101744.681
101727.348
101706.812
101686.439
101668.54
101651.948
101637.08
101621.67
101607.206
101588.4
101578.766
101565.915
101554.03
101541.787
101531.611
101522.592
101513.957
101504.248
101496.444
101489.768
101483.909
101476.849
101472.05
101468.994
101467.02
101463.888
101462.574
101463.999
101464.87
101464.888
101467.158
101469.838
101471.533
101473.992
101476.088
101479.889
101486.044
101491.713
101495.538
101500.975
101509.973
101523.566
101532.866
101536.771
101541.38
101546.991
101548.772
101548.216
101547.347
101544.421
101539.925
101533.573
101526.581
101518.517
101508.208
101498.113
101487.901
101477.793
101469.185
101461.377
101457.913
101458.051
101450.38
101444.377
101440.028
101435.487
101431.327
101424.954
101417.569
101411.395
101405.253
101396.671
101387.515
101379.738
101372.736
101365.162
101358.859
101355.106
101353.741
101353.635
101355.324
101358.683
101363.574
101369.718
101376.777
101383.125
101389.96
101397.231
101405.612
101416.587
101426.805
101438.272
101451.214
101464.586
101479.001
101491.608
101504.239
101514.611
101522.107
101526.826
101530.541
101531.185
101530.593
101528.346
101527.719
101528.433
101520.379
101512.099
101504.219
101496.483
101488.248
101481.89
101473.309
101462.621
101452.384
101437.193
101421.235
101404.549
101393.925
101378.411
101364.833
101353.604
101342.781
101333.649
101324.48
101313.827
101301.394
101284.073
101263.208
101242.082
101221.358
101197.297
101172.014
101147.542
101123.198
101098.053
101071.13
101044.018
101019.27
100996.453
100970.936
100946.343
100924.538
100902.664
100880.298
100860.423
100844.358
100826.086
100808.673
100794.335
100782.057
100772.997
100762.363
100752.464
100746.78
100745.209
100745.119
100746.976
100748.132
100748.704
100750.737
100755.385
100760.744
100767.193
100773.173
100778.371
100788.339
100797.266
100804.987
100811.879
100819.613
100828.528
100837.917
100847.994
100857.848
100869.372
100881.958
100891.863
100901.717
100912.911
100921.713
100930.116
100939.593
100947.584
100962.463
100966.333
100975.276
100983.388
100990.731
100997.149
101003.965
101011.45
101016.727
101020.955
101025.954
101031.797
101035.576
101038.738
101042.899
101048.379
101051.861
101052.331
101059.448
101062.177
101067.32
101071.101
101074.624
101079.161
101084.843
101089.007
101092.839
101097.379
101102.966
101107.138
101110.453
101113.494
101116.992
101121.287
101124.414
101126.969
101129.684
101132.103
101134.205
101136.531
101138.992
101140.52
101142.171
101143.718
101144.909
101145.891
101146.712
101147.49
101147.416
101147.452
101147.24
101146.701
101145.835
101145.028
101143.977
101142.228
101140.435
101138.905
101137.004
101134.909
101132.769
101130.591
101128.401
101126.263
101124.036
101121.855
101119.866
101118.19
101116.831
101116.213
101115.406
101115.052
101115.357
101116.05
101116.468
101117.431
101119.149
101121.008
101122.338
101124.202
101126.823
101129.392
101131.235
101133.714
101137.042
101140.148
101142.131
101144.373
101149.045
101150.935
101154.693
101157.508
101160.517
101162.628
101165.365
101168.803
101171.441
101173.544
101176.343
101179.206
101180.745
101182.734
101185.155
101187.543
101189.637
101190.483
101191.745
101193.179
101194.07
101192.206
101200.427
101198.498
101199.231
101200.625
101202.077
101203.811
101204.476
101205.518
101206.453
101206.758
101215.969
101216.865
101219.192
101223.056
101228.056
101233.202
101237.581
101242.902
101249.543
101259.275
101264.098
101272.629
101282.31
101291.222
101301.114
101311.439
101322.746
101334.986
101347.571
101360.419
101373.828
101387.738
101401.655
101412.947
101431.853
101441.622
101454.291
101469.564
101484.018
101496.688
101509.292
101521.279
101533.383
101545.661
101557.722
101568.928
101578.258
101593.765
101602.049
101611.804
101621.627
101631.799
101642.54
101652.838
101662.069
101672.181
101682.983
101693.812
101705.197
101720.099
101724.461
101737.08
101748.887
101761.459
101775.116
101791.436
101800.237
101815.451
101830.247
101845.229
101861.405
101878.658
101896.231
101913.745
101932.112
101951.296
101971.592
101993.171
102013.384
102033.765
102054.396
102079.533
102104.041
102127.151
102154.25
102179.551
102204.716
102230.716
102258.367
102283.609
102310.779
102339.284
102370.292
102397.321
102425.4
102453.721
102484.16
102510.78
102539.229
102567.672
102595.319
102622.432
102649.517
102675.963
102697.999
102720.508
102741.802
102761.722
102780.433
102796.581
102813.469
102829.279
102845.94
102859.989
102874.584
102887.632
102901.517
102914.729
102927.585
102939.999
102949.762
102960.169
102969.87
102978.745
102985.947
102991.451
102995.969
102999.166
103000.978
103000.897
103000.208
102996.84
102992.197
102985.81
102977.287
102966.484
102954.271
102940.773
102924.029
102905.919
102887.345
102868.088
102847.456
102825.569
102801.188
102775.225
102748.593
102720.73
102692.715
102665.475
102638.556
102609.667
102578.814
102547.417
102516.163
102484.574
102451.545
102417.716
102384.517
102352.524
102322.632
102284.001
102246.564
102216.61
102187.092
102157.933
102129.005
102100.238
102076.038
102053.685
102030.942
102008.764
101991.305
101975.268
101959.308
101944.022
101932.301
101921.763
101911.574
101902.112
101894.136
101887.091
101880.024
101873.113
101865.987
101859.581
101853.63
101847.157
101840.817
101834.269
101828.045
101822.021
101816.427
101811.517
101807.19
101803.259
101799.805
101796.933
101794.158
101790.908
101787.901
101785.401
101782.932
101779.768
101776.223
101772.914
101769.752
101765.738
101761.442
101757.861
101754.915
101751.742
101749.041
101747.358
101746.773
101746.368
101746.292
101747.404
101749.21
101750.73
101754.597
101760.679
101762.608
101765.479
101772.13
101777.826
101784.947
101792.585
101800.363
101808.058
101816.454
101825.21
101834.013
101843.175
101852.472
101861.922
101871.555
101881.257
101891.012
101900.889
101910.554
101920.631
101929.602
101939.36
101949.121
101958.568
101967.598
101977.545
101987.528
101997.083
102006.816
102016.15
102025.249
102034.432
102042.578
102050.462
102057.355
102063.568
102069.421
102073.774
102076.905
102079.217
102081.164
102081.476
102080.646
102079.5
102078.25
102075.813
102072.55
102069.044
102065.4
102061.772
102058.203
102054.478
102050.843
102046.563
102042.035
102037.369
102032.54
102027.465
102022.174
102016.654
102010.647
102004.46
101997.346
101989.472
101981.651
101974.425
101967.807
101960.727
101953.716
101947.082
101941.562
101937.022
101932.198
101927.719
101924.204
101921.848
101919.169
101916.5
101914.045
101912.435
101912.627
101913.033
101910.517
101906.201
101901.235
101896.091
101891.079
101884.62
101880.238
101879.399
101880.713
101884.833
101887.561
101891.761
101895.794
101894.879
101894.008
101892.584
101890.593
101887.758
101884.247
101880.364
101874.748
101868.871
101863.428
101858.096
101853.124
101850.746
101851.86
101854.012
101854.006
101853.912
101856.19
101859.322
101863.567
101868.804
101873.943
101879.458
101886.004
101893.218
101902.129
101911.444
101920.09
101929.092
101937.896
101946.114
101953.337
101958.649
101964.231
101968.29
101969.402
101972.2
101962.273
101952.548
101938.617
101929.166
101903.972
101879.573
101851.133
101819.448
101787.602
101756.139
101722.721
101687.414
101653.201
101616.54
101579.217
101539.517
101496.847
101450.648
101401.312
101349.547
101292.684
101230.849
101169.897
101106.001
101041.299
100973.096
100903.249
100834.877
100768.305
100694.503
100618.236
100535.732
100451.298
100364.813
100277.818
100190.374
100102.591
100012.376
99918.2062
99827.3732
99737.7063
99651.5816
99564.0195
99483.3323
99409.1975
99345.0037
99292.0991
99238.0186
99191.2744
99158.2185
99132.6168
99116.6724
99109.3855
99113.8912
99123.8722
99135.8466
99165.0965
99199.6107
99257.918
99305.2784
99352.3206
99399.6211
99444.7314
99484.8461
99520.5715
99550.7775
99575.7236
99595.619
99608.896
99617.3429
99620.5328
99617.4449
99608.5945
99593.7676
99572.9113
99543.6727
99509.6186
99470.5152
99424.7213
99374.0422
99315.3716
99252.7244
99184.9021
99114.2016
99037.0317
98958.6965
98877.2385
98797.8484
98713.308
98634.9235
98561.2156
98493.1495
98434.7815
98390.1189
98360.1615
98339.9615
98334.3994
98347.4609
98376.9549
98421.5729
98481.4794
98556.2098
98639.6533
98734.1205
98846.0831
98944.4516
99069.4271
99199.5348
99328.0156
99457.2938
99590.4677
99724.5547
99858.7619
99984.1645
100104.392
100218.16
100328.595
100429.338
100524.73
100615.246
100703.763
100787.924
100865.651
100935.728
101001.779
101064.807
101125.41
101182.058
101234.488
101282.339
101329.692
101384.443
101406.523
101434.808
101460.151
101482.244
101501.812
101517.904
101529.538
101539.484
101548.46
101560.006
101555.403
101554.409
101555.628
101558.422
101562.888
101570.117
101578.379
101587.05
101594.556
101601.041
101604.486
101605.227
101601.093
101597.207
101591.96
101585.508
101578.823
101571.822
101562.104
101551.057
101538.475
101523.596
101506.338
101487.281
101466.385
101443.53
101419.431
101395.651
101372.891
101349.931
101324.327
101298.031
101274.577
101252.34
101228.441
101204.383
101182.319
101161.374
101139.857
101117.809
101097.607
101079.415
101057.389
101036.625
101016.402
100999.143
100982.837
100969.263
100957.903
100948.372
100940.343
100932.78
100925.459
100917.382
100908.317
100899.273
100890.168
100876.493
100862.519
100848.746
100836.088
100823.687
100808.618
100794.133
100780.888
100769.425
100757.295
100745.013
100733.43
100723.04
100714.047
100705.721
100696.5
100687.171
100678.249
100670.829
100665.237
100658.754
100652.324
100647.177
100643.692
100639.243
100635.507
100632.145
100629.117
100626.56
100623.863
100621.231
100616.991
100613.192
100609.879
100606.864
100604.189
100601.862
100599.596
100598.027
100598.07
100598.93
100600.892
100604.161
100607.6
100613.365
100620.71
100628.413
100638.036
100648.258
100659.551
100671.035
100684.072
100697.324
100712.84
100728.996
100743.979
100760.26
100777.386
100795.334
100813.965
100833.424
100853.436
100873.097
100893.469
100914.462
100937.288
100959.9
100982.77
101006.796
101030.805
101055.432
101081.248
101107.75
101131.773
101157.287
101183.426
101210.496
101238.329
101263.07
101289.272
101316.155
101343.795
101372.067
101397.104
101423.541
101450.716
101478.719
101506.841
101533.549
101560.612
101589.112
101617.972
101644.38
101672.538
101701.36
101731.288
101762.247
101794.789
101829.219
101865.203
101903.293
101942.789
101978.198
102016.491
102055.842
102095.95
102136.272
102171.219
102207.412
102243.3
102278.987
102314.705
102353.679
102387.792
102423.838
102458.124
102494.705
102529.765
102560.243
102592.307
102623.251
102651.991
102675.835
102699.762
102720.048
102736.348
102749.827
102758.091
102765.243
102767.76
102767.039
102764.924
102761.948
102754.285
102742.89
102729.635
102715.39
102696.843
102676.647
102656.129
102636.834
102615.626
102595
102575.738
102559.122
102542.514
102525.516
102508.413
102492.231
102477.217
102461.219
102446.271
102434.073
102423.938
102415.467
102407.622
102400.01
102392.966
102387.091
102381.87
102375.868
102370.47
102365.76
102364.755
102359.362
102356.276
102354.348
102351.889
102349.972
102349.022
102348.616
102347.519
102346.978
102346.388
102345.726
102345.113
102344.4
102343.543
102342.574
102340.859
102339.088
102337.378
102335.096
102332.345
102329.299
102325.676
102321.931
102317.934
102313.372
102308.424
102302.982
102296.668
102290.013
102282.3
102274.293
102264.833
102254.834
102244.43
102234.171
102223.337
102210.427
102195.272
102194.467
102190.594
102184.03
102175.496
102170.596
102176.371
102184.75
102192.889
102198.116
102204.124
102211.608
102219.498
102225.418
102233.349
102242.357
102252.683
102263.742
102272.136
102281.818
102292.874
102303.328
102310.27
102316.296
102321.569
102327.605
102331.889
102336.063
102339.586
102343.406
102344.729
102342.03
102334.288
102337.126
102335.254
102328.689
102318.082
102307.547
102295.14
102279.421
102260.105
102241.113
102219.954
102197.111
102173.311
102152.798
102129.781
102105.687
102082.624
102056.543
102032.688
102007.706
101981.836
101954.322
101927.564
101896.715
101863.148
101830.361
101798.044
101764.871
101732.656
101703.545
101671.021
101638.808
101610.112
101581.13
101554.86
101525.833
101498.568
101473.492
101451.855
101429.957
101410.183
101388.693
101367.28
101346.741
101327.103
101308.896
101292.974
101274.066
101259.909
101244.334
101230.559
101217.788
101206.861
101196.91
101188.961
101181.041
101175.707
101170.351
101164.869
101159.381
101155.561
101151.824
101148.019
101144.112
101141.648
101139.751
101137.767
101135.587
101134.579
101134.07
101133.325
101132.166
101131.864
101131.496
101130.289
101128.116
101126.683
101125.312
101125.614
101127.413
101130.388
101134.57
101138.623
101141.846
101144.222
101146.056
101148.383
101150.842
101153.033
101155.187
101158.002
101161.279
101164.659
101167.937
101171.185
101174.187
101177.071
101179.369
101180.531
101180.541
101179.314
101176.502
101171.876
101166.517
101159.833
101152.392
101143.507
101133.541
101123.222
101112.394
101100.977
101089.516
101078.073
101066.406
101054.592
101041.781
101031.666
101023.873
101015.529
101009.832
101005.524
101001.694
100998.615
100995.78
100993.172
100991.745
100991.625
100992.151
100992.931
100994.28
100995.986
100997.527
100998.628
100999.725
101000.438
100999.978
100998.694
100997.438
100995.605
100993.048
100990.29
100987.927
100984.668
100981.11
100978.709
100977.872
100977.439
100977.911
100980.403
100985.759
100992.916
101001.522
101012.961
101026.584
101041.958
101058.951
101076.847
101094.969
101114.714
101135.145
101156.234
101179.309
101201.938
101224.983
101249.45
101274.517
101299.026
101323.554
101345.808
101374.257
101396.745
101425.315
101453.392
101480.165
101506.318
101542.959
101567.018
101594.702
101622.522
101649.969
101678.082
101703.729
101727.109
101749.684
101771.008
101789.885
101804.542
101817.544
101828.234
101840.875
101850.607
101857.884
101863.942
101869.965
101874.832
101872.03
101867.84
101860.95
101857.765
101847.861
101839.974
101830.495
101819.691
101811.304
101805.127
101799.998
101796.545
101794.442
101790.3
101786.458
101784.405
101783.385
101767.436
101748.182
101720.32
101695.987
101654.318
101610.562
101558.559
101502.838
101446.837
101394.101
101325.321
101253.249
101173.679
101100.559
101014.757
100926.586
100830.912
100742.081
100643.843
100545.48
100439.983
100342.297
100255.155
100165.348
100079.222
99992.7461
99918.0678
99842.6704
99778.8063
99726.5243
99681.5591
99638.4243
99608.4857
99591.5378
99586.013
99585.6496
99594.0964
99612.2342
99638.7102
99669.2785
99705.939
99750.7533
99799.2026
99850.4215
99904.2683
99964.9429
100023.956
100083.549
100141.635
100205.25
100265.593
100329.491
100395.283
100463.31
100531.284
100594.859
100656.145
100710.865
100772.048
100821.774
100877.266
100928.078
100973.338
101015.778
101056.217
101093.537
101127.931
101160.99
101192.755
101222.192
101249.439
101275.774
101301.274
101324.964
101346.882
101368.055
101388.56
101408.225
101427.198
101444.745
101463.238
101481.483
101499.429
101517.127
101534.712
101550.49
101567.136
101583.972
101600.767
101619.541
101638.952
101657.909
101674.456
101693.31
101714.066
101734.04
101752.519
101771.622
101791.22
101812.848
101832.792
101853.088
101872.972
101894.139
101914.156
101933.831
101953.826
101974.901
101998.457
102022.02
102044.895
102066.647
102086.584
102112.464
102136.305
102157.022
102177.768
102202.963
102226.208
102247.098
102268.118
102291.846
102314.491
102336.405
102358.001
102379.377
102400.306
102419.739
102438.848
102458.115
102476.72
102493.029
102508.905
102526.007
102542.021
102555.623
102568.837
102582.981
102595.983
102606.569
102616.794
102627.577
102637.153
102644.281
102651.345
102657.904
102663.036
102667.805
102671.25
102673.067
102674.142
102675.283
102675.5
102674.763
102672.145
102669.828
102666.843
102662.599
102656.899
102651.664
102645.475
102637.944
102628.811
102619.62
102608.543
102595.885
102581.064
102566.096
102547.243
102527.318
102506.915
102485.885
102463.728
102440.246
102416.135
102392.259
102365.548
102337.922
102310.381
102282.664
102255.283
102228.9
102200.911
102171.383
102142.609
102113.374
102083.944
102053.964
102020.252
101987.397
101955.614
101924.568
101891.065
101858.862
101828.521
101796.985
101764.532
101735.889
101708.458
101680.273
101650.445
101621.602
101594.078
101566.438
101551.716
101520.406
101493.99
101470.39
101448.025
101425.998
101405.159
101383.218
101361.38
101343.386
101327.866
101311.304
101295.047
101282.152
101271.794
101260.7
101250.188
101242.303
101235.046
101237.307
101228.067
101223.981
101222.269
101222.787
101224.554
101226.24
101228.367
101232.096
101238.24
101243.53
101248.823
101254.436
101255.674
101271.744
101283.265
101294.068
101304.739
101315.663
101325.96
101336.682
101347.98
101358.985
101370.112
101381.409
101391.913
101401.808
101411.193
101421.601
101430.559
101439.752
101448.745
101458.037
101470.57
101469.33
101481.422
101489.364
101496.613
101503.578
101515.949
101519.868
101525.557
101532.061
101539.298
101545.394
101550.981
101556.573
101562.777
101567.881
101572.595
101577.197
101582.587
101586.689
101591.143
101595.613
101599.768
101603.048
101607.974
101611.285
101615.37
101619.023
101626.848
101628.639
101631.904
101635.693
101639.279
101643.452
101647.02
101650.634
101654.31
101658.564
101662.19
101666.314
101670.236
101674.509
101678.686
101682.97
101687.416
101691.469
101696.036
101700.265
101704.69
101709.197
101713.275
101718.036
101722.525
101727.357
101732.319
101737.249
101742.147
101746.335
101750.801
101755.356
101760.442
101765.233
101770.091
101774.934
101781.034
101786.031
101791.29
101796.199
101801.059
101806.984
101812.512
101818.009
101823.48
101828.44
101833.323
101838.312
101843.448
101848.569
101853.399
101857.458
101861.566
101866.35
101870.739
101873.979
101877.492
101881.646
101885.072
101886.728
101888.16
101890.149
101891.695
101890.348
101886.634
101893.223
101888.628
101886.428
101885.555
101883.44
101881.858
101879.38
101876.608
101873.708
101870.833
101868.602
101865.136
101861.54
101858.676
101855.672
101852.453
101847.918
101844.909
101841.688
101837.724
101833.91
101831.043
101828.05
101823.898
101820.855
101818.451
101815.7
101811.842
101809.077
101806.756
101803.707
101799.11
101795.071
101790.857
101785.677
101778.991
101772.244
101766.002
101761.686
101756.431
101751.564
101746.34
101740.234
101734.14
101725.718
101718.432
101703.325
101699.398
101695.732