/*--------------------------------*- C++ -*----------------------------------*\
| =========                 |                                                 |
| \\      /  F ield         | OpenFOAM: The Open Source CFD Toolbox           |
|  \\    /   O peration     | Version:  2306                                  |
|   \\  /    A nd           | Website:  www.openfoam.com                      |
|    \\/     M anipulation  |                                                 |
\*---------------------------------------------------------------------------*/
FoamFile
{
    version     2.0;
    format      ascii;
    arch        "LSB;label=32;scalar=64";
    class       volScalarField;
    location    "0.00058";
    object      h;
}
// * * * * * * * * * * * * * * * * * * * * * * * * * * * * * * * * * * * * * //

dimensions      [0 2 -2 0 0 0 0];

internalField   nonuniform List<scalar> 
530
(
5730.90645
3016.88594
2283.98283
2274.73548
2273.91452
2273.89558
2273.89464
2273.89461
2273.89461
2273.89461
2273.89461
2273.89461
2273.89461
2273.89461
2273.89461
2273.89461
2273.89461
2273.89461
2273.89461
2273.89461
2273.89461
2273.89461
2273.89461
2273.89461
2273.89461
2273.89461
2273.89461
2273.89461
2273.89461
2273.89461
2273.89461
2273.89461
2273.89461
2273.89461
2273.89461
2273.89461
2273.89461
2273.89461
2273.89461
2273.89461
2273.89461
2273.89461
2273.89461
2273.89461
2273.89461
2273.89461
2273.89461
2273.89461
2273.89461
2273.89461
2273.89461
2273.89461
2273.89461
2273.89461
2273.89461
2273.89461
2273.89461
2273.89461
2273.89461
2273.89461
2273.89461
2273.89461
2273.89461
2273.89461
2273.89461
2273.89461
2273.89461
2273.89461
2273.89461
2273.89461
2273.89463
2273.89463
2273.89474
2273.89494
2273.89517
2273.89842
2273.89975
2273.90772
2273.93729
2273.98158
2274.01809
2274.1978
2274.59386
2275.60435
2275.82169
2276.06278
2276.6556
2282.93013
2325.76614
2331.50713
2155.45201
2078.00734
2446.06231
3156.30347
3187.64563
-188.29045
-2116.73856
1473.70273
9104.9729
9177.45216
730.058814
-3358.94211
-4607.61664
-3642.22659
6735.53841
10166.0742
9272.84653
508.419258
-3980.90197
-5690.25793
-4140.48839
6747.56256
9599.81666
9796.84342
9363.34368
-1910.71293
-5250.09164
841.768497
8907.0362
7526.71707
-2996.16134
-5643.54224
1022.28259
8796.38881
3784.56271
-2795.19656
1964.69685
9241.24099
7815.15606
-2646.57549
-5344.94735
1194.86492
8841.7891
3657.92376
-2907.84548
2016.58731
9246.77297
7596.4382
-2842.77394
-5445.44566
1317.20264
8850.29604
3455.03502
-3008.20569
2133.77112
9251.87815
7288.36507
-3160.69759
-5649.16484
1449.75977
8860.28138
3225.52174
-3362.9312
2374.99684
9136.95319
3182.68141
-2840.48585
2733.28974
9426.61148
7099.69902
-3248.71032
-5465.52505
2325.89955
9098.41532
2974.60108
-2866.08618
2504.58822
9611.75617
7681.84928
-934.640286
-4786.14944
-5372.32214
1650.94769
9171.22536
6721.87018
-3593.32491
-5509.25327
2528.72967
9119.07868
2551.66347
-3270.41563
3435.22693
9389.47542
2542.76625
-2823.0838
3530.18726
9643.07298
6482.41705
-3588.5411
-5435.53657
2922.36745
9181.76548
2134.54671
-3534.78146
2716.83848
9491.78045
6559.03578
-3723.57178
-5573.21737
2354.27167
9126.68765
2487.58979
-4035.61692
2134.3523
9242.50008
3169.64826
-3791.82452
1831.09267
9236.45815
3489.20133
-3923.98809
1425.3621
9160.59274
3598.2253
-4035.57209
1292.9598
9139.96829
3664.19443
-4522.17918
305.615247
8971.40565
4166.09671
-4569.49281
-77.5144133
8971.84008
4257.97223
-4238.71233
519.90571
9097.49235
4373.50171
-3777.20007
-7.86593576
9297.42195
8599.52332
-3299.21124
-5934.13038
1842.79919
9137.56657
3006.96314
-4030.2487
1599.92925
9325.32941
3969.16642
-3491.0034
333.371466
9385.36138
8693.65144
-3345.49162
-5730.05457
2607.54657
9275.39178
2932.08454
-3818.87682
360.28976
9371.0261
8910.4997
-3320.71809
-5458.137
3421.77322
9430.18785
3059.21947
-3290.56963
631.808053
9612.46304
9494.48625
-611.842551
-5057.8574
-5268.38357
1601.82913
9454.48661
7803.7909
-3431.23826
-4956.07173
4470.7702
9659.69478
3264.41573
-2398.23623
1564.63006
9839.11673
9954.83424
1431.43666
-3081.15816
-4378.46966
-5215.37533
1036.79173
9478.82278
8934.3113
-2512.6579
-4623.73433
2669.37158
9707.64269
8372.8324
-2606.41233
-4678.94779
2360.2466
9581.74718
7816.84673
-2992.03667
-5070.41809
2306.21792
9478.03323
7281.41034
-3379.75915
-5394.1554
2707.43215
9323.70365
3073.50955
-3001.62812
2493.11385
9579.73566
7421.41422
-3419.78076
-5562.38296
2641.74208
9257.35585
2526.02577
-3098.22345
2264.30978
9427.50179
10315.1415
6931.76502
-1665.29721
-3409.90793
-5022.96197
-5938.77312
2066.30566
9149.77132
2469.40675
-3313.06058
3809.06967
9506.43808
2239.91875
-2888.18106
4270.53365
9709.40047
5751.81209
-4291.28663
-5530.9506
4105.66076
9346.80333
1104.57929
-3744.05527
4448.79443
9461.08013
1165.15533
-3344.61028
4745.93464
9699.59964
4917.37652
-4733.85505
-5333.50988
5305.10348
9644.15489
4399.36198
-4800.25268
-5332.97036
6370.23034
9493.38855
6.03506699
-3325.42825
5699.65905
9818.54802
4363.85486
-4830.67873
-5308.83285
6024.1953
9730.45115
4052.42207
-4817.34387
-5147.33038
6720.68331
9472.64125
-508.069764
-3908.20619
5649.12506
9466.26263
-117.648016
-4196.89442
3937.28022
9647.11937
5807.32086
-4391.35532
-5057.02694
6562.38219
9280.19217
-1308.98916
-3520.02906
6701.64744
9825.17975
2860.45795
-5288.9224
-5424.22089
7875.92276
9230.98207
-1743.19281
-3948.51014
6552.56142
9243.64072
-1604.50533
-4015.70192
7022.01751
8677.29027
-2303.74285
-3229.57202
8089.98373
9680.52123
1500.06653
-5774.02296
-5674.24572
7927.58725
8539.73341
-2870.52961
-3136.40947
8290.20183
8064.10402
-3173.04013
-1752.4526
8771.31082
5482.98514
-2984.16971
773.018701
9341.27446
9344.56641
-1582.97779
-5664.80722
-1018.81673
8724.36587
4633.7225
-2882.26835
942.985729
9488.03324
9456.40446
1460.00526
-4476.67595
-5512.76144
-831.103233
8858.94072
9259.76206
-1242.88523
-5128.88121
-380.223937
8929.30734
9357.18147
-1048.03946
-4988.50454
-99.2667638
8955.98099
9158.78561
-1440.84776
-5133.55675
95.0980753
8969.71876
9065.29739
-1752.33583
-5121.50012
-1143.13763
7949.7432
10241.7104
9813.91525
1314.98195
-4740.16736
-5789.219
-162.948415
8814.01568
8717.46335
-2387.94614
-5325.34529
601.099582
8854.39974
3577.82596
-2911.50239
2612.52779
9411.62999
7849.45081
-2744.68987
-5420.04092
835.711156
8819.54771
3046.93675
-3672.29438
2715.84398
9298.58536
2540.23272
-3134.10268
3590.22335
9522.47834
6537.3199
-3642.90912
-5692.99047
1633.53021
8965.48748
2090.39873
-4042.2269
3471.5401
9406.8556
1560.60862
-3377.12211
4544.98853
9655.71492
5385.88258
-4364.05299
-5778.70072
3316.91158
9265.07776
981.724532
-4218.87048
4452.28446
9542.1474
563.540011
-3547.72457
5488.47115
9792.91436
4478.64555
-4809.13939
-5732.90345
4511.71559
9414.40113
-55.7308452
-4440.35983
5194.83222
9570.29292
-348.533111
-4436.47322
5535.51102
9597.64863
-699.815963
-3818.03213
6427.4677
9921.50913
4076.71283
)
;

boundaryField
{
    closed
    {
        type            lookUpEnthalpy;
        h0              uniform 255479.123;
        value           uniform 255479.123;
    }
    open
    {
        type            zeroGradient;
    }
    sides
    {
        type            empty;
    }
    procBoundary0to1
    {
        type            processor;
        value           uniform -4935.72591;
    }
}


// ************************************************************************* //
