/*--------------------------------*- C++ -*----------------------------------*\
| =========                 |                                                 |
| \\      /  F ield         | OpenFOAM: The Open Source CFD Toolbox           |
|  \\    /   O peration     | Version:  2306                                  |
|   \\  /    A nd           | Website:  www.openfoam.com                      |
|    \\/     M anipulation  |                                                 |
\*---------------------------------------------------------------------------*/
FoamFile
{
    version     2.0;
    format      ascii;
    arch        "LSB;label=32;scalar=64";
    class       volVectorField;
    location    "0.00058";
    object      U;
}
// * * * * * * * * * * * * * * * * * * * * * * * * * * * * * * * * * * * * * //

dimensions      [0 1 -1 0 0 0 0];

internalField   nonuniform List<vector> 
530
(
(0.179285391 0 0)
(0.33256056 0 0)
(0.304931639 0 0)
(0.217916385 0 0)
(0.151855533 0 0)
(0.137477692 0 0)
(0.118289239 0 0)
(0.141934753 0 0)
(0.20796962 0 0)
(0.253037971 0 0)
(0.140659541 0 0)
(-0.0955941648 0 0)
(-0.161550224 0 0)
(0.101270764 0 0)
(0.373466965 0 0)
(0.300145811 0 0)
(-0.0554084812 0 0)
(-0.319607411 0 0)
(-0.218657711 0 0)
(0.213234918 0 0)
(0.724447038 0 0)
(1.08192686 0 0)
(1.14483818 0 0)
(0.937960589 0 0)
(0.730253101 0 0)
(0.781384696 0 0)
(1.09323185 0 0)
(1.42519988 0 0)
(1.53961103 0 0)
(1.40190143 0 0)
(1.17009455 0 0)
(1.04547273 0 0)
(1.09537895 0 0)
(1.25330359 0 0)
(1.40528349 0 0)
(1.47353297 0 0)
(1.44061079 0 0)
(1.33230676 0 0)
(1.19678769 0 0)
(1.07889772 0 0)
(1.01153401 0 0)
(1.0086875 0 0)
(1.06905829 0 0)
(1.17430244 0 0)
(1.29533812 0 0)
(1.40198254 0 0)
(1.47151757 0 0)
(1.49777599 0 0)
(1.48549112 0 0)
(1.44807314 0 0)
(1.39819877 0 0)
(1.34495922 0 0)
(1.29330054 0 0)
(1.24404001 0 0)
(1.19736913 0 0)
(1.15287039 0 0)
(1.11113367 0 0)
(1.07283143 0 0)
(1.03942446 0 0)
(1.01268588 0 0)
(0.993542927 0 0)
(0.983850662 0 0)
(0.984342544 0 0)
(0.996014677 0 0)
(1.01928292 0 0)
(1.05441017 0 0)
(1.10101831 0 0)
(1.1580109 0 0)
(1.22420605 0 0)
(1.29774824 0 0)
(1.37639437 0 0)
(1.45782071 0 0)
(1.53955161 0 0)
(1.61931149 0 0)
(1.69512279 0 0)
(1.76537712 0 0)
(1.82896562 0 0)
(1.88522663 0 0)
(1.93390047 0 0)
(1.97511241 0 0)
(2.00925625 0 0)
(2.03688636 0 0)
(2.05865157 0 0)
(2.07523472 0 0)
(2.08729854 0 0)
(2.09545235 0 0)
(2.1002428 0 0)
(2.10213311 0 0)
(2.10164366 0 0)
(2.09895597 0 0)
(2.09435488 0 0)
(2.0886011 0 0)
(2.08118578 0 0)
(2.07332155 0 0)
(2.06265151 0 0)
(2.04766021 0 0)
(2.0356736 0 0)
(2.02632257 0 0)
(2.03492056 0 0)
(2.01608263 0 0)
(1.98068511 0 0)
(1.96112449 0 0)
(1.94989744 0 0)
(1.91909023 0 0)
(1.88053946 0 0)
(1.86462895 0 0)
(1.8586069 0 0)
(1.84468159 0 0)
(1.81960345 0 0)
(1.80794575 0 0)
(1.77883005 0 0)
(1.74071563 0 0)
(1.72576008 0 0)
(1.71961598 0 0)
(1.7105821 0 0)
(1.68588201 0 0)
(1.655337 0 0)
(1.65106573 0 0)
(1.64742117 0 0)
(1.6778097 0 0)
(1.71229661 0 0)
(1.7109935 0 0)
(1.70989358 0 0)
(1.69797183 0 0)
(1.69610391 0 0)
(1.69494099 0 0)
(1.68754562 0 0)
(1.67907571 0 0)
(1.71281087 0 0)
(1.75070116 0 0)
(1.75005546 0 0)
(1.74682554 0 0)
(1.73389337 0 0)
(1.72823391 0 0)
(1.72603376 0 0)
(1.71666371 0 0)
(1.70628771 0 0)
(1.73410979 0 0)
(1.7669688 0 0)
(1.76470525 0 0)
(1.75867769 0 0)
(1.74280059 0 0)
(1.73072239 0 0)
(1.72477571 0 0)
(1.71069573 0 0)
(1.69595948 0 0)
(1.71509578 0 0)
(1.7404856 0 0)
(1.7361303 0 0)
(1.72660181 0 0)
(1.70690036 0 0)
(1.68786931 0 0)
(1.67776516 0 0)
(1.66214327 0 0)
(1.63644309 0 0)
(1.61732259 0 0)
(1.60525672 0 0)
(1.58141694 0 0)
(1.55746508 0 0)
(1.567732 0 0)
(1.58533477 0 0)
(1.57683455 0 0)
(1.55668816 0 0)
(1.52730089 0 0)
(1.50301667 0 0)
(1.48714046 0 0)
(1.46304896 0 0)
(1.44199071 0 0)
(1.45670338 0 0)
(1.45696548 0 0)
(1.42399332 0 0)
(1.4066611 0 0)
(1.39268358 0 0)
(1.37543755 0 0)
(1.37952626 0 0)
(1.38980835 0 0)
(1.37826959 0 0)
(1.35544749 0 0)
(1.32570075 0 0)
(1.30002677 0 0)
(1.28123765 0 0)
(1.25542885 0 0)
(1.22385979 0 0)
(1.20092799 0 0)
(1.1819384 0 0)
(1.15178736 0 0)
(1.12292031 0 0)
(1.12202144 0 0)
(1.12730708 0 0)
(1.11626081 0 0)
(1.09206955 0 0)
(1.06276884 0 0)
(1.04125313 0 0)
(1.02205883 0 0)
(0.99626026 0 0)
(0.974144732 0 0)
(0.978401971 0 0)
(0.986163117 0 0)
(0.974620591 0 0)
(0.952731774 0 0)
(0.928952995 0 0)
(0.913797119 0 0)
(0.898868781 0 0)
(0.879030342 0 0)
(0.858406195 0 0)
(0.849774889 0 0)
(0.838516173 0 0)
(0.820203754 0 0)
(0.801471236 0 0)
(0.796415888 0 0)
(0.787891166 0 0)
(0.771546791 0 0)
(0.755291551 0 0)
(0.753170015 0 0)
(0.746513612 0 0)
(0.730839462 0 0)
(0.715721673 0 0)
(0.715533098 0 0)
(0.711624678 0 0)
(0.700289381 0 0)
(0.690556106 0 0)
(0.696041037 0 0)
(0.696328915 0 0)
(0.687032963 0 0)
(0.679909572 0 0)
(0.687905076 0 0)
(0.689304749 0 0)
(0.679467093 0 0)
(0.671992398 0 0)
(0.680999029 0 0)
(0.683092763 0 0)
(0.676667687 0 0)
(0.679661429 0 0)
(0.701260109 0 0)
(0.718799388 0 0)
(0.711573417 0 0)
(0.696672027 0 0)
(0.687196537 0 0)
(0.690409456 0 0)
(0.689291822 0 0)
(0.680931665 0 0)
(0.674214901 0 0)
(0.683153564 0 0)
(0.685644839 0 0)
(0.681266394 0 0)
(0.685886272 0 0)
(0.708464609 0 0)
(0.72704667 0 0)
(0.722264779 0 0)
(0.707457041 0 0)
(0.696848294 0 0)
(0.699706162 0 0)
(0.698636971 0 0)
(0.694871523 0 0)
(0.700873231 0 0)
(0.72324094 0 0)
(0.740015657 0 0)
(0.735585705 0 0)
(0.72047269 0 0)
(0.708327408 0 0)
(0.71112493 0 0)
(0.710324087 0 0)
(0.708018239 0 0)
(0.713601299 0 0)
(0.717969643 0 0)
(0.710956728 0 0)
(0.706137959 0 0)
(0.709914781 0 0)
(0.709301784 0 0)
(0.71246275 0 0)
(0.755000965 0 0)
(0.79394397 0 0)
(0.790799594 0 0)
(0.774251316 0 0)
(0.762440692 0 0)
(0.765763592 0 0)
(0.765806893 0 0)
(0.764397047 0 0)
(0.769753104 0 0)
(0.772300508 0 0)
(0.769111019 0 0)
(0.765034104 0 0)
(0.769841152 0 0)
(0.779606568 0 0)
(0.784077771 0 0)
(0.794081617 0 0)
(0.819259535 0 0)
(0.84116661 0 0)
(0.841509073 0 0)
(0.828215012 0 0)
(0.827441076 0 0)
(0.87337645 0 0)
(0.918808359 0 0)
(0.919032632 0 0)
(0.906091801 0 0)
(0.907105099 0 0)
(0.950086248 0 0)
(0.993613493 0 0)
(0.997020344 0 0)
(0.987567949 0 0)
(0.988891054 0 0)
(1.02424515 0 0)
(1.06134803 0 0)
(1.06775282 0 0)
(1.06291249 0 0)
(1.05860133 0 0)
(1.0625353 0 0)
(1.0682293 0 0)
(1.06364592 0 0)
(1.06620943 0 0)
(1.10452687 0 0)
(1.14418148 0 0)
(1.15133094 0 0)
(1.14721624 0 0)
(1.14186744 0 0)
(1.14078839 0 0)
(1.1434249 0 0)
(1.14138942 0 0)
(1.14413215 0 0)
(1.14993551 0 0)
(1.17022257 0 0)
(1.17969173 0 0)
(1.1665559 0 0)
(1.16665388 0 0)
(1.17842159 0 0)
(1.1854624 0 0)
(1.18373232 0 0)
(1.18052333 0 0)
(1.18213165 0 0)
(1.1766273 0 0)
(1.1663255 0 0)
(1.16079401 0 0)
(1.16075219 0 0)
(1.15001411 0 0)
(1.13794474 0 0)
(1.14739812 0 0)
(1.16469662 0 0)
(1.1754651 0 0)
(1.16960281 0 0)
(1.1520575 0 0)
(1.13805072 0 0)
(1.13249444 0 0)
(1.12561957 0 0)
(1.11199239 0 0)
(1.10106808 0 0)
(1.0962239 0 0)
(1.08498157 0 0)
(1.07033873 0 0)
(1.07130505 0 0)
(1.07912119 0 0)
(1.08932818 0 0)
(1.07908796 0 0)
(1.05664401 0 0)
(1.05065086 0 0)
(1.05176547 0 0)
(1.06145893 0 0)
(1.05665272 0 0)
(1.03538698 0 0)
(1.01977822 0 0)
(1.01122168 0 0)
(1.00042106 0 0)
(0.986005183 0 0)
(0.982337505 0 0)
(0.984358127 0 0)
(0.995438689 0 0)
(0.988795379 0 0)
(0.969160346 0 0)
(0.962187445 0 0)
(0.960703137 0 0)
(0.970219908 0 0)
(0.967949616 0 0)
(0.952269572 0 0)
(0.939453125 0 0)
(0.931457166 0 0)
(0.925123215 0 0)
(0.914770172 0 0)
(0.906703247 0 0)
(0.901406366 0 0)
(0.893286969 0 0)
(0.885813835 0 0)
(0.898761307 0 0)
(0.912593458 0 0)
(0.919360226 0 0)
(0.914023582 0 0)
(0.902798251 0 0)
(0.894285506 0 0)
(0.888963909 0 0)
(0.885109487 0 0)
(0.878476803 0 0)
(0.873481429 0 0)
(0.867757581 0 0)
(0.879184654 0 0)
(0.888636064 0 0)
(0.885707189 0 0)
(0.8804741 0 0)
(0.873375184 0 0)
(0.86702614 0 0)
(0.861774788 0 0)
(0.857390171 0 0)
(0.850130713 0 0)
(0.844667957 0 0)
(0.84982514 0 0)
(0.865211614 0 0)
(0.871746655 0 0)
(0.876042817 0 0)
(0.881020786 0 0)
(0.878122628 0 0)
(0.87194372 0 0)
(0.861041089 0 0)
(0.869486995 0 0)
(0.897475439 0 0)
(0.917457778 0 0)
(0.915982356 0 0)
(0.910798196 0 0)
(0.966966627 0 0)
(1.01883671 0 0)
(1.03820033 0 0)
(1.06213331 0 0)
(1.09896287 0 0)
(1.12470965 0 0)
(1.13598539 0 0)
(1.15694283 0 0)
(1.17166369 0 0)
(1.1663101 0 0)
(1.16387706 0 0)
(1.18589762 0 0)
(1.21067236 0 0)
(1.24126206 0 0)
(1.26346445 0 0)
(1.27764233 0 0)
(1.30024745 0 0)
(1.31488774 0 0)
(1.31765168 0 0)
(1.32534782 0 0)
(1.3432945 0 0)
(1.37762437 0 0)
(1.41792553 0 0)
(1.43341733 0 0)
(1.42318443 0 0)
(1.4170228 0 0)
(1.43978131 0 0)
(1.47356372 0 0)
(1.48666962 0 0)
(1.47594279 0 0)
(1.46968419 0 0)
(1.49083275 0 0)
(1.52236957 0 0)
(1.53574958 0 0)
(1.52389959 0 0)
(1.51379985 0 0)
(1.53205384 0 0)
(1.56169079 0 0)
(1.59625332 0 0)
(1.60581078 0 0)
(1.59328718 0 0)
(1.61288474 0 0)
(1.64197018 0 0)
(1.66215767 0 0)
(1.66897951 0 0)
(1.6646614 0 0)
(1.66743589 0 0)
(1.6896561 0 0)
(1.72817384 0 0)
(1.76910264 0 0)
(1.81333815 0 0)
(1.85592454 0 0)
(1.87029899 0 0)
(1.88859045 0 0)
(1.90150047 0 0)
(1.90635713 0 0)
(1.91947762 0 0)
(1.92339083 0 0)
(1.92428531 0 0)
(1.96624869 0 0)
(2.01660998 0 0)
(2.02960205 0 0)
(2.04400955 0 0)
(2.04869594 0 0)
(2.035815 0 0)
(2.03971217 0 0)
(2.04433356 0 0)
(2.02871134 0 0)
(2.00570666 0 0)
(2.00453352 0 0)
(1.99652386 0 0)
(1.97588274 0 0)
(1.9842958 0 0)
(2.01036003 0 0)
(2.02210173 0 0)
(2.03025066 0 0)
(2.01995449 0 0)
(1.98693705 0 0)
(1.97816922 0 0)
(1.97434804 0 0)
(1.94662254 0 0)
(1.90739317 0 0)
(1.89549767 0 0)
(1.87989946 0 0)
(1.8453291 0 0)
(1.83166796 0 0)
(1.84004564 0 0)
(1.85167052 0 0)
(1.8489797 0 0)
(1.81806958 0 0)
(1.77270701 0 0)
(1.75538601 0 0)
(1.74593419 0 0)
(1.71164964 0 0)
(1.66677581 0 0)
(1.64926978 0 0)
(1.6322266 0 0)
(1.59407517 0 0)
(1.57076632 0 0)
(1.56827869 0 0)
(1.57864032 0 0)
(1.57105548 0 0)
(1.53396703 0 0)
(1.48814445 0 0)
(1.46736842 0 0)
(1.4567961 0 0)
(1.42474572 0 0)
(1.38248201 0 0)
(1.36220027 0 0)
(1.35205974 0 0)
(1.32124134 0 0)
(1.28206338 0 0)
(1.26426808 0 0)
(1.25266399 0 0)
(1.22319851 0 0)
(1.20196436 0 0)
)
;

boundaryField
{
    closed
    {
        type            noSlip;
    }
    open
    {
        type            inletOutlet;
        inletValue      nonuniform List<vector> 0();
        value           nonuniform List<vector> 0();
    }
    sides
    {
        type            empty;
    }
    procBoundary0to1
    {
        type            processor;
        value           uniform (1.19376495 0 0);
    }
}


// ************************************************************************* //
