/*--------------------------------*- C++ -*----------------------------------*\
| =========                 |                                                 |
| \\      /  F ield         | OpenFOAM: The Open Source CFD Toolbox           |
|  \\    /   O peration     | Version:  2306                                  |
|   \\  /    A nd           | Website:  www.openfoam.com                      |
|    \\/     M anipulation  |                                                 |
\*---------------------------------------------------------------------------*/
FoamFile
{
    version     2.0;
    format      ascii;
    arch        "LSB;label=32;scalar=64";
    class       volVectorField;
    location    "4e-05";
    object      U;
}
// * * * * * * * * * * * * * * * * * * * * * * * * * * * * * * * * * * * * * //

dimensions      [0 1 -1 0 0 0 0];

internalField   nonuniform List<vector> 
531
(
(-2.48346999 0 0)
(-2.53932584 0 0)
(-2.59091087 0 0)
(-2.637814 0 0)
(-2.67967669 0 0)
(-2.71619595 0 0)
(-2.74712044 0 0)
(-2.77225535 0 0)
(-2.79146784 0 0)
(-2.80468515 0 0)
(-2.8118934 0 0)
(-2.81313465 0 0)
(-2.80850536 0 0)
(-2.79814681 0 0)
(-2.78224409 0 0)
(-2.76103008 0 0)
(-2.7347753 0 0)
(-2.70377638 0 0)
(-2.6683539 0 0)
(-2.62885114 0 0)
(-2.5856259 0 0)
(-2.53904446 0 0)
(-2.48947686 0 0)
(-2.43729237 0 0)
(-2.38285437 0 0)
(-2.32651645 0 0)
(-2.26861931 0 0)
(-2.20948823 0 0)
(-2.14943017 0 0)
(-2.08873163 0 0)
(-2.02765267 0 0)
(-1.96642823 0 0)
(-1.90527197 0 0)
(-1.84437317 0 0)
(-1.78389628 0 0)
(-1.72398113 0 0)
(-1.66474508 0 0)
(-1.60628649 0 0)
(-1.54868549 0 0)
(-1.49200265 0 0)
(-1.43628353 0 0)
(-1.38156352 0 0)
(-1.32786888 0 0)
(-1.27521896 0 0)
(-1.22362863 0 0)
(-1.17311017 0 0)
(-1.1236767 0 0)
(-1.07534676 0 0)
(-1.02814445 0 0)
(-0.982097106 0 0)
(-0.937240141 0 0)
(-0.89361919 0 0)
(-0.851287526 0 0)
(-0.810308155 0 0)
(-0.770754235 0 0)
(-0.732707044 0 0)
(-0.696254562 0 0)
(-0.661490388 0 0)
(-0.628511953 0 0)
(-0.597418323 0 0)
(-0.568307736 0 0)
(-0.541275051 0 0)
(-0.51640918 0 0)
(-0.493790706 0 0)
(-0.473489017 0 0)
(-0.455558981 0 0)
(-0.440039329 0 0)
(-0.426951248 0 0)
(-0.41629571 0 0)
(-0.408052762 0 0)
(-0.40218226 0 0)
(-0.398622654 0 0)
(-0.397288413 0 0)
(-0.398072446 0 0)
(-0.400848555 0 0)
(-0.405472216 0 0)
(-0.411783186 0 0)
(-0.419606739 0 0)
(-0.428754673 0 0)
(-0.439028588 0 0)
(-0.450223202 0 0)
(-0.462127716 0 0)
(-0.474527428 0 0)
(-0.487205449 0 0)
(-0.499944035 0 0)
(-0.512525386 0 0)
(-0.524732101 0 0)
(-0.536347212 0 0)
(-0.547153779 0 0)
(-0.556934127 0 0)
(-0.565469373 0 0)
(-0.572539084 0 0)
(-0.577919973 0 0)
(-0.581384169 0 0)
(-0.58269992 0 0)
(-0.58163313 0 0)
(-0.577947441 0 0)
(-0.571404908 0 0)
(-0.561768614 0 0)
(-0.548805058 0 0)
(-0.532288638 0 0)
(-0.512007405 0 0)
(-0.48776759 0 0)
(-0.459399221 0 0)
(-0.426762583 0 0)
(-0.389755438 0 0)
(-0.348320456 0 0)
(-0.302451846 0 0)
(-0.252201429 0 0)
(-0.197685602 0 0)
(-0.139091764 0 0)
(-0.0766839359 0 0)
(-0.0108170956 0 0)
(0.0578162868 0 0)
(0.129046463 0 0)
(0.202092863 0 0)
(0.276345305 0 0)
(0.351111247 0 0)
(0.42546776 0 0)
(0.498482854 0 0)
(0.56919255 0 0)
(0.636571421 0 0)
(0.699533955 0 0)
(0.757045181 0 0)
(0.807934777 0 0)
(0.851213642 0 0)
(0.8857727 0 0)
(0.910712202 0 0)
(0.9251126 0 0)
(0.928253161 0 0)
(0.919486278 0 0)
(0.89838723 0 0)
(0.864671669 0 0)
(0.818303127 0 0)
(0.759434515 0 0)
(0.688482033 0 0)
(0.606073939 0 0)
(0.513096225 0 0)
(0.410639729 0 0)
(0.300019895 0 0)
(0.182717877 0 0)
(0.0603784039 0 0)
(-0.0652551094 0 0)
(-0.192356292 0 0)
(-0.319104064 0 0)
(-0.443677501 0 0)
(-0.564323682 0 0)
(-0.679412146 0 0)
(-0.787478671 0 0)
(-0.887246889 0 0)
(-0.977638231 0 0)
(-1.05779188 0 0)
(-1.12710093 0 0)
(-1.18521617 0 0)
(-1.23206519 0 0)
(-1.26777238 0 0)
(-1.29265935 0 0)
(-1.30728666 0 0)
(-1.31242115 0 0)
(-1.30893497 0 0)
(-1.29783634 0 0)
(-1.28027528 0 0)
(-1.25744502 0 0)
(-1.2305771 0 0)
(-1.20096868 0 0)
(-1.16988619 0 0)
(-1.13857252 0 0)
(-1.10824147 0 0)
(-1.080029 0 0)
(-1.05500534 0 0)
(-1.03413367 0 0)
(-1.01823877 0 0)
(-1.0080448 0 0)
(-1.00413287 0 0)
(-1.00694521 0 0)
(-1.01677097 0 0)
(-1.03371502 0 0)
(-1.05774139 0 0)
(-1.08865683 0 0)
(-1.12611218 0 0)
(-1.16962329 0 0)
(-1.21853356 0 0)
(-1.27207276 0 0)
(-1.32937389 0 0)
(-1.38950154 0 0)
(-1.45143217 0 0)
(-1.51407645 0 0)
(-1.5763346 0 0)
(-1.63712881 0 0)
(-1.69540907 0 0)
(-1.75017923 0 0)
(-1.80049449 0 0)
(-1.84551374 0 0)
(-1.88450248 0 0)
(-1.91685113 0 0)
(-1.94206934 0 0)
(-1.9598472 0 0)
(-1.96996344 0 0)
(-1.97237966 0 0)
(-1.9670905 0 0)
(-1.95433579 0 0)
(-1.93443593 0 0)
(-1.90779597 0 0)
(-1.87504165 0 0)
(-1.83676063 0 0)
(-1.79368327 0 0)
(-1.74657018 0 0)
(-1.69626866 0 0)
(-1.6436561 0 0)
(-1.58964931 0 0)
(-1.53517958 0 0)
(-1.48120585 0 0)
(-1.42868152 0 0)
(-1.37853789 0 0)
(-1.33168155 0 0)
(-1.28900239 0 0)
(-1.25133879 0 0)
(-1.21948313 0 0)
(-1.19416234 0 0)
(-1.17602256 0 0)
(-1.16562866 0 0)
(-1.16346656 0 0)
(-1.16990478 0 0)
(-1.18520356 0 0)
(-1.20950803 0 0)
(-1.24284081 0 0)
(-1.28510197 0 0)
(-1.33607027 0 0)
(-1.39538808 0 0)
(-1.4625728 0 0)
(-1.53702123 0 0)
(-1.61802649 0 0)
(-1.70477198 0 0)
(-1.79634428 0 0)
(-1.89174589 0 0)
(-1.9899304 0 0)
(-2.08971548 0 0)
(-2.18996646 0 0)
(-2.28947787 0 0)
(-2.38703773 0 0)
(-2.48151714 0 0)
(-2.5717188 0 0)
(-2.65652502 0 0)
(-2.73486173 0 0)
(-2.80574822 0 0)
(-2.86829101 0 0)
(-2.92169974 0 0)
(-2.96529638 0 0)
(-2.99854668 0 0)
(-3.02105484 0 0)
(-3.03257688 0 0)
(-3.03302127 0 0)
(-3.02245867 0 0)
(-3.00111633 0 0)
(-2.9693786 0 0)
(-2.92777451 0 0)
(-2.87697316 0 0)
(-2.81777102 0 0)
(-2.75108057 0 0)
(-2.67789683 0 0)
(-2.59929166 0 0)
(-2.5163857 0 0)
(-2.430335 0 0)
(-2.3423043 0 0)
(-2.25344656 0 0)
(-2.16481266 0 0)
(-2.07747037 0 0)
(-1.9924136 0 0)
(-1.91050026 0 0)
(-1.83252685 0 0)
(-1.75913812 0 0)
(-1.69087434 0 0)
(-1.62814397 0 0)
(-1.57123607 0 0)
(-1.52031623 0 0)
(-1.47543884 0 0)
(-1.43654221 0 0)
(-1.4034688 0 0)
(-1.3759748 0 0)
(-1.35374246 0 0)
(-1.33638974 0 0)
(-1.32348533 0 0)
(-1.31455673 0 0)
(-1.30910365 0 0)
(-1.30660143 0 0)
(-1.30651411 0 0)
(-1.30829509 0 0)
(-1.31139017 0 0)
(-1.31521735 0 0)
(-1.31920201 0 0)
(-1.32270858 0 0)
(-1.32511543 0 0)
(-1.32578914 0 0)
(-1.32399363 0 0)
(-1.31896343 0 0)
(-1.30986485 0 0)
(-1.29580394 0 0)
(-1.27581148 0 0)
(-1.24885668 0 0)
(-1.213852 0 0)
(-1.16967245 0 0)
(-1.11517634 0 0)
(-1.04924065 0 0)
(-0.970797529 0 0)
(-0.878884595 0 0)
(-0.772694193 0 0)
(-0.651636737 0 0)
(-0.515398943 0 0)
(-0.364011814 0 0)
(-0.197904412 0 0)
(-0.0180076415 0 0)
(0.174141964 0 0)
(0.376848975 0 0)
(0.587557756 0 0)
(0.803572108 0 0)
(1.0213378 0 0)
(1.23711363 0 0)
(1.44578359 0 0)
(1.64378726 0 0)
(1.82568956 0 0)
(1.98650196 0 0)
(2.12202425 0 0)
(2.22674143 0 0)
(2.29741171 0 0)
(2.33069975 0 0)
(2.32477472 0 0)
(2.2787162 0 0)
(2.19319833 0 0)
(2.07019441 0 0)
(1.91329673 0 0)
(1.72740652 0 0)
(1.51867861 0 0)
(1.29411118 0 0)
(1.06135299 0 0)
(0.828114912 0 0)
(0.601886558 0 0)
(0.389339875 0 0)
(0.196063216 0 0)
(0.0258530335 0 0)
(-0.119519476 0 0)
(-0.238328293 0 0)
(-0.329445282 0 0)
(-0.397783996 0 0)
(-0.443226346 0 0)
(-0.469971611 0 0)
(-0.488053376 0 0)
(-0.501127611 0 0)
(-0.515385757 0 0)
(-0.53713157 0 0)
(-0.570562365 0 0)
(-0.62244459 0 0)
(-0.69226878 0 0)
(-0.78073457 0 0)
(-0.89145592 0 0)
(-1.01954684 0 0)
(-1.16333096 0 0)
(-1.31682755 0 0)
(-1.47378143 0 0)
(-1.63241348 0 0)
(-1.78303091 0 0)
(-1.92073563 0 0)
(-2.04454838 0 0)
(-2.14938108 0 0)
(-2.23657187 0 0)
(-2.30325734 0 0)
(-2.35098333 0 0)
(-2.38518093 0 0)
(-2.40708379 0 0)
(-2.42106519 0 0)
(-2.43079597 0 0)
(-2.4401565 0 0)
(-2.45449473 0 0)
(-2.47366866 0 0)
(-2.49979216 0 0)
(-2.5364512 0 0)
(-2.58196416 0 0)
(-2.63804687 0 0)
(-2.70132267 0 0)
(-2.77092545 0 0)
(-2.84808315 0 0)
(-2.93079295 0 0)
(-3.01980722 0 0)
(-3.11480564 0 0)
(-3.21708013 0 0)
(-3.32952504 0 0)
(-3.45254909 0 0)
(-3.58697687 0 0)
(-3.7304169 0 0)
(-3.87859436 0 0)
(-4.02570478 0 0)
(-4.16020392 0 0)
(-4.27067916 0 0)
(-4.34192994 0 0)
(-4.36066742 0 0)
(-4.31514259 0 0)
(-4.19907398 0 0)
(-4.01159882 0 0)
(-3.75207144 0 0)
(-3.43303761 0 0)
(-3.06929597 0 0)
(-2.67383799 0 0)
(-2.26569962 0 0)
(-1.86292647 0 0)
(-1.47273569 0 0)
(-1.0991037 0 0)
(-0.741945269 0 0)
(-0.38958714 0 0)
(-0.0299340919 0 0)
(0.34532983 0 0)
(0.750883801 0 0)
(1.189692 0 0)
(1.65943872 0 0)
(2.14698968 0 0)
(2.62414006 0 0)
(3.05876148 0 0)
(3.40463869 0 0)
(3.61775737 0 0)
(3.65548134 0 0)
(3.48704213 0 0)
(3.09914191 0 0)
(2.512916 0 0)
(1.77282288 0 0)
(0.937426647 0 0)
(0.0941628882 0 0)
(-0.68527957 0 0)
(-1.32934387 0 0)
(-1.78638067 0 0)
(-2.06345366 0 0)
(-2.14180332 0 0)
(-2.0420449 0 0)
(-1.82432463 0 0)
(-1.50470554 0 0)
(-1.13236762 0 0)
(-0.767911904 0 0)
(-0.445477394 0 0)
(-0.266080282 0 0)
(-0.224606034 0 0)
(-0.388576009 0 0)
(-0.892827537 0 0)
(-1.51044302 0 0)
(-2.30265285 0 0)
(-2.55967156 0 0)
(-2.53041388 0 0)
(-2.65544506 0 0)
(-2.92184737 0 0)
(-2.98200945 0 0)
(-2.53916829 0 0)
(-2.92361547 0 0)
(-1.79818649 0 0)
(-1.14352444 0 0)
(-0.713698404 0 0)
(0.205224846 0 0)
(1.79902428 0 0)
(0.581390063 0 0)
(0.54983584 0 0)
(1.62201379 0 0)
(-0.480986896 0 0)
(-0.85493147 0 0)
(-0.761072971 0 0)
(-1.67477812 0 0)
(-1.40407745 0 0)
(-1.13022043 0 0)
(-1.73131249 0 0)
(-2.04515437 0 0)
(-2.10766776 0 0)
(-2.17318235 0 0)
(-2.17250226 0 0)
(-2.07659563 0 0)
(-1.90163324 0 0)
(-1.66502347 0 0)
(-1.40670122 0 0)
(-1.15281467 0 0)
(-0.896388995 0 0)
(-0.668091274 0 0)
(-0.479336234 0 0)
(-0.314954895 0 0)
(-0.182492872 0 0)
(-0.0563071205 0 0)
(0.0624570945 0 0)
(0.163717707 0 0)
(0.245273862 0 0)
(0.32074347 0 0)
(0.380790387 0 0)
(0.438373871 0 0)
(0.481496023 0 0)
(0.51163501 0 0)
(0.525693129 0 0)
(0.522286394 0 0)
(0.496984342 0 0)
(0.448962112 0 0)
(0.372759666 0 0)
(0.272839897 0 0)
(0.144915522 0 0)
(-0.00890680458 0 0)
(-0.184551157 0 0)
(-0.378467096 0 0)
(-0.585322871 0 0)
(-0.798563673 0 0)
(-1.01275044 0 0)
(-1.22174935 0 0)
(-1.41808673 0 0)
(-1.59286046 0 0)
(-1.74002495 0 0)
(-1.85460498 0 0)
(-1.93251437 0 0)
(-1.97165308 0 0)
(-1.96963778 0 0)
(-1.92659568 0 0)
(-1.84419041 0 0)
(-1.7256571 0 0)
(-1.57284301 0 0)
(-1.39243972 0 0)
(-1.1896542 0 0)
(-0.960187612 0 0)
(-0.710646765 0 0)
(-0.44501749 0 0)
(-0.16980301 0 0)
(0.112180917 0 0)
(0.397138135 0 0)
(0.683748146 0 0)
(0.968543659 0 0)
(1.24986171 0 0)
(1.52485154 0 0)
(1.79326892 0 0)
(2.05253806 0 0)
(2.30248214 0 0)
(2.54141453 0 0)
(2.76952128 0 0)
(2.98549639 0 0)
(3.18990933 0 0)
(3.38198668 0 0)
)
;

boundaryField
{
    closed
    {
        type            noSlip;
    }
    open
    {
        type            inletOutlet;
        inletValue      nonuniform List<vector> 0();
        value           nonuniform List<vector> 0();
    }
    sides
    {
        type            empty;
    }
    procBoundary4to3
    {
        type            processor;
        value           uniform (-2.42379909 0 0);
    }
    procBoundary4to5
    {
        type            processor;
        value           uniform (3.56245267 0 0);
    }
}


// ************************************************************************* //
