/*--------------------------------*- C++ -*----------------------------------*\
| =========                 |                                                 |
| \\      /  F ield         | OpenFOAM: The Open Source CFD Toolbox           |
|  \\    /   O peration     | Version:  2306                                  |
|   \\  /    A nd           | Website:  www.openfoam.com                      |
|    \\/     M anipulation  |                                                 |
\*---------------------------------------------------------------------------*/
FoamFile
{
    version     2.0;
    format      ascii;
    arch        "LSB;label=32;scalar=64";
    class       surfaceScalarField;
    location    "0.00062";
    object      phi;
}
// * * * * * * * * * * * * * * * * * * * * * * * * * * * * * * * * * * * * * //

dimensions      [1 0 -1 0 0 0 0];

oriented        oriented;

internalField   nonuniform List<scalar> 
530
(
8.0714047e-06
8.13257235e-06
7.64249729e-06
7.67021204e-06
8.09543911e-06
8.35107658e-06
8.36554551e-06
7.90389083e-06
7.92869698e-06
8.10643806e-06
8.24909844e-06
8.32469523e-06
7.87504368e-06
7.89899121e-06
7.99501526e-06
8.0994741e-06
7.79786654e-06
7.86115234e-06
8.35221919e-06
8.46894121e-06
8.12326878e-06
8.19567316e-06
8.46455136e-06
8.56948917e-06
8.68069934e-06
8.80619012e-06
8.28687284e-06
8.34891093e-06
8.36976952e-06
8.4383097e-06
8.83246825e-06
9.16406773e-06
9.29663365e-06
9.42395538e-06
9.63642713e-06
9.78879661e-06
9.12325866e-06
9.25387549e-06
9.3937317e-06
9.56810567e-06
9.90825527e-06
1.03093028e-05
1.00598279e-05
1.01169805e-05
1.03688512e-05
1.08268533e-05
1.1305638e-05
1.11155527e-05
1.12211894e-05
1.15649001e-05
1.22133557e-05
1.29012703e-05
1.34396133e-05
1.32478184e-05
1.37435433e-05
1.42243597e-05
1.48085303e-05
1.59184624e-05
1.69533661e-05
1.77520302e-05
1.84726623e-05
1.91750841e-05
1.81369825e-05
1.86641897e-05
1.93186188e-05
2.01548808e-05
2.10921608e-05
2.06963495e-05
2.08158641e-05
2.12656203e-05
2.22293471e-05
2.30763421e-05
2.34321594e-05
2.19761373e-05
2.2133491e-05
2.30571275e-05
2.39951554e-05
2.41999232e-05
2.26057487e-05
2.24460139e-05
2.32078462e-05
2.30959502e-05
2.31480575e-05
2.28695115e-05
2.11940077e-05
2.06246721e-05
2.03122135e-05
2.00127973e-05
1.83979671e-05
1.76937482e-05
1.72089912e-05
1.6708911e-05
1.51544468e-05
1.44175912e-05
1.43841211e-05
1.41663616e-05
1.34415426e-05
1.21159657e-05
1.13710923e-05
1.08094176e-05
1.01994126e-05
9.07072806e-06
8.44096151e-06
8.3672797e-06
7.85179666e-06
7.28789844e-06
6.81771673e-06
6.01528727e-06
5.62492035e-06
5.47999436e-06
5.20157849e-06
5.01578933e-06
4.78440392e-06
4.4522463e-06
4.35914796e-06
4.31826478e-06
4.2031343e-06
4.03437343e-06
3.82187959e-06
3.7385873e-06
3.69522872e-06
3.50276906e-06
3.26323711e-06
3.16169898e-06
3.08230442e-06
2.8707588e-06
2.63230774e-06
2.51978791e-06
2.4099746e-06
2.1703403e-06
1.92227449e-06
1.84803769e-06
1.92042286e-06
1.79877424e-06
1.5816429e-06
1.46888766e-06
1.46260833e-06
1.46551804e-06
1.31922972e-06
1.21658718e-06
1.2430974e-06
1.45316652e-06
1.38003903e-06
1.20114206e-06
1.14940373e-06
1.17744198e-06
1.21083872e-06
1.07075641e-06
1.01637906e-06
1.08575791e-06
1.09323258e-06
1.05970105e-06
9.62808178e-07
9.15919679e-07
9.41473119e-07
9.68536935e-07
7.83039001e-07
7.25021095e-07
7.72715918e-07
7.44907775e-07
6.67411057e-07
6.03549275e-07
5.58750725e-07
4.78036456e-07
4.85046144e-07
5.71793913e-07
5.1919392e-07
4.60975756e-07
4.26763889e-07
4.66533911e-07
6.14347303e-07
6.12159871e-07
5.88660517e-07
5.65653217e-07
6.31199522e-07
8.39236343e-07
8.96204019e-07
8.83958699e-07
9.30264425e-07
9.51840434e-07
1.03005613e-06
1.09488429e-06
1.15525976e-06
1.16780025e-06
1.26479851e-06
1.30702149e-06
1.33963249e-06
1.4457413e-06
1.5473157e-06
1.59363067e-06
1.59106037e-06
1.61887145e-06
1.68621007e-06
1.86139071e-06
1.83105971e-06
1.82627002e-06
1.87602097e-06
2.03043946e-06
2.00699135e-06
1.98680688e-06
2.01487518e-06
2.21857964e-06
2.14699654e-06
2.00367831e-06
2.0784981e-06
2.06983842e-06
2.08265546e-06
2.10630474e-06
2.09965097e-06
1.99332273e-06
2.00064755e-06
2.1215612e-06
2.13356089e-06
2.10974232e-06
2.03029857e-06
2.04539436e-06
2.15143743e-06
2.16850431e-06
2.15482938e-06
2.10110722e-06
2.10587712e-06
2.17662005e-06
2.16892529e-06
2.17650162e-06
2.19186457e-06
2.32491939e-06
2.2617568e-06
2.19552738e-06
2.18146659e-06
2.16866247e-06
2.14662997e-06
2.0822631e-06
2.05339903e-06
2.0479657e-06
2.17874713e-06
2.10648768e-06
2.03119793e-06
2.03299704e-06
2.12927955e-06
2.10969076e-06
2.09025179e-06
2.14570877e-06
2.19899538e-06
2.25264668e-06
2.29846889e-06
2.31819472e-06
2.39241906e-06
2.56546881e-06
2.61996998e-06
2.63992524e-06
2.7407077e-06
2.85974216e-06
2.9672304e-06
3.06697686e-06
3.12361788e-06
3.21416578e-06
3.33243623e-06
3.44937296e-06
3.48480299e-06
3.42745698e-06
3.50630881e-06
3.57301882e-06
3.62798676e-06
3.68943771e-06
3.96817883e-06
4.03563562e-06
4.06788854e-06
4.12235068e-06
4.23996956e-06
4.29990563e-06
4.20607389e-06
4.23922218e-06
4.40651795e-06
4.4890091e-06
4.39093338e-06
4.38738055e-06
4.50250273e-06
4.51448596e-06
4.36585282e-06
4.3314021e-06
4.33558905e-06
4.29873455e-06
4.25307046e-06
4.04500314e-06
3.96969611e-06
4.45150287e-06
4.52508153e-06
4.37737958e-06
4.15747134e-06
4.06703068e-06
4.0523181e-06
3.98257326e-06
3.71011216e-06
3.61137564e-06
3.74575739e-06
3.73630283e-06
3.5913766e-06
3.333808e-06
3.19977623e-06
3.09318958e-06
2.96039011e-06
2.69178719e-06
2.5623056e-06
2.62108148e-06
2.54287506e-06
2.36276542e-06
2.08519127e-06
1.95159424e-06
2.02721421e-06
1.93169442e-06
1.75618932e-06
1.52069414e-06
1.41504005e-06
1.51146041e-06
1.44027001e-06
1.31239516e-06
1.15556353e-06
1.12001378e-06
1.30675151e-06
1.31581774e-06
1.28141018e-06
1.23681647e-06
1.2987799e-06
1.5578709e-06
1.67551924e-06
1.74409871e-06
1.7563599e-06
1.87412228e-06
2.18298879e-06
2.35076472e-06
2.4340614e-06
2.39962717e-06
2.48021522e-06
2.74209224e-06
2.8535129e-06
2.86314168e-06
2.74424052e-06
2.73433734e-06
2.85568412e-06
2.84745948e-06
2.79568333e-06
2.70651172e-06
2.65622567e-06
2.59181056e-06
2.54279641e-06
2.60342836e-06
2.57445887e-06
2.56684899e-06
2.62732244e-06
2.62357782e-06
2.48552405e-06
2.47157864e-06
2.62596886e-06
2.72717135e-06
2.6671392e-06
2.60154123e-06
2.54570725e-06
2.54111724e-06
2.79263836e-06
2.76785575e-06
2.71423245e-06
2.67094393e-06
2.54262344e-06
2.48891845e-06
2.45469331e-06
2.40307219e-06
2.25154317e-06
2.19036339e-06
2.15426108e-06
2.25219736e-06
2.13735514e-06
2.01067729e-06
1.92703262e-06
1.86568916e-06
1.94002667e-06
1.91341016e-06
1.74730261e-06
1.61964049e-06
1.5607232e-06
1.48942552e-06
1.36736146e-06
1.2667962e-06
1.25173148e-06
1.2134652e-06
1.20786867e-06
1.15422039e-06
1.07476195e-06
1.05353069e-06
1.03428736e-06
9.77481424e-07
9.16577864e-07
9.01939335e-07
8.78607282e-07
8.61740367e-07
9.17222991e-07
9.186063e-07
8.95631551e-07
8.91625371e-07
8.81241067e-07
8.7666426e-07
8.73770904e-07
8.750599e-07
8.8075634e-07
8.88575641e-07
9.10050499e-07
9.40337679e-07
9.04288889e-07
8.7992316e-07
8.45040802e-07
8.22076834e-07
7.95949185e-07
7.77691262e-07
7.62128361e-07
7.36133966e-07
7.30078683e-07
6.89943171e-07
6.56859946e-07
6.25748754e-07
6.02121777e-07
5.85093268e-07
5.30399117e-07
4.87033388e-07
4.80847683e-07
5.55120588e-07
5.51016194e-07
5.15252142e-07
5.52549381e-07
5.10911702e-07
5.26397257e-07
4.02109305e-07
3.68752877e-07
6.47904446e-07
6.7298844e-07
1.18483397e-06
1.44792944e-06
1.78193521e-06
1.91695159e-06
1.9064963e-06
1.85826369e-06
1.9483225e-06
1.99439812e-06
2.01270385e-06
2.08220224e-06
2.10264055e-06
2.11456983e-06
2.12311614e-06
2.13101686e-06
2.13274799e-06
2.13426006e-06
2.13140442e-06
2.12801252e-06
2.1214817e-06
2.1139759e-06
2.10396109e-06
2.09295173e-06
2.08001238e-06
2.06613622e-06
2.05029457e-06
2.03380485e-06
2.01649726e-06
1.99897579e-06
1.98120479e-06
1.96362281e-06
1.94609506e-06
1.92895008e-06
1.91258199e-06
1.89655039e-06
1.8824429e-06
1.86760642e-06
1.85492872e-06
1.84250362e-06
1.83154441e-06
1.82129476e-06
1.81251003e-06
1.80426743e-06
1.79694735e-06
1.79136216e-06
1.78531166e-06
1.77974114e-06
1.77505086e-06
1.77095717e-06
1.76768298e-06
1.76481813e-06
1.7626429e-06
1.76072664e-06
1.75958423e-06
1.7586589e-06
1.75825261e-06
1.75794252e-06
1.75792825e-06
1.75791895e-06
1.75807777e-06
1.75809687e-06
1.75818024e-06
1.75818887e-06
1.75804333e-06
1.75777696e-06
1.75740777e-06
1.75682894e-06
1.7562141e-06
1.75538655e-06
1.7543524e-06
1.7530585e-06
1.75169099e-06
1.74996342e-06
1.74761734e-06
1.74494229e-06
1.74195448e-06
1.73862974e-06
1.73498849e-06
1.73101853e-06
1.72672567e-06
1.72210399e-06
1.71717885e-06
1.71194441e-06
1.70643202e-06
1.7006349e-06
1.69459385e-06
1.68819061e-06
1.68158416e-06
1.67477075e-06
1.6677893e-06
1.66064996e-06
1.65337762e-06
1.64601131e-06
1.63854703e-06
1.63100018e-06
1.6234267e-06
1.61540847e-06
1.6076919e-06
)
;

boundaryField
{
    closed
    {
        type            calculated;
        value           nonuniform List<scalar> 0();
    }
    open
    {
        type            calculated;
        value           nonuniform List<scalar> 0();
    }
    sides
    {
        type            empty;
        value           nonuniform List<scalar> 0();
    }
    procBoundary4to3
    {
        type            processor;
        value           uniform -7.62343415e-06;
    }
    procBoundary4to5
    {
        type            processor;
        value           uniform 1.59999378e-06;
    }
}


// ************************************************************************* //
