/*--------------------------------*- C++ -*----------------------------------*\
| =========                 |                                                 |
| \\      /  F ield         | OpenFOAM: The Open Source CFD Toolbox           |
|  \\    /   O peration     | Version:  2306                                  |
|   \\  /    A nd           | Website:  www.openfoam.com                      |
|    \\/     M anipulation  |                                                 |
\*---------------------------------------------------------------------------*/
FoamFile
{
    version     2.0;
    format      ascii;
    arch        "LSB;label=32;scalar=64";
    class       volScalarField;
    location    "0.00152";
    object      prefDZ_T;
}
// * * * * * * * * * * * * * * * * * * * * * * * * * * * * * * * * * * * * * //

dimensions      [1 -1 -1 -1 0 0 0];

internalField   nonuniform List<scalar> 
530
(
-1.05285435e-10
-1.05088876e-10
-1.04906957e-10
-1.04720055e-10
-1.04547178e-10
-1.04369226e-10
-1.0420478e-10
-1.04035127e-10
-1.03887138e-10
-1.03735063e-10
-1.03594699e-10
-1.03448764e-10
-1.03314291e-10
-1.03174166e-10
-1.0304528e-10
-1.02910661e-10
-1.02787068e-10
-1.0265767e-10
-1.02539088e-10
-1.0241464e-10
-1.02300798e-10
-1.02181042e-10
-1.02071681e-10
-1.0195637e-10
-1.0185124e-10
-1.01746602e-10
-1.01651304e-10
-1.01550396e-10
-1.01458584e-10
-1.01361208e-10
-1.01272718e-10
-1.01178728e-10
-1.010934e-10
-1.01002655e-10
-1.00920335e-10
-1.00832704e-10
-1.0075324e-10
-1.00668597e-10
-1.00591846e-10
-1.00506497e-10
-1.00429002e-10
-1.0034596e-10
-1.00271364e-10
-1.00191209e-10
-1.00119355e-10
-1.0004195e-10
-9.99726889e-11
-9.98978978e-11
-9.98310917e-11
-9.97587783e-11
-9.96987144e-11
-9.96344511e-11
-9.95773085e-11
-9.95150338e-11
-9.94597826e-11
-9.93994053e-11
-9.93459702e-11
-9.92874027e-11
-9.92357104e-11
-9.91788684e-11
-9.91288478e-11
-9.907365e-11
-9.90252324e-11
-9.89716006e-11
-9.89247194e-11
-9.88725781e-11
-9.88271691e-11
-9.87764451e-11
-9.87324462e-11
-9.86830692e-11
-9.86404202e-11
-9.8592322e-11
-9.85509646e-11
-9.85040797e-11
-9.84639573e-11
-9.84182223e-11
-9.83792797e-11
-9.83346336e-11
-9.82968172e-11
-9.82532009e-11
-9.82164585e-11
-9.81738151e-11
-9.81380958e-11
-9.809637e-11
-9.80616244e-11
-9.80207626e-11
-9.79869424e-11
-9.79468928e-11
-9.79139508e-11
-9.78746631e-11
-9.78425529e-11
-9.78039786e-11
-9.77726545e-11
-9.77347468e-11
-9.77041632e-11
-9.76703188e-11
-9.76443179e-11
-9.76123168e-11
-9.75867825e-11
-9.75551711e-11
-9.75300851e-11
-9.74988353e-11
-9.74741849e-11
-9.7443264e-11
-9.74190429e-11
-9.73884121e-11
-9.73646223e-11
-9.73342351e-11
-9.73108882e-11
-9.72806891e-11
-9.72578072e-11
-9.72277316e-11
-9.72053463e-11
-9.71753233e-11
-9.71534713e-11
-9.71234294e-11
-9.71021447e-11
-9.70720235e-11
-9.70513227e-11
-9.70218006e-11
-9.70002684e-11
-9.69719721e-11
-9.69496754e-11
-9.69225006e-11
-9.68995146e-11
-9.68733586e-11
-9.68497506e-11
-9.68245247e-11
-9.68003445e-11
-9.67759804e-11
-9.67512567e-11
-9.67277088e-11
-9.67024501e-11
-9.66796927e-11
-9.66538935e-11
-9.66319141e-11
-9.66055669e-11
-9.65843532e-11
-9.65583156e-11
-9.65372189e-11
-9.65110725e-11
-9.64894011e-11
-9.64639503e-11
-9.64417624e-11
-9.64169312e-11
-9.63942893e-11
-9.63700017e-11
-9.63469607e-11
-9.63231493e-11
-9.62997527e-11
-9.62763611e-11
-9.62526414e-11
-9.62296234e-11
-9.62056044e-11
-9.61829221e-11
-9.61586209e-11
-9.61362427e-11
-9.61116719e-11
-9.60895707e-11
-9.60647401e-11
-9.60428919e-11
-9.60178094e-11
-9.59961922e-11
-9.5970865e-11
-9.59494582e-11
-9.59238932e-11
-9.59026771e-11
-9.5876881e-11
-9.58558363e-11
-9.58298163e-11
-9.58089242e-11
-9.57826877e-11
-9.57619295e-11
-9.57354843e-11
-9.57148417e-11
-9.5688196e-11
-9.56676508e-11
-9.56408133e-11
-9.56203472e-11
-9.55933271e-11
-9.5572922e-11
-9.55457291e-11
-9.55253669e-11
-9.54980114e-11
-9.54776739e-11
-9.54501664e-11
-9.54298356e-11
-9.54021872e-11
-9.53818452e-11
-9.53540667e-11
-9.53336961e-11
-9.53057977e-11
-9.52853825e-11
-9.52573723e-11
-9.52368992e-11
-9.52087816e-11
-9.51882413e-11
-9.51600164e-11
-9.51394042e-11
-9.51111538e-11
-9.50932672e-11
-9.50682226e-11
-9.50501028e-11
-9.50248746e-11
-9.50065211e-11
-9.49813442e-11
-9.49631697e-11
-9.49374092e-11
-9.49186595e-11
-9.48930683e-11
-9.48738104e-11
-9.48483089e-11
-9.48286293e-11
-9.4803155e-11
-9.47831168e-11
-9.47576292e-11
-9.4737269e-11
-9.47117487e-11
-9.4691084e-11
-9.46655254e-11
-9.46445637e-11
-9.46189683e-11
-9.45977141e-11
-9.45720854e-11
-9.45505432e-11
-9.45248845e-11
-9.45030601e-11
-9.44773735e-11
-9.44552746e-11
-9.4429561e-11
-9.44071962e-11
-9.43814559e-11
-9.4358835e-11
-9.43330674e-11
-9.43102008e-11
-9.42844051e-11
-9.42613035e-11
-9.42354789e-11
-9.42121532e-11
-9.41862988e-11
-9.416276e-11
-9.41368751e-11
-9.41131342e-11
-9.40872182e-11
-9.40632861e-11
-9.40373387e-11
-9.40132262e-11
-9.39872471e-11
-9.39629652e-11
-9.39369544e-11
-9.39125137e-11
-9.38864714e-11
-9.38618827e-11
-9.38358092e-11
-9.38104863e-11
-9.37834094e-11
-9.37576056e-11
-9.37304947e-11
-9.37045574e-11
-9.36774137e-11
-9.36513529e-11
-9.36241781e-11
-9.35980037e-11
-9.35708e-11
-9.35445211e-11
-9.35172913e-11
-9.3490917e-11
-9.3463664e-11
-9.34372031e-11
-9.34099304e-11
-9.33833913e-11
-9.33561025e-11
-9.33294934e-11
-9.33021924e-11
-9.32755216e-11
-9.32482125e-11
-9.32214878e-11
-9.31941748e-11
-9.31674043e-11
-9.31400918e-11
-9.31132832e-11
-9.30859757e-11
-9.30591368e-11
-9.30318389e-11
-9.30049774e-11
-9.29776935e-11
-9.29508172e-11
-9.29235521e-11
-9.28966687e-11
-9.28694268e-11
-9.28425443e-11
-9.281533e-11
-9.27884565e-11
-9.27612739e-11
-9.27342763e-11
-9.27068666e-11
-9.26797754e-11
-9.26524431e-11
-9.26254066e-11
-9.25981547e-11
-9.257118e-11
-9.25440123e-11
-9.25171059e-11
-9.24900264e-11
-9.24631946e-11
-9.24362078e-11
-9.24094566e-11
-9.2382567e-11
-9.23559021e-11
-9.23291143e-11
-9.23025415e-11
-9.22758602e-11
-9.2249385e-11
-9.22228148e-11
-9.21964427e-11
-9.21699884e-11
-9.21437247e-11
-9.21173908e-11
-9.20912409e-11
-9.20650321e-11
-9.2039001e-11
-9.20129219e-11
-9.19870147e-11
-9.19610698e-11
-9.19352915e-11
-9.19094852e-11
-9.18838409e-11
-9.18581775e-11
-9.1832672e-11
-9.18071556e-11
-9.17817938e-11
-9.17564286e-11
-9.17312154e-11
-9.17060051e-11
-9.16809454e-11
-9.16558939e-11
-9.16309924e-11
-9.16061033e-11
-9.15813648e-11
-9.15566416e-11
-9.15316769e-11
-9.15060189e-11
-9.14805063e-11
-9.14550167e-11
-9.14296674e-11
-9.14043499e-11
-9.13791693e-11
-9.13540278e-11
-9.13290209e-11
-9.13040595e-11
-9.1279231e-11
-9.12544536e-11
-9.12298081e-11
-9.12052186e-11
-9.11807606e-11
-9.11563629e-11
-9.11320964e-11
-9.11078944e-11
-9.10838235e-11
-9.10598209e-11
-9.10359495e-11
-9.10121499e-11
-9.09884816e-11
-9.09648886e-11
-9.09414269e-11
-9.09180439e-11
-9.08947924e-11
-9.08716226e-11
-9.08485845e-11
-9.08256312e-11
-9.08028097e-11
-9.07800758e-11
-9.07574739e-11
-9.07349624e-11
-9.07125831e-11
-9.06902968e-11
-9.06681427e-11
-9.06460842e-11
-9.0624158e-11
-9.060233e-11
-9.05806342e-11
-9.0559039e-11
-9.05375759e-11
-9.05162158e-11
-9.04949877e-11
-9.04738648e-11
-9.0452874e-11
-9.04319902e-11
-9.04112386e-11
-9.03905957e-11
-9.03700854e-11
-9.0349685e-11
-9.03294178e-11
-9.03092613e-11
-9.02892392e-11
-9.02693278e-11
-9.02495525e-11
-9.02298872e-11
-9.02103606e-11
-9.01909422e-11
-9.01715777e-11
-9.01521946e-11
-9.01329573e-11
-9.0113837e-11
-9.00948591e-11
-9.00760012e-11
-9.00572833e-11
-9.00386876e-11
-9.00202301e-11
-9.00018962e-11
-8.99836994e-11
-8.99656269e-11
-8.99476908e-11
-8.99298794e-11
-8.9912204e-11
-8.98946533e-11
-8.98772382e-11
-8.98599479e-11
-8.98427928e-11
-8.98257623e-11
-8.98088666e-11
-8.97920955e-11
-8.97754587e-11
-8.97589462e-11
-8.97425675e-11
-8.9726313e-11
-8.97101917e-11
-8.96941944e-11
-8.96783295e-11
-8.96625884e-11
-8.96469791e-11
-8.96314932e-11
-8.96161384e-11
-8.96009067e-11
-8.95858053e-11
-8.95708266e-11
-8.95559773e-11
-8.95412504e-11
-8.9526652e-11
-8.95121755e-11
-8.94978267e-11
-8.94835992e-11
-8.94694985e-11
-8.94555185e-11
-8.94416645e-11
-8.94279305e-11
-8.94143215e-11
-8.94008318e-11
-8.93874663e-11
-8.93742192e-11
-8.93610955e-11
-8.93480891e-11
-8.93351919e-11
-8.9321942e-11
-8.93078939e-11
-8.92929044e-11
-8.92765881e-11
-8.9259323e-11
-8.92410808e-11
-8.92218189e-11
-8.92015116e-11
-8.91801225e-11
-8.91576314e-11
-8.91340114e-11
-8.91092521e-11
-8.90833397e-11
-8.90562788e-11
-8.90280738e-11
-8.89987503e-11
-8.89683369e-11
-8.89368865e-11
-8.89044592e-11
-8.88711422e-11
-8.8837034e-11
-8.88022622e-11
-8.876697e-11
-8.87313299e-11
-8.86955327e-11
-8.86597964e-11
-8.86243566e-11
-8.85894707e-11
-8.85554076e-11
-8.85224481e-11
-8.84908714e-11
-8.84609534e-11
-8.84329484e-11
-8.84070884e-11
-8.83835589e-11
-8.83625043e-11
-8.83439985e-11
-8.83280614e-11
-8.83146304e-11
-8.83035856e-11
-8.82947386e-11
-8.82878486e-11
-8.82826548e-11
-8.82788516e-11
-8.82761751e-11
-8.82743438e-11
-8.82731417e-11
-8.82723958e-11
-8.82721649e-11
-8.82720401e-11
-8.82719815e-11
-8.82719542e-11
-8.82719432e-11
-8.82719397e-11
-8.82719378e-11
-8.82719373e-11
-8.82719371e-11
-8.82719371e-11
-8.82719371e-11
-8.82719371e-11
-8.82719371e-11
-8.82719371e-11
-8.82719371e-11
-8.82719371e-11
-8.82719371e-11
-8.82719371e-11
-8.82719371e-11
-8.82719371e-11
-8.82719371e-11
-8.82719371e-11
-8.82719371e-11
-8.82719371e-11
-8.82719371e-11
-8.82719371e-11
-8.82719371e-11
-8.82719371e-11
-8.82719371e-11
)
;

boundaryField
{
    closed
    {
        type            calculated;
        value           nonuniform List<scalar> 0();
    }
    open
    {
        type            calculated;
        value           uniform -8.82719371e-11;
    }
    sides
    {
        type            empty;
    }
    procBoundary5to4
    {
        type            processor;
        value           uniform -1.05477057e-10;
    }
}


// ************************************************************************* //
