/*--------------------------------*- C++ -*----------------------------------*\
| =========                 |                                                 |
| \\      /  F ield         | OpenFOAM: The Open Source CFD Toolbox           |
|  \\    /   O peration     | Version:  2306                                  |
|   \\  /    A nd           | Website:  www.openfoam.com                      |
|    \\/     M anipulation  |                                                 |
\*---------------------------------------------------------------------------*/
FoamFile
{
    version     2.0;
    format      ascii;
    arch        "LSB;label=32;scalar=64";
    class       volScalarField;
    location    "0.00152";
    object      sourcePV;
}
// * * * * * * * * * * * * * * * * * * * * * * * * * * * * * * * * * * * * * //

dimensions      [1 -3 -1 0 0 0 0];

internalField   nonuniform List<scalar> 
530
(
0.270855979
0.264183263
0.257970926
0.251618835
0.245707293
0.239651633
0.234019676
0.228238268
0.223455158
0.21862516
0.214137904
0.209503928
0.205205064
0.200755966
0.196635204
0.192360628
0.188408139
0.18429842
0.180504824
0.176550888
0.172907227
0.169100505
0.165598212
0.161930584
0.158561449
0.155529052
0.152747905
0.149826021
0.147146807
0.1443275
0.141745421
0.139024303
0.136534744
0.133907664
0.131506156
0.128969205
0.126651437
0.124200901
0.12196278
0.119511173
0.117272292
0.11489342
0.11274038
0.110447161
0.108375461
0.106163875
0.104169297
0.102035405
0.100114026
0.0980539473
0.0964723488
0.094834006
0.0933644631
0.0917802882
0.0903624538
0.0888301898
0.0874621253
0.0859796075
0.0846594467
0.0832246059
0.0819505484
0.0805614054
0.0793317168
0.0779863739
0.076799386
0.0754960202
0.0743501307
0.073086988
0.0719806575
0.0707560502
0.0696877985
0.0685001022
0.0674685038
0.0663161554
0.0653198357
0.0642013308
0.0632389617
0.0621528526
0.0612231496
0.060168042
0.0592697615
0.0582443118
0.0573762482
0.0563791606
0.0555401434
0.054570168
0.0537590582
0.0528149894
0.0520306749
0.0511113514
0.0503527417
0.0494570467
0.0487230684
0.0478499281
0.0471395248
0.0464513851
0.0459501169
0.0453442371
0.0448579043
0.0442659007
0.0437941209
0.0432154916
0.0427579721
0.0421921419
0.0417487035
0.0411949962
0.040765602
0.0402232081
0.0398079941
0.0392759424
0.0388752388
0.0383523857
0.037966709
0.0374517704
0.0370817592
0.0365734181
0.0362196806
0.0357167937
0.035379656
0.0348937912
0.0345489766
0.0340907072
0.0337395196
0.0333068617
0.0329507033
0.0325417445
0.0321818437
0.0317949391
0.0314322197
0.0310660697
0.0307011218
0.0303547688
0.0299878895
0.0296606616
0.0292919482
0.0289833589
0.0286128486
0.0283224544
0.0279607557
0.0276806335
0.0273214233
0.0270442702
0.026697135
0.0264231912
0.0260874757
0.0258170674
0.0254920737
0.0252254986
0.0249105764
0.0246480528
0.0243426377
0.0240842924
0.0237879123
0.0235337902
0.0232460546
0.0229961354
0.0227167193
0.0224709366
0.0221995628
0.0219578204
0.0216942451
0.0214564302
0.0212004314
0.0209664242
0.0207177932
0.0204874727
0.0202460086
0.0200192566
0.0197847633
0.0195614658
0.0193337495
0.0191137979
0.0188926666
0.018675958
0.0184612204
0.0182476574
0.0180391228
0.0178286138
0.0176260913
0.0174185503
0.0172218486
0.0170171955
0.0168261225
0.0166242825
0.0164386451
0.0162395477
0.0160591529
0.0158627292
0.0156873875
0.0154935642
0.0153230956
0.0151317871
0.0149660294
0.0147771306
0.0146159463
0.0144293295
0.0142726062
0.0140881289
0.013935767
0.0137555751
0.0136840642
0.0135970209
0.0135269783
0.013440476
0.0133719429
0.0132865598
0.013220124
0.013134691
0.0130686031
0.012984869
0.0129191059
0.0128369419
0.012771606
0.0126908778
0.0126260839
0.0125466609
0.0124825058
0.0124042843
0.0123408259
0.012263739
0.0122009957
0.0121250088
0.0120629715
0.0119880706
0.0119267163
0.0118528972
0.0117921991
0.0117194599
0.0116593921
0.0115877299
0.0115282699
0.0114576785
0.0113988075
0.0113292782
0.0112709807
0.0112025022
0.0111447657
0.0110773243
0.0110201386
0.0109537191
0.0108970763
0.0108316619
0.0107755557
0.0107111283
0.0106555545
0.010592094
0.0105370505
0.010474535
0.0104200224
0.0103584273
0.0103044492
0.0102437482
0.0101903109
0.0101304768
0.0100758079
0.0100139324
0.00995867807
0.00989761192
0.00984278059
0.00978249276
0.00972809008
0.0096685538
0.00961458236
0.00955577474
0.00950223437
0.00944413544
0.00939102401
0.00933361583
0.00928092995
0.0092241959
0.00917193151
0.0091158559
0.00906400864
0.00900857645
0.00895714188
0.00890233854
0.0088513124
0.00879712362
0.00874650192
0.00869291352
0.00864269284
0.00858969047
0.00853986815
0.00848743704
0.0084380115
0.00838613613
0.00833710721
0.00828577093
0.00823714044
0.00818632475
0.00813809745
0.008087781
0.00803996609
0.007990124
0.00794049338
0.00788695538
0.00783597122
0.00778351055
0.00773341079
0.00768198264
0.00763276076
0.00758232814
0.00753397237
0.00748450332
0.00743699869
0.00738846447
0.00734179408
0.00729416809
0.00724831378
0.00720157103
0.00715651386
0.00711063052
0.0070663511
0.00702130427
0.00697778307
0.00693355055
0.0068907681
0.00684732822
0.00680526532
0.00676259689
0.00672123476
0.0066793169
0.00663863735
0.00659744941
0.00655743506
0.00651695643
0.0064775909
0.00643780087
0.00639906903
0.00635994668
0.00632183481
0.0062833589
0.00624585491
0.00620800388
0.00617109738
0.00613384939
0.00609753184
0.00606086467
0.00602512997
0.00598902007
0.00595237562
0.00591258051
0.00587356429
0.00583413275
0.00579539533
0.00575631405
0.00571786362
0.00567912366
0.00564096628
0.00560256106
0.00556470142
0.00552662612
0.00548906776
0.00545131901
0.00541406446
0.00537664006
0.00533969109
0.00530258973
0.00526594754
0.00522916855
0.005192834
0.00515637714
0.00512035087
0.00508421616
0.00504849876
0.00501268638
0.00497727847
0.00494178871
0.00490669092
0.00487152415
0.00483673714
0.00480189383
0.00476741828
0.00473289903
0.0046987356
0.0046645411
0.00463069043
0.00459682151
0.00456328419
0.00452974173
0.00449651841
0.00446330327
0.00443039471
0.00439750759
0.00436491481
0.00433235604
0.00430008056
0.00426784989
0.00423589393
0.00420399027
0.00417235702
0.0041407783
0.00410947206
0.00407821514
0.00404724144
0.00401630221
0.00398566769
0.00395504139
0.00392475348
0.00389443522
0.00386277176
0.00382858555
0.00379487212
0.00376127528
0.00372809276
0.00369506403
0.00366240656
0.00362992657
0.00359778754
0.003565839
0.0035342109
0.00350277852
0.00347165297
0.00344072326
0.00341009117
0.00337965208
0.00334950392
0.00331954457
0.00328987057
0.00326038092
0.00323117134
0.00320214196
0.00317338725
0.00314480914
0.00311650003
0.00308836456
0.00306049213
0.00303279095
0.00300534667
0.00297807169
0.00295104737
0.00292419077
0.00289757859
0.00287113278
0.00284492526
0.00281888291
0.00279307288
0.00276742687
0.00274200752
0.00271675091
0.00269171575
0.00266684177
0.00264218468
0.00261768667
0.00259340186
0.00256927327
0.00254535532
0.00252158965
0.00249803346
0.00247462426
0.00245142505
0.00242836595
0.00240549509
0.0023819214
0.00235692349
0.0023303743
0.00230251452
0.00227289676
0.00224154862
0.00220828902
0.00217312285
0.00213588994
0.00209657963
0.00205504966
0.00201128577
0.00196516015
0.00191666812
0.0018656969
0.00181226277
0.00175627529
0.001697781
0.00163672495
0.00157319433
0.00150718599
0.00143884152
0.00136822781
0.00129555781
0.0012209878
0.00114482057
0.00106731968
0.000988894541
0.000909927492
0.000830943943
0.000752442573
0.000675058492
0.000599381689
0.000526125484
0.000455916846
0.000389481426
0.000327398907
0.000270298402
0.00021861331
0.000172719046
0.000132831571
9.88775996e-05
7.08505184e-05
4.81305301e-05
3.03732352e-05
1.68538606e-05
6.67472683e-06
9.94520878e-08
9.94515362e-08
9.94513246e-08
9.94513134e-08
9.9451365e-08
9.94514081e-08
9.94514288e-08
9.94514429e-08
9.94514478e-08
9.94514496e-08
9.94514501e-08
9.94514503e-08
9.94514503e-08
9.94514503e-08
9.94514503e-08
9.94514503e-08
9.94514503e-08
9.94514503e-08
9.94514503e-08
9.94514503e-08
9.94514503e-08
9.94514503e-08
9.94514503e-08
9.94514503e-08
9.94514503e-08
9.94514503e-08
9.94514503e-08
9.94514503e-08
9.94514503e-08
9.94514503e-08
)
;

boundaryField
{
    closed
    {
        type            calculated;
        value           nonuniform List<scalar> 0();
    }
    open
    {
        type            calculated;
        value           uniform 0;
    }
    sides
    {
        type            empty;
    }
    procBoundary5to4
    {
        type            processor;
        value           uniform 0;
    }
}


// ************************************************************************* //
