/*--------------------------------*- C++ -*----------------------------------*\
| =========                 |                                                 |
| \\      /  F ield         | OpenFOAM: The Open Source CFD Toolbox           |
|  \\    /   O peration     | Version:  2306                                  |
|   \\  /    A nd           | Website:  www.openfoam.com                      |
|    \\/     M anipulation  |                                                 |
\*---------------------------------------------------------------------------*/
FoamFile
{
    version     2.0;
    format      ascii;
    arch        "LSB;label=32;scalar=64";
    class       volScalarField;
    location    "2e-05";
    object      H;
}
// * * * * * * * * * * * * * * * * * * * * * * * * * * * * * * * * * * * * * //

dimensions      [0 0 0 0 0 0 0];

internalField   nonuniform List<scalar> 
3810
(
4.15474088e-08
1.14917934e-09
1.20303621e-09
4.11354924e-08
4.13041497e-08
1.16521861e-09
1.19524068e-09
3.67680904e-08
4.57571649e-08
4.40751678e-08
1.14252955e-09
1.1989416e-09
3.52005039e-08
4.5571523e-08
4.43752592e-08
1.02872943e-09
1.2741411e-09
3.89355346e-08
4.27397233e-08
8.81505501e-10
1.27572115e-09
3.99740756e-08
4.38615617e-08
7.83054117e-10
1.25637116e-09
4.043059e-08
4.46185681e-08
7.19119027e-10
1.24366522e-09
4.05640731e-08
4.47588695e-08
6.91693869e-10
1.23942754e-09
4.04614196e-08
4.43417945e-08
7.00701123e-10
1.24201616e-09
4.05690798e-08
4.33920459e-08
7.41200015e-10
1.25106898e-09
4.17201178e-08
4.20819372e-08
8.45410867e-10
3.76956856e-08
4.50738585e-08
8.41216266e-10
1.24936273e-09
4.0176531e-08
4.39984519e-08
9.03878632e-10
1.24564019e-09
4.12891964e-08
4.39970023e-08
9.7862657e-10
1.23990338e-09
4.19508853e-08
4.37400331e-08
1.05401857e-09
1.24414743e-09
4.21800008e-08
4.30347023e-08
1.12369455e-09
1.25684594e-09
4.21067178e-08
4.19423627e-08
1.18960779e-09
1.25106044e-09
4.28023643e-08
4.45357134e-08
4.01402062e-08
1.20926147e-09
1.28235291e-09
4.29739791e-08
4.41330552e-08
4.07330263e-08
1.22534078e-09
1.29631737e-09
4.28072273e-08
4.27201325e-08
1.24785717e-09
1.26620109e-09
4.34760407e-08
4.38409074e-08
1.23174257e-09
1.25176032e-09
4.43324838e-08
4.46734704e-08
1.23009278e-09
1.24568592e-09
4.48581597e-08
4.51117224e-08
1.23092067e-09
1.24600466e-09
4.50252767e-08
4.52059299e-08
1.23458769e-09
1.25094279e-09
4.48530872e-08
4.49848776e-08
1.24193708e-09
1.25971644e-09
4.42865151e-08
4.43632192e-08
1.25340642e-09
1.27224688e-09
4.33763732e-08
4.33465338e-08
1.26723607e-09
1.28506441e-09
4.25626887e-08
4.24141649e-08
1.27770097e-09
1.28559734e-09
4.25550351e-08
4.26959824e-08
4.23517446e-08
4.08950664e-08
1.28235647e-09
1.3079027e-09
4.23426546e-08
4.22845467e-08
1.28186474e-09
1.28482824e-09
4.33499773e-08
4.33790176e-08
1.26882489e-09
1.26335119e-09
4.43988694e-08
4.41958173e-08
1.25936862e-09
1.24545582e-09
4.50114996e-08
4.4590652e-08
1.25637223e-09
1.23134833e-09
4.50979395e-08
4.44480688e-08
1.25878317e-09
1.22015515e-09
4.48026092e-08
4.3893222e-08
1.26670947e-09
1.20561571e-09
4.44844304e-08
4.32438434e-08
1.27756838e-09
1.18795509e-09
4.49599129e-08
4.62947067e-08
4.27826986e-08
1.21318485e-09
1.21868483e-09
4.43175059e-08
4.3459295e-08
1.23681979e-09
1.17654609e-09
4.43572233e-08
4.39357313e-08
1.24427059e-09
1.13774503e-09
4.48420458e-08
4.41526985e-08
1.24523672e-09
1.10399196e-09
4.52002321e-08
4.41321957e-08
1.2454254e-09
1.07360546e-09
4.53382286e-08
4.38760056e-08
1.24693473e-09
1.04527444e-09
4.52845349e-08
4.33811499e-08
1.2509845e-09
1.01832861e-09
4.50041615e-08
4.26325871e-08
1.25843577e-09
9.91774437e-10
4.45360153e-08
4.1707749e-08
1.26739382e-09
9.64804646e-10
4.42200343e-08
4.05919269e-08
1.26463477e-09
9.62866754e-10
4.58896678e-08
4.64441164e-08
3.91977866e-08
1.19591517e-09
9.42132577e-10
4.42754732e-08
4.09480042e-08
1.22956587e-09
8.67092735e-10
4.43738336e-08
4.14849791e-08
1.23300961e-09
8.17965565e-10
4.49107899e-08
4.18070975e-08
1.22950848e-09
7.8492976e-10
4.53074525e-08
4.19305698e-08
1.22587592e-09
7.67845768e-10
4.55093675e-08
4.19393179e-08
1.22416466e-09
7.65983301e-10
4.55791823e-08
4.19175108e-08
1.22492465e-09
7.78881044e-10
4.55521826e-08
4.1896988e-08
1.22884018e-09
8.06933e-10
4.53791056e-08
4.18009583e-08
1.23707956e-09
8.50138082e-10
4.49723553e-08
4.15371885e-08
1.25081411e-09
9.07379932e-10
4.42730428e-08
4.10048265e-08
1.26733041e-09
9.80264711e-10
4.35030328e-08
3.9681776e-08
1.25883901e-09
1.06883975e-09
4.55540975e-08
4.66236913e-08
3.68206217e-08
1.21047058e-09
1.2010291e-09
4.23877031e-08
3.91972172e-08
1.25196172e-09
1.17004766e-09
4.53301603e-08
4.66346532e-08
3.8173784e-08
1.205402e-09
1.24922909e-09
4.2863829e-08
4.20346402e-08
1.26350394e-09
1.20426174e-09
4.31156088e-08
4.2769652e-08
1.27083877e-09
1.21269441e-09
4.37187953e-08
4.28536082e-08
1.26899694e-09
1.2219e-09
4.43166275e-08
4.22184881e-08
1.23557946e-09
1.24490299e-09
4.74057223e-08
3.82190087e-08
1.19566676e-09
4.18272486e-08
4.37966847e-08
1.28023946e-09
1.12886126e-09
4.31830196e-08
4.25141099e-08
1.2789835e-09
1.05942913e-09
4.35388734e-08
4.13887358e-08
1.27428764e-09
9.84757476e-10
4.39071221e-08
3.98765001e-08
1.24611807e-09
9.13865597e-10
4.64927596e-08
3.57269349e-08
8.3536371e-10
4.13257095e-08
3.98024768e-08
1.27036863e-09
7.61605248e-10
4.2675022e-08
3.77107098e-08
1.23640463e-09
6.93361393e-10
4.6187296e-08
3.40057105e-08
6.26711017e-10
4.12081522e-08
3.83816578e-08
1.25990358e-09
6.05695193e-10
4.25863045e-08
3.77373933e-08
1.24750168e-09
5.96515531e-10
4.32261159e-08
3.74390962e-08
1.20426046e-09
6.23879202e-10
4.7543193e-08
3.35257791e-08
6.43030914e-10
4.09000166e-08
3.9913598e-08
1.25695639e-09
7.14298879e-10
4.33201163e-08
4.02818351e-08
1.24397374e-09
8.00575183e-10
4.41118246e-08
4.12838017e-08
1.24207629e-09
9.03765373e-10
4.46377972e-08
4.22606177e-08
1.24202547e-09
1.00510813e-09
4.46353116e-08
4.28635968e-08
1.23577032e-09
1.09956838e-09
4.42107398e-08
4.2973466e-08
1.22344177e-09
1.16880055e-09
4.3654071e-08
4.22217512e-08
1.17793973e-09
1.25851082e-09
4.61861373e-08
3.69235396e-08
1.14572167e-09
3.81784948e-08
4.18412018e-08
1.14780582e-09
1.21920454e-09
4.20672841e-08
4.65954236e-08
4.00695156e-08
1.12872366e-09
1.30485038e-09
4.04481142e-08
4.2359027e-08
1.05259947e-09
1.26574562e-09
4.05762296e-08
4.28026171e-08
9.90960258e-10
1.25970778e-09
4.14273197e-08
4.29227195e-08
9.2071288e-10
1.27663666e-09
4.44713818e-08
4.10472392e-08
1.0494625e-09
3.61901335e-08
4.57216949e-08
9.34404515e-10
1.2178812e-09
4.03714934e-08
4.44439499e-08
8.75138913e-10
1.22804302e-09
4.1112489e-08
4.471313e-08
8.51770979e-10
1.22386619e-09
4.17125798e-08
4.51118516e-08
8.3901666e-10
1.21970595e-09
4.21951485e-08
4.54539166e-08
8.39012935e-10
1.21782155e-09
4.25531916e-08
4.56170894e-08
8.52101142e-10
1.21871097e-09
4.27681445e-08
4.56000404e-08
8.76490706e-10
1.2230929e-09
4.28141074e-08
4.53262659e-08
9.09699132e-10
1.23309384e-09
4.26911923e-08
4.47048016e-08
9.46498297e-10
1.24831805e-09
4.28769137e-08
4.39326675e-08
9.77866347e-10
1.26683869e-09
4.47020306e-08
4.23660237e-08
1.14071554e-09
3.79992646e-08
4.59407472e-08
1.09739358e-09
1.25007055e-09
4.18010925e-08
4.46872421e-08
1.09620527e-09
1.25983905e-09
4.29209466e-08
4.47219595e-08
1.11382546e-09
1.26038268e-09
4.34473884e-08
4.46474666e-08
1.13234421e-09
1.26260327e-09
4.36004023e-08
4.4277758e-08
1.14983375e-09
1.26527614e-09
4.37995285e-08
4.36276869e-08
1.16905736e-09
1.26280404e-09
4.44468572e-08
4.28126647e-08
1.23428822e-09
3.99728376e-08
4.53371874e-08
1.20285002e-09
1.26849653e-09
4.21558718e-08
4.40250868e-08
1.19644849e-09
1.27207832e-09
4.26401432e-08
4.35435686e-08
1.21410429e-09
1.25859298e-09
4.26245817e-08
4.3746438e-08
1.25382037e-09
1.20920205e-09
4.11412737e-08
4.70784745e-08
4.4740447e-08
1.19030913e-09
1.27990473e-09
4.22570496e-08
4.41690039e-08
1.21092288e-09
1.27610787e-09
4.32417818e-08
4.46054002e-08
1.21032239e-09
1.26773053e-09
4.38964333e-08
4.48242485e-08
1.21071147e-09
1.2627671e-09
4.40884376e-08
4.4665699e-08
1.21940018e-09
1.25955675e-09
4.38378176e-08
4.41880231e-08
1.24349055e-09
1.24735407e-09
4.30976287e-08
4.42499804e-08
1.28731635e-09
1.21450407e-09
4.10494072e-08
4.78011409e-08
4.55505252e-08
1.20537045e-09
1.27046483e-09
4.18510509e-08
4.38872257e-08
1.2547364e-09
1.28152167e-09
4.2800222e-08
4.37553219e-08
1.26520971e-09
1.27784357e-09
4.31580131e-08
4.35383065e-08
1.29034883e-09
1.25655307e-09
4.28611109e-08
4.3958628e-08
1.33844766e-09
1.19167833e-09
4.04058241e-08
4.78133683e-08
4.54621731e-08
1.22292463e-09
1.25797518e-09
4.21187207e-08
4.35238092e-08
1.27602752e-09
1.2459401e-09
4.30269444e-08
4.33758892e-08
1.26277498e-09
1.22702689e-09
4.32268977e-08
4.29816541e-08
1.25417105e-09
1.21640773e-09
4.31987825e-08
4.18146666e-08
1.24728005e-09
1.22880348e-09
4.33740598e-08
3.86418855e-08
1.17037821e-09
3.4998742e-08
4.5525018e-08
1.40322318e-09
1.13699294e-09
3.61362257e-08
4.61710751e-08
4.23850015e-08
1.22303849e-09
1.21327832e-09
4.11191664e-08
3.83570314e-08
1.16625552e-09
3.55933543e-08
4.59489914e-08
1.27614458e-09
1.19143129e-09
4.16512648e-08
4.3491936e-08
1.19908298e-09
1.2140266e-09
4.32492841e-08
4.40735141e-08
1.16470984e-09
1.21092553e-09
4.39916093e-08
4.47542082e-08
1.14431695e-09
1.20829671e-09
4.42903492e-08
4.51403246e-08
1.1293354e-09
1.21213307e-09
4.43687648e-08
4.53049715e-08
1.12212497e-09
1.2260643e-09
4.42985062e-08
4.52010868e-08
1.11940552e-09
1.23611665e-09
4.39682258e-08
4.48053087e-08
1.12649676e-09
1.24316022e-09
4.34012341e-08
4.4311659e-08
1.15677873e-09
1.23458631e-09
4.26275772e-08
4.44407614e-08
1.19279545e-09
1.20311945e-09
4.14023149e-08
4.64584792e-08
4.48482267e-08
1.16416527e-09
1.26575513e-09
4.28209963e-08
4.39151061e-08
1.15394285e-09
1.23364875e-09
4.34526412e-08
4.43609746e-08
1.15717028e-09
1.1981544e-09
4.41775301e-08
4.4795451e-08
1.15987747e-09
1.17647665e-09
4.46891269e-08
4.48953203e-08
1.16665471e-09
1.16961552e-09
4.48583847e-08
4.46808915e-08
1.17853549e-09
1.1741528e-09
4.46631287e-08
4.41984564e-08
1.19426437e-09
1.19014234e-09
4.41876446e-08
4.34664327e-08
1.2037156e-09
1.20257068e-09
4.36264891e-08
4.28462274e-08
1.20555494e-09
1.20014278e-09
4.44102064e-08
4.7148774e-08
4.20793491e-08
1.16988374e-09
1.25552555e-09
4.32277757e-08
4.36502736e-08
1.1915604e-09
1.22648451e-09
4.35171972e-08
4.43075428e-08
1.18857227e-09
1.2215673e-09
4.419954e-08
4.48887429e-08
1.18430685e-09
1.22363661e-09
4.46556754e-08
4.52104502e-08
1.1806644e-09
1.22903852e-09
4.48514584e-08
4.53021153e-08
1.18085785e-09
1.23674557e-09
4.47547527e-08
4.5111648e-08
1.18467438e-09
1.2475847e-09
4.44427648e-08
4.46340155e-08
1.19338279e-09
1.25971872e-09
4.37908272e-08
4.38628191e-08
1.2079377e-09
1.27073518e-09
4.28555332e-08
4.29509072e-08
1.2326681e-09
1.24768272e-09
4.19034255e-08
4.52277983e-08
4.20749238e-08
1.22387625e-09
1.32850896e-09
4.08698415e-08
4.1546368e-08
1.24954068e-09
1.28278276e-09
4.06806928e-08
4.438902e-08
4.18057155e-08
1.24139336e-09
1.34477066e-09
4.01209016e-08
4.12191866e-08
1.24597229e-09
1.34216095e-09
3.99543121e-08
4.06653728e-08
1.26733459e-09
1.30061802e-09
3.9631095e-08
4.34831198e-08
4.08082056e-08
1.27088832e-09
1.31204161e-09
3.91805139e-08
4.32269497e-08
4.08339108e-08
1.25699629e-09
1.35847416e-09
3.98479827e-08
4.02602055e-08
1.23836185e-09
1.35690208e-09
4.12512092e-08
3.95513252e-08
1.29911468e-09
3.80093038e-08
4.19768931e-08
1.2498088e-09
1.34320502e-09
4.11253538e-08
4.00561225e-08
1.29814923e-09
3.82432781e-08
4.25685736e-08
1.24321611e-09
1.3442253e-09
4.0144206e-08
4.09822064e-08
1.23518007e-09
1.34980819e-09
4.1162024e-08
3.99254848e-08
1.29644649e-09
3.83669915e-08
4.21491904e-08
1.26640286e-09
1.3037153e-09
3.96791158e-08
4.34619633e-08
4.11182882e-08
1.25385314e-09
1.34848631e-09
4.1014822e-08
4.1404553e-08
1.25023415e-09
1.32183429e-09
4.12812914e-08
4.2111555e-08
1.27051856e-09
1.28457737e-09
4.15198195e-08
4.3832318e-08
4.21450467e-08
1.25383375e-09
1.32956044e-09
4.2065974e-08
4.22210874e-08
1.27715452e-09
1.30150572e-09
4.21053446e-08
4.25419924e-08
1.30473096e-09
1.2644749e-09
4.25648699e-08
4.51589107e-08
4.25977388e-08
1.25601409e-09
1.303483e-09
4.27192017e-08
4.27471205e-08
1.29507797e-09
1.27093322e-09
4.26506306e-08
4.23905774e-08
1.30847453e-09
1.24077044e-09
4.2860178e-08
4.2412819e-08
1.31731299e-09
1.21093278e-09
4.32190929e-08
4.60505287e-08
4.25709978e-08
1.23843632e-09
1.24028661e-09
4.29561903e-08
4.27770732e-08
1.277836e-09
1.21405215e-09
4.32087353e-08
4.26425022e-08
1.28321669e-09
1.19856501e-09
4.38867181e-08
4.21418417e-08
1.28193231e-09
1.19654881e-09
4.4942318e-08
4.03810415e-08
1.24331495e-09
4.17527367e-08
4.42050379e-08
1.2860295e-09
1.17730146e-09
4.3136539e-08
4.32085279e-08
1.28056427e-09
1.17143863e-09
4.36615759e-08
4.27399893e-08
1.28072908e-09
1.16901007e-09
4.40855851e-08
4.20699583e-08
1.28229511e-09
1.17837745e-09
4.48279804e-08
4.00834113e-08
1.23774485e-09
4.1622046e-08
4.39866154e-08
1.29388159e-09
1.17204741e-09
4.25666428e-08
4.2537492e-08
1.29272263e-09
1.17598788e-09
4.25985901e-08
4.16348699e-08
1.29791251e-09
1.17856762e-09
4.23460821e-08
4.09843894e-08
1.31225356e-09
1.2105295e-09
4.19434755e-08
4.41656649e-08
4.10794323e-08
1.28980541e-09
1.20720896e-09
4.14556167e-08
4.42895402e-08
4.13579262e-08
1.26413027e-09
1.17004328e-09
4.21951578e-08
4.18468753e-08
1.27944996e-09
1.14575569e-09
4.31973369e-08
4.26354151e-08
1.26513319e-09
1.13013659e-09
4.38066208e-08
4.3033859e-08
1.25458692e-09
1.12435849e-09
4.37760284e-08
4.28498557e-08
1.25330295e-09
1.12931978e-09
4.31031301e-08
4.21045417e-08
1.2588463e-09
1.14487488e-09
4.20785186e-08
4.09048878e-08
1.26692135e-09
1.22273976e-09
4.15816117e-08
4.23847648e-08
4.26026962e-08
4.13696578e-08
1.27158653e-09
1.19504492e-09
4.17825808e-08
4.16874083e-08
1.25840682e-09
1.2039532e-09
4.31985065e-08
4.3090506e-08
1.24478367e-09
1.21718677e-09
4.44096228e-08
4.44348653e-08
1.23976011e-09
1.24168608e-09
4.51178877e-08
4.52100303e-08
1.23483126e-09
1.24553177e-09
4.50929101e-08
4.52011817e-08
1.21524272e-09
1.23833288e-09
4.45327553e-08
4.46399142e-08
1.19731118e-09
1.23600886e-09
4.37435572e-08
4.36999849e-08
1.18998673e-09
1.24144089e-09
4.3059942e-08
4.25200258e-08
1.20459158e-09
1.26211239e-09
4.44854085e-08
3.8843398e-08
1.19465151e-09
4.155718e-08
3.93501682e-08
1.17319006e-09
4.01182763e-08
4.24920461e-08
1.19244775e-09
1.20831207e-09
4.20275421e-08
4.28616311e-08
1.18546622e-09
1.19753768e-09
4.33769296e-08
4.36671725e-08
1.18779649e-09
1.19110789e-09
4.43384967e-08
4.43931475e-08
1.19299e-09
1.19082312e-09
4.4895048e-08
4.47847115e-08
1.20306698e-09
1.19583968e-09
4.51210024e-08
4.48471981e-08
1.21647459e-09
1.20750653e-09
4.51310297e-08
4.46194629e-08
1.23492494e-09
1.22226354e-09
4.49926186e-08
4.41113231e-08
1.24881333e-09
1.23654889e-09
4.49586208e-08
4.30807267e-08
1.23790022e-09
1.27496081e-09
4.68779997e-08
3.96354979e-08
1.24746707e-09
4.22979149e-08
4.47627892e-08
1.26737496e-09
1.24907148e-09
4.34085908e-08
4.40268315e-08
1.27249646e-09
1.23307809e-09
4.37750198e-08
4.37380666e-08
1.27796154e-09
1.23069893e-09
4.38465877e-08
4.32404822e-08
1.28186778e-09
1.23893079e-09
4.3632667e-08
4.20653972e-08
1.27807805e-09
1.26732984e-09
4.43818449e-08
3.88832849e-08
1.26154999e-09
4.10104871e-08
3.95460724e-08
1.26998628e-09
4.08005938e-08
4.11691325e-08
1.31748091e-09
1.24586413e-09
4.15669217e-08
4.0944228e-08
1.32378637e-09
1.22402788e-09
4.22996415e-08
4.12735182e-08
1.32477005e-09
1.21838197e-09
4.35357577e-08
4.48065136e-08
4.15548464e-08
1.24974079e-09
1.24660025e-09
4.30959942e-08
4.23855973e-08
1.28194434e-09
1.22125819e-09
4.30016749e-08
4.23137403e-08
1.29375962e-09
1.21468283e-09
4.31324513e-08
4.16523446e-08
1.29780895e-09
1.22375911e-09
4.37641961e-08
3.97948097e-08
1.27153716e-09
4.118096e-08
4.21801791e-08
1.30381641e-09
1.22964156e-09
4.32541438e-08
3.94431065e-08
1.26096474e-09
4.06923439e-08
4.33561194e-08
1.30689108e-09
1.2019318e-09
4.2466659e-08
4.23911626e-08
1.29233324e-09
1.20111014e-09
4.30738297e-08
4.21116808e-08
1.29197274e-09
1.1920863e-09
4.3273907e-08
4.20888096e-08
1.31018819e-09
1.18335944e-09
4.27824895e-08
4.63778735e-08
4.34533974e-08
1.2258417e-09
1.20346742e-09
4.28537591e-08
4.32920799e-08
1.25780521e-09
1.19073375e-09
4.36845184e-08
4.38304031e-08
1.24740457e-09
1.18089065e-09
4.42667599e-08
4.4280629e-08
1.23528703e-09
1.17634143e-09
4.46595035e-08
4.44935488e-08
1.22305188e-09
1.17646677e-09
4.47415172e-08
4.45471519e-08
1.21605098e-09
1.18425711e-09
4.44313953e-08
4.4274927e-08
1.21304663e-09
1.20048735e-09
4.35573894e-08
4.34764011e-08
1.21403005e-09
1.22950419e-09
4.22924069e-08
4.23249318e-08
1.23586791e-09
1.26158364e-09
3.91639114e-08
4.21299118e-08
4.34513998e-08
4.2849379e-08
1.20377635e-09
1.27931749e-09
4.06015762e-08
4.20765828e-08
1.15561045e-09
1.29259524e-09
4.14267367e-08
4.2863959e-08
1.09388132e-09
1.28790732e-09
4.16916804e-08
4.3223074e-08
1.03613338e-09
1.28329874e-09
4.16170669e-08
4.28543699e-08
9.91109964e-10
1.28650753e-09
4.17648674e-08
4.14591679e-08
9.44537701e-10
3.66636807e-08
4.58050492e-08
9.41268516e-10
1.27628264e-09
3.9236443e-08
4.3013604e-08
9.13535271e-10
1.30168743e-09
3.96167776e-08
4.21264289e-08
9.28846921e-10
1.30652972e-09
4.00573433e-08
4.07657213e-08
9.64550612e-10
3.64287751e-08
4.30324092e-08
9.88406675e-10
1.31736717e-09
3.91647795e-08
4.02268622e-08
1.03071917e-09
3.655019e-08
4.26451742e-08
1.06448225e-09
1.31316482e-09
3.86072819e-08
4.16089382e-08
1.11100079e-09
1.29602534e-09
3.91290723e-08
4.29594721e-08
4.20745797e-08
1.20724857e-09
1.33559047e-09
4.04071754e-08
4.15155449e-08
1.19902536e-09
1.30368148e-09
4.04402272e-08
4.30398778e-08
4.1921416e-08
1.24832131e-09
1.33743546e-09
4.13605632e-08
4.17340447e-08
1.26125078e-09
1.31768321e-09
4.15643408e-08
4.20187925e-08
1.2940104e-09
1.28686691e-09
4.19751995e-08
4.37467275e-08
4.21337571e-08
1.27195694e-09
1.3365308e-09
4.2314767e-08
4.20020635e-08
1.31040418e-09
1.31100741e-09
4.20608655e-08
4.20141031e-08
1.33372819e-09
1.27246126e-09
4.21208079e-08
4.3667219e-08
4.16129388e-08
1.28702943e-09
1.30275566e-09
4.27669463e-08
4.09425807e-08
1.30128419e-09
1.27581625e-09
4.34502713e-08
4.03383877e-08
1.29416784e-09
4.16968914e-08
4.3381171e-08
1.29226593e-09
1.23891894e-09
4.30715002e-08
4.34660284e-08
1.28099364e-09
1.21655441e-09
4.38671358e-08
4.36204926e-08
1.27788402e-09
1.2038807e-09
4.39445576e-08
4.34201071e-08
1.28213778e-09
1.2032703e-09
4.33577965e-08
4.26563557e-08
1.2908969e-09
1.21192165e-09
4.25387887e-08
4.17146041e-08
1.29911567e-09
1.22213776e-09
4.22068648e-08
4.23162603e-08
4.23028168e-08
4.08950018e-08
1.29097551e-09
1.23966196e-09
4.25071069e-08
4.19240786e-08
1.28668944e-09
1.23280372e-09
4.35139854e-08
4.30940915e-08
1.27555771e-09
1.23093244e-09
4.44538346e-08
4.40649638e-08
1.26698011e-09
1.23451872e-09
4.49725698e-08
4.45866557e-08
1.2637557e-09
1.24282104e-09
4.50514586e-08
4.46085593e-08
1.26411379e-09
1.25486392e-09
4.4896348e-08
4.41373889e-08
1.26629271e-09
1.2637908e-09
4.4813309e-08
4.30852639e-08
1.26747467e-09
1.27822411e-09
4.5313622e-08
4.1708917e-08
1.28385726e-09
4.21761009e-08
4.45417254e-08
1.24988107e-09
1.2883976e-09
4.26984581e-08
4.37856199e-08
1.25266881e-09
1.28361234e-09
4.28194833e-08
4.3156638e-08
1.26055748e-09
1.28060871e-09
4.27931015e-08
4.27169005e-08
1.27659186e-09
1.25317087e-09
4.26287031e-08
4.46306509e-08
4.20090659e-08
1.23522552e-09
1.33400373e-09
4.24962803e-08
4.15368057e-08
1.27245881e-09
1.32640134e-09
4.32216817e-08
3.99761109e-08
1.29935251e-09
4.07618997e-08
4.2863979e-08
1.29088363e-09
1.29539345e-09
4.2114438e-08
4.17671032e-08
1.29379527e-09
1.283208e-09
4.41586742e-08
4.00698684e-08
1.28584832e-09
4.20245874e-08
4.37976002e-08
1.27769965e-09
1.22617162e-09
4.33932098e-08
4.36745959e-08
1.27299074e-09
1.18109523e-09
4.41908763e-08
4.3563234e-08
1.27384401e-09
1.14054378e-09
4.44549581e-08
4.31652712e-08
1.27926195e-09
1.10572853e-09
4.42190873e-08
4.23978968e-08
1.28935142e-09
1.0753425e-09
4.37438646e-08
4.13153803e-08
1.29124484e-09
1.12160336e-09
4.53259145e-08
4.59075205e-08
3.94516254e-08
1.22958866e-09
1.06669066e-09
4.32885351e-08
4.04026406e-08
1.27648952e-09
1.01353961e-09
4.26062122e-08
3.99641999e-08
1.29770199e-09
9.92179482e-10
4.23177711e-08
3.87667584e-08
1.2944907e-09
1.04776524e-09
4.44263783e-08
4.48538642e-08
3.62021304e-08
1.22476878e-09
1.04534859e-09
4.49089469e-08
3.45877043e-08
9.36723932e-10
4.0313491e-08
4.00899887e-08
1.309417e-09
9.66439514e-10
4.20460576e-08
3.9731972e-08
1.29661951e-09
9.85084125e-10
4.29710833e-08
3.91257561e-08
1.25444484e-09
1.04971997e-09
4.64789084e-08
3.52115794e-08
1.05530036e-09
4.11697394e-08
4.17011262e-08
1.29293425e-09
1.07767227e-09
4.26755829e-08
4.04211556e-08
1.24674333e-09
1.16357932e-09
4.65686097e-08
3.63027851e-08
1.14454349e-09
4.15847768e-08
4.31268487e-08
1.27526966e-09
1.15500517e-09
4.29393427e-08
4.28521117e-08
1.25976526e-09
1.17778031e-09
4.35022736e-08
4.27262188e-08
1.25248232e-09
1.21389396e-09
4.40854731e-08
4.22012232e-08
1.205841e-09
1.25684701e-09
4.71366775e-08
3.84796816e-08
1.17576166e-09
4.16882008e-08
4.50467273e-08
1.20067646e-09
1.20614869e-09
4.33753434e-08
4.46134312e-08
1.19075112e-09
1.20439863e-09
4.40886204e-08
4.47923765e-08
1.18517786e-09
1.20561696e-09
4.46728127e-08
4.5131733e-08
1.18193677e-09
1.20713723e-09
4.51018112e-08
4.54284016e-08
1.18309353e-09
1.20869319e-09
4.53520278e-08
4.5603644e-08
1.18781418e-09
1.21146634e-09
4.54552552e-08
4.56625359e-08
1.19462552e-09
1.21565539e-09
4.55171297e-08
4.56432524e-08
1.20346023e-09
1.22057134e-09
4.55253934e-08
4.55537835e-08
1.21329156e-09
1.2269449e-09
4.54572248e-08
4.5372219e-08
1.22427298e-09
1.23622632e-09
4.53295347e-08
4.50938116e-08
1.24306182e-09
1.24418051e-09
4.50653685e-08
4.45280794e-08
1.25651386e-09
1.24859634e-09
4.46471939e-08
4.39158476e-08
1.27379554e-09
1.24638204e-09
4.41484389e-08
4.37444084e-08
1.29959658e-09
1.22336409e-09
4.3561851e-08
4.54784114e-08
4.36337808e-08
1.23601655e-09
1.29651526e-09
4.29398541e-08
4.3126486e-08
1.27995337e-09
1.28503674e-09
4.23369816e-08
4.23652546e-08
1.30343465e-09
1.27706907e-09
4.18915374e-08
4.17381625e-08
1.32868115e-09
1.25822335e-09
4.05875704e-08
4.41277886e-08
4.25321515e-08
1.31250311e-09
1.22721374e-09
3.94811458e-08
4.5225491e-08
4.23969658e-08
1.25544607e-09
1.27467852e-09
4.17797928e-08
4.22701895e-08
1.28659258e-09
1.24336117e-09
4.28889884e-08
4.27456236e-08
1.26986624e-09
1.2259152e-09
4.35848426e-08
4.29077373e-08
1.25485098e-09
1.21381048e-09
4.40744334e-08
4.24329974e-08
1.23928439e-09
1.21674053e-09
4.54306799e-08
3.98727919e-08
1.17729892e-09
3.89452003e-08
4.7209989e-08
1.28319562e-09
1.17705078e-09
4.36635306e-08
4.41439916e-08
1.2269288e-09
1.17139604e-09
4.39791562e-08
4.40407872e-08
1.204231e-09
1.17242731e-09
4.41402382e-08
4.40030595e-08
1.18869529e-09
1.17729373e-09
4.40082963e-08
4.36743434e-08
1.17320728e-09
1.1893594e-09
4.37669275e-08
4.29610752e-08
1.15166648e-09
1.21732743e-09
4.41972733e-08
4.06350469e-08
1.08098845e-09
3.67002637e-08
4.85682704e-08
1.16798512e-09
1.19370198e-09
4.15998657e-08
4.44944239e-08
1.06085772e-09
1.2604473e-09
4.15757875e-08
4.40166737e-08
9.83420126e-10
1.27156425e-09
4.08089315e-08
4.33472939e-08
9.11730645e-10
1.27696052e-09
3.96773487e-08
4.20347112e-08
8.54385766e-10
1.29166187e-09
3.87891578e-08
3.91102163e-08
7.86860293e-10
3.18316265e-08
4.51742702e-08
8.15041595e-10
1.25133076e-09
3.30435173e-08
4.09130728e-08
4.36807647e-08
4.32103842e-08
7.53857001e-10
1.28245812e-09
3.65195457e-08
4.18504288e-08
6.84412068e-10
1.28125024e-09
3.78566078e-08
4.30670863e-08
6.57936431e-10
1.26660579e-09
3.89513414e-08
4.39200915e-08
6.59659217e-10
1.25775229e-09
3.96756717e-08
4.42236941e-08
6.90579478e-10
1.25525435e-09
4.00954444e-08
4.40203146e-08
7.45996355e-10
1.25608509e-09
4.04701769e-08
4.33959331e-08
8.16906147e-10
1.25926588e-09
4.12910868e-08
4.21590601e-08
8.762409e-10
3.7346613e-08
4.644441e-08
9.20491511e-10
1.24881783e-09
4.07659915e-08
4.48052903e-08
9.56855228e-10
1.25847123e-09
4.22616003e-08
4.48864406e-08
9.99728853e-10
1.2531814e-09
4.33538131e-08
4.52474803e-08
1.04001833e-09
1.2489768e-09
4.39603571e-08
4.53309871e-08
1.08196074e-09
1.25030634e-09
4.38593912e-08
4.47237134e-08
1.1282813e-09
1.25721699e-09
4.33874081e-08
4.34883641e-08
1.17355695e-09
1.2667959e-09
4.33516947e-08
4.20383479e-08
1.20079367e-09
4.00714415e-08
4.52362223e-08
1.20970923e-09
1.27811137e-09
4.18476404e-08
4.38223605e-08
1.21529538e-09
1.28601966e-09
4.22225359e-08
4.31098032e-08
1.23332648e-09
1.28458667e-09
4.17965072e-08
4.28089847e-08
1.26006815e-09
1.27281459e-09
4.06418753e-08
4.32883733e-08
4.31084367e-08
1.26066212e-09
1.27721189e-09
3.99321786e-08
4.34573608e-08
4.27532723e-08
1.25023413e-09
1.30863245e-09
4.12428861e-08
4.21721803e-08
1.23826675e-09
1.30042712e-09
4.17830872e-08
4.24767187e-08
1.24295624e-09
1.27915422e-09
4.18025662e-08
4.34221864e-08
1.25865208e-09
1.2397259e-09
4.11300198e-08
4.56210282e-08
4.46944486e-08
1.20053668e-09
1.30431978e-09
4.21806579e-08
4.38149158e-08
1.18059876e-09
1.29991969e-09
4.2593391e-08
4.38731998e-08
1.17751101e-09
1.29353509e-09
4.28023766e-08
4.38261549e-08
1.17792225e-09
1.29097742e-09
4.24155741e-08
4.33275408e-08
1.18746533e-09
1.28801267e-09
4.1230141e-08
4.29436568e-08
1.21170765e-09
1.26914437e-09
3.92235721e-08
4.37042505e-08
4.34506134e-08
1.20802929e-09
1.27560249e-09
3.74295089e-08
4.35403495e-08
4.25187688e-08
1.23027933e-09
1.29321672e-09
3.87151664e-08
4.1829169e-08
1.20138009e-09
1.25268539e-09
3.84607023e-08
4.47748689e-08
4.42928099e-08
1.13444206e-09
1.30040449e-09
4.0722438e-08
4.33634539e-08
1.0764707e-09
1.29503189e-09
4.18452548e-08
4.40088138e-08
1.04652122e-09
1.28159821e-09
4.24986658e-08
4.46035441e-08
1.01995797e-09
1.27297899e-09
4.26831252e-08
4.47729614e-08
9.98539385e-10
1.26982403e-09
4.23749399e-08
4.4464314e-08
9.85497387e-10
1.27045578e-09
4.15115432e-08
4.3722915e-08
9.84830565e-10
1.26670066e-09
3.98897141e-08
4.34531149e-08
1.01249504e-09
1.23089487e-09
3.6045576e-08
4.57171986e-08
4.535177e-08
1.042449e-09
1.29710944e-09
3.80773161e-08
3.9426767e-08
8.92443116e-10
3.35319159e-08
4.51181507e-08
8.96405026e-10
1.26824604e-09
3.75960225e-08
4.14457668e-08
8.30095888e-10
1.3059874e-09
3.85003321e-08
3.93860878e-08
7.54119733e-10
3.25582646e-08
4.63142132e-08
7.3642798e-10
1.25307813e-09
3.6356338e-08
4.15584697e-08
6.8551811e-10
1.30256452e-09
3.63802977e-08
3.89130125e-08
6.38655634e-10
3.20899173e-08
4.28753377e-08
5.80537066e-10
3.22286947e-08
4.76159674e-08
5.2540465e-10
1.19510209e-09
3.64946772e-08
4.35922166e-08
4.71778393e-10
1.230633e-09
3.71831432e-08
4.37984956e-08
5.06414778e-10
1.22248763e-09
3.74111403e-08
4.42289136e-08
9.56149545e-10
1.2116529e-09
3.7290462e-08
4.43393805e-08
1.18659737e-09
1.20179301e-09
3.68830696e-08
4.41605059e-08
6.18073331e-10
1.18444737e-09
3.56955126e-08
4.44435798e-08
4.70040005e-10
1.10366312e-09
2.8540035e-08
5.03674191e-08
4.97070444e-08
1.28044223e-09
1.17292311e-09
3.55457449e-08
4.35929439e-08
4.66430281e-10
1.22926917e-09
3.69016398e-08
4.33763439e-08
5.15096733e-10
1.23976087e-09
3.75438421e-08
4.3270208e-08
5.80821679e-10
1.25208111e-09
3.8058711e-08
4.23363321e-08
6.65637597e-10
1.2881621e-09
3.93979664e-08
3.8264991e-08
7.3651923e-10
2.62841367e-08
5.28767981e-08
1.01953972e-09
1.00785252e-09
2.85154199e-08
5.19796334e-08
4.96472532e-08
1.02343696e-09
1.13079974e-09
3.97392194e-08
4.23092275e-08
1.02755834e-09
1.1260459e-09
3.56131646e-08
4.28955475e-08
9.36455894e-09
1.08697346e-09
3.03789565e-08
4.33944574e-08
1.32019087e-08
1.03677275e-09
2.88084671e-08
4.34818706e-08
1.43185903e-08
9.80651119e-10
2.90353086e-08
4.31375391e-08
1.30772479e-08
9.20928747e-10
3.06857232e-08
4.2442329e-08
9.92553549e-09
8.64605397e-10
3.33559438e-08
4.14652823e-08
4.78420493e-09
8.29084033e-10
3.77877036e-08
3.93428677e-08
7.16158431e-10
6.07076981e-10
3.63247029e-08
3.22690611e-08
1.34568162e-08
3.51005805e-08
4.14261164e-08
8.17608431e-10
5.92187946e-10
4.15680059e-08
3.79193405e-08
1.09215502e-09
5.59495128e-10
4.1894894e-08
3.65649417e-08
1.21410993e-09
6.86387841e-10
4.098783e-08
3.46233125e-08
1.30318592e-09
9.8694829e-10
4.07734874e-08
4.8757522e-08
3.40152045e-08
1.23507319e-09
1.10826334e-09
3.94582564e-08
4.9080853e-08
3.73410384e-08
1.18405287e-09
1.19525451e-09
4.13258712e-08
4.00876176e-08
1.23734901e-09
1.28359595e-09
4.28848771e-08
3.55714333e-08
1.13379207e-09
3.5454388e-08
4.63160298e-08
1.05523086e-09
1.20319227e-09
4.09323367e-08
4.32855048e-08
8.95965515e-10
1.22901642e-09
4.0150424e-08
4.25648636e-08
7.98410713e-10
1.26338434e-09
4.00790125e-08
3.96853974e-08
8.25387916e-10
3.41441354e-08
4.67397966e-08
6.611215e-10
1.18110278e-09
3.88168565e-08
4.41211751e-08
5.94874212e-10
1.20070189e-09
3.85357207e-08
4.34014652e-08
5.66596505e-10
1.21325842e-09
3.82768165e-08
4.29078061e-08
5.42533792e-10
1.24249227e-09
3.95290322e-08
3.98202938e-08
6.20716754e-10
3.19351724e-08
4.77328995e-08
5.55618776e-10
1.14379291e-09
3.90049692e-08
4.5069506e-08
5.26065588e-10
1.18077125e-09
3.91006991e-08
4.45533539e-08
5.44267801e-10
1.19614173e-09
3.93441853e-08
4.47754409e-08
5.63681202e-10
1.20431297e-09
3.9611531e-08
4.48881459e-08
5.87129002e-10
1.20793247e-09
4.04870232e-08
4.54420691e-08
6.0672721e-10
1.20611211e-09
4.09128515e-08
4.57270277e-08
6.38600098e-10
1.20735494e-09
4.1019727e-08
4.55284433e-08
6.86920688e-10
1.2170612e-09
4.099213e-08
4.51177714e-08
7.49846095e-10
1.23401773e-09
4.06066262e-08
4.43133944e-08
8.34666436e-10
1.24375754e-09
3.98550135e-08
4.40570031e-08
9.85129073e-10
1.21178696e-09
3.10097547e-08
4.61528273e-08
4.5178616e-08
1.0925754e-08
1.24469683e-09
3.6383907e-08
4.32412028e-08
1.06119467e-09
1.3049814e-09
3.90786498e-08
4.17686938e-08
1.11761305e-09
1.32879732e-09
3.77637553e-08
3.9734458e-08
1.22399578e-09
1.30829477e-09
3.36556723e-08
4.14963376e-08
4.13557009e-08
4.23895993e-08
1.25897392e-09
1.22848026e-09
3.52051039e-08
4.67108921e-08
4.21246871e-08
1.20432954e-09
1.33567472e-09
4.0962494e-08
4.17082419e-08
1.2771341e-09
1.3249223e-09
4.12567908e-08
4.13674083e-08
1.32057469e-09