/*--------------------------------*- C++ -*----------------------------------*\
| =========                 |                                                 |
| \\      /  F ield         | OpenFOAM: The Open Source CFD Toolbox           |
|  \\    /   O peration     | Version:  2306                                  |
|   \\  /    A nd           | Website:  www.openfoam.com                      |
|    \\/     M anipulation  |                                                 |
\*---------------------------------------------------------------------------*/
FoamFile
{
    version     2.0;
    format      ascii;
    arch        "LSB;label=32;scalar=64";
    class       volScalarField;
    location    "4e-05";
    object      h;
}
// * * * * * * * * * * * * * * * * * * * * * * * * * * * * * * * * * * * * * //

dimensions      [0 2 -2 0 0 0 0];

internalField   nonuniform List<scalar> 
3816
(
2512.44311
2322.0348
2273.92066
2273.89828
2273.89461
2273.89461
2273.89461
2273.89461
2273.89461
2273.89461
2273.89461
2273.89461
2273.89461
2273.89461
2273.89461
2273.89461
2273.89461
2273.89461
2273.89461
2273.89461
2273.89461
2273.89461
2273.89461
2273.89461
2273.89461
2273.89461
2273.89461
2273.89461
2273.89461
2273.89461
2273.89461
2273.89461
2273.89461
2273.89461
2273.89461
2273.89461
2273.89461
2273.89461
2273.89461
2273.89461
2273.89461
2273.89461
2273.89461
2273.89461
2273.89461
2273.89461
2273.89461
2273.89461
2273.89461
2273.89461
2273.89461
2273.89461
2273.89461
2273.89461
2273.89461
2273.89461
2273.89461
2273.89461
2273.89461
2273.89461
2273.89461
2273.89461
2273.89461
2273.89461
2273.89461
2273.89461
2273.89461
2273.89461
2273.89461
2273.89461
2273.89461
2273.89461
2273.89461
2273.89461
2273.89461
2273.89461
2273.89461
2273.89461
2273.89461
2273.89461
2273.89461
2273.89461
2273.89461
2273.89461
2273.89461
2273.89461
2273.89461
2273.89461
2273.89461
2273.89463
2273.89469
2273.8949
2273.89561
2273.89784
2273.90434
2273.92204
2273.96689
2274.0733
2274.30875
2274.79804
2275.73668
2277.43064
2280.53089
2285.04367
2290.35487
2297.76425
2331.15089
2352.72362
2236.85781
2200.07505
2694.46856
2719.46989
525.769172
-2531.27855
-1281.80625
9165.70777
9614.62445
-168.23136
-5834.92962
-2672.55922
9529.17743
10669.4672
9764.38761
-2147.01663
-4459.26163
1360.84683
10159.178
9491.43962
-4779.19416
-6085.92132
-4777.80396
119.190758
10088.5482
10831.1372
10245.7465
-2207.31014
-3974.87509
-3283.88249
257.526824
10488.1735
10572.7426
-3074.46423
-4075.99772
10185.4528
10286.4577
-4337.95836
-4700.11657
10056.4166
10133.1962
-5014.67085
-4625.69188
9928.29221
10247.6609
-5577.70091
-2525.73045
9772.60816
-2825.52762
-4891.18938
10417.8199
9907.02322
-4030.05151
-4492.41912
-3667.25393
-1977.81852
10490.542
9905.35294
-2877.55615
-2281.11461
10509.7367
9772.90771
-3678.42669
-4755.97743
21.5670454
10268.5223
8969.80204
-3878.62922
-2658.23432
10217.8871
8365.96465
-4579.164
-3093.55603
10091.5957
7973.50931
-4999.76579
-3157.39908
10009.0045
7708.00607
-5213.35157
-2703.52436
9964.938
7771.25262
-5471.76303
913.511048
8037.20696
-3097.10394
-2181.58674
10296.5196
7606.43892
-4051.42351
-1963.63849
10122.2821
7379.09879
-4393.61533
-1926.82022
10064.281
7267.71844
-4506.34598
-1946.71129
10043.9964
7237.53616
-4546.2128
-1995.65139
10036.9158
7268.7059
-4583.42296
-2068.33359
10022.2997
7325.4454
-4709.82995
-2078.71922
9958.18115
7665.91782
-5669.56592
444.741626
8531.26481
-4837.74715
-4866.48437
-2396.65133
1191.2186
10492.0248
8637.71163
-3389.43667
850.099454
9747.45562
-254.060941
-4264.93082
-3082.1326
1938.49248
10393.0451
8974.97175
-3758.50793
-2630.78416
10256.1076
8876.56254
-4327.57456
-3169.16455
10166.2131
8699.2125
-4711.60319
-3438.85588
10114.351
8642.84616
-4965.10917
-3716.91691
10086.1309
8740.45299
-5154.76862
-4033.49225
10074.8467
8938.39658
-5265.47817
-4235.21562
10083.2616
9185.34574
-5271.49583
-3968.33901
9964.84632
9412.45843
-6447.43461
34.5239494
9388.62675
-3453.82066
-3554.23865
10395.8489
8957.41294
-4296.03159
-3326.66935
10239.8859
8690.39353
-4549.73476
-3094.30745
10191.6933
8471.39935
-4631.05937
-2972.24945
10156.3366
8266.0364
-4738.38379
-2914.18927
10110.5837
8114.16928
-4929.5788
-2666.55544
9972.66711
8072.15055
-6014.89024
530.240391
8352.1353
-4844.56055
-4859.4978
-2115.74291
1673.1242
10568.8094
8471.13157
-3080.20885
-1535.03932
10349.3541
8286.77112
-3937.73019
-2325.1378
10188.0476
8242.52841
-4653.41458
-2756.23549
9982.04727
8361.17459
-6251.70006
361.081099
8771.65291
-5065.35575
-5190.22654
-2295.4854
1102.91222
10595.5889
9307.98447
-3288.76184
-2576.11601
10367.0418
9309.94286
-4166.20603
-3502.42697
10215.9775
9345.90792
-4736.50264
-4123.35542
10102.9735
9401.76476
-5047.41575
-4512.6599
10021.7003
9463.55911
-5289.9436
-4573.16673
9828.3421
9778.908
-6811.17025
-104.287446
9432.86148
-3030.26916
-4420.20825
10171.4782
9850.216
-4401.41166
-4448.58787
9958.12471
10128.7819
-6072.63887
1086.91434
9740.11707
-2722.7699
-4217.13877
10242.975
10091.7701
-3872.69478
-4234.37463
10076.6429
10111.2456
-4261.48934
-4415.09868
10019.8269
10116.9896
-4425.81178
-4562.55169
9992.10709
10116.2916
-4536.12557
-4695.61091
9961.53858
10127.9992
-4778.45066
-4730.0486
9914.07418
10430.3161
-6026.86042
-2115.27788
9761.03828
-3478.07308
-5063.35756
-3186.99055
-1263.45329
10417.8837
10577.2876
-3423.65784
-3834.52998
10091.9094
10161.0513
-4336.92883
-5990.35461
-179.609552
10058.0466
10565.7616
-4015.03254
-4057.69939
10129.9019
10308.0489
-4155.1809
-4499.27746
10083.8931
10244.4668
-4473.02677
-4735.20566
10053.3768
10215.0631
-4691.69726
-4864.07661
10044.8377
10202.2774
-4799.60581
-4922.2714
10051.3993
10199.7783
-4839.09586
-4933.38824
10068.6028
10204.456
-4830.1103
-4907.18591
10096.6483
10214.0903
-4782.21414
-4857.61929
10133.7213
10226.7624
-4734.63097
-4776.41197
10152.6909
10278.2635
-4910.14737
-4321.24966
10071.1676
10590.375
-5701.68499
-1938.05128
10046.5039
-3023.33037
-4369.39053
-2908.72992
-1512.67074
10600.4584
10655.0855
-3158.69451
-3453.89304
10447.5931
10407.6388
-4142.50256
-4249.95626
10285.3389
10269.371
-4801.43962
-4830.75691
10251.0898
10042.7313
-4437.16501
-6188.34909
-2188.09682
10056.0977
10585.1701
-4599.10653
-4064.41508
10321.9796
10320.0369
-4127.22605
-4111.97608
-3581.46898
-2339.22084
10515.258
10611.6964
-3222.97555
-3344.94778
10440.4172
10369.2212
-4104.99315
-4129.34739
10264.0155
10200.2474
-4845.9075
-4819.93823
10231.8613
9928.34424
-4500.72796
-6362.06312
-3003.88565
10069.6524
10183.3918
-4184.86733
-5409.07942
-1540.58365
10102.0807
10262.183
-4796.75887
1499.37964
9933.22309
-2922.00647
-3481.07978
10488.0045
9527.27391
-3919.58899
-3327.60004
10297.3313
9183.67413
-4326.53751
-3335.34923
10218.4752
8869.02552
-4554.96848
-3289.67957
10164.7179
8571.52906
-4770.40441
-3179.58794
10108.8343
8321.6708
-5001.30094
-2777.75461
10034.446
8218.44147
-5555.36284
-840.477222
8593.47796
-4266.86469
-4376.70747
-2848.9238
-78.4698492
10441.4404
8202.48091
-3235.96651
-1243.07909
10297.8177
7901.77566
-3935.01371
-1899.73364
10152.296
7661.49917
-4454.0131
-2234.41554
10054.0204
7429.29336
-4787.94758
-2381.95842
9989.16517
7208.6184
-4988.43961
-2442.17829
9954.49771
7083.51114
-5087.0876
-2441.48234
9941.9623
7159.33539
-5142.33947
-2273.6685
9867.73394
7434.02893
-6425.12314
123.463334
8038.68101
-4431.31649
30.751128
8370.92138
-2975.59788
-2311.8969
10310.6376
8351.01387
-4087.56301
-2610.71732
10183.3752
8336.22148
-4405.72899
-2722.23142
10134.4806
8386.15284
-4653.44183
-2596.20231
9969.42066
8178.09279
-6362.97026
1010.44536
8736.00493
-3100.36963
-3201.96743
10306.3957
8464.61533
-4452.92317
-2857.67601
10120.4035
7544.86004
-4911.764
-2558.13096
10048.8566
7226.81971
-5088.60468
-2549.16211
9950.084
7158.12416
-5160.08871
-2705.83917
9847.86281
7202.58632
-5196.0902
-3074.21009
9788.13892
7706.97014
-5099.99823
-3747.90851
9790.09201
8866.49105
-4844.99295
-4319.93202
9770.82818
9482.69742
-4469.02349
-4459.86158
9704.02281
9794.51221
-4357.70872
-4555.06954
9774.85848
9953.93086
-4408.82852
-4610.2457
9870.91394
10057.9695
-4622.39158
-4516.61371
9924.74002
10400.1758
-5979.9768
-1160.09874
9855.18718
-2774.03698
-4333.38603
10269.8596
10084.0766
-4697.91018
-6224.3616
-1315.39636
9970.28819
10598.3698
-5074.54174
1801.75071
10217.3036
-3491.6098
-1898.40434
10028.2509
-2706.14414
-5076.49349
87.4581692
10318.4115
10232.484
-3660.76731
-3660.78484
10232.3695
9796.92858
-4372.36633
-4127.63557
10120.1902
9480.87516
-4782.69112
-4199.85831
10061.143
9193.48892
-4962.07891
-4085.93503
10047.7429
8903.67551
-5010.44672
-3851.68174
10043.8413
8612.42672
-5038.12375
-3587.14261
10037.5465
8321.58595
-5043.13584
-3347.54022
10029.0258
8044.82135
-5061.55569
-3123.61816
10015.6462
7785.89696
-5064.3533
-2904.37346
10001.9277
7551.28332
-5062.10731
-2719.76734
9991.56172
7350.60389
-5053.76663
-2561.63893
9988.20845
7197.55158
-5037.77336
-2423.81949
9982.10099
7100.50232
-4996.73918
-2328.6013
9972.14866
7036.74146
-4984.18939
-2265.63271
9959.12809
6978.25848
-4999.19797
-2200.56367
9941.04149
6867.36476
-5015.63461
-2084.70245
9924.54415
6695.10893
-4988.68598
-1905.50052
9919.2733
6525.37379
-4921.63561
-1681.60486
9931.79534
6419.16519
-4823.91031
-1485.06096
9954.07458
6379.40471
-4734.84678
-1365.24832
9975.09178
6400.14841
-4687.5065
-1352.67501
9988.80435
6475.31464
-4695.66977
-1486.65788
9997.49401
6668.2698
-4745.05997
-1797.85091
10001.7392
6999.14105
-4854.80044
-2270.4475
9994.75031
7439.23082
-5101.07189
-2879.13755
9898.9854
8402.13713
-6544.36641
-485.290289
8888.71842
-5314.41385
-5414.29605
-2717.95342
1209.08736
10398.0149
9441.99009
-4650.49691
-4688.65313
820.795767
10529.0486
9000.02185
-981.070041
9326.15442
9271.5179
-6408.49425
-3367.67388
9796.69535
9300.31712
-6954.17698
547.313421
9375.44871
-3757.41048
-3897.99109
10371.1483
9340.22954
-4405.78104
-3884.68172
10259.5685
9427.32975
-4663.06835
-3952.31445
10228.8799
9494.08676
-4760.88659
-4070.18586
10208.2382
9548.33302
-4913.57337
-4233.87935
10155.5895
9606.95168
-5336.36142
-4299.88703
9935.89877
9879.44033
-6880.35082
-1857.88154
9612.99659
-4487.43714
-5324.44097
-3005.80699
506.4166
10344.154
10192.0286
-5711.0284
-5343.27045
10152.8729
10250.8802
-3030.9512
-3024.04537
10388.7845
10340.6766
-4749.69967
-4546.38621
10042.3727
10201.4453
-5807.41862
3201.64016
10062.7386
-3261.40262
-4227.49742
10212.7347
10257.7044
-3811.41076
-4275.43127
10003.082
10210.9835
-4160.4016
-4516.94704
9841.62142
10169.3511
-4469.04738
-4637.27302
9643.4537
10396.0705
-5496.83742
-2579.81883
9686.5675
-3022.99707
-4881.06735
-3194.53275
-1183.77203
10354.1405
10603.7752
-2500.83853
-3331.12021
9864.84982
10383.1211
-3308.6614
-4019.89861
9721.8592
10282.2673
-3806.19549
-4429.85408
9666.28316
10230.5214
-4161.78189
-4673.98207
9668.53273
10231.5666
-4594.22008
-4658.86345
9732.00332
10498.2406
-5657.60719
-2748.28432
9829.8338
-3375.76704
-4739.39873
-3246.12893
-1547.94081
10473.2645
10646.9144
-3130.29429
-3447.47842
10401.765
10368.1035
-3988.52634
-4055.80665
10303.126
10077.0684
-4508.68815
-4341.44533
10224.1962
9821.43726
-4824.43047
-4386.73743
10177.7563
9622.1235
-5130.62399
-3854.03416
10069.6992
9663.75927
-5760.72131
-118.771612
9341.28094
-3465.38937
-3373.12343
10410.6916
9082.4123
-4220.06358
-2800.73335
10199.2825
8935.49845
-5279.53109
-397.463619
8950.58267
-4139.13582
-4245.41844
-2680.46458
905.72554
10521.1157
8587.03262
-3252.01156
-1233.36872
10284.3609
8173.0293
-4645.27142
1306.25445
8471.14695
-4292.00373
-4238.90519
-2506.15176
1254.52267
10466.0594
8081.57438
-3169.42424
-1239.97154
10261.385
7735.86185
-4063.85468
-1944.02042
10085.6863
7411.12198
-4657.74927
-2340.74184
9996.19879
7298.33344
-4995.38849
-2661.61272
9963.05322
7506.83084
-5221.91675
-2779.1786
9890.42891
8098.03386
-6507.14406
132.100712
8507.13795
-3238.15252
-3120.51333
10224.0728
8994.65461
-5615.62217
563.323627
9094.16504
-2982.17409
-3360.54826
10395.8145
9416.24625
-4124.16932
-3734.23805
10227.9754
9554.82474
-4575.23456
-4159.46951
10151.2007
9666.07267
-4827.54561
-4491.45523
10090.706
9748.5268
-4978.41277
-4747.82911
10050.6897
9815.02533
-5077.46358
-4945.97675
10040.3482
9861.72286
-5134.23129
-5022.82082
10036.8358
9892.7407
-5220.34546
-4720.54205
9985.09502
10123.3833
-6263.7316
-1628.66212
9651.56901
-3031.65357
-4130.69254
10217.361
9962.02462
-5068.59788
-255.753274
9751.33269
-2870.94188
-3282.29227
10276.9341
9738.91825
-4671.9121
-5433.6216
-506.671471
10190.8145
9354.49987
-3831.34587
-2760.19189
10263.0901
8892.53012
-4198.43553
-2826.15562
10154.9292
8674.08937
-5332.32688
-528.696165
8774.69647
-4490.50034
-4577.04446
-2774.18982
481.248161
10493.2997
8493.48369
-3128.50158
-1478.40932
10335.543
8113.163
-3893.50501
-2062.38238
10182.3915
7894.17536
-4412.813
-2387.6291
10089.0978
7711.79861
-4711.11256
-2505.29726
10032.12
7517.81802
-4856.27878
-2494.9159
10001.3507
7366.50817
-4913.67543
-2450.32903
9989.29431
7284.82178
-4927.36753
-2440.62781
9984.82185
7260.21383
-4969.12188
-2497.67895
9958.94712
7210.93053
-5218.25411
-2567.59285
9804.75726
7151.85446
-6953.12647
202.884336
7785.87503
-3584.24274
-3155.99153
10214.2418
8115.32222
-4472.89326
-2956.04107
10159.0278
8450.45868
-4494.42802
-3009.7658
10175.8061
8699.84534
-4530.36798
-3201.68004
10175.9378
8851.96202
-4670.06601
-3478.64585
10163.1162
8972.4185
-4830.83272
-3769.66783
10145.5552
9079.55827
-5006.33448
-4059.737
10127.8997
9187.0228
-5152.16644
-4315.13327
10112.4479
9313.92797
-5311.49057
-4322.27647
9990.23246
9662.33626
-6449.7571
-1852.89962
9548.27357
-4783.98892
-5247.67276
-2865.70023
-1632.01037
10738.4511
9902.12342
-885.295599
9731.29639
10266.8039
-5736.88869
-4224.59562
10087.8563
10070.8981
-4729.65596
-4605.4626
10190.3166
10078.4872
-4571.80197
-4650.12275
10137.6797
10113.3032
-4538.31337
-4657.57301
10097.9584
10169.1136
-4491.75164
-4417.51581
10056.3888
10491.3816
-5117.61199
-1004.05634
9948.15569
-3049.03432
-4788.51429
10023.7161
10127.2755
-4733.64401
-5176.64793
9833.77664
10084.5137
-4609.61449
-5134.88426
-3740.67993
-1969.81736
10320.2821
10624.2956
-3161.25091
-3371.3246
9923.33832
10654.1727
-4654.7216
-1280.30962
9957.84586
-2621.71972
-4532.53868
-3314.08781
-2058.55333
10356.6522
10659.9151
-2799.18132
-3388.06128
10147.0613
5478.60457
-3989.23264
9595.63024
10331.09
-4618.49627
-4660.88791
9906.22502
10259.1799
-3926.12895
-4508.52797
9930.87347
10257.3447
-4251.91086
-4724.8353
9869.815
10234.3072
-4704.54141
-4728.41035
9755.9608
10413.5758
-5445.8425
-3490.10613
9889.46935
-2997.24912
-4774.45432
-3419.63241
-404.600743
10463.8552
10555.926
-2821.292
-4481.74332
65.1430707
10289.4072
10592.0029
-3611.43133
-3794.5386
10227.7928
10226.9631
-4232.45699
-4374.73589
10168.4743
9985.38397
-4698.28934
-4555.60342
10119.0619
9748.73644
-4970.72855
-4546.54369
10121.6967
9490.66747
-5063.83542
-4390.84299
10132.0927
9220.14939
-5087.53992
-4143.06113
10141.5896
8932.57076
-5101.98723
-3892.41793
10139.7516
8635.05193
-5116.43117
-3637.55585
10113.9005
8355.92153
-5129.3211
-3422.54631
10086.2543
8121.99263
-5134.88405
-3237.18978
10061.5745
7921.25082
-5118.49987
-3056.73377
10038.9129
7724.97587
-5098.94495
-2870.54432
10017.732
7529.04433
-5070.41545
-2678.76179
9999.7144
7338.76782
-5037.38653
-2495.72557
9983.9939
7165.41201
-5018.04031
-2354.38735
9970.202
7032.34876
-5020.9001
-2286.07401
9962.44613
6982.20375
-5029.49029
-2297.77901
9968.66798
7077.16289
-5018.08558
-2412.3904
9986.26441
7300.66901
-5024.94674
-2671.23851
10007.9601
7634.21999
-5064.11466
-3040.06686
10029.7368
8067.2892
-5128.01642
-3463.88004
10049.9156
8481.18284
-5187.7473
-3892.98994
10072.819
8954.40795
-5194.22207
-4001.21637
10068.113
9502.28881
-5486.52757
-566.03484
9635.38276
-4034.49713
-5380.27947
10007.0922
9493.44218
-5048.98147
-4519.01517
10155.9439
9964.06187
-4385.66702
-1087.44153
10010.566
474.187886
-5017.69807
6340.79294
9997.67625
-3329.97626
-5421.60656
9549.33505
9923.23398
-5435.95445
-5695.91687
9799.16038
9897.33327
-4867.33453
-5011.98079
9963.08093
10028.1704
-4376.5473
-4725.02165
9956.22886
10041.6915
-4847.44509
-5047.48128
9919.83547
9927.19693
-5218.72222
-5128.53282
9983.96515
10168.9414
-5448.74862
-1041.16805
9825.79063
-2838.22816
-4160.11936
10341.07
9807.28846
-4282.42578
-4045.11217
10196.5506
9539.05325
-4707.2607
-4030.75001
10157.031
9251.7388
-4917.84968
-3979.64878
10125.3483
8955.51564
-5072.39796
-3908.78257
10089.7503
8673.99031
-5195.59882
-3846.23345
10058.7206
8429.94314
-5265.55031
-3758.1579
10033.7413
8264.5868
-5368.44513
-3295.3143
9952.26091
8296.78817
-6203.61552
-222.1245
8202.98198
-3496.13523
-2730.43195
10188.656
8227.03553
-5330.31219
175.482161
8332.7584
-3291.21876
1049.04426
8595.54664
-2474.18031
-1641.6525
10413.7366
8246.92578
-3770.74185
-2233.91851
10190.4968
8038.47235
-4521.69405
-2688.44118
10065.7375
8012.8064
-4936.24322
279.382853
9323.63371
-1037.33098
-5110.07003
-4549.78795
-3298.37371
9047.34349
9675.82066
-2669.31003
-3264.51967
9813.46811
8914.99591
-3498.0511
-1623.88147
10209.9579
7115.48478
-4348.59352
-684.070095
10022.307
5166.30595
-4435.91132
436.148252
10006.765
4696.73711
-4580.40971
87.3595968
10015.4217
5366.83244
-4791.07846
-2003.28165
10075.7646
8487.72706
-5050.01525
-3657.10161
10108.364
8823.83956
-5148.58712
-3966.53983
10127.8838
8979.29982
-5154.73068
-3934.46664
10134.5832
9074.28425
-5151.17751
-4004.96964
10138.9765
9114.22129
-5120.91788
-4068.8558
10136.3691
9025.93233
-5102.40149
-3540.80917
10060.8164
7742.07855
-5144.47897
-1384.77561
9926.20391
3877.70585
-5115.85332
1959.10327
9865.4367
1125.89877
-5018.34539
4538.65886
9842.02771
-958.4623
-4910.98775
6534.09643
9880.83429
-2693.68535
-4753.74092
8735.46129
10000.2981
-3138.04491
-3462.55987
6683.55273
2740.12198
-4087.62907
5478.40869
10266.8621
-1869.48925
-4110.5558
8855.20425
10243.1588
-2772.96577
-4225.25245
8496.64048
10268.7385
-2853.14202
-3526.4748
8384.48022
4765.80752
-4907.8362
-4894.14292
-1973.49986
6635.35676
10460.3151
3662.12983
-4324.98239
5233.80163
9482.61747
-3761.98371
-5747.0834
-2414.4712
6391.37808
10397.7702
4079.67718
-3611.21847
1507.32428
9909.89983
3356.91366
-4503.08151
3024.31941
9544.91113
37.406782
-6635.41599
-4061.12229
8247.027
10081.8044
2067.978
-4080.13758
2756.52652
9946.15179
3030.14025
-4215.97202
2501.04769
9887.90967
2643.50942
-4481.75284
2356.98022
9831.87956
2666.90191
-4694.02298
1909.80454
9782.09046
3053.45147
-4838.14637
1161.10284
9749.08724
3829.53346
-4939.03291
187.698703
9768.51728
4880.57312
-5000.33507
-692.212071
9789.75014
5636.85263
-5162.34314
-1215.65747
9698.33584
5957.54411
-6271.53686
2726.23505
6953.4817
-3231.19085
-1659.03759
10187.6009
7034.33679
-4270.51733
-1889.99683
10084.2849
7210.595
-4714.33057
-2269.2475
10053.8687
7405.43962
-4952.23821
-2601.69806
10045.8742
7564.15946
-5084.98872
-2829.78353
10041.2839
7649.45563
-5165.77558
-2949.76538
10031.1449
7654.48149
-5238.87633
-2976.65501
9996.04155
7593.14594
-5427.65567
-2696.30546
9901.81398
7614.74673
-6197.00594
1255.93536
7799.33988
-3501.87295
-2318.27245
10225.4856
7530.53101
-4313.40339
-2217.73371
10077.0927
7320.88612
-4729.54752
-2304.87627
9997.54459
7156.87308
-4989.76161
-2453.92072
9946.87014
7069.77384
-5195.90096
-2688.64173
9919.60293
7161.55024
-5336.81454
-2735.55387
9906.63345
7614.16709
-5860.64479
2536.0296
8093.48236
-3184.88861
-2459.0877
10301.8203
8192.33743
-4117.72559
-2599.1042
10190.0317
8312.04898
-4470.47466
-2869.28106
10153.9206
8441.24263
-4661.31753
-3158.22142
10135.4257
8566.23852
-4838.24616
-3447.67007
10100.2787
8684.83537
-5189.78125
-3564.26485
9931.93252
8902.67115
-6781.31223
-820.867431
9056.33338
-5310.2811
-5518.80357
-2979.50791
256.163127
10453.4938
9568.40323
-4036.01869
-3005.44633
10099.6801
9514.7241
-6227.10525
1206.74754
9368.84656
-3972.83287
1998.88119
9764.02451
-2735.00097
-2910.79067
10525.0663
9707.56326
-3706.55073
-3338.95614
10365.149
9655.03505
-4228.26137
-3679.4753
10289.7601
9637.97101
-4492.48662
-3897.09598
10252.7703
9652.18622
-4644.28102
-4072.80732
10225.9641
9683.62189
-4806.49055
-4261.07045
10173.5351
9725.6218
-5174.55057
-4258.32086
9958.68659
9994.72412
-6636.62976
-1416.11773
9598.71998
-4635.71855
-5300.1021
-3262.82723
-320.260249
10318.8953
10248.4774
-4615.22489
-5151.27203
2649.76665
10245.9132
10212.3037
-3761.48304
-3905.30028
10176.5932
10131.766
-3979.33889
-4219.68607
10054.422
10101.7073
-4303.4512
-4477.0681
10000.359
10102.0131
-4516.04107
-4619.64257
9992.06724
10113.4286
-4603.89544
-4680.50473
10010.3609
10130.4367
-4640.049
-4706.53551
10030.0578
10143.2936
-4711.58985
-4780.0547
10040.8774
10135.8219
-4865.32788
-4956.50624
10034.2757
10105.4476
-5135.67054
-5222.44311
9993.89846
10100.4178
-5710.40418
-5176.53812
9845.06747
10339.4508
-7054.36346
-3578.13247
9779.64709
-4796.64247
-5657.55725
-4285.5313
1731.33036
10228.1653
10625.4392
10152.1792
-4011.74046
-4880.00398
10330.411
10194.1124
-4549.72435
-4716.0652
10264.5346
10170.9404
-4779.81971
-4743.65897
10229.5434
10128.1734
-4927.98495
-4813.0652
10201.8377
10077.674
-5051.70045
-4904.91644
10182.5127
10026.8011
-5119.57925
-4977.19046
10168.4187
9971.75926
-5199.91589
-4983.40263
10162.2364
9957.1337
-5186.44216
-4961.74358
10167.0519
9952.4125
-5143.2942
-4947.32318
10166.9085
9942.15419
-5163.92915
-4967.07282
10158.8012
9921.85839
-5204.06266
-4997.11408
10144.0106
9882.89594
-5279.86625
-5071.20517
10126.5699
9813.94886
-5354.10197
-5123.26601
10126.1926
9739.80567
-5248.66585
-5005.77387
10126.5323
9676.68722
-5317.82592
-4462.28499
10071.1981
9856.893
-5531.7637
-1786.69248
9708.04782
-3038.67507
-4042.03618
10456.2202
9361.85804
-4341.94082
-3706.61233
10216.3457
9080.86786
-4758.14644
-3740.9101
10136.9739
8805.90868
-4941.29237
-3720.23625
10084.3208
8555.26164
-5035.84112
-3624.55302
10031.8367
8368.99217
-5145.22707
-3170.27812
9956.43811
8383.59802
-5603.94748
-912.733905
8342.47575
-3537.12246
-3082.58876
10198.3877
8113.61958
-4516.14301
-3004.82307
10039.954
8055.80065
-4935.13058
-2893.6033
9964.94361
8219.07357
-5791.45646
-161.0598
8268.2944
-3571.80193
-3081.27211
10239.466
8317.22034
-4639.97415
-2934.00857
10070.7472
8528.82573
-5875.97732
1057.78942
8577.37813
-3193.70344
-3079.49737
10375.2978
8730.3502
-4242.14196
-3227.45725
10228.3805
8817.95832
-4674.82387
-3499.64447
10159.3037
8851.6489
-4881.34429
-3620.43697
10112.2556
8679.09868
-5012.26174
-3519.19351
10064.9853
8281.79602
-5206.06304
-3293.94459
9962.3707
7732.99477
-6392.19258
2420.24368
8941.77118
-3186.61833
-3247.75245
10307.0398
8420.02369
-4320.32258
-2922.20689
10043.4631
8327.50767
-5831.73103
65.6339219
9089.5595
-4478.99407
-5126.0393
-2431.33665
537.3653
10562.967
9283.1817
-2973.32138
-2182.07401
10386.1635
8927.32417
-3878.92959
-2695.42713
10230.9244
8599.92864
-4395.55621
-2905.03551
10146.9583
8386.98362
-4682.9264
-3045.47604
10100.8969
8271.55335
-4877.02069
-3149.83894
10074.5652
8263.35981
-5024.33538
-3005.17233
9977.71247
8383.70096
-6112.869
712.400748
8484.44435
-3059.92128
-2857.43002
10305.6922
8704.04636
-4973.43836
-25.5034413
9063.02538
-4495.84985
-4544.34345
-2331.29739
1368.79444
10652.141
9323.29999
-3007.08672
-2102.23307
10343.4451
9351.5286
-5019.62353
963.309
9352.80887
-3257.59018
-3275.12693
10370.7101
9536.6349
-4738.22217
-4739.03831
-3145.88112
-356.123992
10560.2417
10086.4377
-3301.92075
-2888.74783
10447.198
10020.3638
-4003.43624
-3703.68076
10304.1691
10040.7693
-4751.17809
-3983.60805
10128.1546
10311.3047
-5898.01027
-2177.96695
9906.25996
-3545.08911
-4599.83957
-3115.13607
-1646.19637
10554.7187
10557.0899
-3071.4357
-3325.42015
10385.7678
10342.8602
-3883.92261
-4111.74186
10242.9442
10212.7955
-4461.15467
-4507.35427
10169.7869
10079.7082
-4802.33859
-4708.60569
10153.6176
9967.08389
-4990.43301
-4806.75472
10159.7204
9861.76874
-5026.0137
-4788.18115
10141.1913
9787.71171
-5072.85499
-4757.09055
10104.6149
9712.41244
-5121.52449
-4769.97922
10060.7073
9644.57942
-5161.00435
-4844.83826
10011.1161
9571.08689
-5169.84485
-4915.97251
9962.59354
9567.86207
-4976.94915
-4572.51033
9840.31127
9784.09542
-5187.89034
-2519.08119
9662.58358
-2006.16961
-4557.21581
10164.2482
9842.44873
-4125.23889
-4168.69672
9954.36077
9820.89063
-4359.83625
-4388.74729
9875.2809
9787.339
-4481.38187
-4575.6513
9772.23352
9771.46809
-4544.79062
-4463.18598
9633.49429
10014.8812
-4724.60745
-2925.14756
9526.12302
-1725.29833
-6143.12397
-396.049897
10095.5651
10335.2575
-1970.78387
-4885.8299
-2512.84649
9917.31949
10402.3199
-3112.72595
-3928.77158
9301.53371
10371.1536
-4255.871
-2439.99598
9467.5231
-1712.14736
-4564.55975
9263.19561
10006.7456
-3460.00321
-4515.1951
9127.95408
9946.33249
-3616.15857
-4436.3776
9191.19595
9858.5569
-3848.78838
-4412.78421
9311.06763
9745.23364
-4244.6452
-4273.18047
9529.54609
9719.5451
-5901.51447
-662.382671
9094.30096
-2852.18092
-3509.51495
9945.5331
9172.62108
-5503.45532
-6224.65333
342.878393
9979.49388
8887.27861
-5178.2562
-5490.62831
1220.73893
10147.6077
8328.51153
-4025.5733
-1278.32977
10129.6179
7134.26669
-4179.30129
-1040.01694
10018.312
6341.8129
-4407.50818
-818.135912
9916.37774
5829.28995
-4586.02125
-701.316821
9851.78423
5622.42624
-4676.14504
-658.904258
9831.90259
5686.53956
-4710.11306
-468.108041
9735.18193
5550.76218
-5766.10547
2002.23787
6543.25739
-3111.82326
-1094.12756
10128.2625
6571.62811
-4011.0928
-1176.23236
10073.7624
6912.92773
-4166.75056
-1366.47059
10083.8027
7286.76468
-4326.62071
-1440.03731
9991.32806
7508.30612
-5578.40482
1121.38809
8103.43127
-4752.3471
-4770.17204
-2442.00076
1483.01627
10451.2116
8329.95895
-3585.32968
-1552.7839
10144.2533
8363.36927
-5614.95636
-5595.23651
2165.5226
10015.0458
8562.47786
-4910.39731
784.421959
9381.43083
-1306.7936
-5301.68568
1450.32136
10162.5483
9102.95745
-4639.34932
-4627.40749
2169.16739
10155.8317
8952.76506
-5171.50172
1931.82091
8987.50973
-3503.15586
-3503.74964
10215.1445
8675.88217
-5308.39418
-4046.24938
10080.3039
8781.20314
-5067.04924
-3699.50404
10167.0862
8950.23969
-4611.20306
-3546.4944
10202.0391
8991.4589
-4734.75927
-3679.63327
10176.901
9006.7675
-4858.44423
-3759.46469
10169.6717
9036.45249
-4840.66148
-3747.35459
10178.9738
9058.12112
-4800.48474
-3739.07039
10177.3392
9043.74099
-4858.52149
-3767.49662
10169.2842
9013.85364
-4877.13398
-3727.52
10161.0061
8991.59045
-4939.84137
-3449.66485
10051.7915
9068.07839
-5943.94318
-446.969284
9106.4566
-5332.27655
-5409.49953
3822.29868
10116.1233
9040.59203
-5285.1114
-5266.557
1294.82421
10222.9375
9098.77433
-4001.67531
-2204.79613
10214.7042
8799.61786
-4988.89413
-4991.45938
-2910.8094
381.462769
10504.8078
9011.92587
-3459.4769
-2175.93356
10373.5449
8857.42246
-3888.0736
-2543.3214
10310.8775
8851.04151
-4125.34492
-2597.25501
10196.3899
8947.67297
-5148.54321
1211.08066
9174.40882
-4546.50933
-4573.41782
-2477.12758
1146.56924
10583.8557
9304.09481
-3436.81781
-2628.37065
10364.8093
9184.81605
-4204.83318
-3262.12858
10234.7604
9179.65576
-4835.86728
-3458.31661
10011.669
9368.22182
-6434.44353
-6590.50312
158.099125
10029.2077
9742.0789
-4742.9797
-2969.80026
10180.4889
9807.04364
-4833.26307
151.496129
9884.7189
-1774.52454
-4412.16521
-3165.94804
641.732267
10408.142
9989.97805
-4386.97007
-3333.50719
10199.7458
8416.07826
-4890.71528
850.359332
9995.32367
-2300.26486
-4690.66715
9869.78477
9978.70556
-4900.14536
-4421.04598
10166.7479
9995.7773
-5286.74877
-3718.97681
8571.97479
3135.96965
-5459.69021
4306.74284
10171.9987
-2756.51469
-4148.94119
10181.2406
10112.4805
-4592.42278
-4462.70666
10071.1678
10112.57
-4650.4573
-4653.59615
9893.00473
10144.3025
-3022.15213
-4803.94369
5644.24353
10250.8859
1732.22867
-4799.78169
-1021.00893
10225.7643
9108.47671
-4814.27506
-4404.831
10178.2652
10019.9699
-4795.9517
-4758.23658
10138.5087
9983.29658
-4898.32201
-4901.65414
10206.3615
9542.25157
-4027.55906
-1143.59041
2069.0974
-2341.28812
-3384.082
-3397.63493
581.431832
10478.0319
10441.4996
-2807.21447
-3724.82447
10109.21
10236.7877
-3773.91613
-4223.93447
9935.4889
10114.2593
-4214.30088
-4574.84073
9828.41396
10092.2661
-4346.73257
-4791.3305
9679.12096
10115.7155
-5542.87414
-480.486234
9605.03739
-1949.44846
-5135.04399
9764.22545
10081.1615
-4096.15615
-4871.02747
9559.71759
10121.2692
-4203.67168
-4812.06326
9543.73569
10129.152
-4149.69629
-4731.84995
9656.00538
9916.59198
-2942.58276
-5981.48772
-2324.44327
9872.33443
10321.5266
-3742.58741
-4676.40071
9598.66367
9960.98611
-4565.43984
-5082.99518
9597.74128
9801.3944
-4744.20179
-4899.04441
9601.19295
9981.74285
-5972.8553
-1218.85898
9487.35902
-2442.02621
-4376.55219
10167.0052
9782.24236
-4115.73183
-4107.00308
10224.8613
9527.55958
-4666.57415
-3661.58053
10188.4686
8699.25147
-4826.31127
-2534.94418
10090.1871
6550.72265
-4940.52586
-672.623775
9992.67148
4428.66154
-5006.90348
1128.76371
9864.61499
2621.41843
-5056.14725
2931.17879
9579.01711
308.318532
-6079.4399
-4200.04628
5640.17205
9755.74747
840.642012
-4201.89006
4964.69125
9675.32629
253.244245
-4046.27847
5296.33101
9528.28116
-417.191096
-4109.24647
5605.78676
9379.4515
-767.962283
-4155.45634
5668.3264
9266.3859
-806.325131
-4177.49985
5481.87724
9200.82872
-567.54054
-4203.73572
5051.68068
9192.64309
-60.5924523
-4257.66771
4355.35962
9254.90737
768.677431
-4335.45401
3325.58572
9409.01397
2095.33911
-4403.91204
1614.31809
9703.25462
4712.88276
-4756.52297
2843.99527
6568.85133
-3550.44867
-1913.10234
9867.08199
6555.42069
-4948.36782
-1981.18538
10004.9094
7504.26436
-4929.39855
-2982.45947
10066.992
8112.59435
-5122.24617
-3409.32458
10047.4813
8868.55841
-5630.15285
-1229.7042
9424.92115
-3314.07544
-5428.26705
10211.4998
9403.66115
-4798.22286
-4065.65807
10254.6498
9822.54434
-4635.43168
-4508.69525
10098.3158
9846.14806
-5320.58559
-5234.30244
9969.83931
10218.7723
-5822.55912
-490.328535
9866.87541
-2525.32475
-4451.14918
10210.453
10186.4062
-4170.7754
-4662.80316
9921.70185
10159.34
-4696.50399
-4975.77381
9799.0831
10117.6986
-4972.72372
-5355.12057
9681.01317
9997.0574
-5629.89971
-6044.86361