/*--------------------------------*- C++ -*----------------------------------*\
| =========                 |                                                 |
| \\      /  F ield         | OpenFOAM: The Open Source CFD Toolbox           |
|  \\    /   O peration     | Version:  2306                                  |
|   \\  /    A nd           | Website:  www.openfoam.com                      |
|    \\/     M anipulation  |                                                 |
\*---------------------------------------------------------------------------*/
FoamFile
{
    version     2.0;
    format      ascii;
    arch        "LSB;label=32;scalar=64";
    class       volScalarField;
    location    "4e-05";
    object      prefDh_H2O;
}
// * * * * * * * * * * * * * * * * * * * * * * * * * * * * * * * * * * * * * //

dimensions      [1 1 -3 0 0 0 0];

internalField   nonuniform List<scalar> 
3816
(
89.8204631
89.8182323
89.8195739
89.8195747
89.8195748
89.8195748
89.8195748
89.8195748
89.8195748
89.8195748
89.8195748
89.8195748
89.8195748
89.8195748
89.8195748
89.8195748
89.8195748
89.8195748
89.8195748
89.8195748
89.8195748
89.8195748
89.8195748
89.8195748
89.8195748
89.8195748
89.8195748
89.8195748
89.8195748
89.8195748
89.8195748
89.8195748
89.8195748
89.8195748
89.8195748
89.8195748
89.8195748
89.8195748
89.8195748
89.8195748
89.8195748
89.8195748
89.8195748
89.8195748
89.8195748
89.8195748
89.8195748
89.8195748
89.8195748
89.8195748
89.8195748
89.8195748
89.8195748
89.8195748
89.8195748
89.8195748
89.8195748
89.8195748
89.8195748
89.8195748
89.8195748
89.8195748
89.8195748
89.8195748
89.8195748
89.8195748
89.8195748
89.8195748
89.8195748
89.8195748
89.8195748
89.8195748
89.8195748
89.8195748
89.8195748
89.8195748
89.8195748
89.8195748
89.8195748
89.8195748
89.8195748
89.8195748
89.8195748
89.8195748
89.8195748
89.8195748
89.8195748
89.8195748
89.8195748
89.8195748
89.8195748
89.8195748
89.8195748
89.8195747
89.8195745
89.8195741
89.8195731
89.8195705
89.819565
89.8195538
89.8195284
89.8194807
89.8194705
89.8194123
89.8182736
89.8181805
89.8270017
89.8315712
89.7741644
89.7512035
89.9630568
89.9450466
89.1119224
88.2472915
88.5314503
92.5592729
92.4955171
88.8952849
87.7454129
88.1360736
92.5492599
92.1446304
92.4157432
88.2812284
87.9605079
89.4126325
92.3854957
92.408556
87.8829753
87.6621852
87.8910947
88.9603551
92.3585211
92.1591567
92.3013889
88.2688309
87.9882491
88.1010064
89.0221189
92.2493202
92.1797807
88.140254
87.9578566
92.310213
92.2678992
87.9468366
87.8653788
92.3485605
92.3243599
87.8413943
87.8762469
92.3746952
92.3216492
87.7453221
88.2047078
92.4133401
88.1664942
87.8467291
92.232786
92.4224723
87.9860541
87.9198474
88.0494122
88.3344937
92.2423465
92.4837588
88.1603366
88.2613545
92.2058471
92.5020509
88.0282585
87.8985258
88.9348895
92.3282816
92.7634109
88.0245717
88.2060867
92.3282864
92.9588678
87.9092146
88.1598444
92.3601273
93.061414
87.8417685
88.1626705
92.3802325
92.9601079
87.8075773
88.2410458
92.4005972
92.9612579
87.7970098
89.2059042
93.0683315
88.1475055
88.3348004
92.3094627
92.9135157
87.9899389
88.3783282
92.3482622
92.7374595
87.9387931
88.3819657
92.366771
92.6841833
87.9234129
88.3780306
92.3730957
92.684189
87.9179219
88.3712251
92.3739286
92.7284106
87.911702
88.3613082
92.3761712
92.7780837
87.8946125
88.3671411
92.410429
93.1140069
87.7666763
89.0442946
92.8255962
87.8977726
87.9120351
88.2642825
89.2850647
92.2617613
92.7354593
88.1028011
89.1937446
92.4616872
88.8444029
87.9784754
88.1231411
89.5662109
92.2635189
92.618968
88.0359505
88.2678519
92.3041555
92.6758729
87.9460701
88.202478
92.3287046
92.7559412
87.8865295
88.168439
92.3465029
92.788824
87.8479009
88.1244768
92.3561282
92.7553672
87.8179558
88.0662943
92.359906
92.6830805
87.8017551
88.0145728
92.3665597
92.6015505
87.8111777
88.0228433
92.4167
92.5363918
87.6271661
88.9301171
92.5452596
88.1010229
88.0861738
92.2861292
92.7395218
87.9502132
88.1338074
92.31337
92.8432086
87.9087529
88.177752
92.3275159
92.9252986
87.8974291
88.2011186
92.3402175
92.9916619
87.8829859
88.2111029
92.3584678
93.0305467
87.8590016
88.2451499
92.4082404
93.0382128
87.7065784
89.0783571
92.9384338
87.8882732
87.9032129
88.307753
89.4509796
92.2550852
92.8966976
88.1468099
88.4735774
92.2890699
92.9392614
88.0073141
88.3184316
92.3285525
92.9346705
87.901033
88.2486482
92.4038569
92.8634334
87.6685073
89.0218004
92.7323713
87.8547296
87.8544996
88.2826797
89.2568501
92.2433942
92.5480737
88.1131815
88.2683057
92.2774014
92.545106
87.9671748
88.1261179
92.3115417
92.529615
87.8760367
88.0260277
92.3480279
92.5114272
87.8306075
87.9572375
92.3863195
92.4884257
87.8037607
87.9277
92.4626738
92.3663296
87.5661626
88.8853633
92.5034036
88.158457
87.953803
92.3806437
92.3865004
87.9500249
87.930053
92.4285363
92.2831381
87.6784905
89.287716
92.4265416
88.203507
87.9804045
92.3465621
92.3445892
88.0263901
87.9721706
92.3776099
92.3384204
87.9617043
87.9409295
92.3872726
92.3378865
87.9355416
87.9149271
92.3959217
92.3352035
87.9213574
87.8878593
92.4118228
92.3213498
87.8871826
87.8717176
92.4181231
92.2361509
87.6815496
88.2971296
92.4117068
88.0803284
87.828621
88.1456605
88.5369024
92.3054634
92.1964345
88.0984698
88.0108824
92.3509361
92.3274112
87.9212199
87.6952221
88.8784618
92.3962978
92.1750198
88.015602
87.9589138
92.3718208
92.2597605
87.9818813
87.9015261
92.364502
92.2892814
87.924669
87.869841
92.3640487
92.3042224
87.8873524
87.8523111
92.3634228
92.3116315
87.8689727
87.8443874
92.3606608
92.3139309
87.8614938
87.8426661
92.3556872
92.3122972
87.8617318
87.8457273
92.3487878
92.3071752
87.8690638
87.8508991
92.3419281
92.2974984
87.8784878
87.858271
92.3411323
92.2748535
87.8518716
87.9252551
92.3483775
92.2044623
87.7176089
88.3441393
92.317599
88.1425568
87.9189554
88.1717216
88.4633938
92.2338386
92.1717158
88.1311503
88.0572551
92.2566776
92.2406816
87.9668844
87.9417828
92.2814938
92.2977221
87.8509893
87.8668426
92.2645695
92.3826204
87.8900908
87.6693117
88.2666673
92.3822429
92.1836453
87.9190395
87.9555795
92.3135328
92.2555484
87.9885156
87.9557289
88.0796981
88.2283258
92.2605041
92.1933956
88.1249003
88.0791537
92.2609763
92.2648954
87.9745833
87.9634052
92.2877716
92.3245287
87.8473636
87.8644421
92.2786807
92.4050746
87.8957707
87.6252781
88.1313927
92.3301748
92.3374356
87.9475833
87.7751101
88.4554876
92.3273879
92.3468898
87.860463
89.4455974
92.4021758
88.1591344
88.0717559
92.2328375
92.5844528
88.000712
88.1047259
92.2885487
92.7012892
87.941174
88.1084062
92.3152984
92.805832
87.9080935
88.1212065
92.3347793
92.9053253
87.8756955
88.1461102
92.3514832
92.9918292
87.8387674
88.2203755
92.3736935
93.035745
87.7662259
88.6600863
92.8640782
87.9779676
87.958481
88.1936217
88.8874574
92.2862053
93.0187325
88.1240729
88.5532116
92.3101608
93.0587933
88.0104873
88.3887151
92.3403465
92.9844151
87.9271286
88.3365956
92.3639884
92.8576309
87.8749846
88.3089565
92.382329
92.7153332
87.8449794
88.2942119
92.3938061
92.634031
87.8313984
88.2937738
92.4016332
92.6756029
87.8318495
88.3287053
92.4568703
92.9125018
87.6604131
88.9432456
92.9714623
87.9904366
88.9205599
92.9022337
88.172583
88.3436421
92.3030129
92.896712
87.9902652
88.2961664
92.3349979
92.903263
87.942958
88.2820153
92.3574105
92.8883896
87.9164384
88.3032542
92.4369082
92.9482823
87.6642983
89.2262194
92.7444021
88.1614305
88.2029386
92.3166289
92.8514835
87.9374575
88.254447
92.3583733
92.7879236
87.8646782
88.2818523
92.3799353
92.5715071
87.8375233
88.2716592
92.4169884
92.5181494
87.8269385
88.2448754
92.4540532
92.5254631
87.8218064
88.1982249
92.476047
92.8389168
87.8364319
88.1114375
92.4787301
92.7230744
87.8751879
88.0156011
92.4900083
92.5147596
87.9315982
87.9681483
92.5135097
92.4269964
87.9494854
87.9352996
92.4857483
92.3803241
87.9426506
87.9121219
92.4564724
92.3387973
87.9132298
87.9082418
92.4234622
92.2301694
87.6882679
88.567192
92.3860348
88.185701
87.9541485
92.2971255
92.3732419
87.8682083
87.6682708
88.5217166
92.4053029
92.1690309
87.8310325
89.5826577
92.3109522
88.0684456
88.3570832
92.3561777
88.1901641
87.8445533
88.9558055
92.3201994
92.3227097
88.0695937
88.0336003
92.3222353
92.4677374
87.9490469
87.9740017
92.3459103
92.5897035
87.8823651
87.9714659
92.3639877
92.698879
87.8543387
87.9962666
92.3712731
92.8057576
87.8469845
88.0404862
92.375967
92.9108758
87.8431441
88.0910408
92.3818904
93.0117826
87.8431648
88.1388379
92.3883244
92.9679674
87.8412125
88.1821221
92.3953586
92.8537946
87.8418589
88.2209592
92.4015845
92.74277
87.8430646
88.2515915
92.4062729
92.6420461
87.8450626
88.2768085
92.4088631
92.5645885
87.8482197
88.2985151
92.4102192
92.5238814
87.8553259
88.3137203
92.4114468
92.4984702
87.8578794
88.3233638
92.4135689
92.4748438
87.8558672
88.3307892
92.4168704
92.4118538
87.8533476
88.3422904
92.4195601
92.301132
87.8574698
88.3703276
92.4189273
92.1881695
87.8672214
88.427959
92.4136291
92.115338
87.8816227
88.4802911
92.4059586
92.0853893
87.8947373
88.5129039
92.3987207
92.0968059
87.9014955
88.5165272
92.3937695
92.14491
87.8998773
88.4806586
92.3903906
92.2758561
87.8920793
88.3996693
92.3884162
92.5043728
87.8753747
88.3253635
92.3935908
92.8104726
87.8415537
88.2387825
92.4378315
92.8265644
87.6233369
88.7621434
92.6875966
87.8264902
87.8119393
88.2329029
89.3007329
92.322955
92.5237678
87.9275562
87.9149245
89.1603328
92.2649179
92.6912154
88.6203888
92.6274389
92.5496628
87.6652851
88.0891271
92.4974193
92.5419382
87.5556287
89.1011432
92.5510039
88.046896
88.0392981
92.2896025
92.5861261
87.931526
88.0454527
92.3060121
92.5650317
87.8899312
88.0333396
92.3160707
92.5437876
87.8769421
88.0125213
92.3271127
92.5214574
87.8575486
87.9807746
92.3516987
92.4873075
87.798142
87.9541377
92.4133732
92.3888813
87.5496417
88.3704979
92.4589049
87.9366509
87.7922076
88.1848228
89.0896532
92.3424401
92.2911128
87.7424696
87.7767082
92.3374502
92.3052876
88.1622682
88.1459735
92.3018462
92.2537081
87.8864672
87.8883923
92.3734229
92.2706318
87.7033104
90.1673583
92.3448865
88.1206098
87.9608308
92.3558242
92.2980812
88.0381314
87.9511762
92.4025718
92.3044356
87.9824473
87.909821
92.4485125
92.3067754
87.9367271
87.8824765
92.5004243
92.2414196
87.7643018
88.2107602
92.4340586
88.1377546
87.8559424
88.1375357
88.5603164
92.3222782
92.1802616
88.2434145
88.0789147
92.4492783
92.2395227
88.1140445
87.9756985
92.4858569
92.2715006
88.0325414
87.9131451
92.5030383
92.2859666
87.97699
87.8724433
92.5069483
92.2823062
87.9069123
87.8731641
92.4697664
92.2240515
87.7276565
88.1843133
92.3864041
88.0854096
87.8648309
88.1247831
88.4531252
92.2787664
92.1661219
88.137965
88.0553797
92.2704426
92.2451989
87.9935719
87.9653569
92.2824791
92.3450548
87.9073543
87.9240453
92.3012632
92.4326065
87.8578321
87.9163928
92.3157709
92.5024003
87.8086579
87.9982985
92.335083
92.5256131
87.7069992
88.8862672
92.5907669
88.0754845
88.0782725
92.2700718
92.703851
87.9579482
88.1824401
92.321816
92.7815413
87.7988629
88.7945145
92.7311818
87.9847477
87.9630028
88.2094593
89.2155273
92.2622899
92.8849295
88.1189103
88.5503121
92.316783
93.0200296
87.9171824
89.3421986
92.9022856
87.9671255
87.9960938
88.2339111
89.3090066
92.2686937
93.0305756
88.1293237
88.5558579
92.3089529
93.0612762
87.9859508
88.3804888
92.3486864
92.8828634
87.8922733
88.3127819
92.3728913
92.8191198
87.8409698
88.2656195
92.3864324
92.9491456
87.8131271
88.2592543
92.4375004
92.9592248
87.6378677
88.949259
92.8124475
88.1369142
88.2013474
92.3564576
92.6325438
87.7767134
89.0860656
92.6191013
88.1725656
88.1579791
92.2867007
92.5257663
87.9801972
88.09096
92.3251054
92.4845398
87.9068526
88.0163839
92.344366
92.4537126
87.8661659
87.9558089
92.3617686
92.4329133
87.8424449
87.9073574
92.373255
92.4152562
87.8279528
87.8683862
92.375041
92.4021711
87.8218635
87.8480488
92.3800964
92.3926695
87.8153213
87.8826365
92.3909464
92.3308802
87.6445299
88.4334158
92.4298875
88.1651648
87.9659766
92.3297421
92.4029781
87.8363313
88.8409083
92.4414338
88.1831528
88.1114523
92.2937937
92.5087557
87.8889361
87.8000066
88.7648119
92.3650865
92.6277461
88.0448223
88.1801355
92.3282188
92.7800589
87.9756379
88.1856248
92.3515358
92.8683603
87.8039742
88.7532368
92.8071616
87.9402456
87.9277099
88.2055989
89.0618847
92.2736275
92.9215115
88.1392323
88.4867734
92.2937373
93.0309045
88.0121413
88.3593315
92.3245145
93.0907958
87.929052
88.317587
92.3479541
93.0440339
87.8834069
88.2994256
92.3653817
92.9163783
87.8631305
88.2976692
92.3776471
92.8044123
87.8574283
88.3021075
92.3862029
92.7371159
87.8592386
88.3027599
92.3940517
92.7165765
87.8576391
88.2925575
92.4116415
92.6876831
87.8291942
88.2776892
92.4852858
92.7323361
87.5783358
88.9767201
93.1144584
88.0774473
88.217474
92.3382044
92.9970172
87.9355456
88.2535359
92.3519114
92.8802782
87.9319965
88.2428963
92.3460388
92.7957448
87.9245655
88.2054637
92.3429965
92.7434061
87.900008
88.1535018
92.3436233
92.7008477
87.8726516
88.0991507
92.3467714
92.6621467
87.8437956
88.0446192
92.3519875
92.6218269
87.821868
87.9938745
92.3636628
92.5688374
87.8045353
87.9740744
92.412336
92.4434043
87.6285375
88.3754754
92.4839211
87.8908437
87.8243526
88.1903763
88.4380523
92.1847042
92.3905707
88.6522245
92.465403
92.2251269
87.7458962
87.9382127
92.3870622
92.3090599
87.8912233
87.8952312
92.3374947
92.3261483
87.9051012
87.8908465
92.3477639
92.3205325
87.910175
87.8851362
92.3638284
92.2983377
87.9225649
87.9144375
92.3676646
92.2130946
87.8170646
88.6131451
92.3582733
88.1488522
87.8637284
92.3926731
92.3163933
87.894279
87.8009359
92.439159
92.3349503
87.9095003
87.8106319
88.0592116
88.33399
92.3275578
92.1738195
88.145865
88.0622826
92.4042206
92.1626895
87.8917005
88.5318775
92.3510435
88.1924843
87.9023016
88.1079037
88.3087637
92.2914813
92.1893932
88.183353
88.1024168
92.3239301
91.3122312
87.9684939
92.5190107
92.2481224
87.9207126
87.8695133
92.4351513
92.2810456
88.0280895
87.9030706
92.4209711
92.2888161
87.9732195
87.8685256
92.4329245
92.2914055
87.8986468
87.8674099
92.4493747
92.2626784
87.7678153
88.0761767
92.3718454
88.1518754
87.8661246
88.0941206
88.7970437
92.2586217
92.2249013
88.1631908
87.9303875
88.9541782
92.3228794
92.1930568
88.0755893
88.0061342
92.3263639
92.3106534
87.9723074
87.924727
92.3350808
92.4030757
87.893506
87.9033147
92.3478064
92.4946208
87.8483236
87.9115411
92.3495105
92.589582
87.8328691
87.9432134
92.3499251
92.6875178
87.8291727
87.9911434
92.3513616
92.7894081
87.8274422
88.0415709
92.3561498
92.8910866
87.8266076
88.0940523
92.3661747
92.9837061
87.8267019
88.1411129
92.3766452
93.0586999
87.8279704
88.1816879
92.3854673
92.995421
87.8324341
88.2163812
92.3926835
92.904631
87.8369927
88.2465039
92.3989116
92.7959672
87.8427991
88.2737285
92.404245
92.6790065
87.8492538
88.2974525
92.4087379
92.568974
87.8532362
88.3141044
92.4119452
92.4864453
87.8530786
88.3208098
92.4124867
92.4587315
87.8513388
88.3191768
92.4084875
92.5264386
87.8522354
88.3068042
92.4010789
92.6815376
87.84975
88.2762299
92.3927703
92.9127429
87.8418748
88.2309376
92.38479
93.0242892
87.8298008
88.1709307
92.3771925
92.854281
87.8184595
88.0925991
92.370619
92.6650529
87.8205104
88.0468912
92.3877193
92.4728061
87.7846783
88.7388318
92.4738338
88.0219107
87.8035701
92.4018305
92.4762557
87.8481572
87.9300189
92.374345
92.3199099
87.9492733
88.5884459
92.3765001
89.0640724
87.8451965
91.807804
92.3965505
88.1477599
87.7964612
92.5219872
92.4216806
87.801453
87.7504319
92.4897736
92.4132869
87.8858469
87.8610241
92.436873
92.3868815
87.962064
87.9054267
92.4198423
92.3781502
87.8829304
87.8433426
92.4163011
92.3980233
87.8200873
87.8139007
92.3889461
92.335074
87.7741307
88.6020405
92.4069708
88.1848492
87.9688891
92.2897474
92.4691888
87.9565189
87.9919268
92.3243487
92.5701342
87.8873272
88.0029216
92.3370421
92.6708732
87.8544208
88.018846
92.3479542
92.7696888
87.8303609
88.0373522
92.3594332
92.86066
87.811862
88.0538104
92.3709818
92.9364015
87.8027603
88.0727684
92.3816743
92.9862349
87.7889597
88.150956
92.4138912
92.9854922
87.6793294
88.8436568
92.9858869
88.0881938
88.2411382
92.3543079
92.991622
87.823784
88.9639238
92.9469971
88.1491001
89.2475621
92.8812659
88.2480437
88.4472919
92.2783936
92.9816951
88.0365669
88.344302
92.3301166
93.037541
87.9187707
88.2639119
92.3640832
92.9871962
87.8642679
89.0025564
92.603261
88.6029826
87.8452312
87.9470947
88.1101054
92.673003
92.5135823
88.2629487
88.1367621
92.4076786
92.7530595
88.1039226
88.4498411
92.3472158
92.6185444
87.9502552
88.705002
92.3846717
91.26931
87.9389681
89.0620348
92.3980586
91.014642
87.9208642
88.9469017
92.4004499
91.3594317
87.88988
88.3469772
92.3714091
92.8269295
87.8397205
88.1145799
92.3580213
92.7590564
87.8197711
88.0503741
92.3515122
92.7264142
87.8172441
88.0443716
92.3488784
92.6947201
87.8178709
88.0241462
92.3481511
92.6836455
87.8233984
88.0130582
92.3493484
92.6978432
87.8284943
88.1223094
92.368782
93.0510907
87.8198046
88.5054724
92.4078113
90.5658554
87.8232501
89.6637471
92.4345726
89.3508576
87.8394702
90.9124819
92.4464821
88.6273318
87.856185
92.0897507
92.4272464
88.2457404
87.8727999
92.7281726
92.3867338
88.1955805
88.0693504
92.111
89.9420636
88.0033536
91.3574347
92.3137743
88.3777326
87.9781147
92.6807226
92.3017568
88.2655311
87.9563514
92.8602179
92.2895072
88.2670838
88.0752115
92.9025784
90.8861169
87.9013233
87.9011125
88.3485996
92.1113298
92.3073729
90.3168394
87.9664174
91.2266315
92.5288757
88.0317758
87.7821297
88.2588033
91.8410559
92.2912242
90.5697735
88.0602397
89.4788956
92.4308155
90.3063322
87.9375154
90.1624444
92.5479421
88.9541788
87.6431934
87.973505
92.9919328
92.3552926
89.6464023
88.0053682
89.9869756
92.4259574
90.1610838
87.9841908
89.900421
92.4296185
90.0029351
87.9404005
89.840798
92.4396057
90.0292021
87.907336
89.6482343
92.454831
90.2273235
87.8847548
89.3452483
92.4691657
90.6377486
87.8686579
88.989227
92.4673209
91.2509256
87.8609229
88.7047927
92.4701197
91.733817
87.8426336
88.5525048
92.5157504
91.9816771
87.6812413
89.8731891
92.4391585
88.1441717
88.4392887
92.3672209
92.5047143
87.97037
88.3768111
92.3816341
92.5717881
87.8943014
88.3091781
92.3849524
92.6549325
87.8545174
88.2547364
92.386507
92.7219522
87.8333799
88.2163683
92.3898141
92.7595292
87.8223813
88.194758
92.3978921
92.7731387
87.814656
88.1858241
92.4131623
92.7793234
87.7875058
88.2250371
92.4426543
92.7427987
87.6824609
89.3218078
92.8832365
88.0913836
88.2986745
92.350268
92.7483393
87.9621717
88.3206074
92.3833255
92.6372528
87.8946652
88.3079408
92.4007971
92.5652538
87.8527415
88.2842932
92.412132
92.5592327
87.8196306
88.2478542
92.4169492
92.6799698
87.798811
88.249957
92.4352082
93.0037796
87.7434203
89.7775137
93.0207229
88.1416426
88.3152069
92.3111991
92.9762395
87.984706
88.2957711
92.3320713
92.932414
87.9271415
88.2528558
92.339749
92.8831463
87.8970409
88.2037299
92.3468054
92.8337425
87.8715942
88.1514948
92.3640288
92.7833651
87.8240218
88.1192103
92.428191
92.6856039
87.5796751
88.6654984
92.6271424
87.8192657
87.7862023
88.1870514
88.9915662
92.2973924
92.4670084
88.013769
88.1673639
92.3805866
92.4720906
87.6582218
89.3134424
92.5106199
88.01757
89.6069869
92.4238705
88.2092047
88.1938194
92.2481877
92.4548968
88.0401474
88.1269452
92.2723479
92.4690405
87.9536786
88.0735732
92.2890228
92.4745684
87.9124421
88.0399668
92.3015365
92.4699292
87.8912739
88.0118612
92.315282
92.4558098
87.871161
87.9781113
92.3419955
92.4305029
87.8222657
87.9648069
92.4105478
92.3377407
87.5887517
88.494811
92.4581559
87.9134009
87.7992715
88.1444941
88.8193731
92.3432954
92.2795743
87.9091864
87.8222115
89.9016001
92.3557588
92.2813528
88.048821
88.0102445
92.3652003
92.3148156
88.0017049
87.9635692
92.384005
92.3276837
87.9458428
87.9238519
92.390972
92.3324978
87.9121392
87.9022998
92.391229
92.3353415
87.9001194
87.8943311
92.3873745
92.3372454
87.8975175
87.8922007
92.3851511
92.3402346
87.8901418
87.8825698
92.3868701
92.3472694
87.8702801
87.8553927
92.3952109
92.3559613
87.832918
87.8103326
92.4150084
92.3523942
87.7459892
87.8139571
92.4474401
92.3051372
87.5216355
88.0803314
92.420086
87.8909849
87.7378526
87.9733117
89.5119665
92.3367806
92.2448233
92.3352676
88.0079476
87.8581687
92.313575
92.3276729
87.9204009
87.884939
92.3231038
92.3423255
87.8795687
87.8827629
92.3278246
92.3587667
87.8546711
87.8747432
92.3341122
92.3784478
87.8351816
87.864387
92.3401495
92.3989184
87.825304
87.8566191
92.3456616
92.4151178
87.8133951
87.8581493
92.3485876
92.4232123
87.8161304
87.8625141
92.3481675
92.4250173
87.8236263
87.8639651
92.349059
92.4274008
87.8211219
87.8602797
92.3522036
92.4346071
87.8152684
87.8551346
92.3556198
92.4469619
87.8025737
87.841148
92.3578179
92.4648781
87.7893247
87.8284926
92.3556898
92.4837506
87.8057189
87.8407444
92.3542504
92.499497
87.7934385
87.92058
92.3601586
92.4719919
87.7586167
88.3893582
92.4587716
88.1569827
87.9913605
92.2619131
92.6388352
87.9431215
88.0580153
92.3234529
92.738341
87.881357
88.0586604
92.3486208
92.8287172
87.8549801
88.0672629
92.3654426
92.9086522
87.8424711
88.0873597
92.3813127
92.9681941
87.8274583
88.1647653
92.4053574
92.9748062
87.7755735
88.6390692
92.958392
88.0897644
88.1787558
92.3452503
93.0419103
87.9292247
88.2055943
92.3813303
93.0572327
87.863278
88.2247214
92.411352
93.0054552
87.7492212
88.860432
92.965545
88.0805241
88.1853602
92.3353952
92.9462726
87.9097826
88.2085477
92.3937178
92.8730775
87.7330181
89.2539023
92.8550149
88.1358748
88.1899186
92.2923768
92.8014716
87.9620361
88.168845
92.3196343
92.7661766
87.891891
88.1290546
92.335487
92.7399862
87.8607821
88.1207328
92.3497595
92.7826613
87.8421967
88.1508583
92.3670268
92.9282547
87.818812
88.1841688
92.4210425
93.0193522
87.6480592
89.7544608
92.6515103
88.1343909
88.1937834
92.304087
92.8705611
87.9529451
88.2456209
92.3931079
92.8790227
87.7320707
88.9267361
92.61045
87.9393054
87.8660992
88.2617863
89.0688992
92.2467545
92.5350059
88.1554071
88.3402111
92.2636586
92.6745545
88.007829
88.2696086
92.2944629
92.7969932
87.9249452
88.2357469
92.3168479
92.878637
87.8803481
88.2098467
92.3314159
92.9244898
87.8512584
88.1862021
92.3457696
92.9289919
87.8366711
88.1943504
92.3968448
92.8804935
87.6859695
89.1472269
92.8535615
88.1516612
88.2037407
92.307299
92.7829637
87.8564027
88.905026
92.670002
87.9407092
87.9332747
88.2722843
89.3711214
92.2314872
92.5828908
88.1590255
88.306282
92.2950818
92.5632922
87.8427175
89.2374036
92.5469986
88.1187138
88.122302
92.2838109
92.5031097
87.8802701
87.8950869
88.1345228
88.8070093
92.2412356
92.3335987
88.107171
88.1689247
92.2594512
92.3454769
87.993441
88.0364196
92.2943026
92.3308252
87.8763852
87.9845069
92.3306818
92.260905
87.6891523
88.2781483
92.3517699
88.0651862
87.888297
88.1412947
88.4251362
92.2403887
92.1921849
88.1428438
88.0832022
92.2702934
92.2569999
88.0108049
87.9680516
92.3024748
92.3025218
87.9199819
87.9137193
92.3216764
92.3519384
87.8667449
87.8897566
92.3293353
92.3935753
87.838713
87.8804179
92.3327745
92.4325457
87.8358641
87.8867945
92.34201
92.4643814
87.8329145
87.8939492
92.3570884
92.4950353
87.8304237
87.8940466
92.3728776
92.521579
87.8295132
87.8827527
92.3884597
92.5418989
87.831996
87.8663921
92.3953846
92.5341979
87.8618294
87.9122452
92.402329
92.4788386
87.8233853
88.234284
92.4561542
88.3327353
87.9173737
92.3067585
92.4688903
87.9981219
87.9808816
92.3858292
92.4743936
87.9705802
87.9409386
92.4076153
92.4757975
87.9541281
87.9050395
92.4323381
92.4676527
87.9434578
87.9133169
92.4491748
92.3920824
87.9035028
88.1459203
92.4952904
88.4016785
87.6786068
88.8052566
92.3352234
92.2727973
88.3342482
87.8822811
88.2009861
92.4233127
92.2158427
88.1783346
87.9795788
92.5910278
92.2280674
87.9846019
88.2348378
92.5041476
88.4114264
87.9278458
92.619898
92.368533
88.1147772
87.9294455
92.6923411
92.380788
88.0865917
87.9480828
92.6861718
92.4036744
88.0415202
87.9579813
92.6558771
92.4293016
87.9762815
87.9838265
92.598069
92.3981366
87.7227075
88.71284
92.6187875
88.1810448
88.1346338
92.4459433
92.6019462
87.7705479
87.6935754
89.0141111
92.4524922
92.6593067
87.8415108
87.8161388
89.2889178
92.4023307
92.8725077
88.0162742
88.5454681
92.360265
92.6007532
87.9784187
88.6048647
92.3822094
92.1224956
87.940202
88.6662975
92.409434
91.828221
87.9114233
88.7007864
92.4286348
91.7228268
87.8981943
88.7132969
92.4406229
91.7639091
87.9009788
88.7691523
92.4957384
91.7169192
87.755992
89.6234104
92.2480655
88.1461896
88.5895062
92.358756
92.3160979
88.0020601
88.5680568
92.3683305
92.5188528
87.9780924
88.5194775
92.3674907
92.7384424
87.9587676
88.5028019
92.4112306
92.9331852
87.7864713
89.2650672
93.0167475
87.9118116
87.9320011
88.2593112
89.377111
92.283069
92.9270621
88.0728431
88.4704914
92.3514557
92.9170403
87.7527816
87.7995323
89.6696311
92.4333163
92.7770937
87.8815809
89.1916456
92.5796803
88.5240523
87.8126117
89.4249323
92.3597182
92.6234927
87.9109349
87.9310787
89.6764504
92.3946769
92.6473236
87.8529879
89.5864782
92.6981856
88.0903457
88.1291296
92.3273258
92.7855548
87.7945137
88.0465886
92.3671594
92.7654786
87.8388063
88.1066578
92.350767
92.7250802
87.9108263
88.1311042
92.336378
92.709284
87.8862407
88.1057983
92.334877
92.6993227
87.862857
88.0887487
92.3321467
92.6876702
87.8636411
88.0867675
92.3271902
92.680244
87.8685193
88.0840645
92.3252887
92.6831956
87.8581167
88.0746774
92.3266176
92.6902689
87.8559931
88.0740085
92.3337281
92.6913284
87.8522257
88.1048963
92.3746404
92.6640354
87.7028347
88.7767856
92.6461705
87.8107318
87.7920658
90.3391624
92.3871722
92.7071307
87.8089852
87.8263871
89.3435826
92.3538091
92.6719774
88.0117513
88.2931611
92.3312646
92.7686816
87.843081
87.8712627
88.1672472
89.0306722
92.2444078
92.6969579
88.0733673
88.3067777
92.2612061
92.7385545
88.0020322
88.2560952
92.2785602
92.7351626
87.9713337
88.2476673
92.3263011
92.6939453
87.8272578
89.3093259
92.612903
87.9295271
87.9347538
88.2462715
89.2857772
92.2403596
92.5686946
88.0856058
88.2419118
92.2751051
92.6105442
87.9595736
88.1501608
92.3077208
92.6135799
87.8629504
88.1197891
92.3682864
92.5666916
87.6074646
87.6204868
88.9748021
92.4199428
92.3948143
87.9044115
88.1492608
92.349534
92.3684352
87.8730401
88.9769173
92.3907081
88.3898028
87.932094
88.1122761
89.145045
92.2577723
92.3365655
87.933016
88.1265886
92.3160297
92.8241196
87.846212
89.1803972
92.3554039
88.2713329
87.8827663
92.3575258
92.3833699
87.8687513
87.9226805
92.3704388
92.3625897
87.8450211
88.0248691
92.8189347
90.1228659
87.8086672
90.6632265
92.3632352
88.1934066
87.9796649
92.2834616
92.3534368
87.9006606
87.9243956
92.3417481
92.3518034
87.9004293
87.8963575
92.3454931
92.3488268
88.1602107
87.8808402
91.4889955
92.3429847
89.5328277
87.887649
88.6077264
92.342271
92.5769128
87.8756607
87.9648854
92.335754
92.3672723
87.8746548
87.8842094
92.3321868
92.3861744
87.8471674
87.8778417
92.2881871
92.4507588
87.9675927
88.572372
89.6972456
88.2571387
88.0710124
88.0945246
89.1350968
92.2635252
92.2064692
88.194743
88.0279534
92.331333
92.2969872
88.0468867
87.963508
92.3862034
92.3317317
87.981914
87.9104002
92.4210967
92.3454645
87.9684375
87.8739066
92.4714774
92.2936734
87.7713407
88.7721474
92.4533681
88.3432476
87.8371677
92.4034269
92.3707525
88.0080222
87.8686499
92.4913418
92.3484807
88.0037497
87.8756989
92.497203
92.358722
88.0069268
87.9014384
92.4398893
92.4370722
88.1575827
87.7325533
88.2371159
92.461732
92.2567966
88.0854864
87.8771548
92.4915399
92.3712193
87.9517599
87.8281944
92.5012627
92.4373984
87.9242435
87.8569055
92.5136378
92.3663311
87.7154548
88.5502129
92.5058867
88.2492663
87.9697438
92.3421741
92.458769
87.9917286
88.0205
92.3352718
92.5097314
87.9020569
88.1160855
92.3409986
92.7696806
87.8760026
88.2840438
92.3640372
92.1145476
87.8597518
88.7112572
92.3907441
90.8808815
87.8532976
89.3340871
92.4293226
89.9879707
87.8530647
90.0865434
92.5153029
89.0456424
87.6986264
87.9569272
91.3834681
92.4620496
89.2192093
87.9997761
91.089548
92.5071507
89.0215229
88.0273757
91.3011125
92.5469431
88.7987739
88.0180777
91.4886511
92.5925649
88.68785
88.0119424
91.5221412
92.6322638
88.6768128
88.0085967
91.4055901
92.6590937
88.7549766
88.0027731
91.1536551
92.666787
88.9295916
87.9905515
90.771413
92.648826
89.2408646
87.9730735
90.2486887
92.5989949
89.7988768
87.9592641
89.4913659
92.5085029
91.2482861
87.9210645
89.9352408
92.1489547
88.0969695
88.3633356
92.4315003
92.3271088
87.8694936
88.365888
92.4084064
92.8848079
87.8647188
88.2113449
92.377133
93.0240381
87.8301047
88.1182898
92.3888769
92.7623435
87.7607817
88.5482863
92.5721265
88.131247
87.7904253
92.3258925
92.611947
87.8896128
88.0115652
92.3533833
92.4738137
87.9177718
87.9317149
92.3762462
92.439294
87.8047174
87.7985093
92.3949304
92.3038513
87.7197289
88.766787
92.3997001
88.2389511
87.9371939
92.3358142
92.3376772
87.9890958
87.9010508
92.4116785
92.3445552
87.9083681
87.8534783
92.454543
92.363975
87.8709016
87.7955262
92.49641
92.3900805
87.7680562
87.6798439
92.5158989
92.3779255
87.8202734
87.7952472
92.4748555
92.2682336
87.878161
88.2802468
92.3746013
88.2965855
87.9310608
92.3283802
92.3050192
88.0422465
87.9277844
92.3705533
92.3067348
87.9429549
87.8862591
92.3727527
92.3188984
87.8849603
87.8432745
92.3661766
92.3297225
87.8344418
87.8064942
92.3560537
92.3378505
87.7928331
87.8335354
92.3492223
92.3018233
87.7450387
88.1212965
92.311944
88.0850976
88.1701968
92.2680627
88.1537748
87.9931437
92.2563429
92.3449569
87.9705089
87.9658824
92.2965672
92.4036229
87.9038318
87.9439833
92.3138303
92.4461448
87.8779313
87.9338574
92.3264727
92.4822536
87.8579722
87.9312704
92.3401799
92.5066303
87.8089149
88.0041523
92.36234
92.4809823
87.7129034
88.3266865
92.4557243
88.0352908
87.9502806
92.2955284
92.5991638
87.9131211
87.9956045
92.323277
92.6418032
87.8692649
88.0032773
92.3356437
92.66767
87.837675
88.0734775
92.3504209
92.6371097
87.7817108
88.563378
92.5542455
88.1105309
88.1030556
92.269993
92.735135
87.9504737
88.1418087
92.3070291
92.7384859
87.8870751
88.3002211
92.4132661
90.1467369
87.8473688
87.900042
89.2595344
92.3459259
92.7191863
87.9446744
88.1769735
92.3270189
92.8100433
87.938323