/*--------------------------------*- C++ -*----------------------------------*\
| =========                 |                                                 |
| \\      /  F ield         | OpenFOAM: The Open Source CFD Toolbox           |
|  \\    /   O peration     | Version:  2306                                  |
|   \\  /    A nd           | Website:  www.openfoam.com                      |
|    \\/     M anipulation  |                                                 |
\*---------------------------------------------------------------------------*/
FoamFile
{
    version     2.0;
    format      ascii;
    arch        "LSB;label=32;scalar=64";
    class       volScalarField;
    location    "4e-05";
    object      prefDh_H;
}
// * * * * * * * * * * * * * * * * * * * * * * * * * * * * * * * * * * * * * //

dimensions      [1 1 -3 0 0 0 0];

internalField   nonuniform List<scalar> 
3816
(
23409.0219
23396.3265
23393.118
23393.1165
23393.1163
23393.1163
23393.1163
23393.1163
23393.1163
23393.1163
23393.1163
23393.1163
23393.1163
23393.1163
23393.1163
23393.1163
23393.1163
23393.1163
23393.1163
23393.1163
23393.1163
23393.1163
23393.1163
23393.1163
23393.1163
23393.1163
23393.1163
23393.1163
23393.1163
23393.1163
23393.1163
23393.1163
23393.1163
23393.1163
23393.1163
23393.1163
23393.1163
23393.1163
23393.1163
23393.1163
23393.1163
23393.1163
23393.1163
23393.1163
23393.1163
23393.1163
23393.1163
23393.1163
23393.1163
23393.1163
23393.1163
23393.1163
23393.1163
23393.1163
23393.1163
23393.1163
23393.1163
23393.1163
23393.1163
23393.1163
23393.1163
23393.1163
23393.1163
23393.1163
23393.1163
23393.1163
23393.1163
23393.1163
23393.1163
23393.1163
23393.1163
23393.1163
23393.1163
23393.1163
23393.1163
23393.1163
23393.1163
23393.1163
23393.1163
23393.1163
23393.1163
23393.1163
23393.1163
23393.1163
23393.1163
23393.1163
23393.1163
23393.1163
23393.1163
23393.1163
23393.1163
23393.1163
23393.1163
23393.1165
23393.1169
23393.1181
23393.121
23393.128
23393.1434
23393.1754
23393.2371
23393.3488
23393.5472
23393.84
23394.2741
23394.7585
23396.1621
23397.1593
23394.8378
23394.7622
23408.3776
23410.8321
23371.104
23363.6935
23379.8088
23960.274
23937.1457
23351.6789
22962.6704
23340.5517
23918.5096
23994.1846
23961.3651
23376.5515
23133.7154
23380.0789
23927.5822
23998.9334
23098.0596
22942.4353
23097.3022
23381.6848
23951.4353
23967.03
23962.6341
23388.3698
23194.6619
23275.0501
23368.009
23960.6224
23987.3323
23299.5264
23183.1979
23965.38
23975.5043
23151.2374
23110.2199
23960.8539
23964.2835
23070.3004
23118.9997
23962.8341
23951.4424
23003.5374
23361.3374
23961.6213
23327.6698
23086.6836
23978.0926
23939.5941
23188.0247
23133.0945
23230.429
23391.8825
23964.0845
23905.5365
23321.8024
23390.8562
23981.1919
23912.7668
23229.1816
23099.4535
23374.822
23945.1955
23872.2132
23205.365
23347.7355
23951.5766
23843.1736
23122.5233
23297.8478
23950.1776
23820.5971
23072.3439
23290.4001
23949.6854
23805.0271
23046.7314
23344.3067
23944.1768
23804.1756
23009.6436
23396.6042
23825.8271
23297.2016
23406.5408
23951.9334
23797.5057
23185.2423
23432.88
23952.7546
23766.798
23144.5779
23437.0989
23950.015
23758.2487
23130.9698
23434.6932
23949.1392
23758.6894
23126.1428
23428.9597
23949.582
23766.7123
23121.73
23420.4361
23950.2115
23775.4604
23106.311
23419.5994
23939.6511
23836.7122
22984.7348
23404.1053
23897.6636
23087.8384
23081.2587
23379.1197
23406.0794
23953.4099
23933.5674
23262.9773
23390.5931
23938.5733
23377.0245
23158.4701
23298.0169
23404.8796
23964.7388
23952.702
23219.7127
23353.325
23959.8565
23934.6155
23152.6252
23288.2257
23957.829
23913.9667
23106.8993
23254.6722
23954.7054
23903.1433
23076.4195
23220.2337
23953.0388
23908.6836
23053.6238
23181.7289
23952.411
23922.4232
23040.0803
23159.0414
23947.7286
23934.8011
23037.6696
23194.1662
23935.3418
23940.9229
22891.6385
23385.2682
23939.1607
23255.3619
23243.4701
23952.1754
23887.8669
23156.41
23270.3011
23956.9052
23864.9988
23126.4534
23297.9009
23955.2822
23847.8501
23116.6635
23312.4435
23952.8358
23838.1725
23103.6348
23319.3617
23948.6816
23837.3053
23080.0031
23348.6294
23938.9975
23838.9626
22942.818
23396.9602
23857.4773
23088.2051
23083.7932
23411.6505
23408.4548
23947.4571
23864.9508
23299.0869
23435.422
23956.3869
23866.482
23198.6562
23389.8144
23955.1779
23875.5325
23113.3263
23338.344
23940.2049
23899.7509
22913.1134
23399.6532
23917.3493
23061.0414
23042.0406
23391.0464
23405.0119
23950.4945
23948.0609
23274.7271
23359.6184
23960.4895
23949.4178
23171.9191
23248.7034
23960.8735
23953.1787
23104.5648
23173.4042
23955.3089
23955.8469
23067.0914
23126.5774
23944.7546
23960.3521
23036.1773
23121.5301
23927.5474
23985.7716
22846.8331
23386.6138
23956.2037
23305.0198
23139.7888
23928.6954
23966.2717
23142.66
23138.0484
23929.6576
23986.6919
22940.6347
23385.9242
23958.6188
23340.6865
23164.6299
23938.3999
23958.5711
23206.0362
23162.9531
23942.5281
23959.4605
23160.1308
23141.5987
23944.4718
23959.0302
23140.6122
23124.2291
23943.2708
23960.5628
23127.1826
23108.9216
23938.4543
23966.5414
23097.6792
23105.8111
23941.0775
23974.7836
22947.3041
23394.544
23963.9498
23252.5708
23065.1141
23286.8499
23382.7508
23938.8149
23977.9919
23258.957
23211.0216
23955.1248
23959.1719
23152.7556
22949.8788
23364.1964
23934.6218
23990.6675
23188.5822
23185.3449
23938.915
23977.1812
23172.551
23133.4743
23948.7701
23969.2794
23135.2613
23105.2936
23952.8699
23964.92
23109.4942
23089.7685
23954.2847
23962.5297
23096.7759
23082.7234
23954.9542
23961.6041
23092.2005
23081.3976
23955.4824
23961.9008
23093.3922
23084.6271
23955.6919
23963.4562
23099.1109
23090.7755
23954.7501
23967.0733
23104.5836
23100.8644
23952.7978
23972.8123
23083.554
23154.518
23959.1075
23972.1309
22990.0433
23387.4505
23978.5913
23305.2347
23148.8414
23318.9737
23373.0768
23955.0863
23981.6748
23289.8539
23254.9956
23961.6767
23975.1442
23174.8803
23162.6236
23968.3997
23961.672
23098.1984
23092.7663
23981.5847
23944.1016
23141.7186
22923.8103
23368.1533
23942.6062
23983.8027
23118.8853
23184.6008
23946.513
23977.9495
23175.7459
23178.9533
23240.2872
23380.1373
23951.1954
23975.4304
23282.4359
23267.6663
23960.248
23966.9397
23179.2144
23176.6287
23967.6739
23955.8275
23092.6668
23094.4897
23976.4692
23946.3929
23133.6247
22906.8406
23306.8056
23969.0579
23950.9427
23170.3835
23023.3682
23375.7394
23966.5261
23935.7683
23097.9847
23387.446
23947.3529
23316.9722
23252.1737
23969.4932
23898.8317
23201.0371
23270.1594
23963.1355
23878.5371
23153.0567
23269.3051
23958.5372
23861.5032
23125.8188
23274.7049
23954.7313
23845.1429
23100.041
23287.7161
23952.6997
23829.6924
23072.5034
23335.2831
23950.0224
23818.2347
23002.9735
23398.1659
23866.591
23158.2541
23145.2285
23326.4229
23396.6874
23946.4162
23831.1981
23280.9371
23436.9384
23951.391
23821.3595
23198.8861
23440.4696
23953.2738
23810.6563
23137.5614
23400.773
23952.8214
23789.3738
23097.7328
23383.0341
23951.0564
23765.0816
23073.5236
23375.681
23949.2086
23751.3253
23061.3904
23375.7433
23946.5372
23758.1767
23053.35
23396.0275
23925.6445
23800.1245
22884.2566
23407.187
23883.3157
23133.9179
23397.4197
23876.0798
23311.5668
23392.1531
23953.6672
23882.1148
23180.6961
23356.035
23952.2695
23880.4203
23142.673
23342.4829
23946.2339
23881.9529
23111.6658
23357.8013
23923.5259
23876.8342
22894.4751
23404.7304
23915.4417
23297.0821
23283.9813
23946.7858
23892.1596
23136.8718
23326.0847
23947.4909
23773.9631
23081.7852
23362.0551
23944.7911
23737.5635
23060.2981
23362.7866
23937.0814
23728.591
23051.5212
23344.1406
23929.7966
23729.3449
23047.06
23300.203
23925.3485
23781.236
23058.8123
23217.1386
23923.5966
23909.7305
23089.84
23146.7328
23919.8164
23943.6589
23135.2295
23132.7315
23915.4329
23951.4863
23148.4815
23123.2024
23921.6719
23956.5874
23142.2885
23118.0732
23925.4516
23965.8994
23116.3063
23130.8099
23936.7735
23981.6206
22953.2252
23382.8558
23965.8996
23334.2336
23151.3195
23961.9323
23943.9747
23110.295
22917.9434
23367.2891
23940.9157
23989.9019
23063.2217
23387.2874
23961.0258
23250.9337
23392.7129
23960.2777
23341.6935
23061.0034
23375.5906
23943.3134
23952.7722
23230.839
23231.2368
23953.0441
23928.8239
23146.5906
23176.4277
23954.2928
23902.1087
23097.6462
23167.4423
23951.9237
23878.5737
23076.0273
23180.5875
23949.657
23856.5539
23070.1559
23208.1123
23947.5946
23835.6925
23066.7413
23239.3192
23945.1603
23817.3275
23066.0222
23267.6857
23942.7242
23800.7228
23063.6583
23294.3637
23940.5741
23782.8229
23063.1625
23320.59
23938.9082
23765.1745
23063.3109
23342.663
23937.657
23749.0434
23064.223
23361.521
23936.6604
23736.6768
23066.071
23377.9138
23936.6975
23730.4195
23070.958
23389.2279
23937.2994
23726.5546
23072.3991
23396.6829
23937.8028
23722.9492
23070.5273
23404.2413
23938.3078
23712.7907
23068.5211
23417.4952
23938.9461
23694.8241
23071.8111
23428.4461
23939.9699
23676.6818
23080.0534
23421.4685
23941.2734
23665.1039
23092.0018
23416.8476
23942.6288
23660.3465
23102.854
23414.8159
23943.9087
23662.1089
23108.6309
23415.2911
23944.869
23669.6702
23107.685
23419.3151
23945.6093
23690.6228
23101.7433
23428.9854
23946.1477
23728.1334
23088.4433
23396.2406
23944.2095
23779.9972
23057.8755
23323.6093
23932.1601
23914.8636
22875.4816
23409.7612
23926.5451
23028.2565
23015.5381
23342.4298
23400.8586
23931.6663
23943.9977
23110.7195
23106.9069
23407.5194
23947.0611
23909.5811
23379.9494
23901.5394
23951.8932
22885.5847
23265.3527
23912.2294
23952.3687
22823.8166
23382.9948
23937.7249
23219.5958
23202.2919
23953.3773
23922.9321
23143.5105
23203.6682
23958.4236
23923.1678
23113.0765
23195.6345
23956.8205
23926.1934
23101.202
23181.6245
23953.4259
23931.4645
23082.4187
23162.4032
23946.6804
23942.6367
23030.2423
23155.6696
23940.8885
23961.3381
22840.0916
23398.5924
23957.274
23132.3163
23032.9903
23308.3565
23381.2152
23927.731
23974.7574
22983.6542
23032.6479
23954.7711
23959.8971
23305.0449
23305.2929
23944.484
23976.4054
23101.7277
23128.2991
23949.1666
23984.4311
22976.8452
23426.1855
23962.0397
23277.9688
23164.5229
23937.1511
23962.9275
23213.2165
23158.9774
23938.2171
23965.3114
23171.849
23130.6523
23933.6729
23969.2119
23134.782
23117.0734
23930.6929
23976.1642
23012.2237
23356.2672
23961.3323
23305.0644
23087.0825
23285.8903
23378.9499
23937.6371
23983.3456
23366.7321
23269.1842
23930.2403
23978.7479
23272.4441
23189.5345
23928.5455
23974.1045
23214.0151
23141.5752
23926.2603
23972.7635
23171.9836
23113.0714
23923.7876
23974.5813
23120.7222
23114.9662
23936.1245
23972.9297
22994.7958
23336.8915
23968.8657
23264.3694
23105.1651
23279.7803
23373.7144
23946.4864
23985.6094
23293.2219
23255.6556
23959.9338
23977.5706
23192.8657
23185.4575
23965.6761
23960.1593
23131.895
23152.0742
23965.3746
23945.0035
23094.5436
23146.8064
23963.354
23932.3785
23058.2572
23208.8434
23966.4295
23913.9533
22983.1752
23378.6779
23920.2037
23254.0113
23264.5121
23959.026
23891.1198
23165.6108
23331.1984
23957.415
23866.3953
23038.4872
23387.0748
23893.6123
23174.438
23162.1145
23345.558
23389.2179
23949.49
23855.1386
23279.0198
23417.6921
23949.4769
23834.8532
23112.718
23397.6365
23861.6422
23155.7801
23160.4353
23365.5549
23404.8681
23952.8811
23842.1777
23288.6006
23442.0721
23956.6078
23824.7955
23183.8599
23435.1443
23957.1221
23794.6303
23113.5737
23387.8284
23955.2838
23783.8725
23073.055
23349.6913
23952.131
23806.2162
23044.6519
23335.6547
23933.4495
23881.9233
22877.1575
23401.4394
23908.4283
23280.8138
23294.4169
23935.3521
23942.7928
22991.1287
23399.7563
23937.1209
23310.8244
23265.4904
23951.8689
23946.2289
23176.5757
23220.5369
23952.0373
23950.8299
23123.2492
23169.3709
23951.2293
23953.3384
23093.2769
23129.7457
23949.3969
23954.1178
23075.2355
23099.4755
23948.2049
23955.2416
23063.2195
23076.4053
23948.5419
23956.4105
23056.0029
23068.2441
23946.2306
23957.6279
23044.5361
23106.0755
23946.8822
23962.0038
22917.9865
23393.4759
23967.9597
23305.035
23176.3723
23950.8512
23943.2458
23063.3402
23381.8316
23949.1425
23323.59
23275.4412
23962.8458
23913.4886
23111.9896
23015.0241
23378.1204
23934.8391
23897.5107
23210.4865
23335.3818
23945.9164
23873.3753
23167.3745
23328.6047
23946.8529
23852.3707
23029.8223
23391.5729
23874.1841
23131.5543
23120.9948
23335.1665
23397.625
23946.7818
23846.8776
23293.4553
23430.0775
23955.5828
23837.2389
23203.9175
23420.9741
23958.0688
23833.8358
23142.7707
23382.6752
23957.0898
23821.7409
23107.2666
23368.5863
23954.8249
23799.5299
23089.6816
23369.7535
23952.0579
23779.949
23082.419
23375.0142
23948.9338
23768.1494
23080.2835
23376.1459
23945.2218
23764.562
23074.588
23369.3019
23938.8864
23759.7435
23042.5236
23360.8598
23918
23769.1909
22814.0037
23393.8238
23834.6783
23239.9914
23289.2892
23946.6319
23857.2938
23134.3725
23313.6996
23946.1289
23877.5362
23131.8059
23307.1744
23947.2129
23891.3161
23127.6618
23283.9015
23948.8554
23900.2043
23111.1713
23250.3454
23950.1315
23907.8876
23092.1076
23215.209
23950.6329
23915.2009
23071.1616
23180.3673
23950.0225
23923.3692
23053.4328
23150.135
23945.6108
23935.9537
23032.8481
23151.1583
23934.4835
23959.3702
22890.7927
23408.0674
23952.0017
23096.4658
23038.945
23324.4398
23412.0643
23964.6228
23957.5785
23366.8826
23938.6157
24000.3148
22978.7508
23165.8597
23935.8954
23980.1109
23103.9597
23120.2287
23950.0383
23970.1117
23123.8483
23114.7131
23951.0861
23968.7991
23127.8386
23114.2152
23947.3569
23973.7354
23132.9679
23143.0568
23950.5264
23979.5829
23059.0039
23383.7557
23969.1415
23302.6323
23098.7785
23941.0171
23969.2798
23103.0723
23052.8323
23939.8352
23964.659
23118.4159
23057.4169
23221.2769
23383.9057
23939.0314
23984.2725
23289.8397
23264.2181
23947.4954
23986.5449
23114.0279
23375.1283
23971.7897
23350.6112
23129.1727
23271.7509
23383.5568
23954.1693
23971.6991
23331.4128
23263.1374
23962.7896
23548.1694
23193.2693
23926.6345
23980.5314
23116.0352
23114.9592
23932.7072
23971.8601
23199.2729
23132.2005
23937.3569
23967.9389
23160.5932
23106.7667
23938.6286
23969.3983
23106.5995
23106.3906
23944.2248
23962.6536
23019.176
23251.1576
23969.2011
23308.4638
23100.4278
23259.4252
23377.0556
23958.6136
23965.4092
23327.9156
23133.6428
23369.9976
23945.5122
23977.9996
23236.7289
23215.7361
23951.3763
23959.9839
23163.1928
23147.8818
23954.0966
23940.2069
23108.0007
23126.1111
23953.407
23920.1381
23075.5817
23126.6464
23952.1508
23900.8542
23064.4897
23144.6117
23950.6154
23881.4844
23061.6321
23173.5477
23948.6347
23862.1476
23059.8177
23202.8854
23946.2548
23844.3908
23057.8749
23232.8787
23944.0525
23829.5114
23056.0135
23258.2605
23941.8325
23818.781
23055.0249
23280.3027
23940.1379
23808.3488
23056.7298
23302.0314
23939.0684
23793.7806
23058.8812
23324.5969
23938.354
23775.7688
23062.1493
23347.7607
23937.7278
23756.2203
23065.9762
23369.6544
23937.2707
23737.9364
23068.19
23386.3456
23937.2749
23724.3934
23067.7998
23394.2905
23937.9725
23719.9396
23066.8123
23392.9116
23939.3742
23731.2034
23068.3285
23379.5014
23941.1904
23757.2621
23067.6978
23348.6757
23942.9749
23796.8926
23063.1946
23303.7157
23944.5684
23848.0952
23055.7454
23251.1023
23946.1553
23888.2355
23048.8003
23198.7511
23946.8377
23930.2734
23047.539
23188.1735
23938.063
23963.8178
23009.9131
23409.036
23946.3356
23185.6595
23022.5957
23938.111
23963.0899
23064.4597
23128.6799
23934.1887
23987.4593
23144.8165
23386.221
23951.5162
23393.3297
23069.368
23615.7238
23942.2158
23269.6563
23017.614
23931.0408
23937.9481
23014.3552
22984.2798
23916.215
23945.8622
23085.267
23067.9067
23924.3719
23943.6235
23144.9252
23102.9567
23934.7166
23946.6765
23088.5126
23065.3747
23941.339
23950.3775
23044.0053
23057.8845
23948.116
23954.0416
23017.6651
23386.0539
23958.3525
23327.2526
23172.6012
23957.053
23926.6673
23157.7652
23185.9457
23956.3877
23905.4108
23107.4062
23187.251
23954.4703
23886.7716
23082.1983
23192.9334
23952.5358
23870.544
23063.6147
23201.0132
23950.788
23856.9956
23048.6534
23208.1583
23948.4263
23847.2728
23039.9134
23218.4783
23945.762
23841.6858
23027.0452
23273.8605
23938.5068
23837.322
22918.217
23396.9116
23851.0359
23250.4239
23341.2242
23941.0551
23844.0208
23026.3171
23399.5038
23855.2072
23274.395
23399.5118
23856.0885
23369.8539
23440.7308
23954.1424
23847.0543
23218.2249
23401.1475
23954.0233
23844.413
23129.3278
23346.5166
23951.2921
23877.9193
23078.372
23392.0144
23915.5561
23393.7411
23055.9631
23122.564
23273.5825
23913.4405
23919.1194
23348.7463
23277.7088
23959.5233
23885.9472
23249.9629
23435.9422
23942.241
23747.9452
23149.6167
23405.352
23945.578
23541.8166
23139.0052
23384.1885
23940.227
23509.2366
23121.2508
23385.3547
23937.8032
23553.905
23095.5892
23426.4613
23946.0327
23902.9259
23065.5197
23229.1828
23949.2054
23895.148
23054.2489
23192.5653
23950.2831
23892.3834
23053.73
23197.265
23950.8705
23897.4762
23054.1483
23189.3681
23950.7121
23898.3362
23057.685
23181.7621
23950.3897
23902.3078
23059.6124
23243.9575
23949.3589
23822.6338
23054.831
23406.9545
23945.1717
23458.4275
23058.4251
23387.5754
23938.2853
23368.7935
23070.0326
23497.1817
23934.7416
23378.6316
23082.94
23659.7424
23940.3324
23345.5563
23102.5663
23924.5468
23947.2486
23292.3676
23254.2631
23661.9649
23412.2211
23179.952
23553.8649
23953.3103
23423.6374
23178.3776
23934.7755
23962.7577
23336.3857
23165.0383
23882.6353
23966.1612
23326.4065
23246.9033
23873.9425
23497.5627
23076.8385
23078.9466
23421.7671
23662.4683
23932.3603
23443.4318
23151.4658
23536.8782
23935.9366
23219.3658
22967.3769
23376.8733
23620.5443
23949.1602
23463.2288
23236.9783
23379.6514
23934.6292
23432.9441
23130.1121
23418.9889
23917.1633
23361.764
22849.8493
23184.6219
23840.8518
23954.0362
23399.818
23180.7958
23410.4936
23932.6357
23419.2207
23164.5066
23401.1503
23938.1205
23404.1643
23132.7278
23396.6787
23939.8337
23404.6706
23107.07
23385.7933
23937.8767
23420.7996
23089.5936
23375.1092
23934.2448
23462.3403
23077.3668
23375.4287
23932.7456
23538.331
23069.622
23389.9095
23928.4356
23607.5449
23048.5848
23403.1625
23914.9245
23646.0606
22905.4139
23417.6885
23716.7169
23281.6516
23433.5697
23934.0703
23727.74
23158.3617
23432.9856
23939.3435
23737.8404
23105.728
23395.5413
23941.4045
23750.6738
23077.3902
23356.2694
23941.5717
23760.9963
23061.413
23329.2467
23940.3424
23766.8431
23051.3917
23315.0026
23937.196
23769.3748
23041.9203
23311.7472
23933.2783
23771.5399
23018.413
23344.5719
23929.1196
23764.1882
22918.4113
23398.6435
23788.3375
23249.7078
23389.62
23938.5871
23766.5648
23153.3406
23401.7953
23939.3324
23748.5696
23103.5947
23391.5822
23939.9023
23737.3583
23072.3156
23373.9724
23940.1648
23737.4127
23047.4317
23346.1883
23941.0133
23758.98
23030.0591
23340.7911
23932.6229
23815.3336
22958.8428
23416.8704
23846.3454
23287.0549
23374.3052
23950.3233
23858.3533
23177.1631
23357.4325
23953.0216
23866.8598
23135.4021
23324.6706
23953.3937
23877.1776
23112.6499
23289.5781
23951.8907
23888.1284
23091.2048
23254.5451
23946.9536
23900.4635
23047.6323
23241.0854
23933.2362
23925.7897
22847.3894
23406.035
23937.6745
23030.3366
23004.5259
23311.4384
23396.2543
23938.7502
23958.5651
23185.9857
23308.0583
23937.9515
23962.6303
22920.3648
23394.2313
23960.4714
23193.8643
23401.3313
23957.0386
23339.6307
23319.4612
23956.6632
23947.407
23225.8602
23268.8881
23963.4441
23946.4279
23164.7908
23228.4023
23963.8191
23945.6035
23133.6313
23202.3712
23961.6822
23946.3089
23115.449
23181.3264
23957.611
23949.9675
23095.6126
23159.0125
23949.7037
23958.3166
23050.1353
23160.3397
23939.521
23974.2972
22870.5842
23398.5333
23959.4848
23114.4609
23035.417
23277.8833
23384.576
23930.4998
23973.9577
23117.6886
23053.5112
23409.9308
23932.9421
23977.4476
23219.0396
23202.5332
23936.5965
23969.5664
23193.7244
23165.3639
23941.8537
23966.4141
23155.7216
23134.795
23944.9271
23963.7967
23130.5978
23117.7461
23945.8417
23960.8459
23120.0311
23110.327
23945.6204
23957.6938
23115.4573
23107.0139
23944.33
23954.4654
23106.5387
23097.9866
23942.01
23951.5889
23087.5978
23076.6763
23938.2714
23950.6945
23054.1585
23045.0071
23932.533
23953.2651
22982.972
23051.0826
23933.8198
23948.8975
22818.2275
23240.6799
23957.1055
23094.6669
22992.899
23156.1498
23396.1441
23945.6496
23945.9834
23956.0393
23189.4091
23086.9816
23945.4263
23954.894
23125.447
23106.454
23948.5274
23949.8513
23098.3508
23102.9425
23950.3615
23946.2922
23080.7622
23094.3199
23950.4278
23941.9373
23065.8961
23082.7854
23949.5768
23937.1876
23057.6093
23073.5768
23948.3522
23935.3253
23047.8041
23072.474
23947.5377
23932.7369
23049.3408
23074.9687
23947.158
23932.3475
23054.4521
23076.8325
23946.6894
23932.3532
23051.8476
23074.517
23945.9979
23930.9862
23046.9192
23070.9312
23946.0048
23929.1834
23037.8522
23062.2781
23947.0133
23928.1964
23029.1049
23056.6237
23948.2219
23927.3739
23041.9095
23071.6325
23948.9633
23926.8681
23033.7604
23136.9641
23952.7338
23918.6053
23008.0158
23395.3748
23945.2337
23304.0339
23186.3517
23957.7819
23890.1265
23150.9677
23225.5215
23954.3934
23871.2527
23101.1194
23221.2675
23950.7092
23856.9605
23078.8672
23223.5366
23948.2035
23845.5312
23067.1597
23234.7812
23946.2014
23837.0529
23053.6039
23288.8601
23942.6562
23830.8067
22993.2891
23402.7881
23846.9437
23245.4813
23299.2937
23944.7858
23830.4431
23129.1423
23308.5631
23945.1604
23829.8219
23078.6631
23321.8861
23938.2765
23836.8164
22968.972
23400.8037
23853.5881
23241.4428
23299.4476
23944.9778
23857.9107
23114.2625
23317.0071
23934.4155
23870.5656
22959.0802
23397.5912
23874.2164
23285.9632
23299.6393
23951.35
23883.7522
23162.5915
23281.8622
23954.9545
23891.8815
23111.3271
23248.9304
23955.0273
23902.1911
23086.5006
23233.6423
23953.2041
23901.6527
23070.5352
23245.1036
23949.7868
23873.6495
23046.0741
23272.9118
23933.2615
23816.416
22894.6975
23411.2293
23939.37
23286.7525
23278.4587
23953.5347
23887.4606
23153.1063
23318.2108
23938.2523
23895.5734
22966.6655
23405.3286
23942.4501
23133.2062
23049.7734
23375.2728
23409.172
23952.7297
23958.2947
23311.2276
23406.7728
23965.5132
23928.6214
23205.7762
23345.7441
23968.1824
23904.4167
23145.2375
23320.4765
23966.5996
23887.4619
23111.282
23303.5641
23964.5158
23877.3072
23088.1304
23291.1026
23960.0874
23875.8589
23069.5507
23308.5154
23944.6006
23886.8558
22931.9366
23390.1221
23888.1917
23301.499
23325.7821
23951.9591
23898.043
23074.1415
23394.4033
23913.0148
23130.7787
23124.9021
23386.5511
23395.213
23949.9395
23926.9668
23307.6309
23406.9306
23953.8667
23934.0912
23069.4278
23388.4351
23942.8551
23278.3789
23276.4035
23956.5714
23943.0628
23103.9282
23102.233
23291.3803
23387.4103
23956.0647
23965.144
23273.1328
23321.0321
23960.2306
23967.001
23191.0438
23226.2329
23959.1877
23972.2847
23102.5657
23193.6954
23961.5157
23976.1764
22965.8574
23390.9996
23977.7785
23244.7318
23121.4862
23295.0134
23378.0132
23957.2084
23982.6838
23299.9478
23269.945
23961.997
23974.3903
23205.112
23178.6242
23962.3984
23966.1123
23137.1524
23131.6109
23961.1713
23956.1149
23096.6327
23106.9826
23959.063
23947.7369
23074.0185
23094.5406
23956.4427
23939.8704
23069.4182
23096.3703
23953.7674
23931.8817
23063.2057
23099.8543
23950.1866
23924.6752
23056.5912
23098.0384
23947.1411
23918.7605
23050.9832
23088.9061
23944.9313
23917.085
23049.2781
23080.9677
23947.3213
23921.8235
23072.8781
23123.1402
23959.0234
23924.3209
23048.0117
23364.2195
23952.461
23406.9848
23124.7209
23969.8512
23922.2385
23175.4066
23170.8778
23953.5561
23921.9852
23146.386
23145.0562
23951.7505
23925.592
23131.347
23123.3463
23951.4201
23932.1794
23123.7054
23137.3363
23959.9134
23942.4689
23103.2504
23315.9518
23948.672
23374.8073
22928.868
23367.7534
23963.1367
23966.8958
23385.5207
23083.1032
23362.313
23937.8099
23988.8995
23295.7009
23200.2388
23925.323
23986.242
23159.1699
23372.4875
23951.3756
23398.989
23122.6975
23914.2922
23956.3127
23254.3881
23129.2493
23891.4636
23957.293
23235.8537
23138.1394
23886.2872
23955.9984
23208.4321
23140.3951
23887.2631
23956.4852
23161.3222
23156.9092
23890.6906
23976.3451
22957.525
23394.0409
23937.275
23325.5606
23247.3847
23921.5904
23936.251
23010.0814
22909.7826
23402.058
23913.4479
23942.2592
23046.3757
23002.0739
23409.7362
23919.666
23899.1378
23187.184
23441.9578
23945.2903
23744.3268
23169.6643
23421.0941
23947.4291
23667.0119
23142.6553
23405.0128
23945.538
23621.6428
23121.4075
23397.7036
23943.2933
23605.8832
23110.5302
23397.351
23939.2722
23612.0741
23105.5684
23399.6172
23921.2948
23605.2046
22971.4457
23398.2012
23687.0064
23295.5041
23419.632
23946.2868
23698.8378
23189.7627
23425.4338
23947.9662
23731.9345
23171.2895
23436.1808
23947.1523
23768.3761
23151.8614
23443.9689
23934.9531
23803.0182
22994.872
23403.8276
23847.2576
23098.2215
23092.4563
23373.9821
23410.7644
23946.9035
23867.4232
23239.9303
23439.3212
23948.2468
23868.4998
22996.478
22988.7574
23404.2645
23919.5789
23920.6654
23079.6403
23378.641
23921.0698
23375.9509
23032.8925
23387.5503
23941.406
23933.5558
23114.2264
23113.5538
23403.3188
23922.8882
23940.2145
23045.2638
23399.1953
23907.343
23249.5658
23248.4005
23952.4431
23900.4526
23034.9669
23182.0391
23947.7763
23897.3649
23063.2134
23224.0817
23945.7337
23897.1525
23118.0718
23242.7523
23949.1688
23900.5091
23103.7921
23226.7813
23953.1488
23904.0804
23089.4151
23217.352
23955.5354
23906.6451
23091.7603
23219.0786
23957.051
23907.9058
23096.7034
23220.3256
23958.2822
23908.1863
23089.9193
23217.1708
23958.5716
23908.2415
23087.6138
23222.335
23955.7658
23910.6584
23079.4095
23255.8183
23947.31
23915.6836
22955.5524
23394.742
23920.5337
23028.5889
23020.32
23449.0923
23932.2028
23894.9989
23036.0167
23035.6965
23395.196
23936.9599
23907.0722
23190.4955
23401.2888
23950.3573
23892.9871
23073.6986
23069.3213
23318.5572
23396.9155
23961.2144
23904.7189
23254.6673
23405.3342
23968.3817
23902.2133
23204.7861
23362.8198
23966.8183
23905.0087
23176.8248
23356.4874
23955.3514
23915.1157
23053.1529
23396.9086
23929.9842
23124.9942
23120.7112
23369.4284
23397.1864
23953.6073
23937.3152
23257.3868
23352.7956
23962.0032
23929.9152
23167.4421
23277.9172
23960.5929
23928.918
23092.4859
23254.4711
23955.8268
23930.0289
22899.6719
22867.9437
23379.8429
23925.218
23975.3085
23100.5481
23311.3435
23944.7098
23981.2081
23091.7267
23375.6627
23959.6933
23385.0031
23142.6454
23288.4604
23375.9969
23965.9597
23975.5059
23145.8342
23269.5421
23960.4784
23914.3286
23086.8
23399.4509
23964.8055
23389.7116
23110.0504
23979.2327
23951.8139
23082.899
23142.1285
23934.9635
23960.8922
23028.6934
23224.4876
23895.814
23424.1243
23008.976
23473.4525
23938.2671
23336.5255
23173.4701
23980.1305
23951.1796
23121.4992
23136.6317
23962.674
23952.0555
23113.7851
23113.7523
23982.7185
23949.6726
23305.9812
23094.8813
23571.4833
23939.3627
23390.9496
23094.6429
23393.2597
23942.9471
23958.138
23094.0494
23140.7906
23952.5014
23955.3309
23096.6763
23100.8029
23959.4132
23949.7094
23085.6757
23081.4504
23974.5512
23970.5444
23188.7734
23396.416
23391.6743
23384.3733
23263.1029
23261.9846
23369.3892
23954.1956
23989.0984
23331.0783
23223.7983
23963.5259
23966.1068
23217.5661
23164.8275
23955.734
23962.6831
23164.8934
23122.9941
23950.3813
23958.0368
23148.3683
23097.3862
23942.0057
23982.7447
23003.874
23379.8182
23961.2567
23394.0701
23053.5791
23967.9753
23945.7064
23178.5329
23087.0007
23946.5092
23952.7635
23164.5198
23094.3501
23945.3706
23946.1926
23171.526
23102.4851
23962.056
23930.3014
23314.6718
22940.9879
23384.3291
23922.3294
23977.1063
23219.7823
23112.3975
23941.39
23960.608
23119.7316
23062.4073
23936.1738
23944.9496
23097.5981
23084.5065
23928.889
23960.637
22947.4923
23389.9168
23947.8898
23373.3292
23144.1811
23950.4298
23935.6893
23177.0327
23176.1274
23946.8918
23940.6136
23111.4359
23228.4796
23948.3627
23906.2359
23092.3442
23364.7842
23948.2269
23663.7893
23078.3644
23387.1691
23946.0296
23492.7971
23069.7856
23374.4068
23941.2735
23403.5202
23062.665
23415.71
23930.8634
23364.0825
22934.0409
23168.1612
23557.4598
23937.3045
23375.2819
23165.1188
23519.5714
23922.7825
23367.3577
23183.7065
23546.2532
23919.9255
23367.3208
23176.0293
23571.4499
23914.1127
23368.6168
23170.3236
23576.0676
23906.8863
23366.307
23167.6341
23560.154
23900.5271
23360.3693
23164.6008
23527.3574
23897.2494
23354.2028
23158.3989
23482.0963
23899.0205
23355.5341
23149.466
23430.9172
23906.5161
23383.4371
23141.4784
23388.3402
23918.3481
23537.2524
23096.2643
23418.9564
23669.4937
23243.6905
23418.2252
23939.7622
23700.9951
23075.9005
23430.1733
23934.7653
23793.5167
23079.2849
23311.2355
23944.0178
23841.4926
23056.5341
23260.508
23940.0653
23887.0537
22992.4285
23401.5863
23919.5255
23271.8345
23017.7661
23953.6785
23899.8654
23094.6172
23182.2791
23933.1388
23922.0928
23114.0179
23129.9124
23940.5135
23938.1703
23031.4551
23045.0428
23946.648
23964.6591
22971.0571
23385.5943
23957.0942
23363.8521
23137.1305
23948.4148
23950.4317
23170.0809
23112.0521
23943.6321
23950.1005
23106.6018
23074.2037
23935.8428
23944.7738
23072.1407
23027.8965
23928.0178
23945.8342
22990.8408
22944.8138
23924.4267
23950.1581
23029.2664
23038.6561
23927.5992
23955.2473
23085.7678
23396.5926
23959.6052
23407.8316
23137.5709
23949.5006
23956.021
23215.2167
23139.4432
23948.7514
23957.4219
23142.1704
23108.8855
23950.5112
23956.5108
23099.8249
23077.3272
23952.2723
23957.0824
23063.5595
23052.5465
23955.4799
23957.6247
23036.9164
23074.8716
23960.5682
23954.152
23010.11
23288.0449
23968.7314
23262.7277
23324.9841
23974.4079
23306.1759
23200.2647
23957.6472
23953.5895
23171.9297
23171.329
23956.8652
23942.5551
23121.9038
23148.8595
23954.5933
23934.5967
23100.2855
23138.0526
23951.4756
23929.2975
23083.217
23134.8754
23949.788
23924.8794
23046.1846
23188.7105
23951.5575
23919.9121
22974.4892
23404.5981
23951.4414
23208.3675
23155.2416
23948.8865
23913.6831
23125.766
23176.3494
23951.4599
23904.3492
23092.8259
23180.6257
23951.2954
23901.223
23069.8981
23234.5687
23952.558
23901.1298
23023.4913
23396.6975
23927.0112
23266.5663
23260.6406
23954.8865
23889.9251
23161.2878
23273.0328
23959.2187
23886.565
23108.7555
23405.6397
23947.281
23424.3984
23084.6315
23110.3978
23388.0036
23942.6476
23901.0733
23142.2805
23302.6546
23947.8241
23877.0279
23142.8366