/*--------------------------------*- C++ -*----------------------------------*\
| =========                 |                                                 |
| \\      /  F ield         | OpenFOAM: The Open Source CFD Toolbox           |
|  \\    /   O peration     | Version:  2306                                  |
|   \\  /    A nd           | Website:  www.openfoam.com                      |
|    \\/     M anipulation  |                                                 |
\*---------------------------------------------------------------------------*/
FoamFile
{
    version     2.0;
    format      ascii;
    arch        "LSB;label=32;scalar=64";
    class       volScalarField;
    location    "4e-05";
    object      prefDZ_H;
}
// * * * * * * * * * * * * * * * * * * * * * * * * * * * * * * * * * * * * * //

dimensions      [1 -1 -1 0 0 0 0];

internalField   nonuniform List<scalar> 
3816
(
0.000107909981
0.000107854195
0.000107840103
0.000107840096
0.000107840095
0.000107840095
0.000107840095
0.000107840095
0.000107840095
0.000107840095
0.000107840095
0.000107840095
0.000107840095
0.000107840095
0.000107840095
0.000107840095
0.000107840095
0.000107840095
0.000107840095
0.000107840095
0.000107840095
0.000107840095
0.000107840095
0.000107840095
0.000107840095
0.000107840095
0.000107840095
0.000107840095
0.000107840095
0.000107840095
0.000107840095
0.000107840095
0.000107840095
0.000107840095
0.000107840095
0.000107840095
0.000107840095
0.000107840095
0.000107840095
0.000107840095
0.000107840095
0.000107840095
0.000107840095
0.000107840095
0.000107840095
0.000107840095
0.000107840095
0.000107840095
0.000107840095
0.000107840095
0.000107840095
0.000107840095
0.000107840095
0.000107840095
0.000107840095
0.000107840095
0.000107840095
0.000107840095
0.000107840095
0.000107840095
0.000107840095
0.000107840095
0.000107840095
0.000107840095
0.000107840095
0.000107840095
0.000107840095
0.000107840095
0.000107840095
0.000107840095
0.000107840095
0.000107840095
0.000107840095
0.000107840095
0.000107840095
0.000107840095
0.000107840095
0.000107840095
0.000107840095
0.000107840095
0.000107840095
0.000107840095
0.000107840095
0.000107840095
0.000107840095
0.000107840095
0.000107840095
0.000107840095
0.000107840095
0.000107840095
0.000107840095
0.000107840095
0.000107840096
0.000107840096
0.000107840098
0.000107840103
0.000107840116
0.000107840147
0.000107840214
0.000107840355
0.000107840626
0.000107841117
0.000107841988
0.000107843274
0.000107845178
0.000107847306
0.0001078535
0.000107857896
0.000107847515
0.000107847113
0.000107907603
0.000107918325
0.000107741336
0.000107705208
0.000107778236
0.000110350974
0.000110248722
0.00010765535
0.00010592785
0.00010760426
0.000110166012
0.000110502433
0.00011035624
0.000107763337
0.000106685825
0.000107781595
0.000110206695
0.000110522661
0.000106528322
0.000105838991
0.000106524821
0.000107787498
0.000110312431
0.000110382116
0.000110362209
0.000107815317
0.000106956774
0.000107312915
0.000107727496
0.000110353458
0.000110471975
0.00010742126
0.000106906237
0.000110374344
0.000110419316
0.000106764066
0.000106582754
0.00011035418
0.000110369444
0.000106405397
0.000106621675
0.000110362871
0.000110312576
0.000106109691
0.000107695548
0.000110357382
0.000107546201
0.000106478252
0.000110430888
0.000110259788
0.000106927245
0.000106683719
0.000107115033
0.000107830921
0.000110368814
0.000110108746
0.000107520165
0.000107826024
0.000110444698
0.000110140717
0.000107109856
0.000106534281
0.000107757247
0.000110284886
0.000109960296
0.000107003817
0.000107634877
0.000110313149
0.000109831078
0.000106636821
0.000107413415
0.000110306856
0.000109730749
0.000106414488
0.00010738018
0.000110304614
0.000109661974
0.000106301004
0.000107618925
0.000110280153
0.000109658205
0.000106136105
0.000107853723
0.000109753913
0.000107410763
0.000107894488
0.000110314788
0.000109628748
0.000106914785
0.000108011037
0.000110318306
0.00010949307
0.000106734543
0.00010802977
0.000110306116
0.0001094553
0.0001066742
0.000108019125
0.000110302217
0.000109457253
0.000106652796
0.000107993702
0.000110304176
0.000109492706
0.000106633249
0.000107955905
0.000110306957
0.000109531361
0.000106564872
0.000107952063
0.000110260077
0.000109801986
0.000106025712
0.000107886324
0.000110072847
0.00010648259
0.000106453089
0.000107773639
0.000107895593
0.000110321474
0.000110232153
0.000107259086
0.000107827256
0.000110255148
0.000107766717
0.000106795749
0.000107414858
0.000107891047
0.000110371647
0.000110317256
0.000107067531
0.000107658611
0.000110349897
0.000110236972
0.000106770259
0.00010736979
0.000110340842
0.00011014527
0.000106567621
0.000107220953
0.000110326953
0.000110097229
0.000106432536
0.00010706835
0.000110319541
0.00011012187
0.000106331524
0.000106897877
0.000110316749
0.000110182946
0.000106271488
0.000106797707
0.000110295989
0.000110238017
0.000106260615
0.000106953968
0.000110240971
0.000110265329
0.000105613491
0.000107803187
0.000110257497
0.00010722519
0.000107172477
0.000110315931
0.000110029708
0.000106787045
0.000107291157
0.000110336797
0.000109928101
0.000106654329
0.000107413324
0.000110329565
0.000109851893
0.000106610921
0.00010747769
0.000110318691
0.000109808827
0.000106553144
0.000107508331
0.000110300235
0.000109804871
0.000106448315
0.000107638111
0.000110257189
0.00010981219
0.000105840073
0.000107854976
0.0001098945
0.000106484369
0.000106464502
0.000107917802
0.00010790646
0.000110295128
0.000109927729
0.000107419178
0.000108022827
0.000110334576
0.000109934387
0.000106974233
0.000107820258
0.0001103291
0.000109974492
0.000106596004
0.000107592217
0.00011026255
0.000110081981
0.000105708457
0.000107866686
0.000110160324
0.000106363978
0.000106279423
0.000107826444
0.000107890828
0.000110308617
0.000110296911
0.00010731125
0.000107686645
0.000110352783
0.00011030293
0.000106855832
0.000107195091
0.00011035438
0.000110319635
0.000106557397
0.000106861465
0.000110329621
0.000110331509
0.00010639128
0.0001066541
0.000110282756
0.000110351533
0.000106254085
0.0001066321
0.000110206306
0.000110464492
0.000105415014
0.000107809
0.000110333113
0.0001074454
0.000106712972
0.000110211641
0.000110378061
0.000106725818
0.000106705611
0.000110215757
0.000110468822
0.00010583075
0.000107806964
0.000110344042
0.000107603505
0.000106823146
0.00011025473
0.000110344081
0.000107006775
0.000106815816
0.00011027292
0.000110348039
0.000106803423
0.000106721241
0.0001102815
0.000110346134
0.000106716937
0.000106644323
0.000110276154
0.000110352931
0.00010665737
0.000106576604
0.000110254772
0.000110379454
0.000106526561
0.000106563017
0.000110266372
0.000110416221
0.00010586038
0.00010784255
0.0001103677
0.000107213127
0.000106382509
0.000107364671
0.000107791193
0.000110256694
0.000110430554
0.000107241252
0.000107029256
0.000110328796
0.000110346794
0.000106771261
0.000105871643
0.000107710369
0.000110237844
0.000110486762
0.000106929222
0.000106915783
0.000110256934
0.000110426769
0.000106858396
0.000106685716
0.000110300608
0.000110391679
0.000106693289
0.000106560743
0.000110318769
0.000110372325
0.000106579162
0.000106491898
0.000110325037
0.000110361715
0.00010652283
0.000106460657
0.000110328011
0.000110357608
0.000106502579
0.000106454782
0.000110330366
0.000110358927
0.000106507881
0.000106469112
0.000110331315
0.000110365832
0.000106533226
0.000106496404
0.000110327164
0.000110381883
0.000106557441
0.000106541209
0.00011031852
0.000110407372
0.000106464236
0.000106779043
0.000110346445
0.00011040457
0.000106050047
0.000107811439
0.000110432837
0.000107446658
0.000106753865
0.000107507337
0.000107748459
0.000110328985
0.000110446942
0.000107378325
0.000107224357
0.000110358105
0.000110417805
0.000106869026
0.000106814864
0.000110387807
0.000110357958
0.000106529456
0.000106505012
0.000110446258
0.000110279875
0.000106722633
0.000105756028
0.000107726347
0.000110273252
0.00011045633
0.000106620464
0.000106912527
0.000110290766
0.000110430185
0.000106872513
0.000106887364
0.000107158413
0.000107778998
0.000110311669
0.000110419218
0.000107345384
0.000107280417
0.000110351764
0.000110381391
0.000106888199
0.000106876875
0.000110384573
0.00011033199
0.000106504883
0.000106512724
0.000110423557
0.000110289956
0.000106686483
0.00010568114
0.000107453875
0.000110390573
0.000110310314
0.00010684933
0.000106197507
0.000107760156
0.000110379368
0.000110243072
0.00010652835
0.000107814075
0.000110294216
0.000107498658
0.000107211513
0.0001103928
0.000110078742
0.000106984955
0.000107291052
0.000110364469
0.000109988495
0.000106772263
0.000107287178
0.00011034402
0.000109912728
0.000106651514
0.000107311004
0.000110327103
0.00010983996
0.00010653726
0.000107368523
0.000110318054
0.000109771261
0.000106415246
0.000107579102
0.000110306127
0.000109720375
0.000106106873
0.0001078593
0.000109935092
0.000106794795
0.000106737116
0.000107540121
0.000107853321
0.000110290421
0.000109777852
0.000107338721
0.000108029673
0.000110312383
0.000109734125
0.000106975202
0.000108044662
0.00011032063
0.000109686854
0.000106703491
0.000107868748
0.000110318554
0.000109592834
0.000106526994
0.000107790223
0.000110310681
0.000109485508
0.00010641969
0.000107757734
0.000110302461
0.000109424728
0.000106365889
0.000107758021
0.000110290605
0.000109454999
0.000106330093
0.00010784775
0.000110197895
0.000109640342
0.000105580226
0.000107899642
0.00011000886
0.000106686255
0.00010785662
0.000109977012
0.000107474311
0.000107830205
0.000110322487
0.000110003761
0.00010689453
0.000107670165
0.000110316198
0.000109996235
0.000106725992
0.000107610051
0.000110289396
0.000110003069
0.000106588364
0.000107677905
0.000110188572
0.000109980217
0.000105625617
0.000107889514
0.000110151838
0.000107409973
0.00010735088
0.000110291965
0.00011004839
0.00010670025
0.000107537499
0.000110294961
0.000109524715
0.000106456159
0.000107697249
0.000110282937
0.000109363879
0.000106360932
0.0001077007
0.000110248675
0.000109324229
0.000106322028
0.000107618114
0.000110216295
0.000109327555
0.000106302249
0.000107423212
0.000110196526
0.000109556837
0.000106354335
0.000107054784
0.000110188758
0.000110126604
0.000106491852
0.000106742902
0.000110171979
0.000110277513
0.000106693033
0.000106681324
0.000110152492
0.000110312449
0.000106751749
0.000106639424
0.000110180211
0.000110335185
0.000106724284
0.00010661696
0.000110197042
0.000110376557
0.000106609075
0.000106673738
0.000110247292
0.000110446522
0.00010588663
0.000107791724
0.000110376415
0.000107575086
0.000106764309
0.000110359113
0.000110279341
0.000106583042
0.000105729945
0.000107723126
0.000110265694
0.00011048339
0.000106374047
0.000107813761
0.000110355056
0.000107206049
0.000107834625
0.000110351604
0.000107608254
0.000106363964
0.000107760679
0.000110276574
0.000110318463
0.000107116503
0.000107118917
0.000110319668
0.000110211945
0.000106743336
0.000106875797
0.000110325127
0.000110093243
0.000106526491
0.00010683582
0.000110314578
0.000109988664
0.000106430689
0.000106893945
0.000110304516
0.000109890804
0.000106404666
0.000107015779
0.000110295367
0.00010979808
0.000106389526
0.000107153902
0.000110284566
0.000109716427
0.000106386325
0.000107279417
0.000110273756
0.000109642919
0.000106375832
0.000107397488
0.000110264211
0.000109563842
0.000106373616
0.000107513624
0.000110256814
0.000109485872
0.000106374258
0.000107611406
0.000110251257
0.000109414603
0.000106378287
0.000107694963
0.000110246835
0.000109359964
0.000106386464
0.000107767603
0.000110246995
0.000109332321
0.000106408108
0.000107817734
0.000110249658
0.000109315247
0.000106414483
0.000107850774
0.000110251881
0.00010929932
0.000106406182
0.000107884317
0.000110254108
0.000109254433
0.000106397291
0.000107943169
0.000110256927
0.000109175038
0.000106411872
0.000107991905
0.000110261464
0.00010909486
0.00010644841
0.000107961324
0.000110267253
0.000109043689
0.000106501374
0.000107941103
0.00011027328
0.000109022661
0.000106549479
0.000107932235
0.000110278971
0.000109030449
0.000106575091
0.000107934334
0.00011028324
0.000109063867
0.000106570906
0.000107951962
0.000110286529
0.000109156469
0.000106544577
0.000107994342
0.00011028892
0.000109322233
0.000106485631
0.000107848764
0.000110280319
0.000109551395
0.000106350087
0.000107526752
0.000110226814
0.000110149033
0.000105541682
0.000107910551
0.00011020119
0.000106218498
0.000106162117
0.000107610714
0.000107872672
0.000110224976
0.000110278987
0.000106583976
0.000106567203
0.00010790162
0.000110293343
0.000110126037
0.000107779059
0.000110090607
0.000110313881
0.000105586069
0.000107269921
0.000110138351
0.00011031601
0.000105312797
0.000107793606
0.00011025112
0.000107066818
0.000106989877
0.000110321244
0.00011018549
0.000106729911
0.000106995902
0.000110343545
0.000110186598
0.000106595071
0.00010696033
0.000110336414
0.000110200064
0.000106542409
0.000106898289
0.000110321344
0.000110223479
0.000106459091
0.000106813224
0.000110291391
0.000110273069
0.000106227755
0.000106783682
0.000110265549
0.000110356202
0.000105385246
0.000107860528
0.000110337988
0.000106679979
0.000106240075
0.000107459779
0.00010778575
0.000110207486
0.000110415937
0.00010602125
0.000106238788
0.000110327271
0.000110350074
0.00010744544
0.000107446852
0.000110281815
0.000110423351
0.000106544597
0.000106662888
0.000110302337
0.000110458846
0.00010599152
0.000107986508
0.000110359443
0.000107325558
0.000106822998
0.00011024917
0.000110363518
0.000107038555
0.000106798463
0.000110253749
0.000110374058
0.000106855261
0.00010667301
0.000110233482
0.000110391327
0.000106690957
0.000106612992
0.000110220125
0.00011042232
0.000106148068
0.00010767282
0.000110356039
0.000107445991
0.000106479881
0.000107360544
0.000107774522
0.000110251425
0.000110454316
0.000107718828
0.000107287186
0.000110218275
0.00011043377
0.000107301062
0.000106934152
0.000110210657
0.000110413105
0.00010704221
0.0001067216
0.000110200483
0.000110407121
0.000106855952
0.000106595336
0.000110189519
0.000110415184
0.000106628839
0.000106603762
0.000110244276
0.000110408047
0.000106071049
0.000107586962
0.000110389551
0.000107265607
0.000106560253
0.000107333553
0.000107751241
0.000110290755
0.000110464386
0.000107393207
0.000107227333
0.000110350343
0.000110428538
0.000106948679
0.000106916171
0.00011037574
0.000110351114
0.000106678585
0.000106768178
0.000110374347
0.000110283717
0.000106513071
0.000106744845
0.000110365354
0.000110227585
0.000106352296
0.000107019776
0.000110378917
0.000110145902
0.000106019636
0.000107774091
0.000110173391
0.000107219634
0.000107266376
0.000110346324
0.000110044223
0.000106827892
0.00010756162
0.000110339029
0.00010993447
0.000106264441
0.000107810813
0.000110055182
0.000106866752
0.000106812235
0.000107625104
0.000107821263
0.00011030411
0.000109884299
0.000107330273
0.000107944974
0.000110303885
0.000109794039
0.000106593036
0.000107858608
0.000109913057
0.000106783958
0.00010680421
0.000107713767
0.000107890325
0.00011031911
0.000109826455
0.000107372774
0.00010805227
0.000110335493
0.000109749324
0.000106908695
0.000108021087
0.00011033765
0.000109616066
0.000106597247
0.000107811515
0.000110329434
0.00010956854
0.000106417666
0.000107642462
0.000110315428
0.000109667252
0.000106291663
0.000107580043
0.000110232526
0.000110002728
0.000105548947
0.000107874371
0.000110120569
0.000107337937
0.000107397384
0.0001102412
0.000110273323
0.000106054017
0.000107867293
0.00011024824
0.000107471003
0.000107269305
0.000110314572
0.000110288864
0.00010687635
0.000107070254
0.0001103152
0.000110309367
0.000106640092
0.000106843665
0.000110311562
0.000110320572
0.000106507296
0.000106668227
0.000110303393
0.000110324087
0.00010642735
0.00010653424
0.000110298078
0.000110329118
0.000106374085
0.000106432153
0.000110299565
0.000110334335
0.000106342054
0.00010639614
0.000110289313
0.000110339756
0.000106291114
0.000106564017
0.000110292166
0.000110359327
0.000105730461
0.000107838153
0.000110385406
0.000107445342
0.000106875688
0.000110309932
0.000110276022
0.000106374492
0.000107787856
0.000110302024
0.000107527694
0.000107314464
0.00011036317
0.000110143894
0.000106590248
0.000106160003
0.000107771349
0.000110238901
0.000110072761
0.000107026279
0.000107580314
0.000110288079
0.000109965394
0.000106835448
0.000107549998
0.000110292156
0.000109872087
0.000106225798
0.000107830507
0.000109968896
0.000106676528
0.000106629717
0.000107578862
0.00010785786
0.000110292079
0.000109847596
0.000107394223
0.000107999337
0.000110331
0.000109804576
0.000106997586
0.000107958341
0.000110341917
0.000109789325
0.000106726657
0.000107788461
0.000110337509
0.000109735829
0.000106569308
0.000107726023
0.000110327424
0.000109637704
0.000106491338
0.000107731256
0.000110315131
0.000109551192
0.000106459095
0.000107754615
0.000110301267
0.000109499056
0.000106449559
0.000107759645
0.000110284802
0.000109483204
0.00010642423
0.00010772934
0.000110256686
0.000109461916
0.000106281948
0.000107692001
0.000110163948
0.000109503677
0.000105268889
0.000107840935
0.000109792987
0.000107157135
0.000107374268
0.000110291218
0.000109893515
0.000106689153
0.000107482354
0.000110288948
0.000109983528
0.000106677783
0.000107453479
0.000110293767
0.000110044819
0.000106659451
0.000107350482
0.000110301052
0.000110084346
0.000106586425
0.000107201938
0.000110306702
0.000110118506
0.000106501987
0.000107046395
0.000110308913
0.000110151017
0.000106409193
0.000106892164
0.000110306194
0.000110187319
0.000106330614
0.000106758389
0.000110286617
0.000110243221
0.000106239256
0.000106763264
0.000110237182
0.00011034732
0.000105609711
0.000107902235
0.00011031456
0.000106521102
0.000106266094
0.000107531345
0.000107919961
0.000110371375
0.000110339544
0.000107721643
0.000110255324
0.000110529337
0.000105999384
0.00010682934
0.000110243513
0.000110439594
0.000106554458
0.000106626833
0.000110306308
0.000110395253
0.000106642789
0.000106602344
0.000110310917
0.000110389457
0.000106660474
0.00010660022
0.000110294351
0.000110411388
0.000106683111
0.000106728177
0.000110308378
0.000110437549
0.000106355488
0.00010779579
0.000110390858
0.00010743494
0.000106531832
0.000110266182
0.000110391598
0.000106550459
0.000106328266
0.000110260805
0.000110371075
0.000106618528
0.000106348524
0.000107074092
0.000107795817
0.000110257585
0.000110458441
0.000107377989
0.000107265366
0.000110294841
0.00011046854
0.000106599279
0.000107757642
0.00011040261
0.000107647967
0.000106666546
0.000107298086
0.000107794225
0.000110324746
0.000110402703
0.000107562558
0.000107259806
0.000110362828
0.000108526561
0.000106950919
0.000110202092
0.000110441643
0.000106607748
0.000106603792
0.000110229245
0.000110403135
0.000106976622
0.000106680017
0.000110249883
0.000110385744
0.00010680529
0.000106567324
0.00011025548
0.000110392199
0.000106566092
0.000106565668
0.000110280217
0.000110362414
0.000106178958
0.000107206905
0.000110391081
0.000107460873
0.000106539137
0.000107243417
0.000107766741
0.000110344532
0.000110374735
0.000107547361
0.000106685988
0.000107736073
0.000110286305
0.000110430598
0.000107142634
0.000107050347
0.000110312268
0.000110350442
0.000106816881
0.000106749493
0.000110324291
0.000110262561
0.000106572413
0.000106652895
0.000110321197
0.000110173391
0.000106428799
0.000106655143
0.000110315628
0.000110087686
0.000106379663
0.00010673462
0.000110308826
0.000110001591
0.000106366999
0.000106862679
0.000110300048
0.000109915631
0.000106358949
0.000106992482
0.000110289493
0.00010983667
0.000106350314
0.000107125164
0.000110279707
0.000109770483
0.000106342027
0.000107237397
0.000110269842
0.000109722728
0.000106337607
0.000107334864
0.00011026231
0.00010967663
0.000106345127
0.000107431035
0.00011025755
0.000109612273
0.000106354633
0.000107531014
0.000110254367
0.000109532697
0.000106369091
0.000107633711
0.000110251577
0.000109446326
0.000106386026
0.000107730819
0.000110249539
0.000109365537
0.000106395819
0.000107804882
0.000110249547
0.000109305695
0.000106394084
0.000107840161
0.000110252636
0.000109286015
0.000106389716
0.000107834047
0.000110258857
0.00010933579
0.000106396451
0.000107774521
0.000110266924
0.000109450935
0.000106393682
0.000107637742
0.000110274853
0.000109626036
0.000106373758
0.000107438283
0.000110281936
0.000109852687
0.000106340786
0.000107205017
0.000110288988
0.000110030999
0.000106310046
0.000106973231
0.00011029203
0.000110217772
0.000106304401
0.000106926881
0.000110253112
0.000110366931
0.000106137484
0.000107907307
0.000110289493
0.000106916101
0.000106193644
0.000110253282
0.000110363696
0.000106379293
0.000106663896
0.000110235992
0.000110472109
0.000106735432
0.00010780658
0.000110312735
0.000107838972
0.000106401187
0.000108825293
0.000110271479
0.000107288038
0.00010617158
0.000110221601
0.0001102525
0.000106157006
0.00010602392
0.000110156028
0.00011028758
0.000106471328
0.000106394438
0.000110192319
0.000110277744
0.000106735707
0.000106549767
0.000110238192
0.000110291293
0.000106485821
0.00010638344
0.000110267536
0.000110307626
0.000106288679
0.000106350555
0.000110297637
0.000110324047
0.000106172138
0.000107805876
0.000110342922
0.000107543986
0.000106858841
0.000110337524
0.000110202389
0.000106792975
0.000106917883
0.000110334471
0.000110107928
0.000106569866
0.000106923509
0.00011032594
0.000110025061
0.00010645816
0.000106948545
0.000110317338
0.000109952883
0.000106375807
0.000106984215
0.000110309562
0.000109892597
0.000106309493
0.000107015756
0.000110299066
0.000109849303
0.00010627073
0.000107061394
0.000110287232
0.000109824407
0.000106213663
0.000107306709
0.000110254998
0.000109805078
0.000105731013
0.000107854205
0.000109865827
0.00010720342
0.000107605188
0.000110266467
0.000109834734
0.000106209907
0.000107865891
0.000109884419
0.000107309122
0.000107866615
0.000109888517
0.000107732654
0.000108046134
0.000110324667
0.000109848201
0.000107060892
0.00010787027
0.000110323981
0.000109836336
0.000106666964
0.000107628348
0.00011031178
0.00010998491
0.000106440972
0.000107833038
0.000110152767
0.000107839702
0.00010634152
0.000106636395
0.000107306206
0.000110143187
0.000110168821
0.000107638301
0.000107324106
0.000110348106
0.000110021164
0.000107201087
0.000108025066
0.000110271741
0.000109409784
0.000106756792
0.000107891021
0.000110286408
0.000108498582
0.000106709725
0.000107798759
0.000110262665
0.000108354474
0.000106630967
0.000107803608
0.000110251923
0.000108552023
0.000106517214
0.000107983045
0.000110288462
0.000110096153
0.000106384141
0.000107108358
0.000110302556
0.000110061902
0.000106334279
0.000106946379
0.000110307349
0.000110049753
0.000106332008
0.000106967405
0.000110309959
0.000110072407
0.000106333861
0.000106932578
0.00011030926
0.00011007625
0.000106349519
0.000106898893
0.000110307828
0.0001100938
0.000106358019
0.00010717402
0.000110303203
0.000109739771
0.00010633687
0.000107897625
0.000110284538
0.000108129579
0.000106352815
0.000107815265
0.000110253954
0.000107731808
0.000106404235
0.000108301117
0.000110238222
0.000107773277
0.000106461434
0.000109019952
0.000110263044
0.000107624406
0.000106548551
0.000110192218
0.000110293801
0.000107388358
0.000107220868
0.000109029747
0.000107924417
0.000106890995
0.000108551791
0.000110320873
0.000107970759
0.000106884411
0.000110237667
0.000110362755
0.000107583186
0.00010682537
0.000110006175
0.000110377868
0.00010753871
0.000107187968
0.000109967543
0.000108302596
0.000106433579
0.000106442964
0.000107962465
0.000109031984
0.000110228098
0.000108062755
0.000106764759
0.000108476663
0.000110243265
0.000107066059
0.000105948282
0.000107763733
0.000108846606
0.00011030256
0.000108150633
0.000107144018
0.0001077799
0.000110237771
0.000108016701
0.000106670151
0.000107954901
0.000110160053
0.000107699857
0.000105427457
0.000106912305
0.000109820695
0.000110323962
0.000107869022
0.000106894718
0.000107916977
0.000110228956
0.000107955913
0.000106822534
0.000107875651
0.000110253239
0.000107889237
0.00010668175
0.000107855814
0.000110260797
0.000107891553
0.000106568049
0.000107807387
0.000110252083
0.000107963099
0.000106490605
0.000107759561
0.000110235952
0.000108147087
0.000106436429
0.000107760049
0.000110229317
0.000108483299
0.000106402075
0.000107823076
0.000110210218
0.000108789331
0.000106308721
0.000107881044
0.000110150233
0.000108959594
0.000105674044
0.000107948221
0.000109271774
0.000107341538
0.000108014602
0.000110235489
0.000109320488
0.0001067954
0.000108011897
0.000110258802
0.000109365106
0.000106562282
0.00010784596
0.000110267921
0.000109421801
0.000106436753
0.000107671977
0.000110268657
0.000109467404
0.000106365959
0.000107552278
0.000110263202
0.000109493235
0.000106321521
0.000107489209
0.000110249241
0.000109504423
0.000106279481
0.000107474869
0.000110231841
0.000109514
0.000106175267
0.000107620409
0.000110213331
0.000109481505
0.000105731835
0.000107862984
0.000109588211
0.000107200173
0.000107819772
0.000110255548
0.000109492019
0.000106773177
0.000107873613
0.000110258748
0.000109412513
0.000106552778
0.000107828338
0.000110261219
0.000109362983
0.000106414191
0.000107750309
0.000110262347
0.000109363237
0.000106303937
0.000107627183
0.000110266091
0.000109458548
0.000106226929
0.000107603096
0.000110228871
0.000109707528
0.000105910851
0.000107944343
0.000109844946
0.000107365658
0.000107751212
0.000110307651
0.000109898269
0.000106878889
0.000107676398
0.000110319538
0.00010993608
0.000106693875
0.000107531229
0.000110321163
0.000109981931
0.000106593057
0.000107375792
0.000110314485
0.000110030586
0.000106497985
0.000107220673
0.000110292564
0.000110085375
0.000106304763
0.000107161282
0.000110231609
0.00011019785
0.000105417315
0.000107893937
0.000110250668
0.00010622786
0.00010611349
0.00010747347
0.000107851662
0.000110256432
0.000110343682
0.00010691769
0.000107458774
0.00011025264
0.000110361673
0.000105740853
0.00010784356
0.000110351994
0.000106952713
0.000107875562
0.000110337052
0.00010759869
0.000107509094
0.000110335925
0.000110294296
0.000107094844
0.000107284985
0.000110365885
0.000110289917
0.000106824313
0.00010710558
0.000110367495
0.000110286248
0.000106686233
0.000106990219
0.000110357992
0.000110289386
0.000106605614
0.000106896973
0.000110339918
0.000110305635
0.000106517616
0.00010679817
0.000110304812
0.000110342692
0.00010631593
0.000106804301
0.000110259501
0.000110413756
0.000105520354
0.000107860544
0.000110347783
0.000106600856
0.000106250769
0.000107324744
0.000107799879
0.000110219747
0.00011041243
0.000106615295
0.000106330958
0.000107914226
0.000110230527
0.000110427882
0.000107064307
0.000106991453
0.000110246685
0.000110392872
0.000106952362
0.000106826697
0.000110269914
0.000110378871
0.000106784053
0.000106691226
0.000110283506
0.000110367263
0.000106672729
0.000106615662
0.000110287556
0.000110354185
0.000106625873
0.000106582757
0.000110286587
0.000110340217
0.000106605549
0.000106568041
0.000110280879
0.000110325909
0.000106565958
0.000106528003
0.000110270597
0.000110313146
0.000106481947
0.000106433562
0.000110254012
0.000110309158
0.000106333675
0.000106293287
0.000110228534
0.000110320555
0.000106018164
0.000106320274
0.000110234136
0.000110301354
0.00010528837
0.000107160151
0.000110337359
0.000106513091
0.000106062456
0.000106785502
0.000107852496
0.000110286871
0.000110288632
0.000110332895
0.000106933035
0.000106479396
0.000110285953
0.000110327845
0.000106649658
0.000106565665
0.000110299659
0.000110305465
0.000106529673
0.000106550065
0.000110307769
0.00011028965
0.000106451762
0.000106511803
0.000110308043
0.000110270301
0.000106385888
0.000106460616
0.000110304256
0.000110249201
0.000106349152
0.000106419745
0.000110298815
0.000110240903
0.00010630569
0.000106414812
0.000110295198
0.000110229413
0.000106312488
0.000106425849
0.000110293518
0.000110227682
0.000106335124
0.000106434123
0.000110291439
0.000110227701
0.000106323569
0.000106423873
0.000110288367
0.000110221624
0.000106301722
0.000106407991
0.000110288387
0.000110213601
0.000106261558
0.00010636969
0.000110292847
0.000110209174
0.000106222825
0.000106344716
0.000110298207
0.000110205474
0.000106279569
0.000106411337
0.000110301495
0.000110203186
0.000106243484
0.00010670094
0.000110318178
0.00011016667
0.000106129425
0.00010784641
0.000110284658
0.000107441034
0.000106919701
0.000110340838
0.000110040019
0.000106762927
0.000107093019
0.000110325641
0.000109956116
0.00010654197
0.000107074059
0.000110309245
0.000109892536
0.000106443321
0.000107084017
0.000110298096
0.00010984167
0.000106391399
0.000107133753
0.00011028918
0.000109803937
0.00010633129
0.000107373281
0.000110273403
0.000109776247
0.000106063646
0.000107879591
0.00010984778
0.000107181373
0.000107419511
0.000110283019
0.000109774439
0.000106665967
0.000107460322
0.000110284568
0.000109771642
0.000106442282
0.00010751933
0.000110253986
0.000109802779
0.000105955831
0.000107871367
0.000109877192
0.000107163546
0.000107420077
0.0001102839
0.000109896397
0.000106600031
0.000107497887
0.000110236938
0.000109952671
0.000105912051
0.000107858185
0.000109968897
0.0001073609
0.00010742085
0.000110312256
0.000110011297
0.000106814376
0.000107342035
0.000110328138
0.000110047411
0.00010658725
0.000107196052
0.000110328412
0.000110093157
0.000106477213
0.000107128112
0.000110320293
0.000110090645
0.000106406429
0.000107178642
0.000110305104
0.000109966169
0.000106297906
0.000107301906
0.000110231743
0.000109712298
0.00010562682
0.000107919486
0.000110258105
0.000107364444
0.000107326443
0.000110321897
0.000110027519
0.000106772287
0.000107502584
0.000110253934
0.00011006343
0.00010594581
0.000107891428
0.000110271871
0.000106683898
0.000106313662
0.00010775654
0.00010790867
0.000110318507
0.000110342279
0.000107473124
0.000107895418
0.000110375077
0.000110210426
0.000107005942
0.000107624802
0.000110386805
0.000110102846
0.000106737712
0.000107512852
0.000110379726
0.0001100275
0.000106587237
0.000107437978
0.000110370452
0.000109982383
0.000106484621
0.000107382888
0.000110350793
0.000109975954
0.000106402134
0.000107460313
0.000110282042
0.00011002481
0.00010579195
0.000107825068
0.000110030807
0.000107429837
0.000107537075
0.000110314908
0.000110074655
0.000106422262
0.000107843314
0.00011014131
0.000106673068