/*--------------------------------*- C++ -*----------------------------------*\
| =========                 |                                                 |
| \\      /  F ield         | OpenFOAM: The Open Source CFD Toolbox           |
|  \\    /   O peration     | Version:  2306                                  |
|   \\  /    A nd           | Website:  www.openfoam.com                      |
|    \\/     M anipulation  |                                                 |
\*---------------------------------------------------------------------------*/
FoamFile
{
    version     2.0;
    format      ascii;
    arch        "LSB;label=32;scalar=64";
    class       volScalarField;
    location    "0.00116";
    object      prefDZ_T;
}
// * * * * * * * * * * * * * * * * * * * * * * * * * * * * * * * * * * * * * //

dimensions      [1 -1 -1 -1 0 0 0];

internalField   nonuniform List<scalar> 
530
(
-1.22247876e-09
-1.20544056e-09
-1.2040195e-09
-1.20403207e-09
-1.20403318e-09
-1.20403318e-09
-1.20403318e-09
-1.20403318e-09
-1.20403318e-09
-1.20403318e-09
-1.20403318e-09
-1.20403318e-09
-1.20403318e-09
-1.20403318e-09
-1.20403318e-09
-1.20403318e-09
-1.20403318e-09
-1.20403318e-09
-1.20403318e-09
-1.20403318e-09
-1.20403318e-09
-1.20403318e-09
-1.20403318e-09
-1.20403318e-09
-1.20403318e-09
-1.20403318e-09
-1.20403318e-09
-1.20403318e-09
-1.20403318e-09
-1.20403318e-09
-1.20403318e-09
-1.20403318e-09
-1.20403318e-09
-1.20403318e-09
-1.20403318e-09
-1.20403318e-09
-1.20403318e-09
-1.20403318e-09
-1.20403318e-09
-1.20403318e-09
-1.20403318e-09
-1.20403318e-09
-1.20403318e-09
-1.20403318e-09
-1.20403318e-09
-1.20403318e-09
-1.20403318e-09
-1.20403318e-09
-1.20403318e-09
-1.20403318e-09
-1.20403318e-09
-1.20403318e-09
-1.20403318e-09
-1.20403318e-09
-1.20403318e-09
-1.20403318e-09
-1.20403318e-09
-1.20403318e-09
-1.20403318e-09
-1.20403318e-09
-1.20403318e-09
-1.20403318e-09
-1.20403318e-09
-1.20403318e-09
-1.20403318e-09
-1.20403318e-09
-1.20403318e-09
-1.20403318e-09
-1.20403318e-09
-1.20403319e-09
-1.20403319e-09
-1.20403322e-09
-1.20403321e-09
-1.20403322e-09
-1.20403367e-09
-1.20403419e-09
-1.20403229e-09
-1.20403177e-09
-1.20403845e-09
-1.20404632e-09
-1.20403711e-09
-1.20399658e-09
-1.20394954e-09
-1.20404307e-09
-1.20475093e-09
-1.20489513e-09
-1.20248687e-09
-1.19695074e-09
-1.19772422e-09
-1.22168293e-09
-1.2279339e-09
-1.19972202e-09
-1.19007435e-09
-1.18972081e-09
-1.1898986e-09
-1.19951735e-09
-1.22552367e-09
-1.22525181e-09
-1.22965621e-09
-1.19507077e-09
-1.18840385e-09
-1.18872324e-09
-1.18902363e-09
-1.18977349e-09
-1.21695386e-09
-1.22749307e-09
-1.22758208e-09
-1.23003982e-09
-1.22767003e-09
-1.23363638e-09
-1.18622042e-09
-1.18657956e-09
-1.18877716e-09
-1.18909729e-09
-1.18968797e-09
-1.20779831e-09
-1.22737685e-09
-1.22678308e-09
-1.23125761e-09
-1.18711777e-09
-1.18725875e-09
-1.1896349e-09
-1.20812388e-09
-1.22784079e-09
-1.22688099e-09
-1.23140807e-09
-1.18720621e-09
-1.18746724e-09
-1.18917737e-09
-1.20269795e-09
-1.22641583e-09
-1.23027966e-09
-1.18962582e-09
-1.19330038e-09
-1.2270535e-09
-1.23026584e-09
-1.18685601e-09
-1.18694005e-09
-1.19991026e-09
-1.22759337e-09
-1.22970213e-09
-1.18931415e-09
-1.19480632e-09
-1.22741617e-09
-1.21705792e-09
-1.18900343e-09
-1.20195739e-09
-1.22747051e-09
-1.21077657e-09
-1.18873667e-09
-1.20333976e-09
-1.22748209e-09
-1.21199144e-09
-1.18869122e-09
-1.19520766e-09
-1.22705046e-09
-1.22878258e-09
-1.18990823e-09
-1.19308509e-09
-1.22730031e-09
-1.22766819e-09
-1.18999328e-09
-1.18967848e-09
-1.1906829e-09
-1.19072698e-09
-1.19057572e-09
-1.19040238e-09
-1.20033883e-09
-1.22778618e-09
-1.22821339e-09
-1.19168608e-09
-1.19099926e-09
-1.23347996e-09
-1.22878296e-09
-1.18849437e-09
-1.18625833e-09
-1.19194759e-09
-1.23218084e-09
-1.23018762e-09
-1.19231284e-09
-1.19208236e-09
-1.2318609e-09
-1.22141803e-09
-1.1900749e-09
-1.19611909e-09
-1.23307512e-09
-1.21868896e-09
-1.19010983e-09
-1.19617078e-09
-1.2335504e-09
-1.21862318e-09
-1.19030415e-09
-1.19527891e-09
-1.23186229e-09
-1.22238148e-09
-1.19073355e-09
-1.19029662e-09
-1.21458436e-09
-1.23103946e-09
-1.20928302e-09
-1.18724555e-09
-1.18796674e-09
-1.22058752e-09
-1.22805939e-09
-1.19624777e-09
-1.19196376e-09
-1.21898311e-09
-1.22820175e-09
-1.19741048e-09
-1.19077875e-09
-1.20399719e-09
-1.23303246e-09
-1.21992379e-09
-1.18844956e-09
-1.18821919e-09
-1.21125018e-09
-1.22807109e-09
-1.20168963e-09
-1.19091272e-09
-1.20096503e-09
-1.23339818e-09
-1.2225272e-09
-1.18886215e-09
-1.18826658e-09
-1.20900113e-09
-1.23090098e-09
-1.20251248e-09
-1.19204088e-09
-1.21221371e-09
-1.23004803e-09
-1.19927475e-09
-1.19179666e-09
-1.21689803e-09
-1.23123525e-09
-1.19712374e-09
-1.1914376e-09
-1.21839882e-09
-1.23132614e-09
-1.19808545e-09
-1.19049518e-09
-1.20301067e-09
-1.23224006e-09
-1.22028632e-09
-1.18806985e-09
-1.18788625e-09
-1.21080631e-09
-1.23201627e-09
-1.20054944e-09
-1.19138445e-09
-1.21419982e-09
-1.23280937e-09
-1.19865387e-09
-1.19155692e-09
-1.2178726e-09
-1.2338094e-09
-1.19888231e-09
-1.19073578e-09
-1.20426934e-09
-1.23132848e-09
-1.22044611e-09
-1.18810273e-09
-1.18810931e-09
-1.20891138e-09
-1.23239947e-09
-1.20756557e-09
-1.19218009e-09
-1.20980389e-09
-1.23370029e-09
-1.20247552e-09
-1.19144104e-09
-1.20632049e-09
-1.23159051e-09
-1.21528173e-09
-1.18822965e-09
-1.18869098e-09
-1.21109629e-09
-1.23214444e-09
-1.20857889e-09
-1.19169623e-09
-1.20622522e-09
-1.23257703e-09
-1.2091004e-09
-1.18869773e-09
-1.18855839e-09
-1.1891501e-09
-1.1906077e-09
-1.22269878e-09
-1.23089725e-09
-1.21044279e-09
-1.18950887e-09
-1.19035007e-09
-1.21865107e-09
-1.23140761e-09
-1.20906469e-09
-1.19399702e-09
-1.21262328e-09
-1.23324843e-09
-1.20215488e-09
-1.19204553e-09
-1.21371778e-09
-1.23336962e-09
-1.20142189e-09
-1.18793788e-09
-1.18794541e-09
-1.19140695e-09
-1.23270405e-09
-1.23195919e-09
-1.20238817e-09
-1.19028802e-09
-1.19332796e-09
-1.23289635e-09
-1.23217591e-09
-1.20052154e-09
-1.19073085e-09
-1.19867967e-09
-1.2298813e-09
-1.23213473e-09
-1.19984488e-09
-1.18890385e-09
-1.18935819e-09
-1.19689438e-09
-1.23069799e-09
-1.23316928e-09
-1.19665652e-09
-1.18930318e-09
-1.19219382e-09
-1.23391951e-09
-1.23265855e-09
-1.19933128e-09
-1.19436642e-09
-1.2246059e-09
-1.23423501e-09
-1.19424261e-09
-1.18875743e-09
-1.19264166e-09
-1.23332048e-09
-1.23388085e-09
-1.1941149e-09
-1.18902528e-09
-1.19347715e-09
-1.23259841e-09
-1.23373275e-09
-1.19366044e-09
-1.18898784e-09
-1.19364679e-09
-1.23233491e-09
-1.23366046e-09
-1.19315339e-09
-1.18837302e-09
-1.18898864e-09
-1.19785507e-09
-1.22976994e-09
-1.23310889e-09
-1.19391465e-09
-1.18967062e-09
-1.19612362e-09
-1.23087385e-09
-1.23308097e-09
-1.1933317e-09
-1.18931673e-09
-1.19553964e-09
-1.23085271e-09
-1.23264776e-09
-1.19475109e-09
-1.1948594e-09
-1.23302014e-09
-1.23406209e-09
-1.19210525e-09
-1.1928799e-09
-1.2325029e-09
-1.23347434e-09
-1.19098307e-09
-1.18826135e-09
-1.19327537e-09
-1.23142564e-09
-1.23270592e-09
-1.19166996e-09
-1.18852601e-09
-1.19467598e-09
-1.23058287e-09
-1.23240743e-09
-1.19255964e-09
-1.19278348e-09
-1.23213314e-09
-1.23285987e-09
-1.19081229e-09
-1.18836412e-09
-1.19480992e-09
-1.23031851e-09
-1.23227687e-09
-1.19212329e-09
-1.19242937e-09
-1.23166117e-09
-1.23273218e-09
-1.19057082e-09
-1.1881054e-09
-1.19339991e-09
-1.23050487e-09
-1.23178923e-09
-1.19120562e-09
-1.1881551e-09
-1.19325251e-09
-1.23024287e-09
-1.23160115e-09
-1.1912174e-09
-1.18820915e-09
-1.1939716e-09
-1.22974477e-09
-1.23141895e-09
-1.192313e-09
-1.19275187e-09
-1.23062433e-09
-1.2328266e-09
-1.1910514e-09
-1.19177979e-09
-1.23017195e-09
-1.23196875e-09
-1.18985048e-09
-1.18747995e-09
-1.19357907e-09
-1.22941307e-09
-1.23161387e-09
-1.19134793e-09
-1.19177079e-09
-1.22958039e-09
-1.23211194e-09
-1.1908299e-09
-1.19134728e-09
-1.2296918e-09
-1.23066712e-09
-1.19116973e-09
-1.18834945e-09
-1.19580631e-09
-1.22787567e-09
-1.22949852e-09
-1.19414119e-09
-1.18890887e-09
-1.1896416e-09
-1.18987574e-09
-1.19007544e-09
-1.20721421e-09
-1.2264496e-09
-1.2311097e-09
-1.19200161e-09
-1.1930201e-09
-1.22920545e-09
-1.23095215e-09
-1.18983019e-09
-1.18749286e-09
-1.19645521e-09
-1.22839185e-09
-1.23378383e-09
-1.19023136e-09
-1.19305284e-09
-1.22808968e-09
-1.23410692e-09
-1.18989988e-09
-1.19383976e-09
-1.22803252e-09
-1.23063489e-09
-1.1894651e-09
-1.19382363e-09
-1.22816641e-09
-1.23252761e-09
-1.18736834e-09
-1.18724871e-09
-1.19715057e-09
-1.22812065e-09
-1.23143757e-09
-1.18924493e-09
-1.18785683e-09
-1.19789306e-09
-1.22776473e-09
-1.23127912e-09
-1.18971938e-09
-1.18811429e-09
-1.19861695e-09
-1.22783242e-09
-1.23173062e-09
-1.18902078e-09
-1.1880897e-09
-1.19975064e-09
-1.22792445e-09
-1.23459364e-09
-1.18994328e-09
-1.19418768e-09
-1.22777517e-09
-1.23262993e-09
-1.18775842e-09
-1.18773518e-09
-1.20004816e-09
-1.22797438e-09
-1.23416655e-09
-1.18975378e-09
-1.19421035e-09
-1.22764385e-09
-1.23261398e-09
-1.18767387e-09
-1.18750602e-09
-1.19892319e-09
-1.22750717e-09
-1.23126213e-09
-1.18937298e-09
-1.18945282e-09
-1.2051836e-09
-1.22707381e-09
-1.22654999e-09
-1.23364333e-09
-1.18831003e-09
-1.18841916e-09
-1.18943896e-09
-1.18958456e-09
-1.18981692e-09
-1.21013278e-09
-1.2261823e-09
-1.23137203e-09
-1.1899457e-09
-1.18958871e-09
-1.20699828e-09
-1.22649197e-09
-1.23137731e-09
-1.18970101e-09
-1.18798905e-09
-1.18948124e-09
-1.20583886e-09
-1.22616399e-09
-1.23112947e-09
-1.18979411e-09
-1.18856831e-09
-1.20025121e-09
)
;

boundaryField
{
    closed
    {
        type            calculated;
        value           uniform -1.4672577e-09;
    }
    open
    {
        type            calculated;
        value           nonuniform List<scalar> 0();
    }
    sides
    {
        type            empty;
    }
    procBoundary0to1
    {
        type            processor;
        value           uniform -1.22672741e-09;
    }
}


// ************************************************************************* //
