/*--------------------------------*- C++ -*----------------------------------*\
| =========                 |                                                 |
| \\      /  F ield         | OpenFOAM: The Open Source CFD Toolbox           |
|  \\    /   O peration     | Version:  2306                                  |
|   \\  /    A nd           | Website:  www.openfoam.com                      |
|    \\/     M anipulation  |                                                 |
\*---------------------------------------------------------------------------*/
FoamFile
{
    version     2.0;
    format      ascii;
    arch        "LSB;label=32;scalar=64";
    class       volScalarField;
    location    "0.00116";
    object      prefDh_H2O;
}
// * * * * * * * * * * * * * * * * * * * * * * * * * * * * * * * * * * * * * //

dimensions      [1 1 -3 0 0 0 0];

internalField   nonuniform List<scalar> 
530
(
91.3105235
89.8883419
89.8160854
89.8192845
89.8195698
89.8195746
89.8195748
89.8195748
89.8195748
89.8195748
89.8195748
89.8195748
89.8195748
89.8195748
89.8195748
89.8195748
89.8195748
89.8195748
89.8195748
89.8195748
89.8195748
89.8195748
89.8195748
89.8195748
89.8195748
89.8195748
89.8195748
89.8195748
89.8195748
89.8195748
89.8195748
89.8195748
89.8195748
89.8195748
89.8195748
89.8195748
89.8195748
89.8195748
89.8195748
89.8195748
89.8195748
89.8195748
89.8195748
89.8195748
89.8195748
89.8195748
89.8195748
89.8195748
89.8195748
89.8195748
89.8195748
89.8195748
89.8195748
89.8195748
89.8195748
89.8195748
89.8195748
89.8195748
89.8195748
89.8195748
89.8195748
89.8195748
89.8195748
89.8195748
89.8195748
89.8195748
89.8195747
89.8195746
89.8195743
89.8195737
89.8195728
89.8195707
89.8195615
89.8195463
89.8195697
89.8195797
89.8192948
89.8191225
89.8197373
89.8203842
89.8191302
89.8142082
89.8085692
89.8185381
89.8973262
89.9126092
89.6404045
88.9987248
89.0870908
91.7362898
92.3959012
89.3253087
88.1521723
88.1396944
88.1512591
89.306205
92.1804194
92.151236
92.5931454
88.7938311
87.962426
88.019891
88.0363707
88.1444168
91.2322397
92.3815279
92.3893254
92.6361517
92.3977174
92.9907745
87.693905
87.7179041
88.0067447
88.0373711
88.1231507
90.2317747
92.3706999
92.3110964
92.7503363
87.8027685
87.8077496
88.1106157
90.2666271
92.4180535
92.3218477
92.7657096
87.8137065
87.8257004
88.0617269
89.6505194
92.2710997
92.6507543
88.1217707
88.5321813
92.3348333
92.6523994
87.7807082
87.7652168
89.3382531
92.3904633
92.5888079
88.0812936
88.7383649
92.3703374
91.2430214
88.0484231
89.5809892
92.3747113
90.5647132
88.019047
89.7399891
92.3752127
90.6965696
88.0200588
88.794982
92.3322204
92.4944791
88.1867997
88.5233597
92.3604771
92.392257
88.1879488
88.1052898
88.247812
88.2444192
88.2316168
88.2147989
89.3921846
92.4102763
92.4416266
88.3966603
88.267588
92.9847504
92.5032508
88.0236293
87.6852846
88.396838
92.8545554
92.6403446
88.4746127
88.4110582
92.8142914
91.7100589
88.1768021
88.9138668
92.9434828
91.418474
88.1821212
88.9257394
92.990081
91.4115292
88.2043934
88.8209805
92.812845
91.8135459
88.2604114
88.1787237
90.9766317
92.7321538
90.4038921
87.8263663
87.899107
91.6209215
92.4133366
88.9233158
88.401823
91.4497641
92.4297794
89.0590364
88.2341857
89.8105735
92.9357165
91.5491688
87.9868804
87.9278674
90.6156502
92.4152043
89.5514294
88.2457857
89.4654051
92.9728269
91.8261412
88.0371034
87.9304538
90.3697232
92.7100278
89.6457324
88.3999624
90.7199093
92.6207843
89.2750782
88.3741908
91.2259929
92.7445889
89.0252044
88.3285947
91.3866481
92.7551192
89.139673
88.1877013
89.7009082
92.8521699
91.5870887
87.9280734
87.8847679
90.5675569
92.824946
89.4237355
88.3098531
90.9354839
92.9078928
89.2033899
88.3297964
91.3303841
93.0133184
89.2305848
88.2157556
89.8422911
92.7598469
91.6043046
87.9232279
87.9059696
90.3589363
92.8694128
90.2120324
88.4015942
90.4566495
93.0012597
89.6410889
88.3030795
90.0712536
92.7869312
91.0523654
87.9290054
87.9800389
90.5974449
92.8444381
90.3237359
88.3444781
90.060968
92.8868731
90.3817166
87.9763436
87.9695329
88.0365132
88.2262512
91.8480308
92.7209945
90.5273846
88.0807223
88.1925552
91.4147427
92.7715787
90.3764041
88.632765
90.7641925
92.9551826
89.6064926
88.3929559
90.8833311
92.9676244
89.5286367
87.8828582
87.8928184
88.3386334
92.9051381
92.828807
89.6318748
88.1652406
88.5719678
92.9236876
92.8501664
89.4193644
88.2244464
89.2065758
92.617596
92.8473903
89.3383382
88.0009833
88.058699
88.9967544
92.7002404
92.9507624
88.9714815
88.047805
88.4420689
93.0259122
92.8972229
89.2778044
88.6813073
92.0461547
93.0555774
88.6889603
87.9737444
88.4982691
92.9649695
93.0205992
88.6654183
88.003568
88.5958924
92.8912314
93.005662
88.6087082
87.9965028
88.6150843
92.8646079
92.9981041
88.5405488
87.9326933
88.021515
89.1019703
92.6053428
92.9437661
88.6345205
88.0762165
88.9041301
92.7165289
92.9397917
88.5625524
88.0325054
88.8362923
92.7145357
92.8952037
88.7119514
88.7289308
92.9318292
93.0359089
88.3770235
88.4821158
92.8782415
92.9778241
88.2705032
87.8988615
88.5675041
92.7711816
92.8990946
88.3561334
87.9334552
88.7327395
92.6869395
92.8691113
88.4365493
88.4701457
92.8406641
92.9151452
88.2412534
87.9102285
88.7471161
92.6605917
92.8554344
88.3804481
88.4264591
92.7927565
92.9020808
88.2074579
87.8780517
88.5772181
92.6781674
92.8059431
88.292718
87.8888743
88.5594667
92.6514297
92.7871782
88.2971167
87.8970219
88.6475001
92.602449
92.7689621
88.4090531
88.4698854
92.6887613
92.9112801
88.2475952
88.3454773
92.6413891
92.824642
88.1254783
87.8110348
88.6036361
92.568444
92.7870038
88.2950504
88.3586541
92.582629
92.8390339
88.2300036
88.305826
92.592188
92.6946874
88.3045042
87.9285355
88.8700062
92.4140868
92.5771193
88.6618092
88.005672
88.1128621
88.1312979
88.1714167
90.1661217
92.2733821
92.7396504
88.3967257
88.5200866
92.5427136
92.7224631
88.1256485
87.8272168
88.9387075
92.4667024
93.0046182
88.1702467
88.5049649
92.4346477
93.0375009
88.1342166
88.5995404
92.429474
92.6761097
88.0827726
88.6047465
92.4426737
92.8810909
87.8185451
87.7928147
89.0189353
92.4403352
92.7711623
88.0485532
87.8746093
89.107628
92.4039906
92.7559994
88.1093729
87.906873
89.191395
92.4112583
92.8010288
88.0189635
87.9016089
89.3161042
92.4217926
93.0864591
88.1422381
88.6502163
92.403843
92.8927601
87.8664255
87.8552923
89.3507117
92.4269998
93.0412933
88.1222999
88.6558642
92.3903855
92.8907536
87.86088
87.8329934
89.2288196
92.3783071
92.7534998
88.0726544
88.0776848
89.9426804
92.3419594
92.2857234
92.9920519
87.9322394
87.9333928
88.0855719
88.0911798
88.1523647
90.488538
92.246881
92.7665507
88.14737
88.1008184
90.1427421
92.2785287
92.7663891
88.1182909
87.9002238
88.1131128
90.010947
92.2442112
92.7426973
88.1353739
87.972318
89.3830977
)
;

boundaryField
{
    closed
    {
        type            calculated;
        value           uniform 120.258108;
    }
    open
    {
        type            calculated;
        value           nonuniform List<scalar> 0();
    }
    sides
    {
        type            empty;
    }
    procBoundary0to1
    {
        type            processor;
        value           uniform 92.299698;
    }
}


// ************************************************************************* //
