/*--------------------------------*- C++ -*----------------------------------*\
| =========                 |                                                 |
| \\      /  F ield         | OpenFOAM: The Open Source CFD Toolbox           |
|  \\    /   O peration     | Version:  2306                                  |
|   \\  /    A nd           | Website:  www.openfoam.com                      |
|    \\/     M anipulation  |                                                 |
\*---------------------------------------------------------------------------*/
FoamFile
{
    version     2.0;
    format      ascii;
    arch        "LSB;label=32;scalar=64";
    class       volVectorField;
    location    "0.00116";
    object      U;
}
// * * * * * * * * * * * * * * * * * * * * * * * * * * * * * * * * * * * * * //

dimensions      [0 1 -1 0 0 0 0];

internalField   nonuniform List<vector> 
530
(
(0.784394818 0 0)
(1.20216175 0 0)
(0.449459883 0 0)
(-0.0474431762 0 0)
(-0.187494419 0 0)
(-0.535559612 0 0)
(-0.885802028 0 0)
(-0.456850683 0 0)
(0.649047772 0 0)
(0.852292305 0 0)
(0.279502415 0 0)
(0.516293238 0 0)
(1.09650648 0 0)
(1.18881363 0 0)
(0.234791544 0 0)
(-1.23667055 0 0)
(-1.73586593 0 0)
(-1.05622735 0 0)
(0.374510417 0 0)
(1.9462435 0 0)
(2.02736316 0 0)
(0.581154377 0 0)
(-0.468368745 0 0)
(-0.684621474 0 0)
(-0.404856623 0 0)
(0.280760579 0 0)
(0.429393449 0 0)
(-0.38353147 0 0)
(-0.866648397 0 0)
(-0.123977227 0 0)
(0.747988645 0 0)
(1.14810593 0 0)
(2.11106716 0 0)
(2.98619497 0 0)
(2.05355252 0 0)
(-0.274668365 0 0)
(-2.11764018 0 0)
(-2.14343885 0 0)
(-0.774260048 0 0)
(0.127109419 0 0)
(-0.291614034 0 0)
(-0.363062145 0 0)
(0.913943221 0 0)
(1.6995149 0 0)
(0.736706059 0 0)
(-0.848230523 0 0)
(-1.60780755 0 0)
(-1.31148955 0 0)
(-0.698717459 0 0)
(-0.397296191 0 0)
(-0.322859413 0 0)
(-0.0943821343 0 0)
(0.312736525 0 0)
(0.64288734 0 0)
(0.745103807 0 0)
(0.625476884 0 0)
(0.349903217 0 0)
(-0.0124626014 0 0)
(-0.390792019 0 0)
(-0.691566324 0 0)
(-0.844618967 0 0)
(-0.865982957 0 0)
(-0.81389659 0 0)
(-0.745697262 0 0)
(-0.683185966 0 0)
(-0.633378507 0 0)
(-0.597603336 0 0)
(-0.574598399 0 0)
(-0.562549854 0 0)
(-0.559349029 0 0)
(-0.562215361 0 0)
(-0.571499329 0 0)
(-0.583080122 0 0)
(-0.597748814 0 0)
(-0.612152179 0 0)
(-0.625148864 0 0)
(-0.636053797 0 0)
(-0.64298648 0 0)
(-0.646870862 0 0)
(-0.646821691 0 0)
(-0.64383196 0 0)
(-0.636928341 0 0)
(-0.627195473 0 0)
(-0.614373831 0 0)
(-0.599909511 0 0)
(-0.582642693 0 0)
(-0.566092107 0 0)
(-0.545603149 0 0)
(-0.532536614 0 0)
(-0.505626909 0 0)
(-0.45676459 0 0)
(-0.425987523 0 0)
(-0.414159664 0 0)
(-0.392551696 0 0)
(-0.367562074 0 0)
(-0.343624386 0 0)
(-0.328958805 0 0)
(-0.31916895 0 0)
(-0.280316824 0 0)
(-0.254847406 0 0)
(-0.2418437 0 0)
(-0.223269074 0 0)
(-0.20818659 0 0)
(-0.197693207 0 0)
(-0.177166783 0 0)
(-0.153879702 0 0)
(-0.142731803 0 0)
(-0.130902236 0 0)
(-0.118540699 0 0)
(-0.0778118536 0 0)
(-0.0553140462 0 0)
(-0.0498585043 0 0)
(-0.0404256951 0 0)
(-0.0280530517 0 0)
(-0.0163853581 0 0)
(-0.00467058739 0 0)
(0.0125799776 0 0)
(0.0146441541 0 0)
(0.0498833121 0 0)
(0.0759688573 0 0)
(0.0893605365 0 0)
(0.0950765485 0 0)
(0.102728467 0 0)
(0.121324915 0 0)
(0.126246862 0 0)
(0.163886798 0 0)
(0.188993346 0 0)
(0.204989828 0 0)
(0.216493584 0 0)
(0.226674905 0 0)
(0.239557956 0 0)
(0.279712612 0 0)
(0.30720726 0 0)
(0.321708868 0 0)
(0.344771797 0 0)
(0.386167063 0 0)
(0.419955014 0 0)
(0.442018228 0 0)
(0.465631221 0 0)
(0.491209456 0 0)
(0.535333572 0 0)
(0.570985501 0 0)
(0.603978261 0 0)
(0.652378003 0 0)
(0.700305777 0 0)
(0.749491089 0 0)
(0.779412385 0 0)
(0.836190767 0 0)
(0.879412876 0 0)
(0.930811124 0 0)
(0.97296705 0 0)
(1.04222222 0 0)
(1.09952469 0 0)
(1.17105847 0 0)
(1.24597744 0 0)
(1.3519285 0 0)
(1.45620277 0 0)
(1.50051001 0 0)
(1.58277726 0 0)
(1.73378935 0 0)
(1.86103188 0 0)
(1.98934374 0 0)
(2.16990687 0 0)
(2.31586646 0 0)
(2.45634413 0 0)
(2.61029763 0 0)
(2.76782442 0 0)
(2.91592907 0 0)
(3.14597725 0 0)
(3.35399515 0 0)
(3.44161898 0 0)
(3.63170725 0 0)
(3.90286497 0 0)
(4.12582099 0 0)
(4.3858918 0 0)
(4.75325987 0 0)
(5.13374472 0 0)
(5.56845274 0 0)
(5.91318798 0 0)
(6.03161875 0 0)
(6.30399614 0 0)
(6.6355078 0 0)
(6.84410221 0 0)
(7.20608293 0 0)
(7.52727735 0 0)
(7.96451146 0 0)
(8.22887128 0 0)
(8.50878449 0 0)
(8.74642239 0 0)
(9.08891085 0 0)
(9.25086283 0 0)
(9.46386621 0 0)
(9.63594562 0 0)
(9.85104108 0 0)
(9.87150504 0 0)
(9.9020267 0 0)
(9.83918466 0 0)
(9.68219238 0 0)
(9.35603756 0 0)
(8.94531308 0 0)
(8.61928842 0 0)
(8.20091287 0 0)
(7.70590602 0 0)
(7.1200833 0 0)
(6.54505222 0 0)
(6.03216231 0 0)
(5.60215341 0 0)
(4.9996499 0 0)
(4.53947613 0 0)
(4.11379826 0 0)
(3.83688217 0 0)
(3.44852026 0 0)
(3.1246716 0 0)
(2.90872415 0 0)
(2.74177636 0 0)
(2.51725577 0 0)
(2.16568984 0 0)
(1.95265138 0 0)
(1.72531537 0 0)
(1.60101588 0 0)
(1.31372896 0 0)
(1.07974982 0 0)
(0.917915218 0 0)
(0.757362394 0 0)
(0.563944789 0 0)
(0.273887518 0 0)
(0.133195938 0 0)
(-0.0727430923 0 0)
(-0.198114947 0 0)
(-0.416013637 0 0)
(-0.502867961 0 0)
(-0.682670729 0 0)
(-0.780695052 0 0)
(-0.926754909 0 0)
(-0.957441271 0 0)
(-1.07098728 0 0)
(-1.11130251 0 0)
(-1.20108624 0 0)
(-1.19307108 0 0)
(-1.29265265 0 0)
(-1.31792003 0 0)
(-1.44250543 0 0)
(-1.50349977 0 0)
(-1.57384933 0 0)
(-1.65139493 0 0)
(-1.71249867 0 0)
(-1.82211381 0 0)
(-1.84146829 0 0)
(-1.95029611 0 0)
(-1.97272617 0 0)
(-2.07449528 0 0)
(-2.07289388 0 0)
(-2.16579218 0 0)
(-2.1750854 0 0)
(-2.23278157 0 0)
(-2.19948994 0 0)
(-2.261485 0 0)
(-2.25125488 0 0)
(-2.33877808 0 0)
(-2.35930294 0 0)
(-2.38811866 0 0)
(-2.4015662 0 0)
(-2.37487889 0 0)
(-2.42078408 0 0)
(-2.41111836 0 0)
(-2.433859 0 0)
(-2.37702252 0 0)
(-2.42181306 0 0)
(-2.39612872 0 0)
(-2.42436912 0 0)
(-2.39078813 0 0)
(-2.46734861 0 0)
(-2.54301617 0 0)
(-2.58183247 0 0)
(-2.57627538 0 0)
(-2.57819225 0 0)
(-2.65867223 0 0)
(-2.7222668 0 0)
(-2.77287433 0 0)
(-2.77280772 0 0)
(-2.88281942 0 0)
(-2.97901286 0 0)
(-3.03637609 0 0)
(-3.09025057 0 0)
(-3.15819509 0 0)
(-3.19491918 0 0)
(-3.18990515 0 0)
(-3.24619149 0 0)
(-3.34452508 0 0)
(-3.4071712 0 0)
(-3.42476788 0 0)
(-3.40554213 0 0)
(-3.45478302 0 0)
(-3.50680273 0 0)
(-3.53282006 0 0)
(-3.50708171 0 0)
(-3.53839548 0 0)
(-3.52359765 0 0)
(-3.50621861 0 0)
(-3.4246701 0 0)
(-3.40181608 0 0)
(-3.35337505 0 0)
(-3.27959232 0 0)
(-3.2148536 0 0)
(-3.19597432 0 0)
(-3.14076874 0 0)
(-3.03810699 0 0)
(-2.95207808 0 0)
(-2.86669786 0 0)
(-2.8254501 0 0)
(-2.74150978 0 0)
(-2.64574946 0 0)
(-2.57594274 0 0)
(-2.51365296 0 0)
(-2.48774654 0 0)
(-2.46588542 0 0)
(-2.45236809 0 0)
(-2.42143955 0 0)
(-2.3975523 0 0)
(-2.38028879 0 0)
(-2.39490426 0 0)
(-2.40920181 0 0)
(-2.410812 0 0)
(-2.38902906 0 0)
(-2.38511042 0 0)
(-2.42387228 0 0)
(-2.37030213 0 0)
(-2.28204762 0 0)
(-2.25547973 0 0)
(-2.24043778 0 0)
(-2.18117558 0 0)
(-2.11002289 0 0)
(-2.06782766 0 0)
(-2.04733944 0 0)
(-2.07210746 0 0)
(-2.0602046 0 0)
(-2.00276822 0 0)
(-1.93886368 0 0)
(-1.89941247 0 0)
(-1.89710391 0 0)
(-1.85570745 0 0)
(-1.77149775 0 0)
(-1.68651446 0 0)
(-1.63133907 0 0)
(-1.61871636 0 0)
(-1.57666636 0 0)
(-1.5034052 0 0)
(-1.43539285 0 0)
(-1.3883812 0 0)
(-1.35433531 0 0)
(-1.33557792 0 0)
(-1.30145431 0 0)
(-1.24604079 0 0)
(-1.19483238 0 0)
(-1.16714119 0 0)
(-1.16713527 0 0)
(-1.13151795 0 0)
(-1.07306708 0 0)
(-1.02410255 0 0)
(-0.99552426 0 0)
(-0.990617892 0 0)
(-0.94877925 0 0)
(-0.894265347 0 0)
(-0.860574419 0 0)
(-0.841980207 0 0)
(-0.792040177 0 0)
(-0.723870391 0 0)
(-0.718028554 0 0)
(-0.737314172 0 0)
(-0.702573738 0 0)
(-0.646519504 0 0)
(-0.648215892 0 0)
(-0.674708725 0 0)
(-0.69019556 0 0)
(-0.670551047 0 0)
(-0.621998927 0 0)
(-0.589688914 0 0)
(-0.581476092 0 0)
(-0.588082852 0 0)
(-0.564566668 0 0)
(-0.523985858 0 0)
(-0.502532447 0 0)
(-0.5016471 0 0)
(-0.470183049 0 0)
(-0.412617725 0 0)
(-0.406019684 0 0)
(-0.418718558 0 0)
(-0.418858226 0 0)
(-0.39486028 0 0)
(-0.355282603 0 0)
(-0.351817206 0 0)
(-0.368691741 0 0)
(-0.342224439 0 0)
(-0.298916261 0 0)
(-0.3035992 0 0)
(-0.326768989 0 0)
(-0.338518266 0 0)
(-0.327502332 0 0)
(-0.300059256 0 0)
(-0.306971677 0 0)
(-0.336055009 0 0)
(-0.360894286 0 0)
(-0.366512189 0 0)
(-0.354943707 0 0)
(-0.374353607 0 0)
(-0.411082806 0 0)
(-0.439183306 0 0)
(-0.447553416 0 0)
(-0.436950948 0 0)
(-0.434558044 0 0)
(-0.44845058 0 0)
(-0.445234524 0 0)
(-0.422955564 0 0)
(-0.432784001 0 0)
(-0.462526029 0 0)
(-0.462235398 0 0)
(-0.439936096 0 0)
(-0.445048674 0 0)
(-0.461508868 0 0)
(-0.466986321 0 0)
(-0.463406901 0 0)
(-0.442426393 0 0)
(-0.437591705 0 0)
(-0.44870882 0 0)
(-0.435174433 0 0)
(-0.406550881 0 0)
(-0.401648918 0 0)
(-0.41437147 0 0)
(-0.401088115 0 0)
(-0.372022137 0 0)
(-0.357132524 0 0)
(-0.353428342 0 0)
(-0.358343036 0 0)
(-0.359817846 0 0)
(-0.35292403 0 0)
(-0.349027485 0 0)
(-0.354076988 0 0)
(-0.359605319 0 0)
(-0.367215172 0 0)
(-0.377370822 0 0)
(-0.392510444 0 0)
(-0.408303299 0 0)
(-0.418385011 0 0)
(-0.42849836 0 0)
(-0.452285786 0 0)
(-0.467220167 0 0)
(-0.472632452 0 0)
(-0.49834804 0 0)
(-0.527635453 0 0)
(-0.550227399 0 0)
(-0.579600929 0 0)
(-0.592775318 0 0)
(-0.602242525 0 0)
(-0.630324688 0 0)
(-0.657773433 0 0)
(-0.6656431 0 0)
(-0.669962657 0 0)
(-0.695537267 0 0)
(-0.722563264 0 0)
(-0.736556967 0 0)
(-0.742856713 0 0)
(-0.763883576 0 0)
(-0.793524679 0 0)
(-0.797960243 0 0)
(-0.797088946 0 0)
(-0.814793713 0 0)
(-0.829745511 0 0)
(-0.854986155 0 0)
(-0.857827068 0 0)
(-0.855796333 0 0)
(-0.866642706 0 0)
(-0.870047326 0 0)
(-0.886702732 0 0)
(-0.883706691 0 0)
(-0.878621563 0 0)
(-0.885869587 0 0)
(-0.885227889 0 0)
(-0.900667501 0 0)
(-0.89657496 0 0)
(-0.888956243 0 0)
(-0.897653719 0 0)
(-0.901165693 0 0)
(-0.917886864 0 0)
(-0.915148177 0 0)
(-0.898208579 0 0)
(-0.904000162 0 0)
(-0.923194427 0 0)
(-0.915848518 0 0)
(-0.903944535 0 0)
(-0.912006222 0 0)
(-0.914730018 0 0)
(-0.927725586 0 0)
(-0.917964066 0 0)
(-0.893298754 0 0)
(-0.890963307 0 0)
(-0.900216513 0 0)
(-0.880795042 0 0)
(-0.857688184 0 0)
(-0.854169688 0 0)
(-0.843891602 0 0)
(-0.845005105 0 0)
(-0.823495217 0 0)
(-0.799149774 0 0)
(-0.790431438 0 0)
(-0.770325878 0 0)
(-0.758224916 0 0)
(-0.747853135 0 0)
(-0.703919536 0 0)
(-0.675393696 0 0)
(-0.664657615 0 0)
(-0.647353555 0 0)
(-0.625017504 0 0)
(-0.598090587 0 0)
(-0.573111682 0 0)
(-0.553784648 0 0)
(-0.522423027 0 0)
(-0.501004908 0 0)
(-0.492369639 0 0)
(-0.479882299 0 0)
(-0.467048952 0 0)
(-0.441598284 0 0)
(-0.426505522 0 0)
(-0.421560807 0 0)
(-0.403896753 0 0)
(-0.391344524 0 0)
(-0.377777849 0 0)
(-0.350126041 0 0)
(-0.332435142 0 0)
(-0.327017024 0 0)
(-0.316979329 0 0)
)
;

boundaryField
{
    closed
    {
        type            noSlip;
    }
    open
    {
        type            inletOutlet;
        inletValue      nonuniform List<vector> 0();
        value           nonuniform List<vector> 0();
    }
    sides
    {
        type            empty;
    }
    procBoundary0to1
    {
        type            processor;
        value           uniform (-0.301687 0 0);
    }
}


// ************************************************************************* //
