/*--------------------------------*- C++ -*----------------------------------*\
| =========                 |                                                 |
| \\      /  F ield         | OpenFOAM: The Open Source CFD Toolbox           |
|  \\    /   O peration     | Version:  2306                                  |
|   \\  /    A nd           | Website:  www.openfoam.com                      |
|    \\/     M anipulation  |                                                 |
\*---------------------------------------------------------------------------*/
FoamFile
{
    version     2.0;
    format      ascii;
    arch        "LSB;label=32;scalar=64";
    class       volScalarField;
    location    "0.001";
    object      prefDZ_T;
}
// * * * * * * * * * * * * * * * * * * * * * * * * * * * * * * * * * * * * * //

dimensions      [1 -1 -1 -1 0 0 0];

internalField   nonuniform List<scalar> 
530
(
-1.23100272e-09
-1.18673506e-09
-1.18677468e-09
-1.18997777e-09
-1.18998555e-09
-1.20498888e-09
-1.22607867e-09
-1.23063853e-09
-1.18936518e-09
-1.19185033e-09
-1.22609692e-09
-1.23081085e-09
-1.18896275e-09
-1.19198318e-09
-1.22663574e-09
-1.23111879e-09
-1.18687232e-09
-1.18765252e-09
-1.20593582e-09
-1.22845054e-09
-1.22676823e-09
-1.23237315e-09
-1.18624445e-09
-1.18669906e-09
-1.18929509e-09
-1.19020945e-09
-1.20975782e-09
-1.22770138e-09
-1.22703485e-09
-1.231952e-09
-1.18652895e-09
-1.18682073e-09
-1.20270359e-09
-1.22769276e-09
-1.23152683e-09
-1.18721492e-09
-1.18752083e-09
-1.205332e-09
-1.22814067e-09
-1.22674963e-09
-1.23218083e-09
-1.18682183e-09
-1.18714834e-09
-1.20354328e-09
-1.22788858e-09
-1.23190173e-09
-1.18655805e-09
-1.1867078e-09
-1.18977778e-09
-1.19046107e-09
-1.21162248e-09
-1.22786655e-09
-1.22717266e-09
-1.23242973e-09
-1.18713443e-09
-1.18745892e-09
-1.20586544e-09
-1.22773163e-09
-1.23196784e-09
-1.18772664e-09
-1.18783204e-09
-1.20628637e-09
-1.22761412e-09
-1.23189059e-09
-1.18781695e-09
-1.18801738e-09
-1.20709516e-09
-1.22762128e-09
-1.23207816e-09
-1.18803284e-09
-1.18815643e-09
-1.20924781e-09
-1.22772443e-09
-1.23214197e-09
-1.1868678e-09
-1.18703232e-09
-1.19006138e-09
-1.19024633e-09
-1.20577061e-09
-1.22648995e-09
-1.23178502e-09
-1.18932178e-09
-1.19398308e-09
-1.22745447e-09
-1.22698608e-09
-1.23263848e-09
-1.18585586e-09
-1.18606791e-09
-1.20110071e-09
-1.22833052e-09
-1.23307892e-09
-1.18648482e-09
-1.18666039e-09
-1.21096038e-09
-1.22858638e-09
-1.23013813e-09
-1.22884096e-09
-1.23035258e-09
-1.18517416e-09
-1.18550846e-09
-1.18971731e-09
-1.19723452e-09
-1.22684414e-09
-1.2325618e-09
-1.18831972e-09
-1.19159806e-09
-1.22698933e-09
-1.23305214e-09
-1.18814614e-09
-1.19179306e-09
-1.22741596e-09
-1.23329121e-09
-1.18631527e-09
-1.18721449e-09
-1.20208232e-09
-1.22879173e-09
-1.2268993e-09
-1.23371456e-09
-1.18630927e-09
-1.18681335e-09
-1.20182225e-09
-1.22846153e-09
-1.232651e-09
-1.18667911e-09
-1.18683904e-09
-1.20070139e-09
-1.22791549e-09
-1.23270544e-09
-1.18844691e-09
-1.19193107e-09
-1.22790691e-09
-1.23324205e-09
-1.1855734e-09
-1.18606172e-09
-1.19913482e-09
-1.22815935e-09
-1.23290636e-09
-1.1879648e-09
-1.19132453e-09
-1.22734901e-09
-1.23351826e-09
-1.18786968e-09
-1.19127876e-09
-1.22711716e-09
-1.23360688e-09
-1.18792275e-09
-1.19148788e-09
-1.2269812e-09
-1.23345335e-09
-1.18816301e-09
-1.19180919e-09
-1.22688927e-09
-1.23323956e-09
-1.1883935e-09
-1.19220402e-09
-1.22724679e-09
-1.23316419e-09
-1.18662421e-09
-1.18761894e-09
-1.20161861e-09
-1.22887619e-09
-1.22686876e-09
-1.23423768e-09
-1.1859279e-09
-1.18645953e-09
-1.18925861e-09
-1.18968339e-09
-1.20147013e-09
-1.22691727e-09
-1.23245523e-09
-1.18887789e-09
-1.19187838e-09
-1.22681257e-09
-1.23285702e-09
-1.18871205e-09
-1.19199954e-09
-1.22678951e-09
-1.23298879e-09
-1.18863222e-09
-1.1921989e-09
-1.22728833e-09
-1.23327605e-09
-1.18692913e-09
-1.18756365e-09
-1.21006726e-09
-1.22838206e-09
-1.23010206e-09
-1.22855164e-09
-1.23290332e-09
-1.18582585e-09
-1.18619268e-09
-1.18928689e-09
-1.18938968e-09
-1.20122994e-09
-1.22766532e-09
-1.23242215e-09
-1.18600428e-09
-1.18630951e-09
-1.19833176e-09
-1.22788474e-09
-1.23271815e-09
-1.18796685e-09
-1.19129073e-09
-1.22727966e-09
-1.23292128e-09
-1.18809987e-09
-1.19159886e-09
-1.22736545e-09
-1.22657532e-09
-1.23365947e-09
-1.18878842e-09
-1.19067523e-09
-1.22765088e-09
-1.23336579e-09
-1.18670267e-09
-1.19949726e-09
-1.23292193e-09
-1.19050534e-09
-1.19201784e-09
-1.2267619e-09
-1.23258096e-09
-1.18742597e-09
-1.18806454e-09
-1.19042819e-09
-1.20039497e-09
-1.22666575e-09
-1.23186799e-09
-1.18751211e-09
-1.1879846e-09
-1.20146886e-09
-1.2272422e-09
-1.23206144e-09
-1.18940089e-09
-1.19327475e-09
-1.22713517e-09
-1.23213427e-09
-1.18709822e-09
-1.18757515e-09
-1.20067316e-09
-1.22780075e-09
-1.23225858e-09
-1.1872354e-09
-1.18775872e-09
-1.20171569e-09
-1.22859604e-09
-1.22723199e-09
-1.23464138e-09
-1.1843627e-09
-1.18494698e-09
-1.22365911e-09
-1.2335783e-09
-1.18962514e-09
-1.1946768e-09
-1.2273859e-09
-1.22898099e-09
-1.22814875e-09
-1.22375176e-09
-1.18557836e-09
-1.1860996e-09
-1.18872013e-09
-1.18963553e-09
-1.20125355e-09
-1.22769761e-09
-1.22667774e-09
-1.23318318e-09
-1.1866711e-09
-1.18710043e-09
-1.20040932e-09
-1.22800426e-09
-1.23262959e-09
-1.18696066e-09
-1.18748225e-09
-1.20046669e-09
-1.22826661e-09
-1.22678163e-09
-1.23359137e-09
-1.18622498e-09
-1.18667345e-09
-1.19927395e-09
-1.22779695e-09
-1.23276194e-09
-1.18862011e-09
-1.19230524e-09
-1.22749172e-09
-1.23303988e-09
-1.18665212e-09
-1.18719398e-09
-1.19974303e-09
-1.2277021e-09
-1.23265847e-09
-1.18899947e-09
-1.19268305e-09
-1.22739178e-09
-1.23295659e-09
-1.18663564e-09
-1.18742742e-09
-1.19993316e-09
-1.22855411e-09
-1.22682768e-09
-1.23428365e-09
-1.18586186e-09
-1.18638665e-09
-1.18932098e-09
-1.19677752e-09
-1.2266926e-09
-1.23291898e-09
-1.18855775e-09
-1.19193407e-09
-1.22670616e-09
-1.23318406e-09
-1.18857333e-09
-1.19230094e-09
-1.22698651e-09
-1.2332077e-09
-1.18683194e-09
-1.18781647e-09
-1.20034206e-09
-1.22787475e-09
-1.22581493e-09
-1.23350723e-09
-1.18955059e-09
-1.1924804e-09
-1.22669579e-09
-1.23302633e-09
-1.18740808e-09
-1.18813776e-09
-1.19020561e-09
-1.20012333e-09
-1.2271687e-09
-1.23371894e-09
-1.18563293e-09
-1.18630861e-09
-1.2222317e-09
-1.23381876e-09
-1.18984369e-09
-1.19222069e-09
-1.22722352e-09
-1.23349902e-09
-1.18758694e-09
-1.20005383e-09
-1.23301274e-09
-1.1905213e-09
-1.19264116e-09
-1.22689836e-09
-1.23268845e-09
-1.18687202e-09
-1.18736211e-09
-1.19947e-09
-1.22786757e-09
-1.23302719e-09
-1.18657179e-09
-1.18715081e-09
-1.19964507e-09
-1.22807753e-09
-1.22601825e-09
-1.23427745e-09
-1.1887447e-09
-1.19137416e-09
-1.22662217e-09
-1.23362125e-09
-1.18836893e-09
-1.19198806e-09
-1.22718733e-09
-1.23325566e-09
-1.18634615e-09
-1.18706808e-09
-1.1982098e-09
-1.22758928e-09
-1.23269641e-09
-1.18895821e-09
-1.19291813e-09
-1.22714991e-09
-1.23274402e-09
-1.18735526e-09
-1.18792481e-09
-1.20033846e-09
-1.22761029e-09
-1.23275248e-09
-1.18793642e-09
-1.18820082e-09
-1.20106889e-09
-1.22740025e-09
-1.23247767e-09
-1.18822462e-09
-1.18859665e-09
-1.20198457e-09
-1.22781234e-09
-1.23440585e-09
-1.18693312e-09
-1.18731291e-09
-1.23071623e-09
-1.23342156e-09
-1.19000034e-09
-1.19368895e-09
-1.22673868e-09
-1.23278692e-09
-1.18805854e-09
-1.18863308e-09
-1.20312038e-09
-1.22723769e-09
-1.23254196e-09
-1.18851568e-09
-1.18871553e-09
-1.20314882e-09
-1.22714556e-09
-1.23264123e-09
-1.18811485e-09
-1.18845005e-09
-1.20206425e-09
-1.22729651e-09
-1.23253293e-09
-1.18793106e-09
-1.18826536e-09
-1.2016371e-09
-1.22738729e-09
-1.23268369e-09
-1.18768741e-09
-1.1880376e-09
-1.20088312e-09
-1.22751532e-09
-1.2330616e-09
-1.18745203e-09
-1.18775672e-09
-1.19955466e-09
-1.22719995e-09
-1.23307995e-09
-1.18902335e-09
-1.19317506e-09
-1.22707486e-09
-1.23360458e-09
-1.18702634e-09
-1.18759586e-09
-1.19887139e-09
-1.22740926e-09
-1.23316527e-09
-1.1889503e-09
-1.19296534e-09
-1.22718519e-09
-1.23368618e-09
-1.18702103e-09
-1.18757711e-09
-1.19853229e-09
-1.22745755e-09
-1.23324591e-09
-1.18895035e-09
-1.19297322e-09
-1.22721602e-09
-1.23354628e-09
-1.18699872e-09
-1.18761553e-09
-1.19823682e-09
-1.22751387e-09
-1.23332226e-09
-1.18893025e-09
-1.19289903e-09
-1.22728726e-09
-1.23369891e-09
-1.18690996e-09
-1.18750409e-09
-1.19764755e-09
-1.22759875e-09
-1.23349517e-09
-1.18866643e-09
-1.19251598e-09
-1.22740301e-09
-1.23406689e-09
-1.18656181e-09
-1.18714466e-09
-1.19668699e-09
-1.22768514e-09
-1.23365298e-09
-1.18847094e-09
-1.19177428e-09
-1.22696585e-09
-1.23400836e-09
-1.18843139e-09
-1.19191385e-09
-1.22681895e-09
-1.23394255e-09
-1.18837278e-09
-1.1922036e-09
-1.22714046e-09
-1.23378004e-09
-1.18671065e-09
-1.18744339e-09
-1.19646999e-09
-1.22750549e-09
-1.23308891e-09
-1.18902272e-09
-1.19233772e-09
-1.22673726e-09
-1.23334272e-09
-1.18920883e-09
-1.1926752e-09
-1.2270557e-09
-1.23347126e-09
-1.18749104e-09
-1.18773342e-09
-1.18780408e-09
-1.20390785e-09
-1.23387587e-09
-1.18969752e-09
-1.19146681e-09
-1.2265799e-09
-1.23383929e-09
-1.18849374e-09
-1.19155912e-09
-1.22689981e-09
-1.23343806e-09
-1.18814677e-09
-1.19417591e-09
-1.22754289e-09
-1.22677731e-09
-1.2324111e-09
-1.18571014e-09
-1.18526974e-09
-1.20554877e-09
-1.23410964e-09
-1.18948716e-09
-1.19242044e-09
-1.22695575e-09
-1.22676722e-09
-1.23372068e-09
-1.18695857e-09
-1.1873353e-09
-1.19704181e-09
-1.22753705e-09
-1.2328482e-09
-1.18741412e-09
-1.18791697e-09
)
;

boundaryField
{
    closed
    {
        type            calculated;
        value           nonuniform List<scalar> 0();
    }
    open
    {
        type            calculated;
        value           nonuniform List<scalar> 0();
    }
    sides
    {
        type            empty;
    }
    procBoundary2to1
    {
        type            processor;
        value           uniform -1.22768903e-09;
    }
    procBoundary2to3
    {
        type            processor;
        value           uniform -1.19724201e-09;
    }
}


// ************************************************************************* //
