/*--------------------------------*- C++ -*----------------------------------*\
| =========                 |                                                 |
| \\      /  F ield         | OpenFOAM: The Open Source CFD Toolbox           |
|  \\    /   O peration     | Version:  2306                                  |
|   \\  /    A nd           | Website:  www.openfoam.com                      |
|    \\/     M anipulation  |                                                 |
\*---------------------------------------------------------------------------*/
FoamFile
{
    version     2.0;
    format      ascii;
    arch        "LSB;label=32;scalar=64";
    class       volScalarField;
    location    "0.00172";
    object      prefDPV_H2;
}
// * * * * * * * * * * * * * * * * * * * * * * * * * * * * * * * * * * * * * //

dimensions      [1 -1 -1 0 0 0 0];

internalField   nonuniform List<scalar> 
531
(
-3.06004565e-05
-3.0785892e-05
-3.1544549e-05
-3.15622357e-05
-3.08942725e-05
-3.05949361e-05
-3.07580698e-05
-3.15426611e-05
-3.15631006e-05
-3.09000932e-05
-3.05667495e-05
-3.07208004e-05
-3.15439661e-05
-3.15545716e-05
-3.09000277e-05
-3.05015446e-05
-3.06483244e-05
-3.15285311e-05
-3.15688896e-05
-3.08139528e-05
-3.07275612e-05
-3.15264284e-05
-3.15576484e-05
-3.0849936e-05
-3.08014522e-05
-3.15346803e-05
-3.15389546e-05
-3.0897603e-05
-3.06007605e-05
-3.07585133e-05
-3.15246196e-05
-3.15616523e-05
-3.09677252e-05
-3.06719532e-05
-3.06223925e-05
-3.06749466e-05
-3.05300578e-05
-3.07886066e-05
-3.15315776e-05
-3.15552415e-05
-3.15395772e-05
-3.15584979e-05
-3.155627e-05
-3.15576605e-05
-3.08943233e-05
-3.04216942e-05
-3.05420134e-05
-3.15325204e-05
-3.1541158e-05
-3.0801698e-05
-3.01854234e-05
-3.05251044e-05
-3.1515094e-05
-3.15402145e-05
-3.15368532e-05
-3.08272643e-05
-3.06565073e-05
-3.15162996e-05
-3.15477393e-05
-3.08751966e-05
-3.08051127e-05
-3.15203159e-05
-3.15363154e-05
-3.09006877e-05
-3.07280588e-05
-3.07229883e-05
-3.06318616e-05
-3.05900428e-05
-3.05361246e-05
-3.08865167e-05
-3.15273564e-05
-3.15786106e-05
-3.15406056e-05
-3.15703068e-05
-3.09109205e-05
-3.08069044e-05
-3.1517356e-05
-3.1544219e-05
-3.09045499e-05
-3.06172052e-05
-3.0635151e-05
-3.15205929e-05
-3.15459286e-05
-3.09069652e-05
-3.0545925e-05
-3.05721784e-05
-3.15242711e-05
-3.15354338e-05
-3.09023721e-05
-3.03874548e-05
-3.06114567e-05
-3.15129645e-05
-3.15428188e-05
-3.15400529e-05
-3.09163367e-05
-3.07484825e-05
-3.15032546e-05
-3.15375185e-05
-3.09156912e-05
-3.06957346e-05
-3.06146697e-05
-3.06155902e-05
-3.14854866e-05
-3.15412756e-05
-3.08520692e-05
-3.07103994e-05
-3.14938812e-05
-3.15319317e-05
-3.09122367e-05
-3.06059082e-05
-3.06074324e-05
-3.15027072e-05
-3.15326966e-05
-3.09097482e-05
-3.05621997e-05
-3.0563863e-05
-3.14946557e-05
-3.15322163e-05
-3.09103848e-05
-3.03447492e-05
-3.04486565e-05
-3.15013541e-05
-3.15339631e-05
-3.15303537e-05
-3.15353567e-05
-3.08981789e-05
-3.04927351e-05
-3.05320258e-05
-3.15070287e-05
-3.15484703e-05
-3.08607939e-05
-3.06714583e-05
-3.14954593e-05
-3.15374626e-05
-3.09106764e-05
-3.05656996e-05
-3.05679612e-05
-3.14909115e-05
-3.15384552e-05
-3.09088332e-05
-3.05686344e-05
-3.05687931e-05
-3.15082562e-05
-3.15292004e-05
-3.08990834e-05
-3.04773661e-05
-3.05862951e-05
-3.15116271e-05
-3.15490595e-05
-3.15420294e-05
-3.08961966e-05
-3.05543914e-05
-3.05578924e-05
-3.15049907e-05
-3.15503768e-05
-3.09110682e-05
-3.07181341e-05
-3.15068656e-05
-3.15407919e-05
-3.09067213e-05
-3.06241436e-05
-3.06248393e-05
-3.15058412e-05
-3.1533865e-05
-3.09016494e-05
-3.0602512e-05
-3.06045393e-05
-3.15008454e-05
-3.15489756e-05
-3.09268531e-05
-3.07920962e-05
-3.15143119e-05
-3.15393741e-05
-3.09134057e-05
-3.07886598e-05
-3.06540142e-05
-3.06544018e-05
-3.1506134e-05
-3.15243909e-05
-3.09253328e-05
-3.03618327e-05
-3.04439561e-05
-3.15073213e-05
-3.15177326e-05
-3.15201297e-05
-3.07781508e-05
-3.07066962e-05
-3.15002835e-05
-3.08485212e-05
-3.03026319e-05
-3.14834436e-05
-3.15096919e-05
-3.14917831e-05
-3.15215252e-05
-3.06636315e-05
-3.05665633e-05
-3.14972814e-05
-3.07973891e-05
-3.04399049e-05
-3.14996269e-05
-3.15106399e-05
-3.15022256e-05
-3.09261488e-05
-3.0480231e-05
-3.04846233e-05
-3.14931976e-05
-3.1502952e-05
-3.09291369e-05
-3.03310816e-05
-3.04048117e-05
-3.14980488e-05
-3.15131893e-05
-3.15122843e-05
-3.07190812e-05
-3.06274029e-05
-3.15005426e-05
-3.0867511e-05
-3.04757204e-05
-3.1497619e-05
-3.15127894e-05
-3.14988979e-05
-3.09203071e-05
-3.05073159e-05
-3.05127193e-05
-3.14935297e-05
-3.15074309e-05
-3.09281254e-05
-3.04277932e-05
-3.0434233e-05
-3.14912257e-05
-3.14995459e-05
-3.09379163e-05
-3.00958959e-05
-3.01539572e-05
-3.14397201e-05
-3.14965963e-05
-3.14324498e-05
-3.15011405e-05
-3.14532314e-05
-3.15073545e-05
-3.14970608e-05
-3.06916686e-05
-3.03587741e-05
-3.02187202e-05
-3.02265206e-05
-3.14692262e-05
-3.15069771e-05
-3.06177519e-05
-3.05601488e-05
-3.14771271e-05
-3.15222114e-05
-3.14687118e-05
-3.09274821e-05
-3.03302167e-05
-3.05593977e-05
-3.15028353e-05
-3.09374093e-05
-3.04283324e-05
-3.15154711e-05
-3.15092113e-05
-3.07021456e-05
-3.06775509e-05
-3.1504879e-05
-3.15260422e-05
-3.14722473e-05
-3.09192328e-05
-3.04535575e-05
-3.05176069e-05
-3.15158247e-05
-3.15231987e-05
-3.14839303e-05
-3.09155499e-05
-3.06001378e-05
-3.06312322e-05
-3.0201304e-05
-3.02688835e-05
-3.14868238e-05
-3.15120406e-05
-3.14710605e-05
-3.15194723e-05
-3.14896437e-05
-3.07173829e-05
-3.05035834e-05
-3.15468712e-05
-3.15082633e-05
-3.09385722e-05
-3.06861487e-05
-3.05648858e-05
-3.05940522e-05
-3.15279187e-05
-3.15174005e-05
-3.08081966e-05
-3.07046877e-05
-3.15463903e-05
-3.15089676e-05
-3.09159514e-05
-3.04982863e-05
-3.05535786e-05
-3.15236344e-05
-3.15298186e-05
-3.08589582e-05
-3.06914592e-05
-3.15442314e-05
-3.15110876e-05
-3.09168966e-05
-3.03904632e-05
-3.04510159e-05
-3.15133341e-05
-3.15333704e-05
-3.06650239e-05
-3.06149596e-05
-3.15276802e-05
-3.15273281e-05
-3.15201241e-05
-3.07546767e-05
-3.06244025e-05
-3.15269138e-05
-3.15405612e-05
-3.14997233e-05
-3.09091155e-05
-3.02711628e-05
-3.03366283e-05
-3.14986294e-05
-3.15386324e-05
-3.07789881e-05
-3.06002009e-05
-3.15030358e-05
-3.15358371e-05
-3.08263808e-05
-3.07160213e-05
-3.15073481e-05
-3.15261212e-05
-3.09449044e-05
-3.07090699e-05
-3.04985998e-05
-3.05047466e-05
-3.14894761e-05
-3.15249831e-05
-3.07300348e-05
-3.05862183e-05
-3.14835347e-05
-3.1528881e-05
-3.06738158e-05
-3.061409e-05
-3.14778533e-05
-3.1522117e-05
-3.14922405e-05
-3.15223364e-05
-3.09331954e-05
-3.07309039e-05
-3.05447182e-05
-3.05436896e-05
-3.15026226e-05
-3.15022674e-05
-3.09243693e-05
-3.02557712e-05
-3.02790209e-05
-3.1480753e-05
-3.1526445e-05
-3.07126913e-05
-3.0506356e-05
-3.14690755e-05
-3.1528143e-05
-3.0628804e-05
-3.05892653e-05
-3.14757235e-05
-3.15176065e-05
-3.15109122e-05
-3.08306868e-05
-3.0585469e-05
-3.14816862e-05
-3.15229438e-05
-3.08050777e-05
-3.06394559e-05
-3.14879124e-05
-3.1509723e-05
-3.0917014e-05
-3.04263807e-05
-3.04344122e-05
-3.14737059e-05
-3.15268118e-05
-3.09104954e-05
-3.06767433e-05
-3.14796338e-05
-3.15132735e-05
-3.09144154e-05
-3.04735344e-05
-3.04790005e-05
-3.14659552e-05
-3.15273609e-05
-3.09204609e-05
-3.06715528e-05
-3.14743225e-05
-3.15125479e-05
-3.09093335e-05
-3.04266466e-05
-3.04358261e-05
-3.14467259e-05
-3.15384816e-05
-3.08869295e-05
-3.06412538e-05
-3.14436507e-05
-3.15426317e-05
-3.08671414e-05
-3.06787548e-05
-3.14476056e-05
-3.15365498e-05
-3.08992851e-05
-3.06865018e-05
-3.14645887e-05
-3.15145142e-05
-3.09092743e-05
-3.04279981e-05
-3.04399622e-05
-3.14467291e-05
-3.15411349e-05
-3.08592834e-05
-3.06188774e-05
-3.14594498e-05
-3.1546187e-05
-3.07706535e-05
-3.06741465e-05
-3.14820378e-05
-3.15400102e-05
-3.15164854e-05
-3.0901625e-05
-3.06597014e-05
-3.1514586e-05
-3.15130761e-05
-3.09043153e-05
-3.04796498e-05
-3.0517291e-05
-3.14941941e-05
-3.15370037e-05
-3.09520517e-05
-3.07944325e-05
-3.15187735e-05
-3.15365386e-05
-3.09279455e-05
-3.08606961e-05
-3.06619033e-05
-3.06921313e-05
-3.15271731e-05
-3.15255485e-05
-3.09216266e-05
-3.07904526e-05
-3.05831863e-05
-3.06496029e-05
-3.15009654e-05
-3.0921669e-05
-3.05036247e-05
-3.15303208e-05
-3.15052785e-05
-3.08353568e-05
-3.06171726e-05
-3.15283652e-05
-3.14928072e-05
-3.09264759e-05
-3.02518797e-05
-3.03480351e-05
-3.14859336e-05
-3.15249103e-05
-3.14713679e-05
-3.1536202e-05
-3.14783023e-05
-3.09110694e-05
-3.03991601e-05
-3.04645475e-05
-3.15152358e-05
-3.15055016e-05
-3.09329158e-05
-3.03886928e-05
-3.05866248e-05
-3.14974509e-05
-3.09441573e-05
-3.04077306e-05
-3.15089328e-05
-3.15018378e-05
-3.06239779e-05
-3.05039892e-05
-3.14908662e-05
-3.15141387e-05
-3.14828809e-05
-3.15188019e-05
-3.09264863e-05
-3.05546245e-05
-3.15301264e-05
-3.1507056e-05
-3.0921993e-05
-3.03175763e-05
-3.04070474e-05
-3.14940463e-05
-3.15303696e-05
-3.1492916e-05
-3.09244092e-05
-3.05934132e-05
-3.03203846e-05
-3.03564406e-05
-3.15126462e-05
-3.15198183e-05
-3.15112e-05
-3.09317208e-05
-3.05942577e-05
-3.1513057e-05
-3.15276004e-05
-3.09122363e-05
-3.07865663e-05
-3.15128916e-05
-3.1530374e-05
-3.0937504e-05
-3.08764084e-05
-3.06316083e-05
-3.06328633e-05
-3.15237791e-05
-3.15190495e-05
-3.09111193e-05
-3.05466665e-05
-3.05637188e-05
-3.15193301e-05
-3.15209432e-05
-3.09172794e-05
-3.05388056e-05
-3.05450587e-05
-3.15199225e-05
-3.15164541e-05
-3.09145917e-05
-3.0465366e-05
-3.0492778e-05
-3.14951997e-05
-3.1530733e-05
-3.15063054e-05
)
;

boundaryField
{
    closed
    {
        type            calculated;
        value           nonuniform List<scalar> 0();
    }
    open
    {
        type            calculated;
        value           nonuniform List<scalar> 0();
    }
    sides
    {
        type            empty;
    }
    procBoundary3to2
    {
        type            processor;
        value           uniform -3.08957345e-05;
    }
    procBoundary3to4
    {
        type            processor;
        value           uniform -3.09106198e-05;
    }
}


// ************************************************************************* //
