/*--------------------------------*- C++ -*----------------------------------*\
| =========                 |                                                 |
| \\      /  F ield         | OpenFOAM: The Open Source CFD Toolbox           |
|  \\    /   O peration     | Version:  2306                                  |
|   \\  /    A nd           | Website:  www.openfoam.com                      |
|    \\/     M anipulation  |                                                 |
\*---------------------------------------------------------------------------*/
FoamFile
{
    version     2.0;
    format      ascii;
    arch        "LSB;label=32;scalar=64";
    class       volScalarField;
    location    "0.00124";
    object      prefDZ_T;
}
// * * * * * * * * * * * * * * * * * * * * * * * * * * * * * * * * * * * * * //

dimensions      [1 -1 -1 -1 0 0 0];

internalField   nonuniform List<scalar> 
530
(
-9.30198946e-11
-9.45428732e-11
-8.7702943e-11
-8.76210535e-11
-9.31783013e-11
-9.34791754e-11
-8.76958113e-11
-8.76350148e-11
-9.32252765e-11
-9.24412154e-11
-8.76650867e-11
-8.76224327e-11
-9.3551377e-11
-9.17486415e-11
-8.76473883e-11
-8.76174532e-11
-9.34190411e-11
-9.13404868e-11
-8.76304004e-11
-8.76023556e-11
-9.30924906e-11
-9.11375693e-11
-8.76102509e-11
-8.75831604e-11
-9.27492955e-11
-9.09305376e-11
-8.75868152e-11
-8.7558942e-11
-9.24913964e-11
-9.06992024e-11
-8.75615759e-11
-8.75320068e-11
-9.22327934e-11
-9.05324875e-11
-8.75613923e-11
-8.75028929e-11
-9.1966701e-11
-9.04001883e-11
-8.75623452e-11
-8.74703674e-11
-9.16958955e-11
-9.02916229e-11
-8.75199025e-11
-8.74329041e-11
-9.14186041e-11
-9.02106568e-11
-8.74543871e-11
-8.73924961e-11
-9.12324559e-11
-9.01570126e-11
-8.73693293e-11
-8.73474536e-11
-9.09595645e-11
-9.02182183e-11
-8.73058999e-11
-8.72984374e-11
-9.0753242e-11
-9.01082746e-11
-8.72598122e-11
-8.7248991e-11
-9.06821478e-11
-8.99655967e-11
-8.72095318e-11
-8.72015648e-11
-9.06238426e-11
-8.98898759e-11
-8.71551151e-11
-8.71542486e-11
-9.05624516e-11
-8.97990787e-11
-8.71049141e-11
-8.71071149e-11
-9.0480255e-11
-8.97287495e-11
-8.70590293e-11
-8.70601055e-11
-9.03986483e-11
-8.96728984e-11
-8.70184001e-11
-8.70183843e-11
-9.02504984e-11
-8.9593402e-11
-8.69820603e-11
-8.69803811e-11
-9.01231991e-11
-8.94882653e-11
-8.69494173e-11
-8.69461988e-11
-8.99814398e-11
-8.93947896e-11
-8.69179722e-11
-8.69133667e-11
-8.98622334e-11
-8.92707316e-11
-8.68914576e-11
-8.6882599e-11
-8.97520156e-11
-8.91859306e-11
-8.68620976e-11
-8.68533785e-11
-8.96534375e-11
-8.91075727e-11
-8.6834857e-11
-8.68265433e-11
-8.95627878e-11
-8.90327715e-11
-8.68101775e-11
-8.68024318e-11
-8.94758934e-11
-8.8960731e-11
-8.6788078e-11
-8.67812343e-11
-8.93988018e-11
-8.88863265e-11
-8.67685053e-11
-8.676303e-11
-8.9325184e-11
-8.88148246e-11
-8.67513799e-11
-8.67468513e-11
-8.92674925e-11
-8.87885785e-11
-8.67319346e-11
-8.67331207e-11
-8.9216201e-11
-8.87144268e-11
-8.67193626e-11
-8.67230254e-11
-8.91632195e-11
-8.86413348e-11
-8.67101462e-11
-8.67157799e-11
-8.91228601e-11
-8.85717405e-11
-8.67052367e-11
-8.67117057e-11
-8.90676571e-11
-8.85086749e-11
-8.67041207e-11
-8.6710953e-11
-8.90084474e-11
-8.8456447e-11
-8.67063428e-11
-8.67131956e-11
-8.89480197e-11
-8.8407832e-11
-8.6710987e-11
-8.67181905e-11
-8.88875397e-11
-8.83609429e-11
-8.67183231e-11
-8.67255722e-11
-8.88197677e-11
-8.83218013e-11
-8.67295602e-11
-8.6735933e-11
-8.87412933e-11
-8.8293482e-11
-8.67440783e-11
-8.67487764e-11
-8.86357044e-11
-8.82782615e-11
-8.67573913e-11
-8.6761099e-11
-8.85861981e-11
-8.82709882e-11
-8.67699924e-11
-8.67726275e-11
-8.85595657e-11
-8.82788445e-11
-8.67839133e-11
-8.67862714e-11
-8.85398625e-11
-8.82772017e-11
-8.67995894e-11
-8.68016669e-11
-8.85253969e-11
-8.82714825e-11
-8.68169958e-11
-8.68187525e-11
-8.8513732e-11
-8.82623094e-11
-8.68364239e-11
-8.68380983e-11
-8.85055655e-11
-8.825161e-11
-8.68575063e-11
-8.68594756e-11
-8.85001112e-11
-8.82402074e-11
-8.68801697e-11
-8.68822354e-11
-8.85012914e-11
-8.82338475e-11
-8.69061407e-11
-8.69074921e-11
-8.84813023e-11
-8.82255822e-11
-8.69351481e-11
-8.69355758e-11
-8.84563646e-11
-8.82088799e-11
-8.69660316e-11
-8.69656436e-11
-8.84346977e-11
-8.81955521e-11
-8.699767e-11
-8.69967889e-11
-8.84171657e-11
-8.81857472e-11
-8.70290727e-11
-8.70284803e-11
-8.84029303e-11
-8.81804544e-11
-8.70610487e-11
-8.70607856e-11
-8.83937005e-11
-8.81810464e-11
-8.70934516e-11
-8.7093535e-11
-8.83901429e-11
-8.81864853e-11
-8.71261064e-11
-8.71267668e-11
-8.83929698e-11
-8.81898906e-11
-8.71589377e-11
-8.71609322e-11
-8.83953074e-11
-8.81875558e-11
-8.71921775e-11
-8.71960466e-11
-8.83915992e-11
-8.8172457e-11
-8.72239385e-11
-8.72301665e-11
-8.83862718e-11
-8.81519529e-11
-8.72563424e-11
-8.72636835e-11
-8.83741971e-11
-8.81244486e-11
-8.72906635e-11
-8.72978327e-11
-8.83448381e-11
-8.81283954e-11
-8.73279701e-11
-8.73331794e-11
-8.83004372e-11
-8.81492556e-11
-8.73666195e-11
-8.73681142e-11
-8.82552964e-11
-8.81544373e-11
-8.74059382e-11
-8.74024099e-11
-8.82616354e-11
-8.81569924e-11
-8.74402117e-11
-8.7437174e-11
-8.82976007e-11
-8.81506842e-11
-8.7471388e-11
-8.74713838e-11
-8.8337008e-11
-8.81679798e-11
-8.74995238e-11
-8.75045091e-11
-8.83581142e-11
-8.81873998e-11
-8.75293989e-11
-8.75367073e-11
-8.83760225e-11
-8.82068478e-11
-8.75598607e-11
-8.75674443e-11
-8.83891132e-11
-8.82249272e-11
-8.75905392e-11
-8.75974368e-11
-8.83984313e-11
-8.82398832e-11
-8.76214e-11
-8.76269416e-11
-8.84016361e-11
-8.82536913e-11
-8.76525929e-11
-8.76560459e-11
-8.83982283e-11
-8.82659902e-11
-8.7684007e-11
-8.76847595e-11
-8.83924235e-11
-8.82762375e-11
-8.77144374e-11
-8.77131276e-11
-8.83851418e-11
-8.82807595e-11
-8.77422428e-11
-8.77408803e-11
-8.83821665e-11
-8.82829863e-11
-8.77690311e-11
-8.77678622e-11
-8.83809979e-11
-8.8285172e-11
-8.77950231e-11
-8.77940309e-11
-8.83800767e-11
-8.8287853e-11
-8.78203266e-11
-8.78195534e-11
-8.83772606e-11
-8.82890041e-11
-8.78450792e-11
-8.7844467e-11
-8.83725319e-11
-8.82892089e-11
-8.78691238e-11
-8.78685618e-11
-8.83672479e-11
-8.8289439e-11
-8.78924138e-11
-8.7891797e-11
-8.83613076e-11
-8.82899845e-11
-8.7914925e-11
-8.79142736e-11
-8.83543339e-11
-8.82899149e-11
-8.79366807e-11
-8.79359325e-11
-8.8347114e-11
-8.82901163e-11
-8.79574749e-11
-8.79565963e-11
-8.83411852e-11
-8.82858958e-11
-8.79778591e-11
-8.79764047e-11
-8.83359078e-11
-8.82853604e-11
-8.79967589e-11
-8.79954252e-11
-8.83315053e-11
-8.82827809e-11
-8.80148123e-11
-8.80135233e-11
-8.83301758e-11
-8.82804227e-11
-8.80319998e-11
-8.80308264e-11
-8.83263997e-11
-8.82801681e-11
-8.80482838e-11
-8.80471988e-11
-8.83228395e-11
-8.82801505e-11
-8.80637292e-11
-8.80627439e-11
-8.83195409e-11
-8.82802148e-11
-8.80783642e-11
-8.80774767e-11
-8.83165063e-11
-8.82804259e-11
-8.80922088e-11
-8.80914186e-11
-8.83136553e-11
-8.82806284e-11
-8.81052815e-11
-8.81046241e-11
-8.83111524e-11
-8.82802731e-11
-8.81175676e-11
-8.8117096e-11
-8.83097953e-11
-8.82792993e-11
-8.8129136e-11
-8.812881e-11
-8.83083317e-11
-8.82797801e-11
-8.81400393e-11
-8.81397934e-11
-8.83050778e-11
-8.82815884e-11
-8.81502955e-11
-8.81500335e-11
-8.83019489e-11
-8.82834846e-11
-8.8159871e-11
-8.81596812e-11
-8.82988492e-11
-8.82843775e-11
-8.8168786e-11
-8.81687622e-11
-8.82973568e-11
-8.82833378e-11
-8.81771085e-11
-8.8177278e-11
-8.82973837e-11
-8.82826071e-11
-8.81848053e-11
-8.81852918e-11
-8.82958347e-11
-8.82834836e-11
-8.81917885e-11
-8.8192724e-11
-8.82952582e-11
-8.82823563e-11
-8.81985296e-11
-8.81996803e-11
-8.82939056e-11
-8.82813864e-11
-8.82053087e-11
-8.8206345e-11
-8.82877154e-11
-8.82850877e-11
-8.82113656e-11
-8.82122114e-11
-8.82813195e-11
-8.8286487e-11
-8.8217075e-11
-8.82175897e-11
-8.82775789e-11
-8.82864957e-11
-8.82222504e-11
-8.82225737e-11
-8.82756367e-11
-8.8285576e-11
-8.82269317e-11
-8.82271955e-11
-8.82746722e-11
-8.82843278e-11
-8.82312141e-11
-8.82314339e-11
-8.82740469e-11
-8.82831863e-11
-8.82351448e-11
-8.82353134e-11
-8.82736163e-11
-8.82821197e-11
-8.82387639e-11
-8.82388861e-11
-8.82732735e-11
-8.82810093e-11
-8.82421743e-11
-8.82422967e-11
-8.82717673e-11
-8.82786502e-11
-8.82458197e-11
-8.82460038e-11
-8.82688938e-11
-8.82740314e-11
-8.8256785e-11
-8.82575524e-11
-8.82619282e-11
-8.82650096e-11
-8.82618845e-11
-8.82640108e-11
-8.8262959e-11
-8.82653834e-11
-8.82639577e-11
-8.82664112e-11
-8.8265032e-11
-8.82674803e-11
-8.82661536e-11
-8.82685283e-11
-8.82672993e-11
-8.82695277e-11
-8.82684335e-11
-8.82704415e-11
-8.82695092e-11
-8.82712299e-11
-8.82704722e-11
-8.82718586e-11
-8.82712711e-11
-8.8272305e-11
-8.82718663e-11
-8.82725625e-11
-8.82722371e-11
-8.82726392e-11
-8.8272388e-11
-8.82725566e-11
-8.82723509e-11
-8.82723507e-11
-8.82721754e-11
-8.82720766e-11
-8.82719344e-11
-8.82719548e-11
-8.82719576e-11
-8.82719576e-11
-8.82719531e-11
-8.82719487e-11
-8.82719445e-11
-8.82719415e-11
-8.82719395e-11
-8.82719383e-11
-8.82719376e-11
-8.82719373e-11
-8.82719372e-11
-8.82719371e-11
-8.82719371e-11
-8.82719371e-11
-8.82719371e-11
-8.82719371e-11
-8.82719371e-11
-8.82719371e-11
-8.82719371e-11
-8.82719371e-11
-8.82719371e-11
-8.82719371e-11
-8.82719371e-11
-8.82719371e-11
-8.82719371e-11
-8.82719371e-11
-8.82719371e-11
-8.82719371e-11
-8.82719371e-11
-8.82719371e-11
-8.82719371e-11
-8.82719371e-11
-8.82719371e-11
-8.82719371e-11
-8.82719371e-11
-8.82719371e-11
-8.82719371e-11
-8.82719371e-11
-8.82719371e-11
-8.82719371e-11
)
;

boundaryField
{
    closed
    {
        type            calculated;
        value           nonuniform List<scalar> 0();
    }
    open
    {
        type            calculated;
        value           uniform -8.82719371e-11;
    }
    sides
    {
        type            empty;
    }
    procBoundary5to4
    {
        type            processor;
        value           uniform -8.75977296e-11;
    }
}


// ************************************************************************* //
