/*--------------------------------*- C++ -*----------------------------------*\
| =========                 |                                                 |
| \\      /  F ield         | OpenFOAM: The Open Source CFD Toolbox           |
|  \\    /   O peration     | Version:  2306                                  |
|   \\  /    A nd           | Website:  www.openfoam.com                      |
|    \\/     M anipulation  |                                                 |
\*---------------------------------------------------------------------------*/
FoamFile
{
    version     2.0;
    format      ascii;
    arch        "LSB;label=32;scalar=64";
    class       volScalarField;
    location    "0.00124";
    object      rho;
}
// * * * * * * * * * * * * * * * * * * * * * * * * * * * * * * * * * * * * * //

dimensions      [1 -3 0 0 0 0 0];

internalField   nonuniform List<scalar> 
530
(
0.2245988
0.224183021
0.223273549
0.223364003
0.2238791
0.223582539
0.222616256
0.222744948
0.223237784
0.223022281
0.222196883
0.22227742
0.222697174
0.222503187
0.221714074
0.221753891
0.222150757
0.222019934
0.221220168
0.221280211
0.22162243
0.221570201
0.22074073
0.220811959
0.221132
0.221119525
0.2202759
0.220354153
0.220673281
0.220657789
0.219817197
0.21990287
0.22022621
0.220216137
0.219436548
0.219456365
0.219789882
0.219787157
0.219063688
0.219027087
0.219366971
0.219370964
0.218692116
0.218633515
0.21895447
0.218969536
0.218316772
0.21826553
0.218633798
0.218581461
0.217937292
0.21794949
0.218303523
0.218269816
0.217640848
0.217652415
0.217986195
0.217955808
0.217326282
0.217353966
0.217686824
0.217635932
0.21704238
0.217047745
0.217387696
0.217326975
0.216784751
0.216748849
0.217086532
0.217012199
0.216515434
0.21646212
0.216779539
0.216699668
0.216218704
0.216176304
0.216464447
0.216386535
0.215895839
0.215862075
0.216118308
0.216053771
0.215555026
0.215528934
0.21577469
0.215707392
0.215200473
0.21518432
0.215424988
0.215361014
0.214846958
0.214840093
0.215073755
0.215004657
0.21447997
0.214495174
0.214719998
0.214652482
0.214138344
0.214152411
0.21436221
0.214297637
0.213791931
0.213805462
0.213999637
0.213937677
0.213438909
0.2134501
0.213635022
0.213573318
0.213079468
0.213085707
0.213265532
0.213203481
0.212714329
0.212713305
0.212889813
0.212827663
0.212343874
0.212338406
0.212509892
0.212455359
0.211995199
0.211961999
0.212124795
0.21206529
0.211622495
0.211576128
0.211733546
0.211669557
0.211238556
0.211184084
0.211335939
0.211267282
0.210836021
0.210780038
0.210925378
0.210857745
0.210421849
0.210365248
0.210508118
0.210441636
0.209999527
0.209943921
0.210086413
0.210021015
0.209576916
0.209520003
0.209659384
0.209596407
0.209154647
0.209098207
0.209228902
0.209170606
0.208724549
0.208674107
0.208796372
0.208745992
0.208293421
0.208253559
0.208361297
0.208326482
0.207891842
0.207858176
0.20797328
0.207931505
0.207512565
0.207486536
0.20759417
0.207556481
0.207142517
0.207118426
0.207217628
0.207181213
0.206779429
0.206756324
0.206845384
0.206806747
0.206424214
0.206400998
0.206477303
0.206435428
0.206072194
0.206047893
0.20611348
0.206068096
0.205724652
0.205697464
0.205754259
0.205704568
0.205380543
0.205353088
0.205399763
0.205345503
0.205026817
0.205004597
0.205037382
0.204986196
0.204667536
0.204650973
0.204678279
0.204627264
0.204309657
0.204298451
0.204326044
0.20427503
0.203960589
0.203953597
0.203982364
0.203932007
0.203627633
0.20361982
0.203647414
0.203599029
0.203303593
0.203294407
0.203321252
0.20327503
0.202987762
0.202977736
0.203003402
0.202959625
0.202680707
0.202668884
0.202694276
0.202651345
0.202382503
0.202365495
0.202392626
0.202349357
0.202092016
0.202066994
0.20209785
0.20205205
0.201815934
0.201778806
0.201815809
0.201764367
0.201545642
0.201502059
0.201540754
0.201485028
0.201275162
0.201229567
0.201268429
0.201213756
0.200996723
0.200959495
0.201000218
0.200952709
0.200719723
0.200700606
0.200739934
0.200690944
0.200448313
0.200452284
0.200492766
0.200438639
0.2002088
0.20020808
0.200267279
0.200191615
0.199992914
0.199975783
0.200053173
0.199968463
0.199797599
0.19975787
0.199838513
0.199755187
0.199599224
0.199549761
0.199632324
0.199549257
0.199404786
0.199354858
0.199432732
0.199351247
0.199215111
0.199168236
0.199240635
0.199160373
0.199029839
0.198988991
0.199053947
0.198977596
0.198847278
0.198816343
0.19887212
0.19880187
0.198668038
0.198649895
0.198696626
0.198633203
0.198497364
0.198489177
0.198529309
0.198469666
0.198344
0.198335617
0.19837107
0.198313464
0.198198853
0.198189844
0.19822161
0.198165561
0.198061043
0.19805171
0.198080021
0.198025993
0.19792991
0.197920202
0.197945501
0.197893152
0.197804655
0.197794794
0.197818238
0.197768138
0.197685718
0.197676208
0.197697685
0.197650764
0.197572987
0.19756434
0.197583536
0.197540319
0.19746623
0.19745853
0.197475255
0.197436001
0.197365047
0.197358722
0.19737312
0.197338195
0.197270787
0.197265816
0.197277989
0.197243908
0.197180709
0.19717893
0.197189039
0.197157692
0.197098948
0.197097074
0.197106072
0.197075769
0.19702255
0.19702042
0.197030247
0.196999312
0.196951418
0.196949047
0.196958241
0.196929376
0.196885365
0.196883176
0.196891385
0.196864565
0.196824123
0.196822037
0.196829397
0.196804476
0.196767348
0.196765346
0.196771999
0.196748875
0.196714758
0.196712862
0.1967189
0.196697437
0.196666166
0.196664206
0.196669993
0.19664967
0.196621601
0.196619233
0.196625549
0.196605344
0.196580665
0.196578026
0.19658459
0.196565335
0.196542764
0.196540362
0.196545894
0.19652932
0.196507743
0.196506122
0.19651041
0.196496502
0.196475837
0.196474689
0.196477877
0.196466041
0.196446872
0.196445559
0.196448893
0.196437093
0.19642058
0.196418643
0.196423243
0.19641077
0.19639682
0.196394005
0.196399059
0.19638769
0.196375999
0.196371643
0.196377638
0.196365584
0.196356105
0.196351298
0.196357936
0.19634565
0.196335383
0.196332315
0.196337477
0.19632994
0.196317354
0.196316373
0.196318353
0.196314717
0.196300914
0.196301875
0.196302013
0.196300546
0.196286802
0.196288633
0.196288046
0.196287413
0.196274541
0.19627662
0.196275854
0.196275488
0.196263714
0.196265838
0.19626495
0.196264868
0.196254041
0.196256169
0.196255188
0.196255284
0.196245266
0.196247322
0.196246271
0.196246444
0.196236721
0.196238463
0.196237251
0.196237458
0.196226009
0.196227477
0.196228202
0.196228264
0.196218215
0.196216388
0.19621763
0.196217125
0.196214152
0.196213242
0.196211381
0.196210537
0.196208458
0.196207631
0.196205578
0.196204791
0.196202791
0.196202065
0.196200184
0.196199541
0.196197847
0.196197312
0.196195867
0.196195461
0.196194315
0.196194057
0.196193245
0.196193146
0.196192674
0.196192737
0.196192581
0.196192799
0.196192902
0.196193246
0.196193528
0.19619394
0.196194295
0.196194682
0.196195026
0.196195555
0.196195892
0.196195993
0.196195805
0.196195308
0.196194484
0.19619334
0.196191909
0.196190249
0.196188446
0.196186598
0.196184806
0.196183149
0.196181663
0.19618031
0.196178956
0.19617735
0.196175148
0.196171983
0.196167606
0.196162095
0.196156061
0.196150737
0.196147813
0.196148957
0.19615512
0.196166073
0.196180594
0.19619743
0.196216177
0.196236139
0.196253703
0.196266721
0.19628037
0.196295982
0.19630463
0.196296875
0.196276936
0.196263915
0.19626557
0.196261868
)
;

boundaryField
{
    closed
    {
        type            calculated;
        value           nonuniform List<scalar> 0();
    }
    open
    {
        type            calculated;
        value           uniform 0.196253158;
    }
    sides
    {
        type            empty;
    }
    procBoundary5to4
    {
        type            processor;
        value           uniform 0.224058031;
    }
}


// ************************************************************************* //
