/*--------------------------------*- C++ -*----------------------------------*\
| =========                 |                                                 |
| \\      /  F ield         | OpenFOAM: The Open Source CFD Toolbox           |
|  \\    /   O peration     | Version:  2306                                  |
|   \\  /    A nd           | Website:  www.openfoam.com                      |
|    \\/     M anipulation  |                                                 |
\*---------------------------------------------------------------------------*/
FoamFile
{
    version     2.0;
    format      ascii;
    arch        "LSB;label=32;scalar=64";
    class       volScalarField;
    location    "0.00136";
    object      p;
}
// * * * * * * * * * * * * * * * * * * * * * * * * * * * * * * * * * * * * * //

dimensions      [1 -1 -2 0 0 0 0];

internalField   nonuniform List<scalar> 
530
(
101493.445
101491.601
101489.751
101487.894
101486.032
101484.166
101482.296
101480.424
101478.549
101476.673
101474.795
101472.916
101471.036
101469.154
101467.27
101465.385
101463.497
101461.607
101459.714
101457.818
101455.919
101454.016
101452.11
101450.201
101448.289
101446.374
101444.457
101442.538
101440.619
101438.7
101436.783
101434.867
101432.956
101431.05
101429.15
101427.258
101425.376
101423.505
101421.646
101419.801
101417.972
101416.16
101414.366
101412.591
101410.837
101409.104
101407.394
101405.707
101404.044
101402.406
101400.793
101399.206
101397.644
101396.108
101394.599
101393.116
101391.659
101390.228
101388.823
101387.443
101386.089
101384.76
101383.456
101382.175
101380.919
101379.687
101378.477
101377.29
101376.125
101374.982
101373.86
101372.759
101371.679
101370.619
101369.578
101368.557
101367.555
101366.571
101365.605
101364.658
101363.728
101362.815
101361.92
101361.041
101360.178
101359.332
101358.501
101357.686
101356.886
101356.101
101355.331
101354.575
101353.832
101353.103
101352.387
101351.684
101350.992
101350.312
101349.644
101348.986
101348.337
101347.698
101347.068
101346.446
101345.831
101345.223
101344.62
101344.022
101343.429
101342.839
101342.252
101341.666
101341.081
101340.495
101339.909
101339.321
101338.729
101338.134
101337.533
101336.926
101336.313
101335.691
101335.06
101334.419
101333.766
101333.102
101332.423
101331.73
101331.022
101330.297
101329.554
101328.793
101328.012
101327.211
101326.389
101325.545
101324.679
101323.791
101322.879
101321.944
101320.986
101320.006
101319.004
101317.981
101316.938
101315.877
101314.799
101313.707
101312.603
101311.49
101310.372
101309.252
101308.134
101307.023
101305.924
101304.842
101303.782
101302.75
101301.753
101300.797
101299.888
101299.033
101298.239
101297.513
101296.861
101296.291
101295.807
101295.418
101295.128
101294.944
101294.869
101294.91
101295.069
101295.35
101295.755
101296.287
101296.947
101297.734
101298.649
101299.689
101300.853
101302.137
101303.537
101305.049
101306.667
101308.383
101310.192
101312.084
101314.052
101316.087
101318.179
101320.318
101322.495
101324.698
101326.916
101329.14
101331.358
101333.559
101335.734
101337.871
101339.962
101341.996
101343.964
101345.858
101347.671
101349.394
101351.021
101352.546
101353.964
101355.27
101356.461
101357.534
101358.486
101359.317
101360.025
101360.611
101361.075
101361.419
101361.646
101361.756
101361.755
101361.646
101361.433
101361.12
101360.713
101360.218
101359.639
101358.983
101358.255
101357.462
101356.611
101355.706
101354.756
101353.765
101352.739
101351.686
101350.61
101349.518
101348.414
101347.304
101346.193
101345.085
101343.985
101342.898
101341.826
101340.773
101339.743
101338.739
101337.763
101336.817
101335.903
101335.024
101334.181
101333.374
101332.606
101331.876
101331.185
101330.535
101329.923
101329.352
101328.82
101328.328
101327.874
101327.458
101327.079
101326.738
101326.432
101326.161
101325.924
101325.719
101325.546
101325.404
101325.292
101325.207
101325.15
101325.119
101325.113
101325.131
101325.171
101325.233
101325.315
101325.417
101325.537
101325.674
101325.828
101325.997
101326.181
101326.379
101326.589
101326.812
101327.045
101327.29
101327.543
101327.806
101328.077
101328.356
101328.642
101328.934
101329.232
101329.535
101329.843
101330.155
101330.47
101330.789
101331.111
101331.434
101331.76
101332.087
101332.414
101332.743
101333.071
101333.399
101333.727
101334.054
101334.38
101334.704
101335.026
101335.346
101335.664
101335.98
101336.292
101336.602
101336.908
101337.211
101337.51
101337.806
101338.098
101338.385
101338.669
101338.948
101339.223
101339.494
101339.76
101340.022
101340.279
101340.532
101340.78
101341.024
101341.263
101341.498
101341.728
101341.954
101342.175
101342.393
101342.606
101342.815
101343.02
101343.221
101343.418
101343.612
101343.802
101343.988
101344.172
101344.352
101344.529
101344.703
101344.875
101345.043
101345.21
101345.374
101345.536
101345.696
101345.854
101346.01
101346.165
101346.318
101346.47
101346.621
101346.771
101346.92
101347.068
101347.215
101347.362
101347.509
101347.655
101347.802
101347.948
101348.094
101348.241
101348.387
101348.534
101348.682
101348.83
101348.979
101349.129
101349.28
101349.432
101349.585
101349.739
101349.895
101350.052
101350.21
101350.371
101350.533
101350.697
101350.863
101351.032
101351.202
101351.376
101351.552
101351.73
101351.912
101352.096
101352.284
101352.475
101352.67
101352.869
101353.071
101353.278
101353.489
101353.704
101353.924
101354.149
101354.38
101354.615
101354.856
101355.103
101355.356
101355.615
101355.88
101356.152
101356.431
101356.717
101357.01
101357.311
101357.62
101357.936
101358.26
101358.593
101358.934
101359.284
101359.643
101360.011
101360.388
101360.774
101361.17
101361.576
101361.991
101362.416
101362.852
101363.297
101363.753
101364.219
101364.696
101365.183
101365.68
101366.188
101366.707
101367.236
101367.776
101368.327
101368.888
101369.46
101370.064
101370.724
101371.445
101372.234
101373.097
101374.042
101375.079
101376.215
101377.461
101378.829
101380.33
101381.977
101383.784
101385.764
101387.932
101390.302
101392.888
101395.702
101398.757
101402.058
101405.612
101409.417
101413.466
101417.743
101422.224
101426.874
101431.645
101436.474
101441.283
101445.977
101450.443
101454.553
101458.175
101461.193
101463.525
101465.158
101466.143
101466.578
101466.553
101466.077
101465.02
101463.118
101460.133
101456.214
101452.126
101448.757
101446.032
101442.873
101438.152
101430.334
101419.738
101409.319
101404.71
101403.202
101407.46
101397.949
101364.959
101334.567
101332.593
101343.858
101357.111
101356.002
101337.3
101315.281
101228.568
101288.03
101660.134
101961.675
101743.554
101362.627
101207.119
101137.259
101055.774
101091.103
101280.438
101529.725
101596.7
)
;

boundaryField
{
    closed
    {
        type            zeroGradient;
    }
    open
    {
        type            waveTransmissive;
        gamma           1.25;
        fieldInf        101325;
        lInf            1;
        value           uniform 101588.441;
    }
    sides
    {
        type            empty;
    }
    procBoundary5to4
    {
        type            processor;
        value           uniform 101495.279;
    }
}


// ************************************************************************* //
