/*--------------------------------*- C++ -*----------------------------------*\
| =========                 |                                                 |
| \\      /  F ield         | OpenFOAM: The Open Source CFD Toolbox           |
|  \\    /   O peration     | Version:  2306                                  |
|   \\  /    A nd           | Website:  www.openfoam.com                      |
|    \\/     M anipulation  |                                                 |
\*---------------------------------------------------------------------------*/
FoamFile
{
    version     2.0;
    format      ascii;
    arch        "LSB;label=32;scalar=64";
    class       volScalarField;
    location    "0.00136";
    object      prefDPV_H2;
}
// * * * * * * * * * * * * * * * * * * * * * * * * * * * * * * * * * * * * * //

dimensions      [1 -1 -1 0 0 0 0];

internalField   nonuniform List<scalar> 
530
(
-9.44709783e-05
-9.45292535e-05
-9.45823434e-05
-9.46383948e-05
-9.46895261e-05
-9.4743522e-05
-9.47928264e-05
-9.48449208e-05
-9.48925304e-05
-9.49422081e-05
-9.49857643e-05
-9.50318307e-05
-9.50738588e-05
-9.51183424e-05
-9.51589267e-05
-9.52019118e-05
-9.52411255e-05
-9.52826949e-05
-9.53206077e-05
-9.536084e-05
-9.53975206e-05
-9.54364901e-05
-9.54720062e-05
-9.55097847e-05
-9.55442019e-05
-9.55808621e-05
-9.56137037e-05
-9.56491071e-05
-9.56818096e-05
-9.57170675e-05
-9.57486706e-05
-9.5782849e-05
-9.58133971e-05
-9.58465369e-05
-9.58760739e-05
-9.59082144e-05
-9.59367819e-05
-9.5967962e-05
-9.59955992e-05
-9.60258573e-05
-9.60526015e-05
-9.60819759e-05
-9.61078625e-05
-9.61363913e-05
-9.61614541e-05
-9.61891753e-05
-9.6213447e-05
-9.62403982e-05
-9.62639106e-05
-9.62901292e-05
-9.63129137e-05
-9.63384363e-05
-9.63605263e-05
-9.63846328e-05
-9.64050119e-05
-9.64280769e-05
-9.64477766e-05
-9.64701583e-05
-9.64891914e-05
-9.65109095e-05
-9.65292874e-05
-9.6550361e-05
-9.65680951e-05
-9.6588542e-05
-9.66056439e-05
-9.66254811e-05
-9.66419622e-05
-9.66612055e-05
-9.66770773e-05
-9.66957419e-05
-9.67110158e-05
-9.67291166e-05
-9.67438034e-05
-9.67613547e-05
-9.67754653e-05
-9.67924812e-05
-9.68060263e-05
-9.68225204e-05
-9.68355104e-05
-9.68514959e-05
-9.68639419e-05
-9.68794311e-05
-9.68913445e-05
-9.69063487e-05
-9.69177419e-05
-9.69322712e-05
-9.6943158e-05
-9.69572212e-05
-9.69676168e-05
-9.69812212e-05
-9.69911423e-05
-9.70042947e-05
-9.70137586e-05
-9.70264672e-05
-9.70354904e-05
-9.70477727e-05
-9.70563647e-05
-9.70678558e-05
-9.7076243e-05
-9.70870894e-05
-9.70951278e-05
-9.71049029e-05
-9.71128882e-05
-9.71218662e-05
-9.71297732e-05
-9.71379877e-05
-9.71457892e-05
-9.71532737e-05
-9.71609415e-05
-9.71677295e-05
-9.71752355e-05
-9.718136e-05
-9.71886768e-05
-9.719417e-05
-9.72012721e-05
-9.72061634e-05
-9.72130307e-05
-9.72173452e-05
-9.72238242e-05
-9.72276244e-05
-9.72339041e-05
-9.72372087e-05
-9.72431647e-05
-9.72459927e-05
-9.72516136e-05
-9.72539827e-05
-9.72592573e-05
-9.7261183e-05
-9.72661022e-05
-9.72675977e-05
-9.72721548e-05
-9.72732309e-05
-9.72774215e-05
-9.72780873e-05
-9.72819085e-05
-9.72821717e-05
-9.72856219e-05
-9.72854894e-05
-9.72885676e-05
-9.72880457e-05
-9.72907516e-05
-9.72898461e-05
-9.72921798e-05
-9.72908963e-05
-9.72928582e-05
-9.72912021e-05
-9.7292793e-05
-9.72907695e-05
-9.72919904e-05
-9.72896045e-05
-9.72904566e-05
-9.72877133e-05
-9.72881981e-05
-9.72851023e-05
-9.72852216e-05
-9.7281778e-05
-9.72815337e-05
-9.7277747e-05
-9.72771416e-05
-9.72730161e-05
-9.72720523e-05
-9.72675924e-05
-9.72662731e-05
-9.7261483e-05
-9.72598117e-05
-9.72546952e-05
-9.72526757e-05
-9.72472366e-05
-9.72448731e-05
-9.7239115e-05
-9.7236412e-05
-9.72303384e-05
-9.72273005e-05
-9.72209155e-05
-9.72175469e-05
-9.72108553e-05
-9.72071598e-05
-9.72001676e-05
-9.7196148e-05
-9.71888627e-05
-9.71845206e-05
-9.71769513e-05
-9.71722879e-05
-9.71644438e-05
-9.7159461e-05
-9.71513493e-05
-9.71460521e-05
-9.71376737e-05
-9.7132077e-05
-9.71234218e-05
-9.71177001e-05
-9.71087198e-05
-9.7102523e-05
-9.70934538e-05
-9.70868146e-05
-9.70776381e-05
-9.70705846e-05
-9.70612877e-05
-9.70538432e-05
-9.70444172e-05
-9.70366034e-05
-9.70270419e-05
-9.70188797e-05
-9.70091776e-05
-9.70006871e-05
-9.69908681e-05
-9.6982164e-05
-9.69722792e-05
-9.69632728e-05
-9.69532247e-05
-9.69439286e-05
-9.69337141e-05
-9.69241397e-05
-9.69137564e-05
-9.69039148e-05
-9.68933612e-05
-9.68832628e-05
-9.68725377e-05
-9.68621928e-05
-9.68512958e-05
-9.68407139e-05
-9.68296454e-05
-9.68188357e-05
-9.68075966e-05
-9.67965678e-05
-9.67851597e-05
-9.67739201e-05
-9.6762345e-05
-9.67509025e-05
-9.67391629e-05
-9.67274038e-05
-9.67153348e-05
-9.67033503e-05
-9.66911233e-05
-9.6678959e-05
-9.66665778e-05
-9.66542408e-05
-9.66417093e-05
-9.66292065e-05
-9.66165291e-05
-9.66038673e-05
-9.65910484e-05
-9.65782342e-05
-9.65652785e-05
-9.65523184e-05
-9.65392307e-05
-9.65261313e-05
-9.65129164e-05
-9.64996841e-05
-9.64863473e-05
-9.64729884e-05
-9.64595347e-05
-9.64460556e-05
-9.64324904e-05
-9.64188972e-05
-9.64052259e-05
-9.63915248e-05
-9.63777528e-05
-9.63639499e-05
-9.63500829e-05
-9.63361843e-05
-9.63222279e-05
-9.63082395e-05
-9.62941994e-05
-9.62801273e-05
-9.62660092e-05
-9.62518592e-05
-9.62376689e-05
-9.62234553e-05
-9.62092144e-05
-9.61949356e-05
-9.61806168e-05
-9.61662629e-05
-9.61518726e-05
-9.613745e-05
-9.61229945e-05
-9.61085098e-05
-9.60939955e-05
-9.60794548e-05
-9.60648882e-05
-9.60502979e-05
-9.60356852e-05
-9.60210516e-05
-9.60063991e-05
-9.59917284e-05
-9.59770422e-05
-9.59623408e-05
-9.59476271e-05
-9.5932901e-05
-9.59181658e-05
-9.59034212e-05
-9.58886706e-05
-9.58739135e-05
-9.58591534e-05
-9.58443899e-05
-9.58296261e-05
-9.5814862e-05
-9.58001005e-05
-9.57853416e-05
-9.57705881e-05
-9.57558401e-05
-9.57411004e-05
-9.57263688e-05
-9.57116486e-05
-9.56969389e-05
-9.56822438e-05
-9.56675613e-05
-9.56528967e-05
-9.56382469e-05
-9.56236182e-05
-9.56089379e-05
-9.55941451e-05
-9.55793781e-05
-9.55646419e-05
-9.55499349e-05
-9.553526e-05
-9.55206174e-05
-9.55060085e-05
-9.54914347e-05
-9.54768963e-05
-9.54623955e-05
-9.5447932e-05
-9.54335085e-05
-9.54191242e-05
-9.5404782e-05
-9.5390481e-05
-9.53762244e-05
-9.53620108e-05
-9.53478435e-05
-9.53337212e-05
-9.53196472e-05
-9.530562e-05
-9.52916431e-05
-9.52777146e-05
-9.52638384e-05
-9.52500124e-05
-9.52362404e-05
-9.52225203e-05
-9.5208856e-05
-9.51952452e-05
-9.51816919e-05
-9.51681936e-05
-9.51547545e-05
-9.5141372e-05
-9.51280501e-05
-9.51147863e-05
-9.51015848e-05
-9.50884426e-05
-9.50753642e-05
-9.50623466e-05
-9.50493941e-05
-9.50365036e-05
-9.50236796e-05
-9.50109188e-05
-9.49982259e-05
-9.49855973e-05
-9.49730379e-05
-9.49605437e-05
-9.49481202e-05
-9.49357626e-05
-9.49234772e-05
-9.49112582e-05
-9.48991129e-05
-9.48870348e-05
-9.48750314e-05
-9.4863096e-05
-9.48512362e-05
-9.48394456e-05
-9.48277309e-05
-9.48160869e-05
-9.48045497e-05
-9.47930913e-05
-9.4781707e-05
-9.47703916e-05
-9.47591517e-05
-9.47479814e-05
-9.47368876e-05
-9.47258643e-05
-9.47149181e-05
-9.47040434e-05
-9.46932463e-05
-9.46825216e-05
-9.46718749e-05
-9.46613015e-05
-9.46508066e-05
-9.46403857e-05
-9.46300436e-05
-9.46197762e-05
-9.4609588e-05
-9.4599475e-05
-9.45894415e-05
-9.45794837e-05
-9.45696056e-05
-9.45598037e-05
-9.45500817e-05
-9.45404362e-05
-9.45308708e-05
-9.45213821e-05
-9.45119737e-05
-9.45026421e-05
-9.44933909e-05
-9.44842166e-05
-9.44751229e-05
-9.4466106e-05
-9.44571697e-05
-9.44483103e-05
-9.44395312e-05
-9.44308292e-05
-9.44222073e-05
-9.44136623e-05
-9.44051973e-05
-9.43968092e-05
-9.43885006e-05
-9.4380269e-05
-9.43721164e-05
-9.43640407e-05
-9.43560435e-05
-9.43481231e-05
-9.43402808e-05
-9.43325149e-05
-9.43246726e-05
-9.43168935e-05
-9.4309194e-05
-9.43015725e-05
-9.42940301e-05
-9.4286565e-05
-9.42791786e-05
-9.42718688e-05
-9.42646372e-05
-9.42574816e-05
-9.42504034e-05
-9.42434006e-05
-9.42364747e-05
-9.42296234e-05
-9.42228482e-05
-9.4216147e-05
-9.42095212e-05
-9.42029687e-05
-9.41964907e-05
-9.41900853e-05
-9.41837537e-05
-9.41774939e-05
-9.4171307e-05
-9.41651912e-05
-9.41591473e-05
-9.41531739e-05
-9.41472715e-05
-9.41414386e-05
-9.4135676e-05
-9.4129982e-05
-9.41243573e-05
-9.41188005e-05
-9.41133062e-05
-9.41076799e-05
-9.41017331e-05
-9.40954534e-05
-9.40888303e-05
-9.40818528e-05
-9.40745124e-05
-9.40668006e-05
-9.4058712e-05
-9.40502421e-05
-9.40413897e-05
-9.40321558e-05
-9.40225455e-05
-9.40125673e-05
-9.40022343e-05
-9.39915648e-05
-9.39805818e-05
-9.39693159e-05
-9.39578024e-05
-9.39460858e-05
-9.39342152e-05
-9.3922251e-05
-9.39102565e-05
-9.38983077e-05
-9.38864814e-05
-9.38748667e-05
-9.386355e-05
-9.38526281e-05
-9.38421896e-05
-9.38323294e-05
-9.38231273e-05
-9.38146628e-05
-9.3806993e-05
-9.38001667e-05
-9.37942048e-05
-9.37891118e-05
-9.3784864e-05
-9.37814164e-05
-9.37787035e-05
-9.3776639e-05
-9.37751314e-05
-9.37740762e-05
-9.37733785e-05
-9.37729498e-05
-9.37727058e-05
-9.37725926e-05
-9.37725549e-05
-9.37723947e-05
-9.37722947e-05
-9.37722528e-05
-9.37722278e-05
-9.37722196e-05
-9.37722167e-05
-9.37722157e-05
-9.37722154e-05
-9.37722153e-05
-9.37722152e-05
-9.37722152e-05
-9.37722152e-05
-9.37722152e-05
-9.37722152e-05
-9.37722152e-05
-9.37722152e-05
-9.37722152e-05
-9.37722152e-05
-9.37722152e-05
-9.37722152e-05
-9.37722152e-05
-9.37722152e-05
-9.37722152e-05
-9.37722152e-05
-9.37722152e-05
-9.37722152e-05
-9.37722152e-05
-9.37722152e-05
-9.37722152e-05
-9.37722152e-05
-9.37722152e-05
)
;

boundaryField
{
    closed
    {
        type            calculated;
        value           nonuniform List<scalar> 0();
    }
    open
    {
        type            calculated;
        value           uniform -9.37722152e-05;
    }
    sides
    {
        type            empty;
    }
    procBoundary5to4
    {
        type            processor;
        value           uniform -9.44157924e-05;
    }
}


// ************************************************************************* //
