/*--------------------------------*- C++ -*----------------------------------*\
| =========                 |                                                 |
| \\      /  F ield         | OpenFOAM: The Open Source CFD Toolbox           |
|  \\    /   O peration     | Version:  2306                                  |
|   \\  /    A nd           | Website:  www.openfoam.com                      |
|    \\/     M anipulation  |                                                 |
\*---------------------------------------------------------------------------*/
FoamFile
{
    version     2.0;
    format      ascii;
    arch        "LSB;label=32;scalar=64";
    class       volScalarField;
    location    "0.00136";
    object      prefDZ_H;
}
// * * * * * * * * * * * * * * * * * * * * * * * * * * * * * * * * * * * * * //

dimensions      [1 -1 -1 0 0 0 0];

internalField   nonuniform List<scalar> 
530
(
0.000377950331
0.000378183728
0.000378395921
0.000378620469
0.000378824887
0.000379041255
0.000379238422
0.000379447226
0.000379637669
0.000379836931
0.00038001154
0.00038019663
0.000380365152
0.000380543921
0.000380706692
0.000380879474
0.000381036786
0.00038120391
0.000381356039
0.000381517818
0.000381665036
0.000381821767
0.000381964343
0.000382116313
0.000382254508
0.000382402006
0.000382534017
0.000382676698
0.000382808234
0.000382950298
0.000383077436
0.000383215169
0.000383338084
0.000383471649
0.000383590514
0.000383720067
0.000383835047
0.000383960741
0.000384071992
0.00038419398
0.000384301648
0.000384420083
0.000384524309
0.000384639341
0.000384740259
0.00038485204
0.00038494978
0.000385058459
0.000385153146
0.000385258873
0.000385350631
0.000385453551
0.000385542514
0.000385639848
0.000385722079
0.00038581525
0.000385894728
0.000385985121
0.000386061896
0.00038614959
0.000386223707
0.000386308776
0.00038638028
0.000386462795
0.00038653173
0.000386611759
0.000386678169
0.000386755774
0.000386819705
0.000386894947
0.000386956443
0.00038702938
0.000387088483
0.000387159172
0.000387215924
0.000387284421
0.000387338865
0.000387405224
0.000387457401
0.000387521674
0.000387571626
0.000387633862
0.000387681634
0.000387741879
0.000387787521
0.000387845813
0.000387889379
0.000387945754
0.000387987304
0.000388041791
0.000388081392
0.000388134017
0.000388171738
0.000388222534
0.000388258441
0.000388307478
0.000388341609
0.00038838741
0.000388420676
0.000388463866
0.000388495718
0.000388534572
0.000388566159
0.000388601753
0.00038863297
0.000388665442
0.000388696179
0.000388725663
0.000388755805
0.000388782437
0.000388811869
0.000388835782
0.000388864394
0.000388885716
0.000388913405
0.000388932255
0.000388958939
0.000388975418
0.0003890005
0.000389014838
0.000389039083
0.000389051327
0.000389074256
0.000389084485
0.000389106049
0.000389114337
0.00038913449
0.0003891409
0.000389159602
0.00038916419
0.000389181412
0.000389184224
0.000389199946
0.00038920102
0.000389215228
0.000389214598
0.000389227283
0.000389224979
0.000389236134
0.000389232184
0.000389241807
0.000389236236
0.000389244325
0.000389237157
0.000389243712
0.000389234971
0.000389239994
0.000389229703
0.000389233196
0.000389221376
0.000389223344
0.000389210017
0.000389210464
0.000389195651
0.000389194584
0.000389178305
0.000389175731
0.000389158006
0.000389153935
0.000389134783
0.000389129224
0.000389108665
0.00038910163
0.00038907968
0.000389071183
0.00038904786
0.000389037916
0.000389013236
0.000389001862
0.00038897584
0.000388963054
0.000388935705
0.000388921526
0.000388892868
0.000388877313
0.000388847366
0.00038883045
0.000388799241
0.000388780974
0.000388748535
0.000388728924
0.000388695292
0.000388674341
0.000388639557
0.000388617274
0.000388581367
0.000388557772
0.000388520746
0.000388495903
0.000388457714
0.00038843237
0.000388392813
0.000388365461
0.000388325552
0.000388296331
0.000388255991
0.00038822502
0.000388184192
0.000388151569
0.000388110218
0.000388076035
0.000388034131
0.000387998476
0.000387955999
0.000387918956
0.000387875977
0.000387837935
0.0003877946
0.00038775528
0.000387711272
0.000387670727
0.000387626033
0.000387584313
0.000387538922
0.000387496073
0.000387449979
0.000387406046
0.000387359244
0.00038731427
0.000387266758
0.000387220785
0.000387172564
0.000387125631
0.000387076705
0.000387028849
0.000386979225
0.000386930482
0.000386880166
0.00038683057
0.000386779575
0.000386728692
0.000386676384
0.000386624569
0.000386571609
0.00038651904
0.000386465442
0.00038641215
0.000386357932
0.000386303945
0.000386249125
0.000386194473
0.000386139069
0.000386083781
0.000386027813
0.000385971916
0.000385915403
0.000385858925
0.000385801889
0.000385744858
0.00038568732
0.000385629763
0.000385571744
0.000385513687
0.000385455211
0.00038539668
0.000385337769
0.000385278792
0.000385219468
0.00038516007
0.000385100357
0.000385040564
0.000384980487
0.000384920325
0.000384859906
0.0003847994
0.000384738665
0.00038467784
0.000384616811
0.000384555722
0.000384494477
0.000384433113
0.000384371555
0.000384309887
0.000384248042
0.000384186098
0.000384123993
0.000384061798
0.00038399946
0.000383937043
0.000383874498
0.000383811884
0.00038374916
0.000383686376
0.000383623498
0.000383560571
0.000383497565
0.000383434521
0.000383371412
0.000383308277
0.000383245092
0.000383181892
0.000383118656
0.000383055416
0.000382992154
0.000382928899
0.000382865635
0.000382802391
0.00038273915
0.00038267594
0.000382612747
0.000382549596
0.000382486475
0.000382423405
0.00038236038
0.000382297415
0.000382234509
0.000382171672
0.000382108907
0.000382046221
0.000381983621
0.000381920848
0.000381857659
0.000381794591
0.000381731651
0.000381668847
0.000381606176
0.000381543654
0.000381481272
0.00038141905
0.000381356976
0.000381295072
0.000381233325
0.000381171758
0.000381110355
0.000381049141
0.0003809881
0.000380927256
0.000380866595
0.000380806139
0.000380745873
0.00038068582
0.000380625965
0.000380566332
0.000380506905
0.000380447707
0.000380388722
0.000380329973
0.000380271445
0.000380213161
0.000380155104
0.000380097298
0.000380039726
0.000379982412
0.000379925338
0.000379868529
0.000379811966
0.000379755673
0.000379699634
0.000379643871
0.000379588366
0.000379533144
0.000379478185
0.000379423515
0.000379369113
0.000379315005
0.000379261171
0.000379207636
0.000379154378
0.000379101426
0.000379048754
0.000378996393
0.000378944316
0.000378892555
0.000378841081
0.000378789928
0.000378739066
0.000378688528
0.000378638286
0.000378588369
0.000378538754
0.00037848958
0.000378440737
0.000378392213
0.000378343984
0.00037829608
0.000378248473
0.000378201194
0.000378154216
0.00037810757
0.000378061228
0.00037801522
0.000377969521
0.000377924156
0.000377879104
0.000377834389
0.000377789989
0.000377745927
0.000377702183
0.000377658779
0.000377615695
0.000377572952
0.000377530531
0.000377488452
0.000377446697
0.000377405284
0.000377364197
0.000377323453
0.000377283035
0.00037724296
0.000377203213
0.000377163809
0.000377124733
0.000377086001
0.000377047596
0.000377009535
0.000376971802
0.000376934412
0.000376897349
0.000376860629
0.000376824236
0.000376788184
0.00037675246
0.000376717075
0.000376682017
0.000376647296
0.000376612903
0.000376578845
0.000376545112
0.000376511714
0.00037647864
0.000376445294
0.000376412221
0.000376379487
0.000376347083
0.000376315017
0.000376283278
0.000376251874
0.000376220795
0.000376190048
0.000376159624
0.000376129529
0.000376099754
0.000376070305
0.000376041173
0.000376012365
0.000375983871
0.000375955697
0.000375927834
0.000375900288
0.00037587305
0.000375846125
0.000375819505
0.000375793195
0.000375767186
0.000375741483
0.000375716079
0.000375690977
0.000375666169
0.00037564166
0.000375617443
0.000375593519
0.000375569884
0.000375546514
0.000375522582
0.000375497286
0.000375470573
0.000375442399
0.000375412716
0.000375381488
0.000375348678
0.000375314264
0.000375278225
0.000375240557
0.000375201262
0.000375160363
0.000375117895
0.000375073913
0.000375028493
0.000374981734
0.000374933764
0.000374884732
0.000374834827
0.000374784257
0.000374733277
0.000374682156
0.000374631215
0.00037458078
0.000374531229
0.00037448293
0.000374436292
0.000374391694
0.000374349538
0.000374310166
0.000374273916
0.000374241035
0.000374211733
0.000374186102
0.000374164165
0.000374145829
0.000374130906
0.000374119124
0.000374110119
0.000374103507
0.000374098845
0.000374095731
0.000374093788
0.000374092657
0.000374092102
0.000374091884
0.000374091211
0.00037409079
0.000374090614
0.000374090508
0.000374090474
0.000374090461
0.000374090457
0.000374090456
0.000374090455
0.000374090455
0.000374090455
0.000374090455
0.000374090455
0.000374090455
0.000374090455
0.000374090455
0.000374090455
0.000374090455
0.000374090455
0.000374090455
0.000374090455
0.000374090455
0.000374090455
0.000374090455
0.000374090455
0.000374090455
0.000374090455
0.000374090455
0.000374090455
0.000374090455
0.000374090455
)
;

boundaryField
{
    closed
    {
        type            calculated;
        value           nonuniform List<scalar> 0();
    }
    open
    {
        type            calculated;
        value           uniform 0.000374090455;
    }
    sides
    {
        type            empty;
    }
    procBoundary5to4
    {
        type            processor;
        value           uniform 0.000377729813;
    }
}


// ************************************************************************* //
