/*--------------------------------*- C++ -*----------------------------------*\
| =========                 |                                                 |
| \\      /  F ield         | OpenFOAM: The Open Source CFD Toolbox           |
|  \\    /   O peration     | Version:  2306                                  |
|   \\  /    A nd           | Website:  www.openfoam.com                      |
|    \\/     M anipulation  |                                                 |
\*---------------------------------------------------------------------------*/
FoamFile
{
    version     2.0;
    format      ascii;
    arch        "LSB;label=32;scalar=64";
    class       volScalarField;
    location    "0.00136";
    object      prefDPV_T;
}
// * * * * * * * * * * * * * * * * * * * * * * * * * * * * * * * * * * * * * //

dimensions      [1 -1 -1 -1 0 0 0];

internalField   nonuniform List<scalar> 
530
(
-3.8882142e-11
-3.89944863e-11
-3.91019334e-11
-3.9209246e-11
-3.93121216e-11
-3.94147284e-11
-3.95132824e-11
-3.96114825e-11
-3.97059491e-11
-3.98004637e-11
-3.98928013e-11
-3.99848824e-11
-4.00736999e-11
-4.01622418e-11
-4.02476854e-11
-4.0332863e-11
-4.04150767e-11
-4.04970523e-11
-4.05761768e-11
-4.0655102e-11
-4.07312741e-11
-4.08072912e-11
-4.08806447e-11
-4.09538861e-11
-4.10245536e-11
-4.10951403e-11
-4.11639807e-11
-4.12353461e-11
-4.13050701e-11
-4.1375557e-11
-4.14427309e-11
-4.151082e-11
-4.15755565e-11
-4.1641341e-11
-4.17037421e-11
-4.17673154e-11
-4.18274759e-11
-4.18889292e-11
-4.19469385e-11
-4.20063604e-11
-4.20623035e-11
-4.21197793e-11
-4.21737376e-11
-4.22293496e-11
-4.22814013e-11
-4.23352286e-11
-4.23854486e-11
-4.24375678e-11
-4.2486028e-11
-4.25365134e-11
-4.25832826e-11
-4.26322064e-11
-4.267735e-11
-4.27253641e-11
-4.27697426e-11
-4.28166026e-11
-4.28594719e-11
-4.2904964e-11
-4.29463668e-11
-4.29905369e-11
-4.30305146e-11
-4.30734064e-11
-4.31119994e-11
-4.31536549e-11
-4.31909021e-11
-4.32313618e-11
-4.32673008e-11
-4.33066039e-11
-4.33412709e-11
-4.33794551e-11
-4.34128854e-11
-4.3449987e-11
-4.3482215e-11
-4.35182685e-11
-4.35493281e-11
-4.35843665e-11
-4.3614291e-11
-4.36483455e-11
-4.36771682e-11
-4.3710268e-11
-4.37380222e-11
-4.37701945e-11
-4.37969137e-11
-4.38281837e-11
-4.3853902e-11
-4.38842927e-11
-4.39090446e-11
-4.3938577e-11
-4.39623975e-11
-4.39910911e-11
-4.40140155e-11
-4.40418897e-11
-4.40639519e-11
-4.40910292e-11
-4.4112258e-11
-4.41385695e-11
-4.41589827e-11
-4.41841104e-11
-4.42040551e-11
-4.42284432e-11
-4.42485797e-11
-4.42719338e-11
-4.42919385e-11
-4.43140685e-11
-4.43339353e-11
-4.43548731e-11
-4.43745968e-11
-4.43943736e-11
-4.4413946e-11
-4.44325952e-11
-4.44520044e-11
-4.4469562e-11
-4.44887932e-11
-4.45052971e-11
-4.45243358e-11
-4.4539823e-11
-4.4558659e-11
-4.4573161e-11
-4.45915068e-11
-4.46052485e-11
-4.46232724e-11
-4.46364333e-11
-4.46538773e-11
-4.46664809e-11
-4.46833421e-11
-4.46954152e-11
-4.4711688e-11
-4.47232559e-11
-4.47389361e-11
-4.47500203e-11
-4.47651064e-11
-4.47757252e-11
-4.47902187e-11
-4.4800387e-11
-4.4814292e-11
-4.48240223e-11
-4.48373452e-11
-4.48466479e-11
-4.48593962e-11
-4.48682803e-11
-4.48804629e-11
-4.48889361e-11
-4.49005623e-11
-4.49086318e-11
-4.49197114e-11
-4.49273838e-11
-4.49379265e-11
-4.49452085e-11
-4.4955224e-11
-4.49621219e-11
-4.49716198e-11
-4.497814e-11
-4.49871296e-11
-4.49932786e-11
-4.5001769e-11
-4.50075534e-11
-4.50155536e-11
-4.50209797e-11
-4.50284986e-11
-4.50335728e-11
-4.50406193e-11
-4.50453478e-11
-4.50519307e-11
-4.50563196e-11
-4.50624479e-11
-4.5066503e-11
-4.50721857e-11
-4.50759126e-11
-4.50811587e-11
-4.5084563e-11
-4.50893818e-11
-4.50924686e-11
-4.50968692e-11
-4.50996442e-11
-4.51036355e-11
-4.51061043e-11
-4.51096948e-11
-4.51118637e-11
-4.51150613e-11
-4.51169374e-11
-4.51197496e-11
-4.512134e-11
-4.51237738e-11
-4.51250862e-11
-4.51271486e-11
-4.51281896e-11
-4.51298888e-11
-4.51306617e-11
-4.513201e-11
-4.51325152e-11
-4.51335833e-11
-4.51337938e-11
-4.51344843e-11
-4.51344779e-11
-4.51348102e-11
-4.51345816e-11
-4.51345737e-11
-4.51341204e-11
-4.51337874e-11
-4.51331091e-11
-4.51324653e-11
-4.5131562e-11
-4.51306223e-11
-4.51294943e-11
-4.51282732e-11
-4.51268869e-11
-4.5125284e-11
-4.51236201e-11
-4.51217984e-11
-4.51199734e-11
-4.51179425e-11
-4.51159543e-11
-4.5113723e-11
-4.51115704e-11
-4.51091467e-11
-4.51068293e-11
-4.51042207e-11
-4.5101739e-11
-4.50989521e-11
-4.50963073e-11
-4.50933482e-11
-4.50905422e-11
-4.50874163e-11
-4.50844515e-11
-4.50811639e-11
-4.50780432e-11
-4.50745986e-11
-4.50713252e-11
-4.50677278e-11
-4.50643053e-11
-4.50603604e-11
-4.50565159e-11
-4.50523679e-11
-4.50483806e-11
-4.50440964e-11
-4.50399705e-11
-4.50355544e-11
-4.5031294e-11
-4.50267502e-11
-4.50223594e-11
-4.50176922e-11
-4.50131751e-11
-4.50083888e-11
-4.50037492e-11
-4.49988484e-11
-4.49940903e-11
-4.49890793e-11
-4.49842066e-11
-4.49790898e-11
-4.49741066e-11
-4.49688881e-11
-4.49637984e-11
-4.49584825e-11
-4.49532905e-11
-4.49478813e-11
-4.49425912e-11
-4.49370926e-11
-4.49317086e-11
-4.49261246e-11
-4.49206512e-11
-4.49149853e-11
-4.49094269e-11
-4.4903683e-11
-4.48980441e-11
-4.48922255e-11
-4.48865105e-11
-4.48806208e-11
-4.48748343e-11
-4.4868929e-11
-4.48632014e-11
-4.48572966e-11
-4.48514705e-11
-4.4845479e-11
-4.48395601e-11
-4.48334864e-11
-4.48274803e-11
-4.48213289e-11
-4.48152411e-11
-4.48090164e-11
-4.48028522e-11
-4.47965588e-11
-4.47903233e-11
-4.47839656e-11
-4.47776637e-11
-4.47712464e-11
-4.4764883e-11
-4.47584106e-11
-4.47519904e-11
-4.47454673e-11
-4.47389949e-11
-4.47324257e-11
-4.47259054e-11
-4.47192945e-11
-4.4712731e-11
-4.47060826e-11
-4.46994801e-11
-4.46927985e-11
-4.46861615e-11
-4.46794505e-11
-4.46727833e-11
-4.4666047e-11
-4.4659354e-11
-4.46525958e-11
-4.46458814e-11
-4.46391049e-11
-4.46323735e-11
-4.46255819e-11
-4.46188378e-11
-4.46120341e-11
-4.46052815e-11
-4.45983702e-11
-4.45913157e-11
-4.45842183e-11
-4.45771787e-11
-4.4570104e-11
-4.45630828e-11
-4.45560329e-11
-4.45490336e-11
-4.45420106e-11
-4.45350363e-11
-4.45280425e-11
-4.45210962e-11
-4.45141339e-11
-4.45072184e-11
-4.45002898e-11
-4.44934078e-11
-4.44865153e-11
-4.44796692e-11
-4.44728152e-11
-4.44660074e-11
-4.44591941e-11
-4.44524269e-11
-4.44456566e-11
-4.44389324e-11
-4.44322072e-11
-4.4425528e-11
-4.441885e-11
-4.4412218e-11
-4.44055894e-11
-4.43990065e-11
-4.43924291e-11
-4.43858975e-11
-4.43793733e-11
-4.43728948e-11
-4.43664255e-11
-4.4360002e-11
-4.43535895e-11
-4.43472228e-11
-4.43408686e-11
-4.43345603e-11
-4.43282664e-11
-4.43220181e-11
-4.43157858e-11
-4.4309599e-11
-4.43034302e-11
-4.42973062e-11
-4.42912023e-11
-4.42851424e-11
-4.42791049e-11
-4.42731103e-11
-4.42671407e-11
-4.42612126e-11
-4.42553122e-11
-4.4249452e-11
-4.42436216e-11
-4.42378309e-11
-4.4232071e-11
-4.42263517e-11
-4.42206626e-11
-4.42150168e-11
-4.42094923e-11
-4.4204037e-11
-4.41986073e-11
-4.41932142e-11
-4.41878499e-11
-4.41825218e-11
-4.41772238e-11
-4.41719628e-11
-4.41667323e-11
-4.41615402e-11
-4.41563785e-11
-4.41512566e-11
-4.41461651e-11
-4.41411146e-11
-4.41360948e-11
-4.41311167e-11
-4.41261698e-11
-4.41212652e-11
-4.41163923e-11
-4.41115621e-11
-4.41067643e-11
-4.41020093e-11
-4.40972874e-11
-4.40926085e-11
-4.40879632e-11
-4.40833611e-11
-4.40787932e-11
-4.40742684e-11
-4.40697784e-11
-4.40653316e-11
-4.406092e-11
-4.40565515e-11
-4.40522187e-11
-4.4047929e-11
-4.40436753e-11
-4.40394647e-11
-4.40352903e-11
-4.40311589e-11
-4.4027064e-11
-4.40230121e-11
-4.40189966e-11
-4.40150244e-11
-4.40110883e-11
-4.40071957e-11
-4.40033389e-11
-4.3999526e-11
-4.39957483e-11
-4.39920147e-11
-4.39883162e-11
-4.39846613e-11
-4.39808017e-11
-4.39769652e-11
-4.39731675e-11
-4.39694162e-11
-4.39657039e-11
-4.39620371e-11
-4.39584096e-11
-4.39548267e-11
-4.39512833e-11
-4.39477837e-11
-4.39443236e-11
-4.39409065e-11
-4.39375288e-11
-4.39341936e-11
-4.39308974e-11
-4.39276433e-11
-4.39244278e-11
-4.39212538e-11
-4.39181182e-11
-4.39150236e-11
-4.39119669e-11
-4.39089506e-11
-4.39059719e-11
-4.3903033e-11
-4.39001313e-11
-4.38972689e-11
-4.38944432e-11
-4.38916562e-11
-4.38889055e-11
-4.3886193e-11
-4.38835163e-11
-4.38808771e-11
-4.38782705e-11
-4.38756068e-11
-4.38727949e-11
-4.38698324e-11
-4.38667129e-11
-4.38634351e-11
-4.38599938e-11
-4.38563893e-11
-4.38526182e-11
-4.38486831e-11
-4.38445832e-11
-4.38403243e-11
-4.38359088e-11
-4.38313469e-11
-4.38266454e-11
-4.38218195e-11
-4.38168817e-11
-4.38118533e-11
-4.38067531e-11
-4.38016094e-11
-4.37964482e-11
-4.3791305e-11
-4.37862127e-11
-4.37812133e-11
-4.37763459e-11
-4.3771657e-11
-4.37671888e-11
-4.37629887e-11
-4.37590973e-11
-4.3755557e-11
-4.37524002e-11
-4.37496569e-11
-4.37473428e-11
-4.37454682e-11
-4.37440248e-11
-4.37429975e-11
-4.37423503e-11
-4.37420433e-11
-4.37420171e-11
-4.37422144e-11
-4.37425666e-11
-4.37430155e-11
-4.37434981e-11
-4.37439857e-11
-4.37444193e-11
-4.37448057e-11
-4.37451628e-11
-4.37450709e-11
-4.37450133e-11
-4.37449878e-11
-4.37449711e-11
-4.37449652e-11
-4.37449627e-11
-4.37449619e-11
-4.37449615e-11
-4.37449614e-11
-4.37449614e-11
-4.37449614e-11
-4.37449614e-11
-4.37449614e-11
-4.37449614e-11
-4.37449614e-11
-4.37449614e-11
-4.37449614e-11
-4.37449614e-11
-4.37449614e-11
-4.37449614e-11
-4.37449614e-11
-4.37449614e-11
-4.37449614e-11
-4.37449614e-11
-4.37449614e-11
-4.37449614e-11
-4.37449614e-11
-4.37449614e-11
-4.37449614e-11
-4.37449614e-11
-4.37449614e-11
)
;

boundaryField
{
    closed
    {
        type            calculated;
        value           nonuniform List<scalar> 0();
    }
    open
    {
        type            calculated;
        value           uniform -4.37449614e-11;
    }
    sides
    {
        type            empty;
    }
    procBoundary5to4
    {
        type            processor;
        value           uniform -3.87698587e-11;
    }
}


// ************************************************************************* //
