/*--------------------------------*- C++ -*----------------------------------*\
| =========                 |                                                 |
| \\      /  F ield         | OpenFOAM: The Open Source CFD Toolbox           |
|  \\    /   O peration     | Version:  2306                                  |
|   \\  /    A nd           | Website:  www.openfoam.com                      |
|    \\/     M anipulation  |                                                 |
\*---------------------------------------------------------------------------*/
FoamFile
{
    version     2.0;
    format      ascii;
    arch        "LSB;label=32;scalar=64";
    class       volScalarField;
    location    "0.0003";
    object      alpha;
}
// * * * * * * * * * * * * * * * * * * * * * * * * * * * * * * * * * * * * * //

dimensions      [1 -1 -1 0 0 0 0];

internalField   nonuniform List<scalar> 
530
(
3.60634543e-05
3.58717264e-05
3.58340619e-05
3.58339065e-05
3.58338871e-05
3.5833887e-05
3.5833887e-05
3.5833887e-05
3.5833887e-05
3.5833887e-05
3.5833887e-05
3.5833887e-05
3.5833887e-05
3.5833887e-05
3.5833887e-05
3.5833887e-05
3.5833887e-05
3.5833887e-05
3.5833887e-05
3.5833887e-05
3.5833887e-05
3.5833887e-05
3.5833887e-05
3.5833887e-05
3.5833887e-05
3.5833887e-05
3.5833887e-05
3.5833887e-05
3.5833887e-05
3.5833887e-05
3.5833887e-05
3.5833887e-05
3.5833887e-05
3.5833887e-05
3.5833887e-05
3.5833887e-05
3.5833887e-05
3.5833887e-05
3.5833887e-05
3.5833887e-05
3.5833887e-05
3.5833887e-05
3.5833887e-05
3.5833887e-05
3.5833887e-05
3.5833887e-05
3.5833887e-05
3.5833887e-05
3.5833887e-05
3.5833887e-05
3.5833887e-05
3.5833887e-05
3.5833887e-05
3.5833887e-05
3.5833887e-05
3.5833887e-05
3.5833887e-05
3.5833887e-05
3.5833887e-05
3.5833887e-05
3.5833887e-05
3.5833887e-05
3.5833887e-05
3.5833887e-05
3.5833887e-05
3.5833887e-05
3.5833887e-05
3.5833887e-05
3.5833887e-05
3.5833887e-05
3.5833887e-05
3.5833887e-05
3.5833887e-05
3.5833887e-05
3.5833887e-05
3.5833887e-05
3.5833887e-05
3.5833887e-05
3.5833887e-05
3.5833887e-05
3.5833887e-05
3.5833887e-05
3.5833887e-05
3.5833887e-05
3.5833887e-05
3.5833887e-05
3.5833887e-05
3.5833887e-05
3.5833887e-05
3.5833887e-05
3.5833887e-05
3.58338871e-05
3.58338869e-05
3.58338865e-05
3.58338877e-05
3.58338903e-05
3.58338841e-05
3.58338716e-05
3.58338948e-05
3.58339416e-05
3.58338766e-05
3.58337448e-05
3.58338774e-05
3.58341484e-05
3.58339562e-05
3.58335643e-05
3.58337707e-05
3.58342234e-05
3.58340018e-05
3.58334886e-05
3.58337428e-05
3.58344412e-05
3.58341974e-05
3.58331296e-05
3.58332326e-05
3.58347981e-05
3.58348678e-05
3.58331159e-05
3.5832657e-05
3.58343271e-05
3.58351993e-05
3.58338079e-05
3.58327136e-05
3.58337996e-05
3.5834874e-05
3.58338688e-05
3.58328472e-05
3.58341461e-05
3.58354737e-05
3.5833615e-05
3.58313028e-05
3.58334708e-05
3.58377506e-05
3.5836009e-05
3.58290744e-05
3.58295878e-05
3.58389644e-05
3.58399434e-05
3.58303888e-05
3.5826945e-05
3.5835064e-05
3.58413527e-05
3.5835264e-05
3.58271738e-05
3.58304234e-05
3.5839699e-05
3.58387425e-05
3.58294804e-05
3.58294313e-05
3.5836396e-05
3.58377109e-05
3.58328787e-05
3.58309577e-05
3.58339563e-05
3.5835983e-05
3.58342581e-05
3.58326039e-05
3.58335061e-05
3.58345563e-05
3.58339937e-05
3.58334366e-05
3.58341977e-05
3.5834617e-05
3.5833215e-05
3.58325039e-05
3.5834565e-05
3.58361209e-05
3.5833773e-05
3.58309189e-05
3.58328799e-05
3.58373821e-05
3.58363654e-05
3.5830349e-05
3.5830495e-05
3.58367667e-05
3.58377557e-05
3.58322017e-05
3.58299778e-05
3.58343688e-05
3.58377698e-05
3.58345405e-05
3.58302569e-05
3.58321717e-05
3.58373416e-05
3.58366972e-05
3.58307395e-05
3.58306971e-05
3.58361085e-05
3.58373858e-05
3.58328082e-05
3.58303925e-05
3.583381e-05
3.58372156e-05
3.58349547e-05
3.58310658e-05
3.58322124e-05
3.58361322e-05
3.58357411e-05
3.58322515e-05
3.58323038e-05
3.58350218e-05
3.58351292e-05
3.58330118e-05
3.58328584e-05
3.58347404e-05
3.58349195e-05
3.58329974e-05
3.58326832e-05
3.58347197e-05
3.58353646e-05
3.58333215e-05
3.58321737e-05
3.58339703e-05
3.58357506e-05
3.58344277e-05
3.58320658e-05
3.58327364e-05
3.58355333e-05
3.58353897e-05
3.58326341e-05
3.5832401e-05
3.5834657e-05
3.58352771e-05
3.58334386e-05
3.58325723e-05
3.58341767e-05
3.58353081e-05
3.58337374e-05
3.583216e-05
3.58337023e-05
3.58361077e-05
3.58347712e-05
3.58312146e-05
3.58318807e-05
3.58369459e-05
3.58368616e-05
3.58312384e-05
3.58302704e-05
3.58356159e-05
3.58379885e-05
3.58334004e-05
3.58298117e-05
3.58330975e-05
3.58377251e-05
3.58357423e-05
3.58306998e-05
3.58313878e-05
3.58363838e-05
3.58363109e-05
3.58324326e-05
3.58319556e-05
3.583448e-05
3.58352354e-05
3.58338144e-05
3.58331564e-05
3.5833783e-05
3.58340872e-05
3.58338778e-05
3.58340078e-05
3.58343646e-05
3.58336592e-05
3.58327086e-05
3.58337875e-05
3.58359508e-05
3.58350052e-05
3.58308987e-05
3.58312061e-05
3.58374932e-05
3.58383314e-05
3.58308866e-05
3.58276593e-05
3.58351235e-05
3.58421864e-05
3.58357731e-05
3.58245891e-05
3.58276606e-05
3.58443509e-05
3.58438338e-05
3.58256535e-05
3.58223359e-05
3.58383784e-05
3.58473716e-05
3.58342742e-05
3.58211187e-05
3.58286326e-05
3.58463502e-05
3.58437142e-05
3.58237222e-05
3.58237661e-05
3.58401929e-05
3.58439519e-05
3.58315258e-05
3.58254508e-05
3.58333175e-05
3.58410098e-05
3.58363495e-05
3.58285791e-05
3.58305054e-05
3.58378286e-05
3.58374147e-05
3.58313507e-05
3.58310257e-05
3.58350838e-05
3.58361512e-05
3.58336278e-05
3.58321981e-05
3.58335253e-05
3.58350893e-05
3.58346637e-05
3.58331086e-05
3.58331347e-05
3.58340951e-05
3.58344345e-05
3.58341582e-05
3.58335624e-05
3.5833543e-05
3.58338302e-05
3.58341555e-05
3.58341346e-05
3.5833813e-05
3.58336439e-05
3.5833738e-05
3.58340466e-05
3.58340828e-05
3.58339561e-05
3.58337239e-05
3.58336909e-05
3.58338506e-05
3.58341567e-05
3.58341373e-05
3.58336391e-05
3.58334344e-05
3.5833967e-05
3.58345914e-05
3.58341945e-05
3.58328888e-05
3.58330073e-05
3.5835046e-05
3.58354025e-05
3.58330283e-05
3.58316625e-05
3.58339191e-05
3.58368189e-05
3.58353058e-05
3.58305472e-05
3.58309372e-05
3.58370131e-05
3.58378669e-05
3.58321884e-05
3.5829422e-05
3.58336546e-05
3.58384643e-05
3.58361956e-05
3.58299171e-05
3.58303755e-05
3.58366065e-05
3.58374628e-05
3.58330723e-05
3.58308681e-05
3.58332035e-05
3.5836168e-05
3.5835455e-05
3.58323984e-05
3.58324363e-05
3.5834411e-05
3.58349329e-05
3.58339823e-05
3.5833261e-05
3.58335597e-05
3.58341885e-05
3.5834154e-05
3.58338249e-05
3.58337816e-05
3.58338455e-05
3.58338753e-05
3.58339025e-05
3.58339467e-05
3.58339126e-05
3.5833856e-05
3.58338639e-05
3.58338601e-05
3.58338295e-05
3.58339423e-05
3.58341075e-05
3.58339212e-05
3.58334397e-05
3.58335494e-05
3.58345838e-05
3.58346079e-05
3.58331845e-05
3.58327102e-05
3.58342949e-05
3.58355242e-05
3.58341204e-05
3.58319261e-05
3.58327519e-05
3.58359995e-05
3.58358081e-05
3.58320899e-05
3.58315959e-05
3.58349247e-05
3.58363912e-05
3.58337546e-05
3.58314177e-05
3.58331007e-05
3.58362162e-05
3.58355379e-05
3.58318614e-05
3.58319244e-05
3.5835183e-05
3.58359088e-05
3.58334704e-05
3.58319955e-05
3.58334902e-05
3.58355496e-05
3.58349233e-05
3.58325741e-05
3.58326633e-05
3.58346665e-05
3.58349879e-05
3.5833642e-05
3.5833029e-05
3.58338086e-05
3.58344739e-05
3.58340656e-05
3.583353e-05
3.58337655e-05
3.58341439e-05
3.58339212e-05
3.58335495e-05
3.58338359e-05
3.58344468e-05
3.58342031e-05
3.58330675e-05
3.58331238e-05
3.58347548e-05
3.58351357e-05
3.58334218e-05
3.58322087e-05
3.58335137e-05
3.5835826e-05
3.58353603e-05
3.58320289e-05
3.58318683e-05
3.58348968e-05
3.58361631e-05
3.58339746e-05
3.58317095e-05
3.58328026e-05
3.58357393e-05
3.58355053e-05
3.58326521e-05
3.5832353e-05
3.58343504e-05
3.58351604e-05
3.58339671e-05
3.58329522e-05
3.58335291e-05
3.5834512e-05
3.58343149e-05
3.5833511e-05
3.5833538e-05
3.58340688e-05
3.58341144e-05
3.58338307e-05
3.58337529e-05
3.58338897e-05
3.58339596e-05
3.58339001e-05
3.58338507e-05
3.58338737e-05
3.58339039e-05
3.58338962e-05
3.583388e-05
3.58338824e-05
3.58338894e-05
3.58338884e-05
3.58338858e-05
3.58338914e-05
3.58338991e-05
3.58338843e-05
3.58338479e-05
3.583387e-05
3.58340607e-05
3.58340789e-05
3.58335396e-05
3.58332177e-05
3.58346015e-05
3.58366607e-05
3.58345635e-05
3.58269759e-05
3.58282565e-05
3.58527822e-05
3.58584129e-05
3.58112182e-05
3.57828008e-05
3.58556514e-05
3.59912739e-05
3.58772988e-05
3.57447765e-05
3.57250212e-05
3.67213169e-05
3.6821886e-05
3.57409377e-05
3.53355126e-05
3.57003915e-05
3.63457984e-05
3.68331503e-05
3.59079237e-05
3.52205895e-05
3.57171893e-05
3.68441594e-05
3.68238712e-05
3.53002622e-05
3.52946115e-05
3.58991206e-05
3.67993668e-05
3.67830945e-05
3.52212059e-05
3.52273925e-05
3.63485572e-05
3.67808861e-05
3.59021962e-05
3.51961426e-05
3.57369102e-05
3.68265305e-05
3.67808126e-05
3.53100846e-05
3.56546782e-05
3.6822381e-05
)
;

boundaryField
{
    closed
    {
        type            calculated;
        value           uniform 5.12087593e-05;
    }
    open
    {
        type            calculated;
        value           nonuniform List<scalar> 0();
    }
    sides
    {
        type            empty;
    }
    procBoundary0to1
    {
        type            processor;
        value           uniform 3.64447529e-05;
    }
}


// ************************************************************************* //
