/*--------------------------------*- C++ -*----------------------------------*\
| =========                 |                                                 |
| \\      /  F ield         | OpenFOAM: The Open Source CFD Toolbox           |
|  \\    /   O peration     | Version:  2306                                  |
|   \\  /    A nd           | Website:  www.openfoam.com                      |
|    \\/     M anipulation  |                                                 |
\*---------------------------------------------------------------------------*/
FoamFile
{
    version     2.0;
    format      ascii;
    arch        "LSB;label=32;scalar=64";
    class       volScalarField;
    location    "0.0003";
    object      H2O;
}
// * * * * * * * * * * * * * * * * * * * * * * * * * * * * * * * * * * * * * //

dimensions      [0 0 0 0 0 0 0];

internalField   nonuniform List<scalar> 
530
(
0.00455162352
0.00454382617
0.00450740488
0.0045071607
0.00450713558
0.00450713543
0.00450713542
0.00450713542
0.00450713542
0.00450713542
0.00450713542
0.00450713542
0.00450713542
0.00450713542
0.00450713542
0.00450713542
0.00450713542
0.00450713542
0.00450713542
0.00450713542
0.00450713542
0.00450713542
0.00450713542
0.00450713542
0.00450713542
0.00450713542
0.00450713542
0.00450713542
0.00450713542
0.00450713542
0.00450713542
0.00450713542
0.00450713542
0.00450713542
0.00450713542
0.00450713542
0.00450713542
0.00450713542
0.00450713542
0.00450713542
0.00450713542
0.00450713542
0.00450713542
0.00450713542
0.00450713542
0.00450713542
0.00450713542
0.00450713542
0.00450713542
0.00450713542
0.00450713542
0.00450713542
0.00450713542
0.00450713542
0.00450713542
0.00450713542
0.00450713542
0.00450713542
0.00450713542
0.00450713542
0.00450713542
0.00450713542
0.00450713542
0.00450713542
0.00450713542
0.00450713542
0.00450713542
0.00450713542
0.00450713542
0.00450713542
0.00450713542
0.00450713542
0.00450713542
0.00450713542
0.00450713542
0.00450713542
0.00450713542
0.00450713542
0.00450713542
0.00450713542
0.00450713542
0.00450713542
0.00450713542
0.00450713542
0.00450713542
0.00450713542
0.00450713542
0.00450713542
0.00450713543
0.00450713546
0.00450713531
0.00450713498
0.00450713635
0.00450713909
0.00450713024
0.00450711269
0.00450715573
0.00450724189
0.00450708156
0.00450675931
0.00450720727
0.00450811589
0.00450720152
0.00450533364
0.00450665844
0.00450936152
0.00450793732
0.00450481751
0.00450634411
0.00450988414
0.00450813014
0.00450331766
0.00450499661
0.00451236417
0.00451165275
0.00450086276
0.00450038417
0.00451245874
0.00451563398
0.00450410345
0.00449810748
0.00450768128
0.00451524237
0.00450773867
0.00450034235
0.00450726174
0.0045143192
0.00450535116
0.00449622806
0.00450901357
0.00452503683
0.00451001144
0.00448067053
0.0044925613
0.00454059244
0.00453700214
0.00447242025
0.00446579728
0.00453140329
0.00455558178
0.00449904018
0.00445629233
0.00449766332
0.00455396816
0.00453115444
0.00446745174
0.00447392427
0.00453775663
0.00453809697
0.00448991486
0.00448094311
0.00451410181
0.00452743883
0.00450665816
0.00449273772
0.00450457848
0.00451600349
0.00450976359
0.00450252745
0.00450640034
0.00451024431
0.00450499524
0.00450210967
0.00451177468
0.0045166962
0.00450246686
0.00449179208
0.00450792299
0.00452770554
0.00451409282
0.00448317748
0.00449011795
0.00453167691
0.00453065972
0.00448737744
0.00448063442
0.00451879064
0.00453427259
0.0045038172
0.00448053977
0.00450263553
0.00453232374
0.00451899699
0.00448345521
0.00448785074
0.00452895539
0.00452925131
0.00449187688
0.00448315369
0.00451458849
0.00453137583
0.00450766665
0.00448431377
0.00449978622
0.00452668313
0.00451871387
0.00449171441
0.0044943911
0.00451844499
0.00451808201
0.00449932711
0.0044985898
0.00451317909
0.00451424077
0.00450126009
0.00450002945
0.00451327842
0.00451545339
0.00450140206
0.00449697342
0.00451103814
0.00451898306
0.00450656163
0.0044943263
0.0045034105
0.00451973158
0.00451508386
0.00449581579
0.00449680065
0.00451579324
0.00451740751
0.00450183361
0.00449757379
0.00451022952
0.00451622147
0.00450513915
0.00449736202
0.00450816772
0.00451907937
0.00450841
0.00449188242
0.00450104978
0.00452564665
0.00452101713
0.0044861521
0.00448672914
0.00452548031
0.00453222816
0.0044952506
0.00447904977
0.00451049429
0.00453543295
0.00451258579
0.0044808424
0.00449438206
0.0045292328
0.00452443979
0.00448999412
0.004490492
0.00451719024
0.00452049757
0.00450305202
0.00449786057
0.00450763669
0.00451217985
0.00450785294
0.00450575645
0.00450719934
0.0045063037
0.00450384617
0.004508708
0.00451527876
0.00450782428
0.00449295754
0.00449944455
0.00452784715
0.00452571313
0.00448242294
0.0044767285
0.00452793485
0.00455055391
0.00449863909
0.0044506983
0.00449418686
0.00457229935
0.00455053822
0.00443620714
0.00443967283
0.00456474117
0.00458843541
0.0044764197
0.00441617934
0.00450447938
0.00459720001
0.00454368217
0.00442293242
0.00444044539
0.00457850664
0.00457817797
0.00446413577
0.00443888812
0.00452349505
0.00456618445
0.00451106661
0.00445861452
0.00449022347
0.00454408257
0.00453058605
0.00448014554
0.00448295936
0.00452470529
0.00452696527
0.00449890289
0.00449158637
0.00450892382
0.00451881569
0.00450963115
0.00449886352
0.0045017867
0.00451251046
0.00451232948
0.0045057016
0.00450336453
0.00450526636
0.00450937478
0.00450950858
0.004507527
0.00450528465
0.00450542878
0.004507646
0.00450881195
0.00450816269
0.00450603524
0.00450578596
0.00450665935
0.00450826008
0.00450848791
0.00450738615
0.00450527642
0.00450541055
0.00450884583
0.00451025882
0.00450658452
0.00450228464
0.00450501677
0.00451402974
0.00451321068
0.00449916024
0.00449671413
0.00451306547
0.00452253296
0.00450691568
0.00448702045
0.00449737783
0.00453029407
0.00452757832
0.00448569467
0.00447987754
0.00451888391
0.00453815891
0.00450873975
0.00447581553
0.00449127724
0.00453469546
0.00453149172
0.00448847387
0.00448262837
0.00451276348
0.00452806023
0.00451185346
0.00449147081
0.00449635201
0.00451742694
0.00451716342
0.00450352679
0.00449993751
0.00450647856
0.00451145717
0.0045093936
0.00450505813
0.00450529518
0.00450756397
0.00450786231
0.00450742136
0.00450721632
0.00450702861
0.00450672366
0.00450695922
0.00450734929
0.00450729452
0.00450732059
0.0045075321
0.00450675416
0.00450561608
0.00450689977
0.0045102218
0.00450946472
0.00450233651
0.00450217167
0.0045119848
0.00451526609
0.00450432506
0.00449587847
0.00450552731
0.00452070126
0.0045149772
0.00449262161
0.00449393269
0.00451956438
0.00452299455
0.00449999372
0.00448994208
0.00450804912
0.00452423333
0.00451256405
0.00449113935
0.00449578364
0.00452115033
0.00452071325
0.00449821994
0.00449324341
0.00451001076
0.00452021952
0.00450987353
0.00449570417
0.00450000199
0.00451620865
0.00451559012
0.00450176826
0.00449955896
0.00450882551
0.00451306012
0.00450767587
0.00450309326
0.0045059047
0.00450959865
0.00450797348
0.00450536473
0.00450689997
0.00450946429
0.00450748822
0.00450327973
0.00450495727
0.00451279362
0.00451240467
0.0045011611
0.00449854431
0.0045103458
0.00451874031
0.00450971164
0.00449380962
0.00449700242
0.00451998727
0.0045211021
0.00450018602
0.00449150205
0.00450653217
0.00452220546
0.00451462553
0.00449440423
0.00449600763
0.00451566855
0.00451774005
0.00450394351
0.00449837484
0.00450658339
0.00451359173
0.00450960487
0.00450283127
0.00450418705
0.0045097294
0.0045095431
0.00450588214
0.00450556798
0.00450752366
0.00450806001
0.00450711663
0.00450663498
0.004507045
0.00450738584
0.00450722737
0.00450701941
0.00450707206
0.00450718396
0.00450716815
0.0045071209
0.00450712896
0.00450714849
0.00450711435
0.0045070666
0.00450717984
0.00450744839
0.00450732151
0.00450606632
0.0045060025
0.00450988192
0.00451229078
0.00450312712
0.00448953192
0.0045048071
0.00455938994
0.0045523654
0.00438895879
0.00435636431
0.00469549148
0.00494863678
0.00440334706
0.00362645637
0.00429984424
0.00626023685
0.00619320721
0.000761556596
0.000881589506
0.00621819266
0.00708439387
0.00618477293
0.00207476764
0.00103438892
0.00398759053
0.00725912336
0.00579712997
0.001048224
0.000895647887
0.00713647828
0.00714595026
0.00430925265
0.0010511102
0.000696372434
0.00726018561
0.00725090925
0.00206441094
0.000999940747
0.00404321234
0.00729881279
0.00591354789
0.00103186387
0.00073915742
0.00712080265
0.00658405145
0.00099562244
)
;

boundaryField
{
    closed
    {
        type            calculated;
        value           uniform 5.65027847e-08;
    }
    open
    {
        type            calculated;
        value           nonuniform List<scalar> 0();
    }
    sides
    {
        type            empty;
    }
    procBoundary0to1
    {
        type            processor;
        value           uniform 0.00171903308;
    }
}


// ************************************************************************* //
