/*--------------------------------*- C++ -*----------------------------------*\
| =========                 |                                                 |
| \\      /  F ield         | OpenFOAM: The Open Source CFD Toolbox           |
|  \\    /   O peration     | Version:  2306                                  |
|   \\  /    A nd           | Website:  www.openfoam.com                      |
|    \\/     M anipulation  |                                                 |
\*---------------------------------------------------------------------------*/
FoamFile
{
    version     2.0;
    format      ascii;
    arch        "LSB;label=32;scalar=64";
    class       volScalarField;
    location    "0.00188";
    object      p;
}
// * * * * * * * * * * * * * * * * * * * * * * * * * * * * * * * * * * * * * //

dimensions      [1 -1 -2 0 0 0 0];

internalField   nonuniform List<scalar> 
531
(
101338.032
101336.506
101334.755
101332.96
101331.101
101329.162
101327.224
101325.414
101323.691
101321.663
101319.655
101317.537
101315.85
101314.074
101311.051
101311.31
101308.686
101306.918
101305.43
101304.158
101301.747
101300.327
101298.961
101297.424
101295.271
101295.339
101293.596
101292.34
101290.919
101288.47
101288.866
101286.724
101285.252
101283.723
101281.152
101281.324
101278.959
101277.193
101275.4
101273.46
101271.605
101269.64
101267.659
101265.661
101263.664
101261.506
101259.029
101257.159
101255.171
101253.549
101251.469
101249.379
101247.476
101245.611
101243.881
101242.277
101240.86
101239.839
101238.828
101237.998
101237.261
101236.602
101235.976
101235.567
101235.284
101235.042
101234.876
101234.505
101234.172
101233.761
101233.317
101232.819
101232.384
101231.949
101231.561
101231.289
101231.102
101231.036
101231.116
101231.25
101231.609
101232.085
101232.647
101233.34
101233.987
101234.855
101235.755
101236.706
101237.596
101238.476
101239.501
101240.494
101241.459
101242.395
101243.324
101244.232
101245.037
101245.994
101246.957
101247.896
101248.855
101249.759
101250.838
101251.991
101253.124
101254.283
101255.419
101256.567
101257.863
101259.192
101260.526
101261.886
101263.295
101264.612
101266.13
101267.676
101269.225
101270.807
101272.26
101273.894
101275.548
101277.188
101278.853
101280.42
101282.134
101283.92
101285.822
101287.515
101289.459
101291.533
101293.717
101296.045
101298.296
101300.827
101303.478
101306.188
101308.904
101311.417
101314.113
101316.816
101319.483
101321.991
101324.192
101326.436
101328.606
101330.784
101332.493
101334.303
101336.042
101337.681
101339.181
101340.396
101341.648
101342.886
101344.192
101345.165
101346.22
101347.573
101349.156
101349.762
101350.817
101352.171
101353.646
101354.919
101356.459
101358.139
101359.93
101361.773
101363.467
101365.338
101367.3
101369.387
101371.211
101373.173
101375.194
101377.235
101379.252
101381.291
101383.31
101385.076
101386.95
101388.878
101390.896
101392.585
101394.37
101396.136
101397.841
101399.434
101400.68
101401.882
101402.968
101403.951
101404.507
101404.946
101405.189
101405.21
101405.099
101404.573
101403.904
101403.066
101402.065
101400.668
101399.028
101397.048
101394.685
101392.243
101389.435
101386.631
101383.947
101381.401
101378.741
101376.022
101373.168
101370.173
101367.421
101364.474
101361.575
101358.626
101355.79
101353.201
101350.581
101348.024
101345.156
101341.726
101337.701
101333.483
101328.603
101323.56
101318.434
101313.366
101308.907
101304.375
101300.089
101295.829
101291.416
101287.267
101282.66
101278.014
101273.211
101268.444
101264.549
101260.849
101257.582
101254.278
101250.901
101248.036
101245.287
101243.375
101242.337
101242.542
101243.72
101246.066
101248.574
101251.168
101254.382
101258.059
101263.284
101270.469
101279.986
101290.853
101302.076
101313.793
101325.319
101336.746
101347.897
101359.056
101370.939
101383.572
101397.246
101412.124
101428.323
101444.557
101460.727
101477.412
101495.099
101512.464
101528.34
101544.135
101560.703
101578.41
101591.687
101606.111
101620.202
101633.382
101645.154
101656.006
101666.49
101675.841
101684.019
101690.102
101695.474
101700.308
101704.079
101706.51
101708.518
101709.841
101710.162
101709.479
101708.398
101706.318
101703.131
101698.176
101690.396
101679.401
101665.417
101657.752
101648.797
101637.929
101626.335
101612.98
101598.589
101584.237
101570.973
101558.928
101546.413
101533.321
101520.188
101506.743
101491.755
101476.933
101462.377
101448.005
101433.111
101418.289
101404.04
101390.138
101376.555
101363.896
101352.317
101340.902
101328.623
101315.505
101301.722
101287.989
101275.048
101261.809
101249.312
101238.28
101228.452
101216.302
101205.085
101193.879
101182.783
101172.548
101161.18
101149.696
101138.21
101127.16
101117.367
101108.713
101100.539
101092.418
101085.175
101078.561
101072.31
101066.753
101061.593
101056.362
101051.227
101046.453
101042.029
101037.7
101033.52
101029.436
101025.766
101022.466
101019.493
101017.019
101015.218
101013.881
101012.95
101012.344
101012.032
101011.92
101011.961
101012.178
101012.46
101012.752
101013.345
101013.41
101013.597
101013.672
101013.889
101014.921
101016.207
101017.425
101018.655
101020.07
101021.869
101024.199
101027.123
101030.546
101034.294
101038.209
101042.242
101046.41
101050.573
101054.547
101058.429
101063.43
101065.65
101069.821
101073.17
101076.181
101079.082
101081.686
101084.093
101086.432
101088.72
101090.989
101093.451
101096.096
101098.781
101101.824
101103.476
101105.901
101108.344
101110.718
101113.324
101116.1
101119.021
101122.237
101125.653
101129.243
101133.046
101136.972
101140.702
101143.752
101147.153
101150.393
101153.525
101156.75
101159.953
101162.747
101165.392
101168.72
101173.12
101177.861
101183.349
101189.36
101195.195
101200.763
101206.18
101211.496
101216.069
101220.709
101225.275
101229.829
101234.321
101238.126
101241.856
101245.364
101248.709
101251.889
101254.461
101256.903
101259.082
101261.072
101262.923
101264.399
101265.851
101267.249
101268.707
101270.172
101271.583
101273.014
101274.339
101275.65
101277.055
101278.301
101279.479
101280.307
101280.918
101281.366
101281.919
101282.89
101283.982
101285.512
101287.28
101288.89
101290.367
101291.68
101292.984
101294.348
101295.663
101297.036
101298.368
101299.653
101301.089
101302.436
101303.658
101304.788
101305.855
101306.806
101307.77
101308.567
101309.46
101310.233
101310.814
101311.719
101311.897
101312.224
101312.482
101312.611
101312.696
101312.731
101312.521
101312.328
101311.898
101311.55
101311.045
101310.046
101309.318
101308.367
101307.314
101306.146
101304.823
101303.441
101302.001
101300.371
101298.561
101296.579
101294.544
101292.501
101290.34
101288.019
101285.615
101283.29
101281.335
101278.537
101276.003
)
;

boundaryField
{
    closed
    {
        type            zeroGradient;
    }
    open
    {
        type            waveTransmissive;
        gamma           1.25;
        fieldInf        101325;
        lInf            1;
        value           nonuniform List<scalar> 0();
    }
    sides
    {
        type            empty;
    }
    procBoundary1to0
    {
        type            processor;
        value           uniform 101339.47;
    }
    procBoundary1to2
    {
        type            processor;
        value           uniform 101273.672;
    }
}


// ************************************************************************* //
