/*--------------------------------*- C++ -*----------------------------------*\
| =========                 |                                                 |
| \\      /  F ield         | OpenFOAM: The Open Source CFD Toolbox           |
|  \\    /   O peration     | Version:  2306                                  |
|   \\  /    A nd           | Website:  www.openfoam.com                      |
|    \\/     M anipulation  |                                                 |
\*---------------------------------------------------------------------------*/
FoamFile
{
    version     2.0;
    format      ascii;
    arch        "LSB;label=32;scalar=64";
    class       volVectorField;
    location    "0.00188";
    object      U;
}
// * * * * * * * * * * * * * * * * * * * * * * * * * * * * * * * * * * * * * //

dimensions      [0 1 -1 0 0 0 0];

internalField   nonuniform List<vector> 
531
(
(0.40095093 0 0)
(0.389453472 0 0)
(0.383429721 0 0)
(0.386193305 0 0)
(0.393470518 0 0)
(0.382513693 0 0)
(0.367741497 0 0)
(0.362268618 0 0)
(0.357311898 0 0)
(0.35538813 0 0)
(0.362673812 0 0)
(0.355520036 0 0)
(0.34054267 0 0)
(0.333654132 0 0)
(0.330890075 0 0)
(0.337019311 0 0)
(0.33242294 0 0)
(0.318862375 0 0)
(0.311134874 0 0)
(0.309748921 0 0)
(0.316736428 0 0)
(0.312462121 0 0)
(0.301507333 0 0)
(0.295802829 0 0)
(0.292554831 0 0)
(0.300075004 0 0)
(0.300417549 0 0)
(0.290034441 0 0)
(0.28545332 0 0)
(0.284096577 0 0)
(0.293296356 0 0)
(0.295232821 0 0)
(0.286317486 0 0)
(0.283375373 0 0)
(0.283313627 0 0)
(0.294488097 0 0)
(0.299024669 0 0)
(0.291337588 0 0)
(0.289685325 0 0)
(0.289582897 0 0)
(0.300807148 0 0)
(0.312993085 0 0)
(0.317069235 0 0)
(0.317341495 0 0)
(0.315421314 0 0)
(0.319439861 0 0)
(0.324995158 0 0)
(0.327640859 0 0)
(0.346381458 0 0)
(0.356809948 0 0)
(0.353021744 0 0)
(0.357575485 0 0)
(0.373533242 0 0)
(0.381240385 0 0)
(0.376426047 0 0)
(0.378162706 0 0)
(0.378711937 0 0)
(0.392259273 0 0)
(0.400261914 0 0)
(0.39227243 0 0)
(0.391339549 0 0)
(0.404154854 0 0)
(0.409011392 0 0)
(0.403652161 0 0)
(0.405184614 0 0)
(0.404766588 0 0)
(0.416036549 0 0)
(0.421369342 0 0)
(0.412364993 0 0)
(0.412082139 0 0)
(0.422679755 0 0)
(0.426962887 0 0)
(0.426235469 0 0)
(0.430693501 0 0)
(0.432599877 0 0)
(0.434687715 0 0)
(0.438065582 0 0)
(0.437681926 0 0)
(0.442230734 0 0)
(0.440413152 0 0)
(0.427775451 0 0)
(0.422158894 0 0)
(0.415434918 0 0)
(0.419511036 0 0)
(0.417931514 0 0)
(0.401736647 0 0)
(0.393361413 0 0)
(0.394570779 0 0)
(0.399844683 0 0)
(0.390911242 0 0)
(0.375267726 0 0)
(0.369166124 0 0)
(0.368480669 0 0)
(0.366219195 0 0)
(0.361151882 0 0)
(0.364227985 0 0)
(0.360718086 0 0)
(0.346087294 0 0)
(0.33886043 0 0)
(0.333873102 0 0)
(0.335186443 0 0)
(0.334229322 0 0)
(0.331539922 0 0)
(0.331654849 0 0)
(0.321415543 0 0)
(0.316642295 0 0)
(0.3195962 0 0)
(0.309972275 0 0)
(0.297553582 0 0)
(0.291541815 0 0)
(0.289460059 0 0)
(0.285105083 0 0)
(0.289268211 0 0)
(0.286286427 0 0)
(0.272828455 0 0)
(0.267086812 0 0)
(0.260969518 0 0)
(0.266709784 0 0)
(0.266216874 0 0)
(0.254478959 0 0)
(0.249434066 0 0)
(0.24343872 0 0)
(0.246340021 0 0)
(0.249943846 0 0)
(0.245893974 0 0)
(0.233826502 0 0)
(0.236442189 0 0)
(0.240238659 0 0)
(0.231543118 0 0)
(0.228222364 0 0)
(0.222310553 0 0)
(0.230649859 0 0)
(0.232978338 0 0)
(0.224074816 0 0)
(0.222181795 0 0)
(0.208829928 0 0)
(0.207491957 0 0)
(0.208321136 0 0)
(0.199247603 0 0)
(0.197525492 0 0)
(0.187904096 0 0)
(0.187532863 0 0)
(0.189413096 0 0)
(0.183497915 0 0)
(0.17699078 0 0)
(0.185010709 0 0)
(0.196307813 0 0)
(0.1899197 0 0)
(0.190361764 0 0)
(0.183224618 0 0)
(0.186231789 0 0)
(0.192556706 0 0)
(0.191240366 0 0)
(0.189346235 0 0)
(0.200229152 0 0)
(0.213768172 0 0)
(0.198339155 0 0)
(0.184780986 0 0)
(0.215450093 0 0)
(0.24874251 0 0)
(0.230941408 0 0)
(0.217026613 0 0)
(0.229515315 0 0)
(0.242153625 0 0)
(0.237545234 0 0)
(0.238244511 0 0)
(0.235768816 0 0)
(0.242405718 0 0)
(0.248156083 0 0)
(0.24630217 0 0)
(0.24808962 0 0)
(0.262198852 0 0)
(0.274609021 0 0)
(0.273086607 0 0)
(0.276953134 0 0)
(0.282304621 0 0)
(0.287856102 0 0)
(0.28826771 0 0)
(0.29640657 0 0)
(0.306635108 0 0)
(0.307336889 0 0)
(0.312233811 0 0)
(0.327309412 0 0)
(0.339836972 0 0)
(0.338428742 0 0)
(0.34385315 0 0)
(0.343610217 0 0)
(0.352322741 0 0)
(0.360884009 0 0)
(0.361912423 0 0)
(0.370506781 0 0)
(0.387571205 0 0)
(0.399618373 0 0)
(0.401117911 0 0)
(0.410978837 0 0)
(0.415345965 0 0)
(0.42883892 0 0)
(0.441733285 0 0)
(0.445600826 0 0)
(0.459624081 0 0)
(0.481775977 0 0)
(0.495956348 0 0)
(0.500282025 0 0)
(0.514841157 0 0)
(0.523684347 0 0)
(0.542742803 0 0)
(0.560381805 0 0)
(0.56535963 0 0)
(0.583300728 0 0)
(0.609121381 0 0)
(0.621768008 0 0)
(0.623974263 0 0)
(0.640098618 0 0)
(0.648716483 0 0)
(0.66720142 0 0)
(0.683241515 0 0)
(0.683057404 0 0)
(0.700343648 0 0)
(0.729432321 0 0)
(0.771137095 0 0)
(0.791384521 0 0)
(0.793356098 0 0)
(0.819424083 0 0)
(0.850569984 0 0)
(0.863156727 0 0)
(0.890878197 0 0)
(0.913734581 0 0)
(0.916332557 0 0)
(0.939957334 0 0)
(0.955323348 0 0)
(0.980698524 0 0)
(1.00017745 0 0)
(0.996272734 0 0)
(1.01745546 0 0)
(1.0316342 0 0)
(1.05692974 0 0)
(1.07678608 0 0)
(1.07135803 0 0)
(1.09329016 0 0)
(1.10640833 0 0)
(1.13003042 0 0)
(1.14756529 0 0)
(1.13798926 0 0)
(1.15676178 0 0)
(1.16839191 0 0)
(1.18852737 0 0)
(1.20299508 0 0)
(1.18724988 0 0)
(1.20276878 0 0)
(1.22665787 0 0)
(1.21222043 0 0)
(1.17962008 0 0)
(1.17549605 0 0)
(1.16130813 0 0)
(1.15433272 0 0)
(1.13819667 0 0)
(1.09536487 0 0)
(1.07963092 0 0)
(1.0576575 0 0)
(1.03453962 0 0)
(0.999097496 0 0)
(0.940493655 0 0)
(0.902494664 0 0)
(0.861943658 0 0)
(0.819883159 0 0)
(0.779340055 0 0)
(0.716322767 0 0)
(0.64257751 0 0)
(0.589801355 0 0)
(0.547882007 0 0)
(0.498369217 0 0)
(0.441708207 0 0)
(0.380562066 0 0)
(0.331414566 0 0)
(0.292829252 0 0)
(0.233877686 0 0)
(0.167057905 0 0)
(0.112540029 0 0)
(0.0580676068 0 0)
(-0.00809240691 0 0)
(-0.0682533018 0 0)
(-0.12191061 0 0)
(-0.167240903 0 0)
(-0.222210963 0 0)
(-0.284453651 0 0)
(-0.343686156 0 0)
(-0.390307646 0 0)
(-0.426593354 0 0)
(-0.457155302 0 0)
(-0.511749218 0 0)
(-0.586740916 0 0)
(-0.621300588 0 0)
(-0.641905854 0 0)
(-0.69875809 0 0)
(-0.766678972 0 0)
(-0.786666551 0 0)
(-0.816242106 0 0)
(-0.88497583 0 0)
(-0.948084538 0 0)
(-0.986277576 0 0)
(-1.00799479 0 0)
(-1.02313595 0 0)
(-1.07617248 0 0)
(-1.10453914 0 0)
(-1.10666743 0 0)
(-1.09759769 0 0)
(-1.07809851 0 0)
(-1.10583646 0 0)
(-1.12039193 0 0)
(-1.11763862 0 0)
(-1.11342026 0 0)
(-1.09802916 0 0)
(-1.11731594 0 0)
(-1.11050207 0 0)
(-1.05322034 0 0)
(-1.00285477 0 0)
(-0.976939701 0 0)
(-0.958622993 0 0)
(-0.925541454 0 0)
(-0.886817325 0 0)
(-0.867102849 0 0)
(-0.830049446 0 0)
(-0.774588651 0 0)
(-0.724052367 0 0)
(-0.672715577 0 0)
(-0.628084169 0 0)
(-0.583693283 0 0)
(-0.536197083 0 0)
(-0.501991498 0 0)
(-0.459687272 0 0)
(-0.421226202 0 0)
(-0.399051292 0 0)
(-0.368222817 0 0)
(-0.328594736 0 0)
(-0.270412898 0 0)
(-0.241273221 0 0)
(-0.220705452 0 0)
(-0.207014995 0 0)
(-0.136475476 0 0)
(-0.0798152673 0 0)
(-0.0608306021 0 0)
(-0.032604062 0 0)
(-0.0304805678 0 0)
(0.0153860789 0 0)
(0.0355143809 0 0)
(0.0467930765 0 0)
(0.0573741145 0 0)
(0.074812033 0 0)
(0.106397546 0 0)
(0.121286232 0 0)
(0.102170277 0 0)
(0.116891051 0 0)
(0.187309603 0 0)
(0.194308474 0 0)
(0.187688788 0 0)
(0.218944801 0 0)
(0.22453958 0 0)
(0.234717579 0 0)
(0.230467123 0 0)
(0.230761791 0 0)
(0.2512857 0 0)
(0.262539644 0 0)
(0.250682822 0 0)
(0.245130528 0 0)
(0.245413789 0 0)
(0.253252051 0 0)
(0.256445675 0 0)
(0.2463322 0 0)
(0.260619254 0 0)
(0.25859213 0 0)
(0.257263762 0 0)
(0.251506606 0 0)
(0.24924646 0 0)
(0.261512068 0 0)
(0.267967419 0 0)
(0.254753775 0 0)
(0.252843571 0 0)
(0.253488827 0 0)
(0.273434548 0 0)
(0.291009987 0 0)
(0.265235627 0 0)
(0.252204335 0 0)
(0.247662023 0 0)
(0.232331744 0 0)
(0.211595134 0 0)
(0.203410649 0 0)
(0.187184197 0 0)
(0.168048024 0 0)
(0.154432954 0 0)
(0.141790627 0 0)
(0.12901223 0 0)
(0.117273388 0 0)
(0.1034631 0 0)
(0.0874477589 0 0)
(0.0723913335 0 0)
(0.0572132257 0 0)
(0.0388483346 0 0)
(0.0165592421 0 0)
(-0.0205843362 0 0)
(-0.00621864554 0 0)
(-0.000806836907 0 0)
(-0.0407814917 0 0)
(-0.0583720664 0 0)
(-0.074673975 0 0)
(-0.0886552522 0 0)
(-0.110436932 0 0)
(-0.125705124 0 0)
(-0.131473756 0 0)
(-0.146197323 0 0)
(-0.165444077 0 0)
(-0.177965601 0 0)
(-0.189704233 0 0)
(-0.233654675 0 0)
(-0.205159878 0 0)
(-0.17093427 0 0)
(-0.210943024 0 0)
(-0.235883708 0 0)
(-0.264479857 0 0)
(-0.281223548 0 0)
(-0.287650129 0 0)
(-0.300427823 0 0)
(-0.309446503 0 0)
(-0.328030913 0 0)
(-0.350329141 0 0)
(-0.357075431 0 0)
(-0.381035345 0 0)
(-0.384209575 0 0)
(-0.38529794 0 0)
(-0.391060427 0 0)
(-0.409986017 0 0)
(-0.436013585 0 0)
(-0.436080741 0 0)
(-0.447742673 0 0)
(-0.45994947 0 0)
(-0.474774831 0 0)
(-0.481325932 0 0)
(-0.488391144 0 0)
(-0.498606438 0 0)
(-0.507779804 0 0)
(-0.516340796 0 0)
(-0.510378335 0 0)
(-0.503745524 0 0)
(-0.501562656 0 0)
(-0.48257145 0 0)
(-0.475074426 0 0)
(-0.469898142 0 0)
(-0.463654187 0 0)
(-0.459762657 0 0)
(-0.441032777 0 0)
(-0.432379252 0 0)
(-0.427327923 0 0)
(-0.417687241 0 0)
(-0.410165905 0 0)
(-0.393492855 0 0)
(-0.384387425 0 0)
(-0.377798587 0 0)
(-0.365984063 0 0)
(-0.354253795 0 0)
(-0.341669123 0 0)
(-0.332506635 0 0)
(-0.324323927 0 0)
(-0.31039613 0 0)
(-0.294592726 0 0)
(-0.29239718 0 0)
(-0.294435795 0 0)
(-0.287640633 0 0)
(-0.272776491 0 0)
(-0.259170671 0 0)
(-0.249205738 0 0)
(-0.245014582 0 0)
(-0.213394467 0 0)
(-0.191147 0 0)
(-0.19652442 0 0)
(-0.187750611 0 0)
(-0.175059647 0 0)
(-0.16801655 0 0)
(-0.159811255 0 0)
(-0.1537511 0 0)
(-0.142662119 0 0)
(-0.126887161 0 0)
(-0.115640748 0 0)
(-0.103442452 0 0)
(-0.09394478 0 0)
(-0.0776811875 0 0)
(-0.0673956638 0 0)
(-0.0598106903 0 0)
(-0.0459484377 0 0)
(-0.0451394036 0 0)
(-0.0465812451 0 0)
(-0.0366367121 0 0)
(-0.0250153477 0 0)
(-0.0165090715 0 0)
(-0.0140129121 0 0)
(-0.0217256166 0 0)
(0.00124739659 0 0)
(0.0196004867 0 0)
(0.00537342802 0 0)
(0.00506929075 0 0)
(-0.00438327786 0 0)
(0.0179327667 0 0)
(0.0419083702 0 0)
(0.0279554386 0 0)
(0.0293306791 0 0)
(0.0303590959 0 0)
(0.0205297201 0 0)
(0.0167896918 0 0)
(0.00542059847 0 0)
(0.0173956538 0 0)
(0.0257191488 0 0)
(0.00587745531 0 0)
(0.00526436678 0 0)
(0.00161539716 0 0)
(-0.00341056991 0 0)
(-0.00671072711 0 0)
(-0.0155562878 0 0)
(-0.0235677299 0 0)
(-0.0346552655 0 0)
(-0.0435756827 0 0)
(-0.0442474369 0 0)
(-0.055581516 0 0)
(-0.0720987285 0 0)
(-0.0827750051 0 0)
(-0.0950450305 0 0)
(-0.0985492783 0 0)
(-0.112147174 0 0)
(-0.130049802 0 0)
(-0.14201792 0 0)
(-0.164645885 0 0)
(-0.144708645 0 0)
(-0.142369783 0 0)
(-0.185394743 0 0)
)
;

boundaryField
{
    closed
    {
        type            noSlip;
    }
    open
    {
        type            inletOutlet;
        inletValue      nonuniform List<vector> 0();
        value           nonuniform List<vector> 0();
    }
    sides
    {
        type            empty;
    }
    procBoundary1to0
    {
        type            processor;
        value           uniform (0.408604425 0 0);
    }
    procBoundary1to2
    {
        type            processor;
        value           uniform (-0.190399395 0 0);
    }
}


// ************************************************************************* //
