/*--------------------------------*- C++ -*----------------------------------*\
| =========                 |                                                 |
| \\      /  F ield         | OpenFOAM: The Open Source CFD Toolbox           |
|  \\    /   O peration     | Version:  2306                                  |
|   \\  /    A nd           | Website:  www.openfoam.com                      |
|    \\/     M anipulation  |                                                 |
\*---------------------------------------------------------------------------*/
FoamFile
{
    version     2.0;
    format      ascii;
    arch        "LSB;label=32;scalar=64";
    class       volScalarField;
    location    "0.00078";
    object      h;
}
// * * * * * * * * * * * * * * * * * * * * * * * * * * * * * * * * * * * * * //

dimensions      [0 2 -2 0 0 0 0];

internalField   nonuniform List<scalar> 
531
(
10106.8039
9359.56429
-3056.09899
-4959.7052
130.140811
10100.1744
9345.12683
-3299.25929
-5374.75008
-817.174425
9933.48819
8475.33788
-4023.9478
-2906.91976
9793.98532
8424.81832
-4164.89367
-2322.94015
9938.17421
9426.08343
-3871.52361
-5563.65009
-559.589166
9969.30068
9342.72001
-4447.65682
-6665.21876
-1753.0765
9890.12992
10315.9589
9645.01437
10350.4099
9557.76417
825.422699
-4411.9687
-3891.65154
-3971.78845
-4812.98167
-953.539344
10063.4656
9866.34318
-1930.28898
-4932.47405
-887.681352
9925.57931
10481.1851
9277.49341
-4389.10769
-5975.22979
992.859315
9740.51596
7343.24538
-4878.59785
-3060.92952
9981.01179
9855.8522
-1354.12152
-5253.1881
-5200.2348
-2692.27708
9692.57527
10221.3749
9254.04756
10064.4716
7722.65698
-5123.40766
-5647.00376
-5521.23082
-1972.53181
9973.33593
10084.9474
235.386331
-4553.33662
-708.730395
10076.4283
9847.04493
-3449.09147
-4217.30128
2670.4672
10371.1324
9688.87754
-3376.85715
-6281.78849
-2421.4767
9986.89302
9938.64415
-824.142205
-5666.69543
-2358.80984
10009.2837
10015.5694
38.6514756
-5377.14939
-2347.0108
10023.522
10044.1018
527.709644
-5451.48215
-2810.09047
9894.75731
10008.5895
823.445205
-5445.43287
-2794.62827
9881.43353
10065.7792
1595.58951
-5484.63555
-3138.66438
9521.6997
10060.7943
1448.84951
-5075.98814
-3258.29292
6640.92801
10462.8079
9196.86746
-3842.96223
-4551.22437
-4480.53222
-2531.06587
9664.63157
10205.518
2266.70176
-4883.52728
-2572.06771
9965.7677
9565.33432
-5023.33157
-4435.84673
8884.01634
9987.7071
731.041967
-4953.8033
-1222.2187
10062.6477
9823.63289
-4676.32998
-4882.65307
4729.04474
10078.6427
5832.18069
-5475.65605
-3935.76891
9976.39512
9844.97549
-4218.87753
-4318.19062
4021.31278
10263.9446
9623.02284
-4594.97823
-5441.58461
2092.12221
10116.6936
9744.74349
-4559.60665
-5338.32339
2189.43991
10155.586
9796.54399
-4267.84177
-5007.63979
2468.72685
10210.6489
9815.10375
-4222.35862
-5289.12957
-3502.53296
3967.3151
10277.6714
9385.92566
-5544.24467
-5297.82993
9273.63558
9977.70466
1022.21724
-4767.61059
-889.887675
10147.5738
10001.3739
-3754.87486
-5043.83358
513.230636
10201.5204
10050.6523
-3475.33823
-4889.32278
254.360698
10023.9492
9532.72055
-5228.58323
-5047.45731
9961.20524
9933.03479
-628.693954
-5039.03377
-837.32556
10230.0742
10119.1378
-3158.20195
-5000.6109
-654.843157
10254.8913
10125.4115
-3152.27979
-5008.99506
2504.93879
9407.88393
4234.53554
-2443.38525
-409.645973
4141.61019
4429.01008
1633.88245
1025.02959
2226.99459
2804.95103
2499.46163
2087.03761
2121.92614
2322.80013
2346.28671
2278.30087
2248.65054
2264.56638
2281.45596
2279.75668
2272.49632
2271.63499
2273.91806
2275.0096
2273.90966
2272.29289
2273.72769
2278.15229
2276.10909
2262.77088
2263.69878
2300.73534
2302.64883
2222.69957
2199.86585
2360.19725
2458.27372
2162.73659
1863.72947
2349.13011
3107.45177
2468.97719
674.703657
1271.51613
4804.69931
4634.39922
-1546.31195
-2507.44026
6357.93916
9004.28636
-2508.4747
-4903.14621
6912.54265
9982.0067
388.526454
-4922.22028
1026.32658
9862.51999
6177.80747
-4716.43282
-4219.79883
9861.29567
10026.9802
-2319.5004
-5233.53725
3471.81372
9940.1045
5645.61913
-5145.43621
-4824.47339
9467.6852
10067.2383
-218.577895
-4835.59305
33.5362996
9948.92142
9592.63091
-3855.04395
-5654.50349
3607.89871
10054.6439
7086.72664
-4839.50264
-5176.60494
6978.88339
10048.369
571.883052
-4633.21685
1210.16829
10039.93
9254.06635
-3812.24855
-6029.1862
3322.88288
9858.22986
1432.52695
-4476.95579
2015.84191
10096.1447
9204.23921
-3752.44876
-5795.20869
2723.92882
9986.85438
7402.87241
-4244.66616
-5124.34757
4387.21159
10021.734
5750.94845
-4840.59382
-4412.48692
9281.29688
10074.0118
1167.30821
-4793.03302
-3600.67555
9689.96827
10010.0325
327.658518
-4875.60671
-2388.41524
9668.83395
9831.21605
-1481.09966
-3262.46719
1689.95692
5685.41059
3879.34485
235.804246
793.756145
3022.00114
3102.15336
1995.79156
1844.2275
2713.35504
2783.92522
1302.68807
1109.26252
3807.42438
4374.38509
646.193094
-2203.67504
3087.42449
8659.33691
2632.21865
-4557.6431
-354.67756
9537.53362
5239.26629
-4482.56965
-1106.62118
9612.8612
9607.58842
-2023.82246
-5526.65914
798.650021
9537.90055
4903.2586
-4146.72505
-906.12726
9516.01171
9592.8524
-1773.1793
-5666.70577
-146.385086
9341.17938
5230.94478
-3750.37817
-214.451053
9511.01229
9574.6671
-1514.26923
-5749.98377
-829.388142
9105.09665
5343.11757
-3749.97524
-81.5447611
9374.50808
8653.36396
-2622.52337
-5006.87765
1550.28933
9342.14741
4755.82425
-4570.87745
-1694.16567
8758.29821
5711.46716
-3935.76869
-649.633218
8991.54532
5477.63063
-3550.79599
-611.033421
9076.27468
9313.26755
-1248.63025
-5652.3662
-1564.63682
8660.43948
5835.97691
-3441.38927
-398.718581
8926.04382
5733.60943
-3239.96132
-676.178543
8908.03598
9306.68329
-764.880393
-5405.80764
-1759.22074
8494.78291
6262.01534
-2941.57875
-973.654346
8718.93882
9525.18288
695.554239
-4876.94712
-2624.44797
8147.88085
9708.87242
3269.73814
-3789.93416
-4586.07018
2519.21147
9477.52157
9457.65
-1086.78615
-5672.88861
-3370.1617
7762.04087
7246.09676
-3018.8761
-2320.84631
8031.92637
7282.48605
-2902.21104
-2329.43616
7977.69946
7408.79274
-2687.466
-2481.30964
7873.01525
9208.94441
1433.49436
-4823.07127
-3438.69693
7501.20876
7664.94545
-2489.04076
-2628.3392
7639.85611
7686.54642
-2723.2861
-2871.33198
7488.8073
7620.03983
-2664.49252
-2873.59879
7466.92061
7685.35189
-2385.97419
-2734.54699
7274.77559
9125.13846
1933.23401
-4374.66646
-3587.06423
7231.85444
9321.63133
2826.0001
-4075.39674
-3457.68802
7306.9441
9311.02569
2641.42758
-4519.71093
-3809.72731
6221.84327
9514.60683
9897.78528
9559.38676
121.887616
-4012.55151
-5421.10166
-4361.6098
7324.58321
8660.40169
441.572955
-4879.32326
-3096.93322
8000.33679
9235.35685
1227.03356
-4072.46061
-1896.65348
8460.38647
9349.39364
914.010002
-4119.2274
-1634.63807
8589.10913
9221.11554
273.463979
-4459.17048
-2003.64285
8515.98384
9192.9624
310.73898
-4548.80182
-2279.18491
8365.66628
9494.88366
1154.25348
-5402.39891
-3830.81721
6488.50455
9546.44748
9743.64515
)
;

boundaryField
{
    closed
    {
        type            lookUpEnthalpy;
        h0              nonuniform List<scalar> 0();
        value           nonuniform List<scalar> 0();
    }
    open
    {
        type            zeroGradient;
    }
    sides
    {
        type            empty;
    }
    procBoundary3to2
    {
        type            processor;
        value           uniform 214.125505;
    }
    procBoundary3to4
    {
        type            processor;
        value           uniform 8634.51174;
    }
}


// ************************************************************************* //
