/*--------------------------------*- C++ -*----------------------------------*\
| =========                 |                                                 |
| \\      /  F ield         | OpenFOAM: The Open Source CFD Toolbox           |
|  \\    /   O peration     | Version:  2306                                  |
|   \\  /    A nd           | Website:  www.openfoam.com                      |
|    \\/     M anipulation  |                                                 |
\*---------------------------------------------------------------------------*/
FoamFile
{
    version     2.0;
    format      ascii;
    arch        "LSB;label=32;scalar=64";
    class       volScalarField;
    location    "0.0008";
    object      prefDPV_H2O;
}
// * * * * * * * * * * * * * * * * * * * * * * * * * * * * * * * * * * * * * //

dimensions      [1 -1 -1 0 0 0 0];

internalField   nonuniform List<scalar> 
531
(
-3.84039724e-07
-3.66058769e-07
-3.64779492e-07
-3.69452733e-07
-3.8402131e-07
-3.84158364e-07
-3.65597881e-07
-3.64229643e-07
-3.67645791e-07
-3.84248981e-07
-3.84435338e-07
-3.6539442e-07
-3.6607026e-07
-3.83936964e-07
-3.8412905e-07
-3.65909019e-07
-3.64637653e-07
-3.68537447e-07
-3.84172942e-07
-3.84367067e-07
-3.65833567e-07
-3.66508046e-07
-3.83784506e-07
-3.838481e-07
-3.67276444e-07
-3.65454005e-07
-3.70300629e-07
-3.84116738e-07
-3.84172766e-07
-3.65570659e-07
-3.64795999e-07
-3.64912039e-07
-3.67329177e-07
-3.8414092e-07
-3.84166385e-07
-3.65953578e-07
-3.64707986e-07
-3.68564907e-07
-3.84336079e-07
-3.84650175e-07
-3.65307716e-07
-3.65711662e-07
-3.8422794e-07
-3.84683951e-07
-3.65394072e-07
-3.66347973e-07
-3.83989035e-07
-3.84326566e-07
-3.65413152e-07
-3.64514979e-07
-3.68593511e-07
-3.84243208e-07
-3.8474502e-07
-3.6525929e-07
-3.66173407e-07
-3.84006791e-07
-3.84646047e-07
-3.65009756e-07
-3.64129642e-07
-3.68125819e-07
-3.84426548e-07
-3.85265788e-07
-3.64573364e-07
-3.65429848e-07
-3.84267588e-07
-3.8582291e-07
-3.64437342e-07
-3.65743993e-07
-3.8418185e-07
-3.85898247e-07
-3.64674179e-07
-3.65916746e-07
-3.84106762e-07
-3.85970559e-07
-3.64671585e-07
-3.65968251e-07
-3.84015547e-07
-3.8586442e-07
-3.64968794e-07
-3.66585491e-07
-3.83957568e-07
-3.85120172e-07
-3.6461752e-07
-3.64113116e-07
-3.68537156e-07
-3.84292367e-07
-3.85724218e-07
-3.64792186e-07
-3.65932699e-07
-3.84002678e-07
-3.85848123e-07
-3.649348e-07
-3.66504403e-07
-3.83900494e-07
-3.8497426e-07
-3.64732164e-07
-3.64259568e-07
-3.68778787e-07
-3.84096679e-07
-3.85145012e-07
-3.65342226e-07
-3.66547492e-07
-3.83845668e-07
-3.84666626e-07
-3.64765116e-07
-3.64191102e-07
-3.68371776e-07
-3.84053575e-07
-3.84626054e-07
-3.65425618e-07
-3.66348179e-07
-3.83802749e-07
-3.84175492e-07
-3.65187938e-07
-3.64647994e-07
-3.69733447e-07
-3.84024492e-07
-3.84044686e-07
-3.65649036e-07
-3.64701435e-07
-3.69060839e-07
-3.84177799e-07
-3.84012258e-07
-3.65752901e-07
-3.64553861e-07
-3.6819441e-07
-3.84469151e-07
-3.84006505e-07
-3.6600883e-07
-3.64459805e-07
-3.67388279e-07
-3.84884182e-07
-3.8401798e-07
-3.66423095e-07
-3.6437308e-07
-3.66310017e-07
-3.85428968e-07
-3.83975555e-07
-3.67682785e-07
-3.65987796e-07
-3.85480586e-07
-3.84119215e-07
-3.68177831e-07
-3.64526781e-07
-3.65731514e-07
-3.86489899e-07
-3.83895694e-07
-3.6983907e-07
-3.66237548e-07
-3.82404144e-07
-3.84213389e-07
-3.71032149e-07
-3.65199932e-07
-3.65801475e-07
-3.8533544e-07
-3.83988286e-07
-3.7204577e-07
-3.65658848e-07
-3.65221107e-07
-3.65412994e-07
-3.82677217e-07
-3.84323855e-07
-3.73932856e-07
-3.65164441e-07
-3.64946461e-07
-3.80384707e-07
-3.84390504e-07
-3.73775099e-07
-3.66202941e-07
-3.757918e-07
-3.85216332e-07
-3.75609659e-07
-3.65338876e-07
-3.65085192e-07
-3.79079406e-07
-3.84971379e-07
-3.74325049e-07
-3.66223857e-07
-3.74165339e-07
-3.85519114e-07
-3.77195765e-07
-3.65439459e-07
-3.65247788e-07
-3.79662798e-07
-3.85488205e-07
-3.73122209e-07
-3.66229722e-07
-3.73685842e-07
-3.85416901e-07
-3.78919053e-07
-3.65740986e-07
-3.65030729e-07
-3.75617007e-07
-3.85036464e-07
-3.79103885e-07
-3.65650835e-07
-3.64873935e-07
-3.74938382e-07
-3.85107627e-07
-3.78850598e-07
-3.65391989e-07
-3.65229461e-07
-3.8119952e-07
-3.85246244e-07
-3.74638135e-07
-3.68600437e-07
-3.69505292e-07
-3.68742026e-07
-3.684002e-07
-3.78645764e-07
-3.84327716e-07
-3.81642195e-07
-3.6618572e-07
-3.65518149e-07
-3.75961877e-07
-3.84921272e-07
-3.79950863e-07
-3.6544492e-07
-3.65097345e-07
-3.76916594e-07
-3.85545137e-07
-3.74293878e-07
-3.66210314e-07
-3.72593523e-07
-3.85548458e-07
-3.79277919e-07
-3.65138231e-07
-3.65189315e-07
-3.79097642e-07
-3.85798925e-07
-3.72242837e-07
-3.66310336e-07
-3.74020958e-07
-3.85371653e-07
-3.7902075e-07
-3.65396505e-07
-3.6544009e-07
-3.77403613e-07
-3.85177453e-07
-3.7815054e-07
-3.65616315e-07
-3.6572507e-07
-3.78813799e-07
-3.85483793e-07
-3.74412504e-07
-3.66094136e-07
-3.71900825e-07
-3.85291481e-07
-3.83072093e-07
-3.65770815e-07
-3.6469791e-07
-3.66207993e-07
-3.86545688e-07
-3.82903103e-07
-3.6641945e-07
-3.67189439e-07
-3.8622421e-07
-3.82011901e-07
-3.66475788e-07
-3.68164308e-07
-3.86627694e-07
-3.80026876e-07
-3.66521975e-07
-3.69525246e-07
-3.86782094e-07
-3.78159836e-07
-3.66424996e-07
-3.70155035e-07
-3.85807285e-07
-3.81764673e-07
-3.66388323e-07
-3.66734102e-07
-3.82533512e-07
-3.85959863e-07
-3.72306975e-07
-3.65293583e-07
-3.66175162e-07
-3.8278824e-07
-3.86607215e-07
-3.69898883e-07
-3.65436519e-07
-3.7200116e-07
-3.86560559e-07
-3.76729963e-07
-3.66152088e-07
-3.67258065e-07
-3.86728356e-07
-3.86686264e-07
-3.68752815e-07
-3.65532551e-07
-3.72485117e-07
-3.85943439e-07
-3.77767498e-07
-3.66104045e-07
-3.67336099e-07
-3.86410046e-07
-3.86357423e-07
-3.69499103e-07
-3.65469624e-07
-3.67687684e-07
-3.86223178e-07
-3.86598172e-07
-3.68175213e-07
-3.6540613e-07
-3.69033598e-07
-3.85747278e-07
-3.86297979e-07
-3.6619731e-07
-3.6512033e-07
-3.75137351e-07
-3.8625599e-07
-3.73099247e-07
-3.65763227e-07
-3.6956156e-07
-3.8552327e-07
-3.85097895e-07
-3.65783116e-07
-3.65813857e-07
-3.84882741e-07
-3.86487626e-07
-3.68743443e-07
-3.6601195e-07
-3.72999739e-07
-3.85058264e-07
-3.80295589e-07
-3.65182775e-07
-3.6578231e-07
-3.86191232e-07
-3.862132e-07
-3.69283106e-07
-3.64766213e-07
-3.66973261e-07
-3.85722664e-07
-3.86124666e-07
-3.67574843e-07
-3.66607827e-07
-3.81325243e-07
-3.85681989e-07
-3.70612402e-07
-3.64697875e-07
-3.67174285e-07
-3.85499408e-07
-3.86521586e-07
-3.66860396e-07
-3.67036771e-07
-3.85641478e-07
-3.85734494e-07
-3.67810332e-07
-3.64813004e-07
-3.68200753e-07
-3.85083468e-07
-3.85875083e-07
-3.66550985e-07
-3.64585516e-07
-3.68632653e-07
-3.85377581e-07
-3.8403116e-07
-3.66432259e-07
-3.68193081e-07
-3.84964953e-07
-3.85970291e-07
-3.66000167e-07
-3.64546649e-07
-3.69168902e-07
-3.85349592e-07
-3.82985866e-07
-3.66611965e-07
-3.6885297e-07
-3.84902825e-07
-3.85617252e-07
-3.66249088e-07
-3.64859212e-07
-3.69313285e-07
-3.85118325e-07
-3.85460561e-07
-3.6646576e-07
-3.64863996e-07
-3.69140282e-07
-3.85097692e-07
-3.85169671e-07
-3.67489312e-07
-3.65807308e-07
-3.7193705e-07
-3.84611013e-07
-3.85054268e-07
-3.6713885e-07
-3.65083563e-07
-3.68857541e-07
-3.8510418e-07
-3.85097109e-07
-3.67694528e-07
-3.6506897e-07
-3.65311883e-07
-3.67450936e-07
-3.86639263e-07
-3.83691385e-07
-3.86713052e-07
-3.6738911e-07
-3.64971367e-07
-3.68281291e-07
-3.8529707e-07
-3.85354979e-07
-3.66451383e-07
-3.64438825e-07
-3.68166023e-07
-3.85654058e-07
-3.87025082e-07
-3.6653933e-07
-3.67259757e-07
-3.8527514e-07
-3.85235357e-07
-3.66185442e-07
-3.64257066e-07
-3.67558226e-07
-3.85765096e-07
-3.86516785e-07
-3.6638623e-07
-3.66928289e-07
-3.85446591e-07
-3.86183393e-07
-3.6625757e-07
-3.66632615e-07
-3.85199947e-07
-3.84967222e-07
-3.66882672e-07
-3.64383531e-07
-3.67168223e-07
-3.85484672e-07
-3.85445394e-07
-3.6660684e-07
-3.66579663e-07
-3.85363666e-07
-3.84900515e-07
-3.67646426e-07
-3.64421236e-07
-3.6678375e-07
-3.85380211e-07
-3.85033183e-07
-3.6666453e-07
-3.66408655e-07
-3.85446449e-07
-3.847528e-07
-3.69217995e-07
-3.64764795e-07
-3.66601786e-07
-3.84937021e-07
-3.84438805e-07
-3.70393558e-07
-3.65058351e-07
-3.66686511e-07
-3.84880969e-07
-3.84344386e-07
-3.70697932e-07
-3.64995599e-07
-3.64816079e-07
-3.66315866e-07
-3.85309266e-07
-3.84750063e-07
-3.66428773e-07
-3.65996435e-07
-3.85522934e-07
-3.84861579e-07
-3.68030045e-07
-3.64154478e-07
-3.65974211e-07
-3.8533452e-07
-3.84703173e-07
-3.66180687e-07
-3.65773228e-07
-3.85438104e-07
-3.84767409e-07
-3.65920135e-07
-3.65747288e-07
-3.85209272e-07
-3.847296e-07
-3.65733258e-07
-3.65708448e-07
-3.84759743e-07
-3.84723009e-07
-3.6763327e-07
-3.64060786e-07
-3.66035704e-07
-3.84800231e-07
-3.84516931e-07
-3.65587889e-07
-3.65562978e-07
-3.8451263e-07
-3.84694812e-07
-3.65191992e-07
-3.65586383e-07
-3.84201482e-07
-3.84627326e-07
-3.6791708e-07
-3.64090157e-07
-3.66149957e-07
-3.84454202e-07
-3.84597782e-07
-3.65165272e-07
-3.65684037e-07
-3.84110512e-07
-3.84507942e-07
-3.65337253e-07
-3.65252276e-07
-3.77641769e-07
-3.84404597e-07
-3.80383108e-07
-3.63929243e-07
-3.65308734e-07
-3.84129593e-07
-3.84652835e-07
-3.70337426e-07
-3.64093999e-07
-3.66076711e-07
-3.84183332e-07
-3.84512601e-07
-3.70717146e-07
-3.63979475e-07
-3.65841143e-07
-3.84457583e-07
-3.8450106e-07
-3.72177727e-07
-3.64052445e-07
-3.6540003e-07
-3.85072035e-07
-3.84482242e-07
-3.73484566e-07
-3.6435009e-07
-3.65144095e-07
-3.86596974e-07
-3.84524762e-07
-3.74766566e-07
)
;

boundaryField
{
    closed
    {
        type            calculated;
        value           nonuniform List<scalar> 0();
    }
    open
    {
        type            calculated;
        value           nonuniform List<scalar> 0();
    }
    sides
    {
        type            empty;
    }
    procBoundary1to0
    {
        type            processor;
        value           uniform -3.83831817e-07;
    }
    procBoundary1to2
    {
        type            processor;
        value           uniform -3.64370263e-07;
    }
}


// ************************************************************************* //
