/*--------------------------------*- C++ -*----------------------------------*\
| =========                 |                                                 |
| \\      /  F ield         | OpenFOAM: The Open Source CFD Toolbox           |
|  \\    /   O peration     | Version:  2306                                  |
|   \\  /    A nd           | Website:  www.openfoam.com                      |
|    \\/     M anipulation  |                                                 |
\*---------------------------------------------------------------------------*/
FoamFile
{
    version     2.0;
    format      ascii;
    arch        "LSB;label=32;scalar=64";
    class       volScalarField;
    location    "0.00058";
    object      prefDPV_T;
}
// * * * * * * * * * * * * * * * * * * * * * * * * * * * * * * * * * * * * * //

dimensions      [1 -1 -1 -1 0 0 0];

internalField   nonuniform List<scalar> 
531
(
5.92298648e-10
6.098778e-10
6.08725326e-10
5.94938539e-10
5.89348528e-10
5.90870118e-10
6.11071247e-10
6.11112412e-10
5.90525072e-10
5.89824189e-10
6.05720745e-10
6.09255806e-10
6.02582529e-10
5.90041428e-10
5.91519519e-10
6.11184287e-10
6.05846488e-10
5.90219516e-10
5.91234657e-10
6.11245148e-10
6.09138502e-10
5.95571501e-10
5.89308206e-10
5.89881866e-10
6.10502816e-10
6.09258343e-10
6.09590416e-10
6.09119378e-10
5.99884153e-10
5.90741251e-10
5.9043541e-10
5.90089093e-10
5.88888935e-10
5.8950643e-10
6.08645622e-10
6.09808532e-10
6.09631646e-10
6.09708918e-10
5.95876924e-10
5.89195325e-10
5.89456509e-10
6.10119155e-10
6.09481661e-10
5.98729668e-10
5.89976539e-10
5.90371714e-10
6.11457157e-10
6.09329065e-10
5.98935667e-10
5.89769089e-10
5.90033218e-10
6.08607697e-10
6.09600493e-10
6.09523078e-10
6.09358422e-10
5.98409601e-10
5.91086449e-10
5.89629682e-10
5.8914949e-10
5.89756333e-10
6.06670387e-10
6.08907521e-10
6.09177789e-10
5.93784349e-10
5.9002135e-10
5.90713945e-10
6.11779501e-10
6.09577405e-10
5.97406199e-10
5.90202906e-10
5.90480428e-10
6.10406292e-10
6.09568293e-10
6.02160479e-10
5.90802756e-10
5.90068056e-10
5.93454487e-10
6.10872572e-10
6.1173302e-10
5.95239498e-10
5.91172273e-10
5.90693962e-10
5.95117775e-10
6.10870124e-10
6.06394434e-10
5.90618892e-10
5.91072735e-10
6.12178887e-10
6.07330033e-10
5.90927381e-10
5.92391574e-10
6.11429909e-10
6.10333484e-10
5.93415837e-10
5.899642e-10
5.91428714e-10
6.12021898e-10
6.06391049e-10
5.90965102e-10
5.93084947e-10
6.11186932e-10
6.10226394e-10
5.93358499e-10
5.90139555e-10
5.91782485e-10
6.11691497e-10
6.09702796e-10
5.97617424e-10
5.92907207e-10
5.90800006e-10
5.90561053e-10
5.93907784e-10
6.11018441e-10
6.0999475e-10
5.93952312e-10
5.90177369e-10
5.92626795e-10
6.11707835e-10
6.06030238e-10
5.90656719e-10
5.92467704e-10
6.11717985e-10
6.05545386e-10
5.90516249e-10
5.92495703e-10
6.11685107e-10
6.04611457e-10
5.90704875e-10
5.92866411e-10
6.11348915e-10
6.10195838e-10
5.93221453e-10
5.8970179e-10
5.91475014e-10
6.1201731e-10
6.04214358e-10
5.90643665e-10
5.94249618e-10
6.10890854e-10
6.11323978e-10
5.90976896e-10
5.89999942e-10
5.96247984e-10
6.10549305e-10
6.02780142e-10
5.90494647e-10
5.93494767e-10
6.10788623e-10
6.0961597e-10
5.93244344e-10
5.8955678e-10
5.92900737e-10
6.11211179e-10
6.02290143e-10
5.90549484e-10
5.94325995e-10
6.10378705e-10
6.09685507e-10
5.92621531e-10
5.89687867e-10
5.92412211e-10
6.10859218e-10
6.09306529e-10
5.93535015e-10
5.89651291e-10
5.92495995e-10
6.10697949e-10
6.09191901e-10
5.935708e-10
5.89597925e-10
5.92002482e-10
6.10788975e-10
6.0858969e-10
5.99690223e-10
5.90202271e-10
5.89638004e-10
5.91179035e-10
6.10789325e-10
6.08457758e-10
5.98661145e-10
5.919687e-10
5.93403225e-10
5.93881135e-10
5.92360002e-10
5.96657467e-10
6.10359987e-10
6.05789585e-10
5.90329392e-10
5.89949306e-10
6.03450569e-10
6.09401391e-10
5.99482935e-10
5.89792597e-10
5.94108908e-10
6.10245528e-10
6.01423473e-10
5.90002124e-10
5.95338347e-10
6.09969473e-10
6.00513304e-10
5.90223355e-10
5.94971483e-10
6.09636302e-10
6.10167553e-10
5.90793216e-10
5.89553442e-10
5.93419041e-10
6.10035579e-10
6.09613064e-10
5.91709968e-10
5.89659364e-10
5.93993739e-10
6.09959283e-10
6.10086185e-10
5.91125788e-10
5.89725202e-10
5.94626143e-10
6.1001451e-10
6.11530557e-10
5.9068763e-10
5.89833775e-10
5.98889281e-10
6.09706001e-10
5.99090542e-10
5.90092036e-10
5.96658461e-10
6.0972655e-10
6.0895254e-10
5.90315343e-10
5.89485532e-10
5.97140768e-10
6.09929971e-10
5.98271918e-10
5.89972763e-10
5.98405377e-10
6.09679652e-10
5.97166819e-10
5.90133666e-10
5.9960957e-10
6.09506267e-10
6.07088786e-10
5.9020839e-10
5.89627571e-10
6.01214263e-10
6.09432395e-10
5.95631846e-10
5.90050383e-10
6.02769496e-10
6.09288002e-10
6.04896223e-10
5.89983608e-10
5.89709901e-10
6.03566586e-10
6.09412913e-10
6.03715071e-10
5.89805159e-10
5.89492706e-10
6.02879891e-10
6.09317501e-10
6.09711275e-10
6.08682272e-10
6.06163432e-10
5.91486119e-10
5.90627926e-10
5.90444948e-10
5.89461329e-10
5.8922407e-10
5.97584614e-10
6.09757992e-10
6.11257946e-10
5.90495353e-10
5.90096989e-10
6.10533989e-10
6.08856013e-10
5.9258865e-10
5.90325729e-10
6.12523446e-10
6.08891474e-10
6.02529511e-10
5.89898557e-10
5.89819401e-10
6.12093345e-10
6.09057103e-10
5.98355056e-10
5.89921572e-10
5.89684983e-10
6.11551118e-10
6.08893325e-10
5.9165635e-10
5.89672434e-10
6.11790242e-10
6.09107557e-10
5.97828916e-10
5.89658006e-10
5.8943458e-10
6.1142272e-10
6.08959324e-10
5.91488291e-10
5.89725015e-10
6.11841052e-10
6.09035003e-10
5.99461669e-10
5.89637783e-10
5.8960015e-10
6.11136451e-10
6.09019237e-10
5.98508318e-10
5.89737862e-10
5.89665103e-10
6.10967687e-10
6.08933503e-10
5.9868804e-10
5.89713954e-10
5.8965245e-10
6.10909814e-10
6.0888881e-10
5.9887392e-10
5.89691113e-10
5.89643568e-10
6.10807478e-10
6.08875436e-10
5.98576102e-10
5.89629816e-10
5.89595799e-10
6.10662431e-10
6.08878817e-10
5.98285938e-10
5.89590584e-10
5.89561631e-10
6.10503597e-10
6.0885343e-10
5.97966772e-10
5.89543228e-10
5.89549212e-10
6.10237509e-10
6.08868e-10
5.96494571e-10
5.89666345e-10
5.90378122e-10
6.09748107e-10
6.0888964e-10
5.90051258e-10
5.89497528e-10
6.10491685e-10
6.08932004e-10
5.97671908e-10
5.89555584e-10
5.89639465e-10
6.10086821e-10
6.09032028e-10
5.98900083e-10
5.89222061e-10
5.89591105e-10
6.10077902e-10
6.08272973e-10
6.08743456e-10
5.95130375e-10
5.90310343e-10
5.89364758e-10
5.89474468e-10
6.10147792e-10
6.0904353e-10
5.89804174e-10
5.89590762e-10
6.10270658e-10
6.09056254e-10
5.99072126e-10
5.89280995e-10
5.89542231e-10
6.09979346e-10
6.08187031e-10
6.0892411e-10
5.93982846e-10
5.89597062e-10
5.8858177e-10
5.88472797e-10
6.10030955e-10
6.08540887e-10
5.88973322e-10
5.88573981e-10
6.09666233e-10
6.07386578e-10
6.08256063e-10
5.88001026e-10
5.8745168e-10
6.07809017e-10
6.06340198e-10
5.8632168e-10
5.85590661e-10
6.05340092e-10
6.03271393e-10
5.8491845e-10
5.82445235e-10
6.02823548e-10
5.99253819e-10
5.99944391e-10
5.9668548e-10
5.96505694e-10
5.93567187e-10
5.92568142e-10
5.8999932e-10
5.88502826e-10
5.8625544e-10
5.84735748e-10
5.83284066e-10
5.82439048e-10
5.79231246e-10
5.7683092e-10
5.72923463e-10
5.69948927e-10
5.65482276e-10
5.61834102e-10
5.5743242e-10
5.5511713e-10
5.52909926e-10
5.48558442e-10
5.44370315e-10
5.37438752e-10
5.32800117e-10
5.2276458e-10
5.17069261e-10
5.0686881e-10
5.1614347e-10
5.0527537e-10
4.81172311e-10
4.71284977e-10
4.59016928e-10
4.55873203e-10
4.40832086e-10
4.32414502e-10
4.15421497e-10
3.98800756e-10
3.86813965e-10
3.71879608e-10
3.55505649e-10
3.34655839e-10
3.17305067e-10
2.81865148e-10
2.63639021e-10
2.43597704e-10
2.17709743e-10
1.87381893e-10
1.75436062e-10
1.60780894e-10
1.48115696e-10
1.33294759e-10
1.20120439e-10
1.06653343e-10
9.52464641e-11
8.26201473e-11
7.18360267e-11
6.10611749e-11
5.15385344e-11
4.23386253e-11
3.46161198e-11
2.72605567e-11
2.19323182e-11
1.66938272e-11
1.23715486e-11
8.16476573e-12
4.72610527e-12
1.39045028e-12
-1.35167284e-12
-4.13710795e-12
-6.38692772e-12
-8.94224133e-12
-1.08517976e-11
-1.30186665e-11
-1.45815103e-11
-1.6287947e-11
-1.7532162e-11
-1.88270951e-11
-1.98860603e-11
-2.10198527e-11
-2.18902963e-11
-2.2744152e-11
-2.340221e-11
-2.40082453e-11
-2.45308151e-11
-2.50524037e-11
-2.55216096e-11
-2.59886961e-11
-2.64050323e-11
-2.68182895e-11
-2.72168528e-11
-2.76158915e-11
-2.80208884e-11
-2.84255343e-11
-2.879105e-11
-2.912867e-11
-2.94539273e-11
-2.97515519e-11
-3.00420427e-11
-3.0314983e-11
-3.05878464e-11
-3.08449028e-11
-3.1103197e-11
-3.13430617e-11
-3.16048928e-11
-3.18596199e-11
-3.21288719e-11
-3.23995368e-11
-3.26824186e-11
-3.29244031e-11
-3.31702372e-11
-3.33813065e-11
-3.36102615e-11
-3.38075107e-11
-3.40241173e-11
-3.42088006e-11
-3.44231007e-11
-3.46053737e-11
-3.48095076e-11
-3.49788859e-11
-3.51705419e-11
-3.53284214e-11
-3.55088446e-11
-3.56573051e-11
-3.58314783e-11
-3.59735594e-11
-3.61405113e-11
-3.62753584e-11
-3.64355252e-11
-3.65634587e-11
-3.67161274e-11
-3.68486575e-11
-3.70040049e-11
-3.71313052e-11
-3.72808238e-11
-3.74047738e-11
-3.75453063e-11
)
;

boundaryField
{
    closed
    {
        type            calculated;
        value           nonuniform List<scalar> 0();
    }
    open
    {
        type            calculated;
        value           nonuniform List<scalar> 0();
    }
    sides
    {
        type            empty;
    }
    procBoundary4to3
    {
        type            processor;
        value           uniform 5.90428034e-10;
    }
    procBoundary4to5
    {
        type            processor;
        value           uniform -3.76659922e-11;
    }
}


// ************************************************************************* //
