/*--------------------------------*- C++ -*----------------------------------*\
| =========                 |                                                 |
| \\      /  F ield         | OpenFOAM: The Open Source CFD Toolbox           |
|  \\    /   O peration     | Version:  2306                                  |
|   \\  /    A nd           | Website:  www.openfoam.com                      |
|    \\/     M anipulation  |                                                 |
\*---------------------------------------------------------------------------*/
FoamFile
{
    version     2.0;
    format      ascii;
    arch        "LSB;label=32;scalar=64";
    class       volScalarField;
    location    "0.00058";
    object      prefDPV_H2;
}
// * * * * * * * * * * * * * * * * * * * * * * * * * * * * * * * * * * * * * //

dimensions      [1 -1 -1 0 0 0 0];

internalField   nonuniform List<scalar> 
531
(
-3.08975473e-05
-3.15050024e-05
-3.15555567e-05
-3.08869705e-05
-3.04765999e-05
-3.08841966e-05
-3.14359844e-05
-3.14751403e-05
-3.07523548e-05
-3.05748269e-05
-3.11431053e-05
-3.15100171e-05
-3.10451492e-05
-3.0675923e-05
-3.08860402e-05
-3.14495747e-05
-3.11469107e-05
-3.07002525e-05
-3.08994222e-05
-3.14431493e-05
-3.15434041e-05
-3.08938261e-05
-3.04396324e-05
-3.06140318e-05
-3.13225483e-05
-3.15282819e-05
-3.14820151e-05
-3.15224125e-05
-3.09812719e-05
-3.08140576e-05
-3.07113366e-05
-3.06719485e-05
-3.03423396e-05
-3.0467327e-05
-3.12516956e-05
-3.14860058e-05
-3.14924498e-05
-3.14932811e-05
-3.09002826e-05
-3.04034861e-05
-3.0500206e-05
-3.13079786e-05
-3.15224675e-05
-3.09516445e-05
-3.0601006e-05
-3.07202539e-05
-3.13600953e-05
-3.15259178e-05
-3.09551462e-05
-3.05605038e-05
-3.06468277e-05
-3.12479974e-05
-3.15085381e-05
-3.14925018e-05
-3.15116497e-05
-3.09426426e-05
-3.08425668e-05
-3.06288176e-05
-3.04159114e-05
-3.06159819e-05
-3.11753018e-05
-3.15397813e-05
-3.15053377e-05
-3.08779413e-05
-3.0572444e-05
-3.08299059e-05
-3.13709908e-05
-3.1517531e-05
-3.09275007e-05
-3.06332078e-05
-3.07564928e-05
-3.13143439e-05
-3.15173644e-05
-3.10355919e-05
-3.0830755e-05
-3.06212695e-05
-3.08834253e-05
-3.14411306e-05
-3.13626903e-05
-3.09217991e-05
-3.08582281e-05
-3.07599204e-05
-3.08896836e-05
-3.14435701e-05
-3.11646886e-05
-3.07483824e-05
-3.09054527e-05
-3.14002171e-05
-3.11990382e-05
-3.08142741e-05
-3.08821443e-05
-3.14322869e-05
-3.14839736e-05
-3.08821865e-05
-3.05693561e-05
-3.08778279e-05
-3.14010422e-05
-3.11652918e-05
-3.08386048e-05
-3.08710751e-05
-3.14427515e-05
-3.14904979e-05
-3.08799608e-05
-3.06141542e-05
-3.08721068e-05
-3.13992222e-05
-3.15160502e-05
-3.09371879e-05
-3.09461188e-05
-3.08389138e-05
-3.07283072e-05
-3.08744119e-05
-3.14317875e-05
-3.1489638e-05
-3.08881213e-05
-3.06194881e-05
-3.08712152e-05
-3.14065701e-05
-3.11525302e-05
-3.0779359e-05
-3.08713671e-05
-3.14188451e-05
-3.11362732e-05
-3.07545366e-05
-3.08639216e-05
-3.14157604e-05
-3.1105093e-05
-3.07855794e-05
-3.08790822e-05
-3.14258812e-05
-3.14896909e-05
-3.08745603e-05
-3.05163206e-05
-3.08741107e-05
-3.1396237e-05
-3.10922417e-05
-3.07737302e-05
-3.08672765e-05
-3.14438973e-05
-3.13487918e-05
-3.09056711e-05
-3.06021102e-05
-3.08894728e-05
-3.14504945e-05
-3.10499658e-05
-3.07564083e-05
-3.08709541e-05
-3.14595121e-05
-3.15308519e-05
-3.08661859e-05
-3.05047761e-05
-3.08569362e-05
-3.1430477e-05
-3.10338804e-05
-3.075191e-05
-3.0879334e-05
-3.14683582e-05
-3.1518106e-05
-3.08750214e-05
-3.05177528e-05
-3.08778027e-05
-3.14480238e-05
-3.15381261e-05
-3.08795862e-05
-3.05258583e-05
-3.08730349e-05
-3.14586511e-05
-3.15465411e-05
-3.08790322e-05
-3.05196068e-05
-3.086917e-05
-3.14449892e-05
-3.15700237e-05
-3.09774658e-05
-3.07441468e-05
-3.054575e-05
-3.08953571e-05
-3.14600591e-05
-3.15730526e-05
-3.09532486e-05
-3.09205621e-05
-3.09189131e-05
-3.09178896e-05
-3.09421196e-05
-3.09244466e-05
-3.14867814e-05
-3.11441412e-05
-3.0674158e-05
-3.0610851e-05
-3.10676047e-05
-3.15035787e-05
-3.09676227e-05
-3.06034176e-05
-3.08696463e-05
-3.14892744e-05
-3.10075205e-05
-3.06436053e-05
-3.08763946e-05
-3.14936177e-05
-3.09849289e-05
-3.06921175e-05
-3.08913451e-05
-3.15055059e-05
-3.15048794e-05
-3.08913346e-05
-3.04789207e-05
-3.08877848e-05
-3.1484126e-05
-3.15280628e-05
-3.08912997e-05
-3.05162693e-05
-3.08911801e-05
-3.14840063e-05
-3.15050464e-05
-3.08970387e-05
-3.05167883e-05
-3.08926956e-05
-3.14742605e-05
-3.14269186e-05
-3.08288055e-05
-3.05531406e-05
-3.09409956e-05
-3.14920399e-05
-3.09557264e-05
-3.06654387e-05
-3.09000701e-05
-3.15010995e-05
-3.12578986e-05
-3.07633016e-05
-3.05020136e-05
-3.0906458e-05
-3.14905136e-05
-3.09382895e-05
-3.06448079e-05
-3.09261268e-05
-3.15055603e-05
-3.09181039e-05
-3.06758604e-05
-3.09557091e-05
-3.15006119e-05
-3.11889174e-05
-3.0714772e-05
-3.05535347e-05
-3.09981901e-05
-3.15116559e-05
-3.09084289e-05
-3.06702326e-05
-3.1043333e-05
-3.15132617e-05
-3.11145546e-05
-3.06565213e-05
-3.05654125e-05
-3.10695011e-05
-3.14963645e-05
-3.107843e-05
-3.06042417e-05
-3.05280574e-05
-3.10476113e-05
-3.15110545e-05
-3.14885607e-05
-3.15280655e-05
-3.11553885e-05
-3.09166952e-05
-3.07349012e-05
-3.07394688e-05
-3.05349945e-05
-3.04560522e-05
-3.09209845e-05
-3.146815e-05
-3.13477569e-05
-3.06839689e-05
-3.06253005e-05
-3.1325456e-05
-3.15205559e-05
-3.09766143e-05
-3.07217377e-05
-3.14403136e-05
-3.15144905e-05
-3.10461865e-05
-3.05825321e-05
-3.05845327e-05
-3.14652737e-05
-3.15042737e-05
-3.09578745e-05
-3.05729981e-05
-3.05789491e-05
-3.14550437e-05
-3.15301555e-05
-3.09530467e-05
-3.0583672e-05
-3.14888261e-05
-3.15107947e-05
-3.09475904e-05
-3.05145033e-05
-3.05212375e-05
-3.14593543e-05
-3.15251179e-05
-3.09052729e-05
-3.05904398e-05
-3.14819088e-05
-3.15132145e-05
-3.09755863e-05
-3.05391938e-05
-3.05397251e-05
-3.14867314e-05
-3.15052072e-05
-3.09583739e-05
-3.05620115e-05
-3.05629478e-05
-3.14820039e-05
-3.15102882e-05
-3.09597309e-05
-3.05681262e-05
-3.056857e-05
-3.14806186e-05
-3.15140414e-05
-3.09615892e-05
-3.05712456e-05
-3.05715003e-05
-3.14829644e-05
-3.15166021e-05
-3.0955615e-05
-3.05636102e-05
-3.05641867e-05
-3.148621e-05
-3.15182467e-05
-3.0949852e-05
-3.0560286e-05
-3.05609948e-05
-3.14898724e-05
-3.152256e-05
-3.09433362e-05
-3.05625229e-05
-3.05627939e-05
-3.15010138e-05
-3.15227928e-05
-3.09196307e-05
-3.05704882e-05
-3.07444764e-05
-3.15060748e-05
-3.15582749e-05
-3.06838087e-05
-3.05412768e-05
-3.14868812e-05
-3.1510029e-05
-3.09420714e-05
-3.05563819e-05
-3.05620678e-05
-3.15020608e-05
-3.15079518e-05
-3.09554401e-05
-3.04746373e-05
-3.05768639e-05
-3.15161266e-05
-3.15373948e-05
-3.15339162e-05
-3.09118735e-05
-3.06998551e-05
-3.05199555e-05
-3.05274654e-05
-3.14910994e-05
-3.15310514e-05
-3.06319495e-05
-3.05564536e-05
-3.15074756e-05
-3.15060177e-05
-3.09576936e-05
-3.04893394e-05
-3.05803904e-05
-3.15296284e-05
-3.15537226e-05
-3.15495633e-05
-3.0889863e-05
-3.05951895e-05
-3.04169869e-05
-3.04099913e-05
-3.15481303e-05
-3.16229176e-05
-3.05803482e-05
-3.05511335e-05
-3.16374232e-05
-3.17053339e-05
-3.17021612e-05
-3.06073194e-05
-3.04804737e-05
-3.17777955e-05
-3.18166998e-05
-3.04740323e-05
-3.03910298e-05
-3.17231734e-05
-3.17642055e-05
-3.03814705e-05
-3.01579828e-05
-3.14738285e-05
-3.16456659e-05
-3.1522393e-05
-3.16200558e-05
-3.15775963e-05
-3.16401117e-05
-3.16343684e-05
-3.16928562e-05
-3.17165778e-05
-3.18034968e-05
-3.18883888e-05
-3.21214854e-05
-3.22610442e-05
-3.20206816e-05
-3.1874164e-05
-3.16846554e-05
-3.15772602e-05
-3.14648937e-05
-3.14121376e-05
-3.13009288e-05
-3.12649811e-05
-3.11897192e-05
-3.10751392e-05
-3.10341958e-05
-3.09712981e-05
-3.10170223e-05
-3.08668991e-05
-3.07572643e-05
-3.05930459e-05
-3.21843695e-05
-3.21438036e-05
-3.06095045e-05
-3.23491956e-05
-3.16595403e-05
-3.07461377e-05
-3.03293784e-05
-3.33290306e-05
-3.49366853e-05
-3.58849276e-05
-3.61028349e-05
-3.66451315e-05
-3.79686029e-05
-4.00405507e-05
-4.17600884e-05
-4.65132162e-05
-4.89572924e-05
-5.1510197e-05
-5.53895964e-05
-5.98735346e-05
-6.14747963e-05
-6.33282073e-05
-6.50013969e-05
-6.67894504e-05
-6.84105418e-05
-6.99325692e-05
-7.12656082e-05
-7.26338288e-05
-7.38397706e-05
-7.49925632e-05
-7.60367218e-05
-7.70273701e-05
-7.78980658e-05
-7.87311423e-05
-7.93545279e-05
-7.99831932e-05
-8.05345851e-05
-8.10969121e-05
-8.15892683e-05
-8.21000899e-05
-8.25378276e-05
-8.30098745e-05
-8.34028672e-05
-8.38918266e-05
-8.42681971e-05
-8.47508383e-05
-8.51084712e-05
-8.55489104e-05
-8.58820929e-05
-8.62717052e-05
-8.66080732e-05
-8.70002515e-05
-8.73208871e-05
-8.76545057e-05
-8.79001448e-05
-8.81514691e-05
-8.83730942e-05
-8.86056e-05
-8.88241684e-05
-8.90399946e-05
-8.92485321e-05
-8.94464648e-05
-8.96600567e-05
-8.98678207e-05
-9.00954304e-05
-9.03144953e-05
-9.0521796e-05
-9.07027101e-05
-9.08902366e-05
-9.10473447e-05
-9.12121298e-05
-9.13579548e-05
-9.15112263e-05
-9.16411488e-05
-9.17825879e-05
-9.19052224e-05
-9.20477456e-05
-9.21761481e-05
-9.23238591e-05
-9.24711729e-05
-9.26366599e-05
-9.27676675e-05
-9.2902853e-05
-9.3006644e-05
-9.31299942e-05
-9.32268191e-05
-9.33436668e-05
-9.34343333e-05
-9.3545271e-05
-9.36295431e-05
-9.37332078e-05
-9.38112421e-05
-9.3908367e-05
-9.39810053e-05
-9.4072195e-05
-9.4138067e-05
-9.42176079e-05
-9.42769308e-05
-9.43527425e-05
-9.44091867e-05
-9.44815788e-05
-9.4535179e-05
-9.46025584e-05
-9.4660707e-05
-9.47273449e-05
-9.47793127e-05
-9.48427707e-05
-9.4893991e-05
-9.4952316e-05
)
;

boundaryField
{
    closed
    {
        type            calculated;
        value           nonuniform List<scalar> 0();
    }
    open
    {
        type            calculated;
        value           nonuniform List<scalar> 0();
    }
    sides
    {
        type            empty;
    }
    procBoundary4to3
    {
        type            processor;
        value           uniform -3.07256125e-05;
    }
    procBoundary4to5
    {
        type            processor;
        value           uniform -9.50026001e-05;
    }
}


// ************************************************************************* //
