/*--------------------------------*- C++ -*----------------------------------*\
| =========                 |                                                 |
| \\      /  F ield         | OpenFOAM: The Open Source CFD Toolbox           |
|  \\    /   O peration     | Version:  2306                                  |
|   \\  /    A nd           | Website:  www.openfoam.com                      |
|    \\/     M anipulation  |                                                 |
\*---------------------------------------------------------------------------*/
FoamFile
{
    version     2.0;
    format      ascii;
    arch        "LSB;label=32;scalar=64";
    class       surfaceScalarField;
    location    "0.00148";
    object      phi;
}
// * * * * * * * * * * * * * * * * * * * * * * * * * * * * * * * * * * * * * //

dimensions      [1 0 -1 0 0 0 0];

oriented        oriented;

internalField   nonuniform List<scalar> 
529
(
1.36536289e-06
1.37752175e-06
1.38295104e-06
1.54809002e-06
1.6050508e-06
1.68136564e-06
1.71238979e-06
1.72114618e-06
1.90618162e-06
1.99072066e-06
2.11090989e-06
2.18952888e-06
2.21482358e-06
2.42838606e-06
2.54682137e-06
2.71304119e-06
2.82986629e-06
2.84392902e-06
3.05199749e-06
3.16777113e-06
3.33942041e-06
3.4471295e-06
3.41138604e-06
3.57340568e-06
3.65589157e-06
3.79629632e-06
3.91305965e-06
4.01408682e-06
4.0189342e-06
3.88319803e-06
3.98590991e-06
4.04468618e-06
4.07601534e-06
4.125113e-06
4.20883191e-06
4.23854114e-06
4.33235405e-06
4.38330273e-06
4.48406281e-06
4.6023623e-06
4.62219559e-06
4.47147907e-06
4.59652367e-06
4.64656081e-06
4.7985413e-06
4.89766624e-06
4.76727357e-06
4.92595072e-06
5.01992582e-06
5.1947489e-06
5.39175306e-06
5.46216604e-06
5.30946347e-06
5.44258121e-06
5.53190835e-06
5.5938099e-06
5.68381977e-06
5.91142155e-06
6.05026684e-06
5.86201651e-06
5.98548155e-06
6.0606157e-06
6.23331334e-06
6.41937893e-06
6.47963549e-06
6.24977869e-06
6.35650339e-06
6.43143825e-06
6.64893299e-06
6.82263247e-06
6.59894324e-06
6.71994045e-06
6.80104702e-06
6.9907508e-06
7.13231809e-06
6.81516021e-06
6.88638937e-06
7.01698539e-06
7.19612172e-06
7.29226249e-06
7.33486491e-06
7.43924342e-06
7.66976485e-06
7.86199216e-06
7.9857467e-06
8.06159399e-06
8.13978149e-06
8.20187003e-06
8.2543193e-06
8.25432957e-06
8.37673392e-06
8.52545381e-06
8.51058708e-06
8.4688147e-06
9.14578124e-06
9.29101934e-06
9.30343623e-06
9.18366807e-06
9.11794577e-06
9.6828675e-06
9.66699697e-06
9.02202421e-06
8.900644e-06
8.81446032e-06
8.7515288e-06
8.21183751e-06
8.07596634e-06
8.16570084e-06
8.15608135e-06
8.01683749e-06
7.77962569e-06
7.620749e-06
7.54120702e-06
7.46580858e-06
7.29404331e-06
7.07649614e-06
6.93487407e-06
6.83657179e-06
6.76596981e-06
6.59772204e-06
6.40582939e-06
6.28217195e-06
6.63622667e-06
6.56278298e-06
6.33803975e-06
6.16048381e-06
6.6764934e-06
6.72455732e-06
6.6470698e-06
6.4617433e-06
6.34427676e-06
6.73134751e-06
6.66151486e-06
6.43688439e-06
6.23648883e-06
6.11723998e-06
6.48942658e-06
6.37802054e-06
6.09179633e-06
5.86819514e-06
5.8463634e-06
6.21180464e-06
6.06049507e-06
5.70589649e-06
5.51112524e-06
5.79736231e-06
5.84626632e-06
5.67219098e-06
5.29312732e-06
5.14875511e-06
5.10837604e-06
5.03208658e-06
4.73419908e-06
4.59062738e-06
4.66237195e-06
4.66326902e-06
4.30684822e-06
4.09404584e-06
4.00403549e-06
3.86901713e-06
3.73989007e-06
3.51722185e-06
3.39630689e-06
3.37173726e-06
3.33813503e-06
3.04540524e-06
2.862943e-06
2.78086037e-06
2.67867329e-06
2.59963096e-06
2.35297823e-06
2.17490053e-06
2.17172827e-06
2.10844415e-06
1.86377634e-06
1.72420882e-06
1.64292733e-06
1.55415024e-06
1.43453139e-06
1.28678948e-06
1.2525872e-06
1.1872186e-06
1.09762931e-06
1.0144371e-06
8.92447905e-07
8.30713634e-07
7.83842773e-07
7.08997644e-07
6.43674232e-07
5.61475957e-07
4.99905905e-07
4.62607201e-07
4.15650451e-07
3.65362361e-07
3.29329168e-07
3.08050458e-07
2.53362567e-07
2.24875722e-07
2.1868785e-07
1.75004277e-07
8.9900121e-08
8.58981342e-08
1.1367836e-07
9.41561691e-08
1.88171037e-08
3.20531818e-08
3.75557582e-08
3.5991767e-08
7.29112923e-08
7.47079703e-08
1.18145991e-07
1.54798384e-07
1.64790952e-07
1.91117619e-07
2.65907646e-07
3.32217997e-07
3.78874032e-07
4.28798119e-07
5.23659173e-07
6.12269917e-07
7.01708431e-07
7.74260359e-07
8.77243451e-07
9.82469924e-07
1.11219223e-06
1.19601083e-06
1.2928865e-06
1.3982253e-06
1.55717116e-06
1.62869223e-06
1.70784958e-06
1.80745644e-06
2.05498206e-06
2.17583038e-06
2.09968499e-06
2.17344265e-06
2.24345025e-06
2.4286891e-06
2.46679149e-06
2.49750635e-06
2.56867972e-06
2.8423257e-06
2.94538965e-06
3.00158225e-06
3.07002701e-06
3.15543913e-06
3.37558204e-06
3.38086833e-06
3.38380086e-06
3.42211157e-06
3.49981462e-06
3.56546876e-06
3.59873639e-06
3.65265122e-06
3.71564368e-06
3.8253659e-06
3.93503834e-06
3.78416031e-06
3.85221906e-06
3.91018669e-06
4.02305445e-06
4.05214788e-06
4.10829015e-06
4.18871337e-06
4.34128e-06
4.48220602e-06
4.36052696e-06
4.48111166e-06
4.61212326e-06
4.84123285e-06
5.03669248e-06
4.98848492e-06
5.10213659e-06
5.26321814e-06
5.67843364e-06
6.05947726e-06
6.22059274e-06
6.0505248e-06
6.17027208e-06
6.30399725e-06
6.52036176e-06
6.70707713e-06
6.50700272e-06
6.57006975e-06
6.65992032e-06
6.82698348e-06
6.88150624e-06
6.85545978e-06
6.9057265e-06
7.05258839e-06
7.15488758e-06
6.84506968e-06
6.82979934e-06
6.8434075e-06
6.98043609e-06
7.07555887e-06
6.77334345e-06
6.76272238e-06
6.77981753e-06
6.92718889e-06
7.03436096e-06
6.75011916e-06
6.75657449e-06
6.78600314e-06
6.94170808e-06
7.05572981e-06
6.77441735e-06
6.7797445e-06
6.80628363e-06
6.95960709e-06
7.07192153e-06
6.78924219e-06
6.78949769e-06
6.81106724e-06
6.95888061e-06
7.06136724e-06
6.7678471e-06
6.74782021e-06
6.74602019e-06
6.86539364e-06
6.93642025e-06
6.61936551e-06
6.57090939e-06
6.5391164e-06
6.6231346e-06
6.66548598e-06
6.3427318e-06
6.28926292e-06
6.24922842e-06
6.30744837e-06
6.33604099e-06
6.01522048e-06
5.96792692e-06
5.92633218e-06
5.97846388e-06
5.99748828e-06
5.67750434e-06
5.63599741e-06
5.59818201e-06
5.52896638e-06
5.56093023e-06
5.52478761e-06
5.45420958e-06
5.40674512e-06
5.43387016e-06
5.42646012e-06
5.12476479e-06
5.05332036e-06
4.98716727e-06
4.98875619e-06
4.97356457e-06
4.70358936e-06
4.622943e-06
4.55242811e-06
4.55058257e-06
4.48350273e-06
4.37679697e-06
4.30871629e-06
4.30540515e-06
4.28661048e-06
4.04211862e-06
3.95978108e-06
3.89219101e-06
3.8690684e-06
3.87128125e-06
3.81044568e-06
3.76293338e-06
3.61903442e-06
3.54309685e-06
3.62975199e-06
3.53446502e-06
3.38940149e-06
3.29857681e-06
3.22612252e-06
3.16128372e-06
2.92821449e-06
2.80588396e-06
2.70856206e-06
2.74936856e-06
2.65915448e-06
2.52224535e-06
2.43778384e-06
2.44910462e-06
2.34823625e-06
2.1961499e-06
2.09920377e-06
2.0806579e-06
1.96880911e-06
1.8134502e-06
1.71340913e-06
1.66572448e-06
1.54533938e-06
1.39509756e-06
1.29564585e-06
1.21275502e-06
1.08258469e-06
9.42105359e-07
8.44521516e-07
7.2129336e-07
5.64038062e-07
4.44974964e-07
3.44118819e-07
1.66293053e-07
4.06885824e-08
-7.05103251e-08
-2.00206274e-07
-3.0244235e-07
-5.17323448e-07
-6.32972344e-07
-7.2528195e-07
-8.24638766e-07
-1.02235359e-06
-1.10026485e-06
-1.19291091e-06
-1.31722595e-06
-1.53306306e-06
-1.59632206e-06
-1.68178966e-06
-1.7965714e-06
-2.11711321e-06
-2.22002864e-06
-2.1050994e-06
-2.20404926e-06
-2.36926019e-06
-2.54569244e-06
-2.48473111e-06
-2.53931405e-06
-2.67162031e-06
-2.82536511e-06
-2.73181525e-06
-2.77473407e-06
-2.91318268e-06
-3.06533868e-06
-2.96058681e-06
-2.98715505e-06
-3.06424801e-06
-3.13568022e-06
-3.17656462e-06
-2.89934053e-06
-2.90565862e-06
-2.92334936e-06
-2.91840959e-06
-2.96955253e-06
-2.98653799e-06
-2.99829607e-06
-3.00273158e-06
-2.97144958e-06
-2.65156945e-06
-2.61619318e-06
-2.72430719e-06
-2.75950753e-06
-2.55555802e-06
-2.49622972e-06
-2.47558232e-06
-2.45522321e-06
-2.38228816e-06
-2.06944385e-06
-1.98398336e-06
-1.93378286e-06
-1.86858848e-06
-1.67867463e-06
-1.57208119e-06
-1.50248631e-06
-1.44975448e-06
-1.35018208e-06
-1.11601108e-06
-1.01217701e-06
-9.29244981e-07
-8.68540822e-07
-7.74804664e-07
-5.88927707e-07
-4.91411927e-07
-4.07734431e-07
-3.43897427e-07
-2.56784151e-07
-1.19091042e-07
-2.39528996e-08
4.82949545e-08
5.1241819e-08
1.00817062e-07
1.76964477e-07
2.40423084e-07
2.82982913e-07
3.5118697e-07
4.17979295e-07
4.65381534e-07
5.13372025e-07
5.4105728e-07
5.85246022e-07
6.33165162e-07
6.59894149e-07
6.8622011e-07
6.93221607e-07
6.89772072e-07
6.9757902e-07
7.16567187e-07
7.19278346e-07
7.47127568e-07
7.64371624e-07
7.65773928e-07
7.74582237e-07
7.66989556e-07
7.54007082e-07
7.50903137e-07
7.51257508e-07
7.5164294e-07
7.34247769e-07
7.25585926e-07
7.3267566e-07
7.2599771e-07
7.43640576e-07
7.35289722e-07
7.21683444e-07
7.23893606e-07
7.09465831e-07
7.12269235e-07
6.96257076e-07
6.73246269e-07
6.67838842e-07
6.46128966e-07
6.41851145e-07
6.21521614e-07
5.957637e-07
5.87378813e-07
5.60695957e-07
5.50766247e-07
5.27768148e-07
5.0001363e-07
4.87387688e-07
)
;

boundaryField
{
    closed
    {
        type            calculated;
        value           nonuniform List<scalar> 0();
    }
    open
    {
        type            calculated;
        value           nonuniform List<scalar> 0();
    }
    sides
    {
        type            empty;
        value           nonuniform List<scalar> 0();
    }
    procBoundary2to1
    {
        type            processor;
        value           uniform -1.30295075e-06;
    }
    procBoundary2to3
    {
        type            processor;
        value           uniform 4.53182324e-07;
    }
}


// ************************************************************************* //
