/*--------------------------------*- C++ -*----------------------------------*\
| =========                 |                                                 |
| \\      /  F ield         | OpenFOAM: The Open Source CFD Toolbox           |
|  \\    /   O peration     | Version:  2306                                  |
|   \\  /    A nd           | Website:  www.openfoam.com                      |
|    \\/     M anipulation  |                                                 |
\*---------------------------------------------------------------------------*/
FoamFile
{
    version     2.0;
    format      ascii;
    arch        "LSB;label=32;scalar=64";
    class       volScalarField;
    location    "0.00166";
    object      h;
}
// * * * * * * * * * * * * * * * * * * * * * * * * * * * * * * * * * * * * * //

dimensions      [0 2 -2 0 0 0 0];

internalField   nonuniform List<scalar> 
530
(
12288.9423
4940.70056
2373.72388
2282.87299
2274.37917
2273.93186
2273.89652
2273.89472
2273.89462
2273.89461
2273.89461
2273.89461
2273.89461
2273.89461
2273.89461
2273.89461
2273.89461
2273.89461
2273.89461
2273.89461
2273.89461
2273.89461
2273.89461
2273.89461
2273.89461
2273.89461
2273.89461
2273.89461
2273.89461
2273.89461
2273.89461
2273.89461
2273.89461
2273.89461
2273.89461
2273.89461
2273.89461
2273.89461
2273.89461
2273.89461
2273.89461
2273.89461
2273.89461
2273.89461
2273.89461
2273.89461
2273.89461
2273.89461
2273.89461
2273.89461
2273.89461
2273.89461
2273.89461
2273.89461
2273.89461
2273.89461
2273.89461
2273.89462
2273.89463
2273.89469
2273.89484
2273.89532
2273.89656
2273.89971
2273.9075
2273.92623
2273.94952
2274.02949
2274.14537
2274.48973
2274.71854
2275.71626
2277.28661
2278.72093
2280.27468
2285.40482
2291.21511
2295.56887
2298.04458
2310.67891
2320.72545
2347.75862
2403.67439
2396.6447
2031.67817
1705.51708
2148.58537
4052.32247
3998.66178
1359.65146
-2558.85285
-2875.08789
-3396.78051
-402.167007
9486.81925
9953.91716
9258.48846
9847.34014
6600.71905
-4206.32575
-4830.93189
-4161.47919
-4318.50198
-4017.6592
-4709.93525
-108.23574
9152.23835
10002.8609
9625.82821
9299.27334
9744.50342
8845.33251
-3456.23691
-5715.47056
-4593.51185
-4423.63889
-5006.89538
-3827.48938
8160.16979
9951.97473
9590.41533
9715.52523
9845.62562
9827.17024
4747.79718
-3853.05964
-4806.46471
-4678.06221
-4385.91631
-4658.62412
-2901.37559
7635.79688
10206.0078
9648.93303
541.009975
-6160.83342
-6377.34201
5103.09523
9164.48941
9696.30712
9312.23137
1823.47433
-4080.24005
-4813.50516
-2781.97769
7437.6108
9625.73277
3326.43326
-3285.69375
-3233.1435
6936.81209
9395.63838
3560.21111
-1312.84258
3876.79821
9005.42167
3542.87422
-3738.83222
-3773.88878
6329.57198
9303.42301
3513.37455
-3924.2906
-3611.6842
6107.07295
9894.37707
9794.29245
4220.30008
-3409.37169
-3179.54469
7127.95627
9425.27118
3790.03563
-3649.94482
-3554.20377
6697.39394
9348.38358
3315.18093
-3873.98314
-4229.08127
-3835.74736
-4062.61746
-3056.13588
7553.4582
9379.37738
2467.07654
-2249.47492
3333.77951
9563.65754
7202.10922
-2288.58561
-3614.89074
3334.1907
9661.36199
9358.10813
-676.678726
-4045.92258
-4435.30996
-3245.31091
7949.53933
9475.01585
2374.08293
-1881.69813
4768.64109
8961.74816
1319.88169
-2693.16859
5134.3948
8604.73933
-123.35635
-3310.76096
5451.53379
8624.07972
-302.944401
-3213.87665
5286.98487
8905.24333
729.785923
-5234.19203
-3955.32594
8371.7259
8867.93973
-541.910855
-3017.78638
5816.85458
8766.31646
-332.33823
-5708.45055
-3823.43359
8635.56207
8612.7076
-1883.79075
-3396.48371
6807.97303
8483.38402
-1963.07463
-3436.95995
7095.85818
8731.06674
-1653.07674
-3233.90987
7187.09293
8815.12266
-1729.39114
-3187.75281
7360.24015
8869.36914
-1826.83963
-3303.99412
7130.43029
8953.73494
-1272.19892
-5954.95054
-3639.51648
9067.79769
9168.32659
-1659.38467
-2918.4993
7906.81582
9204.06834
-1823.67645
-3085.63336
7744.11645
9199.54
-1273.79971
-5849.03933
-3329.87261
9293.6786
9351.04022
-2095.80988
-3135.57744
8109.04232
9349.56602
-1370.7573
-5857.52781
-3203.53708
9382.39278
9530.59302
-2220.34754
-3046.55778
8776.07879
9566.19267
-2421.87386
-3212.4621
8667.3202
9511.6164
-1426.47945
-5780.51943
-3000.0352
9484.93658
9711.93539
-2296.47247
-3097.92484
8930.69537
9623.80915
-1576.08563
-4821.76926
-3741.16869
-4799.88462
-2776.88925
9681.23525
9945.5493
-1744.48218
-2619.52837
9043.93793
9833.68015
-650.139847
-5130.64515
-2278.89225
9656.07807
9916.574
-619.812819
-5066.64389
-2123.72672
9687.63319
9944.46487
-591.261719
-5018.2764
-2023.32447
9717.62711
9993.27748
-438.55783
-4795.19079
-1544.67447
9812.23613
10053.3346
-285.093166
-4515.41746
-939.886735
9928.34796
10095.3381
-672.420866
-4095.22407
-4420.10608
-2061.79838
9845.31063
10193.9047
-1623.64882
-2298.48612
9481.56593
9967.96519
-853.149122
-5132.7018
-2011.59167
9814.28982
9997.13675
-1099.2039
-5206.90498
-1992.1898
9835.50746
10006.1367
-1262.14412
-5268.56744
-2085.11035
9845.28519
10000.8051
-1377.72274
-5317.56311
-2055.28678
9887.85172
10029.5467
-1930.50366
-4407.87129
-4601.00847
-2746.5529
9909.93191
10141.0328
-2735.9714
-2943.20203
9868.3512
9931.66601
-1672.32684
-5561.29132
-1822.75899
9933.16223
10141.3819
-3128.0672
-3031.78084
10037.8483
9925.7388
-1863.87125
-5665.96589
-1850.12593
9967.62946
10062.3865
-3459.0562
-3115.68409
10084.6936
9855.69015
-2215.50805
-5901.39622
-2070.02379
9932.63319
9954.81208
-3619.76705
-3126.30049
10117.7838
9800.58217
-2472.73624
-5960.33754
-2025.61575
9952.89481
9852.70595
-3583.53156
-3024.57652
10174.047
9769.28796
-2610.92221
-6026.08172
-2197.98383
9974.56593
9832.05652
-2937.66247
-6007.32496
-2110.94821
9995.39787
9848.73228
-2895.74081
-5882.75168
-1881.08695
9996.55629
9744.88105
-3336.936
-2708.1994
10257.2642
9683.0656
-3391.31288
-2828.22214
10284.0408
9793.94104
-2973.40487
-5882.61809
-1839.0566
10002.4016
9702.71079
-3175.52539
-2537.33981
10290.8408
9707.71832
-3099.33777
-2390.05224
10318.7367
9936.89612
-2815.70545
-5321.38554
-907.69015
10135.7312
10002.556
-2940.59229
-4494.77793
-3461.2109
-4743.56079
-1386.03351
10184.3216
10058.1941
-2573.14544
-5088.41069
-779.970724
10175.9646
10035.3459
-2646.01812
-5316.92702
-1308.55787
10117.3311
10012.2017
-2838.03089
-2672.21608
10317.7856
10070.0112
-2984.19927
-2842.07648
10261.5795
10072.1996
-3345.00896
-3060.2977
10246.3965
10072.9046
-3031.87087
-5881.64801
-2230.37734
9976.55957
10024.9559
-2935.90132
-5874.56328
-2087.3296
9950.68399
10059.3341
-2697.16527
-5776.7289
-2096.9745
9932.0743
10106.1153
-2386.57887
-5670.55363
-2259.35435
9850.10887
10239.4573
-2724.83437
-3208.84889
9763.85065
10215.0795
-2134.91756
-5464.99453
-2458.91004
9780.05103
10251.9889
-2607.48108
-3282.9684
9582.07671
10211.7218
-2024.96682
-5474.68825
-2649.9354
9769.38534
10138.3365
-1694.45372
-6232.47518
-1690.33407
9152.11941
10760.3639
10130.2722
-1241.35471
-5130.703
-3652.95552
-5765.25071
-2642.31871
9137.94668
10749.3762
10175.3219
-410.318913
)
;

boundaryField
{
    closed
    {
        type            lookUpEnthalpy;
        h0              uniform 257555.149;
        value           uniform 257555.149;
    }
    open
    {
        type            zeroGradient;
    }
    sides
    {
        type            empty;
    }
    procBoundary0to1
    {
        type            processor;
        value           uniform -5280.09127;
    }
}


// ************************************************************************* //
