/*--------------------------------*- C++ -*----------------------------------*\
| =========                 |                                                 |
| \\      /  F ield         | OpenFOAM: The Open Source CFD Toolbox           |
|  \\    /   O peration     | Version:  2306                                  |
|   \\  /    A nd           | Website:  www.openfoam.com                      |
|    \\/     M anipulation  |                                                 |
\*---------------------------------------------------------------------------*/
FoamFile
{
    version     2.0;
    format      ascii;
    arch        "LSB;label=32;scalar=64";
    class       volScalarField;
    location    "0.00166";
    object      rho;
}
// * * * * * * * * * * * * * * * * * * * * * * * * * * * * * * * * * * * * * //

dimensions      [1 -3 0 0 0 0 0];

internalField   nonuniform List<scalar> 
530
(
0.852646926
0.921942066
0.931827112
0.932986655
0.933909618
0.93564624
0.936733193
0.937427341
0.937841174
0.936568163
0.935425187
0.933569228
0.93116005
0.931139564
0.932850702
0.935279709
0.937224784
0.936626084
0.934171379
0.932801783
0.933240789
0.933165699
0.934132008
0.937955353
0.940562558
0.9389986
0.936019713
0.934319781
0.935214791
0.936441266
0.935266735
0.932624075
0.930312981
0.928037683
0.926982427
0.929099239
0.934423396
0.939501011
0.939647597
0.936239615
0.934226884
0.936565529
0.940466991
0.940623672
0.935976377
0.928496245
0.922546524
0.922714129
0.928354193
0.934410674
0.937618994
0.937164465
0.935727716
0.93517493
0.935533846
0.935728543
0.935535897
0.935353339
0.9353043
0.935476295
0.935936311
0.936674223
0.937484908
0.9381537
0.938544384
0.938649102
0.938567866
0.938436049
0.938338477
0.938285149
0.938263611
0.938259055
0.938262596
0.938263783
0.938249969
0.938207652
0.938144208
0.93806236
0.937955152
0.937783391
0.937569774
0.937259378
0.936822483
0.936477547
0.936849939
0.936977702
0.935650009
0.929775701
0.929551956
0.935580229
0.939265941
0.940734653
0.943341547
0.93622168
0.899297729
0.898400323
0.900708007
0.898587679
0.912269941
0.94562838
0.949383504
0.944748454
0.945542574
0.943330521
0.947445862
0.931609439
0.898604565
0.896624219
0.896391986
0.897247395
0.896567757
0.895588491
0.937434171
0.951418292
0.943765742
0.942211424
0.945534571
0.937705662
0.897502737
0.892030368
0.892351755
0.891614595
0.890936099
0.890602149
0.914555975
0.935172593
0.940544845
0.939536942
0.937398781
0.93898262
0.928086358
0.899136707
0.888687601
0.888111933
0.923453755
0.947813711
0.949410368
0.909918043
0.890905031
0.889706445
0.888961697
0.92100859
0.935071242
0.940059413
0.928147993
0.901808938
0.890927348
0.920090284
0.933648811
0.934109962
0.907601104
0.893852661
0.922950142
0.930741921
0.923451379
0.898587889
0.925610001
0.942755839
0.943623781
0.915973659
0.900161092
0.928497205
0.94665464
0.945214197
0.919546769
0.902811728
0.902586909
0.928578478
0.945853133
0.944785796
0.916471496
0.903794975
0.931712983
0.948618065
0.948222933
0.919645488
0.904958619
0.934010353
0.950752786
0.95310642
0.950867492
0.952530276
0.94640606
0.915532466
0.905723173
0.937543252
0.942147445
0.935345994
0.907058732
0.918314715
0.942770975
0.950929408
0.935741654
0.906973444
0.907636631
0.942910364
0.953970405
0.956473381
0.949080984
0.913979406
0.907605432
0.938825571
0.942095689
0.931190807
0.908157641
0.941057431
0.945749097
0.928983845
0.909007546
0.942879645
0.949514465
0.926993572
0.90891015
0.942828767
0.948694691
0.927861863
0.908622832
0.94145613
0.961396288
0.952864681
0.909799147
0.908014332
0.941414064
0.946866816
0.924527498
0.90816276
0.941993162
0.964034993
0.951496673
0.907861021
0.90758625
0.940560721
0.948696973
0.917839536
0.907702762
0.940770599
0.94870335
0.915567908
0.906887699
0.940356603
0.947146729
0.914777466
0.906392041
0.939865113
0.946579335
0.913199577
0.906026285
0.939604388
0.947047522
0.914255357
0.906004107
0.940337298
0.964058725
0.94876913
0.904941156
0.904476523
0.938268331
0.944230854
0.909026021
0.904616264
0.938249946
0.945160015
0.909123507
0.905071672
0.93961142
0.962854942
0.946524735
0.903915651
0.903474658
0.93886007
0.945192314
0.906649664
0.904346066
0.939095178
0.962460739
0.945346705
0.903459078
0.902393301
0.939143051
0.944169736
0.904175201
0.902770213
0.940196822
0.94503707
0.903491831
0.903472896
0.938627735
0.96133124
0.943646065
0.903023418
0.901694745
0.939296739
0.944202938
0.902904603
0.902798979
0.938594088
0.955073633
0.94819346
0.954974013
0.942435987
0.902932447
0.901818681
0.938071625
0.941539121
0.902884394
0.90315035
0.938657072
0.957211345
0.939655442
0.902766602
0.902546452
0.939064251
0.956819533
0.939588631
0.902844066
0.902648415
0.939226404
0.956638616
0.939771191
0.903042694
0.902728626
0.939312223
0.955378611
0.939931764
0.903265417
0.902771575
0.939439854
0.953797064
0.940083612
0.903665068
0.902443635
0.939316277
0.951304403
0.953384347
0.940134181
0.903850077
0.902556865
0.939602154
0.940574796
0.903184637
0.903697491
0.940010134
0.958023643
0.940484164
0.903479616
0.903140761
0.940259538
0.958439141
0.940479383
0.903394307
0.903223952
0.940306403
0.958840207
0.940465721
0.903344989
0.903269359
0.940442638
0.959187598
0.940813091
0.903794833
0.902548722
0.939692668
0.9534175
0.954689445
0.943334188
0.903710559
0.902962212
0.943270356
0.944508039
0.902458225
0.904129643
0.940673232
0.960908768
0.940881005
0.904267483
0.902457558
0.945600352
0.945013492
0.902379475
0.904218321
0.940728108
0.96150963
0.940793587
0.904074166
0.902596784
0.947513506
0.945417335
0.902330962
0.904233884
0.940761329
0.962915888
0.940741043
0.903986799
0.902715343
0.948359155
0.945347848
0.902258015
0.904188862
0.941467693
0.963143636
0.940498099
0.903835964
0.902840725
0.947957944
0.94454524
0.902202461
0.904012338
0.942059239
0.963225955
0.940150741
0.902804717
0.903055272
0.943811797
0.962781099
0.939863727
0.902457308
0.902977539
0.943391977
0.961885284
0.939763752
0.903028876
0.90223344
0.945831661
0.942013242
0.902171925
0.902698062
0.946034477
0.942578833
0.901262532
0.903176597
0.943454584
0.96150631
0.93956684
0.902701995
0.901745568
0.944483643
0.940632957
0.901872808
0.902050844
0.943977436
0.939647016
0.901109671
0.902563313
0.942247471
0.957543982
0.938863081
0.902280215
0.901798393
0.942811249
0.952271911
0.945881928
0.953735822
0.938615985
0.901721129
0.901554219
0.940487257
0.955670739
0.938323407
0.901612193
0.90132385
0.940724545
0.956939213
0.938522627
0.901821145
0.900468361
0.941603836
0.940570141
0.900945989
0.900668431
0.942302492
0.9413672
0.900520255
0.9003994
0.944244019
0.942451891
0.899944189
0.900914776
0.942210116
0.959660791
0.938102862
0.90073338
0.900013963
0.941415749
0.959345575
0.937703848
0.90070538
0.899913865
0.939904236
0.958643621
0.937631671
0.900856984
0.900009969
0.938108979
0.958071894
0.938012779
0.901512243
0.899260392
0.940144565
0.943037102
0.901586505
0.900855614
0.938399454
0.957099794
0.938861694
0.902032143
0.899519475
0.939803119
0.943854357
0.902419892
0.901122905
0.938661094
0.957504679
0.940345702
0.901846821
0.901382482
0.939137696
0.962849881
0.939182509
0.903412293
0.900719156
0.902415382
0.939330983
0.956135177
0.946688536
0.960396472
0.940779772
0.903723015
0.901024982
0.902502604
0.938700879
)
;

boundaryField
{
    closed
    {
        type            calculated;
        value           uniform 0.57785116;
    }
    open
    {
        type            calculated;
        value           nonuniform List<scalar> 0();
    }
    sides
    {
        type            empty;
    }
    procBoundary0to1
    {
        type            processor;
        value           uniform 0.957085396;
    }
}


// ************************************************************************* //
