/*--------------------------------*- C++ -*----------------------------------*\
| =========                 |                                                 |
| \\      /  F ield         | OpenFOAM: The Open Source CFD Toolbox           |
|  \\    /   O peration     | Version:  2306                                  |
|   \\  /    A nd           | Website:  www.openfoam.com                      |
|    \\/     M anipulation  |                                                 |
\*---------------------------------------------------------------------------*/
FoamFile
{
    version     2.0;
    format      ascii;
    arch        "LSB;label=32;scalar=64";
    class       surfaceScalarField;
    location    "0.00122";
    object      phi;
}
// * * * * * * * * * * * * * * * * * * * * * * * * * * * * * * * * * * * * * //

dimensions      [1 0 -1 0 0 0 0];

oriented        oriented;

internalField   nonuniform List<scalar> 
530
(
3.37897904e-06
3.28496791e-06
3.26359867e-06
3.28489835e-06
3.32942244e-06
3.17886236e-06
3.11507217e-06
3.12801754e-06
3.18010119e-06
3.25769391e-06
3.15394626e-06
3.12394117e-06
3.16519892e-06
3.41060994e-06
3.45285494e-06
3.37806473e-06
3.451298e-06
3.73856633e-06
3.78697127e-06
3.70242259e-06
3.79792216e-06
3.91779707e-06
4.07470613e-06
3.96236097e-06
3.94485647e-06
4.03378922e-06
4.13472251e-06
4.30041362e-06
4.40044709e-06
4.32927379e-06
4.33060547e-06
4.38083494e-06
4.43547886e-06
4.46749317e-06
4.58005259e-06
4.62471029e-06
4.68265718e-06
4.66955251e-06
4.6961458e-06
4.40308461e-06
4.23765002e-06
4.16610663e-06
4.09814916e-06
4.01192224e-06
3.75579498e-06
3.57538239e-06
3.4291725e-06
3.34075931e-06
3.23703371e-06
3.13760741e-06
2.8586795e-06
2.66976063e-06
2.5333679e-06
2.51208299e-06
2.35211186e-06
2.156336e-06
2.04144363e-06
1.96364449e-06
1.86883432e-06
1.77314299e-06
1.63345321e-06
1.48381462e-06
1.46284475e-06
1.38950285e-06
1.33398576e-06
1.26810622e-06
1.2005962e-06
1.13305759e-06
1.05695501e-06
9.58183191e-07
9.04385281e-07
8.38787124e-07
7.50822036e-07
6.60755063e-07
5.70354888e-07
5.109317e-07
4.37495601e-07
3.40253345e-07
2.3886395e-07
1.6820797e-07
1.27455056e-07
6.32302814e-08
-3.03528291e-08
-1.19946728e-07
-1.36278477e-07
-1.34034619e-07
-1.68231862e-07
-2.28426515e-07
-2.88252583e-07
-2.55378236e-07
-1.85778216e-07
-1.67291666e-07
-1.7915424e-07
-1.45176641e-07
-7.93000009e-08
-2.8897445e-08
4.89650436e-08
1.19927366e-07
1.9477909e-07
2.90588134e-07
3.66407035e-07
4.5467536e-07
5.33773009e-07
6.09705768e-07
6.91929926e-07
7.37348676e-07
8.01769692e-07
8.72586344e-07
9.77103404e-07
1.00949818e-06
9.5761619e-07
9.72201779e-07
1.17601884e-06
1.20648029e-06
1.11817569e-06
1.08917463e-06
1.06537331e-06
1.02805789e-06
1.00923473e-06
9.74966703e-07
8.83839495e-07
8.25576491e-07
8.60943749e-07
8.05332451e-07
7.36130735e-07
6.05581908e-07
5.46144778e-07
7.26226554e-07
6.89232651e-07
6.92165472e-07
6.24329929e-07
8.09793516e-07
7.825848e-07
7.29566162e-07
6.63351184e-07
6.23127319e-07
7.19507525e-07
6.96768364e-07
6.71854842e-07
5.71249303e-07
5.53342379e-07
7.90690713e-07
7.86760299e-07
8.0590485e-07
7.72144329e-07
7.62371102e-07
7.61105044e-07
8.80401185e-07
8.85096525e-07
8.47454795e-07
8.56984493e-07
8.63458854e-07
8.85831993e-07
9.14245254e-07
9.56749275e-07
9.45468875e-07
9.80097841e-07
1.02464985e-06
1.06662107e-06
1.11782004e-06
1.11571513e-06
1.15493483e-06
1.20382127e-06
1.25225307e-06
1.30068534e-06
1.33169757e-06
1.3559634e-06
1.39183844e-06
1.47540762e-06
1.47183039e-06
1.46228546e-06
1.6165706e-06
1.64124729e-06
1.66799222e-06
1.64129199e-06
1.53993061e-06
1.53501612e-06
1.85676909e-06
1.85096278e-06
1.77034763e-06
1.74976184e-06
1.72165485e-06
1.71620526e-06
1.72042429e-06
1.73240352e-06
1.71902482e-06
1.71084276e-06
1.70130246e-06
1.68658681e-06
1.65992096e-06
1.61424617e-06
1.61321388e-06
1.60789097e-06
1.53640573e-06
1.46388813e-06
1.44422936e-06
1.55040867e-06
1.5361999e-06
1.4535646e-06
1.34752441e-06
1.30353482e-06
1.34284952e-06
1.28961504e-06
1.18299919e-06
1.03502542e-06
9.56467778e-07
9.82240772e-07
8.467906e-07
6.78850332e-07
6.05952213e-07
5.09870995e-07
3.84754199e-07
1.95164696e-07
1.36326271e-07
4.82029785e-08
-5.13493231e-08
-2.15888699e-07
-3.3033267e-07
-3.15313153e-07
-3.65485406e-07
-4.50911812e-07
-5.55699758e-07
-5.81555347e-07
-5.34420917e-07
-5.29453405e-07
-5.57393574e-07
-6.26943676e-07
-6.21677088e-07
-5.19351292e-07
-4.86143262e-07
-4.71596733e-07
-4.63433013e-07
-4.82321202e-07
-5.46313786e-07
-5.77916603e-07
-6.06714609e-07
-6.53984123e-07
-7.46394415e-07
-7.97573003e-07
-7.71856653e-07
-8.4705443e-07
-9.90899087e-07
-1.09602491e-06
-1.23067341e-06
-1.27278971e-06
-1.36375586e-06
-1.47950183e-06
-1.68896464e-06
-1.76254999e-06
-1.66623394e-06
-1.70802886e-06
-1.75199104e-06
-1.81989948e-06
-1.57660975e-06
-1.55449295e-06
-1.52679832e-06
-1.52952251e-06
-1.19038444e-06
-1.10139292e-06
-1.02201624e-06
-9.95448216e-07
-7.29271271e-07
-6.27809182e-07
-5.86164431e-07
-5.38810692e-07
-4.45315865e-07
-3.67788179e-07
-3.29498284e-07
-3.08267627e-07
-2.69015579e-07
-2.22617542e-07
-2.16589422e-07
-2.28569876e-07
-2.72271237e-07
-2.86551736e-07
-2.69583872e-07
-3.03578848e-07
-3.36218911e-07
-3.21881266e-07
-3.18408499e-07
-2.77075022e-07
-3.60348557e-07
-4.28445396e-07
-3.85986815e-07
-3.706829e-07
-3.77249385e-07
-4.67687362e-07
-5.50725217e-07
-4.23909525e-07
-2.84914446e-07
-2.75898513e-07
-4.0988117e-07
-3.50153308e-07
-3.47298534e-07
-3.28737036e-07
-4.24188007e-07
-4.89038269e-07
-4.28707145e-07
-4.22093907e-07
-4.58437138e-07
-5.6582428e-07
-6.42458982e-07
-4.85767531e-07
-3.18360625e-07
-2.67640525e-07
-3.47423606e-07
-2.08840475e-07
-9.02841768e-08
8.23158757e-08
1.56619041e-07
2.46891701e-07
4.55708942e-07
6.59545917e-07
8.65818077e-07
9.87771772e-07
1.03641159e-06
1.24832631e-06
1.62045403e-06
1.7431492e-06
1.66652952e-06
1.61455652e-06
1.64754927e-06
1.82110948e-06
1.80318587e-06
1.65740551e-06
1.51164201e-06
1.49419909e-06
1.64033319e-06
1.61198532e-06
1.46330858e-06
1.31544443e-06
1.50187409e-06
1.6097583e-06
1.67483261e-06
1.53070881e-06
1.61406084e-06
1.86521594e-06
1.92731716e-06
1.83414323e-06
1.89416475e-06
1.99685178e-06
2.10839205e-06
2.22837652e-06
2.35655678e-06
2.52198035e-06
2.73314677e-06
2.88851226e-06
2.84911801e-06
3.06902114e-06
3.75069582e-06
3.95995566e-06
3.92176209e-06
3.91582433e-06
4.19279811e-06
4.23012794e-06
4.00325812e-06
3.88574021e-06
4.08142513e-06
3.96508372e-06
3.64644404e-06
3.35988541e-06
3.18841397e-06
3.11349361e-06
2.87057947e-06
2.53177237e-06
2.34630005e-06
2.40658246e-06
2.28487242e-06
1.98999476e-06
1.9592323e-06
1.92342391e-06
1.82595111e-06
1.61712436e-06
1.33888923e-06
1.34775773e-06
1.45935471e-06
1.36815474e-06
1.06653303e-06
1.14408221e-06
1.14104827e-06
1.06390707e-06
9.03546797e-07
7.62180245e-07
9.4419122e-07
1.22401475e-06
1.3485481e-06
1.49138082e-06
1.83159509e-06
2.09031266e-06
2.31072804e-06
2.45025937e-06
2.50747618e-06
2.89195848e-06
3.53394348e-06
3.73977996e-06
4.1440319e-06
4.68778025e-06
5.53878208e-06
6.09643042e-06
6.71654203e-06
7.47937582e-06
8.68443563e-06
9.55041257e-06
1.04417949e-05
1.13933658e-05
1.24701086e-05
1.36626759e-05
1.48639034e-05
1.60742891e-05
1.70638572e-05
1.91324072e-05
2.08061058e-05
2.21342883e-05
2.31666887e-05
2.52689848e-05
2.64422256e-05
2.72454176e-05
2.78978766e-05
2.89786582e-05
3.00753751e-05
3.12036307e-05
3.18074346e-05
3.21905444e-05
3.40051044e-05
3.53605916e-05
3.5560627e-05
3.55854957e-05
3.5999323e-05
3.68157601e-05
3.71080496e-05
3.59551942e-05
3.49755441e-05
3.53531234e-05
3.52914762e-05
3.39699841e-05
3.13575761e-05
2.87831651e-05
2.65186563e-05
2.52319919e-05
2.35087423e-05
2.01032766e-05
1.69214825e-05
1.42206642e-05
1.1517961e-05
8.40768218e-06
5.1698854e-06
2.38510305e-06
-5.07308971e-07
-3.62453435e-06
-6.40971327e-06
-9.31270882e-06
-1.25777285e-05
-1.5582319e-05
-1.79156453e-05
-2.07559353e-05
-2.41589881e-05
-2.77395123e-05
-3.0094786e-05
-3.1573818e-05
-3.30609651e-05
-3.59691393e-05
-3.76286661e-05
-3.82254933e-05
-3.97356876e-05
-4.19591961e-05
-4.20556107e-05
-4.16126676e-05
-4.22553695e-05
-4.39945262e-05
-4.32418016e-05
-4.20948176e-05
-4.17925481e-05
-4.2893054e-05
-4.12396914e-05
-3.92914198e-05
-3.78684704e-05
-3.72563422e-05
-3.53757805e-05
-3.28531973e-05
-3.03787048e-05
-2.83511132e-05
-2.67599204e-05
-2.63535851e-05
-2.38476326e-05
-2.1640521e-05
-1.99790057e-05
-1.8794574e-05
-1.74344436e-05
-1.64494416e-05
-1.50849336e-05
-1.40136478e-05
-1.31146296e-05
-1.22943814e-05
-1.15597037e-05
-1.10654923e-05
-1.04637633e-05
-9.74717212e-06
-8.44834405e-06
-7.98540319e-06
-7.6520437e-06
-7.30516573e-06
-6.88001951e-06
-6.04400187e-06
-5.79563322e-06
-5.62365492e-06
-5.53408268e-06
-5.3156219e-06
-4.74834192e-06
-4.64013864e-06
-4.57739045e-06
-4.59918822e-06
-4.48771067e-06
-4.06130517e-06
-4.02167464e-06
-4.01093361e-06
-4.06395856e-06
-3.99844733e-06
-3.64469312e-06
-3.62801832e-06
-3.63778886e-06
-3.69900134e-06
-3.65205264e-06
-3.33418669e-06
-3.32017843e-06
-3.33313855e-06
-3.33992772e-06
-3.40299653e-06
-3.33725348e-06
-3.06569141e-06
-3.03803688e-06
)
;

boundaryField
{
    closed
    {
        type            calculated;
        value           nonuniform List<scalar> 0();
    }
    open
    {
        type            calculated;
        value           nonuniform List<scalar> 0();
    }
    sides
    {
        type            empty;
        value           nonuniform List<scalar> 0();
    }
    procBoundary3to2
    {
        type            processor;
        value           uniform -3.56703819e-06;
    }
    procBoundary3to4
    {
        type            processor;
        value           uniform -3.02813447e-06;
    }
}


// ************************************************************************* //
