/*--------------------------------*- C++ -*----------------------------------*\
| =========                 |                                                 |
| \\      /  F ield         | OpenFOAM: The Open Source CFD Toolbox           |
|  \\    /   O peration     | Version:  2306                                  |
|   \\  /    A nd           | Website:  www.openfoam.com                      |
|    \\/     M anipulation  |                                                 |
\*---------------------------------------------------------------------------*/
FoamFile
{
    version     2.0;
    format      ascii;
    arch        "LSB;label=32;scalar=64";
    class       volScalarField;
    location    "0.00022";
    object      prefDh_T;
}
// * * * * * * * * * * * * * * * * * * * * * * * * * * * * * * * * * * * * * //

dimensions      [1 1 -3 -1 0 0 0];

internalField   nonuniform List<scalar> 
3810
(
-0.000442229066
-0.000595205532
-0.000740317901
-0.000490804251
-0.000418324439
-0.000505355995
-0.000516317647
-0.000531448507
-0.000597455198
-0.000740186175
-0.00073944816
-0.000741251004
-0.000740245633
-0.000741575289
-0.000740501069
-0.000510747583
-0.000423629179
-0.000597464189
-0.000736303373
-0.000736860269
-0.000740581805
-0.000415835647
-0.000391761011
-0.000730194942
-0.000731465327
-0.000732883595
-0.00073075747
-0.000734964678
-0.000452952404
-0.000440960275
-0.000479171854
-0.000526656204
-0.000698398324
-0.00073483055
-0.00073322058
-0.000739109928
-0.000598459976
-0.000486354907
-0.000597831322
-0.000743003285
-0.00074303727
-0.000456947505
-0.000668339814
-0.000745497888
-0.000507516444
-0.000537585974
-0.000738874479
-0.000742438115
-0.000484119169
-0.00060136276
-0.000744287538
-0.00050127358
-0.000494421414
-0.000493675589
-0.000601809517
-0.000743801632
-0.000742565786
-0.000743315495
-0.000490538193
-0.000594237593
-0.000740425897
-0.00053829329
-0.00054420488
-0.000746031985
-0.000741944265
-0.000743255822
-0.000739370126
-0.000498154927
-0.000495960834
-0.000510872469
-0.00059905292
-0.000745807851
-0.000730855509
-0.000448160319
-0.000446103513
-0.00051918192
-0.000494688399
-0.000595439965
-0.000744714493
-0.000740413806
-0.000743791631
-0.000734852793
-0.000562970054
-0.000504552388
-0.00055335967
-0.000643899717
-0.000733591735
-0.000733447884
-0.000724317811
-0.000504754189
-0.000545017999
-0.000738928852
-0.00072189361
-0.000469834858
-0.000468977553
-0.000602906268
-0.000736213048
-0.000733179445
-0.000736592398
-0.000726788045
-0.000420306245
-0.000416622929
-0.000599807709
-0.00073286999
-0.000737904672
-0.000719138801
-0.000514567443
-0.000544456561
-0.000737755069
-0.000718488855
-0.000486950804
-0.00048493515
-0.000537405494
-0.000608563912
-0.000739146286
-0.000718174553
-0.000496827479
-0.000495571543
-0.000597731409
-0.000732851715
-0.000728625546
-0.000734579724
-0.000691697511
-0.000471838209
-0.000588528583
-0.000736179694
-0.000735525362
-0.000733220283
-0.00064348869
-0.000418333948
-0.000423334469
-0.000498033397
-0.000600185993
-0.000733861752
-0.0007306643
-0.000730086742
-0.000674651297
-0.000434083068
-0.000597774867
-0.000697208726
-0.000538829056
-0.000581022097
-0.000739654899
-0.000710572144
-0.000476255147
-0.00047530477
-0.000542182905
-0.000604491487
-0.000741934357
-0.000722838021
-0.000508422317
-0.000507937156
-0.000561444883
-0.000602082545
-0.000743350491
-0.00072185989
-0.00051778311
-0.000517828119
-0.000600218417
-0.000736393615
-0.000725188945
-0.000536214392
-0.000606475056
-0.000740085665
-0.000731846295
-0.000738462122
-0.000678741895
-0.000447020987
-0.000446811493
-0.000534585115
-0.000598914783
-0.000739283504
-0.00073471311
-0.000737720828
-0.000733259709
-0.000734968052
-0.00065186906
-0.000479237663
-0.000479594566
-0.000561567777
-0.000606061324
-0.000740374847
-0.00072394961
-0.000523350297
-0.000606366085
-0.000741204369
-0.000719832883
-0.000431521754
-0.000424139713
-0.000593590231
-0.000728696199
-0.000743142127
-0.000709841249
-0.000505696726
-0.000588561966
-0.000734089494
-0.000733923263
-0.000730187387
-0.000477249816
-0.000598885874
-0.000726452243
-0.000477383033
-0.000474864616
-0.000552203058
-0.000534419477
-0.000593676643
-0.000704611085
-0.00074125257
-0.000714621542
-0.000549116493
-0.000549353529
-0.000604193975
-0.000735717711
-0.000734122522
-0.000470342439
-0.000468644953
-0.000597199078
-0.000728650872
-0.000740842214
-0.000732858362
-0.000495612396
-0.000596137646
-0.000731894674
-0.000455294904
-0.00045250105
-0.000604271011
-0.000727713182
-0.000738376397
-0.000732328935
-0.000504555056
-0.000599210959
-0.000733468915
-0.000480942571
-0.00048015332
-0.000601072419
-0.000734042848
-0.000735853555
-0.000466238275
-0.000466714887
-0.000576721775
-0.000597034597
-0.000738076223
-0.000745788056
-0.000743326497
-0.000550224457
-0.000596093947
-0.000748433121
-0.000744641394
-0.000753846655
-0.000741251636
-0.000593314766
-0.000540596296
-0.000590418668
-0.000737444158
-0.000741741706
-0.000739713239
-0.00044463319
-0.000443108269
-0.000524396159
-0.000525749484
-0.000550775301
-0.000560579685
-0.00058979412
-0.000607759628
-0.000745206343
-0.000741015257
-0.000507042028
-0.00050668083
-0.000582767784
-0.00059882841
-0.00063341413
-0.000748342709
-0.000736299076
-0.000590894668
-0.000609243102
-0.00074212236
-0.000741761538
-0.000742413535
-0.000535748395
-0.000508816749
-0.000564848075
-0.000565487847
-0.000596717115
-0.000742591891
-0.000737404466
-0.000496270892
-0.000496056579
-0.000599210598
-0.000736467216
-0.000732042
-0.000487869262
-0.000486759744
-0.000598606802
-0.000736065938
-0.000730594952
-0.000477806265
-0.000477694614
-0.000597855925
-0.000737403233
-0.000727980115
-0.000470234876
-0.000470254087
-0.000605575748
-0.000735818071
-0.000733901351
-0.000737103638
-0.000727391816
-0.00073672731
-0.000717038885
-0.000468495331
-0.000467255009
-0.000572639781
-0.000600892636
-0.000741522614
-0.000728505992
-0.00054537984
-0.000606930372
-0.000741583123
-0.000728593269
-0.000476594391
-0.000596137543
-0.000726884576
-0.00045582905
-0.000454056678
-0.000520391406
-0.0005230913
-0.000561916347
-0.000571036481
-0.000603247745
-0.0007387942
-0.00074356547
-0.00073294678
-0.000743047392
-0.000726692905
-0.000517993994
-0.000606175325
-0.000740689863
-0.000741283366
-0.000726215513
-0.000468483098
-0.000466600036
-0.000598774743
-0.00073832007
-0.000730593819
-0.000739453665
-0.000723041532
-0.000499785236
-0.000499413725
-0.000597845713
-0.000734929404
-0.000729836415
-0.000513191866
-0.000596874374
-0.000727682815
-0.00050199714
-0.000500958282
-0.000561096491
-0.000567676275
-0.000619337292
-0.000738896367
-0.00072673406
-0.00073809769
-0.000722246278
-0.000477859642
-0.000475811529
-0.000601748981
-0.000735602338
-0.000731413822
-0.000463580407
-0.000463949424
-0.000496835271
-0.000600347094
-0.000739744893
-0.000741429938
-0.00073355685
-0.000489648535
-0.000488697369
-0.000563931446
-0.000602502698
-0.000741564149
-0.00073298726
-0.000541538766
-0.000596744114
-0.000743432636
-0.000734410817
-0.000505163975
-0.000505333252
-0.000555903721
-0.000600616292
-0.000744564909
-0.000737469166
-0.000534693336
-0.000584871809
-0.000746359677
-0.000738522372
-0.000499659294
-0.000499138532
-0.000549410293
-0.000595743942
-0.000746993309
-0.000740819892
-0.000746923465
-0.000740495938
-0.000466085513
-0.000464798282
-0.000550133224
-0.000596058447
-0.000749466009
-0.000743443171
-0.000749560959
-0.000741155334
-0.000748257471
-0.000739847885
-0.000560926382
-0.000485339251
-0.000592312669
-0.000740753246
-0.000742335704
-0.00045019851
-0.000450060847
-0.000599523936
-0.000743006163
-0.000739276965
-0.000741207283
-0.000737307423
-0.000470921635
-0.000507166575
-0.000741630763
-0.000737591826
-0.000485426828
-0.000485247494
-0.000535323012
-0.000540359918
-0.000546874226
-0.000578831131
-0.000619675901
-0.000741953083
-0.000743943191
-0.000549981871
-0.000596308643
-0.000746160056
-0.000744818269
-0.000745933222
-0.000512536803
-0.000509066155
-0.000745053433
-0.000744417048
-0.000504658974
-0.000504895166
-0.000515792267
-0.00058071188
-0.000747729514
-0.000741597682
-0.000511938619
-0.000507333423
-0.000588904971
-0.000743244782
-0.000751414613
-0.000741939319
-0.000750156211
-0.000480444748
-0.000582936569
-0.000745299911
-0.000572930558
-0.00050550407
-0.000569988739
-0.000545570756
-0.000607845175
-0.000743799641
-0.00074464511
-0.00055314501
-0.000527781857
-0.00058664271
-0.00074490291
-0.000752297248
-0.00054365874
-0.000564981263
-0.000748620691
-0.000752131102
-0.000499024077
-0.000589913011
-0.00075048321
-0.000571689979
-0.0004964239
-0.000566338751
-0.000536557185
-0.000586816581
-0.000745808896
-0.000753961374
-0.000565844446
-0.000567378896
-0.000749654539
-0.000749685315
-0.000538704071
-0.000591464658
-0.000753089158
-0.000745932671
-0.000751358987
-0.000503810293
-0.000491605807
-0.00048546127
-0.000570707657
-0.000749035166
-0.000741753281
-0.000748331395
-0.000560454166
-0.000523916765
-0.000742922573
-0.00074244486
-0.000500771158
-0.000503583308
-0.000505129506
-0.000559915538
-0.000745733767
-0.000746050658
-0.000743246109
-0.000747000503
-0.000548370714
-0.000589063085
-0.000743541921
-0.000747281509
-0.000742800566
-0.000747883647
-0.000452036368
-0.000447127807
-0.000513643031
-0.000513801042
-0.000558509731
-0.000555194969
-0.00059085791
-0.000745277856
-0.000754987525
-0.00055192259
-0.000561824675
-0.000750305062
-0.00075538705
-0.000555996467
-0.000589150029
-0.000750803386
-0.000750817851
-0.000749769884
-0.000750657451
-0.000523443146
-0.000500285633
-0.000551586912
-0.000544072455
-0.000590975836
-0.000743515168
-0.000756105977
-0.000534558981
-0.000586716729
-0.000747481746
-0.000594661862
-0.000545893069
-0.000570752951
-0.000591812957
-0.00074758801
-0.000747628481
-0.000524949313
-0.000525494809
-0.00054823757
-0.000596100562
-0.000741606803
-0.000741811474
-0.000742210334
-0.000549635597
-0.000549893036
-0.000743727818
-0.000739501012
-0.00051320635
-0.000529342601
-0.000742935372
-0.000737799428
-0.000446255909
-0.000445245443
-0.00051413711
-0.000537737257
-0.000534491304
-0.000599991093
-0.00074244076
-0.000738259114
-0.000496489744
-0.000495631235
-0.000558897839
-0.000620341589
-0.000742296201
-0.000734688415
-0.000740800543
-0.000733937089
-0.000517362242
-0.000559291253
-0.000741095718
-0.000732454257
-0.000739070555
-0.000730342441
-0.000441220425
-0.000439462625
-0.000564588072
-0.000603724869
-0.000735439871
-0.000733237795
-0.000733791204
-0.000730422036
-0.000420412604
-0.000417444419
-0.000509921713
-0.000591932747
-0.000740788675
-0.000743685172
-0.000735682205
-0.000742245801
-0.000731117902
-0.000500995716
-0.000442667088
-0.00051620728
-0.000515374671
-0.000539700656
-0.000566903426
-0.000567537601
-0.000596679545
-0.000742622115
-0.000736550295
-0.000480095663
-0.000555308968
-0.000743132098
-0.000744925264
-0.000736842569
-0.00074362231
-0.000729150269
-0.000741128148
-0.000725940992
-0.000503171189
-0.000478742272
-0.000556796103
-0.000550030188
-0.000595912514
-0.000738292129
-0.000730861762
-0.000453750468
-0.000451869026
-0.000541891287
-0.000524277133
-0.000593316516
-0.000718173971
-0.000748110847
-0.000715934909
-0.000596412378
-0.000595329781
-0.000665531238
-0.000733407743
-0.000732175544
-0.000648637234
-0.000449865634
-0.000461327636
-0.000619278881
-0.000742501727
-0.000731379285
-0.000563009896
-0.000485759853
-0.000533311752
-0.000526048646
-0.000591737975
-0.000746107009
-0.000736648664
-0.00046829078
-0.000434510172
-0.000595162209
-0.000726137392
-0.000746396251
-0.000718143099
-0.000745137347
-0.000721748246
-0.000742347554
-0.00072938133
-0.000501546473
-0.000454307468
-0.000539415521
-0.000546637591
-0.000560817187
-0.000597174423
-0.000746020311
-0.000740401793
-0.000552659151
-0.000554602779
-0.000745054959
-0.000737260662
-0.000539479745
-0.000539286315
-0.000746967324
-0.0007474233
-0.000483406023
-0.000592534551
-0.00073874566
-0.000587881491
-0.00045525451
-0.000527370357
-0.000523510897
-0.000593689777
-0.000742889483
-0.000743181392
-0.000742999959
-0.000737934888
-0.000743606358
-0.000734877996
-0.000744226816
-0.000736379943
-0.000538963356
-0.000449401743
-0.000533620143
-0.000545157364
-0.000547973732
-0.00059459449
-0.000747882699
-0.000745759384
-0.000530659159
-0.000486205074
-0.000593349234
-0.0007410688
-0.000747422596
-0.000491059848
-0.000490603398
-0.000609526819
-0.000734663695
-0.000740880945
-0.000645485857
-0.00052338079
-0.000594147087
-0.000746173701
-0.00060716848
-0.000467582031
-0.000474913943
-0.000595162068
-0.000739693385
-0.000738801151
-0.000446413173
-0.000443229722
-0.00059857536
-0.000737564745
-0.000741479748
-0.000732907351
-0.000738493363
-0.000741458577
-0.000734725242
-0.000589659603
-0.000469740627
-0.000487585495
-0.000546101966
-0.000548919778
-0.000552736096
-0.000598843279
-0.000715146727
-0.000740622003
-0.00072750416
-0.000737837135
-0.000616736871
-0.000485141394
-0.000489168817
-0.000572284837
-0.000607517852
-0.000739752125
-0.000737028307
-0.000736365201
-0.000635211043
-0.000452104822
-0.000458059835
-0.000541720648
-0.000547461805
-0.000579627976
-0.000611942447
-0.0007397413
-0.000732253562
-0.000737897907
-0.000661440375
-0.000491331665
-0.000581418123
-0.000739335758
-0.000701509023
-0.000446864736
-0.000446066448
-0.000540006789
-0.000546468799
-0.000574682573
-0.000598057586
-0.00073545452
-0.00074099677
-0.000727304931
-0.000738553877
-0.000709366927
-0.000498138198
-0.000545953279
-0.000742182927
-0.000725290745
-0.000450761248
-0.000449912734
-0.000517910147
-0.000526838784
-0.00051525123
-0.000595629053
-0.00074382762
-0.000741977763
-0.000745169862
-0.000739498046
-0.000743869468
-0.000738345195
-0.000567473044
-0.000509622807
-0.000604117969
-0.000749413763
-0.000740834262
-0.000588507991
-0.000481079972
-0.000515963423
-0.000558676395
-0.000616684351
-0.000740462317
-0.000747821367
-0.000738311664
-0.000595179005
-0.000494599199
-0.000592360409
-0.000740184105
-0.000745485839
-0.00043457648
-0.000433627037
-0.000533713929
-0.000527474091
-0.000586834611
-0.000642474959
-0.000742327221
-0.000731473836
-0.000749001204
-0.000735081542
-0.000597079898
-0.000460628912
-0.000476231254
-0.000531390885
-0.000527855811
-0.000601632094
-0.000741957118
-0.000732590988
-0.000742325304
-0.000720566137
-0.000483861724
-0.000515493446
-0.000745134092
-0.000743529352
-0.000497363049
-0.000541315908
-0.0007449584
-0.000743640604
-0.000468066719
-0.000466176915
-0.000553432585
-0.000558245616
-0.000593878327
-0.000741613675
-0.000751161046
-0.000573803835
-0.000595042743
-0.000740950687
-0.000741805739
-0.00074721688
-0.000521144494
-0.000519468949
-0.000579440915
-0.000597213452
-0.000745370221
-0.000747147219
-0.000549409059
-0.000598295078
-0.000740557737
-0.000740867126
-0.000744075885
-0.000469762936
-0.000467116081
-0.000532177766
-0.000544119136
-0.000549352992
-0.000590191697
-0.000745134464
-0.000747104092
-0.000739685152
-0.000744462841
-0.000731020453
-0.000741478055
-0.000728429573
-0.000424754379
-0.000420962145
-0.000501972501
-0.000472127726
-0.000599056264
-0.000738669223
-0.000742920463
-0.000733057844
-0.000484615706
-0.000484035094
-0.000495050627
-0.000602375921
-0.000741628511
-0.000742879254
-0.000734102107
-0.000547115205
-0.000553675767
-0.00074269051
-0.00073585348
-0.000547780434
-0.00056753298
-0.000745766221
-0.000737519173
-0.000542446028
-0.000573484469
-0.000747782766
-0.000740324964
-0.000535590463
-0.000592080287
-0.000746641872
-0.000594940893
-0.000504171667
-0.000569674715
-0.000502173961
-0.000557486534
-0.000747666082
-0.000747583905
-0.000744990753
-0.00059962877
-0.000547584192
-0.000531547846
-0.000537423851
-0.000752206905
-0.000743054614
-0.000749296378
-0.000741967375
-0.00059514879
-0.000515343871
-0.000523481306
-0.000745742026
-0.000743814404
-0.000601853657
-0.000550761186
-0.000548078502
-0.000531148626
-0.000450574915
-0.000461386368
-0.000742233715
-0.000741568126
-0.000739125198
-0.000744910046
-0.000739555949
-0.000746574248
-0.000740206574
-0.00059911872
-0.000498743183
-0.000509601834
-0.000489297899
-0.000481842355
-0.000501546325
-0.000447670306
-0.000474060548
-0.00073997869
-0.000736953654
-0.000735388427
-0.000739552705
-0.000735831143
-0.000740912055
-0.000739229229
-0.00060305683
-0.000523525238
-0.000752375451
-0.000743832608
-0.000511377897
-0.000524860021
-0.000747675812
-0.000744572355
-0.000733729902
-0.000596431577
-0.000483643537
-0.000512606164
-0.000402982992
-0.000428686028
-0.000743285089
-0.000737598103
-0.000735294829
-0.000600207369
-0.000545882827
-0.000501630408
-0.000506123757
-0.00074639126
-0.000737832045
-0.000553319557
-0.000572802147
-0.000750225704
-0.000741554143
-0.000742211986
-0.000594938039
-0.000530108308
-0.00075743653
-0.000741125403
-0.000594483732
-0.000530973036
-0.000476461472
-0.000483335804
-0.000753734596
-0.000740354077
-0.000598674148
-0.000538101991
-0.00048668899
-0.000495921068
-0.000750337451
-0.000737160223
-0.000547899499
-0.000529548539
-0.000752229906
-0.00073163907
-0.000594112943
-0.000415393008
-0.00048217196
-0.000741961437
-0.000741593376
-0.000739494215
-0.000741245692
-0.000736783232
-0.000740518591
-0.000738764761
-0.000738281776
-0.000593662703
-0.000499220419
-0.00045533067
-0.000480850863
-0.000750264138
-0.000738059473
-0.000566434788
-0.000510152924
-0.000484665715
-0.000519947446
-0.000747319706
-0.000727525908
-0.000517983243
-0.000584666069
-0.000744124564
-0.000741372889
-0.00073204899
-0.000546127707
-0.000559068776
-0.000749760632
-0.000723806018
-0.000528281891
-0.000561939838
-0.000751280546
-0.000733227574
-0.000545965138
-0.000458270216
-0.000575108774
-0.00074039339
-0.000736774354
-0.000549807359
-0.00051200824
-0.000483200234
-0.000589601741
-0.000747016257
-0.000747709654
-0.000736832933
-0.000745424658
-0.000725948239
-0.000593672889
-0.000516611767
-0.000536366498
-0.000503078397
-0.000505528447
-0.000462643141
-0.00058652538
-0.000739360914
-0.000744331113
-0.000725802609
-0.000556569122
-0.000585330162
-0.00074489257
-0.000727611529
-0.000551127408
-0.000613606568
-0.0007441964
-0.000729631444
-0.00052230023
-0.000522459664
-0.000535144452
-0.000607935743
-0.000741575172
-0.000739335985
-0.000520335259
-0.000572927533
-0.000740827191
-0.00074137454
-0.000740223147
-0.000574134489
-0.000589294097
-0.000744627854
-0.000737196452
-0.000530271138
-0.000506364072
-0.000546769247
-0.000499177434
-0.000591522287
-0.00074676691
-0.000747030675
-0.000745836628
-0.00074808189
-0.000551787814
-0.000498786974
-0.000538130377
-0.000537369094
-0.000522727471
-0.000589923907
-0.000748241197
-0.000747065854
-0.000747752415
-0.000743321991
-0.000745673628
-0.000741661529
-0.000743381473
-0.000744078485
-0.000516747796
-0.000478842449
-0.000545401019
-0.00049202598
-0.000597655769
-0.000739905471
-0.000749089809
-0.000740073669
-0.000750349005
-0.000466496731
-0.000447022304
-0.000497153523
-0.000522486115
-0.000506106117
-0.000601297081
-0.000739973309
-0.000745530007
-0.000741868567
-0.000747469444
-0.000484277766
-0.000449039769
-0.000505856604
-0.000502671971
-0.000554611841
-0.00053086017
-0.000592770783
-0.00074296806
-0.000747585927
-0.000746015658
-0.00074695841
-0.000556474612
-0.000491231355
-0.000596389337
-0.000740999599
-0.000747365181
-0.000744012249
-0.000748584146
-0.000748923509
-0.000549603259
-0.000512179334
-0.000523205932
-0.000593667452
-0.000750492007
-0.000744936634
-0.000750920119
-0.000601962953
-0.000580521997
-0.000744492332
-0.000748511003
-0.000555993534
-0.000521718259
-0.000472885416
-0.000521761132
-0.000738996862
-0.000741777408
-0.000736564482
-0.000743758864
-0.000732802979
-0.000545683667
-0.000456770383
-0.000542955471
-0.000473995224
-0.000542803937
-0.000746364481
-0.000739960289
-0.000605793669
-0.000526118144
-0.000509659785
-0.000518565259
-0.000530665913
-0.000506298697
-0.000521084288
-0.000745046163
-0.000745602125
-0.000742432579
-0.00075000367
-0.000566393072
-0.000596780407
-0.00074704855
-0.000744741288
-0.000744745301
-0.000553799539
-0.000490050047
-0.000753210409
-0.000737434913
-0.000519225538
-0.000456397501
-0.000520847547
-0.000451693033
-0.000525725432
-0.000737784152
-0.000742292641
-0.000735647208
-0.00074406166
-0.00073351294
-0.000612740144
-0.000489329713
-0.000528927568
-0.000508095825
-0.000593700511
-0.000742159594
-0.000751311404
-0.000742950807
-0.000753739579
-0.000527294341
-0.000495419659
-0.000746534633
-0.000748174339
-0.000546109134
-0.000536786264
-0.000748359827
-0.000748435996
-0.000593426053
-0.000569326063
-0.000587737345
-0.00057491568
-0.000565279257
-0.000553374539
-0.000567585717
-0.000525344812
-0.000587827348
-0.000737725831
-0.000749973987
-0.000740882592
-0.000752103072
-0.000743447156
-0.000596703328
-0.000491809043
-0.000509301185
-0.000553979404
-0.000548157795
-0.000591708478
-0.000739619183
-0.000749019851
-0.00055149969
-0.000480224817
-0.000589752567
-0.000731481634
-0.000754831859
-0.00050379979
-0.000495871146
-0.000726708275
-0.000738834578
-0.000740689049
-0.000564916507
-0.000542468859
-0.000732746875
-0.000737365778
-0.000742450433
-0.000743355763
-0.000526910225
-0.000415242682
-0.000565421786
-0.000735935946
-0.000752057509
-0.000478410811
-0.000446738218
-0.000513943619
-0.000506105938
-0.000591329794
-0.000733895758
-0.000754316714
-0.00074097251
-0.000754483608
-0.000748745934
-0.000584207784
-0.000487856256
-0.000585798531
-0.000735853159
-0.000755468457
-0.000552499824
-0.000518214651
-0.000528189429
-0.000591485407
-0.000740149951
-0.000746795288
-0.000748209466
-0.00056898588
-0.000488955896
-0.000523994644
-0.000605031121
-0.000748677036
-0.00074592977
-0.000504472884
-0.000477594847
-0.000528362287
-0.000540754802
-0.000537214884
-0.000593214887
-0.000742979086
-0.000746222522
-0.000740407904
-0.000748892425
-0.000736188677
-0.000609535277
-0.000497744773
-0.000581474639
-0.000741801239
-0.00074753081
-0.000743965655
-0.000582275062
-0.00049799018
-0.000538378321
-0.000595562818
-0.000750524089
-0.000741075725
-0.000753505586
-0.00073834333
-0.000584962573
-0.00047020813
-0.00057100136
-0.000748276531
-0.000744350313
-0.000544612078
-0.000475803026
-0.00053649783
-0.000551524353
-0.000554756826
-0.000600459613
-0.000621005365
-0.000744917607
-0.000738770772
-0.000563730996
-0.00058973051
-0.000747902571
-0.000735296659
-0.000536405156
-0.000586366382
-0.000748629322
-0.000734254551
-0.000524594633
-0.000585936895
-0.000749776144
-0.000741343124
-0.000545044023
-0.000593633501
-0.000751525738
-0.000753164915
-0.000743882953
-0.000588203323
-0.000461420401
-0.000517640445
-0.000554966132
-0.000567588808
-0.000601904327
-0.00074319525
-0.000734192119
-0.000557562596
-0.000611536956
-0.000743432433
-0.000731161035
-0.000526178824
-0.000600605722
-0.000739469559
-0.000593844352
-0.000449948563
-0.000466273711
-0.000523209448
-0.000532415086
-0.000564981408
-0.000608055858
-0.000632593687
-0.000731068624
-0.000738647055
-0.000675796167
-0.000598411135
-0.000598075098
-0.000744498246
-0.000751210578
-0.000733018308
-0.000580425737
-0.000464991076
-0.000499250499
-0.000542024415
-0.000564085837
-0.000615721432
-0.000738282188
-0.000605459719
-0.000559988192
-0.000600953522
-0.000746137827
-0.000739559691
-0.000754616413
-0.000725977361
-0.000578617996
-0.000519162714
-0.000601869488
-0.000729884301
-0.000579159932
-0.000486542215
-0.000515678102
-0.00059631523
-0.000644488656
-0.000739537866
-0.00074238078
-0.000730193593
-0.000583017001
-0.000471003134
-0.000516427123
-0.000608704315
-0.000739347605
-0.000656771756
-0.000561889017
-0.000596670262
-0.000742961161
-0.000742704951
-0.000694608087
-0.000520429836
-0.000520953258
-0.000568723348
-0.000573676038
-0.000580604782
-0.000585728837
-0.000590971652
-0.000638697276
-0.000747372344
-0.000699958651
-0.000543255906
-0.000547816728
-0.000615432778
-0.000744695985
-0.000720224721
-0.000597066783
-0.000595034361
-0.000743987705
-0.000745833715
-0.000732900288
-0.000741992182
-0.000713979052
-0.00044910785
-0.000447680625
-0.000535135167
-0.000538802145
-0.000554089244
-0.000593092373
-0.0007424663
-0.000747661285
-0.000735078292
-0.00074410595
-0.00072483739
-0.000448738642
-0.00044644526
-0.00052296192
-0.000528075594
-0.000552043224
-0.000550202528
-0.000591530664
-0.000746256471
-0.000731886087
-0.000500906953
-0.000500549728
-0.000589881153
-0.000738860333
-0.000748671467
-0.000734912519
-0.000744874352
-0.000730522049
-0.000484295942
-0.000461052863
-0.000540464596
-0.000541634626
-0.000537119696
-0.000591347869
-0.000743954981
-0.00074596589
-0.000735773565
-0.000566327721
-0.000595302872
-0.000743267171
-0.000742940866
-0.000734117175
-0.000558410634
-0.000577076542
-0.000753365087
-0.000734222869
-0.000558895051
-0.000604819477
-0.000755315834
-0.000743209067
-0.000570803849
-0.000558664622
-0.000591592516
-0.000589193519
-0.000577803861
-0.000578377688
-0.000576633667
-0.000577108759
-0.000591781785
-0.000743224997
-0.000752073017
-0.000736284467
-0.000752825864
-0.000733683756
-0.00056177265
-0.000457064032
-0.00059141182
-0.000746807865
-0.000746208026
-0.000547354112
-0.000461417457
-0.000591560241
-0.000744505952
-0.000744669025
-0.000746626646
-0.000743096384
-0.000561256021
-0.000482306568
-0.000532002887
-0.000593192878
-0.000744579566
-0.000742643465
-0.000746886949
-0.000739330164
-0.000589970601
-0.000510364527
-0.000524877228
-0.000554992201
-0.000559469351
-0.000565586126
-0.000596334452
-0.000700546677
-0.000743535253
-0.000592263901
-0.000578933844
-0.00060624602
-0.000740121201
-0.000591863227
-0.000566073172
-0.000606690861
-0.000735282482
-0.000585939943
-0.000540218498
-0.000606038006
-0.000728202055
-0.000585938153
-0.000434696458
-0.000481210892
-0.000521018819
-0.000553061374
-0.000613894485
-0.000740788316
-0.000735436847
-0.000597697398
-0.000553029129
-0.000590863483
-0.000739428143
-0.000618923372
-0.000555824618
-0.000594893702
-0.000742942654
-0.000640758115
-0.000578853366
-0.000605179964
-0.000740532717
-0.00073968798
-0.000735179345
-0.000736787916
-0.000638463139
-0.000487754087
-0.000492815503
-0.000543253111
-0.000538152959
-0.000594001707
-0.000740194671
-0.000671867039
-0.000510247423
-0.000601880075
-0.00074450548
-0.000678023675
-0.000496217702
-0.000497135548
-0.00054984287
-0.000540236618
-0.000589338426
-0.000742925334
-0.000747680551
-0.000734922308
-0.000743771745
-0.00071513366
-0.000492325436
-0.000491476132
-0.000543567549
-0.000527188177
-0.000592422541
-0.000741541637
-0.000725109242
-0.000509471905
-0.000508080089
-0.000589681212
-0.000681149817
-0.000729724866
-0.00073093701
-0.000717712198
-0.000533711494
-0.000583496844
-0.000742498695
-0.000721703769
-0.000521872548
-0.000574424689
-0.000744593582
-0.000724251318
-0.00051030156
-0.000563791665
-0.000743704725
-0.000725885371
-0.000491810171
-0.000490224232
-0.000553812916
-0.000529847434
-0.000596593089
-0.000738702066
-0.000737925995
-0.000499690585
-0.000479743818
-0.000602614183
-0.000740903342
-0.000738019873
-0.000740831439
-0.00073305649
-0.000740182128
-0.000730318264
-0.000490808955
-0.000509600833
-0.000741796211
-0.000735166832
-0.000523935456
-0.000602526588
-0.000743257089
-0.000601316136
-0.000504149381
-0.000546554211
-0.000517755962
-0.000512185858
-0.000571824089
-0.000747149538
-0.000741141577
-0.000744750223
-0.000737499927
-0.000548725709
-0.000553315289
-0.000745386101
-0.000740370103
-0.000530354287
-0.000535211044
-0.00074729538
-0.000738581628
-0.000577009211
-0.000583252285
-0.000748414765
-0.000740465028
-0.000570423536
-0.000539035441
-0.000566480595
-0.000538376964
-0.000556841102
-0.000528886796
-0.000560730937
-0.000743409417
-0.000747040804
-0.000743231499
-0.000746658814
-0.000527890758
-0.00052616294
-0.000744613388
-0.00074494992
-0.000537934289
-0.00053894838
-0.00074664449
-0.000747180317
-0.000530604951
-0.000540657362
-0.000748685704
-0.000750040718
-0.000523715723
-0.000573184422
-0.000749137421
-0.000748664931
-0.000747186338
-0.000568095334
-0.000492843216
-0.000538255951
-0.000495752818
-0.000532652225
-0.000492728665
-0.000540481015
-0.000748248758
-0.000751807135
-0.000747369031
-0.000752657721
-0.000746298699
-0.000586175154
-0.000534441095
-0.000588514557
-0.000748932383
-0.0007528579
-0.000564327337
-0.000505881747
-0.000495503526
-0.000483381699
-0.000744792889
-0.000746336628
-0.000516667874
-0.000480179256
-0.000746268399
-0.000740082848
-0.000515846146
-0.000492078659
-0.000488055446
-0.000490349611
-0.00074363651
-0.000738321094
-0.000744431975
-0.000740931817
-0.000744282927
-0.000742971447
-0.00074396348
-0.000743647097
-0.000574757561
-0.000491834134
-0.000488712364
-0.000486134075
-0.000743775707
-0.000737655484
-0.000569742184
-0.000500434864
-0.000752665149
-0.000735335157
-0.00059845614
-0.000431052253
-0.000525485355
-0.000739103201
-0.00074541637
-0.000739973466
-0.000593107817
-0.000502145314
-0.000542673667
-0.000526021031
-0.000509536058
-0.00051920314
-0.000745499833
-0.000737503392
-0.000592814164
-0.000494232883
-0.000534430107
-0.000743341424
-0.000743764385
-0.000742864277
-0.00059955932
-0.000562844192
-0.000594651127
-0.000747544311
-0.000750999145
-0.000748731885
-0.000748476508
-0.000596382272
-0.000496122883
-0.000528840611
-0.000487720904
-0.000490641417
-0.000747200827
-0.000745116603
-0.000598568567
-0.000530908567
-0.000558264907
-0.000554343723
-0.000540774116
-0.000564938732
-0.000750469015
-0.000744629413
-0.000589386057
-0.000586538519
-0.000593519141
-0.000748026075
-0.000748791715
-0.000599878098
-0.000502893955
-0.000468152936
-0.000505649723
-0.000749688503
-0.000742952458
-0.000744373586
-0.000743657607
-0.000737680544
-0.000547767102
-0.000479846515
-0.000484261841
-0.000515073576
-0.000751653509
-0.000740843753
-0.000749588701
-0.000742580998
-0.000597883559
-0.000522902689
-0.000606401481
-0.00074515018
-0.00063458775
-0.000555273827
-0.000593662822
-0.000751350901
-0.000748704756
-0.000592385976
-0.000477402709
-0.000516605369
-0.000750648578
-0.00074984985
-0.000585657626
-0.000465932592
-0.000528928376
-0.000746340937
-0.000747970126