/*--------------------------------*- C++ -*----------------------------------*\
| =========                 |                                                 |
| \\      /  F ield         | OpenFOAM: The Open Source CFD Toolbox           |
|  \\    /   O peration     | Version:  2306                                  |
|   \\  /    A nd           | Website:  www.openfoam.com                      |
|    \\/     M anipulation  |                                                 |
\*---------------------------------------------------------------------------*/
FoamFile
{
    version     2.0;
    format      ascii;
    arch        "LSB;label=32;scalar=64";
    class       volScalarField;
    location    "0.00022";
    object      prefDPV_H2O;
}
// * * * * * * * * * * * * * * * * * * * * * * * * * * * * * * * * * * * * * //

dimensions      [1 -1 -1 0 0 0 0];

internalField   nonuniform List<scalar> 
3810
(
-3.63181178e-07
-3.66631936e-07
-3.84871212e-07
-3.64011285e-07
-3.62576928e-07
-3.64434811e-07
-3.64773792e-07
-3.65067445e-07
-3.72428284e-07
-3.84108423e-07
-3.84026033e-07
-3.84119284e-07
-3.84439694e-07
-3.84146829e-07
-3.84536629e-07
-3.64563559e-07
-3.62810615e-07
-3.69676271e-07
-3.85134049e-07
-3.84085727e-07
-3.85043546e-07
-3.62569539e-07
-3.62036997e-07
-3.85280098e-07
-3.84836685e-07
-3.85228786e-07
-3.84752334e-07
-3.85028363e-07
-3.63464123e-07
-3.63175182e-07
-3.64134297e-07
-3.65059673e-07
-3.85564229e-07
-3.84197709e-07
-3.84497207e-07
-3.842956e-07
-3.67505271e-07
-3.64122956e-07
-3.66490372e-07
-3.84362346e-07
-3.84518713e-07
-3.63296338e-07
-3.82876882e-07
-3.84352819e-07
-3.64639743e-07
-3.65165387e-07
-3.84207224e-07
-3.84118932e-07
-3.6401085e-07
-3.68075446e-07
-3.84515752e-07
-3.64422816e-07
-3.64187531e-07
-3.64259226e-07
-3.66915092e-07
-3.84430748e-07
-3.83833995e-07
-3.84735938e-07
-3.64131063e-07
-3.68185843e-07
-3.84923709e-07
-3.65138703e-07
-3.65313214e-07
-3.83870791e-07
-3.84287797e-07
-3.83990733e-07
-3.84855164e-07
-3.64305017e-07
-3.64288289e-07
-3.64584452e-07
-3.66629756e-07
-3.84251714e-07
-3.85485767e-07
-3.63089517e-07
-3.6321481e-07
-3.64708829e-07
-3.64246731e-07
-3.68108716e-07
-3.83949658e-07
-3.83936403e-07
-3.83761688e-07
-3.84884861e-07
-3.65769309e-07
-3.64598386e-07
-3.65507201e-07
-3.80488234e-07
-3.84723399e-07
-3.84390159e-07
-3.86420816e-07
-3.64524484e-07
-3.65490139e-07
-3.84318605e-07
-3.86220304e-07
-3.63689114e-07
-3.63784061e-07
-3.74299367e-07
-3.84424765e-07
-3.84529149e-07
-3.84547371e-07
-3.85976559e-07
-3.62664482e-07
-3.62680109e-07
-3.69039107e-07
-3.84708309e-07
-3.83892124e-07
-3.87149548e-07
-3.64734452e-07
-3.65590296e-07
-3.84312267e-07
-3.86883414e-07
-3.64128204e-07
-3.64260168e-07
-3.6526699e-07
-3.68768855e-07
-3.84215651e-07
-3.86461091e-07
-3.64316125e-07
-3.64517404e-07
-3.71042258e-07
-3.84502982e-07
-3.84888945e-07
-3.84613738e-07
-3.84855651e-07
-3.63818202e-07
-3.66436321e-07
-3.84710381e-07
-3.84911037e-07
-3.8499573e-07
-3.80428367e-07
-3.62639242e-07
-3.62724082e-07
-3.64449714e-07
-3.68967967e-07
-3.84605978e-07
-3.84864613e-07
-3.84879293e-07
-3.83373019e-07
-3.6316078e-07
-3.68590933e-07
-3.85341808e-07
-3.65266495e-07
-3.6637915e-07
-3.84320538e-07
-3.86431938e-07
-3.63868534e-07
-3.6401944e-07
-3.65339409e-07
-3.68799252e-07
-3.84168463e-07
-3.86941457e-07
-3.64553388e-07
-3.64741646e-07
-3.65727842e-07
-3.70402644e-07
-3.8403153e-07
-3.86833744e-07
-3.64764819e-07
-3.64958788e-07
-3.73121961e-07
-3.84245316e-07
-3.86759559e-07
-3.65217965e-07
-3.68920404e-07
-3.84359314e-07
-3.84998305e-07
-3.846332e-07
-3.83671206e-07
-3.63203318e-07
-3.6331662e-07
-3.6515839e-07
-3.72122059e-07
-3.84244559e-07
-3.84329906e-07
-3.84511585e-07
-3.8514194e-07
-3.84696566e-07
-3.81258931e-07
-3.63973823e-07
-3.64101976e-07
-3.65817536e-07
-3.69842442e-07
-3.84123319e-07
-3.86782145e-07
-3.64919075e-07
-3.66994078e-07
-3.84467142e-07
-3.87136395e-07
-3.62823265e-07
-3.6302396e-07
-3.69658922e-07
-3.84815522e-07
-3.83928906e-07
-3.86211693e-07
-3.64531623e-07
-3.66465958e-07
-3.84854354e-07
-3.84308656e-07
-3.873399e-07
-3.64061377e-07
-3.68808438e-07
-3.86589962e-07
-3.63928677e-07
-3.64071179e-07
-3.65552499e-07
-3.65467017e-07
-3.6838575e-07
-3.86381852e-07
-3.8365653e-07
-3.86839582e-07
-3.65525686e-07
-3.65709337e-07
-3.74564769e-07
-3.84309045e-07
-3.86448826e-07
-3.63747954e-07
-3.63880544e-07
-3.72866611e-07
-3.84925117e-07
-3.83982087e-07
-3.87110139e-07
-3.64367395e-07
-3.6960437e-07
-3.86396666e-07
-3.63421211e-07
-3.63530878e-07
-3.74664234e-07
-3.8513147e-07
-3.84056198e-07
-3.87099936e-07
-3.64584828e-07
-3.69727673e-07
-3.86085044e-07
-3.64069049e-07
-3.64107263e-07
-3.72956938e-07
-3.8459004e-07
-3.86396423e-07
-3.63727145e-07
-3.63756139e-07
-3.66185139e-07
-3.72442496e-07
-3.84393486e-07
-3.83698619e-07
-3.86377369e-07
-3.65416601e-07
-3.68767675e-07
-3.83964522e-07
-3.83890336e-07
-3.84013382e-07
-3.84435005e-07
-3.74087038e-07
-3.6531499e-07
-3.70102117e-07
-3.84391402e-07
-3.84012795e-07
-3.86319556e-07
-3.63177683e-07
-3.63213707e-07
-3.64917555e-07
-3.65013954e-07
-3.65451168e-07
-3.65783613e-07
-3.66306734e-07
-3.75524577e-07
-3.83816455e-07
-3.85707109e-07
-3.64529992e-07
-3.64552978e-07
-3.66316717e-07
-3.67212126e-07
-3.79276535e-07
-3.83324821e-07
-3.85818624e-07
-3.68788202e-07
-3.75870286e-07
-3.83959241e-07
-3.83811965e-07
-3.85126528e-07
-3.6516459e-07
-3.64561491e-07
-3.65781583e-07
-3.65819866e-07
-3.73068339e-07
-3.84013133e-07
-3.85903155e-07
-3.64286184e-07
-3.64374079e-07
-3.73151684e-07
-3.84375454e-07
-3.86125745e-07
-3.64151615e-07
-3.6420264e-07
-3.721663e-07
-3.84443842e-07
-3.86136725e-07
-3.63924995e-07
-3.6400818e-07
-3.70971495e-07
-3.84501474e-07
-3.86546032e-07
-3.63725099e-07
-3.63822331e-07
-3.74832088e-07
-3.84431974e-07
-3.8442033e-07
-3.84524986e-07
-3.85484511e-07
-3.84558993e-07
-3.86900149e-07
-3.63718836e-07
-3.63825654e-07
-3.66046432e-07
-3.69613001e-07
-3.83913237e-07
-3.86217106e-07
-3.65385503e-07
-3.66844368e-07
-3.84205235e-07
-3.8650234e-07
-3.63916756e-07
-3.6852275e-07
-3.8656005e-07
-3.63353548e-07
-3.63412541e-07
-3.64787831e-07
-3.64881692e-07
-3.65726736e-07
-3.659449e-07
-3.74795271e-07
-3.83943031e-07
-3.83828481e-07
-3.85001184e-07
-3.84013327e-07
-3.86940367e-07
-3.64752634e-07
-3.67047593e-07
-3.84441286e-07
-3.84003394e-07
-3.86778542e-07
-3.63646941e-07
-3.63720075e-07
-3.72818496e-07
-3.8434507e-07
-3.84714088e-07
-3.84302884e-07
-3.86644511e-07
-3.64369197e-07
-3.64535433e-07
-3.72394153e-07
-3.84314393e-07
-3.86071601e-07
-3.64776429e-07
-3.72015683e-07
-3.86000314e-07
-3.64441718e-07
-3.64504035e-07
-3.65794249e-07
-3.65907382e-07
-3.77320305e-07
-3.84022792e-07
-3.84885554e-07
-3.84240939e-07
-3.86419383e-07
-3.63916599e-07
-3.64061385e-07
-3.68573859e-07
-3.84550889e-07
-3.86327918e-07
-3.63603563e-07
-3.63648844e-07
-3.64339682e-07
-3.68013193e-07
-3.84200294e-07
-3.83888277e-07
-3.86225997e-07
-3.64151045e-07
-3.64232529e-07
-3.65841735e-07
-3.68951244e-07
-3.83920017e-07
-3.85707078e-07
-3.65292008e-07
-3.6665257e-07
-3.84043388e-07
-3.85738926e-07
-3.64451066e-07
-3.64573667e-07
-3.65608074e-07
-3.68638397e-07
-3.83875674e-07
-3.85433346e-07
-3.65088156e-07
-3.66327562e-07
-3.83994466e-07
-3.8548951e-07
-3.64261741e-07
-3.64368262e-07
-3.65386782e-07
-3.72561605e-07
-3.83941843e-07
-3.84502917e-07
-3.84137978e-07
-3.85730438e-07
-3.63471187e-07
-3.63552421e-07
-3.6536577e-07
-3.73097697e-07
-3.83587036e-07
-3.83768936e-07
-3.83572733e-07
-3.842272e-07
-3.83550889e-07
-3.84865452e-07
-3.6564131e-07
-3.64104614e-07
-3.68340784e-07
-3.84413572e-07
-3.84632793e-07
-3.63224469e-07
-3.63242263e-07
-3.66602386e-07
-3.84461266e-07
-3.84380679e-07
-3.84432109e-07
-3.85295048e-07
-3.63697271e-07
-3.64560957e-07
-3.84268417e-07
-3.84881427e-07
-3.64014321e-07
-3.64069919e-07
-3.65149922e-07
-3.65276237e-07
-3.65421723e-07
-3.66122339e-07
-3.7763263e-07
-3.83684426e-07
-3.84242465e-07
-3.65459126e-07
-3.68034641e-07
-3.84066092e-07
-3.83652847e-07
-3.84424616e-07
-3.64574687e-07
-3.6447731e-07
-3.84009644e-07
-3.84469844e-07
-3.64394823e-07
-3.64428205e-07
-3.64663434e-07
-3.66161972e-07
-3.83958456e-07
-3.84009923e-07
-3.6448703e-07
-3.64544473e-07
-3.66240152e-07
-3.84057654e-07
-3.83449181e-07
-3.84213528e-07
-3.83680083e-07
-3.63905834e-07
-3.66118998e-07
-3.84302097e-07
-3.65932012e-07
-3.64461058e-07
-3.65888435e-07
-3.65358043e-07
-3.75926931e-07
-3.83734861e-07
-3.83978308e-07
-3.65455439e-07
-3.64947133e-07
-3.70265254e-07
-3.83797612e-07
-3.83498806e-07
-3.65301801e-07
-3.65624402e-07
-3.83818366e-07
-3.83523169e-07
-3.64223087e-07
-3.66773324e-07
-3.84177913e-07
-3.65791739e-07
-3.64171352e-07
-3.65655644e-07
-3.65099106e-07
-3.72177083e-07
-3.83693587e-07
-3.83607559e-07
-3.65782404e-07
-3.65689765e-07
-3.83616101e-07
-3.83666213e-07
-3.65107546e-07
-3.66329005e-07
-3.83927344e-07
-3.83733909e-07
-3.84154179e-07
-3.64384407e-07
-3.64037848e-07
-3.63969834e-07
-3.65893086e-07
-3.84195788e-07
-3.8369278e-07
-3.84208058e-07
-3.6573217e-07
-3.64831901e-07
-3.83934619e-07
-3.84282866e-07
-3.6433573e-07
-3.64393806e-07
-3.64444903e-07
-3.65655842e-07
-3.83899232e-07
-3.83701494e-07
-3.83919309e-07
-3.83739187e-07
-3.65458384e-07
-3.6631006e-07
-3.83964389e-07
-3.83833887e-07
-3.84243467e-07
-3.84199035e-07
-3.63239665e-07
-3.63072288e-07
-3.64619796e-07
-3.64612219e-07
-3.65606536e-07
-3.6555822e-07
-3.72551972e-07
-3.83685455e-07
-3.8354151e-07
-3.65443064e-07
-3.65567998e-07
-3.83596697e-07
-3.83450937e-07
-3.65489702e-07
-3.6824711e-07
-3.83620585e-07
-3.8362526e-07
-3.8372115e-07
-3.83972559e-07
-3.64736116e-07
-3.64284714e-07
-3.65375115e-07
-3.6530975e-07
-3.73079199e-07
-3.83827738e-07
-3.8357975e-07
-3.65084764e-07
-3.70270702e-07
-3.83963762e-07
-3.67054941e-07
-3.65332215e-07
-3.65862059e-07
-3.69357847e-07
-3.83717951e-07
-3.84023164e-07
-3.6483614e-07
-3.64881758e-07
-3.65412697e-07
-3.72886041e-07
-3.84061133e-07
-3.83635257e-07
-3.84405061e-07
-3.65468581e-07
-3.65507515e-07
-3.83912938e-07
-3.84658606e-07
-3.64620842e-07
-3.65061498e-07
-3.84256823e-07
-3.84968571e-07
-3.63130067e-07
-3.63173398e-07
-3.64692147e-07
-3.65234311e-07
-3.65162514e-07
-3.68475612e-07
-3.8406756e-07
-3.84574751e-07
-3.64232558e-07
-3.64357136e-07
-3.65641038e-07
-3.77544916e-07
-3.83866482e-07
-3.84754097e-07
-3.84006218e-07
-3.85485772e-07
-3.64765748e-07
-3.65816801e-07
-3.84312234e-07
-3.84926565e-07
-3.84498264e-07
-3.85986194e-07
-3.6308958e-07
-3.6317898e-07
-3.65897006e-07
-3.74002358e-07
-3.84224577e-07
-3.84843617e-07
-3.84563734e-07
-3.86308736e-07
-3.62726815e-07
-3.62596707e-07
-3.64718599e-07
-3.66424789e-07
-3.83857976e-07
-3.83769106e-07
-3.84865087e-07
-3.83920581e-07
-3.85883128e-07
-3.6438086e-07
-3.63245203e-07
-3.64676356e-07
-3.64797082e-07
-3.6520269e-07
-3.65916946e-07
-3.658567e-07
-3.72342312e-07
-3.8409491e-07
-3.86288108e-07
-3.6388756e-07
-3.65544042e-07
-3.84068194e-07
-3.8404929e-07
-3.84646872e-07
-3.84166239e-07
-3.85259111e-07
-3.84139723e-07
-3.86251706e-07
-3.64468977e-07
-3.64079305e-07
-3.6563294e-07
-3.6558833e-07
-3.71754707e-07
-3.8435361e-07
-3.86766149e-07
-3.63371471e-07
-3.6351227e-07
-3.65303649e-07
-3.65209475e-07
-3.67412388e-07
-3.86032518e-07
-3.83374013e-07
-3.85765209e-07
-3.68645302e-07
-3.66697649e-07
-3.8268018e-07
-3.84706393e-07
-3.84914015e-07
-3.80928322e-07
-3.63291985e-07
-3.63477578e-07
-3.77291247e-07
-3.84017983e-07
-3.8540849e-07
-3.6575185e-07
-3.64143656e-07
-3.64996265e-07
-3.64959189e-07
-3.69352401e-07
-3.84216328e-07
-3.85477242e-07
-3.63613347e-07
-3.63225308e-07
-3.66387255e-07
-3.85571973e-07
-3.83828335e-07
-3.85399037e-07
-3.8409847e-07
-3.85502358e-07
-3.84157561e-07
-3.86089335e-07
-3.64420751e-07
-3.6353369e-07
-3.65226062e-07
-3.65486764e-07
-3.65660481e-07
-3.72736008e-07
-3.83728761e-07
-3.84740315e-07
-3.6560278e-07
-3.65594473e-07
-3.84996652e-07
-3.84906836e-07
-3.65361392e-07
-3.65244917e-07
-3.84555419e-07
-3.85571094e-07
-3.64052156e-07
-3.6790729e-07
-3.85002512e-07
-3.68543327e-07
-3.63452942e-07
-3.64802225e-07
-3.64977539e-07
-3.67609268e-07
-3.84051954e-07
-3.83906591e-07
-3.84361638e-07
-3.8451372e-07
-3.84356394e-07
-3.85073863e-07
-3.84104129e-07
-3.85549759e-07
-3.65202056e-07
-3.63376687e-07
-3.65047707e-07
-3.65442505e-07
-3.65363569e-07
-3.70751034e-07
-3.838316e-07
-3.84560465e-07
-3.65002805e-07
-3.64085439e-07
-3.70572439e-07
-3.84334245e-07
-3.85211726e-07
-3.64186027e-07
-3.64258934e-07
-3.75926815e-07
-3.84377988e-07
-3.84099065e-07
-3.80630565e-07
-3.64861315e-07
-3.67725713e-07
-3.84506401e-07
-3.76147231e-07
-3.63554273e-07
-3.63775928e-07
-3.71349794e-07
-3.84546992e-07
-3.85805491e-07
-3.63217866e-07
-3.63356001e-07
-3.67947704e-07
-3.84461763e-07
-3.83990686e-07
-3.8491834e-07
-3.84485113e-07
-3.84587756e-07
-3.84986147e-07
-3.72767817e-07
-3.63760885e-07
-3.64039823e-07
-3.65504483e-07
-3.65478713e-07
-3.65790141e-07
-3.67462416e-07
-3.86404128e-07
-3.84040032e-07
-3.85333396e-07
-3.84563206e-07
-3.7742979e-07
-3.64045073e-07
-3.64183088e-07
-3.66001016e-07
-3.75163781e-07
-3.84251516e-07
-3.84638965e-07
-3.84749199e-07
-3.79576003e-07
-3.63353574e-07
-3.63537926e-07
-3.65360082e-07
-3.65549731e-07
-3.66170141e-07
-3.75955341e-07
-3.84166994e-07
-3.84885258e-07
-3.84515772e-07
-3.82154269e-07
-3.6420892e-07
-3.6630117e-07
-3.84581336e-07
-3.85733659e-07
-3.6323908e-07
-3.63370563e-07
-3.65314473e-07
-3.65473634e-07
-3.66084063e-07
-3.72971837e-07
-3.83936833e-07
-3.8379159e-07
-3.85031546e-07
-3.8410553e-07
-3.86382177e-07
-3.64347679e-07
-3.65535598e-07
-3.84537539e-07
-3.85829739e-07
-3.63398812e-07
-3.63407555e-07
-3.64861232e-07
-3.65017635e-07
-3.6476398e-07
-3.69013792e-07
-3.8424482e-07
-3.83937643e-07
-3.84200428e-07
-3.84485997e-07
-3.83954037e-07
-3.85194146e-07
-3.65889468e-07
-3.64544848e-07
-3.74999906e-07
-3.83620996e-07
-3.84537279e-07
-3.67838818e-07
-3.63917306e-07
-3.64571892e-07
-3.65672249e-07
-3.77268982e-07
-3.84025443e-07
-3.83838064e-07
-3.84448193e-07
-3.73880856e-07
-3.6430614e-07
-3.66350211e-07
-3.84500475e-07
-3.85053622e-07
-3.62938312e-07
-3.62973665e-07
-3.65170903e-07
-3.65180572e-07
-3.66344718e-07
-3.80332001e-07
-3.83930618e-07
-3.84581678e-07
-3.83986699e-07
-3.84652387e-07
-3.74443032e-07
-3.63517695e-07
-3.63735164e-07
-3.65105509e-07
-3.64970667e-07
-3.7399942e-07
-3.84180786e-07
-3.85064241e-07
-3.84289826e-07
-3.87177631e-07
-3.63943622e-07
-3.64860453e-07
-3.84165993e-07
-3.85166538e-07
-3.64241142e-07
-3.65370255e-07
-3.84222019e-07
-3.85086945e-07
-3.6359673e-07
-3.63694875e-07
-3.65546061e-07
-3.65731719e-07
-3.72001272e-07
-3.83775387e-07
-3.84511713e-07
-3.66030585e-07
-3.70085296e-07
-3.84066717e-07
-3.83704946e-07
-3.84945908e-07
-3.64824132e-07
-3.64843446e-07
-3.66135347e-07
-3.69640777e-07
-3.83704703e-07
-3.84860732e-07
-3.65447688e-07
-3.68867044e-07
-3.84412974e-07
-3.83884777e-07
-3.85481743e-07
-3.63680997e-07
-3.63638233e-07
-3.65055219e-07
-3.65301744e-07
-3.65417027e-07
-3.70243409e-07
-3.83682271e-07
-3.83625882e-07
-3.84282013e-07
-3.84020236e-07
-3.85153819e-07
-3.84343481e-07
-3.86359367e-07
-3.62657616e-07
-3.62761704e-07
-3.64349708e-07
-3.63818969e-07
-3.67035865e-07
-3.84220454e-07
-3.83858267e-07
-3.85783365e-07
-3.64010742e-07
-3.64062581e-07
-3.64268414e-07
-3.66749565e-07
-3.84308501e-07
-3.83718898e-07
-3.85617413e-07
-3.65413755e-07
-3.65612825e-07
-3.83840043e-07
-3.85142185e-07
-3.65399702e-07
-3.65902939e-07
-3.83782724e-07
-3.84815497e-07
-3.65236104e-07
-3.66003053e-07
-3.83774061e-07
-3.84433621e-07
-3.65076195e-07
-3.66365645e-07
-3.84185951e-07
-3.67579109e-07
-3.64385252e-07
-3.65821999e-07
-3.64335045e-07
-3.655173e-07
-3.83974099e-07
-3.83485178e-07
-3.84010563e-07
-3.6666556e-07
-3.65412026e-07
-3.64971767e-07
-3.65157535e-07
-3.83962533e-07
-3.83948389e-07
-3.83719966e-07
-3.8403408e-07
-3.67580133e-07
-3.64712591e-07
-3.64790649e-07
-3.83912752e-07
-3.83937248e-07
-3.67763795e-07
-3.6552443e-07
-3.65499265e-07
-3.65087828e-07
-3.63339263e-07
-3.63490314e-07
-3.85083433e-07
-3.84290375e-07
-3.84946653e-07
-3.84037821e-07
-3.84473688e-07
-3.83692331e-07
-3.84142359e-07
-3.6691926e-07
-3.64326475e-07
-3.64523497e-07
-3.64117896e-07
-3.63980806e-07
-3.64434706e-07
-3.63284829e-07
-3.63829843e-07
-3.85074306e-07
-3.84223911e-07
-3.84931902e-07
-3.839693e-07
-3.84522748e-07
-3.83687763e-07
-3.84211076e-07
-3.67042945e-07
-3.64867516e-07
-3.84294713e-07
-3.84081432e-07
-3.64621225e-07
-3.64840139e-07
-3.84956389e-07
-3.8362274e-07
-3.84906424e-07
-3.68513197e-07
-3.64192157e-07
-3.64636389e-07
-3.6233318e-07
-3.62769575e-07
-3.85021119e-07
-3.84058667e-07
-3.84662039e-07
-3.69861368e-07
-3.65519212e-07
-3.64451592e-07
-3.64548229e-07
-3.84365453e-07
-3.84176741e-07
-3.65578281e-07
-3.66023219e-07
-3.84392833e-07
-3.83592064e-07
-3.84420631e-07
-3.66452071e-07
-3.65041662e-07
-3.83608738e-07
-3.84112909e-07
-3.67425972e-07
-3.65067364e-07
-3.63712278e-07
-3.63943378e-07
-3.83982023e-07
-3.84288893e-07
-3.67339524e-07
-3.65262439e-07
-3.64001428e-07
-3.64264805e-07
-3.84141783e-07
-3.844426e-07
-3.65369819e-07
-3.65115571e-07
-3.83623364e-07
-3.84735611e-07
-3.68373723e-07
-3.62623465e-07
-3.63867914e-07
-3.850662e-07
-3.84473655e-07
-3.85151537e-07
-3.84470871e-07
-3.84797046e-07
-3.84382519e-07
-3.84179799e-07
-3.84450812e-07
-3.72044743e-07
-3.64326701e-07
-3.6322847e-07
-3.6383619e-07
-3.83950848e-07
-3.84786496e-07
-3.65822971e-07
-3.64634801e-07
-3.63939351e-07
-3.64801641e-07
-3.84127724e-07
-3.8549863e-07
-3.64702221e-07
-3.66269159e-07
-3.8437306e-07
-3.83800843e-07
-3.85490318e-07
-3.65363872e-07
-3.65723375e-07
-3.83779126e-07
-3.85892241e-07
-3.64825498e-07
-3.65796191e-07
-3.83634987e-07
-3.85324511e-07
-3.6530477e-07
-3.63482853e-07
-3.65901928e-07
-3.84107872e-07
-3.85100575e-07
-3.6557221e-07
-3.64635868e-07
-3.63987538e-07
-3.66236566e-07
-3.84194535e-07
-3.83841071e-07
-3.84787611e-07
-3.83743358e-07
-3.85528644e-07
-3.69135852e-07
-3.6491508e-07
-3.65156687e-07
-3.6452661e-07
-3.64434482e-07
-3.63581938e-07
-3.66211539e-07
-3.84249593e-07
-3.83827566e-07
-3.86635226e-07
-3.65622332e-07
-3.66483117e-07
-3.83842257e-07
-3.86241903e-07
-3.65454391e-07
-3.67090799e-07
-3.83879179e-07
-3.85484251e-07
-3.64866969e-07
-3.64984244e-07
-3.65174772e-07
-3.67209416e-07
-3.8410401e-07
-3.8572648e-07
-3.64844074e-07
-3.66061267e-07
-3.84392534e-07
-3.83742377e-07
-3.85773894e-07
-3.66012345e-07
-3.66536887e-07
-3.83722717e-07
-3.84780571e-07
-3.64981552e-07
-3.64602761e-07
-3.6530643e-07
-3.64350437e-07
-3.68027559e-07
-3.84032652e-07
-3.84046622e-07
-3.83891441e-07
-3.84593805e-07
-3.65481041e-07
-3.64319254e-07
-3.65148894e-07
-3.65128053e-07
-3.64776652e-07
-3.69477679e-07
-3.83889779e-07
-3.83604255e-07
-3.83929523e-07
-3.84045714e-07
-3.83984109e-07
-3.84437117e-07
-3.84017298e-07
-3.84553417e-07
-3.6467058e-07
-3.63945548e-07
-3.65305419e-07
-3.64246461e-07
-3.66989304e-07
-3.84442883e-07
-3.83947654e-07
-3.84430912e-07
-3.84327267e-07
-3.63611881e-07
-3.63106103e-07
-3.64341406e-07
-3.64837578e-07
-3.64563863e-07
-3.66644322e-07
-3.84469851e-07
-3.83979277e-07
-3.84345709e-07
-3.84309763e-07
-3.63928511e-07
-3.63189737e-07
-3.64435338e-07
-3.64423226e-07
-3.6553983e-07
-3.65063752e-07
-3.69110098e-07
-3.84101428e-07
-3.8367865e-07
-3.83869951e-07
-3.84006209e-07
-3.65504869e-07
-3.64191447e-07
-3.67065135e-07
-3.84546879e-07
-3.83472034e-07
-3.84370023e-07
-3.83611724e-07
-3.84110069e-07
-3.6535481e-07
-3.64536476e-07
-3.6477745e-07
-3.6866217e-07
-3.83940881e-07
-3.83309218e-07
-3.83696376e-07
-3.67287546e-07
-3.66080155e-07
-3.83940993e-07
-3.83650791e-07
-3.65698797e-07
-3.6478583e-07
-3.63902638e-07
-3.64817447e-07
-3.85158792e-07
-3.83977075e-07
-3.85254148e-07
-3.83892651e-07
-3.84975818e-07
-3.65330122e-07
-3.63628336e-07
-3.65299744e-07
-3.63951329e-07
-3.65317967e-07
-3.84437419e-07
-3.83951288e-07
-3.75411767e-07
-3.64947318e-07
-3.64606998e-07
-3.64798049e-07
-3.65103864e-07
-3.64530734e-07
-3.64856521e-07
-3.84177543e-07
-3.84142226e-07
-3.8407694e-07
-3.83964941e-07
-3.65860555e-07
-3.67625498e-07
-3.84046426e-07
-3.8349265e-07
-3.84264255e-07
-3.6548847e-07
-3.64142414e-07
-3.83960631e-07
-3.84495289e-07
-3.64700555e-07
-3.63540003e-07
-3.64792346e-07
-3.63466633e-07
-3.64909316e-07
-3.84877635e-07
-3.8397687e-07
-3.84879073e-07
-3.83986805e-07
-3.84615085e-07
-3.76739705e-07
-3.64211238e-07
-3.64926326e-07
-3.64622811e-07
-3.66407113e-07
-3.84310392e-07
-3.83798954e-07
-3.84152271e-07
-3.84008918e-07
-3.64918265e-07
-3.64124233e-07
-3.84270631e-07
-3.83921144e-07
-3.6531677e-07
-3.65090443e-07
-3.84041808e-07
-3.83722682e-07
-3.66340649e-07
-3.65902279e-07
-3.6973372e-07
-3.66058944e-07
-3.65718815e-07
-3.65603241e-07
-3.6579457e-07
-3.65012551e-07
-3.66272834e-07
-3.84728002e-07
-3.83539374e-07
-3.84483304e-07
-3.83598916e-07
-3.84164408e-07
-3.74095268e-07
-3.64174542e-07
-3.64473199e-07
-3.65588421e-07
-3.65443301e-07
-3.71247047e-07
-3.84219677e-07
-3.83918769e-07
-3.65415158e-07
-3.63965073e-07
-3.68855095e-07
-3.84869708e-07
-3.83813521e-07
-3.64550158e-07
-3.64220077e-07
-3.85828005e-07
-3.84047314e-07
-3.84836789e-07
-3.65809305e-07
-3.65438622e-07
-3.85223554e-07
-3.84522329e-07
-3.84337271e-07
-3.84603982e-07
-3.64815835e-07
-3.62573357e-07
-3.65758612e-07
-3.85089075e-07
-3.84045699e-07
-3.63799125e-07
-3.6309352e-07
-3.64569596e-07
-3.64536125e-07
-3.6736905e-07
-3.84609401e-07
-3.83310897e-07
-3.84531552e-07
-3.83374466e-07
-3.84359826e-07
-3.66074246e-07
-3.64154606e-07
-3.70562532e-07
-3.84281879e-07
-3.8377159e-07
-3.65581185e-07
-3.64644584e-07
-3.65040203e-07
-3.68809709e-07
-3.84433688e-07
-3.83386835e-07
-3.8451907e-07
-3.65836717e-07
-3.6414345e-07
-3.64811184e-07
-3.67241284e-07
-3.84033541e-07
-3.84191349e-07
-3.64405378e-07
-3.63854639e-07
-3.64987767e-07
-3.65265784e-07
-3.65190565e-07
-3.70409943e-07
-3.83905217e-07
-3.83766672e-07
-3.84311548e-07
-3.84048204e-07
-3.84574319e-07
-3.76487155e-07
-3.64395879e-07
-3.66070361e-07
-3.84101231e-07
-3.83451613e-07
-3.84829187e-07
-3.661739e-07
-3.64343173e-07
-3.65138404e-07
-3.69898215e-07
-3.83865387e-07
-3.83896284e-07
-3.83689135e-07
-3.84552766e-07
-3.70630606e-07
-3.63704758e-07
-3.65802397e-07
-3.84160791e-07
-3.84632112e-07
-3.653589e-07
-3.6384607e-07
-3.65186903e-07
-3.65531351e-07
-3.65658898e-07
-3.67216332e-07
-3.77680012e-07
-3.83531215e-07
-3.85558745e-07
-3.65737915e-07
-3.66514383e-07
-3.83784057e-07
-3.85767586e-07
-3.65089525e-07
-3.66475581e-07
-3.83914551e-07
-3.86110064e-07
-3.64802728e-07
-3.66367571e-07
-3.8384237e-07
-3.85324813e-07
-3.65258277e-07
-3.6810914e-07
-3.83486813e-07
-3.8325823e-07
-3.84863583e-07
-3.67584032e-07
-3.63522713e-07
-3.64601751e-07
-3.65679284e-07
-3.65822445e-07
-3.73566305e-07
-3.83820811e-07
-3.85904796e-07
-3.65667235e-07
-3.67046119e-07
-3.84048551e-07
-3.86617965e-07
-3.6495645e-07
-3.68072276e-07
-3.84806049e-07
-3.73817121e-07
-3.63229098e-07
-3.63572158e-07
-3.64889811e-07
-3.65136548e-07
-3.65880972e-07
-3.66861259e-07
-3.79174138e-07
-3.8430091e-07
-3.84105642e-07
-3.83462966e-07
-3.66560322e-07
-3.72445863e-07
-3.83883793e-07
-3.83682419e-07
-3.85526018e-07
-3.69382675e-07
-3.6362028e-07
-3.64250206e-07
-3.65337419e-07
-3.65795971e-07
-3.76947813e-07
-3.84677614e-07
-3.76146616e-07
-3.65673128e-07
-3.74406494e-07
-3.84018889e-07
-3.84365137e-07
-3.83986296e-07
-3.85992016e-07
-3.68368622e-07
-3.64875555e-07
-3.75227237e-07
-3.85673833e-07
-3.69761574e-07
-3.64077809e-07
-3.64680494e-07
-3.66473171e-07
-3.80558942e-07
-3.84298148e-07
-3.84317158e-07
-3.85489983e-07
-3.71790026e-07
-3.63760595e-07
-3.64655772e-07
-3.75581106e-07
-3.84548619e-07
-3.81725244e-07
-3.65839377e-07
-3.67670552e-07
-3.84032971e-07
-3.83926183e-07
-3.85131576e-07
-3.64870382e-07
-3.65009325e-07
-3.65872075e-07
-3.6607059e-07
-3.66100055e-07
-3.66359905e-07
-3.67340998e-07
-3.79891268e-07
-3.83701598e-07
-3.85647849e-07
-3.65307287e-07
-3.65506781e-07
-3.76774206e-07
-3.83793842e-07
-3.86964508e-07
-3.67370225e-07
-3.70319599e-07
-3.8387064e-07
-3.83863428e-07
-3.85185997e-07
-3.84251751e-07
-3.86645326e-07
-3.63278434e-07
-3.63366014e-07
-3.65126726e-07
-3.65246107e-07
-3.65521279e-07
-3.72143831e-07
-3.83941554e-07
-3.83815841e-07
-3.8510717e-07
-3.84180087e-07
-3.8698891e-07
-3.6322895e-07
-3.63334073e-07
-3.64834766e-07
-3.65053769e-07
-3.65457077e-07
-3.65480275e-07
-3.70662498e-07
-3.84001997e-07
-3.85781745e-07
-3.6430679e-07
-3.64440785e-07
-3.70531302e-07
-3.83948543e-07
-3.83681648e-07
-3.84957631e-07
-3.83988542e-07
-3.86231683e-07
-3.64034201e-07
-3.63635103e-07
-3.65276598e-07
-3.6531165e-07
-3.65197699e-07
-3.69901846e-07
-3.8410803e-07
-3.83531066e-07
-3.8619244e-07
-3.65837766e-07
-3.66512631e-07
-3.84458449e-07
-3.83712756e-07
-3.86330747e-07
-3.65610629e-07
-3.66185088e-07
-3.83812538e-07
-3.85586345e-07
-3.65568244e-07
-3.66877233e-07
-3.83697012e-07
-3.84540633e-07
-3.65879666e-07
-3.6568655e-07
-3.66355616e-07
-3.66354271e-07
-3.66025737e-07
-3.66080952e-07
-3.65992857e-07
-3.66048924e-07
-3.7254131e-07
-3.83842361e-07
-3.83604855e-07
-3.84852531e-07
-3.83617547e-07
-3.85734695e-07
-3.65614759e-07
-3.63612219e-07
-3.67130642e-07
-3.84433473e-07
-3.84795946e-07
-3.65364678e-07
-3.63585387e-07
-3.67600983e-07
-3.84486311e-07
-3.84424003e-07
-3.84189913e-07
-3.85423476e-07
-3.65720673e-07
-3.63991472e-07
-3.65056756e-07
-3.69859683e-07
-3.84225022e-07
-3.83955922e-07
-3.84245792e-07
-3.84569673e-07
-3.72673896e-07
-3.64609247e-07
-3.64852376e-07
-3.65628985e-07
-3.65666713e-07
-3.65975045e-07
-3.67434902e-07
-3.85809947e-07
-3.84151642e-07
-3.73059979e-07
-3.66123746e-07
-3.75571779e-07
-3.84499479e-07
-3.733555e-07
-3.65875109e-07
-3.75676893e-07
-3.84898023e-07
-3.71897268e-07
-3.65359199e-07
-3.75745098e-07
-3.85850622e-07
-3.67453792e-07
-3.63006918e-07
-3.63846611e-07
-3.64881415e-07
-3.65562725e-07
-3.76511769e-07
-3.84179057e-07
-3.84663117e-07
-3.74956357e-07
-3.65560827e-07
-3.7111351e-07
-3.84587368e-07
-3.77779807e-07
-3.65590745e-07
-3.71109106e-07
-3.84332041e-07
-3.8015216e-07
-3.66066443e-07
-3.74687709e-07
-3.8397966e-07
-3.83916859e-07
-3.8469162e-07
-3.84458199e-07
-3.79920117e-07
-3.64082652e-07
-3.64263321e-07
-3.6529823e-07
-3.65236355e-07
-3.71508042e-07
-3.84444566e-07
-3.83073118e-07
-3.6456136e-07
-3.67584473e-07
-3.8442108e-07
-3.83714776e-07
-3.64223226e-07
-3.64411738e-07
-3.65407584e-07
-3.65250223e-07
-3.70858814e-07
-3.83709934e-07
-3.83593139e-07
-3.84552001e-07
-3.83929625e-07
-3.86929731e-07
-3.64158799e-07
-3.64257215e-07
-3.6526037e-07
-3.6497692e-07
-3.68956007e-07
-3.84081164e-07
-3.86116573e-07
-3.64585232e-07
-3.64739878e-07
-3.66341853e-07
-3.84181617e-07
-3.84679993e-07
-3.84592188e-07
-3.87016455e-07
-3.65153601e-07
-3.66427391e-07
-3.84054159e-07
-3.86588203e-07
-3.64810937e-07
-3.66213356e-07
-3.84064703e-07
-3.86383845e-07
-3.64530326e-07
-3.65939277e-07
-3.84110053e-07
-3.8586657e-07
-3.64134017e-07
-3.6428018e-07
-3.65543306e-07
-3.6511333e-07
-3.68659733e-07
-3.8412856e-07
-3.84750802e-07
-3.6438982e-07
-3.63985749e-07
-3.67162628e-07
-3.84406922e-07
-3.84331596e-07
-3.84430548e-07
-3.85208614e-07
-3.84368623e-07
-3.86263871e-07
-3.64139161e-07
-3.64682814e-07
-3.84081586e-07
-3.85168173e-07
-3.64893078e-07
-3.67354552e-07
-3.84536469e-07
-3.67079709e-07
-3.64425111e-07
-3.65333265e-07
-3.64691712e-07
-3.64551397e-07
-3.65906978e-07
-3.83934446e-07
-3.84183141e-07
-3.83883101e-07
-3.84854128e-07
-3.65417945e-07
-3.65602695e-07
-3.83815502e-07
-3.84701021e-07
-3.64956444e-07
-3.65175505e-07
-3.8363662e-07
-3.84388713e-07
-3.66014878e-07
-3.66288087e-07
-3.83463818e-07
-3.84060564e-07
-3.65857205e-07
-3.6528394e-07
-3.65774791e-07
-3.65253287e-07
-3.65554431e-07
-3.65026664e-07
-3.65631884e-07
-3.83977543e-07
-3.83881228e-07
-3.83971699e-07
-3.84116782e-07
-3.64949319e-07
-3.64874325e-07
-3.83852516e-07
-3.83994338e-07
-3.65152369e-07
-3.65160884e-07
-3.83806846e-07
-3.83877288e-07
-3.64955956e-07
-3.65143574e-07
-3.83781623e-07
-3.83680959e-07
-3.64792214e-07
-3.65885171e-07
-3.83957801e-07
-3.83463772e-07
-3.8410341e-07
-3.65769489e-07
-3.64152215e-07
-3.65060172e-07
-3.64227537e-07
-3.64923292e-07
-3.64151549e-07
-3.6509183e-07
-3.84028354e-07
-3.83473448e-07
-3.83993298e-07
-3.83287656e-07
-3.83928256e-07
-3.6836558e-07
-3.65067066e-07
-3.673165e-07
-3.83674902e-07
-3.83546133e-07
-3.65723323e-07
-3.64349611e-07
-3.64154983e-07
-3.63857192e-07
-3.84121942e-07
-3.84175359e-07
-3.64788758e-07
-3.6387357e-07
-3.84984061e-07
-3.84270972e-07
-3.6481114e-07
-3.64248602e-07
-3.64138181e-07
-3.64206204e-07
-3.8441399e-07
-3.84303815e-07
-3.84322123e-07
-3.84251998e-07
-3.84119071e-07
-3.84176201e-07
-3.83857975e-07
-3.84075682e-07
-3.65999892e-07
-3.64205869e-07
-3.64030511e-07
-3.64089454e-07
-3.84409793e-07
-3.84329046e-07
-3.65878527e-07
-3.6448874e-07
-3.84395209e-07
-3.84574002e-07
-3.66520987e-07
-3.62979512e-07
-3.64863131e-07
-3.84917798e-07
-3.83568772e-07
-3.8433444e-07
-3.68384468e-07
-3.64492231e-07
-3.65242123e-07
-3.65036037e-07
-3.64522275e-07
-3.64869236e-07
-3.84319684e-07
-3.8422974e-07
-3.69411921e-07
-3.64292669e-07
-3.65077018e-07
-3.84442158e-07
-3.83726976e-07
-3.83890781e-07
-3.74336793e-07
-3.65714485e-07
-3.7368574e-07
-3.8374629e-07
-3.83678297e-07
-3.83544595e-07
-3.83797532e-07
-3.66733449e-07
-3.64227699e-07
-3.64897866e-07
-3.64058518e-07
-3.64053581e-07
-3.84090033e-07
-3.84052167e-07
-3.67611847e-07
-3.65023971e-07
-3.65630904e-07
-3.65547853e-07
-3.65230992e-07
-3.6577232e-07
-3.83713795e-07
-3.83574795e-07
-3.71113814e-07
-3.66240586e-07
-3.73294813e-07
-3.83413923e-07
-3.83885187e-07
-3.67002501e-07
-3.64360555e-07
-3.6357275e-07
-3.64422443e-07
-3.84662918e-07
-3.84029284e-07
-3.84710539e-07
-3.83877671e-07
-3.84684354e-07
-3.65388474e-07
-3.63965255e-07
-3.63903375e-07
-3.64709517e-07
-3.8408763e-07
-3.84161546e-07
-3.83793639e-07
-3.84212361e-07
-3.66869438e-07
-3.64830138e-07
-3.75731641e-07
-3.83817504e-07
-3.79474074e-07
-3.65496438e-07
-3.68672824e-07
-3.83411889e-07
-3.83739909e-07
-3.67352491e-07
-3.63722593e-07
-3.64579691e-07
-3.83810219e-07
-3.84076664e-07
-3.66204761e-07
-3.6352144e-07
-3.64909985e-07
-3.84011371e-07
-3.84031072e-07
-3.66196797e-07