/*--------------------------------*- C++ -*----------------------------------*\
| =========                 |                                                 |
| \\      /  F ield         | OpenFOAM: The Open Source CFD Toolbox           |
|  \\    /   O peration     | Version:  2306                                  |
|   \\  /    A nd           | Website:  www.openfoam.com                      |
|    \\/     M anipulation  |                                                 |
\*---------------------------------------------------------------------------*/
FoamFile
{
    version     2.0;
    format      ascii;
    arch        "LSB;label=32;scalar=64";
    class       volScalarField;
    location    "0.00022";
    object      rho;
}
// * * * * * * * * * * * * * * * * * * * * * * * * * * * * * * * * * * * * * //

dimensions      [1 -3 0 0 0 0 0];

internalField   nonuniform List<scalar> 
3810
(
0.965717733
0.937106367
0.900902468
0.956496059
0.9698034
0.953851233
0.951921175
0.949046684
0.931815575
0.900763231
0.900862537
0.90050743
0.900585163
0.900376015
0.900454857
0.952478249
0.968431428
0.933731832
0.900921065
0.900973581
0.900158693
0.969630384
0.973940148
0.901783795
0.901624871
0.901302059
0.90172392
0.900961359
0.962848935
0.9649892
0.958166155
0.949408118
0.907314952
0.901109673
0.901320312
0.900369837
0.935078795
0.956681149
0.935990522
0.899704813
0.899700461
0.961942256
0.913454568
0.899382907
0.953009075
0.947347099
0.900560403
0.900007198
0.957243741
0.934480203
0.899708353
0.954239018
0.955427383
0.955699399
0.935515034
0.899969778
0.900317397
0.900080603
0.956405989
0.935657514
0.900647745
0.947701825
0.946722006
0.900014952
0.900676885
0.900559978
0.9011192
0.955458608
0.955960026
0.953254726
0.93720262
0.900434503
0.902780669
0.964909429
0.965459271
0.952038477
0.956706585
0.936605208
0.901117709
0.901914056
0.901453929
0.902839509
0.944618867
0.955604643
0.94650999
0.920815258
0.903517007
0.903684658
0.90496206
0.956057298
0.948869103
0.903147358
0.905807438
0.962812262
0.963182196
0.932246954
0.904088507
0.904670476
0.904189221
0.905689002
0.972561553
0.973374508
0.937588714
0.905180811
0.904539365
0.907187108
0.955765516
0.950575157
0.904660252
0.907526367
0.961030837
0.961612486
0.951860747
0.937199269
0.904657595
0.907815719
0.959389872
0.959852882
0.936871944
0.905807565
0.906484572
0.905551684
0.913197142
0.964177677
0.942803231
0.905362476
0.9054695
0.905858543
0.923269784
0.974050229
0.973147374
0.959614815
0.938548226
0.905887753
0.906396548
0.906493344
0.91685717
0.971372984
0.939180023
0.912293933
0.952067307
0.944588124
0.905046824
0.909694532
0.963656119
0.963975873
0.951592798
0.938364856
0.904853651
0.907606719
0.957955335
0.958273099
0.948207567
0.937632414
0.904914151
0.908079783
0.956525178
0.956755725
0.93584765
0.90624929
0.907750701
0.953367868
0.938653005
0.905753832
0.907079031
0.906043256
0.916951309
0.969959587
0.970080115
0.95393002
0.93731473
0.90622516
0.907033941
0.906544596
0.907236241
0.907067249
0.923009371
0.964568892
0.964681183
0.949560669
0.938792656
0.906560394
0.908934157
0.956770491
0.941859671
0.906561507
0.909753021
0.973858349
0.97542771
0.940989097
0.90882942
0.906575956
0.912035498
0.960430361
0.94525378
0.908036089
0.908152947
0.908267666
0.965847964
0.941128934
0.909015219
0.965635329
0.966275214
0.951763459
0.955423123
0.941995707
0.912631048
0.906812077
0.910721161
0.952152365
0.952323957
0.935266018
0.907354809
0.90723338
0.966291465
0.966710632
0.937271018
0.90814667
0.906203365
0.906954999
0.961380599
0.939800655
0.907045125
0.968464199
0.969024949
0.934271082
0.907682142
0.906002308
0.906419008
0.959073603
0.93861466
0.906161901
0.963144834
0.96324402
0.935385044
0.905984474
0.90531121
0.965285549
0.965147757
0.944883403
0.935744284
0.904770157
0.903501519
0.903365019
0.948996303
0.938382938
0.902641792
0.903210696
0.901571853
0.903542066
0.933899933
0.950376596
0.937485722
0.903934284
0.903229644
0.903154779
0.967645183
0.967950672
0.952966049
0.952770001
0.947952107
0.946297584
0.940614746
0.930370672
0.902354831
0.902684336
0.9559819
0.956009601
0.942103106
0.938214135
0.923796833
0.901791891
0.903375364
0.937902092
0.929698409
0.902684644
0.902767879
0.902435053
0.950504439
0.955440051
0.945068021
0.944988844
0.933597326
0.902581255
0.903190767
0.957702217
0.957911199
0.933267305
0.903575705
0.904024269
0.959488852
0.959742535
0.934256958
0.903756185
0.90444999
0.96133363
0.961515957
0.935502051
0.903697767
0.904938693
0.96295889
0.963041458
0.931509514
0.904163869
0.90453356
0.904018292
0.905525432
0.904158862
0.907131965
0.963745754
0.964121457
0.944760117
0.936960772
0.903838564
0.905709256
0.950004328
0.938822965
0.904053556
0.905926579
0.963000595
0.939053495
0.90646687
0.966816569
0.967380513
0.955227374
0.954882249
0.947761375
0.94618021
0.933598144
0.905462381
0.904767884
0.906429426
0.904977568
0.907306121
0.956518307
0.940111946
0.905600735
0.905624944
0.907750167
0.966066592
0.966533456
0.93679378
0.906420967
0.907726607
0.90637808
0.908841828
0.960655437
0.961030472
0.937671448
0.907388575
0.908005816
0.958670097
0.938304253
0.90845795
0.960835727
0.96109297
0.94999484
0.948765653
0.931254207
0.907184722
0.909108445
0.907323282
0.909663214
0.965441994
0.966024536
0.940867032
0.90773483
0.908196322
0.967998922
0.96803384
0.961974689
0.941459245
0.907023306
0.906769711
0.907652498
0.963182354
0.963391153
0.949420403
0.940219487
0.906552072
0.907662667
0.953337301
0.943282358
0.906072146
0.907288311
0.959808452
0.959905513
0.950425214
0.940327573
0.905686806
0.906589639
0.954148038
0.945006604
0.905241657
0.906274741
0.960462378
0.960656255
0.951206352
0.937441897
0.905007786
0.905935411
0.904953582
0.905734431
0.966448179
0.966751132
0.950873458
0.936828789
0.904547228
0.905523875
0.90452517
0.905825158
0.904747041
0.905942548
0.948900326
0.963052838
0.94122259
0.90589222
0.905622069
0.969427459
0.96950239
0.941991243
0.905597458
0.906264417
0.905959555
0.906499791
0.965844361
0.959288645
0.906035611
0.906655167
0.963294067
0.96344182
0.954228942
0.953362286
0.952200715
0.94629304
0.930572039
0.906425922
0.906038825
0.951796637
0.94174282
0.905826079
0.906166667
0.90588943
0.958903556
0.959556798
0.906250318
0.906328209
0.960539946
0.960581465
0.958610708
0.946693214
0.906093871
0.907165573
0.959399443
0.960512201
0.945193402
0.907074227
0.905851788
0.907369321
0.906129055
0.965737589
0.946669519
0.907005085
0.948731993
0.961363255
0.949452121
0.954090801
0.935179061
0.907730141
0.907613063
0.952840074
0.957722061
0.942989063
0.907881943
0.906758803
0.955079392
0.950892068
0.907531964
0.90705754
0.963521938
0.945988383
0.907402633
0.950047582
0.964246561
0.951129756
0.956945682
0.942237609
0.908556286
0.907231293
0.951685985
0.951184499
0.908037944
0.908049133
0.956736857
0.946948834
0.907486177
0.90874762
0.907782363
0.963402539
0.965592256
0.966831307
0.951049866
0.908265486
0.909597968
0.908416596
0.953151463
0.959824906
0.909417191
0.909452875
0.964178962
0.963663472
0.963408826
0.953225663
0.90900975
0.908998287
0.90944294
0.908847428
0.95551618
0.947819965
0.909412702
0.908811395
0.909506171
0.908664747
0.973269923
0.974132109
0.961938305
0.961907936
0.953600291
0.954279496
0.942117326
0.909301815
0.907707157
0.954898067
0.952890082
0.908555648
0.907747518
0.954159452
0.946091791
0.908567156
0.908589897
0.908775913
0.908608775
0.960360924
0.964781225
0.955167938
0.956766225
0.942061031
0.909971977
0.907903242
0.958584825
0.945019962
0.909322136
0.946649218
0.956491821
0.951797759
0.945139605
0.909349411
0.909289976
0.960338648
0.960281679
0.956082291
0.941647446
0.910281877
0.910318961
0.910128175
0.955834716
0.955846382
0.909933315
0.91051935
0.962543441
0.959660041
0.909994956
0.910735886
0.974884682
0.975109624
0.96241477
0.958065732
0.958664856
0.944738974
0.910087051
0.910705002
0.965618952
0.965935335
0.954055258
0.934607049
0.910227082
0.911392146
0.910523717
0.911474749
0.962067066
0.954529663
0.9106279
0.912055739
0.911091842
0.912388921
0.97659302
0.977098399
0.954106242
0.940724951
0.912341207
0.912717964
0.912777987
0.913144108
0.981408819
0.981983441
0.965169523
0.949823604
0.912304355
0.911904468
0.913139081
0.912248018
0.913849013
0.967130565
0.978052458
0.964319446
0.964681441
0.959994126
0.955110233
0.95487102
0.944383459
0.912385296
0.913053766
0.971138387
0.957069508
0.912378413
0.912055616
0.913329618
0.912277961
0.914555363
0.912727549
0.914947583
0.967031751
0.971684979
0.957001606
0.958407757
0.945003831
0.913067905
0.913931875
0.975842516
0.976322693
0.959389722
0.962900673
0.948271071
0.915478153
0.910758479
0.915711911
0.946409081
0.948868858
0.925349781
0.912339537
0.912315914
0.928333161
0.974499008
0.972089006
0.934670022
0.909613244
0.911016757
0.952258718
0.966394703
0.957053548
0.958283407
0.942900017
0.907089114
0.908226198
0.96775892
0.973942089
0.943622534
0.909064164
0.905794039
0.910146168
0.905687722
0.909264708
0.905915365
0.907669823
0.960118816
0.96882024
0.952939709
0.951699118
0.948789126
0.936766416
0.904839771
0.905566971
0.950297333
0.949791874
0.904569358
0.905852214
0.952575459
0.952378253
0.904095866
0.90379734
0.962538048
0.940647338
0.905216058
0.940652961
0.967541557
0.95397399
0.955040022
0.940588567
0.904552262
0.904539861
0.904496262
0.905325145
0.904409353
0.905771901
0.904393816
0.905501319
0.952148461
0.96879392
0.953200819
0.951339749
0.950657186
0.938346544
0.904226954
0.904499768
0.954071976
0.962347416
0.938760872
0.905329452
0.904078849
0.961306933
0.961407088
0.931945152
0.906040347
0.904933014
0.922944218
0.954643853
0.940023686
0.903386547
0.931013502
0.96412442
0.962648643
0.936055801
0.903594164
0.903358184
0.967161489
0.967692511
0.93746242
0.903079843
0.902342331
0.903459724
0.902432978
0.901758928
0.902657597
0.93343737
0.961135199
0.957564843
0.946858035
0.94599226
0.94538973
0.935328234
0.904004696
0.900000701
0.901814604
0.900009179
0.923745155
0.95582958
0.954906498
0.939426262
0.92598509
0.898426248
0.898630393
0.898536306
0.917880084
0.960151508
0.958930372
0.943518863
0.942386216
0.936178114
0.922960895
0.896746338
0.89775304
0.896760438
0.910853666
0.951543591
0.935163799
0.896149749
0.902562017
0.959148224
0.959459366
0.9422966
0.941097956
0.935878879
0.926049915
0.896505961
0.895620058
0.897712016
0.896017826
0.90066327
0.949878181
0.941435814
0.895609514
0.898320018
0.958945369
0.959252895
0.947062282
0.945534878
0.947799735
0.930804053
0.896433652
0.896943893
0.89651804
0.897565828
0.897082262
0.897951188
0.939452962
0.950147
0.926244856
0.897004931
0.898442023
0.93457723
0.956192746
0.949823085
0.942352717
0.923827245
0.899472098
0.898400824
0.900012352
0.929901687
0.954960136
0.936890969
0.900144395
0.899260589
0.966302083
0.96659657
0.948460586
0.949884223
0.938847954
0.919522797
0.900580354
0.902333934
0.899546005
0.901794687
0.930401701
0.962255005
0.959298234
0.949379004
0.949942767
0.930266824
0.900753541
0.902149755
0.900639572
0.903809825
0.957781653
0.952169101
0.899966813
0.900007135
0.955035427
0.947110523
0.899725716
0.899736304
0.960108381
0.960506543
0.944380108
0.943539756
0.931890061
0.899842912
0.898046147
0.940255372
0.93296744
0.899554334
0.899373016
0.898154961
0.94935268
0.949597988
0.938372855
0.932203391
0.898003453
0.897364648
0.943246704
0.93204311
0.898058285
0.897916919
0.896942283
0.956902558
0.957196723
0.94511572
0.942700642
0.94153981
0.930274268
0.895750847
0.895268718
0.896213729
0.895280197
0.897143557
0.89536613
0.89703632
0.962440028
0.963073079
0.94808431
0.953444742
0.929497102
0.894626644
0.893826612
0.894979346
0.950300493
0.950298688
0.948127233
0.928268053
0.893171343
0.892964339
0.894011019
0.938105506
0.936911726
0.892670273
0.893552143
0.937735051
0.934201198
0.892067009
0.893268382
0.938619857
0.933083072
0.891803251
0.892976659
0.940021261
0.929765472
0.892159943
0.928305506
0.946090521
0.934179549
0.946681575
0.936623805
0.89267324
0.892906277
0.893397014
0.929487773
0.939402365
0.942399151
0.9416038
0.893072112
0.894778535
0.893970575
0.895329595
0.930862147
0.946908236
0.945505935
0.895528185
0.896044859
0.930920573
0.941543687
0.942311385
0.945580397
0.96048498
0.958685864
0.897579409
0.898019607
0.8985134
0.8978986
0.898913297
0.898068276
0.899248581
0.934668328
0.953750736
0.951914971
0.955882146
0.957473188
0.954100567
0.964135082
0.959516535
0.900821992
0.90164392
0.901958407
0.901596889
0.902301023
0.901766797
0.902137388
0.936896523
0.952069957
0.9004544
0.902097014
0.954890844
0.952497953
0.901836381
0.9027551
0.904530989
0.938203323
0.961270219
0.955950579
0.976234055
0.971695387
0.903983953
0.905276579
0.905735352
0.938109712
0.951330973
0.959540158
0.958901102
0.904786412
0.906423313
0.950698545
0.947289105
0.904809836
0.906574602
0.906495414
0.943735894
0.95605123
0.904595019
0.907431509
0.943499091
0.956648803
0.966749126
0.965779735
0.906267769
0.90865473
0.944200705
0.95656041
0.966108446
0.964669217
0.907891763
0.91023649
0.955490135
0.959318959
0.90834747
0.91181274
0.945773571
0.981040997
0.968810889
0.910723571
0.911087582
0.911521601
0.911535984
0.912434089
0.912073541
0.912612083
0.912855969
0.945026526
0.967824425
0.976063849
0.971619159
0.911980388
0.914116628
0.956413234
0.967236387
0.972057238
0.96584562
0.913761146
0.917126052
0.966866017
0.954758586
0.915201791
0.916000011
0.917518383
0.962847341
0.960750541
0.915405855
0.919659768
0.966784011
0.960987819
0.915844837
0.918767861
0.964168008
0.980799515
0.958791943
0.918169824
0.918691427
0.96416953
0.971120024
0.976492883
0.956334949
0.917102582
0.917043668
0.918678977
0.917310654
0.920227517
0.952753076
0.969889423
0.965786852
0.971970259
0.971162169
0.979050074
0.955520856
0.916907869
0.91597412
0.918477036
0.960607956
0.955401195
0.915154138
0.91749944
0.960755425
0.9492707
0.914491305
0.916534078
0.965332293
0.965271355
0.962568357
0.948484542
0.913622909
0.913518098
0.964414396
0.954469708
0.912864929
0.912686535
0.912338656
0.953282027
0.950582838
0.911373857
0.912286506
0.960646838
0.965099824
0.957155685
0.965984391
0.946845888
0.909863285
0.909689265
0.909794093
0.909180938
0.955361415
0.965102503
0.95762731
0.957653538
0.9602298
0.944674263
0.908535447
0.908694398
0.908440841
0.909091313
0.908631585
0.909164504
0.908885791
0.908624402
0.96060008
0.967681796
0.955179998
0.965191131
0.944897569
0.909143652
0.907669016
0.909104981
0.907393797
0.969773654
0.973296099
0.964215685
0.959469834
0.962635588
0.944944398
0.909309112
0.908539247
0.909186661
0.908339054
0.966987864
0.973623479
0.963233743
0.963993263
0.954395778
0.958986495
0.944918143
0.909857635
0.909224443
0.909528262
0.909412698
0.954473763
0.966860268
0.946617492
0.910569234
0.909724594
0.91018295
0.909579577
0.909474536
0.95617067
0.963215667
0.961191502
0.946047615
0.909408287
0.910484209
0.909439605
0.94622901
0.950704609
0.910592347
0.910002641
0.95570481
0.961912553
0.97121304
0.962059431
0.911606462
0.911399159
0.912125485
0.911208178
0.912947648
0.957983531
0.974791063
0.958708122
0.971760836
0.958942737
0.911210573
0.912451869
0.940266108
0.962352866
0.965516969
0.963928582
0.961801435
0.966340456
0.963655345
0.912065819
0.912023814
0.912615578
0.91139119
0.955431718
0.948575173
0.911972881
0.91248501
0.912377247
0.957768913
0.969760268
0.91105224
0.913650379
0.964274893
0.976157812
0.964072808
0.977060153
0.963184528
0.913564609
0.912951191
0.913917835
0.912637968
0.91431519
0.939050676
0.970037435
0.962485694
0.966571159
0.950391496
0.912907498
0.911448243
0.912807881
0.911009543
0.962859733
0.968694161
0.912213932
0.912001745
0.959346437
0.961064942
0.911957374
0.911992655
0.950364226
0.955100253
0.948222993
0.954093478
0.955658443
0.958132484
0.955239374
0.963354739
0.951446052
0.91352517
0.911638859
0.91300636
0.91124758
0.912610256
0.943266109
0.969380934
0.96602654
0.957884662
0.958955887
0.946363179
0.913298778
0.911757839
0.95819644
0.971619066
0.948580219
0.914511017
0.910681954
0.967175312
0.968405722
0.914939956
0.913113215
0.91257856
0.955308019
0.959592174
0.913589148
0.912818112
0.911874611
0.911555261
0.961489589
0.982183354
0.954093194
0.912153619
0.9094384
0.9697553
0.975384002
0.962716557
0.964135383
0.94675285
0.911238605
0.907801935
0.909643267
0.907360619
0.907963838
0.947752237
0.965825477
0.943177114
0.909375377
0.905959372
0.953068162
0.958946986
0.957122094
0.942652593
0.907419336
0.906280536
0.905657251
0.948344092
0.963070698
0.956266955
0.94079038
0.904723679
0.904981307
0.959146624
0.963940323
0.954410816
0.951936369
0.952406321
0.938223872
0.904268523
0.903589138
0.904316597
0.902785237
0.904677955
0.930051114
0.958420785
0.942500692
0.903195805
0.90219943
0.902419044
0.941907091
0.957357387
0.949639389
0.935986392
0.900781973
0.902248658
0.900106512
0.902415672
0.936211024
0.961529446
0.942714399
0.90062566
0.901202499
0.947839566
0.960493445
0.949416504
0.946719399
0.946278167
0.937167147
0.92599965
0.901727325
0.902512824
0.944896887
0.940553827
0.901606959
0.903504113
0.950374608
0.941732255
0.901948231
0.904117938
0.953059426
0.942178614
0.90229952
0.903605018
0.949846684
0.939428236
0.902625101
0.902546287
0.903999206
0.941210444
0.966394107
0.95606286
0.949745291
0.947399722
0.935615704
0.905697634
0.907095194
0.950351823
0.940903573
0.90655188
0.908398397
0.957067536
0.942121694
0.907877027
0.938550338
0.971741375
0.968850135
0.958515457
0.9569495
0.951005948
0.943069179
0.929652787
0.910041707
0.908767195
0.920200476
0.944511525
0.939442348
0.907366342
0.906170657
0.908759835
0.943504091
0.96815939
0.961452449
0.953454411
0.949036184
0.931353147
0.906206681
0.932602828
0.948425157
0.933986009
0.90357048
0.904232295
0.90139088
0.905477169
0.939814066
0.9532755
0.930349175
0.903305787
0.936993916
0.957532337
0.951767087
0.936536509
0.918340633
0.899918515
0.899190293
0.900816987
0.932447787
0.95814514
0.949554993
0.925560382
0.898583989
0.913908711
0.94094483
0.933098984
0.897752267
0.897695432
0.905916851
0.948456887
0.948678437
0.939742478
0.93909633
0.937709847
0.937173006
0.93492995
0.918680618
0.898172949
0.906172077
0.945570421
0.945086633
0.9250991
0.899491316
0.903222062
0.935684897
0.933687878
0.900101631
0.89992105
0.901928525
0.900582856
0.904969746
0.964519397
0.964969534
0.94897224
0.948450203
0.945640952
0.933568977
0.90146136
0.90075222
0.902765322
0.901535858
0.904436038
0.966125194
0.966772795
0.952744609
0.952133802
0.947728788
0.948399536
0.937040724
0.902933058
0.905244107
0.958226345
0.958637537
0.938318323
0.905028995
0.903603754
0.905839861
0.904456416
0.906606214
0.962585003
0.967043275
0.95246644
0.95235864
0.953264192
0.939942687
0.905330112
0.905153508
0.906467795
0.948145402
0.942862019
0.905558681
0.905783801
0.906833291
0.949586507
0.946371748
0.903969001
0.906866679
0.94929625
0.940817206
0.903538191
0.905407469
0.947030395
0.949396267
0.943111974
0.94363776
0.945582744
0.945517964
0.945700812
0.945646846
0.937435258
0.905122566
0.903612034
0.905981699
0.90334029
0.906126731
0.947845097
0.967417141
0.941344602
0.9038591
0.903837653
0.950292583
0.966156673
0.94059019
0.903893147
0.903815268
0.903467252
0.90379418
0.947326088
0.961840333
0.952616951
0.938099476
0.90352498
0.903870341
0.90308751
0.904278603
0.936027477
0.956423647
0.953595307
0.948129524
0.947116808
0.946166835
0.939095604
0.9102878
0.902910704
0.934445298
0.942529176
0.930009116
0.902315429
0.932972065
0.943568148
0.928362625
0.901511441
0.933260615
0.946644117
0.926595644
0.900774018
0.935055253
0.963877846
0.954783894
0.947232846
0.940884316
0.921816753
0.895907716
0.896342474
0.923900963
0.938871248
0.92723432
0.894239974
0.917412518
0.93691556
0.925442666
0.89253575
0.911576799
0.931656522
0.9204182
0.892345168
0.892430834
0.893048266
0.892853502
0.911626077
0.948179192
0.947518134
0.938474273
0.939734278
0.925310086
0.89357507
0.906326482
0.946122264
0.929152957
0.894802857
0.907338245
0.95135578
0.952194567
0.943087826
0.945658895
0.933064051
0.899951928
0.899705839
0.902172995
0.90124192
0.905943206
0.958141386
0.958764943
0.949312305
0.952764623
0.938463461
0.903856475
0.906454818
0.957044629
0.957624702
0.942435899
0.915540983
0.906795281
0.906719769
0.908645074
0.953549659
0.94472812
0.905265863
0.908433115
0.956018013
0.946767527
0.905283391
0.908417266
0.958533142
0.949088977
0.905831836
0.908632208
0.962458142
0.96303043
0.951231711
0.955935925
0.941531432
0.907453331
0.907590951
0.961867079
0.965676066
0.942507967
0.907544542
0.908143414
0.907747669
0.909016413
0.908049873
0.909476441
0.96433952
0.961111069
0.908146712
0.909154027
0.958548634
0.94338805
0.908062999
0.943863758
0.962356527
0.954468941
0.959838611
0.960861194
0.949808874
0.907644506
0.90861425
0.908052593
0.909104186
0.954137164
0.95340162
0.90791287
0.908601666
0.957427401
0.956679596
0.90758938
0.908932163
0.948739297
0.947833371
0.907445571
0.90870062
0.950002042
0.956079702
0.950808741
0.956247905
0.952681732
0.958074595
0.952040862
0.908515472
0.907975712
0.908663651
0.908124815
0.958549876
0.958892838
0.908723131
0.908714119
0.95695473
0.956823006
0.908679348
0.9086489
0.95857354
0.95671634
0.908624784
0.908481589
0.96013307
0.950933897
0.908779287
0.909001385
0.909198358
0.952121694
0.966283666
0.957746496
0.965855834
0.958860284
0.966476821
0.957440971
0.909335068
0.908838662
0.909504304
0.908730765
0.909692672
0.946827449
0.958755252
0.947362375
0.909252061
0.908599614
0.953105088
0.963887854
0.965845867
0.968039318
0.90978062
0.909494213
0.962051868
0.968643846
0.909304207
0.910453478
0.96217123
0.96648445
0.967173677
0.966742321
0.909710637
0.91060484
0.9095476
0.910130949
0.909569724
0.909766294
0.909638963
0.909639177
0.950823846
0.966287646
0.966753061
0.967377766
0.909624985
0.910691868
0.951837249
0.964939925
0.908232194
0.911158823
0.946582608
0.977819649
0.960278573
0.910641972
0.909857598
0.910706602
0.946022316
0.96511794
0.957487928
0.96091776
0.963886703
0.96238787
0.910424948
0.911906332
0.946069654
0.967472318
0.960024025
0.911404485
0.911587181
0.9118486
0.941920544
0.955445611
0.943404481
0.911687116
0.911273873
0.911847996
0.912011113
0.949813983
0.969120919
0.963140376
0.971089665
0.970663305
0.913254903
0.913778466
0.950093345
0.963944128
0.95898265
0.959880648
0.962550775
0.958166611
0.913949393
0.915080004
0.949508701
0.954532618
0.947337826
0.914922805
0.914791478
0.951994541
0.970610047
0.977108409
0.970191711
0.914741925
0.91601459
0.915662923
0.91592725
0.916796209
0.962367541
0.975104477
0.974078063
0.968452652
0.914371547
0.916161034
0.9147008
0.915782419
0.952235554
0.966673456
0.943626833
0.915242161
0.936670455
0.960317021
0.951000812
0.914024974
0.914345122
0.952012273
0.974451547
0.967008101
0.913648863
0.913636046
0.953832417
0.976075124
0.964193689
0.913763757
0.913355593
0.953613403
0.974282495
0.962223429
0.912946992
0.913792427
0.950760891
0.97433722
0.95528346
0.914853913
0.912029775
0.91407263
0.911712737
0.9128523
0.911772739
0.911692427
0.962599535
0.9770869
0.967415492
0.960225308
0.932659272
0.912163131
0.911801099
0.947963032
0.976678507
0.964224754
0.912609228
0.91124025
0.947717843
0.976763293
0.965959313
0.912844779
0.910888233
0.95075858
0.967457855
0.967814799
0.955700864
0.914107249
0.911595961
0.913690821
0.910833842
0.912412262
0.910385694
0.910883379
0.95425789
0.982132667
0.964642153
0.91292935
0.910124666
0.952064072
0.965740946
0.911709306
0.910285685
0.956966539
0.973640788
0.959794964
0.967573677
0.951806384
0.911097781
0.907657823
0.909351315
0.944916253
0.970689175
0.96015542
0.959818321
0.957927711
0.952349692
0.954923815
0.942415877
0.908507458
0.906677614
0.907762356
0.905949207
0.907259845
0.905177622
0.906760243
0.934717244
0.965733672
0.958167315
0.904825457
0.904730147
0.940549128
0.961472715
0.954623062
0.948484577
0.930201576
0.904299121
0.928784749
0.954794019
0.957867696
0.940422528
0.921748653
0.905019171
0.904001975
0.901816031
0.943864675
0.936040841
0.901857604
0.917524835
0.951924066
0.951728229
0.929396997
0.900965729
0.899022457
0.942205623
0.933534443
0.898965993
0.897798829
0.945561028
0.932252338
0.915019047
0.944187576
0.949500457
0.94068767
0.941046671
0.937278137
0.93319348
0.920973892
0.896174789
0.894414154
0.898160416
0.955550429
0.955375769
0.937689682
0.924328122
0.89078142
0.890219944
0.890592908
0.889811188
0.891521544
0.889827338
0.894329628
0.94587417
0.945694389
0.935601638
0.921848973
0.888137924
0.888166646
0.888971335
0.943803712
0.947289253
0.939383915
0.923464465
0.886691687
0.890308242
0.924694017
0.92405395
0.887384418
0.888995387
0.889148986
0.890217868
0.924610059
0.941728638
0.936700037
0.936013557
0.936334028
0.923706718
0.890637967
0.890498396
0.940270102
0.927972582
0.891425109
0.891628586
0.892701776
0.921451079
0.945119263
0.944512856
0.939850076
0.937093517
0.938367749
0.928419633
0.894016018
0.892919764
0.945853147
0.950224113
0.944615006
0.925880135
0.895595647
0.894957026
0.895308133
0.943227756
0.948252059
0.89455436
0.895347382
0.950075816
0.953774236
0.947300653
0.929393222
0.895748576
0.896108126
0.896327723
0.895346813
0.944173268
0.946940308
0.896644964
0.896812411
0.940844317
0.948285214
0.940594529
0.933529558
0.89846112
0.897490284
0.935018932
0.938667687
0.899467214
0.898355421
0.93917608
0.941298495
0.900063786
0.898963534
0.941391349
0.940752283
0.900592555
0.89985526
0.944831842
0.951928217
0.936503893
0.901710395
0.898687709
0.941514218
0.94199333
0.900850447
0.899358263
0.944789582
0.942133588
0.89989863
0.899219801
0.945475468
0.936896301
0.899996806
0.900145806
0.951005364
0.952505392
0.945576349
0.947287087
0.946963874
0.948679507
0.951542278
0.950979476
0.956651142
0.933449454
0.897288501
0.896903157
0.897213156
0.897398806
0.897148527
0.89687838
0.896509591
0.916819929
0.944850494
0.927669576
0.892652654
0.895280938
0.935056662
0.947338521
0.944239793
0.954227545
0.927467564
0.888349871
0.887948145
0.890136391
0.888744197
0.892744029
0.923944987
0.940456315
0.939149243
0.944216944
0.952959283
0.926780007
0.890159601
0.890418925
0.894280472
0.930982773
0.928818716
0.891464349
0.896805361
0.936524857
0.927338095
0.892641534
0.897858661
0.938100067
0.929488896
0.894467936
0.8992739
0.939913413
0.931725906
0.896549759
0.901104006
0.944919091
0.934873194
0.897849726
0.899843174
0.899491863
0.902193384
0.944914935
0.957909671
0.960883084
0.950424156
0.901271897
0.904839602
0.945153816
0.956139714
0.951024077
0.956277189
0.955457616
0.958490033
0.958284903
0.965972042
0.953679341
0.907819936
0.910522327
0.90921617
0.912988747
0.955599264
0.94773349
0.909801339
0.912152253
0.939332698
0.965648745
0.951701982
0.910344079
0.912010108
0.911324141
0.91395233
0.947803481
0.967967917
0.975115985
0.959619149
0.912211505
0.912494485
0.91361086
0.913377449
0.915652177
0.914147035
0.917331278
0.963384372
0.970108631
0.964651474
0.970054329
0.968029542
0.972450662
0.954384383
0.914187121
0.916972485
0.956365956
0.948738315
0.913501259
0.917282413
0.959867696
0.950411177
0.913300365
0.915328872
0.962719401
0.976004582
0.951158259
0.913424414
0.913846158
0.961721361
0.964230436
0.943250118
0.913282723
0.912068308
0.91313758
0.911610138
0.913941295
0.911683575
0.914251143
0.953572329
0.970857029
0.962972702
0.971376007
0.951054821
0.912257984
0.911769305
0.959771946
0.947241783
0.912033861
0.951157942
0.951306206
0.911510677
0.911682809
0.963421074
0.963748903
0.962173951
0.947285583
0.910736975
0.911135505
0.96098146
0.967326456
0.947600833
0.911293263
0.910033906
0.960776077
0.966436451
0.946800831
0.910588273
0.909866207
0.959742299
0.961191296
0.953805273
0.958630191
0.946635799
0.910040903
0.908128256
0.954031816
0.945842726
0.909361197
0.909078019
0.909070635
0.908858583
0.908380816
0.955653329
0.957021807
0.908120296
0.908599622
0.960144119
0.962151343
0.953463043
0.957412403
0.947287882
0.90807109
0.907287781
0.949672978
0.954187853
0.94440501
0.907681869
0.906860261
0.949434412
0.950503026
0.951257772
0.946893151
0.907118428
0.907487711
0.946208733
0.961336641
0.944474017
0.90736796
0.907125619
0.906989992
0.945601592
0.958401449
0.908004761
0.906959197
0.950898828
0.956961007
0.908632864
0.907001923
0.950626536
0.955659467
0.909076878
0.907696175
0.95021224
0.951010651
0.909177695
0.908235997
0.908527871
0.946824442
0.965752811
0.954478454
0.958897715
0.94766289
0.910291892
0.90831721
0.945478072
0.94793763
0.910461099
0.909728649
0.946565602
0.957436146
0.952028432
0.962042952
0.961169532
0.911142041
0.912274847
0.941409663
0.959180993
0.96030192
0.972216284
0.968173141
0.913520904
0.91347483
0.914880662
0.937574134
0.972870131
0.972539227
0.913202948
0.913044466
0.948157099
0.956018502
0.942275542
0.913161821
0.913245747
0.948966151
0.965749767
0.964670155
0.96449817
0.974004457
0.965113737
0.915153916
0.914021635
0.915561017
0.913338916
0.915176849
0.91305575
0.914727473
0.952292814
0.970604205
0.960984751
0.96244554
0.96115695
0.947242438
0.913976058
0.913409274
0.959634159
0.969153275
0.948883349
0.914812284
0.911991109
0.964900424
0.949872569
0.913988656
0.959802049
0.967347323
0.95744646
0.958100822
0.952614857
0.944980317
0.914143159
0.911574527
0.959492624
0.953504572
0.913141743
0.91344352
0.911447692
0.981496828
0.986152113
0.966701162
0.96188646
0.929744421
0.911803102
0.912912454
0.909985933
0.911527977
0.940892479
0.969220935
0.966104478
0.939684866
0.910799367
0.906758437
0.970115865
0.942630864
0.90846778
0.958541193
0.964651375
0.944424968
0.940547349
0.906777236
0.90462899
0.943536108
0.938904843
0.90736232
0.906494591
0.906806663
0.906032552
0.904775225
0.962174362
0.966931307
0.950394329
0.928007716
0.904319051
0.939486884
0.967852668
0.950197323
0.903026197
0.902713101
0.9524656
0.965732755
0.937045327
0.902705169
0.901231607
0.962470744
0.962381372
0.948735751
0.95144821
0.931843396
0.900946779
0.901307226
0.900517462
0.901864981
0.900337186
0.901427481
0.966936903
0.967702934
0.949255696
0.952876149
0.933223189
0.899634213
0.897717429
0.899978579
0.897679462
0.900208528
0.953558826
0.950748279
0.897548125
0.900296153
0.949303862
0.942124211
0.897111428
0.899967556
0.954379412
0.954950253
0.941729552
0.942389638
0.931372715
0.897858862
0.898323247
0.9362188
0.932589515
0.897235165