/*--------------------------------*- C++ -*----------------------------------*\
| =========                 |                                                 |
| \\      /  F ield         | OpenFOAM: The Open Source CFD Toolbox           |
|  \\    /   O peration     | Version:  2306                                  |
|   \\  /    A nd           | Website:  www.openfoam.com                      |
|    \\/     M anipulation  |                                                 |
\*---------------------------------------------------------------------------*/
FoamFile
{
    version     2.0;
    format      ascii;
    arch        "LSB;label=32;scalar=64";
    class       volScalarField;
    location    "0.0012";
    object      prefDZ_T;
}
// * * * * * * * * * * * * * * * * * * * * * * * * * * * * * * * * * * * * * //

dimensions      [1 -1 -1 -1 0 0 0];

internalField   nonuniform List<scalar> 
530
(
-1.1892723e-09
-1.22835205e-09
-1.22768996e-09
-1.19911873e-09
-1.18785425e-09
-1.18938692e-09
-1.22837175e-09
-1.22762851e-09
-1.19935024e-09
-1.18792531e-09
-1.18944068e-09
-1.228419e-09
-1.22761212e-09
-1.19968375e-09
-1.18790039e-09
-1.1889268e-09
-1.22845908e-09
-1.22713559e-09
-1.19953642e-09
-1.18889198e-09
-1.18762422e-09
-1.18982127e-09
-1.230378e-09
-1.22745952e-09
-1.22846679e-09
-1.22806225e-09
-1.2036618e-09
-1.18780704e-09
-1.18785143e-09
-1.23290776e-09
-1.22739323e-09
-1.20094347e-09
-1.18887376e-09
-1.18718764e-09
-1.18775512e-09
-1.23015523e-09
-1.22789816e-09
-1.2035139e-09
-1.18809301e-09
-1.18806568e-09
-1.23356729e-09
-1.22769813e-09
-1.2040742e-09
-1.18828115e-09
-1.18805882e-09
-1.2301701e-09
-1.22826266e-09
-1.22882484e-09
-1.22789813e-09
-1.20478947e-09
-1.18864346e-09
-1.18655933e-09
-1.18656635e-09
-1.23159705e-09
-1.22764892e-09
-1.20188268e-09
-1.1889379e-09
-1.18719271e-09
-1.18835675e-09
-1.23060689e-09
-1.22718937e-09
-1.20894887e-09
-1.18930824e-09
-1.18925459e-09
-1.23074761e-09
-1.22754293e-09
-1.20447501e-09
-1.18772878e-09
-1.18749235e-09
-1.23158921e-09
-1.22702251e-09
-1.20051108e-09
-1.19364242e-09
-1.22671415e-09
-1.22685994e-09
-1.20777423e-09
-1.19013887e-09
-1.18984712e-09
-1.18877372e-09
-1.18865957e-09
-1.23443258e-09
-1.22661245e-09
-1.22912247e-09
-1.20066403e-09
-1.18754969e-09
-1.18720052e-09
-1.23222397e-09
-1.22813534e-09
-1.19797037e-09
-1.19035057e-09
-1.22168124e-09
-1.22871793e-09
-1.2006206e-09
-1.18701285e-09
-1.18709717e-09
-1.23456158e-09
-1.22835722e-09
-1.19737219e-09
-1.1900648e-09
-1.22174012e-09
-1.22805457e-09
-1.19785961e-09
-1.19021048e-09
-1.22339037e-09
-1.22859936e-09
-1.20014292e-09
-1.18728893e-09
-1.18764214e-09
-1.23131134e-09
-1.22865721e-09
-1.19976989e-09
-1.18770174e-09
-1.18811944e-09
-1.23079251e-09
-1.22841242e-09
-1.19989454e-09
-1.18784674e-09
-1.18804697e-09
-1.23151623e-09
-1.22767278e-09
-1.19725331e-09
-1.19089453e-09
-1.22571506e-09
-1.22785923e-09
-1.20089573e-09
-1.18778709e-09
-1.18821241e-09
-1.2315669e-09
-1.2281393e-09
-1.20071045e-09
-1.18813674e-09
-1.18859392e-09
-1.23161633e-09
-1.22812677e-09
-1.20098736e-09
-1.18826104e-09
-1.18869615e-09
-1.23199559e-09
-1.22820712e-09
-1.20090493e-09
-1.18826222e-09
-1.18841523e-09
-1.23248169e-09
-1.22816928e-09
-1.19662891e-09
-1.19121511e-09
-1.22936628e-09
-1.2285174e-09
-1.19936904e-09
-1.18781254e-09
-1.18796855e-09
-1.2338226e-09
-1.22865769e-09
-1.19680789e-09
-1.19138903e-09
-1.2293721e-09
-1.22861229e-09
-1.20032042e-09
-1.18835915e-09
-1.18880097e-09
-1.23398389e-09
-1.22875863e-09
-1.20133475e-09
-1.18843745e-09
-1.18844882e-09
-1.23426197e-09
-1.22894783e-09
-1.19742045e-09
-1.19173363e-09
-1.22778631e-09
-1.22879147e-09
-1.2008411e-09
-1.18869892e-09
-1.1891507e-09
-1.23411027e-09
-1.22850691e-09
-1.20316255e-09
-1.1893909e-09
-1.18977938e-09
-1.2335271e-09
-1.22841101e-09
-1.20308262e-09
-1.18950443e-09
-1.18990104e-09
-1.23314761e-09
-1.22881981e-09
-1.20057202e-09
-1.18936442e-09
-1.18920608e-09
-1.18896571e-09
-1.18962834e-09
-1.23275348e-09
-1.23068013e-09
-1.19574588e-09
-1.19229355e-09
-1.23046166e-09
-1.23157218e-09
-1.19415451e-09
-1.1921986e-09
-1.23268007e-09
-1.23136571e-09
-1.19421537e-09
-1.18876683e-09
-1.19115443e-09
-1.23358215e-09
-1.23425521e-09
-1.19143292e-09
-1.19131897e-09
-1.23189677e-09
-1.23032316e-09
-1.19100267e-09
-1.19121045e-09
-1.23098084e-09
-1.22647387e-09
-1.18993385e-09
-1.19040415e-09
-1.23100515e-09
-1.22617731e-09
-1.19058082e-09
-1.1918845e-09
-1.2338239e-09
-1.22706782e-09
-1.19120995e-09
-1.19341068e-09
-1.23151695e-09
-1.23246206e-09
-1.19037515e-09
-1.18830919e-09
-1.19325431e-09
-1.23247336e-09
-1.2266961e-09
-1.19066615e-09
-1.19324422e-09
-1.23122391e-09
-1.22546962e-09
-1.19063144e-09
-1.19483846e-09
-1.23049765e-09
-1.23213609e-09
-1.18955049e-09
-1.18816455e-09
-1.19525397e-09
-1.23134532e-09
-1.22361483e-09
-1.19098781e-09
-1.19719871e-09
-1.2307561e-09
-1.23117849e-09
-1.18928101e-09
-1.18832754e-09
-1.19850987e-09
-1.23168854e-09
-1.23105004e-09
-1.18993711e-09
-1.18886635e-09
-1.20094841e-09
-1.2324854e-09
-1.21562462e-09
-1.19286347e-09
-1.20456109e-09
-1.23178407e-09
-1.21992478e-09
-1.19006441e-09
-1.18936006e-09
-1.20640827e-09
-1.2308355e-09
-1.23154237e-09
-1.19201337e-09
-1.1885777e-09
-1.18867781e-09
-1.21184067e-09
-1.23195594e-09
-1.21563806e-09
-1.19028664e-09
-1.18973741e-09
-1.21404959e-09
-1.2319237e-09
-1.21069457e-09
-1.18935845e-09
-1.1890492e-09
-1.214815e-09
-1.23242398e-09
-1.20467892e-09
-1.19380499e-09
-1.21676479e-09
-1.23188539e-09
-1.20540248e-09
-1.18938917e-09
-1.18975711e-09
-1.22274876e-09
-1.23115673e-09
-1.20706586e-09
-1.18971073e-09
-1.19003143e-09
-1.22328684e-09
-1.23117822e-09
-1.20621212e-09
-1.18951549e-09
-1.18999479e-09
-1.22278685e-09
-1.23112694e-09
-1.2066716e-09
-1.18942495e-09
-1.1899362e-09
-1.22153973e-09
-1.23071626e-09
-1.20951522e-09
-1.1896728e-09
-1.18999109e-09
-1.21929434e-09
-1.23063065e-09
-1.21134899e-09
-1.18950823e-09
-1.18973267e-09
-1.21547397e-09
-1.23030242e-09
-1.21528235e-09
-1.18897706e-09
-1.18892548e-09
-1.21014048e-09
-1.22898756e-09
-1.23106566e-09
-1.18970543e-09
-1.18939137e-09
-1.1909283e-09
-1.21259933e-09
-1.22726205e-09
-1.23264333e-09
-1.18924527e-09
-1.18810602e-09
-1.19815457e-09
-1.22748159e-09
-1.23051835e-09
-1.18951084e-09
-1.18750841e-09
-1.19482978e-09
-1.22794358e-09
-1.22983185e-09
-1.19095047e-09
-1.18777252e-09
-1.19035719e-09
-1.22990623e-09
-1.2309569e-09
-1.19240192e-09
-1.1919791e-09
-1.23346198e-09
-1.22966018e-09
-1.19811772e-09
-1.18856084e-09
-1.18886148e-09
-1.23146183e-09
-1.23000316e-09
-1.19798706e-09
-1.19213418e-09
-1.22331084e-09
-1.22890416e-09
-1.20635836e-09
-1.18993343e-09
-1.18931639e-09
-1.18790181e-09
-1.18789285e-09
-1.21419837e-09
-1.2300471e-09
-1.20248195e-09
-1.19095649e-09
-1.21409045e-09
-1.22954234e-09
-1.20829346e-09
-1.1884781e-09
-1.18753679e-09
-1.211188e-09
-1.23013538e-09
-1.20444481e-09
-1.19019563e-09
-1.20934362e-09
-1.23025894e-09
-1.20376771e-09
-1.18996567e-09
-1.20865478e-09
-1.23045938e-09
-1.20332871e-09
-1.18985015e-09
-1.20856664e-09
-1.23073937e-09
-1.20267357e-09
-1.18983703e-09
-1.20901005e-09
-1.23109939e-09
-1.20192702e-09
-1.18996372e-09
-1.21005417e-09
-1.23131555e-09
-1.20155163e-09
-1.19053588e-09
-1.21117922e-09
-1.23109881e-09
-1.20563066e-09
-1.1869672e-09
-1.18708496e-09
-1.21177407e-09
-1.2325869e-09
-1.2005932e-09
-1.19055994e-09
-1.21302361e-09
-1.23243167e-09
-1.19976185e-09
-1.19072681e-09
-1.21448296e-09
-1.23240763e-09
-1.19949558e-09
-1.19101061e-09
-1.21497656e-09
-1.23175118e-09
-1.20284603e-09
-1.18718687e-09
-1.18767295e-09
-1.21560675e-09
-1.23281854e-09
-1.19903514e-09
-1.19070902e-09
-1.21632392e-09
-1.23209105e-09
-1.19870566e-09
-1.19087974e-09
-1.21813561e-09
-1.23152284e-09
-1.19863518e-09
-1.19141292e-09
-1.22005903e-09
-1.23052089e-09
-1.20335732e-09
-1.1881112e-09
-1.18846857e-09
-1.21785154e-09
-1.22735057e-09
-1.2304105e-09
-1.19857208e-09
-1.18819791e-09
-1.18788652e-09
-1.18714524e-09
-1.18777812e-09
-1.21631514e-09
-1.2273297e-09
-1.22970438e-09
-1.1960478e-09
-1.19054474e-09
-1.22334463e-09
-1.22867345e-09
-1.20830705e-09
-1.18851682e-09
-1.18853936e-09
-1.23045838e-09
-1.22868207e-09
-1.19485361e-09
-1.19064436e-09
-1.23255566e-09
-1.22828924e-09
-1.20060255e-09
-1.18800426e-09
-1.18856351e-09
-1.2315765e-09
-1.22836793e-09
-1.20186057e-09
-1.18804087e-09
-1.18862208e-09
-1.231544e-09
-1.22842299e-09
-1.20159073e-09
-1.18783756e-09
-1.18792488e-09
-1.23393509e-09
-1.22852227e-09
-1.19415762e-09
-1.19009431e-09
-1.22785902e-09
-1.22892832e-09
-1.19966765e-09
-1.18754593e-09
-1.18784695e-09
-1.23346285e-09
-1.22899602e-09
-1.20152036e-09
-1.18773826e-09
-1.18765515e-09
-1.23285335e-09
-1.22898571e-09
-1.19530527e-09
-1.19059035e-09
-1.22578193e-09
-1.22913084e-09
-1.20181975e-09
-1.18782924e-09
-1.18751094e-09
-1.23081106e-09
-1.22921137e-09
-1.19550662e-09
-1.19026271e-09
-1.22546166e-09
-1.22886845e-09
-1.19572656e-09
-1.1908142e-09
-1.22772155e-09
-1.22889644e-09
-1.20220984e-09
-1.18807775e-09
-1.18805465e-09
-1.23431159e-09
-1.22880626e-09
-1.20376161e-09
-1.18819388e-09
-1.18822431e-09
-1.23405113e-09
-1.22857295e-09
-1.20493709e-09
-1.1883514e-09
-1.1883785e-09
-1.23364251e-09
-1.22839853e-09
-1.20499258e-09
-1.188263e-09
-1.18832577e-09
-1.23334145e-09
-1.22822879e-09
-1.20521861e-09
-1.18813806e-09
-1.18823542e-09
-1.2327608e-09
-1.22807448e-09
-1.20481114e-09
-1.18786105e-09
)
;

boundaryField
{
    closed
    {
        type            calculated;
        value           nonuniform List<scalar> 0();
    }
    open
    {
        type            calculated;
        value           nonuniform List<scalar> 0();
    }
    sides
    {
        type            empty;
    }
    procBoundary2to1
    {
        type            processor;
        value           uniform -1.18777787e-09;
    }
    procBoundary2to3
    {
        type            processor;
        value           uniform -1.1880215e-09;
    }
}


// ************************************************************************* //
