/*--------------------------------*- C++ -*----------------------------------*\
| =========                 |                                                 |
| \\      /  F ield         | OpenFOAM: The Open Source CFD Toolbox           |
|  \\    /   O peration     | Version:  2306                                  |
|   \\  /    A nd           | Website:  www.openfoam.com                      |
|    \\/     M anipulation  |                                                 |
\*---------------------------------------------------------------------------*/
FoamFile
{
    version     2.0;
    format      ascii;
    arch        "LSB;label=32;scalar=64";
    class       volScalarField;
    location    "0.00072";
    object      prefDZ_H;
}
// * * * * * * * * * * * * * * * * * * * * * * * * * * * * * * * * * * * * * //

dimensions      [1 -1 -1 0 0 0 0];

internalField   nonuniform List<scalar> 
531
(
0.000110101217
0.000108113543
0.000107154919
0.000106764199
0.0001085671
0.000110184203
0.000108188584
0.000107135403
0.000106650687
0.000108299248
0.000110259607
0.000107871872
0.000107418201
0.000108200651
0.000110255385
0.00010814895
0.000107603169
0.000107796294
0.000107812035
0.0001077609
0.00010761532
0.000108547487
0.000110285702
0.00011025173
0.000108194088
0.000106683806
0.000106097239
0.000108396727
0.000110119553
0.000108105135
0.000106806797
0.000106208627
0.000108182688
0.000110115611
0.000107840537
0.000106666139
0.000107909188
0.000110139756
0.000107734552
0.000106859528
0.000107803916
0.000110048233
0.000110298416
0.000107958882
0.000106441048
0.000106070739
0.0001083465
0.000110092415
0.000108131195
0.000106816556
0.000106364977
0.000108302088
0.00011017812
0.000107820435
0.00010684504
0.000108156561
0.000110239661
0.000107772405
0.000107028355
0.00010818485
0.000110194595
0.000108638103
0.000107791855
0.000106896759
0.000106829375
0.000108432716
0.000110154228
0.000108211974
0.000106857431
0.000106480443
0.000108537893
0.000110251497
0.000107800802
0.000106774145
0.000108428225
0.000110203394
0.000107707364
0.000106460219
0.000108394359
0.000110216641
0.000110208307
0.00010800178
0.000106363406
0.000106243263
0.000108841943
0.000110214973
0.000108352936
0.000107838672
0.000107541899
0.000106251103
0.00010626396
0.000108857484
0.000110230104
0.000110087521
0.000108130658
0.000106489787
0.00010639498
0.000109636609
0.000110307021
0.00010790225
0.000106664166
0.000108922187
0.00011024942
0.000107747794
0.000106345156
0.000107860979
0.000110121543
0.000109846842
0.000107230438
0.000106103277
0.000108346901
0.000110220379
0.000107707594
0.000106364888
0.00010827374
0.000110147267
0.000108272367
0.000106492286
0.000106522577
0.000109835562
0.000110227283
0.0001084841
0.000107024733
0.000106705361
0.000108762697
0.000110191621
0.000108422563
0.000107232553
0.000106804587
0.000108309977
0.000110266465
0.000108419633
0.000107486152
0.000105938099
0.000107691726
0.000110119784
0.000108041255
0.000106637346
0.000107883947
0.000110145739
0.000108454857
0.000106463082
0.000106798023
0.000110148688
0.000108835981
0.000106822489
0.000107770169
0.000110197646
0.000109235633
0.000107195431
0.000106784786
0.000108395783
0.000110297979
0.000109406907
0.000107776357
0.000106649996
0.000106697067
0.000107970867
0.000110219187
0.00010797637
0.000106464309
0.000107890846
0.000110336476
0.000107789284
0.000107132902
0.000110263203
0.000108679325
0.00010645786
0.000107742905
0.000110298575
0.000110336538
0.000107703739
0.00010629801
0.000107732194
0.000110256422
0.000110391151
0.00010780553
0.0001062795
0.000108131996
0.000110253147
0.000107713098
0.000106538188
0.000107861786
0.000110242571
0.000109712242
0.00010697801
0.000105931196
0.000108369973
0.000110243763
0.000107719329
0.00010647857
0.00010787476
0.000110271974
0.000109934714
0.000107218823
0.000105898617
0.000107952002
0.000110237951
0.000107825342
0.000106580102
0.00010772461
0.00011032586
0.000110391555
0.000107640898
0.00010636172
0.000107815518
0.000110292291
0.000109927786
0.000107488386
0.000105988076
0.000107717375
0.00011029599
0.000110434012
0.000107805162
0.0001066515
0.000107832754
0.000110301665
0.000109988051
0.000107306263
0.000105817759
0.000107780287
0.000110257273
0.000109902664
0.000107241825
0.000105882464
0.000107766205
0.000110240738
0.000110289939
0.000107449369
0.000106079609
0.000107868904
0.000110217644
0.000107962942
0.000106853404
0.000107782658
0.000110319957
0.000110179078
0.00010748358
0.000106087888
0.000107765195
0.000110254356
0.000110289854
0.000107545426
0.000105921536
0.000107715051
0.000110194895
0.000107975424
0.000106556246
0.000108005719
0.000110313335
0.000107747459
0.000106459958
0.000109207086
0.000110271192
0.000107765191
0.00010654084
0.000107782138
0.000110209571
0.000110266209
0.000106953383
0.000105600232
0.000108677232
0.000110228672
0.000107427488
0.000107413461
0.000110385642
0.000110347735
0.00010778989
0.000106386624
0.00010781176
0.000110269327
0.000110232827
0.000107514657
0.000105844362
0.000107731045
0.000110132466
0.00010934298
0.000106576084
0.000107192222
0.000110231111
0.000109369438
0.000106820589
0.000107787709
0.00011033337
0.000110324658
0.000107712822
0.000105721304
0.000107674246
0.000109816507
0.000110523858
0.000109707041
0.000107608967
0.000105523232
0.000107656708
0.00010996706
0.000110454568
0.000108797003
0.000107751737
0.000106827859
0.000106121039
0.000107398637
0.000110135466
0.000109883466
0.000106736742
0.000107005223
0.000110264473
0.000110347948
0.000107793776
0.000106615807
0.000107777861
0.000110262894
0.000110315342
0.000107699962
0.000105828508
0.000107731088
0.000110118825
0.000108752228
0.000107109931
0.000107789524
0.000110252454
0.000110343343
0.000107730795
0.000106183114
0.00010774305
0.000110145374
0.000110359592
0.000107739168
0.000106327031
0.000107731607
0.000110141519
0.000110305424
0.000107749805
0.000106330406
0.000107732696
0.000110143773
0.00011026134
0.000107735008
0.000106281888
0.000107732975
0.000110123271
0.000110221348
0.000107735472
0.000106270344
0.000107729913
0.000110098701
0.000110240376
0.000107746776
0.000106384264
0.000107735633
0.000110080346
0.000110248482
0.000107742909
0.000106402948
0.000107748885
0.000110101386
0.000109911418
0.000107638477
0.000106160803
0.000107743317
0.000110051114
0.000109993706
0.00010746839
0.000106147088
0.000107715824
0.000110020527
0.000110092245
0.000107604794
0.000106326297
0.000107802636
0.000110076465
0.000107876412
0.000107244887
0.000108670668
0.00011019687
0.000108644166
0.00010680316
0.000106197576
0.000108041651
0.000109900401
0.000110260346
0.000109443436
0.000107815086
0.000106986745
0.000106883804
0.000106363044
0.000107728076
0.000109979288
0.000110433658
0.000107886264
0.000106874276
0.000107940199
0.000110154196
0.000107803025
0.0001068749
0.000108889584
0.000110224569
0.00010831165
0.000106982909
0.000106381384
0.000107818019
0.000110113941
0.000107819409
0.000106846704
0.000109614366
0.000110282568
0.000108163237
0.000106933855
0.000106342614
0.000107787993
0.000110139302
0.000107787519
0.000106645294
0.000108666524
0.000110246558
0.000107894712
0.00010674197
0.000109661423
0.00011016439
0.00010824512
0.000106435255
0.000106393291
0.000109483477
0.000110258573
0.000108242068
0.000107860637
0.000107095167
0.000106564371
0.000107720446
0.000110107926
0.000110424013
0.000107810067
0.000106655299
0.000107822226
0.000110151093
0.000110338503
0.000107524697
0.000105925272
0.000107979276
0.00011008123
0.000110278597
0.000108137228
0.00010745783
0.000106753408
0.000106024412
0.000107682292
0.000109960364
0.000110436236
0.000107914395
0.000106335415
0.000109565271
0.000110113212
0.000108224191
0.000106211661
0.000106133655
0.000109323791
0.00011019793
0.000108014614
0.000106788927
0.000109605141
0.000110127606
0.000108241245
0.000106102378
0.000106029275
0.000109301194
0.000110203832
0.000108006225
0.000106649515
0.000109612355
0.000110112025
0.000108195134
0.00010594364
0.000105845607
0.00010922285
0.000110234261
0.000108003328
0.000106537967
0.000109468406
0.000110249549
0.000108018695
0.000106564652
0.000109478352
0.000110135512
0.00010833516
0.000106422526
0.00010639
0.000109368692
0.000108047654
0.000106205868
0.000109752484
0.000110211478
0.000107770296
0.000106654447
0.000107703468
0.000110074992
0.000110413114
0.000107991656
0.000106671918
0.000107557851
0.000109949921
0.00011029338
0.000108190778
0.000105677674
0.000105460877
0.000108999895
0.000110058709
0.000108220703
0.000105933434
0.000105848401
0.00010903313
0.000110170794
0.000107998459
0.000106553611
0.000109352878
0.000110119873
0.000108436142
0.000106469938
0.000106423246
0.000109298872
0.000107998984
0.000106224645
0.000109520676
0.000110191719
0.000108001223
0.000106689141
0.000109410415
0.000110138741
0.000108548716
0.000106432473
0.000106146669
0.000108743933
0.000110075446
)
;

boundaryField
{
    closed
    {
        type            calculated;
        value           nonuniform List<scalar> 0();
    }
    open
    {
        type            calculated;
        value           nonuniform List<scalar> 0();
    }
    sides
    {
        type            empty;
    }
    procBoundary1to0
    {
        type            processor;
        value           uniform 0.000108134575;
    }
    procBoundary1to2
    {
        type            processor;
        value           uniform 0.000109193409;
    }
}


// ************************************************************************* //
