/*--------------------------------*- C++ -*----------------------------------*\
| =========                 |                                                 |
| \\      /  F ield         | OpenFOAM: The Open Source CFD Toolbox           |
|  \\    /   O peration     | Version:  2306                                  |
|   \\  /    A nd           | Website:  www.openfoam.com                      |
|    \\/     M anipulation  |                                                 |
\*---------------------------------------------------------------------------*/
FoamFile
{
    version     2.0;
    format      ascii;
    arch        "LSB;label=32;scalar=64";
    class       volScalarField;
    location    "0.00072";
    object      prefDPV_H2;
}
// * * * * * * * * * * * * * * * * * * * * * * * * * * * * * * * * * * * * * //

dimensions      [1 -1 -1 0 0 0 0];

internalField   nonuniform List<scalar> 
531
(
-3.14834956e-05
-3.09880735e-05
-3.0748259e-05
-3.06514241e-05
-3.11027482e-05
-3.15031546e-05
-3.10070709e-05
-3.07431735e-05
-3.06231167e-05
-3.10350697e-05
-3.15217452e-05
-3.0926709e-05
-3.08127398e-05
-3.10101489e-05
-3.15207012e-05
-3.09970441e-05
-3.08583366e-05
-3.09064883e-05
-3.09116414e-05
-3.08977125e-05
-3.08615146e-05
-3.10977671e-05
-3.15274796e-05
-3.15189401e-05
-3.10084736e-05
-3.06313904e-05
-3.04863327e-05
-3.1059703e-05
-3.14878156e-05
-3.09859164e-05
-3.06620006e-05
-3.05139983e-05
-3.10056073e-05
-3.14871602e-05
-3.09187268e-05
-3.0627094e-05
-3.09363914e-05
-3.14938826e-05
-3.0891919e-05
-3.06750425e-05
-3.09097036e-05
-3.14706596e-05
-3.15308199e-05
-3.09488592e-05
-3.05717307e-05
-3.04798325e-05
-3.10470177e-05
-3.14811679e-05
-3.09925179e-05
-3.06645108e-05
-3.05526361e-05
-3.10357885e-05
-3.15021151e-05
-3.09135221e-05
-3.06712616e-05
-3.09990012e-05
-3.15174993e-05
-3.09013834e-05
-3.07166452e-05
-3.10061534e-05
-3.15055452e-05
-3.11207569e-05
-3.09055545e-05
-3.06846147e-05
-3.06674748e-05
-3.10687963e-05
-3.14959702e-05
-3.10129917e-05
-3.06746404e-05
-3.05811013e-05
-3.10953601e-05
-3.15198103e-05
-3.09083362e-05
-3.06539505e-05
-3.10676657e-05
-3.15093669e-05
-3.0884248e-05
-3.05763524e-05
-3.10590913e-05
-3.15107913e-05
-3.15085776e-05
-3.09597452e-05
-3.05524952e-05
-3.05223812e-05
-3.11721326e-05
-3.151014e-05
-3.1048668e-05
-3.09172833e-05
-3.08440523e-05
-3.05246962e-05
-3.05276142e-05
-3.11760324e-05
-3.15138749e-05
-3.14792423e-05
-3.09924027e-05
-3.05841008e-05
-3.05601378e-05
-3.13726584e-05
-3.15334984e-05
-3.09331969e-05
-3.06268121e-05
-3.11923821e-05
-3.15194873e-05
-3.08947327e-05
-3.05478854e-05
-3.09241335e-05
-3.14882749e-05
-3.14235836e-05
-3.07666302e-05
-3.04883833e-05
-3.10471113e-05
-3.15127624e-05
-3.08845294e-05
-3.05526952e-05
-3.10286209e-05
-3.14943903e-05
-3.10282822e-05
-3.05846263e-05
-3.05917504e-05
-3.14221924e-05
-3.15129964e-05
-3.10818396e-05
-3.0715958e-05
-3.06371211e-05
-3.11521236e-05
-3.15045249e-05
-3.10662758e-05
-3.07673665e-05
-3.06616315e-05
-3.10377888e-05
-3.1522809e-05
-3.10655343e-05
-3.08295145e-05
-3.04474194e-05
-3.08803946e-05
-3.14891271e-05
-3.09698092e-05
-3.06202836e-05
-3.09299874e-05
-3.14940685e-05
-3.10744199e-05
-3.05772584e-05
-3.0660169e-05
-3.14960902e-05
-3.11706639e-05
-3.06660288e-05
-3.0901007e-05
-3.15064005e-05
-3.12715228e-05
-3.07582742e-05
-3.06567098e-05
-3.10594843e-05
-3.15298678e-05
-3.13148137e-05
-3.09017745e-05
-3.06236338e-05
-3.06346557e-05
-3.09519702e-05
-3.15116634e-05
-3.09533332e-05
-3.05773395e-05
-3.09316882e-05
-3.15413351e-05
-3.09046315e-05
-3.07429007e-05
-3.15241373e-05
-3.11311115e-05
-3.05758005e-05
-3.08935487e-05
-3.15309114e-05
-3.15411423e-05
-3.08834033e-05
-3.05364888e-05
-3.08910957e-05
-3.15205852e-05
-3.15532153e-05
-3.09087345e-05
-3.05316423e-05
-3.09927849e-05
-3.15202256e-05
-3.08863166e-05
-3.05956622e-05
-3.09242544e-05
-3.15170693e-05
-3.13917731e-05
-3.07041484e-05
-3.04458388e-05
-3.10529468e-05
-3.1517941e-05
-3.08876411e-05
-3.05809051e-05
-3.09275186e-05
-3.15240939e-05
-3.14450952e-05
-3.07635016e-05
-3.04378052e-05
-3.09472173e-05
-3.15164134e-05
-3.09150375e-05
-3.06059576e-05
-3.08891026e-05
-3.15372818e-05
-3.15537503e-05
-3.08680303e-05
-3.05520649e-05
-3.09122742e-05
-3.15290671e-05
-3.1443522e-05
-3.08301419e-05
-3.04600425e-05
-3.08869194e-05
-3.15302522e-05
-3.15633826e-05
-3.09088206e-05
-3.06235952e-05
-3.09166845e-05
-3.15313319e-05
-3.14578491e-05
-3.07851e-05
-3.04178365e-05
-3.09029871e-05
-3.15209725e-05
-3.14376228e-05
-3.07692415e-05
-3.04338684e-05
-3.08994045e-05
-3.15169055e-05
-3.15297181e-05
-3.0820667e-05
-3.04824427e-05
-3.09261095e-05
-3.15113584e-05
-3.09499493e-05
-3.06736084e-05
-3.09038355e-05
-3.15357871e-05
-3.15034009e-05
-3.08290239e-05
-3.04846561e-05
-3.08992816e-05
-3.15201158e-05
-3.15296723e-05
-3.08442557e-05
-3.04433565e-05
-3.0886883e-05
-3.15061501e-05
-3.09531307e-05
-3.06000417e-05
-3.09608227e-05
-3.15348786e-05
-3.08945381e-05
-3.05761484e-05
-3.12642484e-05
-3.15242503e-05
-3.08991922e-05
-3.05963581e-05
-3.09038331e-05
-3.15092044e-05
-3.15238302e-05
-3.06982693e-05
-3.03639366e-05
-3.11305616e-05
-3.15152886e-05
-3.08153726e-05
-3.08123548e-05
-3.1552255e-05
-3.15429233e-05
-3.09047233e-05
-3.05581687e-05
-3.09114331e-05
-3.15235431e-05
-3.1516057e-05
-3.08365814e-05
-3.04244007e-05
-3.08906165e-05
-3.14909752e-05
-3.12985886e-05
-3.06050779e-05
-3.07578034e-05
-3.15152596e-05
-3.13052704e-05
-3.06654563e-05
-3.09048049e-05
-3.15396618e-05
-3.15372364e-05
-3.08855203e-05
-3.03939937e-05
-3.08759324e-05
-3.1415756e-05
-3.15843525e-05
-3.13896231e-05
-3.08592704e-05
-3.03453431e-05
-3.08715662e-05
-3.1451743e-05
-3.15674726e-05
-3.11608693e-05
-3.08955271e-05
-3.06672978e-05
-3.04924402e-05
-3.08087226e-05
-3.14924012e-05
-3.14331741e-05
-3.06447837e-05
-3.071142e-05
-3.1523494e-05
-3.1542295e-05
-3.09067488e-05
-3.06146441e-05
-3.09021381e-05
-3.15226642e-05
-3.15358371e-05
-3.08822301e-05
-3.04203081e-05
-3.08902515e-05
-3.14881521e-05
-3.114951e-05
-3.0737032e-05
-3.09050862e-05
-3.15200025e-05
-3.15424204e-05
-3.08899253e-05
-3.05080715e-05
-3.08933608e-05
-3.14942969e-05
-3.1546163e-05
-3.08921934e-05
-3.05436188e-05
-3.08907363e-05
-3.1493228e-05
-3.15334093e-05
-3.08947205e-05
-3.05445299e-05
-3.08911215e-05
-3.1493735e-05
-3.1522917e-05
-3.08910034e-05
-3.05325754e-05
-3.08910885e-05
-3.14889149e-05
-3.15134299e-05
-3.089107e-05
-3.05297512e-05
-3.08903009e-05
-3.14829971e-05
-3.15179057e-05
-3.08939679e-05
-3.05579685e-05
-3.08918278e-05
-3.14784934e-05
-3.15197006e-05
-3.08930431e-05
-3.05625379e-05
-3.08953695e-05
-3.1483581e-05
-3.1439196e-05
-3.08670614e-05
-3.05027038e-05
-3.0893525e-05
-3.14719074e-05
-3.14590243e-05
-3.08249951e-05
-3.04992549e-05
-3.08867338e-05
-3.14644215e-05
-3.14826057e-05
-3.08587588e-05
-3.05434814e-05
-3.09093413e-05
-3.14776087e-05
-3.09278262e-05
-3.07704517e-05
-3.11288649e-05
-3.15061835e-05
-3.11222857e-05
-3.06607922e-05
-3.05115617e-05
-3.09699428e-05
-3.14351797e-05
-3.15213158e-05
-3.1324041e-05
-3.09111785e-05
-3.0707087e-05
-3.06806482e-05
-3.05523932e-05
-3.08893584e-05
-3.14547762e-05
-3.15629126e-05
-3.09303289e-05
-3.06783649e-05
-3.09442498e-05
-3.14964275e-05
-3.09090079e-05
-3.06788585e-05
-3.1184104e-05
-3.15129147e-05
-3.10382208e-05
-3.07051747e-05
-3.05567419e-05
-3.0913225e-05
-3.14868202e-05
-3.09129719e-05
-3.06718415e-05
-3.13669328e-05
-3.15267912e-05
-3.10006384e-05
-3.06929636e-05
-3.05470839e-05
-3.09056071e-05
-3.14930765e-05
-3.09051043e-05
-3.06218604e-05
-3.11278208e-05
-3.15184359e-05
-3.09314189e-05
-3.06460022e-05
-3.13788117e-05
-3.14980897e-05
-3.10213781e-05
-3.05705256e-05
-3.05597439e-05
-3.13339653e-05
-3.15205149e-05
-3.10206073e-05
-3.09226579e-05
-3.07331497e-05
-3.06019103e-05
-3.08875989e-05
-3.14854932e-05
-3.15605776e-05
-3.09109054e-05
-3.06243236e-05
-3.09143284e-05
-3.14955273e-05
-3.15412696e-05
-3.08387137e-05
-3.04440262e-05
-3.09541639e-05
-3.14782602e-05
-3.15256186e-05
-3.09940665e-05
-3.08231978e-05
-3.06481982e-05
-3.04685974e-05
-3.08778861e-05
-3.14500622e-05
-3.15638112e-05
-3.0936258e-05
-3.05452913e-05
-3.13545523e-05
-3.14859064e-05
-3.10160744e-05
-3.05152991e-05
-3.04955507e-05
-3.12937011e-05
-3.15064008e-05
-3.09614359e-05
-3.06578167e-05
-3.13646662e-05
-3.14891825e-05
-3.10203934e-05
-3.04881178e-05
-3.04696412e-05
-3.12879857e-05
-3.15079352e-05
-3.09592607e-05
-3.0623316e-05
-3.13664798e-05
-3.14854907e-05
-3.10087115e-05
-3.04488686e-05
-3.04241305e-05
-3.12682243e-05
-3.15154201e-05
-3.09585809e-05
-3.05954152e-05
-3.13301811e-05
-3.15188707e-05
-3.09624004e-05
-3.06021901e-05
-3.13326835e-05
-3.14911056e-05
-3.10441713e-05
-3.05674219e-05
-3.05591307e-05
-3.13050502e-05
-3.09713341e-05
-3.05135687e-05
-3.14017649e-05
-3.15096988e-05
-3.0900531e-05
-3.0624443e-05
-3.08833926e-05
-3.14775523e-05
-3.15579119e-05
-3.09571703e-05
-3.06285894e-05
-3.08475922e-05
-3.14476709e-05
-3.15290442e-05
-3.10076024e-05
-3.03826175e-05
-3.0329023e-05
-3.12119535e-05
-3.14730696e-05
-3.10151899e-05
-3.04463877e-05
-3.04249456e-05
-3.12203667e-05
-3.15000404e-05
-3.09572846e-05
-3.05995806e-05
-3.13010355e-05
-3.14873161e-05
-3.1069721e-05
-3.0579124e-05
-3.05673675e-05
-3.12874299e-05
-3.09589491e-05
-3.05182396e-05
-3.13433333e-05
-3.15048928e-05
-3.0957943e-05
-3.06330869e-05
-3.1315538e-05
-3.1491881e-05
-3.10981807e-05
-3.05696081e-05
-3.04989788e-05
-3.11473752e-05
-3.14766801e-05
)
;

boundaryField
{
    closed
    {
        type            calculated;
        value           nonuniform List<scalar> 0();
    }
    open
    {
        type            calculated;
        value           nonuniform List<scalar> 0();
    }
    sides
    {
        type            empty;
    }
    procBoundary1to0
    {
        type            processor;
        value           uniform -3.09934417e-05;
    }
    procBoundary1to2
    {
        type            processor;
        value           uniform -3.12609665e-05;
    }
}


// ************************************************************************* //
