/*--------------------------------*- C++ -*----------------------------------*\
| =========                 |                                                 |
| \\      /  F ield         | OpenFOAM: The Open Source CFD Toolbox           |
|  \\    /   O peration     | Version:  2306                                  |
|   \\  /    A nd           | Website:  www.openfoam.com                      |
|    \\/     M anipulation  |                                                 |
\*---------------------------------------------------------------------------*/
FoamFile
{
    version     2.0;
    format      ascii;
    arch        "LSB;label=32;scalar=64";
    class       volScalarField;
    location    "0.00114";
    object      prefDZ_H;
}
// * * * * * * * * * * * * * * * * * * * * * * * * * * * * * * * * * * * * * //

dimensions      [1 -1 -1 0 0 0 0];

internalField   nonuniform List<scalar> 
530
(
0.000110409764
0.000110192833
0.000107840281
0.000106553205
0.000107743365
0.000110406285
0.000110180807
0.000107730449
0.000106583517
0.000107748802
0.000110402266
0.000110168401
0.000107693385
0.000106611793
0.000107746734
0.000110368615
0.000110201849
0.000107413793
0.000106748385
0.000106942405
0.000107798225
0.000110365645
0.000110268317
0.00011033418
0.00010995104
0.000107107278
0.000106323295
0.0001077571
0.000110321979
0.000110122172
0.000106794822
0.000106553144
0.000106871208
0.000107809034
0.00011038758
0.000109982728
0.000106697499
0.000106455077
0.00010785277
0.000110303269
0.00010993258
0.00010652424
0.000106480662
0.000107914114
0.000110228364
0.000110130904
0.000110163419
0.000109573532
0.000106374373
0.000106316011
0.000106895278
0.00010787074
0.000110258471
0.000109206024
0.00010614996
0.000106128219
0.000106887136
0.00010790516
0.000110419188
0.00011002933
0.000107703183
0.000107508255
0.00010796471
0.000110301466
0.000108707936
0.000106226433
0.000106513321
0.000108103652
0.000110246106
0.000108436716
0.000107759616
0.000108000359
0.000110399533
0.000108793771
0.000107782261
0.000107877873
0.000107765807
0.000107837989
0.000107732201
0.000109001349
0.000110236362
0.000108060653
0.000106255493
0.000106814081
0.000108410577
0.000110137729
0.000107948611
0.000107614724
0.000108130799
0.000110100404
0.000107811608
0.000106057356
0.000106954078
0.000108661025
0.00011004045
0.000107770401
0.000107716205
0.000108437484
0.000110046334
0.000107707662
0.000107784598
0.000108522472
0.000110046097
0.00010769427
0.000106246709
0.000107443132
0.000109110304
0.000109974091
0.000107707338
0.000106346793
0.000107597736
0.000109257519
0.000109991344
0.000107702899
0.000106332162
0.000107581094
0.000109225158
0.000110131693
0.000107764912
0.000107914609
0.000108665678
0.000110058709
0.000107686556
0.000106325253
0.000107716746
0.000109593128
0.000110056588
0.000107715467
0.000106369646
0.000107758389
0.000109675697
0.000110105326
0.000107728782
0.000106380023
0.000107735459
0.000109717793
0.00011012864
0.000107737942
0.000106293738
0.000107630051
0.000109806012
0.00011025747
0.000107789891
0.000107751267
0.000108881429
0.00011013913
0.000107711301
0.000106025636
0.000107324392
0.000109888676
0.00011027916
0.000107822982
0.00010763281
0.000108981668
0.00011015201
0.000107769684
0.000106478705
0.00010745947
0.000109970929
0.000110209783
0.000107762511
0.000106248853
0.000107146926
0.000109867671
0.000110321423
0.000107816677
0.000107594804
0.000108872016
0.000110144463
0.000107821953
0.000106544366
0.000107115098
0.000109796637
0.000110259803
0.000107893439
0.000106818242
0.000107142865
0.000109737293
0.000110267189
0.000107977274
0.000106979999
0.000107029615
0.000109672461
0.000110281373
0.000107931638
0.000106956639
0.000106982649
0.000106759575
0.000106757788
0.000109210917
0.000110303888
0.000107894864
0.000107804176
0.00010822708
0.000110154217
0.000107923407
0.000107782499
0.000108127483
0.00011002731
0.000108072748
0.000106608135
0.000106335289
0.000108707903
0.000110212432
0.000107866266
0.000107436779
0.000107959675
0.000110015505
0.000107917076
0.000107446733
0.00010788404
0.00010991565
0.000108117822
0.000106604383
0.000106222164
0.000108362749
0.000110135917
0.000107883879
0.000107383492
0.000107895407
0.000109962703
0.000107908083
0.000107278988
0.000107831324
0.00010992933
0.000107921396
0.000107174486
0.000107673418
0.000109733391
0.000108852574
0.000107392705
0.000106596669
0.000108019079
0.00011005926
0.000108063566
0.000107600261
0.000107793788
0.000109930896
0.000108219409
0.000107420059
0.000107850676
0.000109414051
0.000109925485
0.000107692072
0.000106597179
0.000107635392
0.000109811526
0.000109122743
0.000107738035
0.000106634513
0.000107769934
0.000109965215
0.000108748117
0.000107808336
0.000107447785
0.000108484038
0.000110102196
0.000107971137
0.00010697606
0.000107618411
0.00010966872
0.000109754368
0.000107759253
0.000106926694
0.000107708987
0.000109840113
0.000109834695
0.000107737247
0.000106872375
0.0001066739
0.000107795236
0.000109966394
0.000109623352
0.000107706059
0.000106782414
0.00010765387
0.000109827859
0.000109768218
0.000107703937
0.000106529689
0.000107637012
0.000109773099
0.000109320912
0.000107884903
0.000107780946
0.000109765794
0.000109834713
0.000107732635
0.000106776657
0.000107696119
0.000109904699
0.000109936544
0.000107724428
0.000106727255
0.000107686186
0.000109931541
0.000109970871
0.000107738424
0.000106643498
0.000107692112
0.000109992131
0.000109993702
0.000107758546
0.000106644861
0.000107694107
0.000110052531
0.000110027572
0.000107812987
0.000107095139
0.000107873866
0.000110069062
0.000108557018
0.000107137456
0.000107179373
0.000108857709
0.000110143731
0.000108118844
0.000107124081
0.000106805934
0.000107815446
0.000110177969
0.000109862279
0.000107855291
0.000106669548
0.000107745618
0.000109485909
0.000110251847
0.000108736832
0.000107658743
0.00010661716
0.000107730144
0.000110099833
0.000109799516
0.000107840294
0.000106677349
0.00010773517
0.000110045134
0.00010973029
0.000107857617
0.000106787983
0.000107727624
0.000110046592
0.000109705185
0.000107967684
0.000107957652
0.000109284148
0.000109623401
0.000107825402
0.000106919204
0.000107721362
0.000110039261
0.0001095393
0.000107965715
0.000107919516
0.000109493031
0.000109461064
0.000107916867
0.000106982963
0.000107072308
0.000106905393
0.000107738759
0.00011005223
0.00010925551
0.000107962859
0.000107844593
0.000109517887
0.000109232866
0.000107652218
0.0001066223
0.000107685746
0.000109975221
0.000108901501
0.000107995104
0.000107777678
0.000109450828
0.000108621984
0.000107971991
0.000107746711
0.000109481131
0.000108451957
0.000107958633
0.000107731184
0.000109502972
0.000108320694
0.000107894348
0.000107730236
0.000109510813
0.000108204274
0.000107858246
0.000107739956
0.000109565746
0.000108101991
0.00010776801
0.000107759023
0.000109711966
0.000108333457
0.000106325487
0.000106441536
0.000107863214
0.000109896195
0.000108073451
0.00010785038
0.000107852371
0.000109867976
0.000107969321
0.000107754619
0.000107896001
0.000109884416
0.00010789783
0.00010762833
0.000107905178
0.000109967511
0.000108034031
0.000106152036
0.000106565006
0.000108123677
0.000109965211
0.000107915805
0.000107727942
0.000108014671
0.000110048236
0.000107874118
0.000107741589
0.000108084616
0.000110068334
0.000107848063
0.000107686173
0.000107989286
0.000110213213
0.000108391508
0.00010675811
0.00010719102
0.000108345468
0.000110226269
0.000109243234
0.000106814485
0.000106809459
0.000107182256
0.00010695405
0.000107723035
0.000110291767
0.000110322512
0.000109027252
0.000107220167
0.000107299457
0.000108437542
0.000110224748
0.000108956415
0.000106604978
0.000106797627
0.000108899965
0.000110185681
0.000107810062
0.000107693199
0.000108354302
0.000110272566
0.000107949101
0.000106461442
0.000107129885
0.000108824233
0.000110236504
0.000107982138
0.000106462219
0.000107186843
0.00010953291
0.000110198056
0.000107815259
0.000106551595
0.000107876175
0.000110095448
0.000110174862
0.000107484185
0.000106949633
0.000108602672
0.000110127488
0.000107844149
0.000106278803
0.000106913716
0.000109918733
0.000110172055
0.000107811867
0.000106342942
0.000107247883
0.000109582242
0.000110049784
0.000107919023
0.000107757686
0.000109434167
0.000110135624
0.000107747076
0.000106253437
0.000107419756
0.000109693418
0.000110013986
0.0001079386
0.000108028687
0.000109640433
0.000109825244
0.000107970827
0.000107975767
0.000109714479
0.000110156358
0.000107723345
0.000106455021
0.000107824201
0.00010972882
0.000110183378
0.000107721268
0.000106593676
0.000107894696
0.000109732464
0.000110202915
0.000107711433
0.000106691493
0.000107859678
0.000109743399
0.000110198127
0.000107701274
0.000106641168
0.000107858816
0.00010974349
0.000110227299
0.000107696954
0.000106626954
0.000107849681
0.000109764791
0.00011024046
0.000107688933
0.000106536923
0.000107844099
)
;

boundaryField
{
    closed
    {
        type            calculated;
        value           nonuniform List<scalar> 0();
    }
    open
    {
        type            calculated;
        value           nonuniform List<scalar> 0();
    }
    sides
    {
        type            empty;
    }
    procBoundary2to1
    {
        type            processor;
        value           uniform 0.000107743211;
    }
    procBoundary2to3
    {
        type            processor;
        value           uniform 0.000109791713;
    }
}


// ************************************************************************* //
