/*--------------------------------*- C++ -*----------------------------------*\
| =========                 |                                                 |
| \\      /  F ield         | OpenFOAM: The Open Source CFD Toolbox           |
|  \\    /   O peration     | Version:  2306                                  |
|   \\  /    A nd           | Website:  www.openfoam.com                      |
|    \\/     M anipulation  |                                                 |
\*---------------------------------------------------------------------------*/
FoamFile
{
    version     2.0;
    format      ascii;
    arch        "LSB;label=32;scalar=64";
    class       volScalarField;
    location    "0.00114";
    object      prefDPV_H2O;
}
// * * * * * * * * * * * * * * * * * * * * * * * * * * * * * * * * * * * * * //

dimensions      [1 -1 -1 0 0 0 0];

internalField   nonuniform List<scalar> 
530
(
-3.8421832e-07
-3.85029668e-07
-3.66630831e-07
-3.64884227e-07
-3.69360636e-07
-3.84197422e-07
-3.85089864e-07
-3.66457952e-07
-3.64915758e-07
-3.6979879e-07
-3.84160091e-07
-3.85109742e-07
-3.66407394e-07
-3.64950902e-07
-3.70154132e-07
-3.8419141e-07
-3.85172466e-07
-3.66145756e-07
-3.65082943e-07
-3.65389334e-07
-3.70796487e-07
-3.84329806e-07
-3.84325679e-07
-3.84223252e-07
-3.85968514e-07
-3.65645109e-07
-3.64620844e-07
-3.70315337e-07
-3.84320487e-07
-3.85596545e-07
-3.65318748e-07
-3.64833687e-07
-3.6527947e-07
-3.70444693e-07
-3.84139848e-07
-3.85945465e-07
-3.65094212e-07
-3.64776869e-07
-3.71902875e-07
-3.84316082e-07
-3.86190441e-07
-3.64906142e-07
-3.64868621e-07
-3.73124606e-07
-3.84594369e-07
-3.84779501e-07
-3.8466987e-07
-3.86001974e-07
-3.64811835e-07
-3.64661856e-07
-3.65369628e-07
-3.71751905e-07
-3.84595614e-07
-3.83804256e-07
-3.64376754e-07
-3.64304398e-07
-3.65291431e-07
-3.7315305e-07
-3.83934855e-07
-3.85362547e-07
-3.69504716e-07
-3.66150023e-07
-3.74056209e-07
-3.84466308e-07
-3.80696607e-07
-3.64391147e-07
-3.64849662e-07
-3.7560999e-07
-3.84760908e-07
-3.78847439e-07
-3.66420977e-07
-3.74289853e-07
-3.84023221e-07
-3.81284592e-07
-3.67352222e-07
-3.67685989e-07
-3.69400667e-07
-3.68699378e-07
-3.69652516e-07
-3.82744778e-07
-3.84614027e-07
-3.75814939e-07
-3.64406695e-07
-3.6518877e-07
-3.78497555e-07
-3.85231821e-07
-3.74862235e-07
-3.6632469e-07
-3.76007081e-07
-3.852756e-07
-3.73257425e-07
-3.64213236e-07
-3.6538403e-07
-3.80408517e-07
-3.85584009e-07
-3.72536249e-07
-3.66515034e-07
-3.78734905e-07
-3.85600662e-07
-3.70767433e-07
-3.66580726e-07
-3.79384487e-07
-3.8550906e-07
-3.71314352e-07
-3.64542174e-07
-3.66027186e-07
-3.8345467e-07
-3.85688004e-07
-3.710787e-07
-3.64750983e-07
-3.66225202e-07
-3.84378332e-07
-3.85636551e-07
-3.70707462e-07
-3.64731836e-07
-3.6617362e-07
-3.84162824e-07
-3.85246947e-07
-3.71626273e-07
-3.66866067e-07
-3.8043255e-07
-3.85434426e-07
-3.70307466e-07
-3.64729492e-07
-3.66384082e-07
-3.86326339e-07
-3.85430183e-07
-3.70192194e-07
-3.64846757e-07
-3.66436568e-07
-3.86795964e-07
-3.85268038e-07
-3.70238657e-07
-3.64865918e-07
-3.66422249e-07
-3.86747095e-07
-3.85185918e-07
-3.70184635e-07
-3.64755744e-07
-3.66272424e-07
-3.86547092e-07
-3.84885743e-07
-3.70012001e-07
-3.66619186e-07
-3.8188071e-07
-3.85217754e-07
-3.69722304e-07
-3.64362268e-07
-3.65876629e-07
-3.86377321e-07
-3.84945396e-07
-3.69209429e-07
-3.66468829e-07
-3.82517556e-07
-3.85050235e-07
-3.71061711e-07
-3.64958807e-07
-3.66137396e-07
-3.8602804e-07
-3.84995837e-07
-3.70234986e-07
-3.64660383e-07
-3.65716983e-07
-3.86382936e-07
-3.84811345e-07
-3.69405019e-07
-3.66402424e-07
-3.8179197e-07
-3.85088764e-07
-3.7200734e-07
-3.65033189e-07
-3.65709484e-07
-3.86644929e-07
-3.84663762e-07
-3.73053504e-07
-3.65387845e-07
-3.65780909e-07
-3.86792291e-07
-3.84549517e-07
-3.74154312e-07
-3.65595029e-07
-3.65662964e-07
-3.86697263e-07
-3.84581548e-07
-3.73561894e-07
-3.6548367e-07
-3.6544476e-07
-3.65336789e-07
-3.65314475e-07
-3.83914801e-07
-3.84606382e-07
-3.72693422e-07
-3.66627828e-07
-3.7714016e-07
-3.85165372e-07
-3.73525352e-07
-3.66634185e-07
-3.76310229e-07
-3.85610811e-07
-3.75396616e-07
-3.65092208e-07
-3.64691464e-07
-3.80705063e-07
-3.8510726e-07
-3.72727964e-07
-3.66168525e-07
-3.74731602e-07
-3.85810122e-07
-3.7377912e-07
-3.66214667e-07
-3.73961633e-07
-3.86155784e-07
-3.75948724e-07
-3.65080699e-07
-3.64551135e-07
-3.78226465e-07
-3.85395964e-07
-3.73145098e-07
-3.66113492e-07
-3.74036128e-07
-3.8603135e-07
-3.73715456e-07
-3.65996692e-07
-3.73328194e-07
-3.86247501e-07
-3.74102704e-07
-3.65858517e-07
-3.70338087e-07
-3.86676434e-07
-3.81738451e-07
-3.66063084e-07
-3.65037047e-07
-3.75254573e-07
-3.8554338e-07
-3.75357712e-07
-3.66366087e-07
-3.72801552e-07
-3.86096337e-07
-3.76956038e-07
-3.66164576e-07
-3.67035809e-07
-3.85269345e-07
-3.86078186e-07
-3.69128213e-07
-3.6507787e-07
-3.70508269e-07
-3.86420825e-07
-3.8353033e-07
-3.66426377e-07
-3.65065196e-07
-3.7252537e-07
-3.85815104e-07
-3.81023257e-07
-3.66584895e-07
-3.66199185e-07
-3.79104039e-07
-3.85518182e-07
-3.7464666e-07
-3.65519888e-07
-3.68614655e-07
-3.86765311e-07
-3.86433134e-07
-3.68408199e-07
-3.65527301e-07
-3.70458462e-07
-3.86090543e-07
-3.86010359e-07
-3.6904525e-07
-3.65366336e-07
-3.6508154e-07
-3.72563866e-07
-3.85518829e-07
-3.86628034e-07
-3.67839009e-07
-3.65291803e-07
-3.69492089e-07
-3.86286772e-07
-3.86382791e-07
-3.6760224e-07
-3.64939933e-07
-3.68330014e-07
-3.86524596e-07
-3.84698359e-07
-3.67176047e-07
-3.676964e-07
-3.86855758e-07
-3.86411718e-07
-3.68165974e-07
-3.65358635e-07
-3.6956453e-07
-3.85980516e-07
-3.85824654e-07
-3.6811441e-07
-3.65307007e-07
-3.68926688e-07
-3.8602096e-07
-3.85818851e-07
-3.67904885e-07
-3.65211327e-07
-3.68776686e-07
-3.85873965e-07
-3.85804383e-07
-3.67718408e-07
-3.6522139e-07
-3.69006325e-07
-3.85688612e-07
-3.85787047e-07
-3.67550626e-07
-3.6584175e-07
-3.73402987e-07
-3.85594779e-07
-3.7964943e-07
-3.65783988e-07
-3.65795285e-07
-3.81722653e-07
-3.85193282e-07
-3.75861271e-07
-3.65672474e-07
-3.65315918e-07
-3.72132858e-07
-3.85156845e-07
-3.86258864e-07
-3.67263468e-07
-3.65270362e-07
-3.66401471e-07
-3.85713008e-07
-3.8448256e-07
-3.80959425e-07
-3.66413395e-07
-3.65219237e-07
-3.67819869e-07
-3.85863156e-07
-3.86535815e-07
-3.68113602e-07
-3.65277854e-07
-3.67600177e-07
-3.86031076e-07
-3.8678636e-07
-3.68112924e-07
-3.65451802e-07
-3.68257105e-07
-3.85896969e-07
-3.86886143e-07
-3.67971834e-07
-3.67739402e-07
-3.84396816e-07
-3.864167e-07
-3.68473223e-07
-3.65663577e-07
-3.69129977e-07
-3.85829181e-07
-3.85945701e-07
-3.68175415e-07
-3.68259513e-07
-3.85607299e-07
-3.85426217e-07
-3.67271975e-07
-3.65669085e-07
-3.65614405e-07
-3.6554586e-07
-3.69748544e-07
-3.85771798e-07
-3.84257532e-07
-3.68085979e-07
-3.69033394e-07
-3.85741116e-07
-3.84078967e-07
-3.66518404e-07
-3.65214707e-07
-3.69821345e-07
-3.86137841e-07
-3.81996563e-07
-3.67438389e-07
-3.69407141e-07
-3.85338663e-07
-3.80117669e-07
-3.67166708e-07
-3.69680388e-07
-3.8550215e-07
-3.78894246e-07
-3.66949579e-07
-3.70078048e-07
-3.85624829e-07
-3.77889375e-07
-3.66866818e-07
-3.7061211e-07
-3.85671117e-07
-3.76931632e-07
-3.66826941e-07
-3.71196396e-07
-3.85981016e-07
-3.76037305e-07
-3.66719122e-07
-3.71662877e-07
-3.86798248e-07
-3.77973866e-07
-3.64776728e-07
-3.6486477e-07
-3.73353951e-07
-3.8644994e-07
-3.75763222e-07
-3.66879921e-07
-3.73176245e-07
-3.8669425e-07
-3.74657954e-07
-3.66745739e-07
-3.7379634e-07
-3.86623007e-07
-3.73860798e-07
-3.66556113e-07
-3.73887269e-07
-3.86312786e-07
-3.75374705e-07
-3.64471752e-07
-3.64964036e-07
-3.76100294e-07
-3.8620785e-07
-3.74159228e-07
-3.66648585e-07
-3.75060995e-07
-3.85896765e-07
-3.73588191e-07
-3.66629337e-07
-3.75752365e-07
-3.85796295e-07
-3.73238307e-07
-3.66517905e-07
-3.746302e-07
-3.85096987e-07
-3.78456275e-07
-3.65232826e-07
-3.65772591e-07
-3.77908064e-07
-3.84638445e-07
-3.84110166e-07
-3.65371441e-07
-3.65425806e-07
-3.65745962e-07
-3.65579391e-07
-3.68242148e-07
-3.84286604e-07
-3.8395684e-07
-3.82811964e-07
-3.65853934e-07
-3.66039535e-07
-3.78689262e-07
-3.84452787e-07
-3.82303084e-07
-3.65002549e-07
-3.65304871e-07
-3.82031268e-07
-3.84896728e-07
-3.72050046e-07
-3.66496596e-07
-3.7810014e-07
-3.84633886e-07
-3.74314948e-07
-3.6481763e-07
-3.65627249e-07
-3.81530402e-07
-3.8469006e-07
-3.74519085e-07
-3.64929913e-07
-3.65770791e-07
-3.85864965e-07
-3.84947347e-07
-3.71391085e-07
-3.65130041e-07
-3.67065853e-07
-3.85725489e-07
-3.85607663e-07
-3.66266706e-07
-3.65633569e-07
-3.79981591e-07
-3.85360886e-07
-3.7251272e-07
-3.64794459e-07
-3.65468753e-07
-3.86473437e-07
-3.8524797e-07
-3.71126132e-07
-3.64857981e-07
-3.6594016e-07
-3.86156391e-07
-3.8601621e-07
-3.68143673e-07
-3.66776622e-07
-3.8520042e-07
-3.85494033e-07
-3.69613767e-07
-3.64761353e-07
-3.66160257e-07
-3.86774304e-07
-3.86228219e-07
-3.68111081e-07
-3.67342478e-07
-3.86441169e-07
-3.86739526e-07
-3.67288106e-07
-3.67050952e-07
-3.86876044e-07
-3.85408093e-07
-3.68402631e-07
-3.64973453e-07
-3.66691576e-07
-3.86824809e-07
-3.85343736e-07
-3.68970916e-07
-3.65135468e-07
-3.67091312e-07
-3.86706696e-07
-3.85260546e-07
-3.69016419e-07
-3.6525401e-07
-3.67662693e-07
-3.86567555e-07
-3.8529121e-07
-3.68574079e-07
-3.65180114e-07
-3.6778127e-07
-3.86495875e-07
-3.85209825e-07
-3.68537862e-07
-3.65151115e-07
-3.68009306e-07
-3.86369083e-07
-3.85214444e-07
-3.68147876e-07
-3.6501945e-07
-3.68093637e-07
)
;

boundaryField
{
    closed
    {
        type            calculated;
        value           nonuniform List<scalar> 0();
    }
    open
    {
        type            calculated;
        value           nonuniform List<scalar> 0();
    }
    sides
    {
        type            empty;
    }
    procBoundary2to1
    {
        type            processor;
        value           uniform -3.68924788e-07;
    }
    procBoundary2to3
    {
        type            processor;
        value           uniform -3.86252984e-07;
    }
}


// ************************************************************************* //
