/*--------------------------------*- C++ -*----------------------------------*\
| =========                 |                                                 |
| \\      /  F ield         | OpenFOAM: The Open Source CFD Toolbox           |
|  \\    /   O peration     | Version:  2306                                  |
|   \\  /    A nd           | Website:  www.openfoam.com                      |
|    \\/     M anipulation  |                                                 |
\*---------------------------------------------------------------------------*/
FoamFile
{
    version     2.0;
    format      ascii;
    arch        "LSB;label=32;scalar=64";
    class       volScalarField;
    location    "0.00114";
    object      prefDh_H2O;
}
// * * * * * * * * * * * * * * * * * * * * * * * * * * * * * * * * * * * * * //

dimensions      [1 1 -3 0 0 0 0];

internalField   nonuniform List<scalar> 
530
(
92.3760086
92.5803313
88.2678397
87.9111536
88.9314025
92.3711824
92.5952948
88.2316019
87.9172636
89.0367364
92.3624552
92.6006418
88.2212656
87.9243247
89.1225293
92.3715593
92.6140216
88.1716649
87.9494871
88.0134407
89.2745027
92.4047733
92.4084721
92.3808261
92.8163143
88.0666986
87.8590767
89.1608126
92.4046487
92.719196
88.0033538
87.899154
87.9905817
89.18907
92.3583252
92.8092829
87.9544622
87.8901239
89.5381959
92.4044965
92.8702362
87.9176795
87.910756
89.8293342
92.4746012
92.5235296
92.4957677
92.8416197
87.9021358
87.8691613
88.0108862
89.5007746
92.4734499
92.3322889
87.8090088
87.792802
87.992703
89.8367034
92.3078184
92.6677422
88.9684057
88.1684994
90.0511373
92.4404814
91.6108097
87.8089161
87.90476
90.4179908
92.513544
91.1801447
88.2215966
90.1054551
92.3298805
91.7477455
88.4450081
88.5200998
88.9397893
88.76665
89.0024051
92.0881267
92.4789137
90.4699422
87.8112809
87.971636
91.097086
92.63129
90.2465117
88.2051484
90.5122393
92.643547
89.8672088
87.7743854
88.0116593
91.5438401
92.72013
89.6956132
88.245722
91.1528324
92.7238267
89.2726163
88.2582651
91.3047006
92.7019481
89.405258
87.8438923
88.1422957
92.2531987
92.748172
89.347692
87.8889365
88.1823618
92.4676799
92.735047
89.2584249
87.8850575
88.1708911
92.4175341
92.635195
89.476474
88.3203758
91.5494089
92.6835063
89.1628989
87.8848183
88.2147375
92.9186427
92.6825945
89.1334717
87.9106575
88.2253333
93.0272643
92.6415031
89.1439229
87.9147356
88.2229449
93.0135824
92.6207578
89.1303801
87.8925157
88.1921172
92.961549
92.5428282
89.0858252
88.2688193
91.8865556
92.6278611
89.0204101
87.8113169
88.1118939
92.9170058
92.5560396
88.8904621
88.2384585
92.0345162
92.5872101
89.3400676
87.9322795
88.1676611
92.8295834
92.5714316
89.1411335
87.871907
88.0819629
92.919357
92.5219722
88.9379726
88.2244193
91.8657159
92.5967801
89.565133
87.9469464
88.08161
92.9853801
92.4896705
89.8133627
88.0186949
88.0972997
93.0234468
92.4620147
90.0740821
88.0605423
88.0744208
93.0036783
92.4689864
89.9337991
88.0351763
88.0247789
88.0092399
88.0040221
92.3586175
92.4738371
89.7264439
88.2685462
90.7801367
92.6146178
89.9254552
88.2709971
90.5856022
92.7271669
90.368292
87.9580527
87.8753145
91.6128223
92.5979304
89.7363988
88.176037
90.2143548
92.775364
89.987024
88.1865233
90.0329387
92.8627677
90.4989095
87.9554899
87.8471542
91.0344801
92.6706022
89.835997
88.1653699
90.0502586
92.8307698
89.9721815
88.1423561
89.8831539
92.8840284
90.0648305
88.1142823
89.1710246
92.9959469
91.8538159
88.1530211
87.9454721
90.337117
92.7095165
90.3594352
88.2155785
89.7582689
92.8478286
90.7361256
88.1758441
88.3648853
92.6737958
92.8437512
88.8782556
87.955147
89.2142104
92.931109
92.2707483
88.2238085
87.9504337
89.693016
92.7789721
91.6872071
88.2582164
88.1828097
91.2392476
92.7014303
90.1932025
88.0428933
88.7585856
93.0202597
92.9367963
88.7008806
88.0468807
89.1980402
92.8508064
92.831905
88.855708
88.0111382
87.9525244
89.7008614
92.7081144
92.9896641
88.5666482
87.99752
88.9681425
92.8982891
92.9241001
88.5096856
87.9254588
88.6889111
92.9577538
92.5413334
88.396771
88.5280566
93.0372454
92.9278187
88.6439806
88.01365
88.9832258
92.8214094
92.7826322
88.6320107
88.00364
88.8299992
92.8297846
92.7795956
88.5807097
87.984737
88.7934999
92.7917443
92.7750407
88.5346216
87.9870655
88.8487534
92.7445465
92.7692696
88.4911125
88.1138794
89.8987668
92.7213281
91.3666757
88.0982724
88.0990723
91.849774
92.6217918
90.4777456
88.0724341
88.002178
89.5957707
92.6114374
92.8899659
88.4195088
87.9975714
88.2175942
92.776746
92.4467529
91.6724221
88.2242006
87.9878232
88.5606792
92.7839831
92.9591661
88.6253
87.9989946
88.5074321
92.8267417
93.0223659
88.6241625
88.0352609
88.6662332
92.7946235
93.0473901
88.5839639
88.5284945
92.4707226
92.9387725
88.7128357
88.0795713
88.8770303
92.7787764
92.829902
88.6331523
88.6560226
92.7509253
92.7090479
88.4181016
88.0779822
88.060985
88.0522511
89.0251881
92.7644399
92.4387215
88.6117521
88.8468053
92.7818061
92.3969551
88.249335
87.986511
89.0457319
92.8556167
91.9133832
88.4538261
88.9406812
92.6885228
91.4759828
88.38963
89.008307
92.7262543
91.1904995
88.3378664
89.1050621
92.7546152
90.9555469
88.3211113
89.2338876
92.7653371
90.7311255
88.3132639
89.3742265
92.8369908
90.5212093
88.2917268
89.4856346
93.0258698
90.9751954
87.8960406
87.9116335
89.8875471
92.9339989
90.456717
88.3261437
89.8453038
92.9937397
90.1960316
88.2986177
89.9923818
92.9759242
90.0078255
88.2593203
90.0137906
92.897795
90.3652414
87.83151
87.9295728
90.53515
92.8728283
90.0787861
88.2768023
90.2906629
92.7944957
89.9434241
88.2716464
90.4534491
92.7695197
89.8605182
88.2477199
90.1881894
92.5954379
91.0882919
87.9846212
88.0931734
90.9585612
92.4852345
92.4039166
88.0149709
88.0281076
88.0872536
88.0580047
88.6628853
92.3980061
92.3177266
92.1029506
88.1111499
88.1515949
91.141777
92.4409426
91.9842653
87.9368993
87.9999321
91.921793
92.5489075
89.5761058
88.2423699
91.0044509
92.4819171
90.1144432
87.8995185
88.0614563
91.8052543
92.4970761
90.1617941
87.9261683
88.0929333
92.8108115
92.5604083
89.4169106
87.9696336
88.3706963
92.7512954
92.7193189
88.1971847
88.0710637
91.4442363
92.662625
89.6857468
87.9024165
88.0335736
92.9385312
92.633498
89.3532158
87.9145596
88.130348
92.8783185
92.8229656
88.628124
88.3057923
92.6561423
92.6940519
88.9922238
87.8957155
88.1748347
93.0210997
92.8753514
88.6191666
88.4288199
92.9437509
93.0066127
88.4189606
88.3610862
93.0444608
92.6725176
88.7015589
87.93685
88.2827434
93.031625
92.6558384
88.8386864
87.9689928
88.3757938
93.0032234
92.6350187
88.8502111
87.9926835
88.515506
92.9694465
92.6425767
88.7441361
87.9774276
88.5441406
92.9523124
92.6217248
88.7356477
87.9711877
88.5996285
92.920989
92.6221956
88.6420761
87.9440225
88.6202728
)
;

boundaryField
{
    closed
    {
        type            calculated;
        value           nonuniform List<scalar> 0();
    }
    open
    {
        type            calculated;
        value           nonuniform List<scalar> 0();
    }
    sides
    {
        type            empty;
    }
    procBoundary2to1
    {
        type            processor;
        value           uniform 88.8263292;
    }
    procBoundary2to3
    {
        type            processor;
        value           uniform 92.891951;
    }
}


// ************************************************************************* //
