/*--------------------------------*- C++ -*----------------------------------*\
| =========                 |                                                 |
| \\      /  F ield         | OpenFOAM: The Open Source CFD Toolbox           |
|  \\    /   O peration     | Version:  2306                                  |
|   \\  /    A nd           | Website:  www.openfoam.com                      |
|    \\/     M anipulation  |                                                 |
\*---------------------------------------------------------------------------*/
FoamFile
{
    version     2.0;
    format      ascii;
    arch        "LSB;label=32;scalar=64";
    class       volScalarField;
    location    "0.00066";
    object      H2;
}
// * * * * * * * * * * * * * * * * * * * * * * * * * * * * * * * * * * * * * //

dimensions      [0 0 0 0 0 0 0];

internalField   nonuniform List<scalar> 
531
(
0.0106826721
0.0106792049
0.011075951
0.0110019046
0.0109593129
0.0107273634
0.0107000358
0.0106956867
0.0106804185
0.0106741554
0.0109589816
0.011017649
0.0108624164
0.0106858487
0.0107274751
0.0110436445
0.0110576739
0.0106836492
0.0106941637
0.0110562668
0.0110645758
0.0106863993
0.0106943782
0.0110658016
0.0110600987
0.0106891461
0.0106834585
0.0110634964
0.0110172747
0.0108056171
0.0106733842
0.0106843759
0.0110657522
0.0110147403
0.0108277648
0.0106744944
0.0106715291
0.0109615143
0.0110119759
0.011012609
0.010790333
0.0106837115
0.0106618368
0.0106725338
0.0110727257
0.0110272061
0.0107753326
0.0106641615
0.0106623824
0.0109920636
0.0110124479
0.0110478986
0.0107125493
0.0106636113
0.0106902342
0.0110687368
0.0110006336
0.0106803962
0.0106942066
0.0110642115
0.0110043969
0.0106868403
0.0107034844
0.0110599542
0.011041225
0.0106891686
0.0106867911
0.0110749465
0.0110253902
0.0107605841
0.0106690781
0.0107245661
0.0110584432
0.0109820852
0.010684001
0.0106816457
0.0110721077
0.0110219911
0.0108021233
0.0106723219
0.0106790304
0.0110752824
0.0110183542
0.0108338124
0.0106775541
0.0106727193
0.0109191981
0.011016117
0.0110110521
0.0108066768
0.010691383
0.0106841303
0.0106711317
0.010661669
0.0107098147
0.0110535588
0.0110127972
0.0107826988
0.0106849608
0.0107916599
0.011042911
0.0108981074
0.0106822611
0.0107482994
0.0110549027
0.0108484293
0.0106880498
0.0108316844
0.0110793605
0.0107413848
0.0106857061
0.010944744
0.0110293653
0.0108274029
0.0106785767
0.0106907076
0.011066507
0.0110174806
0.0108139392
0.0106781687
0.0106857083
0.0110740108
0.0110257547
0.010802914
0.0106648629
0.0106644675
0.0110160325
0.0110643058
0.0106908859
0.0106863449
0.0110519247
0.0110682736
0.010700444
0.0106890934
0.0110195315
0.011021231
0.0108605438
0.0106805865
0.0106673484
0.0107367953
0.0110493104
0.0110299962
0.0107425233
0.0106705708
0.0106974344
0.0110700343
0.0110746107
0.0106934305
0.0106846618
0.0109871418
0.0110304921
0.0108274024
0.010673672
0.0106885801
0.0110773797
0.011058053
0.0106930872
0.0106890946
0.0110252825
0.0110274839
0.0108394388
0.0106753261
0.0106649389
0.0108345034
0.0110443702
0.0108951529
0.0106823742
0.0106892611
0.0110774439
0.0110346326
0.0107723403
0.0106760757
0.0106980241
0.0110728676
0.0110296834
0.0107667688
0.01067415
0.0106908507
0.0110768404
0.0110386246
0.0107547486
0.0106697887
0.0106892746
0.0110761246
0.0110339433
0.010766728
0.0106751355
0.0106827877
0.0109896048
0.0110138882
0.0110152655
0.010837214
0.0106971182
0.0106859842
0.0106643654
0.0106559235
0.0107319716
0.011067387
0.0110299012
0.0110218852
0.0110240773
0.0107696922
0.0106905735
0.0106663119
0.0106619099
0.0107936041
0.0110394535
0.0110228735
0.0107680007
0.0106806496
0.0107224526
0.0110615485
0.0110468133
0.0107200966
0.0106684861
0.0107126104
0.0110666191
0.0110492186
0.0107085536
0.0106645806
0.0107380917
0.0110646352
0.0108984421
0.0106876581
0.010725332
0.0110610864
0.0110471772
0.010717227
0.0106702789
0.0107343099
0.0110585978
0.011051668
0.0106953102
0.010667591
0.0107385621
0.0110544984
0.0110544464
0.0107095403
0.0106700744
0.0106836086
0.0110653521
0.0110177304
0.0108350537
0.0106895037
0.0107269763
0.0110594802
0.0110053493
0.0110630311
0.0107455174
0.010692759
0.0106845705
0.0106655078
0.0106547364
0.0108574036
0.0110397524
0.0108526295
0.0106844752
0.0107075182
0.0110626713
0.0110249588
0.0107498802
0.0106852995
0.0108613072
0.0110240442
0.0110400969
0.0107078987
0.0106655041
0.010675313
0.0110798631
0.0110184459
0.0107964284
0.010682097
0.0107215023
0.011065313
0.0110019418
0.0109708818
0.0107147327
0.0106913929
0.0106783297
0.0106575328
0.0106632401
0.0110114179
0.0110269763
0.011030089
0.0110201477
0.0108562822
0.0106722375
0.0106540144
0.0107271913
0.0110612385
0.0109434443
0.0106758287
0.010670928
0.010980601
0.0110086975
0.0110274052
0.0107462805
0.010670569
0.0106733109
0.0109989609
0.0110069462
0.0110287487
0.0107602341
0.0106829498
0.0106603172
0.0106651073
0.0110696588
0.0110117272
0.0109371707
0.0106835788
0.0106699527
0.0107487392
0.0110562256
0.011004846
0.011007231
0.010815497
0.0106959838
0.0106663547
0.0106551734
0.0107092764
0.0110702797
0.0109388743
0.0106694914
0.0106622463
0.0109183461
0.0110312063
0.0110294083
0.0110171233
0.0109519143
0.0107085567
0.0106729671
0.0106578147
0.0106896469
0.0110686436
0.0110617453
0.0106910742
0.0106799567
0.0109825019
0.0110154917
0.0109482913
0.0106892384
0.0106698453
0.0107193171
0.0110509334
0.0110225002
0.010759511
0.0106731985
0.0106872232
0.0110416078
0.0110047846
0.0110073779
0.0107836962
0.0106944827
0.0106787107
0.0106560893
0.0106550005
0.0108295471
0.0110475274
0.0110178396
0.0110195763
0.010867537
0.0106860071
0.0106633985
0.0106733843
0.0110378976
0.0110134082
0.0109797649
0.0106869477
0.0106727694
0.0108367023
0.011041934
0.0108987162
0.0106790934
0.01067599
0.0110617592
0.0110157948
0.0108920938
0.0106799459
0.0106609862
0.0106916016
0.0110632692
0.0110265031
0.01075788
0.010654073
0.010656622
0.0109994362
0.0110284753
0.0110332463
0.0110179551
0.0109258688
0.0106784058
0.0106497574
0.0106181208
0.0106132047
0.010963199
0.011018623
0.010941636
0.0106198333
0.0106198367
0.0110752175
0.0110157628
0.0110016644
0.0110026419
0.0105734758
0.0105640767
0.010997997
0.0109047158
0.0109168846
0.0108750351
0.0108572582
0.0108253253
0.0107973884
0.0107658355
0.0107350999
0.0107016446
0.0106679459
0.0106353028
0.0105966255
0.010568019
0.0105363876
0.0105103275
0.010507977
0.0104427779
0.0104082924
0.01032804
0.0102791487
0.0101958163
0.0101315691
0.0100549292
0.00997736014
0.00996596065
0.00989053231
0.00983383196
0.00972915817
0.00962727645
0.00950839803
0.00937231551
0.00918176442
0.0090395759
0.00888419232
0.00919462254
0.00815542686
0.00846870322
0.00858165542
0.00828010588
0.00810753767
0.00787128511
0.00762620132
0.00742656204
0.00745915704
0.00753530449
0.00722035259
0.00662826885
0.00661354626
0.00582272423
0.00572019035
0.00541651637
0.00533328325
0.00510282804
0.00498683735
0.00480028786
0.00467535605
0.00450603739
0.004372381
0.00419205119
0.00402852957
0.00381537085
0.00366695157
0.00345566826
0.00332103445
0.00311643784
0.00299354856
0.0027954676
0.00268543661
0.0024986445
0.00239382173
0.0021984563
0.00210954099
0.00194157999
0.00182472121
0.00162890929
0.00169337478
0.00159732885
0.00129637747
0.00112425808
0.00135789689
0.00124188212
0.000927082915
0.000865845818
0.00102314055
0.000887192503
0.000719950803
0.000707306251
0.000697538146
0.00063467081
0.000596477722
0.000565099354
0.000522429546
0.000499690964
0.000462923217
0.000349851388
0.000410580006
0.000529908676
0.00031914024
6.0024364e-05
0.000309030518
0.000465424318
0.000123454443
1.44042924e-08
0.000262840848
0.000304735215
3.45206136e-05
1.74657255e-08
0.000213457293
0.000243330531
1.33265293e-05
2.20221551e-08
0.000178430089
0.000184320757
3.74389846e-06
2.75918409e-08
0.000150850349
0.000145230488
3.09899014e-08
1.54651828e-05
0.000131116344
7.08817835e-05
3.33495792e-08
5.76271767e-05
0.000117510065
2.42534491e-05
)
;

boundaryField
{
    closed
    {
        type            calculated;
        value           nonuniform List<scalar> 0();
    }
    open
    {
        type            calculated;
        value           nonuniform List<scalar> 0();
    }
    sides
    {
        type            empty;
    }
    procBoundary4to3
    {
        type            processor;
        value           uniform 0.010970621;
    }
    procBoundary4to5
    {
        type            processor;
        value           uniform 3.65839475e-08;
    }
}


// ************************************************************************* //
