/*--------------------------------*- C++ -*----------------------------------*\
| =========                 |                                                 |
| \\      /  F ield         | OpenFOAM: The Open Source CFD Toolbox           |
|  \\    /   O peration     | Version:  2306                                  |
|   \\  /    A nd           | Website:  www.openfoam.com                      |
|    \\/     M anipulation  |                                                 |
\*---------------------------------------------------------------------------*/
FoamFile
{
    version     2.0;
    format      ascii;
    arch        "LSB;label=32;scalar=64";
    class       volScalarField;
    location    "0.00066";
    object      prefDZ_H2O;
}
// * * * * * * * * * * * * * * * * * * * * * * * * * * * * * * * * * * * * * //

dimensions      [1 -1 -1 0 0 0 0];

internalField   nonuniform List<scalar> 
531
(
-7.37364661e-07
-7.37158787e-07
-7.7990706e-07
-7.73477065e-07
-7.68314006e-07
-7.43386694e-07
-7.39512192e-07
-7.39294758e-07
-7.37069415e-07
-7.36603213e-07
-7.68262225e-07
-7.74844069e-07
-7.58311629e-07
-7.38082546e-07
-7.43321237e-07
-7.77101765e-07
-7.7806751e-07
-7.37759853e-07
-7.38848284e-07
-7.78198238e-07
-7.78921507e-07
-7.38046886e-07
-7.38790136e-07
-7.79025573e-07
-7.78532201e-07
-7.38374457e-07
-7.37483651e-07
-7.7863294e-07
-7.74811402e-07
-7.52202667e-07
-7.36305415e-07
-7.37856884e-07
-7.79021756e-07
-7.74591729e-07
-7.54598299e-07
-7.36386413e-07
-7.36167345e-07
-7.68522759e-07
-7.74354437e-07
-7.74408148e-07
-7.50456663e-07
-7.37602768e-07
-7.34801018e-07
-7.35984438e-07
-7.79628808e-07
-7.75674423e-07
-7.48792787e-07
-7.34933339e-07
-7.34934854e-07
-7.71585459e-07
-7.74394525e-07
-7.77210519e-07
-7.41709108e-07
-7.3466518e-07
-7.38740437e-07
-7.79279742e-07
-7.724342e-07
-7.36989131e-07
-7.39078711e-07
-7.78887365e-07
-7.72810568e-07
-7.37854681e-07
-7.40226249e-07
-7.78516869e-07
-7.76467528e-07
-7.38127713e-07
-7.37780273e-07
-7.79818972e-07
-7.75516229e-07
-7.4721413e-07
-7.35619567e-07
-7.43129908e-07
-7.78385715e-07
-7.7059171e-07
-7.37458265e-07
-7.37205071e-07
-7.79573882e-07
-7.752213e-07
-7.51802001e-07
-7.36001779e-07
-7.37073231e-07
-7.79849525e-07
-7.74905366e-07
-7.55240568e-07
-7.36827574e-07
-7.36340542e-07
-7.6423664e-07
-7.74713035e-07
-7.74273527e-07
-7.52325715e-07
-7.38600656e-07
-7.37761132e-07
-7.36285035e-07
-7.34825984e-07
-7.41389174e-07
-7.77961492e-07
-7.7442164e-07
-7.49665906e-07
-7.37746357e-07
-7.50810062e-07
-7.77037953e-07
-7.62064982e-07
-7.37385737e-07
-7.45918381e-07
-7.78079968e-07
-7.5690091e-07
-7.37932365e-07
-7.5515605e-07
-7.80182223e-07
-7.45091746e-07
-7.37710619e-07
-7.66833019e-07
-7.75861654e-07
-7.54596451e-07
-7.36804579e-07
-7.38721091e-07
-7.79085711e-07
-7.74830097e-07
-7.53075565e-07
-7.36680333e-07
-7.37790697e-07
-7.79738133e-07
-7.75548722e-07
-7.51846211e-07
-7.35031952e-07
-7.34944081e-07
-7.73960624e-07
-7.78721722e-07
-7.38505219e-07
-7.37609821e-07
-7.77509911e-07
-7.79240884e-07
-7.39706435e-07
-7.38048918e-07
-7.74311094e-07
-7.75155831e-07
-7.58059622e-07
-7.37471031e-07
-7.35481223e-07
-7.44524341e-07
-7.77592702e-07
-7.7591674e-07
-7.45174783e-07
-7.35659402e-07
-7.397062e-07
-7.79390696e-07
-7.79789239e-07
-7.38728298e-07
-7.37506378e-07
-7.7108651e-07
-7.75959741e-07
-7.54584119e-07
-7.36156767e-07
-7.38430415e-07
-7.80016057e-07
-7.78119015e-07
-7.38644293e-07
-7.38147442e-07
-7.74878886e-07
-7.75698447e-07
-7.55829879e-07
-7.3659774e-07
-7.35211118e-07
-7.55456588e-07
-7.77164597e-07
-7.61751809e-07
-7.37304781e-07
-7.38481252e-07
-7.80026264e-07
-7.76318964e-07
-7.48549808e-07
-7.36373404e-07
-7.39804195e-07
-7.79635631e-07
-7.75889333e-07
-7.4792292e-07
-7.36142992e-07
-7.38881819e-07
-7.79981344e-07
-7.76665742e-07
-7.46603948e-07
-7.35642437e-07
-7.38818157e-07
-7.79920362e-07
-7.76258889e-07
-7.47977832e-07
-7.36314367e-07
-7.37859698e-07
-7.71342225e-07
-7.74518303e-07
-7.74639591e-07
-7.55638916e-07
-7.39286091e-07
-7.37978302e-07
-7.35393513e-07
-7.34075845e-07
-7.44164566e-07
-7.79161116e-07
-7.75908248e-07
-7.75213797e-07
-7.75402459e-07
-7.48176064e-07
-7.38440032e-07
-7.35614893e-07
-7.34834048e-07
-7.51066083e-07
-7.7673742e-07
-7.75298762e-07
-7.48092818e-07
-7.37013845e-07
-7.42866625e-07
-7.78654017e-07
-7.77376541e-07
-7.42582714e-07
-7.35420567e-07
-7.417408e-07
-7.79093638e-07
-7.77585285e-07
-7.41164675e-07
-7.34967564e-07
-7.4487103e-07
-7.78923582e-07
-7.62103756e-07
-7.38020742e-07
-7.43168896e-07
-7.7861369e-07
-7.77408157e-07
-7.42225999e-07
-7.35680522e-07
-7.44367785e-07
-7.78397884e-07
-7.77797597e-07
-7.39555709e-07
-7.35420752e-07
-7.44906222e-07
-7.78043387e-07
-7.78038932e-07
-7.4137069e-07
-7.35652836e-07
-7.37988757e-07
-7.78846217e-07
-7.74849057e-07
-7.5542584e-07
-7.38312235e-07
-7.43487772e-07
-7.78312996e-07
-7.73777631e-07
-7.78776903e-07
-7.45459648e-07
-7.38457398e-07
-7.37755114e-07
-7.35300553e-07
-7.34003665e-07
-7.57912921e-07
-7.76763718e-07
-7.57299676e-07
-7.37712225e-07
-7.40969912e-07
-7.78750752e-07
-7.75476869e-07
-7.45950701e-07
-7.37894171e-07
-7.58280529e-07
-7.75400022e-07
-7.76405233e-07
-7.41213079e-07
-7.35123117e-07
-7.36764421e-07
-7.80242492e-07
-7.74910295e-07
-7.51252899e-07
-7.37423741e-07
-7.42821341e-07
-7.78978916e-07
-7.73480967e-07
-7.69489015e-07
-7.41841231e-07
-7.38348522e-07
-7.37174484e-07
-7.34174352e-07
-7.34907156e-07
-7.734886e-07
-7.75654822e-07
-7.75925372e-07
-7.75062353e-07
-7.57609658e-07
-7.36574822e-07
-7.33922021e-07
-7.43557465e-07
-7.78629457e-07
-7.66700225e-07
-7.36477559e-07
-7.36141308e-07
-7.70437639e-07
-7.74067609e-07
-7.75692434e-07
-7.45708065e-07
-7.35543517e-07
-7.36513944e-07
-7.72274677e-07
-7.73916703e-07
-7.75808427e-07
-7.47092554e-07
-7.37445629e-07
-7.34575659e-07
-7.35224891e-07
-7.79212614e-07
-7.74330318e-07
-7.66056321e-07
-7.3828168e-07
-7.35724268e-07
-7.46062351e-07
-7.78193782e-07
-7.73732588e-07
-7.73942301e-07
-7.53271092e-07
-7.39061701e-07
-7.35875991e-07
-7.33866165e-07
-7.41292122e-07
-7.79414415e-07
-7.6623644e-07
-7.35704085e-07
-7.3492372e-07
-7.64154288e-07
-7.76021883e-07
-7.75866272e-07
-7.7480023e-07
-7.67561049e-07
-7.40770423e-07
-7.36492967e-07
-7.34271656e-07
-7.38463744e-07
-7.79271171e-07
-7.78674858e-07
-7.38474428e-07
-7.37014239e-07
-7.70620247e-07
-7.74657739e-07
-7.67193884e-07
-7.38865746e-07
-7.35793705e-07
-7.42484635e-07
-7.77734388e-07
-7.75264133e-07
-7.47181306e-07
-7.36005136e-07
-7.38490608e-07
-7.76498413e-07
-7.73728035e-07
-7.73954732e-07
-7.49819641e-07
-7.38782845e-07
-7.37180202e-07
-7.34260932e-07
-7.33985794e-07
-7.54958961e-07
-7.77438524e-07
-7.74861092e-07
-7.75012451e-07
-7.58822982e-07
-7.38231485e-07
-7.34933405e-07
-7.36330366e-07
-7.76118087e-07
-7.74477344e-07
-7.70388476e-07
-7.38435476e-07
-7.36103837e-07
-7.55711172e-07
-7.76953176e-07
-7.62119471e-07
-7.36875815e-07
-7.36618477e-07
-7.78462352e-07
-7.74682352e-07
-7.6139301e-07
-7.37689528e-07
-7.34770479e-07
-7.39136579e-07
-7.78807172e-07
-7.75610959e-07
-7.47030989e-07
-7.33968329e-07
-7.34502231e-07
-7.72281962e-07
-7.75780279e-07
-7.76197707e-07
-7.74864571e-07
-7.64923115e-07
-7.37756582e-07
-7.34319724e-07
-7.30251113e-07
-7.29854816e-07
-7.68671084e-07
-7.74900477e-07
-7.66534683e-07
-7.31649215e-07
-7.31963389e-07
-7.79824011e-07
-7.74610501e-07
-7.7336454e-07
-7.73418613e-07
-7.2865097e-07
-7.27959229e-07
-7.72946369e-07
-7.64776255e-07
-7.65829546e-07
-7.62152691e-07
-7.60586004e-07
-7.57780658e-07
-7.55327792e-07
-7.52563154e-07
-7.49875991e-07
-7.46957967e-07
-7.44032736e-07
-7.41208866e-07
-7.37892952e-07
-7.35475241e-07
-7.32845391e-07
-7.30878956e-07
-7.31172894e-07
-7.26457633e-07
-7.23852673e-07
-7.17644495e-07
-7.13744391e-07
-7.06966636e-07
-7.01605223e-07
-6.95105593e-07
-6.88881508e-07
-6.8884519e-07
-6.83538743e-07
-6.79031659e-07
-6.70389147e-07
-6.61726068e-07
-6.51467341e-07
-6.40031768e-07
-6.24073668e-07
-6.12172097e-07
-5.99608571e-07
-6.28558857e-07
-5.36028924e-07
-5.62705805e-07
-5.79456425e-07
-5.54711782e-07
-5.40190113e-07
-5.20397266e-07
-4.99497609e-07
-4.83540458e-07
-4.78696423e-07
-4.7443577e-07
-4.29505081e-07
-3.40532747e-07
-3.11641219e-07
-1.52347412e-07
-1.16647028e-07
-5.17667079e-08
-2.67034327e-08
2.95827425e-08
6.31969946e-08
1.13495756e-07
1.50114231e-07
2.00101241e-07
2.44317527e-07
3.07202526e-07
3.75829395e-07
4.65421039e-07
5.33610266e-07
6.25725945e-07
6.88504383e-07
7.7574233e-07
8.30173472e-07
9.09866038e-07
9.55052156e-07
1.02445836e-06
1.06292647e-06
1.13212025e-06
1.16626584e-06
1.22707627e-06
1.26260009e-06
1.32932851e-06
1.31742551e-06
1.35412234e-06
1.44540489e-06
1.50558193e-06
1.43623048e-06
1.47535991e-06
1.57884277e-06
1.60022038e-06
1.55411428e-06
1.60330629e-06
1.66332922e-06
1.6689544e-06
1.67880797e-06
1.70358967e-06
1.71823371e-06
1.72996709e-06
1.75169311e-06
1.76473378e-06
1.77746777e-06
1.82342675e-06
1.80310905e-06
1.75760627e-06
1.84596435e-06
1.97537218e-06
1.85565266e-06
1.79015842e-06
1.95262883e-06
2.01324145e-06
1.88680505e-06
1.87545256e-06
2.01637893e-06
2.02612922e-06
1.91944628e-06
1.9103558e-06
2.03998845e-06
2.04175881e-06
1.94513482e-06
1.94518605e-06
2.05534694e-06
2.05616375e-06
1.96724399e-06
1.97147446e-06
2.06404573e-06
2.05572488e-06
1.98411103e-06
2.02245265e-06
2.06922483e-06
2.03308791e-06
1.99674217e-06
2.05746493e-06
)
;

boundaryField
{
    closed
    {
        type            calculated;
        value           nonuniform List<scalar> 0();
    }
    open
    {
        type            calculated;
        value           nonuniform List<scalar> 0();
    }
    sides
    {
        type            empty;
    }
    procBoundary4to3
    {
        type            processor;
        value           uniform -7.69439501e-07;
    }
    procBoundary4to5
    {
        type            processor;
        value           uniform 2.07595387e-06;
    }
}


// ************************************************************************* //
