/*--------------------------------*- C++ -*----------------------------------*\
| =========                 |                                                 |
| \\      /  F ield         | OpenFOAM: The Open Source CFD Toolbox           |
|  \\    /   O peration     | Version:  2306                                  |
|   \\  /    A nd           | Website:  www.openfoam.com                      |
|    \\/     M anipulation  |                                                 |
\*---------------------------------------------------------------------------*/
FoamFile
{
    version     2.0;
    format      ascii;
    arch        "LSB;label=32;scalar=64";
    class       volScalarField;
    location    "0.0016";
    object      p;
}
// * * * * * * * * * * * * * * * * * * * * * * * * * * * * * * * * * * * * * //

dimensions      [1 -1 -2 0 0 0 0];

internalField   nonuniform List<scalar> 
530
(
101448.684
101429.059
101398.793
101361.253
101324.823
101301.044
101285.408
101258.391
101214.044
101178.622
101194.88
101274.72
101370.424
101431.435
101442.014
101420.422
101395.346
101378.977
101369.28
101363.85
101360.657
101357.783
101353.635
101349.344
101347.453
101349.58
101355.815
101366.364
101381.294
101399.287
101417.85
101432.987
101441.001
101441.971
101439.153
101437.768
101442.082
101453.817
101472.323
101494.726
101516.563
101533.146
101541.117
101539.285
101528.647
101511.728
101491.586
101470.958
101451.796
101435.18
101421.474
101410.564
101402.077
101395.542
101390.499
101386.551
101383.383
101380.762
101378.522
101376.555
101374.789
101373.179
101371.697
101370.323
101369.044
101367.851
101366.734
101365.686
101364.701
101363.772
101362.892
101362.056
101361.26
101360.498
101359.766
101359.062
101358.381
101357.723
101357.085
101356.464
101355.864
101355.291
101354.722
101354.168
101353.634
101353.122
101352.618
101352.139
101351.697
101351.242
101350.808
101350.404
101350.023
101349.649
101349.296
101348.953
101348.647
101348.355
101348.078
101347.812
101347.556
101347.303
101347.051
101346.845
101346.646
101346.45
101346.255
101346.061
101345.88
101345.686
101345.473
101345.296
101345.114
101344.932
101344.757
101344.576
101344.397
101344.221
101344.048
101343.879
101343.721
101343.54
101343.355
101343.181
101343.009
101342.83
101342.677
101342.521
101342.365
101342.222
101342.06
101341.905
101341.75
101341.599
101341.451
101341.299
101341.153
101341.006
101340.86
101340.732
101340.596
101340.472
101340.335
101340.194
101340.049
101339.917
101339.786
101339.638
101339.518
101339.39
101339.263
101339.135
101339.016
101338.887
101338.754
101338.628
101338.501
101338.368
101338.244
101338.123
101337.995
101337.86
101337.73
101337.608
101337.484
101337.348
101337.227
101337.102
101336.972
101336.833
101336.713
101336.574
101336.456
101336.329
101336.2
101336.09
101335.967
101335.843
101335.709
101335.572
101335.464
101335.331
101335.194
101335.061
101334.94
101334.815
101334.697
101334.577
101334.439
101334.315
101334.195
101334.069
101333.955
101333.826
101333.71
101333.601
101333.479
101333.37
101333.266
101333.155
101333.049
101332.936
101332.823
101332.727
101332.632
101332.54
101332.427
101332.329
101332.26
101332.193
101332.118
101332.045
101331.991
101331.949
101331.619
101331.494
101331.392
101331.287
101331.179
101331.062
101330.961
101330.869
101330.779
101330.695
101330.599
101330.505
101330.422
101330.351
101330.275
101330.204
101330.12
101330.039
101329.969
101329.912
101329.844
101329.776
101329.708
101329.657
101329.602
101329.529
101329.47
101329.422
101329.373
101329.328
101329.266
101329.219
101329.18
101329.137
101329.093
101329.048
101329.018
101328.984
101328.932
101328.894
101328.867
101328.84
101328.816
101328.773
101328.746
101328.73
101328.715
101328.701
101328.673
101328.668
101328.672
101328.674
101328.664
101328.675
101328.705
101328.739
101328.777
101328.822
101328.897
101328.982
101329.089
101329.21
101329.114
101329.032
101328.976
101328.939
101328.909
101328.86
101328.837
101328.843
101328.861
101328.872
101328.864
101328.859
101328.87
101328.897
101328.922
101328.927
101328.896
101328.829
101328.739
101328.898
101329.065
101329.192
101329.3
101329.373
101329.463
101329.562
101329.644
101329.693
101329.762
101329.845
101329.907
101329.93
101329.957
101329.98
101329.998
101330.414
101330.49
101330.586
101330.711
101330.833
101330.94
101331.074
101331.231
101331.389
101331.102
101331.122
101331.177
101331.269
101331.378
101331.498
101331.591
101331.701
101331.822
101331.935
101332.044
101332.162
101332.27
101332.352
101332.435
101332.532
101332.643
101332.746
101332.818
101332.914
101333.037
101333.145
101333.223
101333.327
101333.459
101333.577
101333.666
101333.774
101333.898
101334.026
101334.142
101334.233
101334.348
101334.491
101334.621
101334.723
101334.843
101334.972
101335.09
101335.192
101335.248
101335.291
101335.36
101335.456
101335.537
101335.594
101335.652
101335.716
101335.776
101335.824
101335.858
101335.871
101335.874
101336.3
101336.354
101336.428
101336.539
101336.629
101336.694
101336.77
101336.845
101336.914
101336.992
101337.079
101337.156
101337.23
101337.303
101337.375
101337.454
101337.542
101337.627
101337.693
101337.761
101337.842
101337.944
101338.04
101338.111
101338.206
101338.328
101338.435
101338.519
101338.623
101338.74
101338.849
101338.938
101338.98
101339.012
101339.078
101339.176
101339.26
101339.314
101339.399
101339.517
101339.622
101339.698
101339.792
101339.92
101340.062
101340.189
101340.296
101340.424
101340.561
101340.727
101340.896
101340.834
101340.848
101340.888
101340.945
101341.051
101341.215
101341.321
101341.451
101341.627
101341.792
101341.934
101342.106
101342.308
101342.534
101342.777
101342.586
101342.717
101342.875
101343.069
101343.284
101343.493
101343.719
101343.981
101344
101344.062
101344.152
101344.223
101344.325
101344.464
101344.629
101344.808
101344.935
101345.078
101345.242
101345.429
101345.628
101345.777
101345.947
101346.139
101346.348
101346.558
101346.725
101346.902
101347.082
101347.239
101347.377
101347.993
101348.192
101348.388
101348.618
101348.889
101349.155
101349.397
101349.623
101349.861
101350.481
101350.714
101350.945
101351.18
101351.439
101351.678
101351.885
101352.152
101352.47
101352.69
101352.908
101353.128
101353.339
101353.999
101354.223
101354.446
101354.669
101354.892
101355.582
101355.842
101356.124
101356.469
101356.798
101357.085
101357.404
101357.783
101358.147
101358.47
101358.821
101359.21
101359.615
101359.977
101360.325
101360.725
101361.128
101361.479
101361.863
101362.312
101362.739
101363.132
101363.536
101363.952
101364.39
101364.82
101365.174
101365.529
101365.925
101366.377
101366.798
101367.187
101367.618
)
;

boundaryField
{
    closed
    {
        type            zeroGradient;
    }
    open
    {
        type            waveTransmissive;
        gamma           1.25;
        fieldInf        101325;
        lInf            1;
        value           nonuniform List<scalar> 0();
    }
    sides
    {
        type            empty;
    }
    procBoundary0to1
    {
        type            processor;
        value           uniform 101368.051;
    }
}


// ************************************************************************* //
