/*--------------------------------*- C++ -*----------------------------------*\
| =========                 |                                                 |
| \\      /  F ield         | OpenFOAM: The Open Source CFD Toolbox           |
|  \\    /   O peration     | Version:  2306                                  |
|   \\  /    A nd           | Website:  www.openfoam.com                      |
|    \\/     M anipulation  |                                                 |
\*---------------------------------------------------------------------------*/
FoamFile
{
    version     2.0;
    format      ascii;
    arch        "LSB;label=32;scalar=64";
    class       volScalarField;
    location    "0.00112";
    object      prefDPV_H2O;
}
// * * * * * * * * * * * * * * * * * * * * * * * * * * * * * * * * * * * * * //

dimensions      [1 -1 -1 0 0 0 0];

internalField   nonuniform List<scalar> 
530
(
-3.84616688e-07
-3.83726133e-07
-3.7037359e-07
-3.65507537e-07
-3.65762711e-07
-3.64726516e-07
-3.64616875e-07
-3.85217046e-07
-3.83787408e-07
-3.67236026e-07
-3.65746019e-07
-3.85271204e-07
-3.83657839e-07
-3.66970075e-07
-3.6589686e-07
-3.85138565e-07
-3.84155656e-07
-3.69938835e-07
-3.63763648e-07
-3.65178969e-07
-3.8565808e-07
-3.8351801e-07
-3.8436181e-07
-3.67817369e-07
-3.6472725e-07
-3.6343519e-07
-3.63700608e-07
-3.8620655e-07
-3.8456924e-07
-3.84683515e-07
-3.84502631e-07
-3.70598969e-07
-3.63671299e-07
-3.6388241e-07
-3.84900257e-07
-3.84485693e-07
-3.70610354e-07
-3.63718375e-07
-3.64967152e-07
-3.85578628e-07
-3.83580917e-07
-3.84370223e-07
-3.70109784e-07
-3.64192056e-07
-3.63982547e-07
-3.85125213e-07
-3.84169813e-07
-3.68812411e-07
-3.64808177e-07
-3.63547854e-07
-3.63507125e-07
-3.86284654e-07
-3.84541432e-07
-3.84717284e-07
-3.84456678e-07
-3.7166757e-07
-3.6402247e-07
-3.64017708e-07
-3.84936742e-07
-3.84232302e-07
-3.70981785e-07
-3.64526771e-07
-3.64532524e-07
-3.84899589e-07
-3.84125237e-07
-3.71763412e-07
-3.64830831e-07
-3.64826318e-07
-3.84974435e-07
-3.84040587e-07
-3.72283876e-07
-3.65000529e-07
-3.64972857e-07
-3.84912797e-07
-3.83881e-07
-3.72171869e-07
-3.65859654e-07
-3.65787916e-07
-3.64617017e-07
-3.64406001e-07
-3.85601344e-07
-3.83766412e-07
-3.66830275e-07
-3.66049815e-07
-3.85888817e-07
-3.83411181e-07
-3.84408182e-07
-3.70943699e-07
-3.64083532e-07
-3.63968868e-07
-3.8557091e-07
-3.84424413e-07
-3.70488148e-07
-3.63456192e-07
-3.63681383e-07
-3.85713945e-07
-3.84275565e-07
-3.8452978e-07
-3.84087108e-07
-3.71866795e-07
-3.65255945e-07
-3.6413497e-07
-3.64009379e-07
-3.86013501e-07
-3.84118779e-07
-3.66489757e-07
-3.6501874e-07
-3.85888099e-07
-3.83989433e-07
-3.66507976e-07
-3.65241015e-07
-3.85590532e-07
-3.84414977e-07
-3.70005826e-07
-3.63395605e-07
-3.64046694e-07
-3.85880438e-07
-3.83807491e-07
-3.84515499e-07
-3.70600176e-07
-3.6397089e-07
-3.63821151e-07
-3.85727524e-07
-3.84457674e-07
-3.70548177e-07
-3.63876901e-07
-3.63783604e-07
-3.85803722e-07
-3.84206893e-07
-3.66992569e-07
-3.65244886e-07
-3.85700683e-07
-3.84332619e-07
-3.69602216e-07
-3.63605215e-07
-3.63480357e-07
-3.86063113e-07
-3.84229766e-07
-3.66797825e-07
-3.64984675e-07
-3.86169314e-07
-3.83974846e-07
-3.66580425e-07
-3.64988042e-07
-3.86248884e-07
-3.8396009e-07
-3.66604758e-07
-3.65003803e-07
-3.86263926e-07
-3.83958842e-07
-3.66663837e-07
-3.65115067e-07
-3.86197665e-07
-3.84009811e-07
-3.66767367e-07
-3.65248392e-07
-3.85955179e-07
-3.84370935e-07
-3.70936036e-07
-3.63544167e-07
-3.63651176e-07
-3.85823255e-07
-3.8393653e-07
-3.84185252e-07
-3.72099003e-07
-3.65587415e-07
-3.65419961e-07
-3.63916199e-07
-3.63707944e-07
-3.86566259e-07
-3.84233512e-07
-3.67166168e-07
-3.65330719e-07
-3.86417628e-07
-3.84014914e-07
-3.67034345e-07
-3.65167493e-07
-3.86657153e-07
-3.84114549e-07
-3.66953859e-07
-3.64664477e-07
-3.84520204e-07
-3.84303658e-07
-3.67280168e-07
-3.644538e-07
-3.74707499e-07
-3.84523955e-07
-3.84152107e-07
-3.83949335e-07
-3.83991665e-07
-3.73343524e-07
-3.6522173e-07
-3.64978893e-07
-3.63292342e-07
-3.63207508e-07
-3.85934868e-07
-3.84815492e-07
-3.70785938e-07
-3.63517279e-07
-3.63361835e-07
-3.8692489e-07
-3.84319058e-07
-3.67264577e-07
-3.65121024e-07
-3.86854871e-07
-3.83964961e-07
-3.66689567e-07
-3.65490813e-07
-3.86840994e-07
-3.83779527e-07
-3.83989168e-07
-3.67135451e-07
-3.65567288e-07
-3.86430414e-07
-3.83678112e-07
-3.69769957e-07
-3.67362169e-07
-3.7520931e-07
-3.68246879e-07
-3.65674039e-07
-3.86440103e-07
-3.83772241e-07
-3.72011879e-07
-3.66184638e-07
-3.64301627e-07
-3.64167958e-07
-3.86786663e-07
-3.84490533e-07
-3.73093266e-07
-3.64441848e-07
-3.64288763e-07
-3.86993198e-07
-3.84157461e-07
-3.68373324e-07
-3.65823075e-07
-3.86695404e-07
-3.84210653e-07
-3.73319622e-07
-3.64434545e-07
-3.64321348e-07
-3.87068472e-07
-3.84459903e-07
-3.73728125e-07
-3.64567054e-07
-3.64481712e-07
-3.84412664e-07
-3.84411084e-07
-3.81159518e-07
-3.65139701e-07
-3.64797127e-07
-3.84131696e-07
-3.8407133e-07
-3.67566796e-07
-3.65852568e-07
-3.87105011e-07
-3.83966738e-07
-3.84402624e-07
-3.77981037e-07
-3.66821509e-07
-3.65729085e-07
-3.65587306e-07
-3.64022769e-07
-3.639401e-07
-3.84279036e-07
-3.84232431e-07
-3.84513498e-07
-3.75883797e-07
-3.64583758e-07
-3.6437875e-07
-3.83039211e-07
-3.84637579e-07
-3.74670909e-07
-3.63926744e-07
-3.63838888e-07
-3.84844513e-07
-3.84175333e-07
-3.84520783e-07
-3.74787718e-07
-3.64388675e-07
-3.6408537e-07
-3.81390276e-07
-3.84356028e-07
-3.68321444e-07
-3.65358431e-07
-3.86799046e-07
-3.84337067e-07
-3.72388691e-07
-3.64108684e-07
-3.63986377e-07
-3.84495254e-07
-3.84369559e-07
-3.68019921e-07
-3.65391466e-07
-3.8681851e-07
-3.84398855e-07
-3.72978795e-07
-3.63774746e-07
-3.63692281e-07
-3.86570788e-07
-3.84087151e-07
-3.84285862e-07
-3.72545357e-07
-3.66034344e-07
-3.63920575e-07
-3.63791526e-07
-3.85591966e-07
-3.8433066e-07
-3.67340217e-07
-3.65249702e-07
-3.87044193e-07
-3.84086189e-07
-3.67533405e-07
-3.65419429e-07
-3.86886559e-07
-3.84343369e-07
-3.73306462e-07
-3.64065764e-07
-3.63996534e-07
-3.87056063e-07
-3.84079865e-07
-3.84188497e-07
-3.68713471e-07
-3.65829664e-07
-3.86686242e-07
-3.8393156e-07
-3.71260458e-07
-3.65921914e-07
-3.63815634e-07
-3.63623653e-07
-3.83388235e-07
-3.84452038e-07
-3.67021565e-07
-3.64733727e-07
-3.86709277e-07
-3.84120859e-07
-3.67009687e-07
-3.65105427e-07
-3.8696726e-07
-3.83772786e-07
-3.71278164e-07
-3.67374181e-07
-3.70961904e-07
-3.66879016e-07
-3.65899843e-07
-3.86697275e-07
-3.84173795e-07
-3.73370038e-07
-3.64009779e-07
-3.63881788e-07
-3.87200118e-07
-3.8460419e-07
-3.73789161e-07
-3.63848154e-07
-3.63763583e-07
-3.87116543e-07
-3.84109937e-07
-3.84332155e-07
-3.68348111e-07
-3.65592666e-07
-3.86770095e-07
-3.84033896e-07
-3.67473371e-07
-3.65283835e-07
-3.86806995e-07
-3.84394348e-07
-3.72516883e-07
-3.63792241e-07
-3.63654881e-07
-3.87117633e-07
-3.84339645e-07
-3.67651158e-07
-3.65393598e-07
-3.86799744e-07
-3.8434347e-07
-3.73152735e-07
-3.6419595e-07
-3.64102566e-07
-3.87073114e-07
-3.84564578e-07
-3.73642203e-07
-3.64271939e-07
-3.64199092e-07
-3.87021146e-07
-3.84597034e-07
-3.73938368e-07
-3.64195102e-07
-3.64028842e-07
-3.87148031e-07
-3.84261838e-07
-3.67314924e-07
-3.6520214e-07
-3.86822388e-07
-3.8406755e-07
-3.67180421e-07
-3.65248339e-07
-3.86656451e-07
-3.84317307e-07
-3.72870525e-07
-3.6416859e-07
-3.64082999e-07
-3.86829024e-07
-3.84494721e-07
-3.74937895e-07
-3.64567635e-07
-3.64478775e-07
-3.86773876e-07
-3.84435676e-07
-3.75287308e-07
-3.64604525e-07
-3.64550108e-07
-3.86792868e-07
-3.84427414e-07
-3.74751464e-07
-3.64480285e-07
-3.64390184e-07
-3.86591051e-07
-3.84432414e-07
-3.74312112e-07
-3.64339961e-07
-3.64258843e-07
-3.86486833e-07
-3.8446302e-07
-3.74134077e-07
-3.64281168e-07
-3.64155388e-07
-3.86511278e-07
-3.84160163e-07
-3.67597479e-07
-3.65559548e-07
-3.86105386e-07
-3.84230485e-07
-3.72903065e-07
-3.64056205e-07
-3.63956981e-07
-3.86441649e-07
-3.84200169e-07
-3.67299881e-07
-3.65423953e-07
-3.86020532e-07
-3.8426923e-07
-3.72514366e-07
-3.63959909e-07
-3.63850059e-07
-3.86270919e-07
-3.84221761e-07
-3.67183188e-07
-3.6540075e-07
-3.85914308e-07
-3.84286225e-07
-3.72240763e-07
-3.63912001e-07
-3.63783659e-07
-3.86074511e-07
-3.84242467e-07
-3.67056035e-07
-3.65342921e-07
-3.8580959e-07
-3.84315353e-07
-3.71937899e-07
-3.63792408e-07
-3.63670574e-07
-3.85970699e-07
-3.84271476e-07
-3.66897742e-07
-3.65247645e-07
-3.85677736e-07
-3.84383352e-07
-3.7155774e-07
-3.63677347e-07
-3.63542994e-07
-3.8593883e-07
-3.84203952e-07
-3.66798317e-07
-3.65196126e-07
-3.85873818e-07
-3.83916734e-07
-3.66689633e-07
-3.65267171e-07
-3.85780884e-07
-3.83974361e-07
-3.66630445e-07
-3.65213764e-07
-3.85486468e-07
-3.84387914e-07
-3.71172829e-07
-3.63609531e-07
-3.6349535e-07
-3.85669632e-07
-3.84274492e-07
-3.66664552e-07
-3.65177816e-07
-3.85657252e-07
-3.84091876e-07
-3.66458301e-07
-3.64903562e-07
-3.85368436e-07
-3.84511308e-07
-3.69682547e-07
-3.62958859e-07
-3.62858111e-07
-3.85708847e-07
-3.84456026e-07
-3.66343746e-07
-3.64662197e-07
-3.85677313e-07
-3.84034429e-07
-3.66332203e-07
-3.65183877e-07
-3.85477921e-07
-3.83975299e-07
-3.66557015e-07
-3.65416871e-07
-3.85113122e-07
-3.84319363e-07
-3.71702112e-07
-3.63584034e-07
-3.63511728e-07
-3.85070701e-07
-3.84173623e-07
-3.67012962e-07
-3.65371907e-07
-3.77752892e-07
-3.83915401e-07
-3.84069299e-07
-3.73919162e-07
-3.63690656e-07
-3.6367556e-07
-3.85164966e-07
-3.84507566e-07
-3.71441581e-07
)
;

boundaryField
{
    closed
    {
        type            calculated;
        value           nonuniform List<scalar> 0();
    }
    open
    {
        type            calculated;
        value           nonuniform List<scalar> 0();
    }
    sides
    {
        type            empty;
    }
    procBoundary2to1
    {
        type            processor;
        value           uniform -3.65054674e-07;
    }
    procBoundary2to3
    {
        type            processor;
        value           uniform -3.63593226e-07;
    }
}


// ************************************************************************* //
