/*--------------------------------*- C++ -*----------------------------------*\
| =========                 |                                                 |
| \\      /  F ield         | OpenFOAM: The Open Source CFD Toolbox           |
|  \\    /   O peration     | Version:  2306                                  |
|   \\  /    A nd           | Website:  www.openfoam.com                      |
|    \\/     M anipulation  |                                                 |
\*---------------------------------------------------------------------------*/
FoamFile
{
    version     2.0;
    format      ascii;
    arch        "LSB;label=32;scalar=64";
    class       volScalarField;
    location    "0.00132";
    object      h;
}
// * * * * * * * * * * * * * * * * * * * * * * * * * * * * * * * * * * * * * //

dimensions      [0 2 -2 0 0 0 0];

internalField   nonuniform List<scalar> 
530
(
-217012.839
-210142.997
-232099.527
-231760.974
-211794.674
-208831.826
-227489.469
-227294.914
-207057.681
-207736.134
-223746.184
-223371.72
-202503.056
-205827.287
-219563.89
-219268.896
-198576.556
-203134.932
-215372.653
-215259.538
-195088.878
-199917.462
-211143.517
-211152.086
-191741.8
-196479.311
-206948.168
-207030.534
-188420.422
-192885.391
-202744.195
-202862.185
-185031.269
-189185.529
-198453.13
-198645.392
-181588.276
-185402.837
-194105.669
-194422.901
-178012.199
-181602.523
-189790.771
-190232.216
-174502.066
-177701.171
-185873.046
-186044.536
-171004.671
-173733.647
-182082.335
-182054.336
-167475.281
-169857.699
-178484.012
-178235.475
-163922.074
-166039.305
-174806.366
-174509.993
-160440.517
-162254.119
-171099.155
-170837.475
-156889.195
-158584.419
-167409.028
-167147.434
-153322.001
-154973.903
-163770.667
-163478.734
-149758.012
-151405.03
-160202.196
-159840.042
-146185.601
-147879.495
-156493.84
-156200.226
-142615.517
-144326.527
-152763.184
-152465.922
-139050.461
-140766.967
-149018.127
-148707.209
-135515.258
-137216.057
-145265.501
-144955.158
-132019.958
-133667.509
-141526.188
-141208.946
-128576.854
-130176.105
-137798.835
-137487.25
-125094.401
-126674.336
-134101.382
-133808.772
-121678.813
-123136.555
-130410.468
-130157.821
-118253.18
-119666.327
-126675.149
-126516.649
-114814.757
-116129.688
-123005.34
-122879.385
-111382.39
-112595.532
-119350.495
-119236.261
-107943.788
-109064.681
-115711.13
-115617.603
-104525.323
-105541.095
-112083.585
-112022.516
-101116.342
-102048.859
-108483.05
-108437.913
-97679.7878
-98534.1056
-104898.999
-104870.065
-94291.5018
-95045.4043
-101253.206
-101268.332
-90799.4839
-91615.9166
-97579.6568
-97584.103
-87282.1219
-88183.2424
-93926.388
-93900.966
-83849.888
-84728.4878
-90284.4737
-90252.5377
-80444.7019
-81288.8115
-86667.0668
-86632.7123
-77054.6348
-77873.1609
-83074.6545
-83041.6253
-73690.8993
-74488.9769
-79509.027
-79497.8278
-70351.836
-71124.8467
-76059.9611
-76009.693
-67203.8058
-67854.0829
-72833.0473
-72740.1674
-64085.8208
-64694.4044
-69755.2942
-69582.6452
-61027.2874
-61628.4524
-66726.1697
-66518.2602
-58039.6477
-58642.1471
-63754.552
-63523.7574
-55132.4807
-55733.8023
-60852.7255
-60613.5542
-52307.656
-52907.8478
-58025.9135
-57781.2856
-49567.8744
-50161.1304
-55292.4332
-55030.4541
-46910.907
-47499.3832
-52627.9998
-52370.0121
-44308.5596
-44907.6297
-49975.8959
-49734.8223
-41767.2595
-42361.3832
-47361.2107
-47143.3473
-39304.1434
-39889.3077
-44811.6783
-44617.3032
-36921.3325
-37488.8147
-42341.2736
-42171.4453
-34621.5212
-35167.1563
-39946.318
-39803.6587
-32396.2629
-32930.4825
-37642.146
-37507.1238
-30268.4992
-30785.4606
-35413.1291
-35274.6723
-28233.2329
-28737.6903
-33242.5985
-33099.576
-26293.3687
-26790.2928
-31124.2253
-30978.9918
-24455.4526
-24938.3945
-29069.8213
-28903.8516
-22713.8928
-23191.8693
-27094.2587
-26882.4284
-21072.853
-21565.8906
-25192.6045
-24967.3799
-19521.6344
-19978.8552
-23357.7206
-23188.699
-18016.0725
-18377.497
-21604.8999
-21509.3445
-16502.2692
-16885.8102
-19978.3848
-19893.102
-14951.9185
-15466.872
-18505.5191
-18349.8471
-13434.3407
-14070.4629
-17162.2656
-16904.6765
-11995.9769
-12729.1802
-15850.4042
-15548.8589
-10693.8693
-11433.8519
-14576.4184
-14266.115
-9496.6008
-10212.0734
-13333.8364
-13038.8635
-8402.73785
-9062.78016
-12132.0714
-11856.7006
-7402.31947
-7999.00034
-10969.9438
-10740.9548
-6470.22882
-6998.78418
-9865.38433
-9685.87116
-5607.98694
-6114.61647
-8806.71449
-8695.90151
-4776.51724
-5262.21664
-7845.59165
-7751.91681
-3993.26772
-4456.99132
-6973.48332
-6859.66373
-3254.13595
-3740.27735
-6165.5004
-6022.75544
-2592.36968
-3073.47485
-5393.5462
-5240.02719
-1986.88283
-2451.429
-4664.72422
-4510.96522
-1435.41762
-1873.11852
-3979.44636
-3832.73226
-931.396469
-1338.55496
-3338.42581
-3201.57741
-467.89534
-849.882955
-2745.13249
-2611.62757
-36.9745284
-405.768336
-2198.96387
-2064.65598
358.887364
0.803832291
-1693.82288
-1561.65869
714.779208
375.2595
-1225.44825
-1101.3181
1032.22682
719.808735
-792.029043
-681.220173
1313.12718
1033.76695
-393.274918
-296.939988
1564.40834
1314.08964
-30.6754289
55.2788168
1792.43311
1561.67541
296.765388
376.962177
1997.83912
1780.61164
592.141543
668.93849
2180.17848
1974.58083
858.500345
932.008646
2338.58359
2146.75105
1099.34941
1166.94345
2473.82911
2298.06683
1316.16885
1377.11205
2589.64349
2428.9154
1509.09857
1564.69537
2688.89775
2540.62004
1679.71198
1731.13645
2772.7267
2634.88216
1829.90223
1877.99632
2842.65348
2713.23582
1961.35743
2006.75809
2899.73271
2777.62546
2075.91464
2118.61018
2944.14232
2829.91651
2175.22492
2215.02132
2977.20077
2871.08991
2260.54384
2297.4324
3000.54648
2902.09198
2333.0182
2367.19332
3015.43622
2923.97652
2393.86882
2425.52536
3022.85143
2937.81403
2444.31471
2473.54744
3023.55925
2944.69642
2485.56605
2512.31002
3018.09203
2945.62172
2518.72126
2542.82021
3007.07367
2941.13777
2544.66577
2566.11436
2991.60289
2931.95777
2564.28237
2582.90297
2972.10825
2919.1286
2578.67199
2593.78414
2948.64925
2903.29933
2588.60714
2599.76191
2922.02735
2884.19077
2594.05612
2602.11301
2894.21997
2861.66437
2595.07401
2601.2862
2866.6338
2837.02387
2595.3208
2600.36229
2836.31885
2809.69047
2605.91589
2607.33243
2812.27314
2783.03294
2712.67778
2698.52809
2737.50132
2717.01153
2709.93872
2689.93882
2693.46539
2672.65284
2671.90994
2650.75545
2647.41908
2626.26002
2619.64499
2598.87181
2588.6992
2568.66474
2554.89193
2535.91386
2518.82744
2501.12702
2481.45895
2465.08457
2444.0497
2428.88931
2408.04042
2393.96715
2374.86852
2361.95033
2345.80927
2334.39558
2321.85013
2312.41402
2303.53687
2296.37005
2290.81637
2285.73251
2282.00813
2278.75099
2276.87711
2275.43274
2274.67663
2274.2489
2274.04395
2273.95013
2273.9128
2273.89948
2273.89553
2273.89461
2273.89451
2273.89455
2273.89458
2273.8946
2273.89461
2273.89461
2273.89461
2273.89461
2273.89461
2273.89461
2273.89461
2273.89461
2273.89461
2273.89461
2273.89461
2273.89461
2273.89461
2273.89461
2273.89461
2273.89461
2273.89461
2273.89461
2273.89461
2273.89461
2273.89461
2273.89461
2273.89461
2273.89461
)
;

boundaryField
{
    closed
    {
        type            lookUpEnthalpy;
        h0              nonuniform List<scalar> 0();
        value           nonuniform List<scalar> 0();
    }
    open
    {
        type            zeroGradient;
    }
    sides
    {
        type            empty;
    }
    procBoundary5to4
    {
        type            processor;
        value           uniform -236483.353;
    }
}


// ************************************************************************* //
