/*--------------------------------*- C++ -*----------------------------------*\
| =========                 |                                                 |
| \\      /  F ield         | OpenFOAM: The Open Source CFD Toolbox           |
|  \\    /   O peration     | Version:  2306                                  |
|   \\  /    A nd           | Website:  www.openfoam.com                      |
|    \\/     M anipulation  |                                                 |
\*---------------------------------------------------------------------------*/
FoamFile
{
    version     2.0;
    format      ascii;
    arch        "LSB;label=32;scalar=64";
    class       volScalarField;
    location    "0.00132";
    object      prefDZ_H2;
}
// * * * * * * * * * * * * * * * * * * * * * * * * * * * * * * * * * * * * * //

dimensions      [1 -1 -1 0 0 0 0];

internalField   nonuniform List<scalar> 
530
(
0.000173652182
0.000173722237
0.000174834312
0.000174798124
0.000173978431
0.000174072844
0.000175134508
0.000175087445
0.000174263419
0.000174414151
0.00017534458
0.000175322693
0.00017451225
0.000174713977
0.000175585391
0.000175570676
0.000174764964
0.000174977393
0.000175822948
0.000175802064
0.000175041225
0.000175217909
0.000176059795
0.000176031593
0.00017530143
0.000175446557
0.000176289776
0.000176255747
0.000175549039
0.000175687527
0.000176516196
0.000176478276
0.000175788907
0.000175919544
0.000176722761
0.000176700413
0.000176024908
0.000176144556
0.000176901676
0.000176918658
0.000176255545
0.000176365936
0.00017708227
0.000177129693
0.000176484818
0.000176581138
0.00017728267
0.000177338078
0.000176711263
0.000176791093
0.000177493519
0.000177528443
0.000176888843
0.000176997314
0.000177693593
0.000177701709
0.000177065131
0.000177162483
0.000177849083
0.000177866481
0.000177246478
0.000177328048
0.000178009376
0.000178025741
0.000177419859
0.00017749929
0.000178170501
0.000178187556
0.000177589455
0.000177672812
0.000178328779
0.000178348204
0.000177754633
0.000177846085
0.000178482219
0.000178507952
0.000177917768
0.000178020065
0.000178648988
0.000178670015
0.000178089107
0.000178191508
0.000178820504
0.000178841512
0.000178273776
0.000178374187
0.000178996174
0.000179017813
0.000178458458
0.00017856192
0.000179175199
0.000179196346
0.000178644438
0.000178748057
0.000179355953
0.000179377737
0.000178834992
0.000178936665
0.000179538567
0.000179558584
0.000179022344
0.000179124013
0.000179720163
0.00017973779
0.000179215562
0.000179308584
0.000179903213
0.000179916964
0.000179408809
0.00017950218
0.000180094502
0.000180098051
0.000179603164
0.000179689045
0.000180280974
0.000180281772
0.000179800117
0.000179879112
0.000180469082
0.000180468507
0.000179996213
0.000180071636
0.000180659038
0.000180656341
0.000180195221
0.000180263929
0.000180850203
0.000180845091
0.000180396164
0.000180460743
0.000181041708
0.000181035113
0.000180595636
0.000180657112
0.000181234618
0.000181227688
0.000180801885
0.000180856561
0.000181435477
0.000181426102
0.000181006907
0.000181062837
0.000181642809
0.000181634591
0.000181217749
0.000181279658
0.000181852607
0.00018184697
0.000181434324
0.000181494684
0.000182064793
0.000182059615
0.00018165286
0.000181711049
0.000182277312
0.000182272376
0.000181872475
0.000181928045
0.000182490735
0.000182486105
0.000182093307
0.000182145629
0.000182705296
0.000182699677
0.000182314601
0.000182362163
0.000182913716
0.000182912811
0.000182538708
0.00018257994
0.000183107412
0.000183111963
0.000182733208
0.000182775355
0.000183291544
0.000183305538
0.000182926953
0.000182970024
0.000183476814
0.000183495017
0.00018311969
0.00018316437
0.000183660999
0.000183681669
0.000183310973
0.000183357482
0.000183843417
0.00018386483
0.00018350003
0.000183548492
0.000184023874
0.000184045505
0.000183686384
0.000183736554
0.000184200419
0.000184223355
0.000183869463
0.000183921777
0.00018437491
0.000184397551
0.000184047797
0.000184102831
0.000184551647
0.000184573292
0.000184233208
0.00018428542
0.00018472928
0.000184749031
0.000184415774
0.000184468304
0.000184905139
0.000184922892
0.00018459458
0.000184646639
0.000185077713
0.00018509322
0.000184769786
0.000184821069
0.000185246582
0.000185259669
0.000184941976
0.000184992347
0.000185411182
0.000185423563
0.000185111735
0.000185161273
0.000185572957
0.000185585611
0.000185279668
0.000185328622
0.00018573334
0.000185746452
0.000185446184
0.000185494945
0.000185892873
0.000185906308
0.000185611602
0.000185659974
0.00018604947
0.000186065102
0.000185774779
0.000185824228
0.000186201847
0.000186222292
0.000185934903
0.000185988369
0.000186350762
0.00018637239
0.000186089508
0.000186144186
0.000186496732
0.000186511214
0.000186239129
0.000186285054
0.00018663703
0.000186642769
0.000186377716
0.000186428102
0.000186767213
0.000186770135
0.000186497382
0.000186566528
0.000186883967
0.00018689306
0.000186606655
0.000186691426
0.000186989684
0.000187009337
0.000186712891
0.000186811047
0.000187094472
0.000187119638
0.000186824132
0.000186923311
0.00018719825
0.000187225158
0.000186935856
0.000187030433
0.000187302024
0.000187327672
0.000187048494
0.000187136522
0.00018740488
0.000187428071
0.000187160499
0.000187240239
0.000187506504
0.000187524245
0.000187269352
0.000187341662
0.000187604613
0.000187616577
0.00018737519
0.000187446296
0.000187699834
0.000187704684
0.000187473997
0.000187542051
0.000187786522
0.000187790131
0.000187567959
0.000187633337
0.000187866022
0.000187871824
0.000187653967
0.00018772578
0.000187941193
0.000187949984
0.000187740138
0.000187813607
0.000188014185
0.000188024298
0.000187824203
0.000187896359
0.000188084395
0.000188094791
0.000187905931
0.000187974501
0.00018815167
0.000188161617
0.000187984561
0.00018804842
0.00018821579
0.000188225066
0.000188059274
0.000188119131
0.000188276341
0.000188285467
0.000188128639
0.000188187053
0.00018833333
0.000188342641
0.000188193772
0.000188250814
0.000188387109
0.000188396444
0.000188256078
0.000188310223
0.000188438043
0.000188446815
0.000188315595
0.000188365353
0.000188486231
0.000188493949
0.00018837253
0.00018841663
0.000188531524
0.000188538053
0.000188426037
0.000188465306
0.000188573705
0.00018857941
0.000188475405
0.000188511518
0.000188612887
0.00018861822
0.000188521035
0.000188555023
0.000188649285
0.000188654469
0.0001885634
0.000188595689
0.00018868317
0.000188688171
0.000188603077
0.000188633249
0.000188714778
0.000188719397
0.00018864051
0.000188667968
0.000188744195
0.00018874834
0.00018867531
0.000188700347
0.00018877142
0.000188775164
0.000188707399
0.000188730466
0.000188796523
0.000188799986
0.000188737005
0.000188758413
0.000188819632
0.000188822902
0.000188764248
0.000188784322
0.000188840875
0.000188844004
0.000188789289
0.000188808209
0.000188860393
0.000188863374
0.000188812448
0.000188830112
0.00018887831
0.000188881113
0.000188833814
0.000188850197
0.000188894722
0.000188897331
0.000188853431
0.000188868608
0.000188909708
0.000188912136
0.000188871389
0.000188885461
0.00018892336
0.000188925625
0.000188887805
0.000188900855
0.000188935778
0.000188937884
0.000188902809
0.000188914877
0.000188947067
0.000188948999
0.000188916554
0.000188927601
0.00018895732
0.00018895906
0.000188929168
0.000188939165
0.000188966618
0.000188968151
0.000188940676
0.000188949668
0.000188975041
0.000188976338
0.000188951215
0.000188959123
0.000188982687
0.000188983688
0.000188960966
0.000188967586
0.00018898962
0.000188990298
0.000188969955
0.000188975316
0.000188995846
0.00018899628
0.000188977983
0.000188982519
0.000189001393
0.000189001725
0.000188985105
0.000188989217
0.000189006648
0.000189007005
0.000188992332
0.0001889961
0.000189012929
0.000189013162
0.000189000126
0.000189004318
0.000189016247
0.000189018705
0.000189012625
0.0001890158
0.000189016547
0.000189019592
0.00018901868
0.000189021705
0.000189021227
0.000189024157
0.00018902381
0.000189026572
0.00018902641
0.000189028918
0.000189028961
0.000189031125
0.000189031389
0.00018903313
0.00018903361
0.000189034879
0.000189035534
0.000189036344
0.000189037084
0.000189037513
0.00018903822
0.000189038389
0.000189038962
0.000189038991
0.000189039385
0.000189039358
0.000189039589
0.000189039558
0.000189039676
0.000189039672
0.000189039728
0.000189039778
0.000189039603
0.000189039442
0.000189039342
0.000189039261
0.000189039215
0.000189039188
0.000189039173
0.000189039165
0.000189039162
0.00018903916
0.00018903916
0.00018903916
0.00018903916
0.00018903916
0.00018903916
0.00018903916
0.00018903916
0.00018903916
0.00018903916
0.00018903916
0.00018903916
0.00018903916
0.00018903916
0.00018903916
0.00018903916
0.00018903916
0.00018903916
0.00018903916
0.00018903916
0.00018903916
0.00018903916
0.00018903916
0.00018903916
0.00018903916
0.00018903916
0.00018903916
0.00018903916
0.00018903916
0.00018903916
0.00018903916
)
;

boundaryField
{
    closed
    {
        type            calculated;
        value           nonuniform List<scalar> 0();
    }
    open
    {
        type            calculated;
        value           uniform 0.00018903916;
    }
    sides
    {
        type            empty;
    }
    procBoundary5to4
    {
        type            processor;
        value           uniform 0.000174480779;
    }
}


// ************************************************************************* //
