/*--------------------------------*- C++ -*----------------------------------*\
| =========                 |                                                 |
| \\      /  F ield         | OpenFOAM: The Open Source CFD Toolbox           |
|  \\    /   O peration     | Version:  2306                                  |
|   \\  /    A nd           | Website:  www.openfoam.com                      |
|    \\/     M anipulation  |                                                 |
\*---------------------------------------------------------------------------*/
FoamFile
{
    version     2.0;
    format      ascii;
    arch        "LSB;label=32;scalar=64";
    class       volScalarField;
    location    "0.00176";
    object      mu;
}
// * * * * * * * * * * * * * * * * * * * * * * * * * * * * * * * * * * * * * //

dimensions      [1 -1 -1 0 0 0 0];

internalField   nonuniform List<scalar> 
530
(
2.03038128e-05
1.97544225e-05
1.95140276e-05
1.9706485e-05
2.0304381e-05
2.03041629e-05
1.97546226e-05
1.9515165e-05
1.97143978e-05
2.0304933e-05
2.03038124e-05
1.97547705e-05
1.95102485e-05
1.97108114e-05
2.0305426e-05
2.03042746e-05
1.97543283e-05
1.94840671e-05
1.96880537e-05
2.0309169e-05
2.02995223e-05
1.97482368e-05
1.94172512e-05
1.96548627e-05
2.02906532e-05
2.03063161e-05
2.02996761e-05
1.97571533e-05
1.94607791e-05
1.94218242e-05
1.95415476e-05
2.03045422e-05
2.03015218e-05
2.03005573e-05
2.03126515e-05
1.97630666e-05
1.97511281e-05
2.03108358e-05
2.03040827e-05
1.97615853e-05
1.95903297e-05
1.95523633e-05
1.96556512e-05
2.03149727e-05
2.0294774e-05
1.97499435e-05
1.94198735e-05
1.96215749e-05
2.02967351e-05
2.03124008e-05
1.97100229e-05
1.94388807e-05
1.93753794e-05
1.95107374e-05
2.02948061e-05
2.030153e-05
2.02910013e-05
2.03019652e-05
2.02945695e-05
1.97205128e-05
1.9711903e-05
2.03282183e-05
2.02972822e-05
1.97181329e-05
1.95258526e-05
1.94935859e-05
1.96198967e-05
2.03236106e-05
2.02916112e-05
1.97372219e-05
1.94098045e-05
1.96710131e-05
2.03140912e-05
2.02978806e-05
1.97535267e-05
1.94562989e-05
1.96826803e-05
2.03117107e-05
2.03043126e-05
1.97529592e-05
1.97609775e-05
2.03272329e-05
2.02871e-05
1.975095e-05
1.95851769e-05
1.96529141e-05
1.94740401e-05
1.9704051e-05
2.03039658e-05
2.03145056e-05
2.02787931e-05
1.97519054e-05
1.93882303e-05
1.97504947e-05
2.03065413e-05
1.97525537e-05
1.96853664e-05
2.03218375e-05
2.03106448e-05
2.02875631e-05
1.97459964e-05
1.93250638e-05
1.97414916e-05
2.0300376e-05
1.97409845e-05
1.96435038e-05
2.03420754e-05
2.02904364e-05
1.97022853e-05
1.97567057e-05
2.03280579e-05
2.02951604e-05
1.97499563e-05
1.96212126e-05
1.95979493e-05
1.97209154e-05
2.03266101e-05
2.02968106e-05
1.97418617e-05
1.94965109e-05
1.97391471e-05
2.03246762e-05
2.03061135e-05
1.97444199e-05
1.95033161e-05
1.97469619e-05
2.0316621e-05
1.97656375e-05
1.97459997e-05
2.03301207e-05
2.03051944e-05
1.9747618e-05
1.96292121e-05
1.95984719e-05
1.97081412e-05
2.03260348e-05
2.0300502e-05
1.97450621e-05
1.95082461e-05
1.97262608e-05
2.03212855e-05
2.03100126e-05
1.97452831e-05
1.94871435e-05
1.97137617e-05
2.03197917e-05
2.03063428e-05
1.97536751e-05
1.94937295e-05
1.97122248e-05
2.0312709e-05
1.99153851e-05
1.96612627e-05
2.0327152e-05
2.03058943e-05
1.97752021e-05
1.96366404e-05
1.95602174e-05
1.97455915e-05
2.03161215e-05
1.9820138e-05
1.97463673e-05
2.03227656e-05
2.03114921e-05
1.97687692e-05
1.96358026e-05
1.95680316e-05
1.96725405e-05
2.03219648e-05
2.03036407e-05
1.97607722e-05
1.95350952e-05
1.96594048e-05
2.03144958e-05
2.03175891e-05
1.97156968e-05
1.97520937e-05
2.03075842e-05
2.03025719e-05
1.96249498e-05
1.93875271e-05
1.96684646e-05
2.03049614e-05
2.02969811e-05
1.97672311e-05
1.95242932e-05
1.97355596e-05
2.03149989e-05
2.03031745e-05
1.97598328e-05
1.95284982e-05
1.97492473e-05
2.03103412e-05
2.02991377e-05
1.97774565e-05
1.95589427e-05
1.96035528e-05
1.94494332e-05
1.95725533e-05
2.03026824e-05
2.02970177e-05
1.96190257e-05
1.96295755e-05
2.02981639e-05
2.02881047e-05
1.96830783e-05
1.97362844e-05
2.02936614e-05
2.02809657e-05
1.95092001e-05
1.9277641e-05
1.9565633e-05
2.02880821e-05
2.02896986e-05
1.9577259e-05
1.96064712e-05
2.02985278e-05
2.02890676e-05
1.96192893e-05
1.96757987e-05
2.03075374e-05
2.02919495e-05
1.96019364e-05
1.97796503e-05
2.0308685e-05
2.00484721e-05
1.96044114e-05
1.97979656e-05
2.03023718e-05
1.97718863e-05
1.96114336e-05
2.02975412e-05
2.02870809e-05
1.97684573e-05
1.93918428e-05
1.95753819e-05
2.03041116e-05
2.03023568e-05
1.96121184e-05
1.96018219e-05
2.0319932e-05
2.02871387e-05
1.97563149e-05
1.94016649e-05
1.97001653e-05
2.03016577e-05
2.03151894e-05
1.96177622e-05
1.96417317e-05
2.0318334e-05
2.02976056e-05
1.97505767e-05
1.94494986e-05
1.97532738e-05
2.03030176e-05
2.03110236e-05
1.97079519e-05
1.94203568e-05
1.97210162e-05
2.02995487e-05
2.03231692e-05
1.96385504e-05
1.97085847e-05
2.0315107e-05
2.02955893e-05
1.96882838e-05
1.93989828e-05
1.97348354e-05
2.02718195e-05
2.03182426e-05
2.02936624e-05
1.97472854e-05
1.94120678e-05
1.9747863e-05
2.02746205e-05
2.03136981e-05
1.97315489e-05
1.95336042e-05
1.94952755e-05
1.96519836e-05
2.02820298e-05
2.03243507e-05
1.95730299e-05
1.97503271e-05
2.02876235e-05
1.97890125e-05
1.94615055e-05
1.97822565e-05
2.0261935e-05
2.03200828e-05
2.02940915e-05
1.97391239e-05
1.93533619e-05
1.96719353e-05
2.02885528e-05
2.03282312e-05
1.96141e-05
1.96807414e-05
2.02968781e-05
2.03037383e-05
1.96732077e-05
1.94415679e-05
1.97597928e-05
2.02888204e-05
2.03079686e-05
1.97551722e-05
1.94820082e-05
1.97580469e-05
2.02915293e-05
2.03102067e-05
1.97543834e-05
1.94746792e-05
1.97575789e-05
2.02957909e-05
2.03102563e-05
1.9740412e-05
1.9440009e-05
1.97439511e-05
2.02946224e-05
2.03256113e-05
1.96760211e-05
1.97588859e-05
2.03131188e-05
2.03097522e-05
1.97191882e-05
1.94679447e-05
1.97496734e-05
2.03092039e-05
2.03179805e-05
1.9743351e-05
1.94745186e-05
1.97462157e-05
2.03031516e-05
2.03190162e-05
1.9757304e-05
1.95924838e-05
1.95922838e-05
1.97564271e-05
2.03162741e-05
2.03168684e-05
1.97110977e-05
1.97732643e-05
2.03232531e-05
2.029859e-05
1.97433917e-05
1.95009745e-05
1.97490669e-05
2.03096226e-05
2.03091564e-05
1.96996289e-05
1.94283948e-05
1.97503599e-05
2.03036336e-05
2.03079393e-05
1.96649729e-05
1.97729568e-05
2.03221011e-05
2.02891344e-05
1.97418165e-05
1.9517435e-05
1.97469596e-05
2.0297596e-05
2.03039785e-05
1.97190561e-05
1.95492977e-05
1.95322373e-05
1.97209641e-05
2.0311858e-05
2.02907113e-05
1.96510187e-05
1.97725484e-05
2.03086761e-05
2.0284155e-05
1.96643966e-05
1.96013725e-05
1.95134784e-05
1.97545815e-05
2.02936862e-05
1.97053533e-05
1.96772624e-05
2.0314421e-05
2.02603891e-05
1.95958775e-05
1.97155169e-05
2.0314164e-05
2.02493422e-05
1.95831084e-05
1.97278719e-05
2.03118717e-05
2.02458516e-05
1.95858489e-05
1.97414358e-05
2.0311935e-05
2.02420713e-05
1.95949173e-05
1.97675028e-05
2.03159349e-05
2.0241051e-05
1.96085869e-05
1.97832072e-05
2.03131648e-05
2.02506341e-05
1.95472829e-05
1.93772692e-05
1.96692463e-05
2.02740213e-05
2.02348345e-05
1.95748263e-05
1.9766515e-05
2.02992522e-05
2.0230837e-05
1.95842331e-05
1.97786331e-05
2.0316306e-05
2.02302843e-05
1.9599226e-05
1.97886645e-05
2.03119858e-05
2.02488567e-05
1.95404225e-05
1.93991552e-05
1.96698711e-05
2.02484363e-05
2.02379163e-05
1.9601415e-05
1.97865501e-05
2.0301691e-05
2.02287597e-05
1.96104328e-05
1.9797954e-05
2.03150634e-05
2.02282755e-05
1.96510322e-05
1.97907178e-05
2.03054071e-05
2.02616725e-05
1.96229407e-05
1.95480832e-05
1.95165051e-05
1.96791996e-05
2.02466064e-05
2.02843898e-05
2.02575344e-05
2.02682781e-05
1.98429923e-05
1.94137872e-05
1.93802053e-05
1.97616999e-05
2.02916152e-05
2.01741801e-05
1.95748307e-05
1.97876186e-05
2.02972215e-05
2.02630879e-05
1.95057118e-05
1.93681229e-05
1.97617863e-05
2.02873963e-05
2.02134096e-05
1.96561813e-05
1.9792616e-05
2.02981943e-05
2.02651944e-05
1.96570925e-05
1.95039538e-05
1.97634066e-05
2.02905357e-05
2.02781485e-05
1.97222226e-05
1.94909553e-05
1.97616963e-05
2.02952272e-05
2.02767587e-05
1.96755014e-05
1.94460119e-05
1.97626493e-05
2.02949591e-05
2.02649487e-05
1.96652606e-05
1.9788138e-05
2.03104126e-05
2.0273086e-05
1.96576248e-05
1.94692283e-05
1.97520905e-05
2.03041374e-05
2.02841022e-05
1.9656404e-05
1.94141133e-05
1.9745377e-05
2.03018936e-05
2.0271058e-05
1.96288726e-05
1.97515084e-05
2.03166509e-05
2.02754268e-05
1.96319339e-05
1.94187512e-05
1.96902016e-05
2.03002493e-05
2.02800445e-05
1.96310592e-05
1.972332e-05
2.0315888e-05
2.02709548e-05
1.96608323e-05
1.97655436e-05
2.03209331e-05
2.02852111e-05
1.97474273e-05
1.95183725e-05
1.97228319e-05
2.03084225e-05
2.02966447e-05
1.97529614e-05
1.95088694e-05
1.96966942e-05
2.03071465e-05
2.02981611e-05
1.9753323e-05
1.95078538e-05
1.96710221e-05
2.03067041e-05
2.02987055e-05
1.97535428e-05
1.95099368e-05
1.96535748e-05
2.03065133e-05
2.0299308e-05
1.97541637e-05
)
;

boundaryField
{
    closed
    {
        type            calculated;
        value           nonuniform List<scalar> 0();
    }
    open
    {
        type            calculated;
        value           nonuniform List<scalar> 0();
    }
    sides
    {
        type            empty;
    }
    procBoundary2to1
    {
        type            processor;
        value           uniform 2.03036047e-05;
    }
    procBoundary2to3
    {
        type            processor;
        value           uniform 1.95108432e-05;
    }
}


// ************************************************************************* //
