/*--------------------------------*- C++ -*----------------------------------*\
| =========                 |                                                 |
| \\      /  F ield         | OpenFOAM: The Open Source CFD Toolbox           |
|  \\    /   O peration     | Version:  2306                                  |
|   \\  /    A nd           | Website:  www.openfoam.com                      |
|    \\/     M anipulation  |                                                 |
\*---------------------------------------------------------------------------*/
FoamFile
{
    version     2.0;
    format      ascii;
    arch        "LSB;label=32;scalar=64";
    class       volScalarField;
    location    "0.00176";
    object      prefDZ_H2O;
}
// * * * * * * * * * * * * * * * * * * * * * * * * * * * * * * * * * * * * * //

dimensions      [1 -1 -1 0 0 0 0];

internalField   nonuniform List<scalar> 
530
(
-7.7397237e-07
-7.42819947e-07
-7.35169525e-07
-7.38137223e-07
-7.74525687e-07
-7.73947489e-07
-7.42765653e-07
-7.35192064e-07
-7.38266491e-07
-7.74463452e-07
-7.73959935e-07
-7.4262429e-07
-7.35124134e-07
-7.3821207e-07
-7.7443169e-07
-7.74034641e-07
-7.41896618e-07
-7.34697681e-07
-7.37876646e-07
-7.74432647e-07
-7.74307875e-07
-7.40590895e-07
-7.33794985e-07
-7.37222403e-07
-7.75590888e-07
-7.73000587e-07
-7.74751743e-07
-7.3964895e-07
-7.34488644e-07
-7.33645139e-07
-7.35672925e-07
-7.75374704e-07
-7.74340767e-07
-7.74319442e-07
-7.74051932e-07
-7.40421679e-07
-7.38882287e-07
-7.74120438e-07
-7.73762278e-07
-7.39893621e-07
-7.3646373e-07
-7.35749895e-07
-7.37521362e-07
-7.73961536e-07
-7.74350562e-07
-7.39382162e-07
-7.33862674e-07
-7.36691646e-07
-7.74483643e-07
-7.74246524e-07
-7.38411612e-07
-7.33930378e-07
-7.33149496e-07
-7.35033697e-07
-7.75694754e-07
-7.73921855e-07
-7.75838396e-07
-7.73536434e-07
-7.75060208e-07
-7.38334499e-07
-7.38404601e-07
-7.73356683e-07
-7.74130513e-07
-7.38298198e-07
-7.3542399e-07
-7.34708203e-07
-7.3687682e-07
-7.73667927e-07
-7.74792586e-07
-7.38531705e-07
-7.33594144e-07
-7.37488127e-07
-7.73895804e-07
-7.74477976e-07
-7.39555174e-07
-7.34276726e-07
-7.37621059e-07
-7.73688325e-07
-7.74167332e-07
-7.390508e-07
-7.4027197e-07
-7.72878714e-07
-7.73979149e-07
-7.42474835e-07
-7.36479653e-07
-7.37168684e-07
-7.34719308e-07
-7.37909346e-07
-7.74360691e-07
-7.72715852e-07
-7.75548394e-07
-7.44147845e-07
-7.33313536e-07
-7.42782761e-07
-7.74978089e-07
-7.40037035e-07
-7.37646251e-07
-7.74491891e-07
-7.72868497e-07
-7.75970245e-07
-7.41725304e-07
-7.32373037e-07
-7.42075567e-07
-7.75294883e-07
-7.42279334e-07
-7.3706504e-07
-7.72974378e-07
-7.75060197e-07
-7.37837559e-07
-7.39544856e-07
-7.73000674e-07
-7.73969406e-07
-7.41927981e-07
-7.36792297e-07
-7.36270012e-07
-7.38281757e-07
-7.73202309e-07
-7.74436107e-07
-7.40957935e-07
-7.34764217e-07
-7.38622314e-07
-7.734539e-07
-7.74095263e-07
-7.42509645e-07
-7.34831133e-07
-7.42908293e-07
-7.74077615e-07
-7.47075998e-07
-7.40287794e-07
-7.72981719e-07
-7.73699397e-07
-7.41322754e-07
-7.36873286e-07
-7.36268001e-07
-7.38080296e-07
-7.73230083e-07
-7.74187951e-07
-7.42373376e-07
-7.34963198e-07
-7.38235903e-07
-7.73504141e-07
-7.73998487e-07
-7.40551797e-07
-7.34588481e-07
-7.38082245e-07
-7.73555877e-07
-7.73948455e-07
-7.42220677e-07
-7.34779175e-07
-7.38236199e-07
-7.74027175e-07
-7.6202314e-07
-7.37262984e-07
-7.74530439e-07
-7.7349429e-07
-7.47122313e-07
-7.36983862e-07
-7.35843261e-07
-7.38712904e-07
-7.73625093e-07
-7.53904e-07
-7.39553503e-07
-7.73291131e-07
-7.73076672e-07
-7.47329846e-07
-7.36931529e-07
-7.358028e-07
-7.37540516e-07
-7.7331973e-07
-7.7368261e-07
-7.46181895e-07
-7.35388948e-07
-7.37157579e-07
-7.73562292e-07
-7.73430644e-07
-7.38278053e-07
-7.39795563e-07
-7.73592255e-07
-7.74128659e-07
-7.3681245e-07
-7.33169232e-07
-7.37526542e-07
-7.74102402e-07
-7.73976407e-07
-7.45913724e-07
-7.35234204e-07
-7.3851285e-07
-7.73721193e-07
-7.73762567e-07
-7.45556163e-07
-7.35295735e-07
-7.38926094e-07
-7.73822923e-07
-7.7367023e-07
-7.48216024e-07
-7.35870206e-07
-7.36497106e-07
-7.34188639e-07
-7.35971835e-07
-7.74364683e-07
-7.74786797e-07
-7.3683429e-07
-7.36935315e-07
-7.74349727e-07
-7.74950308e-07
-7.37919682e-07
-7.38788562e-07
-7.74358152e-07
-7.75174317e-07
-7.35125395e-07
-7.31681021e-07
-7.35945446e-07
-7.75126301e-07
-7.75640251e-07
-7.36235773e-07
-7.36620198e-07
-7.74605685e-07
-7.75685462e-07
-7.36774758e-07
-7.37899934e-07
-7.74166119e-07
-7.76695869e-07
-7.36421642e-07
-7.40131399e-07
-7.74131454e-07
-7.70714684e-07
-7.36401966e-07
-7.50854419e-07
-7.74388843e-07
-7.44442561e-07
-7.36621748e-07
-7.77608795e-07
-7.74799523e-07
-7.43835732e-07
-7.33393456e-07
-7.35960675e-07
-7.74646062e-07
-7.74411863e-07
-7.368465e-07
-7.36563319e-07
-7.74647833e-07
-7.74836427e-07
-7.41281422e-07
-7.33585881e-07
-7.37940489e-07
-7.74355188e-07
-7.73968368e-07
-7.36734176e-07
-7.37168805e-07
-7.73423228e-07
-7.74247305e-07
-7.4003785e-07
-7.34220721e-07
-7.39571642e-07
-7.73952638e-07
-7.73938274e-07
-7.38136207e-07
-7.3374346e-07
-7.38311692e-07
-7.7427674e-07
-7.73658523e-07
-7.37002163e-07
-7.38318976e-07
-7.73371235e-07
-7.74316749e-07
-7.37624344e-07
-7.33690844e-07
-7.38381295e-07
-7.75384106e-07
-7.725451e-07
-7.7507644e-07
-7.4216322e-07
-7.33848053e-07
-7.39839498e-07
-7.74701895e-07
-7.73980317e-07
-7.38809494e-07
-7.35481644e-07
-7.35091042e-07
-7.37347452e-07
-7.7514983e-07
-7.74581236e-07
-7.36178823e-07
-7.39843352e-07
-7.75634716e-07
-7.50630598e-07
-7.34517824e-07
-7.50058204e-07
-7.75136191e-07
-7.72609122e-07
-7.74835018e-07
-7.41653309e-07
-7.32862619e-07
-7.37418277e-07
-7.75256871e-07
-7.74885476e-07
-7.36573742e-07
-7.37921843e-07
-7.74259631e-07
-7.74474732e-07
-7.37530156e-07
-7.3417099e-07
-7.39725948e-07
-7.74444962e-07
-7.74386103e-07
-7.39517162e-07
-7.34760847e-07
-7.40606146e-07
-7.74252569e-07
-7.74334719e-07
-7.39418189e-07
-7.34606351e-07
-7.40206574e-07
-7.74209041e-07
-7.74405141e-07
-7.3857877e-07
-7.34116019e-07
-7.38695519e-07
-7.74471079e-07
-7.74495918e-07
-7.37529028e-07
-7.39145423e-07
-7.73381757e-07
-7.74166866e-07
-7.38164679e-07
-7.34457986e-07
-7.40070207e-07
-7.73732791e-07
-7.74163221e-07
-7.38968301e-07
-7.34549892e-07
-7.40850023e-07
-7.73658738e-07
-7.73787235e-07
-7.39595926e-07
-7.36409955e-07
-7.36271113e-07
-7.39013259e-07
-7.73377791e-07
-7.74517908e-07
-7.38052748e-07
-7.40890529e-07
-7.72784522e-07
-7.74398027e-07
-7.3978242e-07
-7.34981139e-07
-7.40489814e-07
-7.73680397e-07
-7.74649626e-07
-7.37946856e-07
-7.33896505e-07
-7.38825156e-07
-7.74167853e-07
-7.75364253e-07
-7.37381274e-07
-7.39866476e-07
-7.73034107e-07
-7.7475637e-07
-7.39435393e-07
-7.35347489e-07
-7.41253544e-07
-7.73838103e-07
-7.74616325e-07
-7.38444932e-07
-7.3576552e-07
-7.35368741e-07
-7.3840557e-07
-7.73906657e-07
-7.76235834e-07
-7.37187797e-07
-7.40086397e-07
-7.73419349e-07
-7.74990068e-07
-7.37579818e-07
-7.36584173e-07
-7.35188584e-07
-7.42779025e-07
-7.75844716e-07
-7.38152074e-07
-7.37788868e-07
-7.73473203e-07
-7.77922685e-07
-7.3626227e-07
-7.38589691e-07
-7.73765999e-07
-7.78237871e-07
-7.36089806e-07
-7.38796373e-07
-7.73839133e-07
-7.78536911e-07
-7.36148779e-07
-7.39020225e-07
-7.73831345e-07
-7.78765974e-07
-7.36272032e-07
-7.39450227e-07
-7.73737331e-07
-7.78831053e-07
-7.36431217e-07
-7.40398673e-07
-7.73578134e-07
-7.77142319e-07
-7.35678511e-07
-7.33618918e-07
-7.37431529e-07
-7.76899658e-07
-7.79267782e-07
-7.3643958e-07
-7.39445739e-07
-7.74107586e-07
-7.79838137e-07
-7.36112666e-07
-7.39727715e-07
-7.7385448e-07
-7.79756338e-07
-7.36260174e-07
-7.40813772e-07
-7.73616707e-07
-7.77431065e-07
-7.35574915e-07
-7.34028655e-07
-7.37515902e-07
-7.78134578e-07
-7.79262957e-07
-7.36887596e-07
-7.39814595e-07
-7.73972089e-07
-7.80043516e-07
-7.36509728e-07
-7.40353394e-07
-7.73687954e-07
-7.79738695e-07
-7.3711784e-07
-7.42348275e-07
-7.73442197e-07
-7.76651942e-07
-7.37031494e-07
-7.35924538e-07
-7.3557784e-07
-7.37622319e-07
-7.7793729e-07
-7.74364422e-07
-7.75862962e-07
-7.75527501e-07
-7.55994872e-07
-7.33763636e-07
-7.33182566e-07
-7.40122051e-07
-7.74991982e-07
-7.77874966e-07
-7.36072359e-07
-7.40390923e-07
-7.74271878e-07
-7.77338519e-07
-7.35034501e-07
-7.33249219e-07
-7.40442299e-07
-7.74840421e-07
-7.80047669e-07
-7.37365811e-07
-7.41997827e-07
-7.73855652e-07
-7.7652467e-07
-7.37428405e-07
-7.35340036e-07
-7.42641948e-07
-7.7409892e-07
-7.76220767e-07
-7.38460568e-07
-7.35056183e-07
-7.42097435e-07
-7.74065328e-07
-7.7635746e-07
-7.37692613e-07
-7.34384364e-07
-7.40370056e-07
-7.74294398e-07
-7.77959786e-07
-7.37468726e-07
-7.40858742e-07
-7.73387748e-07
-7.76140274e-07
-7.37343415e-07
-7.34631198e-07
-7.40132427e-07
-7.73847437e-07
-7.7608173e-07
-7.37344769e-07
-7.33768737e-07
-7.38685995e-07
-7.74191839e-07
-7.77255558e-07
-7.36827027e-07
-7.39102302e-07
-7.73276587e-07
-7.75924148e-07
-7.36853927e-07
-7.33824701e-07
-7.37707195e-07
-7.74094185e-07
-7.766113e-07
-7.36892955e-07
-7.38587064e-07
-7.73330611e-07
-7.7619878e-07
-7.37244353e-07
-7.39250069e-07
-7.72907262e-07
-7.74861988e-07
-7.39132978e-07
-7.35270615e-07
-7.38243545e-07
-7.73468858e-07
-7.74547858e-07
-7.41361687e-07
-7.35077099e-07
-7.37844195e-07
-7.73567799e-07
-7.74415172e-07
-7.41242489e-07
-7.35045579e-07
-7.37436338e-07
-7.73650894e-07
-7.74368303e-07
-7.41713242e-07
-7.35068295e-07
-7.371589e-07
-7.73734478e-07
-7.74317562e-07
-7.4216539e-07
)
;

boundaryField
{
    closed
    {
        type            calculated;
        value           nonuniform List<scalar> 0();
    }
    open
    {
        type            calculated;
        value           nonuniform List<scalar> 0();
    }
    sides
    {
        type            empty;
    }
    procBoundary2to1
    {
        type            processor;
        value           uniform -7.74598568e-07;
    }
    procBoundary2to3
    {
        type            processor;
        value           uniform -7.35075004e-07;
    }
}


// ************************************************************************* //
