/*--------------------------------*- C++ -*----------------------------------*\
| =========                 |                                                 |
| \\      /  F ield         | OpenFOAM: The Open Source CFD Toolbox           |
|  \\    /   O peration     | Version:  2306                                  |
|   \\  /    A nd           | Website:  www.openfoam.com                      |
|    \\/     M anipulation  |                                                 |
\*---------------------------------------------------------------------------*/
FoamFile
{
    version     2.0;
    format      ascii;
    arch        "LSB;label=32;scalar=64";
    class       volScalarField;
    location    "0.00066";
    object      mu;
}
// * * * * * * * * * * * * * * * * * * * * * * * * * * * * * * * * * * * * * //

dimensions      [1 -1 -1 0 0 0 0];

internalField   nonuniform List<scalar> 
531
(
1.9809094e-05
1.95808537e-05
1.96543326e-05
2.02710124e-05
2.02918568e-05
1.98381254e-05
1.94824558e-05
1.95918141e-05
2.02626061e-05
2.00531298e-05
1.95460978e-05
1.97201882e-05
2.027633e-05
2.03042225e-05
1.98129125e-05
1.94327454e-05
1.9714922e-05
2.02615538e-05
1.97966094e-05
1.95062045e-05
1.98923231e-05
2.02771617e-05
2.02857825e-05
1.96823453e-05
1.93788048e-05
1.98761863e-05
2.02612818e-05
1.99991922e-05
1.9530477e-05
1.94322616e-05
1.98758386e-05
2.02677402e-05
2.00589342e-05
1.95162434e-05
1.94068929e-05
1.99351019e-05
2.02737286e-05
1.97692804e-05
1.95583266e-05
2.00026789e-05
2.02759189e-05
2.00253561e-05
1.95494424e-05
1.94544583e-05
1.9915065e-05
2.02700269e-05
2.00208373e-05
1.95331337e-05
1.94457128e-05
1.98681029e-05
2.02700962e-05
2.02003793e-05
1.95151207e-05
1.93989171e-05
1.99750323e-05
2.02674595e-05
1.97732986e-05
1.9552535e-05
2.00861088e-05
2.02747375e-05
1.99293175e-05
1.95134956e-05
1.94600961e-05
1.98883241e-05
2.0273518e-05
2.01659975e-05
1.95247293e-05
1.94251192e-05
1.99154731e-05
2.02653054e-05
2.00884877e-05
1.94723762e-05
1.94214377e-05
2.00209338e-05
2.02704234e-05
1.97778412e-05
1.9559881e-05
2.01143069e-05
2.02825966e-05
1.99861649e-05
1.95207551e-05
1.94795868e-05
1.98818874e-05
2.02960245e-05
2.02881634e-05
1.97661964e-05
1.96856165e-05
1.97654588e-05
1.95936128e-05
1.96662187e-05
2.00999057e-05
2.03044155e-05
2.02487295e-05
1.97344316e-05
1.94556932e-05
1.99612508e-05
2.02747783e-05
2.00898696e-05
1.94467766e-05
1.9419613e-05
2.00331909e-05
2.02682546e-05
1.97638038e-05
1.95555599e-05
2.01996866e-05
2.02744862e-05
1.99025264e-05
1.94536356e-05
1.94532595e-05
2.00149789e-05
2.02809602e-05
1.97311565e-05
1.95326143e-05
2.02811901e-05
2.02841859e-05
1.97059273e-05
1.95528127e-05
2.00456502e-05
2.02804016e-05
2.00797024e-05
1.94914407e-05
1.94673389e-05
2.00206424e-05
2.02646286e-05
1.9939201e-05
1.95776763e-05
1.95853734e-05
1.99214788e-05
2.02821285e-05
2.02418801e-05
1.97719202e-05
1.93375477e-05
1.9451984e-05
1.99429815e-05
2.02904197e-05
1.97121822e-05
1.9475827e-05
2.02489007e-05
2.02825844e-05
1.97080062e-05
1.95285776e-05
1.99804507e-05
2.02725911e-05
2.01793225e-05
1.94789023e-05
1.94110048e-05
2.00795139e-05
2.02719379e-05
1.97191497e-05
1.95561832e-05
2.02641151e-05
2.02777305e-05
1.98757171e-05
1.95205677e-05
1.94838002e-05
1.98414778e-05
2.02722804e-05
2.02894734e-05
1.94896717e-05
1.93554277e-05
2.0009431e-05
2.02765588e-05
1.97062161e-05
1.94840297e-05
2.02689402e-05
2.02920285e-05
1.96251034e-05
1.9504979e-05
2.02727451e-05
2.02907042e-05
1.96354902e-05
1.95439922e-05
2.02633375e-05
2.02733384e-05
1.98908839e-05
1.9453025e-05
1.94654786e-05
2.01669636e-05
2.02843394e-05
1.96856363e-05
1.95472321e-05
2.02986613e-05
2.0275725e-05
1.98255734e-05
1.9434601e-05
1.9469242e-05
2.0139817e-05
2.02882715e-05
1.96833681e-05
1.95302989e-05
2.02973581e-05
2.02741816e-05
1.98253535e-05
1.94145945e-05
1.94594105e-05
2.02006247e-05
2.02897157e-05
1.96614298e-05
1.95317624e-05
2.02868953e-05
2.02745501e-05
1.98562718e-05
1.94250452e-05
1.9474511e-05
2.02990801e-05
2.02754447e-05
1.9800107e-05
1.94779279e-05
1.95541659e-05
2.02897317e-05
2.02732822e-05
1.98620768e-05
1.95271553e-05
1.95409961e-05
2.03011412e-05
2.02718776e-05
1.97959613e-05
1.93490521e-05
1.942106e-05
2.02959456e-05
2.02827386e-05
1.97864587e-05
1.94420817e-05
1.95021276e-05
2.02915792e-05
2.02723769e-05
1.98160078e-05
1.94666361e-05
1.9500478e-05
2.02882408e-05
2.02935698e-05
1.96810014e-05
1.95332827e-05
2.02867169e-05
2.02900109e-05
1.97810101e-05
1.95016408e-05
1.95290853e-05
2.02894767e-05
2.02716541e-05
1.98075585e-05
1.94584057e-05
1.94696957e-05
2.02712628e-05
2.02938847e-05
1.96328465e-05
1.94495382e-05
2.02598677e-05
2.0296803e-05
1.95709783e-05
1.94603297e-05
2.02618865e-05
2.02922006e-05
1.96320616e-05
1.95350391e-05
2.02736643e-05
2.02830658e-05
1.97876016e-05
1.95214982e-05
1.95185446e-05
2.02816689e-05
2.02924796e-05
1.97704881e-05
1.947383e-05
2.00216961e-05
2.02885884e-05
1.97009352e-05
1.94899984e-05
2.02833818e-05
2.02855847e-05
1.97817964e-05
1.94779289e-05
1.94776065e-05
2.0286447e-05
2.02939903e-05
1.97575038e-05
1.9479311e-05
1.98557444e-05
2.02846446e-05
1.9744585e-05
1.94904463e-05
2.02917848e-05
2.02660456e-05
1.98209401e-05
1.93738716e-05
1.9482043e-05
2.02448435e-05
2.02957425e-05
2.02520009e-05
1.97578792e-05
1.9277584e-05
1.95713034e-05
2.02506641e-05
2.02896676e-05
2.02776668e-05
1.97679923e-05
1.95332184e-05
1.94532803e-05
1.94569745e-05
2.0256686e-05
2.02767336e-05
1.96135297e-05
1.94716779e-05
2.02635391e-05
2.0273791e-05
1.99538877e-05
1.9452009e-05
1.94499374e-05
2.02767355e-05
2.0270674e-05
1.97945485e-05
1.94569198e-05
1.94698771e-05
2.02862012e-05
2.02939194e-05
1.96787605e-05
1.95296617e-05
2.02938131e-05
2.02923809e-05
1.97814864e-05
1.94947069e-05
1.95062972e-05
2.02949729e-05
2.02884245e-05
1.98000497e-05
1.95160227e-05
1.95182379e-05
2.03007809e-05
2.02954936e-05
1.97529926e-05
1.95093568e-05
1.97607413e-05
2.03005915e-05
2.0317659e-05
1.97426741e-05
1.93985673e-05
1.97457807e-05
2.02914004e-05
2.03179813e-05
1.97431389e-05
1.94154582e-05
1.97504999e-05
2.02950763e-05
2.03174581e-05
1.97475971e-05
1.94436709e-05
1.97469561e-05
2.02919265e-05
2.03165775e-05
1.97592354e-05
1.95213945e-05
1.97566458e-05
2.02878381e-05
2.03020839e-05
1.977702e-05
1.9325963e-05
1.93425845e-05
2.03020782e-05
2.02828533e-05
1.97847744e-05
1.94677243e-05
1.94785379e-05
2.02954036e-05
2.0287207e-05
1.97581791e-05
1.95343262e-05
1.9780139e-05
2.0283246e-05
2.03239794e-05
1.95639039e-05
1.93922252e-05
2.03170428e-05
2.02926842e-05
1.9752423e-05
1.95518329e-05
1.97451151e-05
2.0289925e-05
2.0322394e-05
1.98518368e-05
1.97438697e-05
1.97693472e-05
1.97553648e-05
1.96606421e-05
1.96614318e-05
2.02958505e-05
2.02930857e-05
1.98851677e-05
1.9590806e-05
1.95923323e-05
2.03042172e-05
2.03049642e-05
1.959301e-05
1.94824629e-05
2.03095594e-05
2.02887865e-05
1.9776565e-05
1.94758208e-05
1.95507877e-05
2.02902024e-05
2.02983351e-05
1.95900693e-05
1.94824266e-05
2.03022822e-05
2.02833295e-05
1.97836367e-05
1.94499339e-05
1.95341893e-05
2.02807264e-05
2.03024614e-05
1.95183901e-05
1.9502861e-05
2.02826706e-05
2.02973166e-05
1.95878903e-05
1.94516506e-05
2.0309221e-05
2.02949305e-05
1.97548018e-05
1.95584056e-05
1.97478334e-05
2.02923205e-05
2.03170258e-05
1.97797825e-05
1.96335772e-05
1.94887157e-05
1.94898543e-05
2.02710018e-05
2.02817978e-05
2.00276607e-05
1.95425901e-05
1.95182482e-05
2.02894305e-05
2.02690047e-05
1.98513246e-05
1.94257886e-05
1.94656439e-05
2.02912176e-05
2.02893091e-05
2.02927409e-05
1.97664676e-05
1.94964676e-05
1.94570476e-05
1.94705392e-05
2.02859153e-05
2.02772907e-05
1.98721584e-05
1.95544217e-05
1.95567031e-05
2.02907064e-05
2.02846339e-05
1.97913783e-05
1.95239366e-05
1.96027619e-05
2.02926746e-05
2.03024077e-05
1.96193843e-05
1.94974081e-05
2.02972239e-05
2.02881427e-05
1.97725311e-05
1.94622567e-05
1.95280927e-05
2.02862416e-05
2.0295316e-05
1.96182935e-05
1.94968116e-05
2.02908697e-05
2.02826114e-05
1.97721291e-05
1.94348729e-05
1.9499897e-05
2.0275799e-05
2.03002592e-05
1.95819999e-05
1.94794852e-05
2.02749072e-05
2.02916535e-05
1.96000524e-05
1.95018323e-05
2.02868354e-05
2.02821119e-05
1.97747116e-05
1.94614274e-05
1.95753857e-05
2.02796681e-05
2.03253492e-05
1.95356827e-05
1.97588818e-05
2.02916742e-05
1.97574845e-05
1.95617998e-05
2.02980778e-05
2.02821647e-05
1.98649658e-05
1.95419791e-05
1.95376566e-05
2.02806497e-05
2.02850424e-05
1.99163875e-05
1.97188946e-05
1.94613159e-05
1.94599984e-05
2.02817323e-05
2.02815385e-05
1.97715262e-05
1.94414988e-05
1.95351167e-05
2.02832749e-05
2.02970244e-05
1.96069145e-05
1.94559302e-05
2.02913999e-05
2.02821445e-05
1.97704981e-05
1.94527209e-05
1.97074023e-05
2.02777624e-05
2.00399267e-05
1.94649684e-05
1.97770465e-05
2.02908272e-05
1.97431192e-05
1.95545989e-05
2.03049688e-05
2.02937231e-05
1.97777082e-05
1.9551527e-05
1.96012269e-05
2.02970225e-05
2.02880353e-05
1.97815227e-05
)
;

boundaryField
{
    closed
    {
        type            calculated;
        value           nonuniform List<scalar> 0();
    }
    open
    {
        type            calculated;
        value           nonuniform List<scalar> 0();
    }
    sides
    {
        type            empty;
    }
    procBoundary1to0
    {
        type            processor;
        value           uniform 2.02856389e-05;
    }
    procBoundary1to2
    {
        type            processor;
        value           uniform 1.94649765e-05;
    }
}


// ************************************************************************* //
