/*--------------------------------*- C++ -*----------------------------------*\
| =========                 |                                                 |
| \\      /  F ield         | OpenFOAM: The Open Source CFD Toolbox           |
|  \\    /   O peration     | Version:  2306                                  |
|   \\  /    A nd           | Website:  www.openfoam.com                      |
|    \\/     M anipulation  |                                                 |
\*---------------------------------------------------------------------------*/
FoamFile
{
    version     2.0;
    format      ascii;
    arch        "LSB;label=32;scalar=64";
    class       volScalarField;
    location    "0.00066";
    object      prefDPV_T;
}
// * * * * * * * * * * * * * * * * * * * * * * * * * * * * * * * * * * * * * //

dimensions      [1 -1 -1 -1 0 0 0];

internalField   nonuniform List<scalar> 
531
(
5.97463791e-10
5.90237893e-10
5.90561609e-10
6.10420246e-10
6.08628495e-10
5.99038832e-10
5.89584963e-10
5.90271552e-10
6.10735951e-10
6.07495888e-10
5.901238e-10
5.90889854e-10
6.10065651e-10
6.08592674e-10
5.97767377e-10
5.89289938e-10
5.90806579e-10
6.10706962e-10
5.97024483e-10
5.89917042e-10
6.01931342e-10
6.09193599e-10
6.09611136e-10
5.90567276e-10
5.89099489e-10
6.01236515e-10
6.09625087e-10
6.05731605e-10
5.89855522e-10
5.89413868e-10
6.01152219e-10
6.09470886e-10
6.07732303e-10
5.89732806e-10
5.89205573e-10
6.03480475e-10
6.09490079e-10
5.93201578e-10
5.90061213e-10
6.05817887e-10
6.09082668e-10
6.06630985e-10
5.8991657e-10
5.89557401e-10
6.02705006e-10
6.09326622e-10
6.06471685e-10
5.89825944e-10
5.89504214e-10
6.00754905e-10
6.0932462e-10
6.12027744e-10
5.89740635e-10
5.89267482e-10
6.04880313e-10
6.09587665e-10
5.92384319e-10
5.90011341e-10
6.08496758e-10
6.09119592e-10
6.03147811e-10
5.89703959e-10
5.89505688e-10
6.0159217e-10
6.09212095e-10
6.11021006e-10
5.89795937e-10
5.89481691e-10
6.02694547e-10
6.09358558e-10
6.08636943e-10
5.89525185e-10
5.89285819e-10
6.06421179e-10
6.09604124e-10
5.91626969e-10
5.89985876e-10
6.09355403e-10
6.08969206e-10
6.052655e-10
5.89660397e-10
5.89518107e-10
6.0139437e-10
6.08537701e-10
6.09562183e-10
5.93403893e-10
5.91016033e-10
5.91635119e-10
5.90476847e-10
5.90439117e-10
6.08941443e-10
6.082458e-10
6.10219493e-10
5.90921656e-10
5.89440468e-10
6.04399222e-10
6.09276149e-10
6.08640222e-10
5.89370646e-10
5.89278794e-10
6.0683226e-10
6.09673438e-10
5.91397682e-10
5.90019153e-10
6.11887704e-10
6.09127122e-10
6.0210933e-10
5.89381066e-10
5.89339011e-10
6.06234887e-10
6.09504065e-10
5.91198881e-10
5.89788034e-10
6.10955113e-10
6.09245545e-10
5.91127896e-10
5.89935452e-10
6.07250186e-10
6.0891225e-10
6.08357432e-10
5.89616901e-10
5.89650315e-10
6.06422976e-10
6.09130275e-10
6.03567449e-10
5.90272242e-10
5.9021339e-10
6.02831475e-10
6.08434582e-10
6.11381674e-10
5.91646222e-10
5.8898094e-10
5.89194893e-10
6.03712892e-10
6.093902e-10
5.91082978e-10
5.89460152e-10
6.11879512e-10
6.09240027e-10
5.91133154e-10
5.89868891e-10
6.05065132e-10
6.0898463e-10
6.11372531e-10
5.89611034e-10
5.89351431e-10
6.08328604e-10
6.09320342e-10
5.91291096e-10
5.90054456e-10
6.11187832e-10
6.08898188e-10
6.00858299e-10
5.8972556e-10
5.89623798e-10
5.99397545e-10
6.09113877e-10
6.10218248e-10
5.89600896e-10
5.88921784e-10
6.06054184e-10
6.09398377e-10
5.91098338e-10
5.89513479e-10
6.11138514e-10
6.09012756e-10
5.9071654e-10
5.89587387e-10
6.10829259e-10
6.0891729e-10
5.90822691e-10
5.89905936e-10
6.11290834e-10
6.08945926e-10
6.01584357e-10
5.89524446e-10
5.89431845e-10
6.10964569e-10
6.09019276e-10
5.9099017e-10
5.89962134e-10
6.09975584e-10
6.08986225e-10
5.98467877e-10
5.89393279e-10
5.89364874e-10
6.10152833e-10
6.08988023e-10
5.90923311e-10
5.89843989e-10
6.1000586e-10
6.09032263e-10
5.98489373e-10
5.89326739e-10
5.89288527e-10
6.119329e-10
6.08940493e-10
5.90855317e-10
5.89836219e-10
6.10289301e-10
6.09004914e-10
6.0004535e-10
5.89245542e-10
5.8952056e-10
6.102094e-10
6.09037434e-10
5.96531821e-10
5.89553861e-10
5.90028438e-10
6.09569423e-10
6.08826211e-10
6.00269871e-10
5.89817462e-10
5.90001335e-10
6.09408029e-10
6.09093299e-10
5.96445698e-10
5.88798475e-10
5.89115361e-10
6.10305436e-10
6.09118451e-10
5.95053691e-10
5.89269591e-10
5.89717709e-10
6.09458094e-10
6.08999022e-10
5.97890006e-10
5.89490848e-10
5.89577541e-10
6.09738199e-10
6.08752472e-10
5.90629795e-10
5.89761162e-10
6.09970022e-10
6.08832863e-10
5.95101639e-10
5.89591394e-10
5.89868676e-10
6.09342513e-10
6.08981834e-10
5.97356367e-10
5.89486211e-10
5.89373912e-10
6.0993155e-10
6.08878672e-10
5.90530914e-10
5.89174295e-10
6.11089051e-10
6.08926207e-10
5.90175794e-10
5.89250904e-10
6.10995654e-10
6.08868307e-10
5.90428774e-10
5.8982198e-10
6.1030426e-10
6.08865256e-10
5.9576587e-10
5.89775716e-10
5.89700701e-10
6.0944325e-10
6.08809836e-10
5.91762407e-10
5.89370009e-10
6.06434915e-10
6.09115122e-10
5.90722831e-10
5.8954167e-10
6.10172074e-10
6.0895962e-10
5.95710645e-10
5.8944998e-10
5.8937872e-10
6.09540932e-10
6.08825239e-10
5.92778958e-10
5.89408477e-10
6.00359327e-10
6.09276213e-10
5.91142932e-10
5.89620669e-10
6.10069773e-10
6.09218301e-10
5.98493178e-10
5.89200314e-10
5.89356883e-10
6.11666567e-10
6.08281638e-10
6.10295139e-10
5.92897962e-10
5.88789987e-10
5.89966255e-10
6.10617704e-10
6.0818707e-10
6.08999945e-10
5.92530494e-10
5.90014075e-10
5.89376585e-10
5.89468493e-10
6.10633802e-10
6.09066176e-10
5.90567645e-10
5.89507632e-10
6.11592861e-10
6.09072038e-10
6.04091488e-10
5.89322336e-10
5.89463702e-10
6.10325909e-10
6.09147437e-10
5.96340213e-10
5.89433368e-10
5.8935688e-10
6.09617893e-10
6.08774095e-10
5.906232e-10
5.89720657e-10
6.09853738e-10
6.08791637e-10
5.9533693e-10
5.89516189e-10
5.89602757e-10
6.09217231e-10
6.08775234e-10
5.96959696e-10
5.89640602e-10
5.8963394e-10
6.09051806e-10
6.0872776e-10
5.92812634e-10
5.89596515e-10
5.94704369e-10
6.08812437e-10
6.0853265e-10
5.90940682e-10
5.88943461e-10
5.92525323e-10
6.09196405e-10
6.0845061e-10
5.90867193e-10
5.89008768e-10
5.93311907e-10
6.0905641e-10
6.08416773e-10
5.9137662e-10
5.89196272e-10
5.93077655e-10
6.09033861e-10
6.08230333e-10
5.92377893e-10
5.896705e-10
5.92518781e-10
6.08927199e-10
6.08546172e-10
5.93666123e-10
5.88452303e-10
5.88616998e-10
6.09539424e-10
6.09146517e-10
5.9552381e-10
5.89440594e-10
5.89425733e-10
6.09299669e-10
6.08843156e-10
5.92708897e-10
5.89875293e-10
5.96352814e-10
6.09102324e-10
6.08611266e-10
5.89902807e-10
5.88761766e-10
6.09860151e-10
6.08916897e-10
5.92947979e-10
5.89934269e-10
5.92870047e-10
6.0901888e-10
6.07643759e-10
5.99875311e-10
5.9147863e-10
5.91362856e-10
5.91620735e-10
5.9056375e-10
5.90500991e-10
6.09159466e-10
6.08322085e-10
6.014364e-10
5.90058471e-10
5.90088985e-10
6.0912436e-10
6.08543951e-10
5.90032922e-10
5.89349221e-10
6.09538676e-10
6.08896847e-10
5.95001886e-10
5.89506688e-10
5.8980599e-10
6.09432657e-10
6.08683634e-10
5.9010275e-10
5.89424915e-10
6.09561729e-10
6.08984298e-10
5.9516548e-10
5.89395627e-10
5.89853164e-10
6.0957122e-10
6.09316379e-10
5.89720163e-10
5.89626492e-10
6.0965032e-10
6.08842109e-10
5.90064654e-10
5.89169397e-10
6.09452922e-10
6.0878361e-10
5.93337518e-10
5.8993938e-10
5.93023887e-10
6.08695659e-10
6.07943902e-10
5.94643706e-10
5.90267135e-10
5.89583232e-10
5.89471846e-10
6.10305117e-10
6.087459e-10
6.06683191e-10
5.89829131e-10
5.89914623e-10
6.09837758e-10
6.09019392e-10
5.99878865e-10
5.89219798e-10
5.89335577e-10
6.1005865e-10
6.08381105e-10
6.09262686e-10
5.92353353e-10
5.89718267e-10
5.89288209e-10
5.89528666e-10
6.09943045e-10
6.08862827e-10
6.00824037e-10
5.89906833e-10
5.89948906e-10
6.09450459e-10
6.08738258e-10
5.96510789e-10
5.89745589e-10
5.90095642e-10
6.09234667e-10
6.08505671e-10
5.90176557e-10
5.89478352e-10
6.09464621e-10
6.08898501e-10
5.94784394e-10
5.8939406e-10
5.89660506e-10
6.0941029e-10
6.08693392e-10
5.90210047e-10
5.895463e-10
6.09525846e-10
6.08991281e-10
5.94502735e-10
5.89286005e-10
5.89479309e-10
6.09609837e-10
6.08738882e-10
5.90103881e-10
5.89358813e-10
6.10076008e-10
6.08820863e-10
5.90120457e-10
5.89608277e-10
6.09604644e-10
6.08956163e-10
5.94687376e-10
5.89436753e-10
5.89981133e-10
6.09554693e-10
6.0866446e-10
5.89690369e-10
5.91193336e-10
6.09292746e-10
5.93175853e-10
5.89973758e-10
6.09556841e-10
6.08723462e-10
6.00599408e-10
5.89884468e-10
5.89812523e-10
6.09609494e-10
6.08405651e-10
6.02667692e-10
5.90937337e-10
5.89406664e-10
5.8935607e-10
6.09436781e-10
6.09023275e-10
5.9431836e-10
5.89302636e-10
5.89718706e-10
6.09517134e-10
6.08742818e-10
5.90095949e-10
5.89283326e-10
6.09669936e-10
6.090419e-10
5.94776638e-10
5.89413363e-10
5.9087823e-10
6.09591482e-10
6.07055443e-10
5.89268409e-10
5.95897514e-10
6.09175421e-10
5.92267595e-10
5.89889222e-10
6.09285562e-10
6.0863935e-10
5.95693772e-10
5.89820919e-10
5.90154351e-10
6.08915267e-10
6.08676435e-10
5.95472129e-10
)
;

boundaryField
{
    closed
    {
        type            calculated;
        value           nonuniform List<scalar> 0();
    }
    open
    {
        type            calculated;
        value           nonuniform List<scalar> 0();
    }
    sides
    {
        type            empty;
    }
    procBoundary1to0
    {
        type            processor;
        value           uniform 6.09079674e-10;
    }
    procBoundary1to2
    {
        type            processor;
        value           uniform 5.89411873e-10;
    }
}


// ************************************************************************* //
