/*--------------------------------*- C++ -*----------------------------------*\
| =========                 |                                                 |
| \\      /  F ield         | OpenFOAM: The Open Source CFD Toolbox           |
|  \\    /   O peration     | Version:  2306                                  |
|   \\  /    A nd           | Website:  www.openfoam.com                      |
|    \\/     M anipulation  |                                                 |
\*---------------------------------------------------------------------------*/
FoamFile
{
    version     2.0;
    format      ascii;
    arch        "LSB;label=32;scalar=64";
    class       volScalarField;
    location    "0.00066";
    object      T;
}
// * * * * * * * * * * * * * * * * * * * * * * * * * * * * * * * * * * * * * //

dimensions      [0 0 0 1 0 0 0];

internalField   nonuniform List<scalar> 
531
(
329.828937
325.274909
326.879963
339.396759
339.912414
330.381261
323.121404
325.514234
339.200958
334.715588
324.515546
328.317883
339.525285
340.187658
329.893661
322.033452
328.201719
339.17852
329.571596
323.642708
331.408637
339.569836
339.748438
327.489102
320.852937
331.089138
339.205011
333.602145
324.171945
322.023531
331.088849
339.352744
334.834021
323.860172
321.467825
332.283148
339.48489
329.237091
324.78162
333.672285
339.545592
334.140023
324.586205
322.509565
331.879323
339.407729
334.047064
324.229567
322.31809
330.941155
339.409325
337.785758
323.83576
321.293551
333.102467
339.343033
329.394956
324.654749
335.402484
339.518306
332.179799
323.799936
322.632446
331.346028
339.48852
337.0652
324.045941
321.867606
331.890449
339.302134
335.449054
322.900829
321.786244
334.049436
339.408227
329.559988
324.814594
335.990771
339.696993
333.333913
323.9578
323.058214
331.210639
340.007515
339.802681
329.149084
327.568517
329.270301
325.556046
327.136145
335.689116
340.20223
338.909075
328.627854
322.535816
332.82009
339.514546
335.47963
322.34055
321.746313
334.303004
339.358089
329.276264
324.720798
337.778136
339.512513
331.637119
322.490462
322.481951
333.926431
339.644756
328.562601
324.217816
339.606099
339.723985
328.012513
324.659905
334.560711
339.650028
335.266559
323.317828
322.791655
334.043431
339.293933
332.37495
325.206054
325.373105
332.022469
339.70248
338.722257
329.420277
319.949268
322.453004
332.451225
339.857847
328.147764
322.975652
338.862606
339.68865
328.057843
324.130651
333.216496
339.474745
337.346608
323.044009
321.558322
335.26364
339.450272
328.30316
324.734802
339.220697
339.591236
331.113229
323.954424
323.151072
330.429727
339.464016
339.811982
323.279073
320.340862
333.812008
339.55036
328.018267
323.155159
339.329097
339.904788
326.245727
323.612968
339.422785
339.878273
326.473579
324.467254
339.200339
339.492461
331.408245
322.478044
322.749486
337.090168
339.734137
327.568514
324.538547
340.022956
339.544164
330.133377
322.074575
322.83111
336.522337
339.822236
327.518007
324.167939
339.993156
339.508584
330.126381
321.636763
322.615872
337.796801
339.855667
327.039276
324.199775
339.752696
339.517566
330.723646
321.864908
322.947411
340.025181
339.536428
329.693942
323.022285
324.690511
339.837228
339.49477
330.841574
324.099086
324.40296
340.094994
339.4557
329.60363
320.201097
321.777089
339.9528
339.695694
329.492599
322.237322
323.551997
339.881518
339.469569
329.956334
322.775207
323.514679
339.799115
339.946709
327.461143
324.232081
339.758368
339.865416
329.361184
323.540185
324.141726
339.838369
339.454059
329.801681
322.595385
322.84109
339.417017
339.949934
326.411795
322.399452
339.129596
340.01322
325.058845
322.635626
339.177154
339.912908
326.3931
324.271075
339.459023
339.710486
329.462432
323.975247
323.910035
339.662284
339.920833
329.377804
322.931288
334.065141
339.82547
327.896153
323.285676
339.678365
339.76352
329.330774
323.021445
323.013775
339.765271
339.953868
328.995049
323.051241
330.682964
339.733238
328.821327
323.296153
339.867693
339.322718
330.021952
320.74512
323.110362
338.779234
340.00885
338.97928
328.99447
318.634618
325.063225
338.939951
339.876946
339.586798
329.259591
324.233376
322.48267
322.563997
339.072879
339.564142
325.991459
322.885444
339.19561
339.498744
332.677226
322.45452
322.410198
339.526429
339.42741
329.579024
322.562565
322.844905
339.757515
339.953817
327.412307
324.15267
339.919157
339.919186
329.35353
323.388175
323.641879
339.963958
339.83196
329.65776
323.85439
323.90262
340.097665
339.990098
328.886965
323.708547
328.918203
340.100606
340.487402
328.792487
321.284616
328.741006
339.885381
340.496992
328.815512
321.654068
328.789301
339.971054
340.486395
328.873421
322.271519
328.724944
339.901896
340.472404
329.066964
323.971853
328.99542
339.814438
340.141619
329.381497
319.695186
320.059204
340.111825
339.697402
329.415601
322.798592
323.034525
339.971041
339.802948
329.016332
324.256118
329.239749
339.707424
340.625231
324.901176
321.145075
340.433938
339.922182
328.862993
324.638532
328.69829
339.857972
340.618768
330.633426
328.778415
329.382252
329.035745
327.017249
327.033278
339.985142
339.948744
331.285275
325.48926
325.522946
340.171685
340.205553
325.53685
323.119446
340.277707
339.836367
329.265039
322.975899
324.614145
339.851759
340.054411
325.47387
323.119375
340.115678
339.712791
329.417608
322.409693
324.25289
339.637564
340.12701
323.90687
323.567151
339.678286
340.027112
325.425866
322.445518
340.27278
339.97595
328.887884
324.781855
328.749705
339.920701
340.490832
329.368888
326.423348
323.258051
323.28188
339.399996
339.685921
334.18808
324.435784
323.905674
339.822493
339.39422
330.620969
321.881015
322.752326
339.855455
339.863262
339.913119
329.237826
323.428441
322.564285
322.860734
339.741413
339.582539
331.031514
324.69462
324.744868
339.862398
339.749022
329.490763
324.028113
325.75008
339.912486
340.150001
326.113079
323.446718
340.006453
339.822045
329.187928
322.678843
324.117764
339.76463
339.987183
326.089907
323.434385
339.863758
339.696664
329.200947
322.079923
323.50101
339.527195
340.095428
325.298128
323.05458
339.49344
339.90219
325.691493
323.544529
339.771971
339.686637
329.246715
322.661048
325.152349
339.614602
340.654023
324.283545
329.151156
339.888572
328.963368
324.856262
340.022617
339.694722
330.880639
324.423113
324.328037
339.634717
339.767937
331.91571
328.290786
322.658392
322.62924
339.663884
339.671928
329.201477
322.224803
324.271557
339.695671
340.02359
325.840446
322.539853
339.87119
339.684808
329.140939
322.4707
328.039855
339.571263
334.442397
322.737009
329.20426
339.873302
328.699068
324.698259
340.183524
339.953471
329.236275
324.630448
325.717581
340.018412
339.826266
329.343541
)
;

boundaryField
{
    closed
    {
        type            fixedValue;
        value           nonuniform List<scalar> 0();
    }
    open
    {
        type            zeroGradient;
    }
    sides
    {
        type            empty;
    }
    procBoundary1to0
    {
        type            processor;
        value           uniform 339.761144;
    }
    procBoundary1to2
    {
        type            processor;
        value           uniform 322.73837;
    }
}


// ************************************************************************* //
