/*--------------------------------*- C++ -*----------------------------------*\
| =========                 |                                                 |
| \\      /  F ield         | OpenFOAM: The Open Source CFD Toolbox           |
|  \\    /   O peration     | Version:  2306                                  |
|   \\  /    A nd           | Website:  www.openfoam.com                      |
|    \\/     M anipulation  |                                                 |
\*---------------------------------------------------------------------------*/
FoamFile
{
    version     2.0;
    format      ascii;
    arch        "LSB;label=32;scalar=64";
    class       surfaceScalarField;
    location    "0.0004";
    object      phi;
}
// * * * * * * * * * * * * * * * * * * * * * * * * * * * * * * * * * * * * * //

dimensions      [1 0 -1 0 0 0 0];

oriented        oriented;

internalField   nonuniform List<scalar> 
530
(
3.46202309e-06
3.40460348e-06
3.4096396e-06
3.48428275e-06
3.351018e-06
3.29427732e-06
3.30437342e-06
3.36777198e-06
3.22223398e-06
3.16296312e-06
3.18536916e-06
3.23922967e-06
3.10429628e-06
3.04816698e-06
3.03200358e-06
3.02001962e-06
2.97241935e-06
2.9402482e-06
2.90872913e-06
2.87354822e-06
2.85365988e-06
3.03507524e-06
2.98064332e-06
2.82067101e-06
2.74795132e-06
2.69838361e-06
2.69614752e-06
2.63747491e-06
2.49491937e-06
2.51777702e-06
2.47868162e-06
2.48277597e-06
2.44890487e-06
2.4435248e-06
2.40315803e-06
2.13626753e-06
2.1574065e-06
2.50197499e-06
2.42266768e-06
2.4318448e-06
2.45706428e-06
2.43365817e-06
2.45143283e-06
2.4110398e-06
2.1746536e-06
2.22064812e-06
2.70276383e-06
2.61597674e-06
2.64722315e-06
2.68302685e-06
2.66980538e-06
2.69271769e-06
2.65454729e-06
2.46308438e-06
2.53030593e-06
2.58207203e-06
2.56765987e-06
2.49019261e-06
2.39178454e-06
2.3921349e-06
2.4205075e-06
2.43679348e-06
2.47707683e-06
2.4665327e-06
2.27804766e-06
2.3583879e-06
2.36751501e-06
2.38733034e-06
2.34868027e-06
2.35413054e-06
2.43395391e-06
2.46696436e-06
2.50198467e-06
2.48129057e-06
2.48618289e-06
2.55038708e-06
2.71211658e-06
2.64950505e-06
2.61127497e-06
2.66305224e-06
2.88736923e-06
2.87828017e-06
2.93495316e-06
3.01282125e-06
3.38736091e-06
3.37547733e-06
3.48098514e-06
3.56692462e-06
4.02215367e-06
4.03327267e-06
3.7591657e-06
3.85925296e-06
4.23907774e-06
4.24896183e-06
4.29276609e-06
4.36667089e-06
4.72472894e-06
4.76325991e-06
4.81855908e-06
4.89142384e-06
5.26680354e-06
5.31046722e-06
5.37250533e-06
5.4626655e-06
5.57968246e-06
5.66477799e-06
5.70138314e-06
5.71812054e-06
5.7664264e-06
6.18305139e-06
6.24409201e-06
6.30072356e-06
6.35670106e-06
6.70845294e-06
6.7845991e-06
6.71969593e-06
6.78382364e-06
6.94998189e-06
7.00836106e-06
7.04032639e-06
7.04028293e-06
7.08958162e-06
7.22823942e-06
7.3025481e-06
7.33877769e-06
7.27900164e-06
7.29907952e-06
7.61612353e-06
7.705529e-06
7.58967026e-06
7.61034736e-06
7.87599096e-06
7.96677683e-06
7.7542899e-06
7.7937563e-06
8.5258087e-06
8.86709619e-06
8.84119055e-06
8.70277386e-06
8.69504205e-06
8.94080901e-06
9.03902393e-06
8.71288408e-06
8.73496553e-06
9.41090022e-06
9.78164354e-06
9.77009193e-06
9.53246898e-06
9.50112292e-06
9.69258849e-06
9.78821244e-06
9.34421015e-06
9.34542205e-06
9.89619007e-06
1.02569318e-05
1.02485673e-05
9.90349437e-06
9.85038896e-06
9.96948524e-06
1.00468328e-05
9.50548878e-06
9.48784011e-06
9.93163169e-06
1.02633507e-05
1.02474029e-05
9.79661268e-06
9.72815156e-06
9.77037123e-06
9.81750016e-06
9.2322179e-06
9.19998434e-06
9.52166612e-06
9.78596138e-06
9.76207523e-06
9.12895273e-06
9.07714632e-06
9.45249497e-06
9.71222505e-06
9.67140288e-06
9.09176304e-06
9.02041326e-06
8.98538917e-06
8.99768351e-06
8.46319939e-06
8.42515601e-06
8.61172118e-06
8.80094718e-06
8.78382923e-06
8.18047862e-06
8.12150042e-06
8.06264512e-06
8.0605792e-06
7.61634381e-06
7.58087517e-06
7.71001776e-06
7.83655414e-06
7.83601622e-06
7.2886362e-06
7.2425732e-06
7.18784913e-06
7.18102599e-06
6.82915369e-06
6.79865831e-06
6.89415911e-06
6.99600977e-06
6.9999786e-06
6.52203787e-06
6.48123248e-06
6.42290546e-06
6.41643358e-06
6.12247903e-06
6.09139638e-06
6.06870485e-06
6.05798867e-06
5.84411564e-06
5.81735269e-06
5.87834955e-06
5.93118403e-06
5.94189989e-06
5.59104233e-06
5.55989487e-06
5.5446426e-06
5.52557289e-06
5.39127159e-06
5.36559075e-06
5.41504805e-06
5.44909544e-06
5.45256249e-06
5.15872791e-06
5.12516158e-06
5.11321895e-06
5.08676427e-06
5.01544232e-06
4.98611268e-06
5.02105489e-06
5.04800916e-06
5.04873639e-06
4.77409113e-06
4.74331031e-06
4.87193075e-06
4.85268098e-06
4.68481627e-06
4.658425e-06
4.79028635e-06
4.77728169e-06
4.59965009e-06
4.57431562e-06
4.70982002e-06
4.69993431e-06
4.51903258e-06
4.49482682e-06
4.62149703e-06
4.60903672e-06
4.44775989e-06
4.42417544e-06
4.53341678e-06
4.51893357e-06
4.40186981e-06
4.37750655e-06
4.4707151e-06
4.44710737e-06
4.3975701e-06
4.37279891e-06
4.39669354e-06
4.3827458e-06
4.40003136e-06
4.27257268e-06
4.24430252e-06
4.32289319e-06
4.29337796e-06
4.24461522e-06
4.22207118e-06
4.25304227e-06
4.24021689e-06
4.25234913e-06
4.18133364e-06
4.15562116e-06
4.23807402e-06
4.20642537e-06
4.15223557e-06
4.12794626e-06
4.15579541e-06
4.1382357e-06
4.14461169e-06
4.07383678e-06
4.04887557e-06
4.13130523e-06
4.10229005e-06
4.04708153e-06
4.02011034e-06
4.11818845e-06
4.0846176e-06
4.01976541e-06
3.99307983e-06
4.0141131e-06
4.00009776e-06
4.0081563e-06
3.90937807e-06
3.87573149e-06
3.9643472e-06
3.91722035e-06
3.84626974e-06
3.81575073e-06
3.83083983e-06
3.81096525e-06
3.80739855e-06
3.71080763e-06
3.67290876e-06
3.7535881e-06
3.70023863e-06
3.62168046e-06
3.58607864e-06
3.59731748e-06
3.57117297e-06
3.55508559e-06
3.46219562e-06
3.42031387e-06
3.48968185e-06
3.42917838e-06
3.34585675e-06
3.30500337e-06
3.30963629e-06
3.27662304e-06
3.24809022e-06
3.15949892e-06
3.1136358e-06
3.16674726e-06
3.09841607e-06
3.01120449e-06
2.96630361e-06
2.95978657e-06
2.9245385e-06
2.89129198e-06
2.79410269e-06
2.74355615e-06
2.78414485e-06
2.70598618e-06
2.62122981e-06
2.57665719e-06
2.55494505e-06
2.5371248e-06
2.37964689e-06
2.31161698e-06
2.25771296e-06
2.22548763e-06
2.18913453e-06
2.04017154e-06
1.98264592e-06
1.92944665e-06
1.94756694e-06
1.86585641e-06
1.79833834e-06
1.75142626e-06
1.74914447e-06
1.66399127e-06
1.59737743e-06
1.54952327e-06
1.54235674e-06
1.46145944e-06
1.39958182e-06
1.34971315e-06
1.34128647e-06
1.25711552e-06
1.18753446e-06
1.14315284e-06
1.09942099e-06
1.05628519e-06
9.56668979e-07
9.11561882e-07
8.72572159e-07
8.44953465e-07
7.61077433e-07
7.05783831e-07
6.71308642e-07
6.34968153e-07
5.43437607e-07
4.93254837e-07
4.62295476e-07
4.21454005e-07
3.12200245e-07
2.78338665e-07
2.52349471e-07
2.09905061e-07
1.13982654e-07
8.2472676e-08
6.12266723e-08
1.6795573e-08
-1.61352102e-08
-4.43604117e-08
-6.20565327e-08
-7.87698735e-08
-1.29687704e-07
-1.71791132e-07
-1.81501726e-07
-1.87317019e-07
-2.04808952e-07
-2.61698412e-07
-3.00128446e-07
-3.0596628e-07
-3.30487604e-07
-3.52468786e-07
-4.13003715e-07
-4.75544893e-07
-4.97319499e-07
-4.87515058e-07
-4.7139771e-07
-4.8760273e-07
-5.55871152e-07
-6.02848192e-07
-6.13564658e-07
-6.23367882e-07
-6.36250946e-07
-6.87897063e-07
-7.22152473e-07
-7.04234347e-07
-7.12217365e-07
-7.23616186e-07
-7.74697215e-07
-8.15248553e-07
-8.16854609e-07
-8.2231614e-07
-8.06105513e-07
-8.87818078e-07
-9.41962464e-07
-9.49424373e-07
-9.67014771e-07
-1.01070328e-06
-1.04942144e-06
-1.03618444e-06
-1.03637555e-06
-1.01566413e-06
-1.10210629e-06
-1.14700783e-06
-1.14974912e-06
-1.16804434e-06
-1.21025163e-06
-1.25066581e-06
-1.2260422e-06
-1.21957488e-06
-1.19503426e-06
-1.28635249e-06
-1.3230442e-06
-1.32126504e-06
-1.3364619e-06
-1.38151409e-06
-1.415993e-06
-1.34124953e-06
-1.32583666e-06
-1.33750753e-06
-1.38657408e-06
-1.43260443e-06
-1.39885839e-06
-1.38269143e-06
-1.35583248e-06
-1.45232442e-06
-1.47792233e-06
-1.46561029e-06
-1.48593008e-06
-1.53157008e-06
-1.57504995e-06
-1.4727302e-06
-1.43057097e-06
-1.44388372e-06
-1.51705492e-06
-1.55965555e-06
-1.52298548e-06
-1.4594415e-06
-1.46551198e-06
-1.53010838e-06
-1.61395904e-06
-1.60602954e-06
-1.57293274e-06
-1.53705729e-06
-1.48819803e-06
-1.58719715e-06
-1.59943732e-06
-1.55712142e-06
-1.5706605e-06
-1.60294744e-06
-1.63957754e-06
-1.59087863e-06
-1.52864679e-06
-1.4220133e-06
-1.52541505e-06
-1.61611657e-06
-1.55578223e-06
-1.40532192e-06
-1.49091069e-06
-1.58632202e-06
-1.50879755e-06
-1.34292148e-06
-1.42306981e-06
-1.44960811e-06
-1.34375157e-06
-1.31566267e-06
-1.2948205e-06
-1.31375621e-06
-1.23075245e-06
-1.03984899e-06
-9.94813678e-07
-9.90106648e-07
-1.01446326e-06
-9.35607603e-07
-7.20476053e-07
-6.60682602e-07
-6.37753436e-07
-6.53955899e-07
-5.78092523e-07
-3.4686309e-07
-2.66762562e-07
-2.17163701e-07
-2.14711412e-07
-2.17960794e-07
-2.4046399e-08
4.52960984e-07
3.94316758e-07
2.9939556e-07
5.15103614e-07
6.46229803e-07
7.59770246e-07
8.28625533e-07
9.07690339e-07
1.00762634e-06
1.1281017e-06
1.46907487e-06
1.52264259e-06
1.72954975e-06
1.9447952e-06
2.44725255e-06
2.48284594e-06
)
;

boundaryField
{
    closed
    {
        type            calculated;
        value           nonuniform List<scalar> 0();
    }
    open
    {
        type            calculated;
        value           nonuniform List<scalar> 0();
    }
    sides
    {
        type            empty;
        value           nonuniform List<scalar> 0();
    }
    procBoundary3to2
    {
        type            processor;
        value           uniform -3.58656729e-06;
    }
    procBoundary3to4
    {
        type            processor;
        value           uniform 2.69659454e-06;
    }
}


// ************************************************************************* //
