/*--------------------------------*- C++ -*----------------------------------*\
| =========                 |                                                 |
| \\      /  F ield         | OpenFOAM: The Open Source CFD Toolbox           |
|  \\    /   O peration     | Version:  2306                                  |
|   \\  /    A nd           | Website:  www.openfoam.com                      |
|    \\/     M anipulation  |                                                 |
\*---------------------------------------------------------------------------*/
FoamFile
{
    version     2.0;
    format      ascii;
    arch        "LSB;label=32;scalar=64";
    class       volScalarField;
    location    "0.0004";
    object      prefDZ_T;
}
// * * * * * * * * * * * * * * * * * * * * * * * * * * * * * * * * * * * * * //

dimensions      [1 -1 -1 -1 0 0 0];

internalField   nonuniform List<scalar> 
531
(
-1.18959422e-09
-1.23198192e-09
-1.22917905e-09
-1.19005005e-09
-1.18954825e-09
-1.23205606e-09
-1.22956239e-09
-1.18973666e-09
-1.18929553e-09
-1.23193238e-09
-1.22984726e-09
-1.18965134e-09
-1.18933915e-09
-1.23106509e-09
-1.22784774e-09
-1.19708747e-09
-1.19384743e-09
-1.19586053e-09
-1.1903542e-09
-1.19259706e-09
-1.22927856e-09
-1.23047356e-09
-1.1897654e-09
-1.19029554e-09
-1.23005011e-09
-1.2275132e-09
-1.19903761e-09
-1.18764282e-09
-1.18852963e-09
-1.23227891e-09
-1.22648788e-09
-1.21249808e-09
-1.19297322e-09
-1.18995145e-09
-1.18861636e-09
-1.19091269e-09
-1.2305856e-09
-1.23368159e-09
-1.19080364e-09
-1.19314674e-09
-1.22939944e-09
-1.22732981e-09
-1.19941085e-09
-1.1874543e-09
-1.18910527e-09
-1.2320131e-09
-1.23343529e-09
-1.19004102e-09
-1.19168623e-09
-1.23016206e-09
-1.22756287e-09
-1.19977956e-09
-1.18753317e-09
-1.1889182e-09
-1.23201676e-09
-1.22991785e-09
-1.19243409e-09
-1.18932452e-09
-1.20749315e-09
-1.22787289e-09
-1.22790608e-09
-1.20029006e-09
-1.18853146e-09
-1.18682545e-09
-1.18987587e-09
-1.23163936e-09
-1.22783838e-09
-1.20005061e-09
-1.18885044e-09
-1.1929108e-09
-1.23081537e-09
-1.22793076e-09
-1.19941682e-09
-1.18807006e-09
-1.19470453e-09
-1.23150463e-09
-1.21219513e-09
-1.18981616e-09
-1.20043924e-09
-1.23016113e-09
-1.21569342e-09
-1.18859099e-09
-1.19273934e-09
-1.23153333e-09
-1.22340979e-09
-1.18926071e-09
-1.19119903e-09
-1.23209079e-09
-1.22672495e-09
-1.18931673e-09
-1.19068175e-09
-1.23253433e-09
-1.22202064e-09
-1.18957733e-09
-1.19477991e-09
-1.23143173e-09
-1.21839933e-09
-1.18918393e-09
-1.19360354e-09
-1.23184615e-09
-1.21891575e-09
-1.18971207e-09
-1.19316653e-09
-1.23159137e-09
-1.22957959e-09
-1.1935626e-09
-1.18741867e-09
-1.19441472e-09
-1.23198518e-09
-1.21930742e-09
-1.18966146e-09
-1.1933203e-09
-1.23221054e-09
-1.21482823e-09
-1.18968381e-09
-1.19884524e-09
-1.23046307e-09
-1.23021763e-09
-1.19089874e-09
-1.18761459e-09
-1.19457027e-09
-1.2318344e-09
-1.22994506e-09
-1.19325781e-09
-1.18782264e-09
-1.19725534e-09
-1.23164959e-09
-1.21137079e-09
-1.18922346e-09
-1.20032906e-09
-1.23079961e-09
-1.20769235e-09
-1.18945034e-09
-1.20318137e-09
-1.23007462e-09
-1.23319847e-09
-1.18974967e-09
-1.18736596e-09
-1.19906081e-09
-1.23123371e-09
-1.20565478e-09
-1.18962712e-09
-1.20706612e-09
-1.22962962e-09
-1.2302475e-09
-1.18958118e-09
-1.18738138e-09
-1.20186082e-09
-1.23069352e-09
-1.20281507e-09
-1.18944824e-09
-1.21123529e-09
-1.22927331e-09
-1.2249956e-09
-1.18920634e-09
-1.18735896e-09
-1.20496974e-09
-1.23013646e-09
-1.20021508e-09
-1.18926903e-09
-1.21585971e-09
-1.22890897e-09
-1.2211205e-09
-1.18881421e-09
-1.18726752e-09
-1.20872374e-09
-1.22951089e-09
-1.19795001e-09
-1.18925024e-09
-1.22132105e-09
-1.2284468e-09
-1.21727044e-09
-1.18856629e-09
-1.18763783e-09
-1.21607801e-09
-1.22913343e-09
-1.21896476e-09
-1.18845695e-09
-1.18734182e-09
-1.21648401e-09
-1.22859838e-09
-1.19566076e-09
-1.18927922e-09
-1.22810353e-09
-1.22814134e-09
-1.21142062e-09
-1.18786447e-09
-1.18697341e-09
-1.22241653e-09
-1.22820564e-09
-1.19420682e-09
-1.18910379e-09
-1.23042484e-09
-1.2280605e-09
-1.20886305e-09
-1.18768956e-09
-1.18686395e-09
-1.22689633e-09
-1.22798777e-09
-1.19348102e-09
-1.18899331e-09
-1.23189864e-09
-1.22804701e-09
-1.20730513e-09
-1.18738562e-09
-1.18657267e-09
-1.22795197e-09
-1.22790493e-09
-1.19271963e-09
-1.18832263e-09
-1.2318443e-09
-1.22732634e-09
-1.19286722e-09
-1.18897318e-09
-1.23374043e-09
-1.22786558e-09
-1.20522008e-09
-1.18719002e-09
-1.1865021e-09
-1.23055638e-09
-1.22773253e-09
-1.19271722e-09
-1.1890351e-09
-1.23441611e-09
-1.22779651e-09
-1.20532487e-09
-1.18742177e-09
-1.18678245e-09
-1.23107286e-09
-1.22769292e-09
-1.19254079e-09
-1.18908315e-09
-1.23456067e-09
-1.22784675e-09
-1.20506195e-09
-1.18742978e-09
-1.18677864e-09
-1.23061391e-09
-1.22788309e-09
-1.19184852e-09
-1.18810155e-09
-1.23276937e-09
-1.22759552e-09
-1.19150609e-09
-1.18776722e-09
-1.23240703e-09
-1.22776141e-09
-1.19118107e-09
-1.18733776e-09
-1.23224519e-09
-1.227841e-09
-1.19111164e-09
-1.18739508e-09
-1.2326941e-09
-1.22772211e-09
-1.19119749e-09
-1.18771008e-09
-1.23378434e-09
-1.2275324e-09
-1.19132394e-09
-1.18856076e-09
-1.23402054e-09
-1.22792341e-09
-1.20221168e-09
-1.18699985e-09
-1.18642238e-09
-1.23369256e-09
-1.22768076e-09
-1.19158085e-09
-1.18901521e-09
-1.2333973e-09
-1.22766214e-09
-1.20386344e-09
-1.18734676e-09
-1.18672844e-09
-1.23433498e-09
-1.22752542e-09
-1.1913728e-09
-1.18902073e-09
-1.23297663e-09
-1.22760367e-09
-1.20323843e-09
-1.18717544e-09
-1.18659714e-09
-1.23441018e-09
-1.22765412e-09
-1.19095516e-09
-1.18812269e-09
-1.23342845e-09
-1.22720001e-09
-1.19089433e-09
-1.18890169e-09
-1.23249423e-09
-1.22759722e-09
-1.2019756e-09
-1.18704915e-09
-1.18648594e-09
-1.23328235e-09
-1.22759865e-09
-1.19071523e-09
-1.18895507e-09
-1.23210365e-09
-1.22754956e-09
-1.20260203e-09
-1.1872976e-09
-1.18676955e-09
-1.23298904e-09
-1.22766633e-09
-1.19045795e-09
-1.18886525e-09
-1.23179653e-09
-1.22752487e-09
-1.20433002e-09
-1.1874263e-09
-1.18689531e-09
-1.23285299e-09
-1.22773496e-09
-1.19003447e-09
-1.18865984e-09
-1.23159945e-09
-1.22754215e-09
-1.20593062e-09
-1.18744776e-09
-1.18694986e-09
-1.23263642e-09
-1.22782233e-09
-1.18972099e-09
-1.18854387e-09
-1.23112674e-09
-1.22751101e-09
-1.20593015e-09
-1.18735436e-09
-1.18695504e-09
-1.23169063e-09
-1.22771411e-09
-1.1895274e-09
-1.18870815e-09
-1.23016615e-09
-1.22741413e-09
-1.20033206e-09
-1.18724457e-09
-1.18827225e-09
-1.22865515e-09
-1.22740149e-09
-1.19985365e-09
-1.18742998e-09
-1.18840713e-09
-1.22944267e-09
-1.22748236e-09
-1.18921156e-09
-1.18807011e-09
-1.23039321e-09
-1.22791235e-09
-1.18885266e-09
-1.18800583e-09
-1.23016768e-09
-1.22780885e-09
-1.18856195e-09
-1.18780502e-09
-1.22969922e-09
-1.22769682e-09
-1.18871781e-09
-1.18866601e-09
-1.22811611e-09
-1.22780185e-09
-1.19650561e-09
-1.18701691e-09
-1.18869683e-09
-1.2290506e-09
-1.22771772e-09
-1.18836895e-09
-1.1879984e-09
-1.22876801e-09
-1.22814147e-09
-1.18822345e-09
-1.18818828e-09
-1.22834589e-09
-1.22817339e-09
-1.18817469e-09
-1.18840704e-09
-1.22781694e-09
-1.22808906e-09
-1.18819534e-09
-1.18934944e-09
-1.22670558e-09
-1.22780973e-09
-1.19624892e-09
-1.1865692e-09
-1.18908953e-09
-1.22774965e-09
-1.22753733e-09
-1.19872412e-09
-1.18685313e-09
-1.18901875e-09
-1.2281906e-09
-1.22726417e-09
-1.20313794e-09
-1.18778447e-09
-1.18941857e-09
-1.22742218e-09
-1.22662333e-09
-1.20565373e-09
-1.18956541e-09
-1.18739681e-09
-1.18887759e-09
-1.22975687e-09
-1.22730293e-09
-1.21152178e-09
-1.18786468e-09
-1.18965604e-09
-1.22742869e-09
-1.22795523e-09
-1.19758658e-09
-1.18708966e-09
-1.18969869e-09
-1.22780641e-09
-1.22792254e-09
-1.19768075e-09
-1.18699059e-09
-1.18940399e-09
-1.22869148e-09
-1.22966942e-09
-1.18907501e-09
-1.19060831e-09
-1.22718611e-09
-1.228217e-09
-1.19603053e-09
-1.18683159e-09
-1.18928483e-09
-1.22904244e-09
-1.23017602e-09
-1.18905014e-09
-1.19060416e-09
-1.22739079e-09
-1.22836701e-09
-1.19581954e-09
-1.18689838e-09
-1.18944965e-09
-1.22928223e-09
-1.23058726e-09
-1.18925947e-09
-1.19085312e-09
-1.22755708e-09
-1.228391e-09
-1.19611229e-09
-1.18711886e-09
-1.18963322e-09
-1.22866059e-09
-1.22815725e-09
-1.19737302e-09
-1.18734214e-09
-1.18982463e-09
-1.22941149e-09
-1.23083779e-09
-1.18949299e-09
-1.1910135e-09
-1.22782711e-09
-1.22828875e-09
-1.19682481e-09
-1.18728614e-09
-1.18928111e-09
-1.22952136e-09
-1.22776716e-09
-1.20251787e-09
-1.1880282e-09
-1.18954002e-09
-1.22845703e-09
-1.22744833e-09
-1.20575244e-09
-1.1896929e-09
-1.18789351e-09
-1.19023935e-09
-1.22970931e-09
-1.23138796e-09
-1.19003169e-09
-1.19134048e-09
-1.22834317e-09
-1.22812596e-09
-1.19872391e-09
-1.18741138e-09
-1.18969744e-09
-1.23060122e-09
-1.23312965e-09
-1.18903778e-09
-1.19051347e-09
-1.2298474e-09
-1.23417937e-09
-1.18920418e-09
-1.19076429e-09
-1.22985044e-09
-1.23391041e-09
-1.18967892e-09
-1.19117336e-09
-1.22925745e-09
-1.22883113e-09
-1.19597381e-09
-1.18734603e-09
-1.18947471e-09
-1.23126471e-09
-1.22829905e-09
-1.20123256e-09
-1.18789573e-09
-1.18955814e-09
-1.23163409e-09
-1.22817688e-09
-1.20142309e-09
-1.18795088e-09
-1.18952711e-09
-1.23191056e-09
-1.22809161e-09
-1.20126747e-09
-1.187813e-09
-1.18981147e-09
-1.23192639e-09
-1.23374165e-09
-1.19018863e-09
-1.19148128e-09
-1.230602e-09
-1.22888586e-09
-1.19533289e-09
-1.18650922e-09
-1.18782856e-09
-1.22550239e-09
-1.22716473e-09
-1.22840486e-09
-1.1899676e-09
-1.19141897e-09
-1.2315888e-09
-1.22795803e-09
-1.18967795e-09
-1.1908681e-09
)
;

boundaryField
{
    closed
    {
        type            calculated;
        value           nonuniform List<scalar> 0();
    }
    open
    {
        type            calculated;
        value           nonuniform List<scalar> 0();
    }
    sides
    {
        type            empty;
    }
    procBoundary3to2
    {
        type            processor;
        value           uniform -1.19019071e-09;
    }
    procBoundary3to4
    {
        type            processor;
        value           uniform -1.23231509e-09;
    }
}


// ************************************************************************* //
