/*--------------------------------*- C++ -*----------------------------------*\
| =========                 |                                                 |
| \\      /  F ield         | OpenFOAM: The Open Source CFD Toolbox           |
|  \\    /   O peration     | Version:  2306                                  |
|   \\  /    A nd           | Website:  www.openfoam.com                      |
|    \\/     M anipulation  |                                                 |
\*---------------------------------------------------------------------------*/
FoamFile
{
    version     2.0;
    format      ascii;
    arch        "LSB;label=32;scalar=64";
    class       volScalarField;
    location    "0.00118";
    object      H2O;
}
// * * * * * * * * * * * * * * * * * * * * * * * * * * * * * * * * * * * * * //

dimensions      [0 0 0 0 0 0 0];

internalField   nonuniform List<scalar> 
531
(
0.00107293217
0.00537225813
0.006800804
0.00758305455
0.00758000529
0.00080706524
0.00101530475
0.000998876312
0.00100777731
0.00448995204
0.00795049046
0.00793161606
0.000857091467
0.00101250019
0.0069227553
0.00741294214
0.00087221745
0.00105143373
0.00684505029
0.00725146835
0.000873467466
0.00105393024
0.00302013564
0.00759284329
0.00759105284
0.000848303385
0.00104532706
0.00708894317
0.00722128452
0.000773307487
0.00110135815
0.000902612853
0.00651353482
0.00775626474
0.00675515061
0.00100391297
0.00107968945
0.00547132379
0.00757150572
0.00588373975
0.000959900544
0.00115041104
0.00106711206
0.00625057358
0.00784930398
0.00783419205
0.000921952735
0.00103022973
0.00544926583
0.00707207857
0.00741949307
0.00688958677
0.000949143858
0.00113265072
0.00106747931
0.00619171626
0.00764096034
0.00508475451
0.000972756566
0.00636441084
0.00743233085
0.00092827387
0.00104869518
0.00688084062
0.00721871519
0.000918022958
0.0010658307
0.00686033325
0.00716382076
0.000927726708
0.00106686516
0.00684279992
0.00719884556
0.000936756739
0.00105863943
0.00676245977
0.00729723155
0.000972614694
0.00103674625
0.00525332433
0.00761385181
0.00760565941
0.000980194161
0.00105940391
0.00559365996
0.00691928146
0.00769372768
0.00768800409
0.000861516395
0.0010564851
0.000967229185
0.00110581519
0.00107408702
0.00614850925
0.00711525376
0.00789163659
0.00790155193
0.00087529426
0.00101807908
0.00725248544
0.00744752259
0.00093043583
0.00105880062
0.00695116064
0.00714582657
0.000964613145
0.00107756802
0.00684175477
0.00707636948
0.000977067971
0.00107810797
0.00683031016
0.00712382853
0.000985487532
0.00106769844
0.00676760675
0.00723721169
0.00102092608
0.00104989784
0.00531674693
0.00763509503
0.00763239139
0.00100307088
0.00101423643
0.00507421287
0.00810868431
0.00776965158
0.000911472784
0.00106669426
0.000984212342
0.00664851859
0.00745923768
0.00101122358
0.00105215619
0.00675780733
0.00729327124
0.00104242669
0.00105295304
0.00551752971
0.00791522837
0.00769066569
0.000916534768
0.00102112144
0.00138344826
0.00788696967
0.0080002828
0.000918200802
0.00103225295
0.00755371317
0.00749340295
0.000921496019
0.00106632169
0.000965828526
0.00704464026
0.00773954827
0.000991891135
0.00105138076
0.0070102563
0.00704079063
0.00104875746
0.0011127133
0.00577220587
0.00664825942
0.00725568031
0.00726715806
0.000989922972
0.00106352284
0.00734164425
0.00733577743
0.000901697097
0.00106842669
0.000969490739
0.00724737976
0.00789566809
0.00103392335
0.00102705375
0.00482809833
0.00770908742
0.00753862201
0.00104305386
0.00104206883
0.00460992408
0.00759008678
0.00744382513
0.00106389319
0.00107238622
0.00613556495
0.00698714746
0.00762861072
0.00759132789
0.000953069659
0.00105985172
0.000981243598
0.00110138926
0.00103230073
0.0065682752
0.00734091024
0.00741594969
0.00775553674
0.00426489425
0.00104448129
0.00105155446
0.00110662715
0.0010331343
0.00523113692
0.0075957484
0.00749822371
0.00107068276
0.00103239689
0.00577092831
0.00774487874
0.00757991094
0.00105289328
0.00102094392
0.00468052661
0.00810327809
0.00768925097
0.000931293929
0.00101983131
0.000958140754
0.00772736923
0.00803258055
0.000970146299
0.00103496726
0.00756869495
0.0073290733
0.00095028232
0.00110279575
0.000971093324
0.00663660858
0.00786753642
0.00647467461
0.00102208484
0.0011062187
0.00698403205
0.0072638267
0.00106575045
0.00107846574
0.00646353292
0.00696048069
0.00732507032
0.0074344348
0.00104937463
0.00103840491
0.00594160792
0.00779711649
0.00733083859
0.000965189125
0.00108524389
0.000988001672
0.00112533803
0.00101508469
0.00576709764
0.00774672822
0.0076151002
0.00105469161
0.00100006388
0.00629392699
0.00789017536
0.00770741133
0.0010454263
0.00103261781
0.00595484554
0.00757960755
0.00711876871
0.000996058362
0.00110006282
0.00104054079
0.00671844773
0.00726655051
0.00106989232
0.00108142185
0.00576960472
0.00694894514
0.007183959
0.00688194736
0.0010309952
0.0011244169
0.00107271121
0.00443770746
0.00709864596
0.00710454127
0.00725916995
0.0076201602
0.00526898113
0.00101730541
0.00114379409
0.00107116206
0.00640099686
0.00712919076
0.00107946566
0.00108894982
0.00560231201
0.0069379162
0.0072676685
0.00719697971
0.00100829337
0.00111518544
0.00104633138
0.00546171071
0.00753844231
0.0066232414
0.000983323142
0.001155444
0.00102053811
0.00611137038
0.00775143071
0.00758901554
0.00104531894
0.00105742746
0.00486849497
0.00705807068
0.00689266964
0.00755501558
0.00755860267
0.000991225847
0.00102956392
0.00106674845
0.0010348792
0.00501270107
0.00775064815
0.00766341586
0.00104567125
0.00104803638
0.00595916603
0.00711801612
0.00749435952
0.00751707692
0.000953775673
0.00102542083
0.00105702108
0.00102876439
0.00574892858
0.00782655037
0.00775661238
0.00103305905
0.00103328633
0.00607660116
0.0074864011
0.00677549002
0.00100971315
0.00109704937
0.00106999882
0.00716885404
0.00743369787
0.00101721291
0.00105214172
0.00627327575
0.00711195024
0.00756918116
0.00755422638
0.000918556973
0.00104207202
0.000967391655
0.00105806086
0.00263764135
0.00727583142
0.00743394516
0.00817872874
0.00814323326
0.000899421389
0.000965218754
0.00100102389
0.000980191764
0.00512273933
0.00817772556
0.00775197991
0.000893066046
0.00105347631
0.000940272559
0.00682566587
0.00773219304
0.000959046368
0.000991744719
0.00776231125
0.00792049257
0.000910618305
0.00101204662
0.00102589163
0.0079210259
0.00833040353
0.00127945099
0.00135643699
0.00146096858
0.0082024169
0.008834683
0.00181244228
0.00196669123
0.00208552398
0.00225115507
0.00235916588
0.00254759375
0.00265586813
0.00285303439
0.00297392188
0.00316431298
0.00330028399
0.00346927488
0.00361060425
0.00373466086
0.00383536548
0.00386428973
0.003756352
0.00336666427
0.00343217594
0.00364269378
0.00389241835
0.00416872269
0.00443573294
0.00478559449
0.00506719345
0.0055029759
0.00576936925
0.00605736418
0.00594317552
0.00549998482
0.0055517264
0.00591683653
0.00609495075
0.00672556368
0.00698241887
0.00788895628
0.00825331702
0.00924081574
0.0096094649
0.0105720265
0.0109849178
0.0112258039
0.00484075601
0.0060693014
0.00666669347
0.00797237536
0.00861029737
0.0099991455
0.0107311179
0.0122937739
0.0132545837
0.0145072182
0.0146077259
0.014547007
0.0146807393
0.014607535
0.0147260621
0.0146491943
0.00629589841
0.0171295682
0.0102818945
0.0114064115
0.0224531266
0.0241536571
0.02643712
0.0271376258
0.028275037
0.0293807014
0.0311167224
0.032867756
0.0353371922
0.037649527
0.0407440053
0.0434480878
0.0468811963
0.049732201
0.0534165927
0.0564013372
0.0600655054
0.0629799505
0.0666852201
0.069782497
0.0735255828
0.0763796997
0.0798544946
0.0824984362
0.0857632867
0.0882446849
0.0912702878
0.0934601123
0.0961815523
0.0979329862
0.100132435
0.101359229
0.103330433
0.104341973
0.106080023
0.106918652
0.108475488
0.109002112
0.110313138
0.110980737
0.11253065
0.112274133
0.113389063
0.113954622
0.115734069
0.116320772
0.118465117
0.116491787
0.117079597
0.120062964
0.12198514
0.117988237
0.119526086
0.123163791
0.123203405
0.120013675
0.12068826
0.123559009
0.123969722
0.121614767
0.121648437
0.124238478
0.124458878
0.122602159
0.122462119
0.124731038
0.124839596
0.123234516
0.123050619
0.12507661
0.125093947
0.123644321
0.123492937
0.125315303
0.12525683
0.123894744
0.123823696
0.125468669
0.125371386
0.124084355
0.124074826
0.12553708
0.125457808
)
;

boundaryField
{
    closed
    {
        type            calculated;
        value           nonuniform List<scalar> 0();
    }
    open
    {
        type            calculated;
        value           nonuniform List<scalar> 0();
    }
    sides
    {
        type            empty;
    }
    procBoundary4to3
    {
        type            processor;
        value           uniform 0.00086640894;
    }
    procBoundary4to5
    {
        type            processor;
        value           uniform 0.124237703;
    }
}


// ************************************************************************* //
