/*--------------------------------*- C++ -*----------------------------------*\
| =========                 |                                                 |
| \\      /  F ield         | OpenFOAM: The Open Source CFD Toolbox           |
|  \\    /   O peration     | Version:  2306                                  |
|   \\  /    A nd           | Website:  www.openfoam.com                      |
|    \\/     M anipulation  |                                                 |
\*---------------------------------------------------------------------------*/
FoamFile
{
    version     2.0;
    format      ascii;
    arch        "LSB;label=32;scalar=64";
    class       volScalarField;
    location    "0.00118";
    object      p;
}
// * * * * * * * * * * * * * * * * * * * * * * * * * * * * * * * * * * * * * //

dimensions      [1 -1 -2 0 0 0 0];

internalField   nonuniform List<scalar> 
531
(
101455.333
101455.885
101456.484
101457.131
101457.796
101457.824
101458.316
101458.856
101459.365
101459.911
101460.524
101461.172
101461.057
101461.403
101461.806
101462.278
101462.729
101463.103
101463.507
101463.992
101464.453
101464.843
101465.246
101465.671
101466.135
101466.565
101466.912
101467.288
101467.746
101468.172
101468.517
101468.869
101469.26
101469.661
101470.044
101470.406
101470.698
101470.996
101471.306
101471.599
101471.851
101472.053
101472.228
101472.394
101472.546
101472.691
101473.51
101473.736
101473.972
101474.211
101474.433
101474.631
101474.836
101474.992
101475.134
101475.292
101475.457
101475.592
101475.693
101475.786
101475.902
101475.99
101476.019
101476.076
101476.152
101476.198
101476.195
101476.219
101476.26
101476.273
101476.242
101476.239
101476.251
101476.236
101476.184
101476.16
101476.146
101476.104
101476.023
101475.955
101475.889
101475.784
101475.576
101475.351
101475.149
101474.952
101474.737
101474.488
101474.146
101473.798
101473.461
101473.127
101472.767
101472.36
101471.944
101471.521
101471.093
101471.366
101471.112
101470.89
101470.665
101470.406
101470.107
101469.834
101469.551
101469.24
101468.901
101468.588
101468.26
101467.907
101467.532
101467.187
101466.822
101466.432
101466.027
101465.65
101465.248
101464.821
101464.377
101463.949
101463.525
101463.078
101462.577
101462.064
101461.566
101461.084
101460.588
101460.108
101459.57
101459.05
101458.958
101458.404
101457.823
101457.252
101456.733
101456.217
101455.706
101455.196
101454.722
101454.27
101453.832
101453.41
101453.006
101452.636
101452.102
101451.602
101451.131
101450.627
101450.152
101449.637
101449.079
101448.515
101447.947
101447.431
101446.867
101446.284
101445.7
101445.153
101444.57
101443.978
101443.39
101442.82
101442.244
101441.673
101441.117
101440.539
101439.962
101439.419
101438.821
101438.266
101437.7
101437.142
101436.602
101436.057
101435.473
101434.891
101434.315
101433.758
101433.171
101432.612
101432.043
101431.463
101430.895
101430.302
101429.726
101429.131
101428.537
101427.931
101427.304
101426.654
101426.372
101425.817
101425.26
101424.713
101424.155
101423.587
101423.002
101422.413
101421.794
101421.155
101420.563
101419.97
101419.37
101418.767
101418.168
101417.577
101416.963
101416.369
101415.774
101415.181
101414.604
101413.999
101413.419
101412.836
101412.253
101411.684
101411.087
101410.515
101409.945
101409.376
101408.838
101408.233
101407.617
101407.011
101406.428
101405.784
101405.185
101404.58
101403.98
101403.386
101402.768
101402.138
101401.501
101400.869
101400.268
101399.621
101398.958
101398.316
101397.69
101397.067
101396.454
101395.846
101395.226
101394.632
101394.047
101393.479
101392.904
101392.362
101391.829
101391.315
101390.813
101390.316
101389.828
101389.37
101388.906
101388.47
101388.035
101387.627
101387.248
101386.87
101386.509
101386.152
101385.816
101385.504
101385.193
101384.903
101384.631
101384.368
101383.907
101383.711
101383.508
101383.295
101383.093
101382.898
101382.701
101382.5
101382.329
101382.158
101381.996
101381.852
101381.711
101381.573
101381.448
101381.315
101381.185
101381.068
101380.945
101380.826
101380.723
101380.633
101380.525
101380.406
101380.3
101380.2
101380.103
101380.004
101379.911
101379.808
101379.709
101379.62
101379.54
101379.45
101379.371
101379.279
101379.187
101379.105
101379.039
101378.967
101378.89
101378.806
101378.737
101378.68
101378.631
101378.598
101378.58
101378.584
101378.591
101378.608
101378.625
101378.652
101378.708
101378.761
101378.818
101378.873
101378.788
101378.725
101378.685
101378.643
101378.594
101378.533
101378.471
101378.405
101378.334
101378.275
101378.193
101378.063
101377.905
101377.905
101377.886
101377.823
101377.75
101377.644
101377.516
101377.374
101377.202
101376.988
101376.754
101376.504
101376.233
101375.938
101375.619
101375.26
101374.886
101374.492
101374.084
101373.655
101373.146
101372.608
101372.07
101371.517
101371.298
101370.846
101370.387
101369.944
101369.493
101369.061
101368.627
101368.218
101367.828
101367.463
101367.141
101366.848
101366.58
101366.343
101366.178
101366.07
101366.016
101366.005
101366.064
101366.219
101366.478
101366.813
101367.188
101367.651
101368.222
101368.935
101369.729
101370.546
101371.455
101372.445
101373.506
101374.635
101375.822
101377.06
101378.339
101379.65
101380.978
101382.311
101383.635
101384.934
101386.19
101387.388
101388.506
101389.512
101390.367
101391.116
101391.727
101392.169
101392.42
101392.458
101392.261
101391.809
101391.09
101390.086
101388.787
101387.163
101385.225
101382.958
101380.364
101377.444
101374.203
101370.646
101366.77
101362.594
101358.095
101353.304
101348.193
101342.824
101337.082
101330.968
101324.442
101317.412
101309.769
101301.351
101291.938
101281.282
101268.943
101254.364
101236.818
101215.509
101189.426
101157.13
101117.507
101068.952
101011.112
101046.504
101101.903
101153.783
101182.798
101203.499
101220.275
101234.468
101246.522
101256.847
101265.779
101273.599
101280.521
101286.718
101292.32
101297.443
101302.162
101306.541
101310.634
101314.482
101318.125
101321.59
101324.907
101328.071
101331.112
101334.034
101336.846
101339.65
101342.437
101345.011
101347.448
101349.963
101352.436
101354.671
101356.858
101358.674
101360.298
101361.809
101363.129
101364.352
101364.817
101363.792
101364.083
101368.331
101367.747
101356.295
101353.472
101371.138
101386.189
101388.264
101395.166
101416.818
101437.95
101458.26
101484.262
101515.857
101557.076
101591.67
101606.511
101625.487
101647.06
101659.533
101665.109
101669.946
101676.566
101680.073
101677.009
101673.462
101674.046
101673.249
101665.359
101656.484
101653.845
101651.644
101642.09
101631.201
101627.473
101625.276
101615.64
101604.299
101600.554
101599.213
101590.678
101579.86
101576.347
101576.073
101569.515
)
;

boundaryField
{
    closed
    {
        type            zeroGradient;
    }
    open
    {
        type            waveTransmissive;
        gamma           1.25;
        fieldInf        101325;
        lInf            1;
        value           nonuniform List<scalar> 0();
    }
    sides
    {
        type            empty;
    }
    procBoundary4to3
    {
        type            processor;
        value           uniform 101454.828;
    }
    procBoundary4to5
    {
        type            processor;
        value           uniform 101559.75;
    }
}


// ************************************************************************* //
