/*--------------------------------*- C++ -*----------------------------------*\
| =========                 |                                                 |
| \\      /  F ield         | OpenFOAM: The Open Source CFD Toolbox           |
|  \\    /   O peration     | Version:  2306                                  |
|   \\  /    A nd           | Website:  www.openfoam.com                      |
|    \\/     M anipulation  |                                                 |
\*---------------------------------------------------------------------------*/
FoamFile
{
    version     2.0;
    format      ascii;
    arch        "LSB;label=32;scalar=64";
    class       volVectorField;
    location    "0.00118";
    object      U;
}
// * * * * * * * * * * * * * * * * * * * * * * * * * * * * * * * * * * * * * //

dimensions      [0 1 -1 0 0 0 0];

internalField   nonuniform List<vector> 
531
(
(0.264302181 0 0)
(0.259452348 0 0)
(0.252225867 0 0)
(0.247800147 0 0)
(0.25200118 0 0)
(0.260687207 0 0)
(0.266481003 0 0)
(0.267433872 0 0)
(0.264015879 0 0)
(0.25658277 0 0)
(0.250306224 0 0)
(0.257858357 0 0)
(0.270459669 0 0)
(0.271374074 0 0)
(0.263798572 0 0)
(0.261654794 0 0)
(0.268765245 0 0)
(0.271152573 0 0)
(0.263769386 0 0)
(0.261386349 0 0)
(0.268013599 0 0)
(0.271873144 0 0)
(0.267710059 0 0)
(0.262494058 0 0)
(0.264603649 0 0)
(0.273771765 0 0)
(0.275131708 0 0)
(0.265014876 0 0)
(0.261068997 0 0)
(0.270527168 0 0)
(0.279242647 0 0)
(0.279171861 0 0)
(0.277725567 0 0)
(0.276417608 0 0)
(0.271297634 0 0)
(0.269366115 0 0)
(0.268482412 0 0)
(0.262962039 0 0)
(0.262124853 0 0)
(0.268326536 0 0)
(0.276446637 0 0)
(0.280449558 0 0)
(0.276560512 0 0)
(0.267926487 0 0)
(0.262760903 0 0)
(0.264918743 0 0)
(0.276409868 0 0)
(0.283622139 0 0)
(0.277207357 0 0)
(0.273261511 0 0)
(0.274955891 0 0)
(0.274692332 0 0)
(0.275446043 0 0)
(0.277620171 0 0)
(0.273453965 0 0)
(0.266148395 0 0)
(0.264574999 0 0)
(0.268933393 0 0)
(0.270363724 0 0)
(0.265626234 0 0)
(0.264002152 0 0)
(0.270352792 0 0)
(0.270631125 0 0)
(0.264492992 0 0)
(0.26487071 0 0)
(0.271440693 0 0)
(0.271167663 0 0)
(0.264761512 0 0)
(0.265028163 0 0)
(0.271336738 0 0)
(0.270685884 0 0)
(0.264400641 0 0)
(0.264946856 0 0)
(0.271225446 0 0)
(0.270474825 0 0)
(0.264636962 0 0)
(0.265426944 0 0)
(0.271942331 0 0)
(0.271190796 0 0)
(0.2627697 0 0)
(0.257458207 0 0)
(0.265582045 0 0)
(0.277013133 0 0)
(0.274863806 0 0)
(0.26680227 0 0)
(0.259701082 0 0)
(0.255836621 0 0)
(0.262239926 0 0)
(0.271941866 0 0)
(0.27167136 0 0)
(0.270297982 0 0)
(0.269162031 0 0)
(0.267419342 0 0)
(0.260795919 0 0)
(0.254327422 0 0)
(0.25209208 0 0)
(0.251534382 0 0)
(0.259859774 0 0)
(0.263207676 0 0)
(0.255568798 0 0)
(0.256522577 0 0)
(0.263126216 0 0)
(0.261422257 0 0)
(0.25522678 0 0)
(0.256464561 0 0)
(0.26192005 0 0)
(0.259638693 0 0)
(0.25396139 0 0)
(0.255687885 0 0)
(0.261009519 0 0)
(0.25837573 0 0)
(0.25289904 0 0)
(0.254959277 0 0)
(0.260387549 0 0)
(0.257726571 0 0)
(0.252903533 0 0)
(0.255358948 0 0)
(0.261265135 0 0)
(0.258081734 0 0)
(0.248925517 0 0)
(0.2442161 0 0)
(0.251372118 0 0)
(0.261538995 0 0)
(0.256861157 0 0)
(0.246467095 0 0)
(0.239695249 0 0)
(0.24160628 0 0)
(0.249588772 0 0)
(0.251480849 0 0)
(0.245869041 0 0)
(0.239586367 0 0)
(0.240641143 0 0)
(0.245384068 0 0)
(0.242151863 0 0)
(0.237497046 0 0)
(0.239470564 0 0)
(0.244370091 0 0)
(0.239106499 0 0)
(0.228515413 0 0)
(0.221450683 0 0)
(0.220375587 0 0)
(0.222747152 0 0)
(0.221392348 0 0)
(0.23028304 0 0)
(0.236058181 0 0)
(0.233142926 0 0)
(0.234983286 0 0)
(0.230104311 0 0)
(0.222329111 0 0)
(0.224837129 0 0)
(0.228065855 0 0)
(0.223833795 0 0)
(0.219290308 0 0)
(0.214564382 0 0)
(0.217422866 0 0)
(0.222946757 0 0)
(0.218914522 0 0)
(0.214130406 0 0)
(0.216861711 0 0)
(0.219974915 0 0)
(0.215545932 0 0)
(0.207419046 0 0)
(0.201713729 0 0)
(0.197944248 0 0)
(0.200636554 0 0)
(0.206318147 0 0)
(0.201928346 0 0)
(0.193474382 0 0)
(0.189185098 0 0)
(0.191192483 0 0)
(0.192072643 0 0)
(0.190344063 0 0)
(0.185846315 0 0)
(0.18629087 0 0)
(0.191270416 0 0)
(0.188027348 0 0)
(0.180201941 0 0)
(0.175247071 0 0)
(0.176413593 0 0)
(0.180202731 0 0)
(0.17854607 0 0)
(0.171483739 0 0)
(0.167349634 0 0)
(0.16921708 0 0)
(0.173119893 0 0)
(0.170567238 0 0)
(0.162867523 0 0)
(0.15670647 0 0)
(0.154329862 0 0)
(0.155566296 0 0)
(0.159263257 0 0)
(0.158553232 0 0)
(0.156424516 0 0)
(0.155001412 0 0)
(0.153414921 0 0)
(0.147206744 0 0)
(0.140806346 0 0)
(0.141958699 0 0)
(0.147691001 0 0)
(0.14886775 0 0)
(0.146455568 0 0)
(0.145368474 0 0)
(0.144448812 0 0)
(0.142333545 0 0)
(0.136781546 0 0)
(0.134338872 0 0)
(0.136899607 0 0)
(0.141135235 0 0)
(0.140155648 0 0)
(0.134798931 0 0)
(0.132567815 0 0)
(0.135515079 0 0)
(0.140140605 0 0)
(0.139687938 0 0)
(0.133791917 0 0)
(0.128740594 0 0)
(0.130232293 0 0)
(0.134785127 0 0)
(0.135448472 0 0)
(0.133063092 0 0)
(0.130640794 0 0)
(0.13447776 0 0)
(0.139427991 0 0)
(0.1375 0 0)
(0.133094458 0 0)
(0.131780501 0 0)
(0.133117774 0 0)
(0.133612221 0 0)
(0.13283742 0 0)
(0.131171269 0 0)
(0.131890242 0 0)
(0.136271728 0 0)
(0.140079581 0 0)
(0.138741497 0 0)
(0.136077214 0 0)
(0.140462437 0 0)
(0.145893401 0 0)
(0.143600816 0 0)
(0.138073653 0 0)
(0.134329462 0 0)
(0.134615837 0 0)
(0.139536695 0 0)
(0.145025271 0 0)
(0.143638761 0 0)
(0.138615279 0 0)
(0.13514032 0 0)
(0.137191608 0 0)
(0.141906725 0 0)
(0.142530112 0 0)
(0.142131387 0 0)
(0.142260437 0 0)
(0.141921252 0 0)
(0.137668354 0 0)
(0.135512348 0 0)
(0.138220274 0 0)
(0.142773805 0 0)
(0.141581851 0 0)
(0.135913966 0 0)
(0.134041928 0 0)
(0.13812411 0 0)
(0.144148875 0 0)
(0.144154124 0 0)
(0.13917527 0 0)
(0.1357041 0 0)
(0.136445058 0 0)
(0.139908287 0 0)
(0.140900837 0 0)
(0.140483664 0 0)
(0.137486262 0 0)
(0.13750549 0 0)
(0.141053327 0 0)
(0.138898526 0 0)
(0.133804177 0 0)
(0.132057871 0 0)
(0.133388581 0 0)
(0.133452563 0 0)
(0.133688126 0 0)
(0.133499776 0 0)
(0.131377897 0 0)
(0.12779581 0 0)
(0.125649418 0 0)
(0.124954749 0 0)
(0.127289322 0 0)
(0.131444575 0 0)
(0.133836815 0 0)
(0.135153305 0 0)
(0.135291853 0 0)
(0.133319055 0 0)
(0.129383342 0 0)
(0.129204583 0 0)
(0.132575414 0 0)
(0.131096293 0 0)
(0.126279518 0 0)
(0.123216793 0 0)
(0.123093549 0 0)
(0.124545512 0 0)
(0.127345584 0 0)
(0.128151889 0 0)
(0.126270483 0 0)
(0.122607224 0 0)
(0.120419441 0 0)
(0.119842582 0 0)
(0.120377861 0 0)
(0.120615137 0 0)
(0.118663231 0 0)
(0.11465268 0 0)
(0.113373197 0 0)
(0.117305915 0 0)
(0.122417175 0 0)
(0.122695906 0 0)
(0.118649048 0 0)
(0.114006403 0 0)
(0.110674833 0 0)
(0.109341342 0 0)
(0.109427994 0 0)
(0.112093387 0 0)
(0.114363522 0 0)
(0.113857684 0 0)
(0.111706861 0 0)
(0.106867581 0 0)
(0.104835609 0 0)
(0.109240496 0 0)
(0.114275531 0 0)
(0.115437263 0 0)
(0.111982571 0 0)
(0.106983263 0 0)
(0.105419799 0 0)
(0.108077536 0 0)
(0.112053469 0 0)
(0.113740019 0 0)
(0.113417125 0 0)
(0.111364708 0 0)
(0.106834445 0 0)
(0.10524185 0 0)
(0.110522155 0 0)
(0.116565065 0 0)
(0.115801964 0 0)
(0.111086481 0 0)
(0.108773391 0 0)
(0.107795959 0 0)
(0.108091761 0 0)
(0.108817125 0 0)
(0.10716211 0 0)
(0.105494454 0 0)
(0.107912479 0 0)
(0.111923646 0 0)
(0.112034243 0 0)
(0.108576035 0 0)
(0.104823774 0 0)
(0.103688003 0 0)
(0.107464739 0 0)
(0.112539399 0 0)
(0.114204899 0 0)
(0.11410127 0 0)
(0.11397902 0 0)
(0.116402126 0 0)
(0.116620909 0 0)
(0.111434382 0 0)
(0.108596267 0 0)
(0.110275779 0 0)
(0.116409312 0 0)
(0.121789568 0 0)
(0.123305945 0 0)
(0.122919271 0 0)
(0.118532154 0 0)
(0.115035866 0 0)
(0.118883268 0 0)
(0.126706953 0 0)
(0.130613748 0 0)
(0.12978997 0 0)
(0.124629069 0 0)
(0.122651477 0 0)
(0.126379074 0 0)
(0.125432068 0 0)
(0.120759801 0 0)
(0.12119901 0 0)
(0.127152727 0 0)
(0.129157816 0 0)
(0.124911255 0 0)
(0.117579447 0 0)
(0.116175122 0 0)
(0.120800322 0 0)
(0.121671162 0 0)
(0.115922952 0 0)
(0.106876006 0 0)
(0.103108521 0 0)
(0.105852355 0 0)
(0.106351868 0 0)
(0.103213954 0 0)
(0.0994587407 0 0)
(0.0954158759 0 0)
(0.0911933968 0 0)
(0.0867130838 0 0)
(0.081975311 0 0)
(0.0771101904 0 0)
(0.0721189552 0 0)
(0.0671939823 0 0)
(0.0623084034 0 0)
(0.0576768328 0 0)
(0.0532936112 0 0)
(0.0494163544 0 0)
(0.0465606691 0 0)
(0.046040402 0 0)
(0.0477719753 0 0)
(0.0463174068 0 0)
(0.0396248748 0 0)
(0.033170536 0 0)
(0.0280483705 0 0)
(0.0241260463 0 0)
(0.0214286851 0 0)
(0.0197634209 0 0)
(0.0184936031 0 0)
(0.0176603731 0 0)
(0.0186744622 0 0)
(0.0224520661 0 0)
(0.0261056053 0 0)
(0.0289079974 0 0)
(0.033775378 0 0)
(0.0402347798 0 0)
(0.0484835718 0 0)
(0.0579398687 0 0)
(0.0667157105 0 0)
(0.0743866729 0 0)
(0.082736425 0 0)
(0.0919790234 0 0)
(0.101469645 0 0)
(0.111880162 0 0)
(0.130467596 0 0)
(0.158555536 0 0)
(0.169510635 0 0)
(0.181780359 0 0)
(0.194072062 0 0)
(0.210271257 0 0)
(0.226513474 0 0)
(0.247763151 0 0)
(0.270030396 0 0)
(0.298570173 0 0)
(0.334302216 0 0)
(0.387211159 0 0)
(0.450646833 0 0)
(0.529336221 0 0)
(0.621568585 0 0)
(0.735485145 0 0)
(0.853692864 0 0)
(0.141657251 0 0)
(-0.62887992 0 0)
(-0.551917898 0 0)
(-0.659551316 0 0)
(-0.554113287 0 0)
(-0.449979795 0 0)
(-0.387880649 0 0)
(-0.329631012 0 0)
(-0.280552273 0 0)
(-0.232704882 0 0)
(-0.19022963 0 0)
(-0.147309476 0 0)
(-0.107857103 0 0)
(-0.0670327698 0 0)
(-0.030156549 0 0)
(0.00798423012 0 0)
(0.0441327334 0 0)
(0.0820523376 0 0)
(0.117802967 0 0)
(0.154081098 0 0)
(0.188016775 0 0)
(0.222065059 0 0)
(0.254700055 0 0)
(0.287746011 0 0)
(0.318938426 0 0)
(0.349908233 0 0)
(0.377806602 0 0)
(0.404074295 0 0)
(0.431410359 0 0)
(0.459848741 0 0)
(0.482742984 0 0)
(0.503326851 0 0)
(0.525911063 0 0)
(0.546267052 0 0)
(0.565413605 0 0)
(0.585112052 0 0)
(0.599333797 0 0)
(0.612652808 0 0)
(0.623845298 0 0)
(0.641845749 0 0)
(0.679027549 0 0)
(0.685386986 0 0)
(0.607357285 0 0)
(0.61174202 0 0)
(0.838445847 0 0)
(0.905687004 0 0)
(0.534571204 0 0)
(0.357695823 0 0)
(0.696465082 0 0)
(0.90371215 0 0)
(0.722697485 0 0)
(0.667670676 0 0)
(0.824357907 0 0)
(0.914734335 0 0)
(0.85588946 0 0)
(0.600446852 0 0)
(0.534677088 0 0)
(0.838610839 0 0)
(0.92490643 0 0)
(0.739320542 0 0)
(0.716189579 0 0)
(0.854250045 0 0)
(0.853484027 0 0)
(0.768607281 0 0)
(0.744665831 0 0)
(0.831975748 0 0)
(0.869252909 0 0)
(0.772310492 0 0)
(0.721292002 0 0)
(0.822583717 0 0)
(0.905805534 0 0)
(0.805301023 0 0)
(0.708640347 0 0)
(0.80602064 0 0)
(0.916732766 0 0)
(0.822007732 0 0)
(0.702245399 0 0)
(0.795093357 0 0)
(0.923168267 0 0)
(0.835742458 0 0)
(0.698605379 0 0)
(0.779088486 0 0)
(0.917564843 0 0)
(0.847493294 0 0)
(0.700920301 0 0)
(0.752539778 0 0)
(0.886101466 0 0)
)
;

boundaryField
{
    closed
    {
        type            noSlip;
    }
    open
    {
        type            inletOutlet;
        inletValue      nonuniform List<vector> 0();
        value           nonuniform List<vector> 0();
    }
    sides
    {
        type            empty;
    }
    procBoundary4to3
    {
        type            processor;
        value           uniform (0.259492422 0 0);
    }
    procBoundary4to5
    {
        type            processor;
        value           uniform (0.852439354 0 0);
    }
}


// ************************************************************************* //
