/*--------------------------------*- C++ -*----------------------------------*\
| =========                 |                                                 |
| \\      /  F ield         | OpenFOAM: The Open Source CFD Toolbox           |
|  \\    /   O peration     | Version:  2306                                  |
|   \\  /    A nd           | Website:  www.openfoam.com                      |
|    \\/     M anipulation  |                                                 |
\*---------------------------------------------------------------------------*/
FoamFile
{
    version     2.0;
    format      ascii;
    arch        "LSB;label=32;scalar=64";
    class       volScalarField;
    location    "0.00066";
    object      H;
}
// * * * * * * * * * * * * * * * * * * * * * * * * * * * * * * * * * * * * * //

dimensions      [0 0 0 0 0 0 0];

internalField   nonuniform List<scalar> 
531
(
2.53887062e-08
4.42138063e-08
4.26679882e-08
6.14185734e-10
1.24550319e-09
2.57583383e-08
4.5961018e-08
4.57053515e-08
4.92306763e-10
1.28917558e-09
2.87511999e-08
3.64525891e-08
4.82591851e-09
1.22428959e-09
2.35599087e-08
4.42138398e-08
4.45029019e-08
1.65492513e-09
1.29853241e-09
2.59424917e-08
3.39985052e-08
5.52716822e-09
1.26875732e-09
1.92398843e-08
3.69189892e-08
3.84958594e-08
4.42950251e-08
4.42852378e-08
7.43635563e-09
1.1851916e-09
2.63407996e-08
3.63277822e-08
8.344062e-09
1.13104275e-09
2.13530039e-08
4.52362417e-08
4.63716692e-08
7.15893666e-09
1.14613937e-09
2.76108496e-08
3.95885295e-08
1.08259976e-08
1.1209355e-09
2.73339531e-08
3.88782643e-08
9.96756665e-09
1.07070545e-09
2.21083288e-08
4.6901899e-08
4.78628015e-08
7.66725022e-09
1.11529651e-09
2.7995756e-08
3.97926209e-08
1.02721304e-08
1.05699095e-09
2.16628772e-08
4.70152158e-08
4.78509983e-08
7.58336372e-09
1.09930992e-09
2.87980415e-08
4.1333102e-08
1.15608453e-08
1.06738083e-09
2.89493619e-08
4.22199247e-08
1.20548878e-08
1.01890664e-09
3.03631769e-08
4.67837617e-08
1.49491104e-08
9.6238713e-10
3.01804817e-08
4.4334278e-08
1.27420524e-08
1.0464608e-09
2.88890135e-08
4.07826031e-08
1.0203992e-08
1.07760349e-09
1.92016268e-08
4.69175621e-08
4.8129334e-08
8.04781574e-09
1.07197534e-09
2.98179052e-08
4.18787389e-08
1.05127876e-08
1.09993851e-09
2.88967074e-08
4.0432763e-08
1.12686499e-08
1.10564717e-09
1.65814928e-08
4.5823053e-08
4.73405692e-08
8.0297865e-09
1.08635604e-09
2.83174015e-08
4.04736094e-08
1.44758699e-08
1.10405249e-09
1.38530401e-08
4.4423746e-08
4.63037576e-08
8.84154625e-09
1.09615675e-09
2.6965677e-08
3.96242897e-08
1.66426962e-08
1.12999948e-09
1.11662841e-08
4.13532494e-08
4.47911229e-08
1.51448811e-08
1.11621266e-09
1.23311034e-08
4.11540531e-08
4.45790241e-08
1.64940393e-08
1.10894594e-09
1.17760999e-08
4.0820981e-08
4.46486132e-08
1.75469672e-08
1.08942468e-09
1.18350901e-08
4.14854019e-08
4.53970898e-08
1.590379e-08
1.07709919e-09
2.14664183e-08
3.87387721e-08
2.10857768e-08
1.09914091e-09
8.94810667e-09
4.05393954e-08
4.52442055e-08
1.67035092e-08
1.08529936e-09
2.01922065e-08
3.81266992e-08
2.19944978e-08
1.12064784e-09
6.17587328e-09
3.79188195e-08
4.3144982e-08
1.89603491e-08
1.16128304e-09
7.43267098e-09
3.43834783e-08
4.27437055e-08
4.3328998e-08
2.22966645e-08
1.06216807e-09
8.89507979e-09
3.95371731e-08
4.49664761e-08
2.00882081e-08
1.09836352e-09
1.56090657e-08
3.70309631e-08
2.30150513e-08
1.07802157e-09
8.83902292e-09
4.00658964e-08
4.54663445e-08
1.92867039e-08
1.08434827e-09
1.80490298e-08
3.88528521e-08
2.23568806e-08
1.05436452e-09
1.0476829e-08
4.13094379e-08
4.57032608e-08
1.77327893e-08
1.10154466e-09
2.032635e-08
3.91780272e-08
2.00722938e-08
1.08746441e-09
1.0957506e-08
4.0722696e-08
4.44691376e-08
1.58968991e-08
1.09945077e-09
1.33919863e-08
4.14939479e-08
4.48855883e-08
1.54685068e-08
1.07808335e-09
1.46463069e-08
4.28597322e-08
4.61390109e-08
1.43180557e-08
1.09494031e-09
2.56829111e-08
4.10353141e-08
1.28911414e-08
1.02492696e-09
2.90256218e-08
4.16197338e-08
1.15239586e-08
1.09215114e-09
2.73906557e-08
4.27758884e-08
1.48287845e-08
1.06538398e-09
1.54990132e-08
4.34946717e-08
4.56120401e-08
1.04585853e-08
1.10944304e-09
2.8542494e-08
4.33137511e-08
1.33847465e-08
1.07191738e-09
1.61575164e-08
4.35257222e-08
4.46833543e-08
7.09171309e-09
1.12653778e-09
3.02081559e-08
4.37898078e-08
1.21202862e-08
1.08397987e-09
1.67737579e-08
4.27147883e-08
4.30071562e-08
2.72408456e-09
1.15245126e-09
3.06932546e-08
4.33696872e-08
1.14636211e-08
1.09562905e-09
1.26563293e-08
4.06310975e-08
4.2769781e-08
9.4900625e-09
1.19316073e-09
1.65072447e-08
3.50293878e-08
4.57569537e-08
4.58466597e-08
1.25856405e-08
1.07248539e-09
2.9586441e-08
4.37170216e-08
9.89299369e-09
1.10785088e-09
3.08400283e-08
4.37138631e-08
9.6869516e-09
1.1126544e-09
3.09664666e-08
4.35187919e-08
9.10930814e-09
1.12415516e-09
3.11972922e-08
4.32544108e-08
8.25098099e-09
1.1430669e-09
3.11049515e-08
4.18668036e-08
6.59666471e-09
1.13090771e-09
1.76875256e-08
4.42654682e-08
4.61352511e-08
8.55118431e-09
1.07536823e-09
1.6372613e-08
4.47794343e-08
4.68587261e-08
9.19865549e-09
1.12422165e-09
2.98468324e-08
4.08661306e-08
6.26157533e-09
1.13405545e-09
1.66635735e-08
4.40114596e-08
4.63461914e-08
9.18680543e-09
1.11996826e-09
2.97220977e-08
4.04686984e-08
7.15980841e-09
1.12918194e-09
1.54128615e-08
4.29342913e-08
4.56688071e-08
9.35156145e-09
1.07014195e-09
1.414822e-08
4.31329221e-08
4.63495546e-08
1.00737918e-08
1.03969369e-09
1.4723755e-08
4.43496067e-08
4.78219386e-08
1.17986409e-08
1.05357807e-09
2.85905535e-08
4.23894244e-08
1.11772314e-08
1.07806287e-09
2.61820294e-08
4.08797134e-08
2.04046517e-08
8.67546681e-10
5.62100189e-09
4.17215492e-08
4.76799295e-08
1.49667001e-08
9.60160013e-10
1.07149679e-08
4.07211304e-08
4.60810549e-08
1.55415082e-08
9.70283656e-10
2.1466509e-08
4.01002932e-08
2.90079259e-08
5.76344531e-10
7.81844974e-10
3.25512056e-08
4.59319844e-08
2.07822302e-08
7.93551529e-10
8.52724706e-09
3.82156564e-08
4.43515743e-08
1.84654352e-08
9.02351916e-10
2.05647907e-08
3.90948245e-08
2.14089682e-08
7.80496438e-10
6.29136271e-09
3.59450739e-08
4.34178262e-08
2.08876097e-08
8.10076973e-10
9.73609532e-09
3.85673436e-08
4.61775338e-08
2.31042166e-08
7.143271e-10
1.76722302e-08
3.84014799e-08
2.4479377e-08
6.69237244e-10
7.57080623e-09
3.67367996e-08
4.50535048e-08
2.39832255e-08
6.77017032e-10
1.6372147e-08
3.69718312e-08
2.49719208e-08
7.05466195e-10
4.47470405e-09
3.48827211e-08
4.3881219e-08
2.504403e-08
7.45520806e-10
4.64242111e-09
3.51283565e-08
4.45872788e-08
2.54192069e-08
6.673255e-10
1.46655649e-08
3.699104e-08
2.75276269e-08
7.27392638e-10
9.31140853e-10
2.66677789e-08
4.18419981e-08
3.91366988e-08
5.14923882e-09
9.9819393e-10
1.74191237e-08
3.74991562e-08
4.40377144e-08
4.43625296e-08
1.66929387e-08
1.01124696e-09
1.19409073e-09
1.7850689e-08
3.91809539e-08
4.34537074e-08
2.06994712e-08
9.15891951e-10
6.52749789e-09
3.77722634e-08
4.5018108e-08
2.16191367e-08
7.93624373e-10
1.57173155e-08
4.10841952e-08
3.09183966e-08
7.16577787e-10
3.25502905e-09
3.67650651e-08
4.289015e-08
1.90451988e-08
8.65291678e-10
1.63488969e-08
4.08129556e-08
2.96263351e-08
7.23526044e-10
8.8920695e-09
4.08133838e-08
3.85632274e-08
7.09706185e-10
9.38471835e-10
2.73432731e-08
4.43832459e-08
2.80804183e-08
7.21300844e-10
1.51662044e-08
3.90933869e-08
2.84402507e-08
9.58729465e-10
7.94078374e-10
3.51610299e-08
4.68186334e-08
2.66088438e-08
7.90074617e-10
1.55966455e-08
3.84721279e-08
2.70923801e-08
1.02310254e-09
6.66251692e-10
3.55052198e-08
4.59474749e-08
2.81173492e-08
9.46586064e-10
4.96012627e-10
3.49825506e-08
4.1087051e-08
2.1226701e-08
1.11595713e-09
8.54184112e-10
3.11769786e-08
4.33605388e-08
4.6881475e-08
2.85827792e-08
5.46862207e-10
1.75561163e-08
3.9160549e-08
2.73367548e-08
1.04963657e-09
6.3112437e-10
3.57557623e-08
4.58988564e-08
2.37398507e-08
7.95265632e-10
1.82783716e-08
4.06244477e-08
2.35475797e-08
8.22167941e-10
1.90880185e-08
4.12436378e-08
2.34114556e-08
8.45843685e-10
1.87660943e-08
3.87686226e-08
2.39057068e-08
1.04769261e-09
7.04100517e-09
3.94418853e-08
4.72146702e-08
2.40392364e-08
7.36081831e-10
1.98455466e-08
4.07786502e-08
2.18989687e-08
8.7138977e-10
1.96844746e-08
3.81419271e-08
2.1974287e-08
1.06356429e-09
9.00321837e-09
3.98656793e-08
4.61502646e-08
2.14704334e-08
8.16215593e-10
2.12066923e-08
4.20786399e-08
2.23312522e-08
7.8202763e-10
2.09853251e-08
3.84505258e-08
2.12208933e-08
1.08469833e-09
8.5989004e-09
3.89455614e-08
4.35957904e-08
2.12080458e-08
1.06819367e-09
7.50747636e-09
3.85365369e-08
4.33864664e-08
2.0461028e-08
1.07304995e-09
8.26709314e-09
3.89564372e-08
4.35029938e-08
2.01711953e-08
1.07493368e-09
8.24809396e-09
3.90774999e-08
4.34069304e-08
1.96711148e-08
1.0812584e-09
8.11253697e-09
3.90107083e-08
4.3286781e-08
1.90095107e-08
1.08285801e-09
8.09122421e-09
3.91329422e-08
4.32622737e-08
1.82956331e-08
1.08158913e-09
8.39519838e-09
)
;

boundaryField
{
    closed
    {
        type            calculated;
        value           nonuniform List<scalar> 0();
    }
    open
    {
        type            calculated;
        value           nonuniform List<scalar> 0();
    }
    sides
    {
        type            empty;
    }
    procBoundary1to0
    {
        type            processor;
        value           uniform 1.28090911e-09;
    }
    procBoundary1to2
    {
        type            processor;
        value           uniform 3.94407427e-08;
    }
}


// ************************************************************************* //
