/*--------------------------------*- C++ -*----------------------------------*\
| =========                 |                                                 |
| \\      /  F ield         | OpenFOAM: The Open Source CFD Toolbox           |
|  \\    /   O peration     | Version:  2306                                  |
|   \\  /    A nd           | Website:  www.openfoam.com                      |
|    \\/     M anipulation  |                                                 |
\*---------------------------------------------------------------------------*/
FoamFile
{
    version     2.0;
    format      ascii;
    arch        "LSB;label=32;scalar=64";
    class       volScalarField;
    location    "0.00066";
    object      H2O;
}
// * * * * * * * * * * * * * * * * * * * * * * * * * * * * * * * * * * * * * //

dimensions      [0 0 0 0 0 0 0];

internalField   nonuniform List<scalar> 
531
(
0.00501290686
0.00718083028
0.00704578056
0.000821775636
0.00103892093
0.00506946505
0.00731493185
0.00729227096
0.000776380933
0.00103587063
0.00552893323
0.00659184964
0.00153190337
0.0010407367
0.00472834379
0.00717114052
0.00719741866
0.000983277641
0.00104635172
0.00510244587
0.00630547248
0.00166705879
0.00106859324
0.00404445002
0.0066080951
0.00673090796
0.00716485491
0.00717617026
0.00199870786
0.00101653357
0.00516370418
0.00656220015
0.00215061933
0.00101989067
0.00438503967
0.00723876951
0.00733957614
0.00194417522
0.000998812743
0.00535733943
0.0068164786
0.0025768308
0.000994737856
0.00531481413
0.00674879725
0.0024251898
0.000995759836
0.00450451481
0.00736791657
0.00745709258
0.0020312295
0.000994330634
0.00541604288
0.00681473493
0.00248181734
0.000995635353
0.00443598694
0.00737225665
0.00745304895
0.0020216594
0.000991629498
0.00553709033
0.00693381877
0.00271419543
0.000981900352
0.00555948488
0.00699637145
0.00279407051
0.000965136094
0.00577090186
0.00736087588
0.00327550447
0.000930985273
0.00574371102
0.00716189649
0.00290993246
0.000972182998
0.00555041592
0.00687978415
0.00246439015
0.00100543073
0.00404315458
0.00736792974
0.00747704759
0.00208895015
0.000970184741
0.00568920745
0.00697433801
0.00252289033
0.000982737269
0.00555156742
0.00685935239
0.0026475976
0.00101133368
0.003610688
0.00728494922
0.00741386274
0.00208114296
0.00097386783
0.00546442207
0.0068622226
0.00321154998
0.00101266041
0.00315049369
0.0071759382
0.00732943834
0.00222570356
0.000976738807
0.00525876059
0.00679743318
0.00358680912
0.00102131627
0.00268874458
0.00694727554
0.00720596797
0.00332662049
0.00101234698
0.00288989539
0.0069353192
0.00718960039
0.0035567187
0.00100869506
0.00279322687
0.00691262101
0.00719426537
0.00373328978
0.00100130272
0.00280246111
0.00696196857
0.00725607462
0.00345178495
0.00097024464
0.00438775958
0.00673427844
0.00432290657
0.00100303977
0.0022976343
0.00689070372
0.00724255127
0.00358714601
0.000971509904
0.00418018125
0.00669103523
0.00447179402
0.00101083807
0.00180449295
0.0066876821
0.00707214405
0.00397696319
0.00102676071
0.00203582943
0.00635741957
0.00704580926
0.00710052335
0.00451888117
0.00098591517
0.00228719716
0.00681531375
0.00722219298
0.00415222802
0.000986523316
0.00342110374
0.00660775867
0.00463504001
0.000991088553
0.0022795152
0.00685228257
0.0072617071
0.00401743426
0.000978992559
0.0038274898
0.00674788589
0.00452426075
0.00098216287
0.00256257701
0.00694375707
0.00728460092
0.00375635883
0.000986529471
0.0042053295
0.00677513314
0.00414940725
0.000997113169
0.0026506741
0.00689503551
0.00718005814
0.00345155711
0.00100794375
0.00307528771
0.00695928347
0.00721469409
0.00337422963
0.00100190746
0.00328621396
0.00705949384
0.00732166125
0.00317666178
0.000986201717
0.00506038379
0.0069094272
0.00293665076
0.000946273985
0.00557047445
0.00694774807
0.00270091608
0.000987226889
0.00532230739
0.00704819719
0.00325579349
0.00100204257
0.0034305966
0.00709854523
0.00727945286
0.00250822182
0.000987595369
0.00549765121
0.00709857069
0.0030018289
0.00100503545
0.00354269281
0.00709273868
0.0072024878
0.00192078645
0.000995068918
0.00574737677
0.00713696594
0.00278094228
0.00101264522
0.00364689607
0.00702188485
0.00706359847
0.00115526005
0.00100333545
0.00581858884
0.00709951778
0.00267259039
0.00102703554
0.00296427679
0.0068666999
0.00704939593
0.00234560289
0.00105423406
0.00361851301
0.00644888939
0.00727338958
0.00730511245
0.00287316237
0.000989351779
0.00565464843
0.00713482977
0.00238888433
0.000998101736
0.00583959373
0.0071353594
0.00235779657
0.00100234631
0.00585767196
0.00711939064
0.00225839792
0.0010066747
0.00589128887
0.00709967725
0.00210403427
0.00101670055
0.00587795368
0.00698311623
0.00181551817
0.00102722466
0.00380741433
0.00716393757
0.00731912301
0.0021707337
0.00101032349
0.00358512742
0.00720298778
0.00738769404
0.00228714211
0.00101003525
0.00569330789
0.0069046898
0.00176155763
0.00103085568
0.00363424512
0.0071439725
0.00734544147
0.00229038758
0.00100988218
0.00567486931
0.00687242707
0.00192256001
0.00102982163
0.00343276395
0.00706339876
0.00728002462
0.00232197563
0.00100857513
0.00322019919
0.00708179338
0.00733472353
0.00244500259
0.000996300956
0.00331118076
0.00717523206
0.00746344239
0.00274353544
0.000980826257
0.00550551892
0.00703154555
0.00261652583
0.000996351079
0.0051397671
0.0068978203
0.0041963922
0.000949040783
0.00175311955
0.00697749356
0.00743801227
0.00326319107
0.00096192683
0.00263804179
0.00690152506
0.00731805272
0.00338167953
0.000961258829
0.00439633702
0.00683726125
0.00556670635
0.000856264736
0.000893815059
0.00609768738
0.00729250851
0.00424547299
0.000910295053
0.00225510811
0.00670606859
0.00717233194
0.0038812224
0.000933138214
0.00424859123
0.00677570765
0.00435111826
0.00090205012
0.00187310296
0.00655005821
0.00709250174
0.00427568274
0.000912853212
0.00246259398
0.006744502
0.00731519545
0.00463535705
0.000851227824
0.00376270547
0.0067202545
0.00485382125
0.000861230232
0.00208515744
0.00660087747
0.00721704492
0.00478084103
0.000834130781
0.00354248222
0.0066050255
0.00493640526
0.00087190258
0.00153931
0.0064330075
0.00712368421
0.00494738908
0.000880558376
0.00156619576
0.00646853157
0.00717544031
0.00500940204
0.000822826175
0.00325140782
0.00660114045
0.00533855056
0.00087115254
0.000942910028
0.00521036273
0.00695419528
0.00677128995
0.00161042622
0.00093743931
0.00373939323
0.00665158242
0.00715309234
0.00717041153
0.00359672822
0.00097440326
0.00104417596
0.00381030814
0.00677592599
0.00708877544
0.00426173796
0.00092052721
0.00186781417
0.00667850073
0.00720260584
0.00440700145
0.000863848904
0.00342624687
0.00689175858
0.00585401213
0.000828570844
0.00126512325
0.00658375478
0.00702694136
0.003991118
0.000896704161
0.00353899209
0.00686388241
0.00566058446
0.000828025118
0.00225035633
0.00686096086
0.00671515255
0.000785739477
0.000923529342
0.00531501055
0.00714090989
0.00542514517
0.0008187218
0.00332875049
0.00672818151
0.00548230235
0.000914682361
0.000861788011
0.0064714986
0.00733586949
0.00519794414
0.000844435482
0.00340403945
0.00668216114
0.00527760529
0.000937087335
0.000811353897
0.00650744388
0.00726759636
0.0054335332
0.000915753687
0.000759025238
0.00643614195
0.00687897794
0.00436432166
0.00100155774
0.000890839017
0.00588845063
0.00709061455
0.00735957643
0.00550226733
0.000762974048
0.00373618972
0.0067280418
0.00531588721
0.000951114154
0.000807455836
0.00651722568
0.00725142715
0.00475065214
0.000863377076
0.00385924216
0.00683616235
0.00471610618
0.000856618624
0.00398746606
0.00689303153
0.00469301494
0.000863701432
0.00393871008
0.00670331277
0.00478059826
0.000949444047
0.00194586297
0.00680456325
0.00737701416
0.00479492373
0.000829509907
0.00411454242
0.00685349193
0.00444990658
0.00087332854
0.00409233023
0.00665726344
0.00447217506
0.000962193158
0.00229664418
0.0068321207
0.00729404081
0.00438403527
0.000861954119
0.00433825376
0.00695604778
0.00451838999
0.000839775534
0.00430381485
0.00667918298
0.00434949929
0.000975257552
0.00222336965
0.00675348643
0.00709621202
0.00435207359
0.000972752273
0.00203079328
0.00672273935
0.00707908093
0.00422862781
0.000973298145
0.00216324594
0.00675705465
0.00709129138
0.0041798387
0.000973795478
0.00215898967
0.00676726529
0.00708504855
0.00409646041
0.000977810283
0.00213542852
0.00676317281
0.00707633416
0.00398535802
0.000979608884
0.00213200852
0.00677386485
0.00707591505
0.00386385765
0.000979480037
0.00218564806
)
;

boundaryField
{
    closed
    {
        type            calculated;
        value           nonuniform List<scalar> 0();
    }
    open
    {
        type            calculated;
        value           nonuniform List<scalar> 0();
    }
    sides
    {
        type            empty;
    }
    procBoundary1to0
    {
        type            processor;
        value           uniform 0.00105341808;
    }
    procBoundary1to2
    {
        type            processor;
        value           uniform 0.00679938375;
    }
}


// ************************************************************************* //
