/*--------------------------------*- C++ -*----------------------------------*\
| =========                 |                                                 |
| \\      /  F ield         | OpenFOAM: The Open Source CFD Toolbox           |
|  \\    /   O peration     | Version:  2306                                  |
|   \\  /    A nd           | Website:  www.openfoam.com                      |
|    \\/     M anipulation  |                                                 |
\*---------------------------------------------------------------------------*/
FoamFile
{
    version     2.0;
    format      ascii;
    arch        "LSB;label=32;scalar=64";
    class       volScalarField;
    location    "0.00066";
    object      p;
}
// * * * * * * * * * * * * * * * * * * * * * * * * * * * * * * * * * * * * * //

dimensions      [1 -1 -2 0 0 0 0];

internalField   nonuniform List<scalar> 
531
(
101271.802
101257.941
101244.143
101231.829
101219.852
101209.189
101198.384
101188.12
101179.435
101171.514
101165.722
101160.622
101156.201
101153.437
101150.413
101144.995
101140.631
101142.73
101144.083
101148.863
101156.961
101166.587
101176.634
101187.348
101198.36
101210.173
101222.987
101236.478
101250.053
101263.241
101277.021
101290.726
101304.417
101317.521
101330.959
101344.585
101358.502
101372.193
101385.115
101398.317
101411.527
101424.7
101436.995
101449.269
101461.352
101473.163
101483.979
101494.551
101504.99
101515.349
101525.039
101533.657
101541.921
101549.801
101557.252
101563.844
101570.149
101576.355
101582.617
101588.537
101593.985
101599.431
101604.918
101610.39
101615.292
101620.001
101624.534
101628.82
101632.353
101635.497
101638.326
101640.81
101642.594
101644.002
101645.094
101645.882
101646.136
101646.114
101645.89
101645.506
101644.863
101644.096
101643.289
101642.528
101641.729
101640.917
101640.102
101639.365
101638.679
101637.872
101636.958
101636.013
101634.959
101633.78
101632.391
101630.762
101628.974
101627.032
101625.025
101622.848
101620.558
101618.101
101615.667
101613.069
101610.177
101607.18
101604.161
101601.314
101598.446
101595.583
101592.701
101590.043
101587.417
101584.598
101581.899
101579.44
101577.41
101575.619
101573.925
101572.603
101571.75
101571.43
101571.492
101571.801
101572.602
101573.862
101575.465
101577.325
101579.324
101581.672
101584.236
101586.84
101589.58
101592.375
101595.238
101598.043
101600.846
101603.428
101606.133
101608.772
101611.235
101613.736
101616.123
101618.45
101620.648
101622.922
101624.816
101626.913
101629.043
101631.141
101633.398
101635.421
101637.697
101640.093
101642.492
101644.883
101647.382
101649.805
101652.453
101655.155
101657.727
101660.354
101662.96
101665.656
101668.238
101670.806
101673.241
101675.823
101678.371
101680.681
101682.993
101685.263
101687.548
101689.671
101691.746
101693.742
101695.862
101697.94
101699.811
101701.706
101703.663
101705.715
101707.68
101709.667
101711.695
101713.955
101716.228
101718.356
101720.472
101722.663
101725.022
101727.303
101729.358
101731.269
101733.18
101735.171
101737.006
101738.496
101739.736
101740.963
101742.179
101743.008
101743.583
101744.203
101744.803
101745.058
101745.108
101745.2
101745.219
101745.136
101744.797
101744.322
101743.845
101743.275
101742.555
101741.546
101740.497
101739.33
101738.099
101736.538
101734.757
101732.952
101731.171
101729.497
101727.757
101726.251
101724.941
101723.975
101723.061
101722.31
101721.911
101721.788
101721.906
101722.157
101722.613
101723.075
101723.643
101724.025
101724.282
101724.898
101725.923
101727.243
101728.402
101729.403
101730.438
101731.4
101732.323
101733.355
101734.541
101735.883
101737.243
101738.418
101739.351
101740.034
101740.425
101740.54
101740.294
101739.593
101738.332
101736.672
101734.416
101731.446
101727.653
101723.502
101718.619
101712.886
101706.164
101699.431
101691.777
101682.793
101672.712
101661.905
101651.482
101640.23
101627.59
101614.055
101600.262
101587.357
101574.423
101561.286
101547.952
101536.277
101524.692
101512.509
101500.073
101487.788
101476.388
101464.855
101452.669
101439.746
101427.744
101415.045
101400.828
101385.601
101369.973
101354.904
101338.634
101319.998
101299.676
101278.51
101257.505
101234.689
101208.641
101180.355
101151.388
101122.555
101092.564
101060.616
101027.54
100995.631
100962.999
100928.436
100893.033
100857.791
100821.663
100781.614
100740.987
100702.383
100665.444
100629.273
100591.214
100553.34
100516.711
100478.148
100437.277
100393.089
100353.638
100324.386
100305.133
100291.148
100278.205
100267.37
100262.881
100267.58
100276.792
100289.53
100304.015
100314.504
100325.827
100335.563
100347.384
100359.174
100373.15
100388.011
100406.187
100427.489
100447.535
100469.511
100492.042
100516.971
100543.932
100569.092
100596.304
100623.13
100651.103
100677.755
100705.12
100732.56
100761.113
100789.623
100815.569
100841.697
100866.883
100892.881
100918.548
100944.662
100969.43
100993.227
101015.545
101037.406
101061.207
101085.432
101108.532
101131.064
101152.11
101172.613
101191.598
101209.66
101225.908
101240.86
101255.494
101269.874
101283.889
101296.939
101308.951
101320.809
101332.638
101344.384
101355.844
101366.957
101377.287
101386.935
101396.445
101406.358
101416.425
101427.059
101436.887
101446.216
101455.311
101465.934
101478.783
101488.642
101498.54
101509.003
101518.771
101528.398
101538.606
101548.69
101558.788
101567.487
101575.025
101582.189
101589.358
101596.046
101602.17
101607.92
101613.446
101618.559
101623.633
101627.051
101630.942
101634.733
101638.284
101641.548
101644.522
101647.459
101650.069
101652.403
101654.573
101656.499
101658.367
101660.033
101661.635
101663.075
101664.668
101666.358
101668.194
101670.036
101671.401
101672.643
101673.473
101674.341
101675.87
101677.098
101678.676
101680.245
101681.163
101681.48
101680.995
101680.059
101678.578
101676.689
101674.815
101672.862
101670.886
101669.097
101667.46
101666.418
101665.493
101665.071
101664.794
101664.709
101664.86
101664.659
101664.915
101664.213
101663.89
101663.174
101662.638
101661.891
101661.514
101661.239
101661.404
101661.647
101662.41
101663.098
101664.842
101667.168
101669.145
101671.925
101675.081
101678.837
101682.769
101686.858
101691.437
101696.42
101701.51
101706.581
101711.771
101717.251
101722.772
101728.068
101732.927
101737.733
101742.33
101746.518
101750.034
101753.216
101755.888
101757.923
101759.316
101759.844
101759.781
101759.035
101757.666
101755.816
101752.965
101749.587
101745.734
101741.661
101737.526
101732.781
101727.875
101722.974
101718.376
101714.177
101709.801
101705.669
101701.873
101698.592
101695.817
101693.012
101690.553
101688.407
101686.649
101685.222
101683.699
101682.448
101681.385
101680.566
101679.928
)
;

boundaryField
{
    closed
    {
        type            zeroGradient;
    }
    open
    {
        type            waveTransmissive;
        gamma           1.25;
        fieldInf        101325;
        lInf            1;
        value           nonuniform List<scalar> 0();
    }
    sides
    {
        type            empty;
    }
    procBoundary1to0
    {
        type            processor;
        value           uniform 101284.846;
    }
    procBoundary1to2
    {
        type            processor;
        value           uniform 101679.172;
    }
}


// ************************************************************************* //
