/*--------------------------------*- C++ -*----------------------------------*\
| =========                 |                                                 |
| \\      /  F ield         | OpenFOAM: The Open Source CFD Toolbox           |
|  \\    /   O peration     | Version:  2306                                  |
|   \\  /    A nd           | Website:  www.openfoam.com                      |
|    \\/     M anipulation  |                                                 |
\*---------------------------------------------------------------------------*/
FoamFile
{
    version     2.0;
    format      ascii;
    arch        "LSB;label=32;scalar=64";
    class       volScalarField;
    location    "0.00066";
    object      prefDh_H;
}
// * * * * * * * * * * * * * * * * * * * * * * * * * * * * * * * * * * * * * //

dimensions      [1 1 -3 0 0 0 0];

internalField   nonuniform List<scalar> 
531
(
23381.4109
23104.1201
23160.2534
23840.7047
23968.6943
23377.7037
23046.946
23056.3213
23818.4168
23990.2861
23372.0852
23349.3112
23704.6058
23957.9186
23394.8591
23107.4626
23096.6142
23782.4866
23987.0211
23387.838
23374.8648
23684.5985
23957.9451
23437.0524
23343.199
23292.3057
23109.0326
23105.2801
23640.1356
23957.7185
23386.6133
23362.1669
23620.6037
23930.9807
23417.638
23077.3594
23035.4737
23647.7465
23952.9213
23382.5091
23256.7286
23567.1497
23944.5413
23381.0788
23284.886
23585.8057
23921.1694
23411.1384
23021.2954
22984.808
23636.2912
23942.301
23384.3867
23257.2582
23578.7785
23915.0528
23416.4378
23018.6527
22986.0234
23637.2707
23937.0566
23387.6703
23207.1548
23551.1401
23929.6942
23381.9461
23180.3593
23541.6408
23919.9454
23370.8365
23024.7069
23487.0151
23919.1933
23368.006
23109.7195
23528.2834
23927.2846
23381.7445
23229.5522
23580.9146
23917.2846
23439.6391
23021.094
22975.9618
23629.1079
23940.2178
23385.5777
23189.9457
23573.7274
23943.7425
23381.6779
23238.3948
23558.4437
23925.6948
23468.9847
23057.4916
23003.1808
23630.3571
23944.0257
23382.4862
23237.1771
23496.2437
23924.0155
23508.418
23104.3872
23039.1991
23611.2754
23946.3595
23382.6326
23264.4474
23461.816
23929.4819
23555.5125
23201.9249
23091.6588
23484.7931
23929.7325
23534.135
23207.0493
23098.6885
23463.2392
23929.0897
23544.2
23216.6289
23096.615
23447.5738
23925.6179
23543.1713
23195.9071
23070.4625
23471.874
23942.477
23405.3947
23290.9381
23406.9509
23928.7489
23600.6893
23225.7842
23076.0917
23459.2255
23945.2482
23417.7806
23308.9572
23399.7922
23932.8209
23663.8904
23310.2172
23148.3669
23431.4545
23939.6573
23633.0218
23389.1409
23159.8925
23137.2915
23395.9297
23924.4382
23601.9912
23257.2282
23084.9684
23413.6466
23940.3095
23478.7604
23343.5346
23391.0656
23927.8536
23602.8586
23241.7944
23068.0687
23422.4063
23939.4329
23443.3973
23285.2684
23391.8194
23923.6295
23569.5018
23203.3984
23058.7502
23443.0227
23941.7349
23418.0749
23273.9087
23413.7387
23927.761
23559.6575
23223.7519
23102.6792
23472.0955
23925.3458
23515.9768
23196.9195
23088.0583
23478.7159
23920.0542
23496.122
23154.379
23043.2074
23498.768
23939.0018
23383.9606
23217.3963
23525.3755
23936.3147
23373.5246
23200.8937
23552.4171
23937.0082
23375.7207
23158.8722
23489.2204
23914.2066
23483.743
23137.0414
23061.185
23575.4765
23944.5162
23375.053
23138.0674
23516.2413
23914.9959
23475.0223
23138.8396
23093.6381
23651.6443
23946.8185
23380.8772
23121.8837
23541.8119
23914.9432
23467.4421
23168.6015
23152.1591
23759.5683
23952.5072
23388.7851
23137.4321
23555.1182
23909.7883
23528.0769
23235.0387
23158.4677
23595.7772
23934.2621
23474.0919
23395.2486
23061.6547
23051.0384
23531.7354
23926.6106
23392.4993
23123.047
23590.4977
23936.2368
23394.4314
23122.8778
23594.4796
23935.3407
23398.3337
23129.5804
23607.377
23937.4004
23399.7444
23137.9685
23627.9851
23938.6954
23398.4469
23186.6904
23667.3608
23925.6279
23459.4674
23109.554
23044.0151
23618.5867
23912.7238
23473.456
23092.7231
23016.1428
23603.3634
23935.0098
23391.0172
23219.6596
23674.5076
23924.4284
23470.0245
23118.0716
23033.9548
23602.8347
23933.2037
23389.2506
23233.1647
23652.0529
23922.9721
23487.0834
23152.6059
23060.4928
23598.7583
23911.6227
23504.7691
23144.9975
23037.149
23583.3322
23906.7241
23495.9479
23105.1606
22983.6426
23547.1941
23924.242
23381.5416
23166.6482
23561.7733
23924.0668
23388.4066
23222.3049
23406.1537
23862.7332
23666.3453
23189.2892
22992.2861
23485.8771
23895.629
23561.6064
23221.1936
23044.8702
23477.029
23900.7231
23411.5492
23247.7786
23359.9408
23797.1507
23864.2374
23352.8589
23054.0995
23395.0743
23857.4014
23604.6853
23302.6435
23106.1202
23433.326
23890.3744
23418.2231
23273.6903
23388.6757
23857.5131
23650.8009
23366.567
23139.6172
23400.4365
23863.1018
23580.819
23286.6054
23044.7585
23376.8769
23864.8274
23447.8639
23296.7527
23362.6203
23836.6171
23625.2998
23346.0015
23085.8605
23374.1073
23860.4053
23466.0779
23344.6302
23364.7333
23845.3779
23695.8793
23378.3899
23125.851
23363.5707
23857.3829
23692.572
23378.6668
23103.2352
23365.6655
23864.3571
23493.3288
23346.3487
23356.1076
23856.0351
23896.3284
23374.3568
23197.5657
23275.5092
23691.4274
23930.6691
23455.9127
23325.2293
23114.7814
23106.6815
23461.3252
23909.7447
23941.9065
23450.3994
23273.5807
23140.6798
23411.8381
23905.7584
23655.3916
23313.9864
23090.6924
23400.1427
23891.7276
23475.5801
23223.9847
23364.1782
23882.6171
23741.4464
23353.5613
23165.7327
23430.4859
23900.2074
23466.4952
23235.5361
23365.8835
23886.1857
23607.6514
23236.64
23298.9183
23816.8518
23913.8007
23375.6146
23116.0573
23361.0523
23892.0263
23484.3183
23293.1087
23376.2068
23929.3758
23893.4484
23384.201
23030.9294
23365.0687
23904.3605
23477.3548
23312.5925
23380.2366
23942.1265
23872.3733
23384.4161
23061.1372
23377.6017
23923.1227
23833.1982
23413.1341
23228.7657
23418.2746
23937.3957
23899.457
23398.8162
23140.621
23023.8328
23362.4384
23853.654
23447.7599
23293.043
23384.1143
23943.9262
23859.1808
23380.7502
23066.2129
23386.1031
23892.821
23438.5453
23246.7369
23382.8769
23909.98
23426.0202
23222.8543
23382.4514
23915.5151
23431.7294
23303.6343
23389.7249
23944.257
23646.0335
23261.6863
23014.6059
23380.0293
23890.8066
23417.5103
23239.5927
23395.749
23920.0363
23421.2759
23323.0946
23402.8563
23942.1974
23601.1125
23250.1518
23051.1965
23402.3477
23903.3796
23403.0444
23195.6653
23390.6372
23904.1278
23406.2896
23313.8334
23408.6585
23942.2807
23610.2569
23282.9273
23137.1728
23411.9043
23936.6657
23634.7759
23295.7527
23144.4583
23417.4632
23938.4566
23617.8867
23281.4467
23139.4885
23419.5801
23938.9452
23618.4658
23277.1906
23142.2695
23424.2188
23938.8954
23621.4454
23278.9004
23146.0533
23430.9634
23938.3185
23621.8652
23274.447
23146.3511
23438.8361
23937.8406
23615.063
)
;

boundaryField
{
    closed
    {
        type            calculated;
        value           nonuniform List<scalar> 0();
    }
    open
    {
        type            calculated;
        value           nonuniform List<scalar> 0();
    }
    sides
    {
        type            empty;
    }
    procBoundary1to0
    {
        type            processor;
        value           uniform 23974.1731;
    }
    procBoundary1to2
    {
        type            processor;
        value           uniform 23263.8157;
    }
}


// ************************************************************************* //
