/*--------------------------------*- C++ -*----------------------------------*\
| =========                 |                                                 |
| \\      /  F ield         | OpenFOAM: The Open Source CFD Toolbox           |
|  \\    /   O peration     | Version:  2306                                  |
|   \\  /    A nd           | Website:  www.openfoam.com                      |
|    \\/     M anipulation  |                                                 |
\*---------------------------------------------------------------------------*/
FoamFile
{
    version     2.0;
    format      ascii;
    arch        "LSB;label=32;scalar=64";
    class       volScalarField;
    location    "0.00066";
    object      sourcePV;
}
// * * * * * * * * * * * * * * * * * * * * * * * * * * * * * * * * * * * * * //

dimensions      [1 -3 -1 0 0 0 0];

internalField   nonuniform List<scalar> 
531
(
0.0928644462
0.156601032
0.151632052
0.00315389611
0.00583328473
0.0941908253
0.162117546
0.161293862
0.00263124796
0.0059901008
0.104943122
0.13209557
0.0183625035
0.005757841
0.0862894151
0.156549321
0.157483987
0.0068574241
0.00604144554
0.094867118
0.123733761
0.0209371233
0.00596692174
0.0707351784
0.133477246
0.138472975
0.156738215
0.156772333
0.0278680398
0.00557435968
0.0962981641
0.131604683
0.0311508043
0.00538028205
0.0783576976
0.159717216
0.163375056
0.0268469714
0.00540146999
0.100857297
0.141936357
0.0401514352
0.00530187964
0.0998617241
0.139625537
0.0370288431
0.00511871362
0.0810773543
0.164976933
0.168094852
0.0286896184
0.00528043253
0.102240243
0.142494487
0.0381429714
0.00506814212
0.0794783877
0.165308936
0.168039376
0.0283960673
0.00521712228
0.105119588
0.147366218
0.042841619
0.00508361346
0.105659252
0.150138561
0.0446224094
0.00487768402
0.110722572
0.164616156
0.0550857668
0.00461327611
0.110066944
0.156829724
0.0471100715
0.00499063515
0.105442766
0.145566926
0.0378831285
0.00516005088
0.0706090852
0.165019469
0.168932013
0.0300527856
0.00508126734
0.108773422
0.149082706
0.0390151783
0.00520487374
0.10547032
0.144494471
0.0417450985
0.00527282693
0.0611366052
0.161574528
0.166430289
0.0299770386
0.00514029818
0.103393035
0.144622177
0.0534085111
0.00526915241
0.0512535591
0.157150962
0.163133195
0.0329319534
0.00518112548
0.0985400678
0.141940542
0.0612782616
0.00537878603
0.0415052124
0.14749089
0.158320267
0.0558361996
0.00531334277
0.0457333422
0.146878393
0.157650461
0.0607281284
0.0052806123
0.043716837
0.145840222
0.157866394
0.0645395726
0.00519666031
0.0439288213
0.147931763
0.160252021
0.058577947
0.00510024643
0.07872721
0.139165709
0.0773454565
0.00523524748
0.03343696
0.144948603
0.159759802
0.0614753678
0.00513254476
0.0741260883
0.137249073
0.080629377
0.00532718025
0.0233461463
0.136653332
0.153084357
0.0696727911
0.00550283007
0.0279376273
0.125106325
0.151840891
0.1537408
0.0817152811
0.00507106837
0.0332417001
0.14178779
0.158888715
0.0737235945
0.00520526712
0.0575545881
0.133788245
0.0843081749
0.00513789426
0.033042696
0.143441355
0.160472272
0.0708201834
0.00514129477
0.0663809373
0.139550344
0.081921316
0.00503618334
0.0389869667
0.14735165
0.161245809
0.0651931696
0.00521699759
0.0746185651
0.140589669
0.0736655868
0.0051825477
0.0407429188
0.145478726
0.157297659
0.0585551542
0.00524446388
0.0495896702
0.147941674
0.158626414
0.056992074
0.00515598313
0.0541309926
0.152232392
0.162640738
0.0528181937
0.00519213021
0.0939278501
0.146417609
0.0476533849
0.0048686591
0.105928434
0.148229958
0.0426922709
0.0051835395
0.100060679
0.151942089
0.0546514235
0.00510957831
0.0572209318
0.154185908
0.160968209
0.0388066703
0.00524784942
0.104196022
0.153688517
0.0493995353
0.00513852165
0.0596088146
0.154240098
0.158006221
0.0265772379
0.00532307266
0.110169983
0.155201709
0.0448048854
0.00519540796
0.0618420829
0.151635109
0.15265997
0.0107083505
0.00543211118
0.111908739
0.153847468
0.0424332185
0.00526200825
0.0469551865
0.14508094
0.151931556
0.0353025524
0.00566504599
0.0609153919
0.127412189
0.161329808
0.161750856
0.0465203873
0.00511467253
0.107946546
0.154990186
0.0367062456
0.00525918436
0.11243484
0.154984305
0.0359686178
0.00528382928
0.112887645
0.154362935
0.0338735337
0.00533326393
0.113713494
0.153530928
0.0307458443
0.00541930864
0.113383094
0.149095141
0.0247379192
0.00539183885
0.0651684683
0.156652233
0.162616322
0.0318677796
0.00515995605
0.0604025027
0.158272018
0.164972007
0.0342271685
0.00533901538
0.108878673
0.145925113
0.0235308381
0.00540938231
0.0614568175
0.155847983
0.163338383
0.0341958812
0.00532311086
0.108431394
0.14466028
0.0268023814
0.00538977278
0.0569475751
0.152458306
0.161126409
0.0348006398
0.00513787926
0.0523682144
0.153102159
0.16328759
0.0374175596
0.00500579095
0.0544389085
0.156943904
0.168020911
0.0436783299
0.00503108311
0.104372308
0.150789287
0.0413791985
0.00514672702
0.0957293233
0.14592774
0.0748478034
0.00429662729
0.021429977
0.148664663
0.167489101
0.0551144582
0.00465684058
0.0399279807
0.145507253
0.162462558
0.0572452211
0.00469280359
0.0787493259
0.143461298
0.105857269
0.00307757306
0.00388942084
0.118557377
0.161913586
0.0761801777
0.0039604364
0.031976315
0.137570569
0.156933643
0.0678502449
0.00439670732
0.0754905346
0.140361125
0.0784512304
0.00389866772
0.0238716322
0.130476128
0.153942566
0.0765927442
0.00402506884
0.0363607428
0.138738821
0.162709506
0.0845928042
0.00356985872
0.0650129184
0.138157792
0.0895454879
0.00342297647
0.0284948793
0.13293351
0.159098332
0.0877742639
0.0034042501
0.0603013711
0.133609971
0.0913320014
0.00357331239
0.0172363299
0.12689378
0.155381561
0.0915904754
0.0037341603
0.0178403169
0.127771581
0.15759581
0.0929494454
0.00334937962
0.054113409
0.13364479
0.100534511
0.00365185815
0.00451858649
0.0974604017
0.148876595
0.140455687
0.0195848444
0.0047556613
0.0641417756
0.135307169
0.155968974
0.156953284
0.0614636204
0.00486496819
0.00565206212
0.0657010189
0.140601742
0.154021217
0.0759549596
0.0044251005
0.0246276135
0.136199881
0.158921805
0.0792644342
0.00388135415
0.0579163056
0.146461948
0.112710304
0.0035392524
0.0126736588
0.132929978
0.152143695
0.0699798788
0.00419950388
0.0602181643
0.145569187
0.108079302
0.0035637555
0.0331504701
0.145555304
0.138582858
0.00335503581
0.004512998
0.0998903246
0.156848661
0.102526707
0.00353977247
0.0559100448
0.140120167
0.103829854
0.00457276175
0.00387952493
0.127886452
0.164565872
0.0972374261
0.00383551631
0.0574750146
0.138165996
0.098993065
0.00484682652
0.00332571427
0.129042299
0.161814683
0.102671907
0.0045298661
0.00261408633
0.127238107
0.146403674
0.0779010744
0.00529469585
0.00414890019
0.113640781
0.15377508
0.164873593
0.1043324
0.0028061889
0.064575914
0.140305646
0.0998744111
0.00496766303
0.0031907207
0.129790048
0.161590118
0.0869205984
0.00388656687
0.0671953463
0.14490577
0.086217052
0.00397384165
0.0701088279
0.146908467
0.0857227674
0.00407269742
0.0689557309
0.139094625
0.0875281412
0.00495775787
0.0264674734
0.141469435
0.165875699
0.0879902421
0.0036122679
0.0728521194
0.145420862
0.0802681686
0.0041826983
0.0722804786
0.137124983
0.0805658311
0.0050371673
0.0336137056
0.14278443
0.162515664
0.0787306205
0.00396097016
0.0777711575
0.149537779
0.0818243769
0.00379812492
0.0769759131
0.138091179
0.0778449093
0.00513646359
0.0321389081
0.139835921
0.154450969
0.0778103045
0.00507155279
0.028169601
0.138546048
0.153784758
0.0751082311
0.0050903346
0.0309286719
0.139883843
0.154169969
0.0740578193
0.00509808952
0.0308575817
0.140271117
0.153872863
0.0722476271
0.00512797386
0.0303653717
0.140065087
0.153496378
0.0698511827
0.00513681639
0.0302886116
0.140458016
0.153426817
0.0672619458
0.00513193166
0.0313941304
)
;

boundaryField
{
    closed
    {
        type            calculated;
        value           nonuniform List<scalar> 0();
    }
    open
    {
        type            calculated;
        value           nonuniform List<scalar> 0();
    }
    sides
    {
        type            empty;
    }
    procBoundary1to0
    {
        type            processor;
        value           uniform 0;
    }
    procBoundary1to2
    {
        type            processor;
        value           uniform 0;
    }
}


// ************************************************************************* //
