/*--------------------------------*- C++ -*----------------------------------*\
| =========                 |                                                 |
| \\      /  F ield         | OpenFOAM: The Open Source CFD Toolbox           |
|  \\    /   O peration     | Version:  2306                                  |
|   \\  /    A nd           | Website:  www.openfoam.com                      |
|    \\/     M anipulation  |                                                 |
\*---------------------------------------------------------------------------*/
FoamFile
{
    version     2.0;
    format      ascii;
    arch        "LSB;label=32;scalar=64";
    class       volScalarField;
    location    "0.00182";
    object      prefDh_H2O;
}
// * * * * * * * * * * * * * * * * * * * * * * * * * * * * * * * * * * * * * //

dimensions      [1 1 -3 0 0 0 0];

internalField   nonuniform List<scalar> 
531
(
92.4223414
88.1460588
87.5818511
87.8078503
92.4164033
92.4042711
92.3819321
92.418579
87.9388862
87.6778108
87.6632964
87.6581051
92.4247246
92.4177782
87.6428343
87.7850576
92.4466405
92.319185
92.4740676
88.2576543
87.5121061
87.9859358
92.4718209
92.3038419
92.4460711
88.0410345
87.7175284
87.6818854
87.6696971
92.4122816
92.4231293
87.5202833
87.5701946
92.3848326
92.40998
92.3399873
92.3717837
87.994201
87.8537808
92.2680921
92.3461414
88.0154408
87.9023887
87.7736649
87.8476227
92.3476514
92.3020941
92.3488612
88.1560441
87.8305813
92.2487514
92.3060305
87.9822993
88.0798531
92.2721013
88.1585338
87.8918986
92.2819697
92.2207661
92.3068672
88.9946342
87.870376
87.8526071
87.8720012
92.3590399
92.2759915
92.365694
88.2238716
87.7987749
87.8956823
92.2580119
92.3629711
88.4795351
87.6949706
88.1203923
92.4359611
88.2336138
87.6088258
92.2662692
92.4393014
87.8985724
87.5050057
87.5581485
92.3992662
92.4257074
92.3024467
92.4090531
89.6718137
87.6437629
87.8859716
92.4140497
92.2674245
92.37934
88.2695404
87.8636145
87.9152124
92.2705865
92.352419
88.5316786
87.7388179
88.1155524
92.4390595
88.3925165
87.6647687
92.2704384
92.4168091
88.0459331
87.6251424
87.7641068
92.4609587
92.3650179
92.4198616
87.9341028
87.6895923
87.4731558
87.4833074
92.5331023
92.4662709
92.4905898
92.4325756
87.6652397
87.6790585
92.4780045
92.3734887
92.4654175
92.3253348
92.4303341
88.0830744
87.675802
87.6600937
92.4135586
92.4865502
87.9800422
87.2558853
87.5398188
92.5683217
92.4162518
92.5247804
87.8495556
87.5350108
92.426436
92.4460489
92.3734888
92.3975984
88.0450149
87.8216328
87.641937
87.682634
92.5283011
92.3988148
92.5662312
88.0043596
87.1438327
87.4630946
92.5846356
92.4578083
92.5131603
92.4092727
92.436519
87.9174739
87.7395622
87.5092868
87.5346914
92.5249651
92.4291951
92.5022173
92.3566839
92.4637368
88.1050856
87.7640511
87.6631208
87.6747228
92.4728365
92.4254162
92.3822718
92.3949712
88.0994239
87.8164678
87.7207216
87.7338349
92.4389615
92.3952714
92.3393414
92.3630588
88.2412219
87.9250067
87.8675263
87.8423836
92.4189967
92.3875715
87.8686907
87.7638082
92.3958678
92.4142403
87.9594262
87.7068452
92.3751794
92.4335937
87.9899514
87.4750385
87.6506552
92.501309
92.3693995
92.4313985
92.3097683
92.3549521
88.2246688
88.0327717
87.8799982
87.8888569
92.4367308
92.3761087
87.7991601
87.8466618
92.457951
92.3337481
92.4662601
88.1371061
87.631511
87.5192423
87.5078755
92.5369777
92.4912356
92.4625462
92.4801045
87.8599544
87.3125128
87.4346609
92.5246263
92.4428058
92.438329
92.3840792
87.9677882
87.9891141
92.3974225
88.1004839
87.7907684
92.4347161
92.3025424
92.4498633
88.3196209
87.7021391
87.6917291
87.6435316
92.4883931
92.4494716
92.4075428
92.424878
88.0893941
87.7914795
87.6171141
87.6588244
92.5478625
92.4399726
92.5296807
87.8860454
87.5499239
92.5414605
92.4520836
92.5492506
92.3940918
92.5288256
88.0633306
87.6105447
87.5460068
87.5547928
92.5492299
92.4884578
87.6712643
87.6561031
92.5281542
92.4642211
87.6120696
87.6629281
92.5349986
92.4302035
92.5175681
87.8665223
87.5734893
92.5173667
92.427468
92.5226532
92.3619049
92.4982146
88.1225523
87.6844575
87.6131475
87.6221736
92.5043216
92.4462533
87.7117155
87.7733512
92.4700172
92.3048038
92.4668029
89.2402122
87.6347817
87.8678218
87.3731497
87.3899607
92.5028164
92.486619
92.4171921
92.4407344
87.9738048
87.6067155
92.3384279
92.4410471
88.0911948
92.4506961
92.2875567
87.9545996
87.9052017
87.6328916
87.6539745
92.4433545
92.3599053
92.3955513
87.9944259
87.918423
92.3839473
88.0434686
87.7133517
92.4051605
92.2970092
92.4126795
88.2154107
87.7406447
92.2541742
92.3755754
88.1516506
87.7695655
87.7738958
92.3420576
92.3595935
88.106672
87.8162031
92.2674313
92.3706373
88.1566352
87.7553746
87.7724539
92.3775841
92.334082
87.9972627
87.872732
92.353182
92.3162075
87.8855047
87.9552398
92.3730628
92.2396735
92.3843599
88.5602646
87.7499894
87.8042445
92.3261306
92.3667114
88.0879345
87.6687376
87.6905756
92.3903846
92.3578734
87.9692739
87.8027665
92.3604926
92.3325921
87.9282049
87.9039366
92.3578922
92.3022704
87.9222463
88.0300848
92.3762058
88.9743878
87.6587865
92.2408408
92.4171727
88.1091297
87.5646725
87.7388325
92.4532415
92.3441182
92.3975897
88.0157417
87.9671877
92.3977662
92.2638216
92.4148258
88.3400475
87.7312661
87.7733785
92.3396273
92.3715543
88.1683355
87.7434943
87.7537516
92.3412936
92.3851955
88.1376223
87.6689521
87.6860536
92.3647937
92.4163116
88.0212688
87.469673
87.5463681
92.421049
92.3899095
92.3181038
92.3402178
88.2568418
87.9824332
92.233662
92.2646254
88.1996695
88.1497481
92.2103344
92.2295541
89.1913306
88.1608106
87.9979933
87.9951695
92.3012341
92.2773276
88.1277347
88.0303834
92.2506916
92.2957137
88.2757241
88.0337324
87.8493932
87.8612176
92.436271
92.3859569
87.734089
87.728972
92.5187788
92.4269644
92.5094727
92.420439
87.6167954
87.6608845
92.47222
87.9380252
87.6564763
92.453257
92.3091481
92.4672154
88.7211059
87.6049785
87.9317436
92.4473815
88.0455063
87.7809779
92.4248638
92.2884566
92.4541369
88.4560984
87.5568658
87.8560916
92.4677119
87.95421
87.6824527
92.4644084
92.324817
92.4643821
88.1942857
87.7109074
92.3475886
92.3703203
87.9007107
87.9601164
92.4279895
92.2491243
92.4272234
88.8815692
87.7948264
87.7484534
87.7361152
92.4738517
92.3826082
87.6733762
87.7264016
92.4774965
92.2915921
92.4583532
88.22976
87.7349175
92.2868484
92.3559674
88.1306695
87.9438095
92.2781193
92.3265589
88.264439
87.9966233
87.8496498
87.8518599
92.4154461
92.3360034
87.9426675
87.8770329
92.3894396
92.3177833
88.0163268
87.9512143
92.3524785
92.3000454
88.1274418
88.0372387
92.2938397
92.2961214
88.4029524
88.0662394
87.9127382
87.9151829
92.4008476
92.360892
88.0492856
87.829519
92.3458633
92.4121821
88.1601329
87.6507829
87.6610265
92.4794774
92.3752631
87.8288993
87.7936819
92.5395893
)
;

boundaryField
{
    closed
    {
        type            calculated;
        value           nonuniform List<scalar> 0();
    }
    open
    {
        type            calculated;
        value           nonuniform List<scalar> 0();
    }
    sides
    {
        type            empty;
    }
    procBoundary3to2
    {
        type            processor;
        value           uniform 92.31113;
    }
    procBoundary3to4
    {
        type            processor;
        value           uniform 92.3314216;
    }
}


// ************************************************************************* //
