/*--------------------------------*- C++ -*----------------------------------*\
| =========                 |                                                 |
| \\      /  F ield         | OpenFOAM: The Open Source CFD Toolbox           |
|  \\    /   O peration     | Version:  2306                                  |
|   \\  /    A nd           | Website:  www.openfoam.com                      |
|    \\/     M anipulation  |                                                 |
\*---------------------------------------------------------------------------*/
FoamFile
{
    version     2.0;
    format      ascii;
    arch        "LSB;label=32;scalar=64";
    class       volScalarField;
    location    "0.00182";
    object      T;
}
// * * * * * * * * * * * * * * * * * * * * * * * * * * * * * * * * * * * * * //

dimensions      [0 0 0 1 0 0 0];

internalField   nonuniform List<scalar> 
531
(
339.914489
327.313416
319.664767
322.840494
339.681839
339.678752
339.620283
339.675609
324.53846
320.87155
320.863486
320.639454
339.751612
339.537977
320.648868
322.380008
339.81757
339.523668
339.798961
328.79722
318.560409
325.280358
339.692065
339.702662
339.702899
326.048163
321.445672
321.324981
320.903948
340.04694
339.706
319.356283
319.724321
340.159376
339.853525
340.075647
339.902319
325.622615
323.504288
340.07544
339.767508
325.959352
324.065348
322.76254
323.417572
340.266479
339.782609
340.23943
327.667715
323.362463
340.099938
339.884095
325.613668
326.527684
340.413538
327.620759
324.416735
340.036926
340.137827
340.046653
329.103845
323.870659
323.857464
323.896551
340.268219
339.843893
340.222263
328.539923
322.924136
324.197767
340.063054
339.877051
329.140233
321.288958
327.379226
339.999022
328.83789
320.139147
340.050286
339.735802
324.329192
318.73626
319.678988
339.904988
339.821692
339.989946
339.786917
329.649938
320.702585
324.148942
339.985115
339.849017
339.992098
329.126402
323.636953
324.404979
339.959194
339.800433
329.208564
321.811312
327.262327
339.918119
329.235953
320.838944
340.004006
339.64216
326.218864
320.127151
322.341081
339.632553
339.647244
339.624966
324.499469
321.027861
318.266067
318.316201
339.719316
339.616483
339.679683
339.673658
320.921223
321.054072
339.840415
339.638016
339.764158
339.651435
339.680526
326.548063
320.790018
320.876119
339.562882
339.709504
325.082731
315.092717
319.191614
339.586089
339.647723
339.584822
323.467031
318.887683
339.796251
339.487615
339.699093
339.525343
325.984753
322.661466
320.523876
320.816284
339.693058
339.383955
339.636288
325.315498
313.379624
318.042343
339.421457
339.515817
339.418044
339.498746
339.412212
324.185409
321.53017
318.685635
318.846264
339.660239
339.479021
339.604066
339.549364
339.558939
326.798834
321.915071
320.881688
320.834552
339.803518
339.571839
339.737874
339.656032
326.785967
322.735006
321.72193
321.722201
339.891377
339.647565
339.806781
339.724718
328.679675
324.228051
323.658114
323.197722
339.836765
339.630199
323.748299
322.117939
339.844252
339.620277
324.974247
321.299465
339.806697
339.574192
325.34156
318.028678
320.764922
339.577612
339.659092
339.569125
339.607013
339.568556
328.333603
325.577882
323.692602
323.741092
339.723851
339.536159
322.72516
323.160177
339.822086
339.509945
339.733234
327.199416
320.16799
318.930076
318.562164
339.779705
339.549393
339.691023
339.609519
323.516178
315.844693
317.794127
339.536012
339.686581
339.552376
339.696826
324.932589
325.13587
339.92546
326.68916
322.57007
339.796178
339.614322
339.744034
329.607115
321.10079
321.277324
320.354403
339.782417
339.454838
339.638535
339.481902
326.482974
322.128624
320.058847
320.348117
339.597129
339.225951
339.526494
323.567817
318.933159
339.456572
339.267507
339.374635
339.291598
339.290858
325.972887
319.511769
318.933419
318.858561
339.389919
339.198723
320.64907
320.291286
339.442112
339.228619
319.946069
320.443701
339.62283
339.305252
339.5821
323.423296
319.343322
339.624079
339.377967
339.538
339.417567
339.446043
326.890179
320.674952
320.030239
319.942288
339.618291
339.368895
321.422067
322.068108
339.665289
339.470104
339.55689
329.611065
320.225901
323.580208
316.78087
317.095679
339.728303
339.65614
339.761785
339.714416
325.18856
319.948293
339.94989
339.624214
326.866108
339.717754
339.857493
324.79515
324.167692
320.514593
320.824506
339.941127
339.777433
339.935761
325.542874
324.3735
340.193463
326.129631
321.791122
340.079478
339.887769
340.041875
328.547423
321.95477
340.133693
339.787264
327.753204
322.264024
322.694077
339.895023
339.979218
327.082977
323.00601
340.144305
339.796072
327.848963
322.000581
322.751618
339.769546
340.066809
325.475868
323.915014
340.037463
339.917898
324.157408
324.952827
340.188702
339.872846
340.078188
329.249353
322.195683
323.056408
340.017286
339.945804
326.877993
320.942694
321.633178
339.815615
340.073085
325.101391
323.001518
339.980105
339.950858
324.633992
324.294901
340.050794
339.916932
324.591283
325.984665
340.115449
329.241096
320.972634
340.135435
339.796181
327.113619
319.434521
322.084794
339.827374
339.763163
339.813173
325.737486
324.937818
340.081222
339.68998
339.951779
329.467711
321.761237
322.553366
339.850236
339.904095
327.785696
321.955543
322.300983
339.884775
339.92843
327.393146
320.993123
321.400762
339.93269
339.951529
325.903183
318.333538
319.618978
339.974862
340.032534
339.971417
340.094227
329.097238
325.387851
340.273461
340.006385
328.468778
327.565515
340.389477
339.937104
329.179756
327.777964
325.690373
325.656447
340.211694
340.049257
327.429093
325.966438
340.218159
339.856433
329.322219
325.786186
323.473166
323.498258
339.872571
339.614846
321.817869
321.663152
339.846592
339.641362
339.688014
339.715859
320.250693
320.820823
340.005819
324.584886
320.729802
339.927723
339.613231
339.736218
329.421645
319.923016
324.63203
339.896912
326.170716
322.467711
340.092881
339.718736
339.88035
329.413937
319.332393
323.646702
339.90621
324.975872
321.162799
340.113307
339.732013
339.975848
328.133548
321.47457
340.033172
339.694772
324.251512
324.847577
340.095767
339.739176
339.894075
329.335594
322.633069
322.170104
321.936996
340.043985
339.807546
321.239815
321.873618
340.129408
339.891958
340.014302
328.764248
321.865567
340.225004
339.829199
327.486174
324.654771
340.229086
339.796329
329.221178
325.345026
323.57638
323.558186
340.034858
339.920416
324.804161
323.94408
340.047016
339.942049
325.807428
324.915171
340.088865
339.905198
327.322936
325.975151
340.137469
339.805919
329.277879
326.249629
324.388127
324.305323
340.02528
339.746558
326.261638
323.005305
340.058531
339.616575
327.788535
320.345837
321.118507
339.538367
339.90934
322.970884
322.785907
339.789764
)
;

boundaryField
{
    closed
    {
        type            fixedValue;
        value           nonuniform List<scalar> 0();
    }
    open
    {
        type            zeroGradient;
    }
    sides
    {
        type            empty;
    }
    procBoundary3to2
    {
        type            processor;
        value           uniform 339.618886;
    }
    procBoundary3to4
    {
        type            processor;
        value           uniform 339.801762;
    }
}


// ************************************************************************* //
