/*--------------------------------*- C++ -*----------------------------------*\
| =========                 |                                                 |
| \\      /  F ield         | OpenFOAM: The Open Source CFD Toolbox           |
|  \\    /   O peration     | Version:  2306                                  |
|   \\  /    A nd           | Website:  www.openfoam.com                      |
|    \\/     M anipulation  |                                                 |
\*---------------------------------------------------------------------------*/
FoamFile
{
    version     2.0;
    format      ascii;
    arch        "LSB;label=32;scalar=64";
    class       volScalarField;
    location    "2e-05";
    object      PV;
}
// * * * * * * * * * * * * * * * * * * * * * * * * * * * * * * * * * * * * * //

dimensions      [0 0 0 0 0 0 0];

internalField   nonuniform List<scalar> 
531
(
-0.00717193524
-0.00717193516
-0.00717193516
-0.00717193517
-0.00717193518
-0.00717193519
-0.0071719352
-0.00717193521
-0.00717193522
-0.00717193523
-0.00717193523
-0.00717193524
-0.00717193525
-0.00717193526
-0.00717193526
-0.00717193527
-0.00717193528
-0.00717193528
-0.00717193529
-0.0071719353
-0.00717193531
-0.00717193531
-0.00717193532
-0.00717193532
-0.00717193533
-0.00717193534
-0.00717193534
-0.00717193535
-0.00717193536
-0.00717193537
-0.00717193537
-0.00717193538
-0.00717193539
-0.0071719354
-0.00717193541
-0.00717193541
-0.00717193542
-0.00717193543
-0.00717193544
-0.00717193545
-0.00717193546
-0.00717193547
-0.00717193548
-0.00717193549
-0.00717193551
-0.00717193551
-0.00717193553
-0.00717193554
-0.00717193555
-0.00717193556
-0.00717193557
-0.00717193559
-0.0071719356
-0.00717193561
-0.00717193562
-0.00717193563
-0.00717193565
-0.00717193566
-0.00717193567
-0.00717193568
-0.00717193569
-0.00717193571
-0.00717193571
-0.00717193573
-0.00717193573
-0.00717193575
-0.00717193576
-0.00717193576
-0.00717193577
-0.00717193578
-0.00717193579
-0.0071719358
-0.0071719358
-0.00717193581
-0.00717193582
-0.00717193582
-0.00717193583
-0.00717193583
-0.00717193584
-0.00717193584
-0.00717193585
-0.00717193585
-0.00717193585
-0.00717193585
-0.00717193586
-0.00717193586
-0.00717193586
-0.00717193586
-0.00717193586
-0.00717193586
-0.00717193586
-0.00717193586
-0.00717193586
-0.00717193585
-0.00717193585
-0.00717193585
-0.00717193585
-0.00717193585
-0.00717193584
-0.00717193584
-0.00717193584
-0.00717193584
-0.00717193584
-0.00717193583
-0.00717193583
-0.00717193583
-0.00717193583
-0.00717193582
-0.00717193582
-0.00717193582
-0.00717193582
-0.00717193582
-0.00717193582
-0.00717193582
-0.00717193582
-0.00717193582
-0.00717193582
-0.00717193582
-0.00717193582
-0.00717193582
-0.00717193582
-0.00717193582
-0.00717193582
-0.00717193582
-0.00717193583
-0.00717193583
-0.00717193583
-0.00717193583
-0.00717193584
-0.00717193584
-0.00717193585
-0.00717193585
-0.00717193585
-0.00717193586
-0.00717193586
-0.00717193587
-0.00717193587
-0.00717193587
-0.00717193588
-0.00717193588
-0.00717193589
-0.00717193589
-0.0071719359
-0.0071719359
-0.00717193591
-0.00717193592
-0.00717193592
-0.00717193593
-0.00717193593
-0.00717193594
-0.00717193595
-0.00717193595
-0.00717193596
-0.00717193597
-0.00717193598
-0.00717193598
-0.00717193599
-0.007171936
-0.00717193601
-0.00717193602
-0.00717193603
-0.00717193604
-0.00717193605
-0.00717193607
-0.00717193608
-0.00717193609
-0.00717193611
-0.00717193613
-0.00717193614
-0.00717193616
-0.00717193618
-0.0071719362
-0.00717193622
-0.00717193624
-0.00717193626
-0.00717193628
-0.0071719363
-0.00717193632
-0.00717193634
-0.00717193636
-0.00717193638
-0.00717193641
-0.00717193643
-0.00717193645
-0.00717193647
-0.00717193649
-0.00717193651
-0.00717193653
-0.00717193655
-0.00717193657
-0.00717193658
-0.0071719366
-0.00717193662
-0.00717193663
-0.00717193665
-0.00717193666
-0.00717193667
-0.00717193669
-0.0071719367
-0.00717193671
-0.00717193672
-0.00717193673
-0.00717193673
-0.00717193675
-0.00717193675
-0.00717193676
-0.00717193677
-0.00717193677
-0.00717193678
-0.00717193679
-0.00717193679
-0.0071719368
-0.0071719368
-0.00717193681
-0.00717193681
-0.00717193682
-0.00717193682
-0.00717193683
-0.00717193684
-0.00717193684
-0.00717193685
-0.00717193685
-0.00717193686
-0.00717193687
-0.00717193687
-0.00717193689
-0.00717193689
-0.0071719369
-0.00717193691
-0.00717193692
-0.00717193693
-0.00717193694
-0.00717193695
-0.00717193697
-0.00717193698
-0.00717193699
-0.007171937
-0.00717193702
-0.00717193703
-0.00717193704
-0.00717193706
-0.00717193707
-0.00717193708
-0.00717193709
-0.00717193711
-0.00717193712
-0.00717193713
-0.00717193714
-0.00717193715
-0.00717193716
-0.00717193717
-0.00717193717
-0.00717193719
-0.00717193719
-0.0071719372
-0.0071719372
-0.0071719372
-0.00717193721
-0.00717193721
-0.00717193722
-0.00717193721
-0.00717193722
-0.00717193722
-0.00717193722
-0.00717193722
-0.00717193722
-0.00717193722
-0.00717193722
-0.00717193722
-0.00717193722
-0.00717193722
-0.00717193722
-0.00717193722
-0.00717193722
-0.00717193723
-0.00717193723
-0.00717193724
-0.00717193723
-0.00717193725
-0.00717193725
-0.00717193725
-0.00717193726
-0.00717193727
-0.00717193727
-0.00717193728
-0.00717193729
-0.0071719373
-0.00717193731
-0.00717193732
-0.00717193733
-0.00717193734
-0.00717193735
-0.00717193736
-0.00717193737
-0.00717193738
-0.00717193739
-0.0071719374
-0.00717193742
-0.00717193743
-0.00717193744
-0.00717193745
-0.00717193747
-0.00717193748
-0.00717193749
-0.00717193751
-0.00717193752
-0.00717193754
-0.00717193755
-0.00717193757
-0.00717193758
-0.0071719376
-0.00717193762
-0.00717193763
-0.00717193765
-0.00717193767
-0.00717193769
-0.0071719377
-0.00717193772
-0.00717193774
-0.00717193776
-0.00717193777
-0.00717193779
-0.00717193781
-0.00717193783
-0.00717193784
-0.00717193787
-0.00717193788
-0.0071719379
-0.00717193791
-0.00717193794
-0.00717193795
-0.00717193797
-0.00717193798
-0.007171938
-0.00717193802
-0.00717193803
-0.00717193804
-0.00717193806
-0.00717193807
-0.00717193808
-0.00717193809
-0.00717193811
-0.00717193812
-0.00717193813
-0.00717193814
-0.00717193815
-0.00717193816
-0.00717193817
-0.00717193818
-0.00717193819
-0.0071719382
-0.00717193821
-0.00717193822
-0.00717193822
-0.00717193823
-0.00717193823
-0.00717193824
-0.00717193824
-0.00717193824
-0.00717193824
-0.00717193824
-0.00717193824
-0.00717193823
-0.00717193823
-0.00717193821
-0.0071719382
-0.00717193819
-0.00717193817
-0.00717193816
-0.00717193814
-0.00717193812
-0.0071719381
-0.00717193808
-0.00717193806
-0.00717193804
-0.00717193801
-0.00717193799
-0.00717193797
-0.00717193795
-0.00717193793
-0.00717193792
-0.00717193791
-0.00717193789
-0.00717193789
-0.00717193789
-0.00717193789
-0.0071719379
-0.00717193791
-0.00717193792
-0.00717193794
-0.00717193796
-0.00717193799
-0.00717193801
-0.00717193804
-0.00717193807
-0.00717193811
-0.00717193814
-0.00717193817
-0.0071719382
-0.00717193823
-0.00717193827
-0.00717193829
-0.00717193833
-0.00717193835
-0.00717193838
-0.0071719384
-0.00717193842
-0.00717193843
-0.00717193841
-0.00717193834
-0.00717193813
-0.00717193758
-0.00717193627
-0.00717193322
-0.00717192636
-0.00717191119
-0.00717187873
-0.00717181043
-0.00717167189
-0.00717139555
-0.00717086673
-0.00716987216
-0.00716808704
-0.00716494144
-0.00715967856
-0.00715104794
-0.00713766028
-0.00711736776
-0.0070882615
-0.00704772785
-0.00699377882
-0.00692498562
-0.00683824112
-0.00673842332
-0.0066088914
-0.00649399286
-0.00637232793
-0.00625460154
-0.00611323897
-0.00598384401
-0.00577723063
-0.0055087298
-0.00540473738
-0.00532827537
-0.00517713206
-0.00505689278
-0.00489143365
-0.00476722405
-0.00460410195
-0.00444670078
-0.00434030391
-0.00414525369
-0.00403919841
-0.00391363842
-0.00381360033
-0.00367764644
-0.00344051414
-0.00330800088
-0.00317661454
-0.00297718848
-0.00286380602
-0.00273767233
-0.00253505314
-0.00242244622
-0.00229290931
-0.00218420349
-0.00201930874
-0.00185326165
-0.00172634857
-0.00154776267
-0.00139702046
-0.00120905071
-0.00105052377
-0.00087281836
-0.00070025669
-0.000525981027
-0.00037598032
-0.000199754619
-4.94826396e-05
0.00012797822
0.000285058608
0.000475255817
0.000639087797
0.000806984191
0.000976647457
0.00115672072
0.00133102924
0.00151113461
0.00166780018
0.00186404676
0.00202650658
0.00221582343
0.00238757029
0.00257481589
0.002751757
0.0029378648
0.00311665262
0.00330114724
0.00347939066
0.0036601024
0.00383499978
0.00400746157
0.00417497766
0.0043371065
0.00449678842
0.00464828826
0.00479895162
0.00493854447
0.00507919218
0.00520672036
0.00533657788
0.00545022269
0.0055661061
0.00566465197
0.00576687955
0.00585029019
0.0059412796
0.00600962735
0.00608308198
0.00614255606
0.00620350603
0.00625683332
0.00630413617
0.00635092748
0.00639290541
0.00643180814
0.00646821904
0.00650116035
0.00653288084
0.00656123797
0.00658936967
)
;

boundaryField
{
    closed
    {
        type            zeroGradient;
    }
    open
    {
        type            zeroGradient;
    }
    sides
    {
        type            empty;
    }
    procBoundary4to3
    {
        type            processor;
        value           uniform -0.00717193523;
    }
    procBoundary4to5
    {
        type            processor;
        value           uniform 0.00661418341;
    }
}


// ************************************************************************* //
