/*--------------------------------*- C++ -*----------------------------------*\
| =========                 |                                                 |
| \\      /  F ield         | OpenFOAM: The Open Source CFD Toolbox           |
|  \\    /   O peration     | Version:  2306                                  |
|   \\  /    A nd           | Website:  www.openfoam.com                      |
|    \\/     M anipulation  |                                                 |
\*---------------------------------------------------------------------------*/
FoamFile
{
    version     2.0;
    format      ascii;
    arch        "LSB;label=32;scalar=64";
    class       volScalarField;
    location    "0.0003";
    object      rho;
}
// * * * * * * * * * * * * * * * * * * * * * * * * * * * * * * * * * * * * * //

dimensions      [1 -3 0 0 0 0 0];

internalField   nonuniform List<scalar> 
531
(
0.950260665
0.958670479
0.940603912
0.907949679
0.909784494
0.959689596
0.95264591
0.906601899
0.908434483
0.945790008
0.948193924
0.936842719
0.926496587
0.936521784
0.942776173
0.942847897
0.93827894
0.934214061
0.936275881
0.942278447
0.942886976
0.938003417
0.930019383
0.939249817
0.943247482
0.942029104
0.924528917
0.930575263
0.943254565
0.943219972
0.927691046
0.921163122
0.942585049
0.942910951
0.941231834
0.925523125
0.928793693
0.942826791
0.943206357
0.942196248
0.924514029
0.925087495
0.943211288
0.946533258
0.938659493
0.908676565
0.934262108
0.952445205
0.94316449
0.909399617
0.910081551
0.943265898
0.949070594
0.934111479
0.914730395
0.939175018
0.942655778
0.943404281
0.929537452
0.923878998
0.941195428
0.943305002
0.943181454
0.928780566
0.920693909
0.942111181
0.944814831
0.942738501
0.914304526
0.919498819
0.943030972
0.944203608
0.934750838
0.918921338
0.940391052
0.942861171
0.94170832
0.926130086
0.934891187
0.943107222
0.943222796
0.922495166
0.926833003
0.9429458
0.947549416
0.923786182
0.908006692
0.942930451
0.9578274
0.942980603
0.90770046
0.908259379
0.959920281
0.957192316
0.911372788
0.908997269
0.942671651
0.958680043
0.942482412
0.90754162
0.908596523
0.955384792
0.954989314
0.91557643
0.90955797
0.943100072
0.947628938
0.938048334
0.924072777
0.938121876
0.94330519
0.942007837
0.935818272
0.937528135
0.941035757
0.940373624
0.93942217
0.940920941
0.940675916
0.93702856
0.937379738
0.941939678
0.942051963
0.937521933
0.935942184
0.940778982
0.942144299
0.939385951
0.936027915
0.939399417
0.94244072
0.941124695
0.933585381
0.93499767
0.943005382
0.943118009
0.935032815
0.922399512
0.940165474
0.948022384
0.943146613
0.90693326
0.908349837
0.946887915
0.956082252
0.935934001
0.908136655
0.935431215
0.958348343
0.944032948
0.906429469
0.907598851
0.953688971
0.956592347
0.927282571
0.908361022
0.941662149
0.955378533
0.941865765
0.909884332
0.92670494
0.945694391
0.942969636
0.924334614
0.924400166
0.94285383
0.942769774
0.937169867
0.92529717
0.937983086
0.942938588
0.942954319
0.926050583
0.924617318
0.942629348
0.944749507
0.93998196
0.910358284
0.930695784
0.952283476
0.945836214
0.908373411
0.907705478
0.942479631
0.956648057
0.934120765
0.908131194
0.938893431
0.957641572
0.942836459
0.907010637
0.909682776
0.948781578
0.946718214
0.924778791
0.924316019
0.942658875
0.942755423
0.93804105
0.938010129
0.939794463
0.938100189
0.9381494
0.942466128
0.942327657
0.930720888
0.930850263
0.943034795
0.943183369
0.934167442
0.925038277
0.94102229
0.943040268
0.9413961
0.926173747
0.93017101
0.942884147
0.94299421
0.940088331
0.921905966
0.930412622
0.943070247
0.946054816
0.936816563
0.90706885
0.935401539
0.95737218
0.944138502
0.90590816
0.906571206
0.946615293
0.958305848
0.93868093
0.907718412
0.928575972
0.958791032
0.947114347
0.906105333
0.907082934
0.951795786
0.956876097
0.926510068
0.90806366
0.941988243
0.955606289
0.939252973
0.909296581
0.935229784
0.952887426
0.942660627
0.909988442
0.922217617
0.948998255
0.945463775
0.914772675
0.912122945
0.942456219
0.950866281
0.932689741
0.909337865
0.940177548
0.954298374
0.94212893
0.907551215
0.915756341
0.954207321
0.951451037
0.910385926
0.907258371
0.942271045
0.955142311
0.936372944
0.907945282
0.937430364
0.945709783
0.941778077
0.927388187
0.934290399
0.942352262
0.941034507
0.935224113
0.9388432
0.941855483
0.938243803
0.932142961
0.939571065
0.942776317
0.941148552
0.924215652
0.929606359
0.942662062
0.942611133
0.939756683
0.919989116
0.929575985
0.942523185
0.945866755
0.940911745
0.906301626
0.921013655
0.952414527
0.951803604
0.918680478
0.906567848
0.941701764
0.95846477
0.942805312
0.906382485
0.905392205
0.952895711
0.956662151
0.923807043
0.906738021
0.941778573
0.947669309
0.941107859
0.926728907
0.931336107
0.941938603
0.941766985
0.940464688
0.94019626
0.933082361
0.932856376
0.942392233
0.942731664
0.935381342
0.917871951
0.939823179
0.942296444
0.941015769
0.923965045
0.934365455
0.94280228
0.941988522
0.934995585
0.936386705
0.94056953
0.939908499
0.939139217
0.940816548
0.939682062
0.934523321
0.937296672
0.942683733
0.942480339
0.930699451
0.929472213
0.942068744
0.942996934
0.939600228
0.92544185
0.934950327
0.943050367
0.943059511
0.929839602
0.926314951
0.942323637
0.942777744
0.938126505
0.922623694
0.938202464
0.944886469
0.942758467
0.911305891
0.921233302
0.945958102
0.949739522
0.926156545
0.907440464
0.941428109
0.957034164
0.94328491
0.906663503
0.906163874
0.944778611
0.957663963
0.938976743
0.907934781
0.932527525
0.957153694
0.949026669
0.907148158
0.906840526
0.943379571
0.95781298
0.938183291
0.908253528
0.936712377
0.955296994
0.943548114
0.910506689
0.922088932
0.946447076
0.943175709
0.924389214
0.923180533
0.943618094
0.943576208
0.9334433
0.93116358
0.943153393
0.943499948
0.934636867
0.933392108
0.943402856
0.943637407
0.932790601
0.930648224
0.943634043
0.943848898
0.933987205
0.924411847
0.942779998
0.94342158
0.939238205
0.920902894
0.939341307
0.943550285
0.942595502
0.925873681
0.935489818
0.943953876
0.943361251
0.930146435
0.934809416
0.943966349
0.943768186
0.927590728
0.929362392
0.943909158
0.943354121
0.923960955
0.916263034
0.944056803
0.954125592
0.938435454
0.908326478
0.937543605
0.959008873
0.944663008
0.907402887
0.906858533
0.950859491
0.959577994
0.932323856
0.908685468
0.94053873
0.959851211
0.945072385
0.906791013
0.907170848
0.945374702
0.959712026
0.941394966
0.908579681
0.927562077
0.958200384
0.951606869
0.908714897
0.908245636
0.943833315
0.956700465
0.940236791
0.910144717
0.935645382
0.948418437
0.944314283
0.924955342
0.927937765
0.944205461
0.944346259
0.931282227
0.930819551
0.944159751
0.944331679
0.934052518
0.930173834
0.943677825
0.944440072
0.937686292
0.931234691
0.941846602
0.943822877
0.940777988
0.93962783
0.941145349
0.938853882
0.938036994
0.944214357
0.943979965
0.926993427
0.913555504
0.944512404
0.956370738
0.938824527
0.909171591
0.937547165
0.960654829
0.94422941
0.909339475
0.918648192
0.960343356
0.943951029
0.909869258
0.934585801
0.961664396
0.944806453
0.908973048
0.909820194
0.963377782
0.953826908
0.907506935
0.909654063
0.949582246
0.959525277
0.942846914
0.908921375
0.910229676
0.960456449
0.960546689
0.942493598
0.908677754
0.910269794
0.961150835
0.950057886
0.908632848
0.910745986
0.96313807
0.951518536
0.908598106
)
;

boundaryField
{
    closed
    {
        type            calculated;
        value           nonuniform List<scalar> 0();
    }
    open
    {
        type            calculated;
        value           nonuniform List<scalar> 0();
    }
    sides
    {
        type            empty;
    }
    procBoundary1to0
    {
        type            processor;
        value           uniform 0.909082879;
    }
    procBoundary1to2
    {
        type            processor;
        value           uniform 0.911269907;
    }
}


// ************************************************************************* //
