/*--------------------------------*- C++ -*----------------------------------*\
| =========                 |                                                 |
| \\      /  F ield         | OpenFOAM: The Open Source CFD Toolbox           |
|  \\    /   O peration     | Version:  2306                                  |
|   \\  /    A nd           | Website:  www.openfoam.com                      |
|    \\/     M anipulation  |                                                 |
\*---------------------------------------------------------------------------*/
FoamFile
{
    version     2.0;
    format      ascii;
    arch        "LSB;label=32;scalar=64";
    class       volScalarField;
    location    "0.00042";
    object      prefDh_H2O;
}
// * * * * * * * * * * * * * * * * * * * * * * * * * * * * * * * * * * * * * //

dimensions      [1 1 -3 0 0 0 0];

internalField   nonuniform List<scalar> 
530
(
-202.259827
-202.197147
-197.276111
-197.967823
-202.429054
-202.46706
-198.589564
-198.28472
-202.456503
-202.734107
-199.463118
-198.895151
-202.714853
-202.985399
-200.07018
-199.146121
-203.070721
-203.2305
-200.791426
-199.127573
-203.0099
-203.47224
-201.850469
-199.345267
-202.445326
-203.751378
-203.284318
-200.068035
-201.763966
-204.067098
-204.255171
-200.910104
-202.040599
-204.427151
-204.508477
-201.461885
-202.623615
-204.807457
-204.845158
-202.017324
-203.197668
-205.1712
-205.199236
-202.547182
-203.661339
-205.516095
-205.54607
-203.073932
-204.044892
-205.81693
-205.874235
-203.446834
-204.419667
-206.096455
-206.173768
-203.748344
-204.665965
-206.376984
-206.443401
-204.100329
-204.874179
-206.627905
-206.702961
-204.458014
-205.107815
-206.890956
-206.963678
-204.888124
-205.371341
-207.161401
-207.215157
-205.367353
-205.594218
-207.426829
-207.447601
-205.721204
-205.813837
-207.664988
-207.676317
-206.053175
-206.037974
-207.906076
-207.888358
-206.491172
-206.203851
-207.780996
-208.093855
-207.389241
-206.448009
-207.037574
-208.292133
-208.383407
-206.715631
-206.998552
-208.466933
-208.498124
-206.944187
-207.04155
-208.626332
-208.63878
-207.082215
-207.144053
-208.763353
-208.774332
-207.196713
-207.261099
-208.89445
-208.907958
-207.338556
-207.41444
-209.021359
-209.033668
-207.484451
-207.617917
-209.139771
-209.16324
-207.705658
-207.875052
-209.242831
-209.291225
-207.89437
-208.261643
-209.33761
-209.374513
-208.090827
-209.04681
-209.424936
-208.934143
-208.285535
-209.529319
-209.506566
-208.793453
-208.460837
-209.5814
-209.578222
-208.767348
-208.611174
-209.634167
-209.642193
-208.802613
-208.741643
-209.68663
-209.699751
-208.871698
-208.861833
-209.734621
-209.749068
-208.954884
-208.972123
-209.778077
-209.792148
-209.038899
-209.06624
-209.817348
-209.830217
-209.131674
-209.151136
-209.853545
-209.863856
-209.242353
-209.226914
-209.887534
-209.89263
-209.380751
-209.292262
-209.92122
-209.917081
-209.523528
-209.350424
-209.85688
-209.938338
-209.899016
-209.408177
-209.667017
-209.957211
-209.972129
-209.459986
-209.598224
-209.97372
-209.983209
-209.509763
-209.602568
-209.988181
-209.994964
-209.559756
-209.62308
-210.000914
-210.005858
-209.609344
-209.650965
-210.012042
-210.015548
-209.656197
-209.683169
-210.02167
-210.024074
-209.698867
-209.715756
-210.029912
-210.031537
-209.738183
-209.748264
-210.036936
-210.037906
-209.771995
-209.779631
-210.042935
-210.04345
-209.80465
-209.807957
-210.048105
-210.048129
-209.835616
-209.832759
-210.052528
-210.052074
-209.864555
-209.8559
-210.056347
-210.055408
-209.890776
-209.877334
-210.059562
-210.05826
-209.914472
-209.897589
-210.062283
-210.060711
-209.935614
-209.916367
-210.064538
-210.062787
-209.953813
-209.933573
-210.066373
-210.064546
-209.969317
-209.949435
-210.067846
-210.066042
-209.982435
-209.964107
-210.069024
-210.067315
-209.993791
-209.977619
-210.069986
-210.068396
-210.003958
-209.989835
-210.070787
-210.069297
-210.013542
-210.000485
-210.071498
-210.070034
-210.023314
-210.009496
-210.072234
-210.070633
-210.035518
-210.017166
-210.073444
-210.071147
-210.053112
-210.024251
-210.055877
-210.071626
-210.073597
-210.030928
-210.04574
-210.07202
-210.073004
-210.036674
-210.049454
-210.072299
-210.074024
-210.041337
-210.065797
-210.072491
-210.059489
-210.045547
-210.073633
-210.072679
-210.054372
-210.050118
-210.073362
-210.072882
-210.052838
-210.054527
-210.073133
-210.073025
-210.051761
-210.059856
-210.073028
-210.073178
-210.051693
-210.062963
-210.072959
-210.07329
-210.053247
-210.064958
-210.073005
-210.073356
-210.055306
-210.0662
-210.07308
-210.073399
-210.057262
-210.067026
-210.073154
-210.07343
-210.059032
-210.067669
-210.073223
-210.073456
-210.060696
-210.068283
-210.07329
-210.073485
-210.062334
-210.068906
-210.073357
-210.073517
-210.063988
-210.069533
-210.073425
-210.073553
-210.065626
-210.070189
-210.073492
-210.073591
-210.067175
-210.070854
-210.073555
-210.07363
-210.068624
-210.071489
-210.073614
-210.073669
-210.069995
-210.072077
-210.07367
-210.073707
-210.071287
-210.072656
-210.073721
-210.073745
-210.072446
-210.073254
-210.073762
-210.073775
-210.073391
-210.073801
-210.073781
-210.073763
-210.073769
-210.073746
-210.07374
-210.073729
-210.073723
-210.073713
-210.073708
-210.0737
-210.073696
-210.073689
-210.073685
-210.07368
-210.073677
-210.073672
-210.073669
-210.073666
-210.073663
-210.07366
-210.073658
-210.073655
-210.073654
-210.073652
-210.07365
-210.073648
-210.073647
-210.073645
-210.073644
-210.073643
-210.073642
-210.073641
-210.07364
-210.07364
-210.073639
-210.073638
-210.073638
-210.073637
-210.073637
-210.073636
-210.073636
-210.073635
-210.073635
-210.073635
-210.073634
-210.073634
-210.073634
-210.073634
-210.073633
-210.073633
-210.073633
-210.073633
-210.073633
-210.073633
-210.073633
-210.073632
-210.073632
-210.073632
-210.073632
-210.073632
-210.073632
-210.073632
-210.073632
-210.073632
-210.073632
-210.073632
-210.073632
-210.073632
-210.073632
-210.073632
-210.073632
-210.073632
-210.073632
-210.073632
-210.073632
-210.073632
-210.073632
-210.073632
-210.073632
-210.073632
-210.073632
-210.073632
-210.073632
-210.073632
-210.073632
-210.073632
-210.073632
-210.073632
-210.073632
-210.073632
-210.073632
-210.073632
-210.073632
-210.073632
-210.073632
-210.073632
-210.073632
-210.073632
-210.073632
-210.073632
-210.073632
-210.073632
-210.073632
-210.073632
-210.073632
-210.073632
-210.073632
-210.073632
-210.073632
-210.073632
-210.073632
-210.073632
-210.073632
-210.073632
-210.073632
-210.073632
-210.073632
-210.073632
-210.073632
-210.073632
-210.073632
-210.073632
-210.073632
-210.073632
-210.073632
-210.073632
-210.073632
-210.073632
-210.073632
-210.073632
-210.073632
-210.073632
-210.073632
-210.073632
-210.073632
-210.073632
-210.073632
-210.073632
-210.073632
-210.073632
-210.073632
-210.073632
-210.073632
-210.073632
-210.073632
-210.073632
-210.073632
-210.073632
-210.073632
-210.073632
-210.073632
-210.073632
-210.073632
-210.073632
-210.073632
-210.073632
-210.073632
-210.073632
-210.073632
-210.073632
-210.073632
-210.073632
-210.073632
-210.073632
-210.073632
-210.073632
-210.073632
-210.073632
-210.073632
-210.073632
-210.073632
-210.073632
-210.073632
-210.073632
-210.073632
-210.073632
)
;

boundaryField
{
    closed
    {
        type            calculated;
        value           nonuniform List<scalar> 0();
    }
    open
    {
        type            calculated;
        value           uniform -210.073632;
    }
    sides
    {
        type            empty;
    }
    procBoundary5to4
    {
        type            processor;
        value           uniform -197.789916;
    }
}


// ************************************************************************* //
