/*--------------------------------*- C++ -*----------------------------------*\
| =========                 |                                                 |
| \\      /  F ield         | OpenFOAM: The Open Source CFD Toolbox           |
|  \\    /   O peration     | Version:  2306                                  |
|   \\  /    A nd           | Website:  www.openfoam.com                      |
|    \\/     M anipulation  |                                                 |
\*---------------------------------------------------------------------------*/
FoamFile
{
    version     2.0;
    format      ascii;
    arch        "LSB;label=32;scalar=64";
    class       volScalarField;
    location    "0.00042";
    object      rho;
}
// * * * * * * * * * * * * * * * * * * * * * * * * * * * * * * * * * * * * * //

dimensions      [1 -3 0 0 0 0 0];

internalField   nonuniform List<scalar> 
530
(
0.22676769
0.226977419
0.22712846
0.226967482
0.225865047
0.2260809
0.226348835
0.226277818
0.225182287
0.225186568
0.225538952
0.225481823
0.224394451
0.224358345
0.224704314
0.224721578
0.223520461
0.223576967
0.223793752
0.22383346
0.222765004
0.222832972
0.222746983
0.222871446
0.222127911
0.221959388
0.221457389
0.22187814
0.22147518
0.220945682
0.220315192
0.22078861
0.220495384
0.219768014
0.219495446
0.219665185
0.219380115
0.218492363
0.218367046
0.218428259
0.218173835
0.217257908
0.217164072
0.217189133
0.216957655
0.216066802
0.215963938
0.215990115
0.215772751
0.215014161
0.214813123
0.214908697
0.214629261
0.214035109
0.213758179
0.213864892
0.213595713
0.213032809
0.212781688
0.212808442
0.212557579
0.212096592
0.211808304
0.211752113
0.211505941
0.211092743
0.210810317
0.210717666
0.210462192
0.210037486
0.209824886
0.209694231
0.209468359
0.208964858
0.208876707
0.2087078
0.208503578
0.207968906
0.207916957
0.207762329
0.20756842
0.206941682
0.207009625
0.206819047
0.206662154
0.205987362
0.206122326
0.205720885
0.20578265
0.205500004
0.205254196
0.204852514
0.204978951
0.204794855
0.204491346
0.204350217
0.204226231
0.204088881
0.203785559
0.203726545
0.203538843
0.203403265
0.203163801
0.203110171
0.202894331
0.202763104
0.202554406
0.202486203
0.202281586
0.202154473
0.201948219
0.201880287
0.201692293
0.201563839
0.201356681
0.201230474
0.201113496
0.200988742
0.200808191
0.200550193
0.200580032
0.200401782
0.200287612
0.19978254
0.200093909
0.199703721
0.19980963
0.1995495
0.199645123
0.199255644
0.199365279
0.199239805
0.199238952
0.19896538
0.198975019
0.198924439
0.198873716
0.19867104
0.198623049
0.198614916
0.198543057
0.198376372
0.19830168
0.198321525
0.198241934
0.198102051
0.198020045
0.198049512
0.197970295
0.197850163
0.197769933
0.197802161
0.197726736
0.197619804
0.197545852
0.197574509
0.197508593
0.197405276
0.19734477
0.197360679
0.197313383
0.197200521
0.197166733
0.197154428
0.197139522
0.196992349
0.197009836
0.196967931
0.196989587
0.196786266
0.196881345
0.196718531
0.19686522
0.196754303
0.196768188
0.196684051
0.196755355
0.196690693
0.196668462
0.196614879
0.196659934
0.19661317
0.196582285
0.196544264
0.196577002
0.196542446
0.196507721
0.196480183
0.196504881
0.196479624
0.196443444
0.196424094
0.196442918
0.19642442
0.196388705
0.196375711
0.196390624
0.196377213
0.196343004
0.196334643
0.196346977
0.196337451
0.196305657
0.196301363
0.196312213
0.196304942
0.196275854
0.196274591
0.196284207
0.196279828
0.196252695
0.196254616
0.196262593
0.196261721
0.196235807
0.196240836
0.196246984
0.196249409
0.196224399
0.196232598
0.196237119
0.196242359
0.1962184
0.196229087
0.196232369
0.196239816
0.196217072
0.196229681
0.196232201
0.196241329
0.196220054
0.196234019
0.196236237
0.196246417
0.196226884
0.196241587
0.196243898
0.196254528
0.196237025
0.196251877
0.196254624
0.196265169
0.196249897
0.196264448
0.196267773
0.196277926
0.196264848
0.196278923
0.196282764
0.196292496
0.196281374
0.196295029
0.19629906
0.196308669
0.196298915
0.196312508
0.196316116
0.196326214
0.196316703
0.196331082
0.196332871
0.196344817
0.196332287
0.196350373
0.196348106
0.19636412
0.196358194
0.196370405
0.196365469
0.196384435
0.196384775
0.196391222
0.196391464
0.196405127
0.196406207
0.196412546
0.196408451
0.196426295
0.196422991
0.196434381
0.196436842
0.196447687
0.19644531
0.196456332
0.196461814
0.196469056
0.196469752
0.196478158
0.196485377
0.196490373
0.196493805
0.196500186
0.196508624
0.196511218
0.196517011
0.196521981
0.196531281
0.196532658
0.196539796
0.196543749
0.196553147
0.196554324
0.196561803
0.196565585
0.196574672
0.19657612
0.196583505
0.196587408
0.196596096
0.196597932
0.196605079
0.196609172
0.196617459
0.196619682
0.196626559
0.19663084
0.196638734
0.196641318
0.196647935
0.196652385
0.196659897
0.196662833
0.196669199
0.196673803
0.196680935
0.196684228
0.196690354
0.196695091
0.196701861
0.196705494
0.196711406
0.196716256
0.196722697
0.196726633
0.196732363
0.1967373
0.196743441
0.196747651
0.196753213
0.196758219
0.196764074
0.196768543
0.196773941
0.196778997
0.196784578
0.196789276
0.196794537
0.196799612
0.196804954
0.196809817
0.196815005
0.196820083
0.19682521
0.196830175
0.196835388
0.196840559
0.196845593
0.196850765
0.196855836
0.196860914
0.196865943
0.196870978
0.196875968
0.196880952
0.196885897
0.196890831
0.196895729
0.196900613
0.196905461
0.196910292
0.196915088
0.196919864
0.196924607
0.196929327
0.196934013
0.196938674
0.196943301
0.196947901
0.196952468
0.196957005
0.196961508
0.19696598
0.196970417
0.196974822
0.196979191
0.196983526
0.196987825
0.196992088
0.196996314
0.197000504
0.197004655
0.197008769
0.197012843
0.197016878
0.197020874
0.197024829
0.197028743
0.197032617
0.197036448
0.197040237
0.197043984
0.197047687
0.197051347
0.197054963
0.197058534
0.197062061
0.197065542
0.197068978
0.197072368
0.197075711
0.197079008
0.197082258
0.197085461
0.197088616
0.197091724
0.197094783
0.197097794
0.197100757
0.19710367
0.197106535
0.19710935
0.197112117
0.197114833
0.197117501
0.197120118
0.197122686
0.197125204
0.197127672
0.197130091
0.19713246
0.197134779
0.197137048
0.197139268
0.197141438
0.197143559
0.197145631
0.197147654
0.197149628
0.197151555
0.197153433
0.197155263
0.197157046
0.197158783
0.197160473
0.197162117
0.197163716
0.197165271
0.197166782
0.197168251
0.197169678
0.197171063
0.197172404
0.197173698
0.197174981
0.197176282
0.197177597
0.197178921
0.197180249
0.197181576
0.197182893
0.197184187
0.197185443
0.197186642
0.197187759
0.197188768
0.197189639
0.197190336
0.19719082
0.197191049
0.197190973
0.197190543
0.197189701
0.19718839
0.19718655
0.197184119
0.197181036
0.197177244
0.197172692
0.197167333
0.197161133
0.197154069
0.197146129
0.197137307
0.197127602
0.197117
0.197105457
0.197092869
0.197079031
0.197063595
0.197046021
0.197025548
0.197001195
0.196971835
0.196936373
0.196894061
0.19684493
0.196790295
0.196733142
0.196678168
0.196631186
0.196597809
0.196581615
0.19658239
0.196595202
0.196611
0.196619106
0.196610845
0.196583102
0.196540611
0.196495877
0.196464195
0.196454347
0.196459161
0.196456334
0.196428465
0.196382433
0.196346123
0.196327603
0.196304999
0.196271519
0.196271638
0.19633534
0.196439296
0.196495257
0.196467551
0.196405703
0.196371369
0.196384684
0.196440369
0.196486284
)
;

boundaryField
{
    closed
    {
        type            calculated;
        value           nonuniform List<scalar> 0();
    }
    open
    {
        type            calculated;
        value           uniform 0.196485384;
    }
    sides
    {
        type            empty;
    }
    procBoundary5to4
    {
        type            processor;
        value           uniform 0.227557421;
    }
}


// ************************************************************************* //
