/*--------------------------------*- C++ -*----------------------------------*\
| =========                 |                                                 |
| \\      /  F ield         | OpenFOAM: The Open Source CFD Toolbox           |
|  \\    /   O peration     | Version:  2306                                  |
|   \\  /    A nd           | Website:  www.openfoam.com                      |
|    \\/     M anipulation  |                                                 |
\*---------------------------------------------------------------------------*/
FoamFile
{
    version     2.0;
    format      ascii;
    arch        "LSB;label=32;scalar=64";
    class       volScalarField;
    location    "0.002";
    object      h;
}
// * * * * * * * * * * * * * * * * * * * * * * * * * * * * * * * * * * * * * //

dimensions      [0 2 -2 0 0 0 0];

internalField   nonuniform List<scalar> 
531
(
9795.97875
-1040.79983
-7669.77247
-7643.95441
8499.75165
9836.91134
9866.36798
10069.5842
1254.34313
-4219.3858
-6200.47174
-6221.6354
8502.09399
10020.5684
-4973.96759
-5193.11273
8202.42824
10465.841
9747.84884
-552.888983
-7061.83904
-7044.7395
8971.2069
10301.6797
10303.0706
-1111.42375
-4150.5219
-5793.11487
-5795.91735
8824.76985
9911.28226
-1054.31903
-6289.64894
-6280.04918
9112.63143
10401.6364
10200.9825
-996.120254
-3856.5566
9356.13512
10372.2825
-666.306092
-3855.73383
-6227.87902
-6206.84236
8557.38225
10366.8739
9712.75864
-1517.31603
-5093.44443
9067.78118
10280.9895
-3546.73547
-3576.0828
8691.64745
-1240.97974
-7448.48813
8652.13419
9776.82003
9876.36937
9872.08088
-940.098699
-7083.06148
-7048.62331
9023.52069
10314.455
10190.5306
-1263.04994
-5633.37625
-5622.82333
9336.56687
10008.4208
1155.49397
-6052.4619
-5047.2613
9212.69067
-259.138995
-6204.86105
9356.08404
10031.968
-1514.19214
-4773.58404
-6684.66373
-6680.77218
8511.92611
9958.03084
9651.49659
10116.9644
-3090.83101
-3996.88233
8959.04314
10652.5385
10054.1636
210.69601
-5689.19855
-5681.22039
9458.40855
10008.2788
1601.42584
-6055.1634
-4970.76737
9237.11941
-88.7311256
-6696.41249
9479.65265
9780.52197
-1273.06157
-6864.98871
-6524.96989
9332.33687
10398.1378
10268.155
-337.121612
-4790.40747
-4336.24217
-7093.77635
-7073.95905
8781.5331
10059.5889
9716.87257
-4114.7407
-5585.79723
8698.5213
10270.9206
9531.29592
10526.7997
10217.1351
-903.86697
-5884.29853
-5877.82296
9399.07779
9702.87141
-2397.01337
-8410.31191
-8034.04235
8916.94569
9967.90499
9595.03724
-4155.27486
-6722.78058
8918.21955
9895.06179
9940.3371
10017.0601
-1010.95894
-4864.46565
-6312.22086
-6236.78758
8926.10341
10412.7972
9741.48278
-849.702183
-5544.8208
-7009.50225
-7000.46518
8645.95929
10014.2819
9444.08101
10287.824
10134.0481
-2845.24264
-5421.25828
-7064.16682
-7007.57137
8910.10918
9924.26339
9969.24197
10103.7556
-348.744602
-4357.99497
-6006.96529
-6018.46193
9024.31767
10017.5193
9994.36942
10088.335
-1003.36827
-4764.85334
-6328.00641
-6330.14511
8995.46356
10007.7082
10002.3233
10137.4433
-420.529428
-4319.43795
-5523.59248
-5545.23169
9255.61042
10063.1241
-4430.77467
-5667.53327
9382.91856
9992.71071
-3980.30026
-6189.82148
9574.80442
9718.15037
-2809.57589
-8226.2777
-7665.7482
9157.66555
10038.862
9764.339
10460.6415
10374.4167
-802.991205
-3713.7882
-5208.64272
-5205.42206
9378.50467
10214.2042
-4494.89639
-4547.80722
9362.79433
10589.9436
10077.5946
1737.0656
-5080.72295
-4268.72253
-6773.88474
-6647.15578
9324.70466
10309.7666
9823.11549
-2605.37989
-7613.78606
-7187.26806
9322.88859
9944.97346
9924.52508
10182.4263
-3275.89905
-3487.73459
9448.70359
-2376.18457
-5812.86761
9370.74556
10455.1527
9732.96538
-695.296009
-5667.72025
-6721.95268
-6715.18087
8992.70605
9885.05639
9929.35159
9982.09228
-1707.74585
-5079.0312
-6179.85172
-6134.1854
9212.30923
10401.3191
9844.66171
-1911.7104
-6606.06183
-6226.47174
9598.52917
10100.0171
10258.4754
10266.844
1192.95057
-3911.12334
-5377.56554
-5400.28792
9385.80668
10017.7617
-4214.90591
-6162.84758
9674.31412
9773.87006
-2663.28396
-7577.02618
-6931.22452
9304.19981
10064.0023
9784.93058
-4457.64632
-6169.79779
9299.73032
10081.3151
10111.1585
10252.0105
857.69157
-3882.65814
-5531.99738
-5533.9503
9253.86541
10014.7355
-5707.02281
-6465.73843
9094.56267
9865.44991
9947.03773
9949.35929
-1558.73914
-6282.26071
-5205.29273
-7936.15081
-7926.59343
9284.44047
10025.3861
9991.869
-4000.46606
-6151.54073
9760.59957
9786.42184
-1961.67199
9491.2137
10596.4624
-3019.05015
-3970.82562
-6249.83031
-6237.12491
9298.94108
10211.4141
9836.56041
-3495.05037
-4254.18385
9343.97776
-2853.84903
-6368.56471
9289.49437
10329.0698
9703.03961
-2232.03516
-5762.07865
9954.5439
9963.48238
-1760.23138
-6064.34058
-6053.39566
9833.94888
10019.7114
-2932.49199
-5307.90543
9883.45195
9990.90727
-1950.65456
-6218.34072
-6199.76515
9721.4624
10037.4595
-3839.73776
-5258.89131
9426.32559
10114.3117
-5301.89328
-5889.47794
8964.11259
9916.59436
9593.95651
9829.41557
-4647.12171
-7062.00933
9495.02984
9738.57093
-3083.81755
-7040.48914
-7021.36495
9676.31407
9954.37839
-3734.60624
-5255.69224
9523.06378
10201.9431
-4050.95532
-4622.46797
9503.88316
10330.7113
-4060.39908
-4062.11966
9545.37927
1939.39179
-6608.23254
9827.06215
9832.06456
-2548.06557
-7585.98078
-6880.83317
9298.57715
10170.0608
9883.36004
-3429.07577
-4555.30217
9321.81433
10616.8647
9981.33367
685.315725
-5653.17009
-5639.58859
9848.57855
9975.66287
-1654.54447
-6005.74766
-6011.14005
9769.91191
9877.98457
-2143.49844
-6550.65233
-6535.66516
9603.22634
9706.4027
-2747.64998
-7810.14941
-7721.65056
9323.44365
9849.972
10076.7983
10074.7078
-1633.94117
-4104.98337
9840.17824
10450.4929
-2073.31037
-3049.47073
9918.88633
10654.0927
1037.5183
-2665.37499
-4151.27165
-4145.41756
9629.91503
10361.775
-2628.81717
-3871.68456
9748.02085
10374.2793
-1664.28837
-4011.01092
-5777.98312
-5782.79083
9096.96235
10038.6087
-5544.50248
-5891.52576
8713.68858
10084.0166
9643.15953
10211.3383
-3564.45352
-3736.87585
9145.05796
-2388.88647
-5931.4702
9040.33921
10458.7374
9827.29384
-269.932084
-6874.45029
-5593.39205
9285.67388
-3184.08573
-5893.20672
8907.70401
10453.2466
9791.91233
-663.179606
-7099.49317
-5850.40584
9199.01804
-3508.51534
-6440.25674
8689.79137
10314.4065
9520.82972
-2301.53713
-5831.09144
9249.42731
10166.2262
-4065.51142
-4223.07158
8928.81116
10634.2156
10022.2022
852.409121
-4718.52244
-5828.63021
-5850.44431
8903.37944
10071.8717
-5167.78877
-5272.60256
8596.838
10425.0742
9781.96103
-2230.24574
-5372.23115
9356.09139
10164.9042
-2507.59274
-4329.14371
9450.94194
10320.5067
-1147.22261
-3937.86121
-5303.63739
-5299.74968
9045.92527
10148.4452
-3659.50468
-4822.34389
9078.73548
10232.7548
-3235.111
-4365.9167
9205.39609
10323.1298
-2537.12485
-3850.151
9403.72483
10411.8413
-792.434552
-3579.79843
-5031.89922
-5050.1818
9064.11308
10105.4602
-3132.78427
-5390.59523
9153.08251
9902.30233
-1996.42623
-6934.14165
-6932.06274
8979.42593
9944.85815
-4571.57647
-5484.59686
8365.13837
)
;

boundaryField
{
    closed
    {
        type            lookUpEnthalpy;
        h0              nonuniform List<scalar> 0();
        value           nonuniform List<scalar> 0();
    }
    open
    {
        type            zeroGradient;
    }
    sides
    {
        type            empty;
    }
    procBoundary3to2
    {
        type            processor;
        value           uniform 10475.9221;
    }
    procBoundary3to4
    {
        type            processor;
        value           uniform 10255.9974;
    }
}


// ************************************************************************* //
