/*--------------------------------*- C++ -*----------------------------------*\
| =========                 |                                                 |
| \\      /  F ield         | OpenFOAM: The Open Source CFD Toolbox           |
|  \\    /   O peration     | Version:  2306                                  |
|   \\  /    A nd           | Website:  www.openfoam.com                      |
|    \\/     M anipulation  |                                                 |
\*---------------------------------------------------------------------------*/
FoamFile
{
    version     2.0;
    format      ascii;
    arch        "LSB;label=32;scalar=64";
    class       volScalarField;
    location    "0.002";
    object      H2;
}
// * * * * * * * * * * * * * * * * * * * * * * * * * * * * * * * * * * * * * //

dimensions      [0 0 0 0 0 0 0];

internalField   nonuniform List<scalar> 
531
(
0.0110259116
0.0107181748
0.0106317918
0.0106277018
0.0110620286
0.0110224383
0.0110257988
0.0110163778
0.0107683428
0.0106732288
0.0106501561
0.0106463968
0.0110594515
0.011016122
0.0106659276
0.0106584783
0.0110662885
0.0110044884
0.0110255484
0.010726801
0.0106374532
0.0106340707
0.0110452492
0.0110085163
0.0110092046
0.0107155604
0.0106734279
0.0106520192
0.0106512477
0.0110477865
0.0110188085
0.0107168912
0.0106469497
0.0106447394
0.0110406529
0.0110067732
0.0110114465
0.0107185025
0.010676511
0.0110336884
0.0110075906
0.010724838
0.0106776773
0.0106464919
0.0106467755
0.0110547454
0.0110086247
0.011024009
0.010709197
0.0106618897
0.0110435362
0.0110107122
0.010683504
0.0106808343
0.0110541428
0.0107139127
0.0106331661
0.0110543407
0.0110253736
0.0110221216
0.0110225361
0.0107196514
0.0106378011
0.0106350223
0.0110455241
0.0110098394
0.0110140727
0.0107135533
0.0106574782
0.0106544173
0.0110374714
0.0110183556
0.0107661111
0.0106508625
0.0106614661
0.0110384918
0.0107334231
0.0106481717
0.0110345061
0.0110174821
0.0107086835
0.010667409
0.0106414384
0.0106407525
0.0110581692
0.0110181813
0.0110283487
0.0110128228
0.0106874883
0.0106740571
0.0110446951
0.0110006423
0.0110162673
0.0107437729
0.0106549529
0.0106530046
0.0110327347
0.0110178537
0.0107779084
0.0106503678
0.010660999
0.0110376486
0.0107366302
0.0106417095
0.0110294255
0.0110239097
0.0107114738
0.0106403393
0.0106401066
0.0110360263
0.0110059022
0.0110116204
0.0107315535
0.0106673577
0.0106699221
0.0106368307
0.0106347524
0.0110507601
0.0110164038
0.0110241781
0.0106736106
0.0106545687
0.0110514532
0.0110097278
0.0110301099
0.0110023567
0.0110122751
0.0107192929
0.010652864
0.0106487509
0.0110345341
0.011022968
0.0106939827
0.0106177503
0.010621528
0.0110456602
0.0110179354
0.0110273365
0.0106715596
0.010640425
0.0110444483
0.011020392
0.0110178271
0.0110170143
0.0107177055
0.0106658862
0.0106449715
0.0106470109
0.0110453699
0.0110083973
0.0110241154
0.0107220745
0.0106576079
0.0106368662
0.0106370237
0.0110534971
0.0110180798
0.011032422
0.0110107485
0.0110149603
0.0106892985
0.0106596374
0.0106357815
0.0106375223
0.0110464383
0.0110210993
0.0110189387
0.0110161384
0.0107320943
0.0106726734
0.0106498443
0.0106495839
0.0110424368
0.011017201
0.0110173637
0.011014827
0.0107184724
0.0106664595
0.0106451668
0.0106449836
0.0110433354
0.0110173637
0.0110176576
0.0110138275
0.0107307876
0.0106721283
0.0106571427
0.0106553539
0.0110380747
0.0110160003
0.0106705127
0.010654357
0.0110341836
0.0110184742
0.0106750802
0.0106486065
0.0110290304
0.0110261794
0.0106890553
0.0106221259
0.0106267722
0.0110411652
0.0110168371
0.0110247833
0.0110067015
0.0110093309
0.0107231253
0.0106806282
0.0106607049
0.0106598506
0.0110342798
0.0110119582
0.0106685945
0.0106678385
0.0110337149
0.011002603
0.011015198
0.0107816777
0.0106627461
0.0106704
0.0106404253
0.0106398087
0.0110348757
0.0110092201
0.0110214253
0.0106904572
0.0106298251
0.0106316181
0.0110357651
0.0110163599
0.0110198709
0.0110101154
0.0106841925
0.0106799783
0.0110302168
0.0106926566
0.0106522765
0.0110319643
0.011006897
0.0110231181
0.0107247537
0.0106552121
0.0106394898
0.0106404236
0.0110426097
0.0110208794
0.0110183479
0.0110180535
0.0107048409
0.0106633429
0.0106467062
0.0106484176
0.0110369468
0.0110086832
0.0110206959
0.0107020051
0.0106435256
0.0106463662
0.0110284179
0.0110153476
0.0110113583
0.0110110801
0.0107670713
0.0106766452
0.0106578048
0.0106566147
0.0110326694
0.0110165697
0.0106710943
0.010647919
0.0110253539
0.0110238983
0.0106908958
0.010630821
0.0106372598
0.0110370379
0.0110173206
0.0110241241
0.0106694647
0.0106490978
0.0110348931
0.0110175191
0.0110146563
0.0110129391
0.0107589246
0.0106786893
0.0106571055
0.0106561141
0.0110375555
0.011017705
0.0106530826
0.0106434307
0.0110391242
0.011020763
0.0110171705
0.0110181178
0.0107072244
0.0106477759
0.0106588377
0.0106248084
0.0106231863
0.0110367941
0.0110170692
0.0110185385
0.0106738171
0.010649654
0.0110212826
0.0110246046
0.0106976208
0.0110314212
0.0109998643
0.0106883557
0.010674646
0.0106463949
0.0106453504
0.0110340902
0.0110115243
0.0110200768
0.0106794151
0.0106713702
0.0110306873
0.0106873479
0.0106438305
0.011033113
0.0110084912
0.0110231533
0.0106943528
0.010653665
0.0110159476
0.0110191515
0.0107023376
0.0106504902
0.0106468846
0.0110220691
0.0110159453
0.0106875509
0.0106596103
0.0110189179
0.0110192179
0.0106996006
0.0106500272
0.010645594
0.0110279085
0.0110162467
0.0106804725
0.0106600933
0.0110347789
0.0110163
0.0106614724
0.0106523067
0.01104539
0.0110214
0.0110293248
0.0110228549
0.0106672356
0.010637034
0.0110299694
0.0110262557
0.0106856559
0.0106392621
0.0106350178
0.0110290163
0.0110176449
0.0106813004
0.0106586336
0.0110309538
0.0110115864
0.0106762977
0.0106664571
0.0110304044
0.011008462
0.0106752361
0.0106739576
0.0110277917
0.0107874139
0.0106413844
0.0110196985
0.0110207647
0.010691061
0.0106297734
0.0106362918
0.0110349695
0.0110127295
0.0110199574
0.0106811941
0.0106681723
0.0110322519
0.0110022496
0.0110169375
0.01075477
0.0106540322
0.0106529637
0.0110197096
0.0110170879
0.0107049584
0.010650271
0.010647648
0.0110221839
0.0110190361
0.010696389
0.0106429948
0.0106410688
0.011026832
0.0110236045
0.0106887904
0.010626166
0.0106247284
0.011034782
0.0110191296
0.0110157772
0.0110129358
0.0107067144
0.0106723526
0.0110204578
0.0110045426
0.0106987854
0.0106862968
0.0110182172
0.0110005799
0.0107632746
0.0106906528
0.0106742356
0.0106714407
0.011026869
0.0110065581
0.0106928073
0.010675867
0.01102351
0.0110072364
0.010706481
0.0106753114
0.0106536737
0.0106513551
0.011041238
0.0110149615
0.0106569565
0.0106485792
0.011051039
0.0110128238
0.0110279733
0.0110089006
0.0106814819
0.0106760962
0.0110381456
0.0106921831
0.0106511564
0.011039543
0.0110063356
0.0110206961
0.010733304
0.0106387663
0.0106536826
0.0110349137
0.0106837703
0.0106514154
0.011044077
0.0110065474
0.0110225478
0.0107251782
0.0106364879
0.0106505807
0.0110380177
0.0106800354
0.0106446425
0.0110504363
0.0110104676
0.0110293958
0.0106960264
0.010652383
0.0110374445
0.0110132381
0.0106758493
0.0106720109
0.01104493
0.0110017642
0.0110169108
0.010758776
0.0106660536
0.0106525468
0.0106504552
0.0110458036
0.0110141145
0.0106612512
0.0106569311
0.0110531298
0.0110054851
0.0110217323
0.0106956079
0.0106572586
0.0110336662
0.0110121037
0.0106937743
0.010670527
0.0110314885
0.0110086095
0.0107158729
0.0106759104
0.0106597628
0.0106573366
0.0110433517
0.0110119249
0.0106813696
0.0106629789
0.011042896
0.0110096365
0.0106869329
0.0106690024
0.0110395545
0.0110078392
0.0106953342
0.0106765039
0.011033964
0.0110068472
0.0107233332
0.0106811713
0.0106639519
0.0106618448
0.0110427929
0.0110147252
0.0106874862
0.0106584491
0.0110401159
0.0110216274
0.0106990873
0.0106412682
0.0106355253
0.0110483602
0.0110171422
0.0106722206
0.0106544875
0.0110635902
)
;

boundaryField
{
    closed
    {
        type            calculated;
        value           nonuniform List<scalar> 0();
    }
    open
    {
        type            calculated;
        value           nonuniform List<scalar> 0();
    }
    sides
    {
        type            empty;
    }
    procBoundary3to2
    {
        type            processor;
        value           uniform 0.0110069375;
    }
    procBoundary3to4
    {
        type            processor;
        value           uniform 0.0110098551;
    }
}


// ************************************************************************* //
