/*--------------------------------*- C++ -*----------------------------------*\
| =========                 |                                                 |
| \\      /  F ield         | OpenFOAM: The Open Source CFD Toolbox           |
|  \\    /   O peration     | Version:  2306                                  |
|   \\  /    A nd           | Website:  www.openfoam.com                      |
|    \\/     M anipulation  |                                                 |
\*---------------------------------------------------------------------------*/
FoamFile
{
    version     2.0;
    format      ascii;
    arch        "LSB;label=32;scalar=64";
    class       volScalarField;
    location    "0.002";
    object      prefDPV_H2;
}
// * * * * * * * * * * * * * * * * * * * * * * * * * * * * * * * * * * * * * //

dimensions      [1 -1 -1 0 0 0 0];

internalField   nonuniform List<scalar> 
531
(
-3.14850712e-05
-3.09298893e-05
-3.01769045e-05
-3.01995136e-05
-3.14435193e-05
-3.15030597e-05
-3.14741679e-05
-3.15080897e-05
-3.09361396e-05
-3.06649979e-05
-3.03921615e-05
-3.03973588e-05
-3.14621031e-05
-3.15177251e-05
-3.05616966e-05
-3.05379178e-05
-3.14645701e-05
-3.15280021e-05
-3.14955959e-05
-3.09127657e-05
-3.02746908e-05
-3.02883427e-05
-3.14843452e-05
-3.15259328e-05
-3.15209482e-05
-3.09179537e-05
-3.06744341e-05
-3.04555776e-05
-3.04564691e-05
-3.14908978e-05
-3.15164921e-05
-3.09195859e-05
-3.038473e-05
-3.03913207e-05
-3.14933898e-05
-3.15222723e-05
-3.15215354e-05
-3.09239359e-05
-3.07131779e-05
-3.15023352e-05
-3.15212268e-05
-3.09183213e-05
-3.07129561e-05
-3.03961204e-05
-3.03989794e-05
-3.14865276e-05
-3.15148835e-05
-3.15121418e-05
-3.09351282e-05
-3.05487117e-05
-3.14803289e-05
-3.15139512e-05
-3.07530639e-05
-3.07496037e-05
-3.14679073e-05
-3.09277686e-05
-3.02161779e-05
-3.14732703e-05
-3.14920805e-05
-3.14988763e-05
-3.14966385e-05
-3.09239385e-05
-3.02695128e-05
-3.02848525e-05
-3.14735049e-05
-3.15147254e-05
-3.15048466e-05
-3.09285822e-05
-3.04712175e-05
-3.04783002e-05
-3.14786464e-05
-3.150404e-05
-3.09263724e-05
-3.04156731e-05
-3.05560752e-05
-3.14920762e-05
-3.09171042e-05
-3.03961861e-05
-3.14965719e-05
-3.15063867e-05
-3.09300119e-05
-3.05900909e-05
-3.03307488e-05
-3.0333307e-05
-3.14697202e-05
-3.15133763e-05
-3.14915314e-05
-3.15252928e-05
-3.08126755e-05
-3.06950717e-05
-3.14903404e-05
-3.15254145e-05
-3.15113402e-05
-3.09168616e-05
-3.04668926e-05
-3.04714815e-05
-3.14922224e-05
-3.15075936e-05
-3.092413e-05
-3.04163098e-05
-3.05677158e-05
-3.14940022e-05
-3.09078558e-05
-3.03279106e-05
-3.15120502e-05
-3.15018541e-05
-3.09101779e-05
-3.03016482e-05
-3.0361238e-05
-3.14897116e-05
-3.15288416e-05
-3.15096391e-05
-3.09143623e-05
-3.05876493e-05
-3.06506251e-05
-3.02708369e-05
-3.02811413e-05
-3.14769545e-05
-3.15095135e-05
-3.15102956e-05
-3.06792621e-05
-3.04838195e-05
-3.14860854e-05
-3.15223962e-05
-3.14988175e-05
-3.15331735e-05
-3.15132011e-05
-3.09117587e-05
-3.04392845e-05
-3.04478683e-05
-3.14892487e-05
-3.15209683e-05
-3.09008526e-05
-3.00882981e-05
-3.01482113e-05
-3.14905362e-05
-3.15135098e-05
-3.15079274e-05
-3.06745968e-05
-3.03268682e-05
-3.14988996e-05
-3.15080341e-05
-3.15186725e-05
-3.15120642e-05
-3.0918764e-05
-3.05782545e-05
-3.03855103e-05
-3.0393484e-05
-3.14910642e-05
-3.15091706e-05
-3.15067502e-05
-3.09300018e-05
-3.04852518e-05
-3.02862282e-05
-3.02873751e-05
-3.14803952e-05
-3.15050353e-05
-3.14968082e-05
-3.15126088e-05
-3.15076829e-05
-3.08440438e-05
-3.05014374e-05
-3.02797157e-05
-3.0284498e-05
-3.14861443e-05
-3.14983114e-05
-3.15062657e-05
-3.15042696e-05
-3.09254459e-05
-3.06458016e-05
-3.04253401e-05
-3.04239926e-05
-3.14954557e-05
-3.15106844e-05
-3.15132601e-05
-3.15159332e-05
-3.09251615e-05
-3.05923478e-05
-3.03824407e-05
-3.03825021e-05
-3.14939011e-05
-3.15111206e-05
-3.15099274e-05
-3.15150702e-05
-3.09281072e-05
-3.06516503e-05
-3.0489404e-05
-3.04888848e-05
-3.14878922e-05
-3.1511772e-05
-3.06370216e-05
-3.04713806e-05
-3.14944221e-05
-3.15057434e-05
-3.06969723e-05
-3.03977149e-05
-3.1499309e-05
-3.14959888e-05
-3.08483647e-05
-3.01054363e-05
-3.01988841e-05
-3.14821966e-05
-3.15098058e-05
-3.14983199e-05
-3.15134485e-05
-3.1508736e-05
-3.09310269e-05
-3.07312617e-05
-3.05328305e-05
-3.05344299e-05
-3.14944694e-05
-3.15158806e-05
-3.06293142e-05
-3.06223838e-05
-3.15010547e-05
-3.15216181e-05
-3.15150611e-05
-3.09250158e-05
-3.05495641e-05
-3.06596635e-05
-3.03178399e-05
-3.03415304e-05
-3.14991364e-05
-3.1519782e-05
-3.15123981e-05
-3.08738559e-05
-3.01969693e-05
-3.02704293e-05
-3.14931392e-05
-3.15280806e-05
-3.15069356e-05
-3.15336305e-05
-3.07885959e-05
-3.07611412e-05
-3.15115517e-05
-3.09024699e-05
-3.04519766e-05
-3.15120262e-05
-3.15129515e-05
-3.15150988e-05
-3.09244679e-05
-3.04698607e-05
-3.03295474e-05
-3.03282023e-05
-3.14994867e-05
-3.15062283e-05
-3.1516807e-05
-3.15104067e-05
-3.09299857e-05
-3.05490557e-05
-3.0403565e-05
-3.04074321e-05
-3.15030574e-05
-3.15089933e-05
-3.15140241e-05
-3.09397363e-05
-3.03387832e-05
-3.03966273e-05
-3.14997489e-05
-3.15104282e-05
-3.15130203e-05
-3.15136318e-05
-3.09253231e-05
-3.07057991e-05
-3.05110629e-05
-3.05092651e-05
-3.15046354e-05
-3.15150566e-05
-3.06666939e-05
-3.04037691e-05
-3.15089539e-05
-3.15030168e-05
-3.08670664e-05
-3.02001848e-05
-3.02991023e-05
-3.14871829e-05
-3.15023518e-05
-3.14996212e-05
-3.06339612e-05
-3.03999551e-05
-3.15031231e-05
-3.14981402e-05
-3.15134803e-05
-3.15029471e-05
-3.09274017e-05
-3.0708922e-05
-3.04881405e-05
-3.0489447e-05
-3.14918812e-05
-3.15075979e-05
-3.046732e-05
-3.03633605e-05
-3.1507146e-05
-3.15102104e-05
-3.15221581e-05
-3.15152082e-05
-3.0924891e-05
-3.03839903e-05
-3.05356944e-05
-3.01535956e-05
-3.01624936e-05
-3.14922108e-05
-3.15103441e-05
-3.15054264e-05
-3.06946641e-05
-3.04017483e-05
-3.15234042e-05
-3.14959735e-05
-3.09113225e-05
-3.14961298e-05
-3.15394576e-05
-3.08219664e-05
-3.06983894e-05
-3.03926941e-05
-3.03970478e-05
-3.15088817e-05
-3.15193436e-05
-3.15196278e-05
-3.07601801e-05
-3.06611804e-05
-3.15251966e-05
-3.08422527e-05
-3.03787217e-05
-3.15172219e-05
-3.15217936e-05
-3.15196573e-05
-3.09205754e-05
-3.0457562e-05
-3.1529405e-05
-3.15056996e-05
-3.09172742e-05
-3.04145118e-05
-3.04235864e-05
-3.15061392e-05
-3.15190897e-05
-3.08326353e-05
-3.05191687e-05
-3.15201785e-05
-3.150079e-05
-3.0926215e-05
-3.03893902e-05
-3.04026224e-05
-3.14830935e-05
-3.15141593e-05
-3.07140798e-05
-3.05260022e-05
-3.14829526e-05
-3.15014233e-05
-3.05173001e-05
-3.04395576e-05
-3.14845341e-05
-3.14974302e-05
-3.14940749e-05
-3.15013398e-05
-3.06087037e-05
-3.0276061e-05
-3.15057432e-05
-3.14920909e-05
-3.08132143e-05
-3.02724484e-05
-3.02897079e-05
-3.14826394e-05
-3.15176972e-05
-3.07282185e-05
-3.0528419e-05
-3.14941932e-05
-3.15204131e-05
-3.06867779e-05
-3.0612844e-05
-3.15012353e-05
-3.1521737e-05
-3.06859863e-05
-3.06862951e-05
-3.15127967e-05
-3.09273354e-05
-3.03441757e-05
-3.15237609e-05
-3.15155673e-05
-3.08810661e-05
-3.02026639e-05
-3.03106773e-05
-3.15027752e-05
-3.15175273e-05
-3.15129607e-05
-3.07687276e-05
-3.06210719e-05
-3.15179607e-05
-3.15198485e-05
-3.15183128e-05
-3.09181815e-05
-3.04741837e-05
-3.04779926e-05
-3.15202545e-05
-3.1518172e-05
-3.09217546e-05
-3.04246706e-05
-3.04288834e-05
-3.15156636e-05
-3.15202315e-05
-3.09308572e-05
-3.03499214e-05
-3.03572525e-05
-3.15101298e-05
-3.15159851e-05
-3.08558261e-05
-3.01731155e-05
-3.01959056e-05
-3.15000055e-05
-3.15240461e-05
-3.1511142e-05
-3.15311721e-05
-3.09335733e-05
-3.06810943e-05
-3.15164019e-05
-3.1530026e-05
-3.0939086e-05
-3.08176788e-05
-3.15193863e-05
-3.15256041e-05
-3.09223832e-05
-3.08666982e-05
-3.06739205e-05
-3.06759724e-05
-3.15055364e-05
-3.15300117e-05
-3.08721349e-05
-3.07113184e-05
-3.15099353e-05
-3.15233675e-05
-3.09367099e-05
-3.06927186e-05
-3.04549891e-05
-3.04583445e-05
-3.14918485e-05
-3.15229073e-05
-3.04864146e-05
-3.04460247e-05
-3.14864733e-05
-3.15304778e-05
-3.14955732e-05
-3.15374288e-05
-3.07510573e-05
-3.0729026e-05
-3.15057024e-05
-3.09006528e-05
-3.04350029e-05
-3.15131091e-05
-3.15163067e-05
-3.15168093e-05
-3.09188111e-05
-3.03047661e-05
-3.04840053e-05
-3.15052851e-05
-3.08001999e-05
-3.04406929e-05
-3.15032544e-05
-3.1515697e-05
-3.15095797e-05
-3.0921609e-05
-3.02709283e-05
-3.04490486e-05
-3.14977047e-05
-3.07584646e-05
-3.03647054e-05
-3.14947735e-05
-3.15103372e-05
-3.15055616e-05
-3.09135227e-05
-3.04488611e-05
-3.14934071e-05
-3.1514593e-05
-3.06849849e-05
-3.06651416e-05
-3.14937315e-05
-3.15205004e-05
-3.15119632e-05
-3.09214607e-05
-3.05994522e-05
-3.04489496e-05
-3.04492616e-05
-3.14917913e-05
-3.15234963e-05
-3.05383104e-05
-3.05279745e-05
-3.14913353e-05
-3.15275026e-05
-3.15168712e-05
-3.09217007e-05
-3.05126399e-05
-3.15024988e-05
-3.15226889e-05
-3.08874123e-05
-3.06512709e-05
-3.1502272e-05
-3.15223235e-05
-3.09284238e-05
-3.07024277e-05
-3.05196059e-05
-3.05234531e-05
-3.14853351e-05
-3.15265239e-05
-3.07383887e-05
-3.05872242e-05
-3.14830753e-05
-3.15290342e-05
-3.07939949e-05
-3.06470286e-05
-3.14857194e-05
-3.15272382e-05
-3.08845109e-05
-3.07140354e-05
-3.14925368e-05
-3.15201506e-05
-3.09309406e-05
-3.07490695e-05
-3.05554248e-05
-3.0555217e-05
-3.14862718e-05
-3.15139097e-05
-3.0807294e-05
-3.05081151e-05
-3.14904616e-05
-3.14981491e-05
-3.09294108e-05
-3.02856412e-05
-3.03039033e-05
-3.14604161e-05
-3.15227007e-05
-3.06150268e-05
-3.04994169e-05
-3.14557693e-05
)
;

boundaryField
{
    closed
    {
        type            calculated;
        value           nonuniform List<scalar> 0();
    }
    open
    {
        type            calculated;
        value           nonuniform List<scalar> 0();
    }
    sides
    {
        type            empty;
    }
    procBoundary3to2
    {
        type            processor;
        value           uniform -3.15093664e-05;
    }
    procBoundary3to4
    {
        type            processor;
        value           uniform -3.15238689e-05;
    }
}


// ************************************************************************* //
