/*--------------------------------*- C++ -*----------------------------------*\
| =========                 |                                                 |
| \\      /  F ield         | OpenFOAM: The Open Source CFD Toolbox           |
|  \\    /   O peration     | Version:  2306                                  |
|   \\  /    A nd           | Website:  www.openfoam.com                      |
|    \\/     M anipulation  |                                                 |
\*---------------------------------------------------------------------------*/
FoamFile
{
    version     2.0;
    format      ascii;
    arch        "LSB;label=32;scalar=64";
    class       volScalarField;
    location    "0.002";
    object      prefDh_H2;
}
// * * * * * * * * * * * * * * * * * * * * * * * * * * * * * * * * * * * * * //

dimensions      [1 1 -3 0 0 0 0];

internalField   nonuniform List<scalar> 
531
(
37.6723111
29.3602891
18.019677
18.3203142
37.1038706
37.9413398
37.5050549
38.0068824
29.3377876
25.419697
21.2902117
21.3353592
37.383632
38.1540673
23.8705316
23.4637225
37.4341435
38.2893497
37.8328787
29.037078
19.4865753
19.6591405
37.6977107
38.2653458
38.1902564
29.1573631
25.5567113
22.2225737
22.2290012
37.8028498
38.1402866
29.1826291
21.1570437
21.2346379
37.8276262
38.2058975
38.2035453
29.2549197
26.1397698
37.9515522
38.1914373
29.1399545
26.1475361
21.3182165
21.3618584
37.7489283
38.09619
38.0834991
29.4747093
23.6486499
37.6329683
38.0858955
26.7759429
26.7011813
37.462603
29.3338371
18.6028431
37.5451109
37.7786831
37.8766333
37.8431306
29.2520343
19.4138491
19.6158022
37.5321773
38.0960925
37.9527822
29.3490179
22.4936984
22.570455
37.5957694
37.9485913
29.1706793
21.6363913
23.750881
37.8034329
29.0960707
21.3326851
37.8647926
37.9828907
29.3863074
24.2921138
20.3312641
20.3630196
37.497891
38.09134
37.7759139
38.2637658
27.6653083
25.8578793
37.7885099
38.2422959
38.0564877
29.0641403
22.4103108
22.4602447
37.7948051
38.0020944
29.0962852
21.6416056
23.9140326
37.8313503
28.9244268
20.2921897
38.0923598
37.9256612
29.0312623
19.900295
20.7623196
37.7625557
38.3049279
38.0215435
29.0526952
24.2565471
25.1834904
19.4258537
19.5598656
37.5948382
38.0287535
38.0555273
25.6275277
22.6513142
37.7359994
38.2134524
37.8908873
38.3645352
38.0773881
29.0389137
21.9941893
22.0840701
37.7526467
38.2167939
28.9843563
16.6269341
17.5282254
37.7933225
38.0929171
38.0252258
25.5417506
20.267099
37.9191732
38.0136767
38.1718357
38.0690077
29.1661109
24.1085201
21.1524844
21.2842558
37.8008662
38.0081931
38.0010789
29.3523675
22.6974998
19.6498409
19.6676991
37.6526623
37.9633187
37.8644741
38.065391
37.9979446
28.129878
22.9481303
19.5469954
19.6296786
37.7275024
37.8660319
37.9838107
37.9478826
29.24647
25.1393443
21.7679273
21.7463237
37.8626322
38.0482166
38.0880011
38.1241339
29.2765206
24.3161917
21.1096422
21.1090597
37.8405049
38.0552128
38.0374855
38.1089988
29.2966999
25.2183159
22.7535336
22.7309717
37.7385471
38.0625971
24.9938603
22.4701293
37.8312447
37.9749218
25.8946224
21.3583043
37.8963741
37.8400966
28.1889149
16.9075122
18.3043697
37.6571176
38.0340582
37.8731654
38.0705101
38.0033216
29.3676988
26.4370468
23.4097926
23.4254571
37.8321519
38.1178492
24.8659699
24.759744
37.9319815
38.187867
38.1114749
29.1006802
23.6683376
25.3173104
20.1361105
20.4747612
37.9047816
38.1724115
38.0825206
28.5652366
18.2986144
19.3804473
37.814576
38.31324
37.9958507
38.3864011
27.2899276
26.8576345
38.0862173
28.9936851
22.1727307
38.0967915
38.0632668
38.1271239
29.2482618
22.4553229
20.2986479
20.2864363
37.9247152
37.9869318
38.144235
38.0455861
29.3954297
23.666171
21.4276018
21.4973974
37.968765
38.0060243
38.1060517
29.5732156
20.4640456
21.3245314
37.9019551
38.0407572
38.0728642
38.081704
29.1492998
26.0355036
23.0714073
23.0353359
37.9848718
38.114021
25.4243543
21.4403808
38.0371985
37.9434567
28.4732335
18.3526807
19.8397856
37.7257246
37.9207484
37.8918533
24.940487
21.3946767
37.965899
37.8565883
38.0862148
37.9215061
29.2091105
26.099229
22.7349887
22.745497
37.7986801
38.001876
22.4008795
20.8195815
38.0355126
38.0477345
38.2240079
38.1192947
29.3001814
21.1529084
23.4348748
17.6300227
17.7482921
37.8022939
38.0427504
37.970187
25.8498055
21.4250975
38.250926
37.8368715
29.0864385
37.8521882
38.4560901
27.8062106
25.9108324
21.2678706
21.3223821
38.0526201
38.1700984
38.1907569
26.838487
25.3479617
38.2962104
28.0849332
21.0451045
38.1785788
38.2018495
38.1970526
29.2678222
22.2648891
38.332756
37.9755398
29.1789122
21.6165799
21.7182696
37.9878275
38.174644
27.9501879
23.203607
38.1969933
37.900431
29.3423964
21.249019
21.404928
37.6458025
38.0996532
26.1896209
23.3061928
37.6566522
37.9045734
23.1924783
21.9935745
37.7008694
37.8531006
37.8167342
37.9157763
24.5580201
19.5033495
37.9967422
37.7805164
27.6550189
19.4674641
19.6862327
37.6409461
38.1565402
26.3997871
23.3284334
37.821632
38.1866094
25.7599536
24.610454
37.9284909
38.2009273
25.7388293
25.7314075
38.1007066
29.124449
20.5255039
38.2533834
38.1298335
28.6737274
18.3812599
20.0001805
37.9607126
38.1445626
38.0883511
26.9775674
24.743931
38.1882741
38.160062
38.1646286
29.0573166
22.5078488
22.5537597
38.1996632
38.1627565
29.250877
21.7617343
21.8010343
38.1340059
38.1980301
29.4316135
20.6214338
20.7123663
38.0580199
38.1416306
28.2923118
17.9244867
18.2460557
37.9179212
38.2566734
38.0525154
38.3541013
29.4536342
25.6420719
38.1420414
38.3204781
29.569741
27.7249008
38.1835183
38.245082
29.1079103
28.4655527
25.556783
25.5603214
37.9877012
38.3241218
28.5644983
26.1071301
38.0487382
38.2235726
29.5091685
25.8359095
22.2277988
22.25695
37.8051149
38.2312811
22.7088348
22.0560526
37.7411657
38.3432453
37.8371311
38.4423062
26.7281062
26.3622
38.01155
28.9630463
21.9183183
38.1276705
38.1136164
38.1487377
29.1264586
19.9335672
22.6464924
37.9990645
27.4511597
22.0026559
37.9851949
38.1046788
38.0414617
29.1968962
19.42461
22.1163801
37.8887716
26.8200092
20.8486649
37.867187
38.0300381
37.9928744
29.1850766
22.1286227
37.8218482
38.1005599
25.7301394
25.4105845
37.8409023
38.1691223
38.0672624
29.1042382
24.4146439
22.1312539
22.1184074
37.8128184
38.2386946
23.493406
23.3072808
37.8195553
38.2836033
38.1516563
29.2967694
23.0894506
37.9540175
38.2224811
28.7913929
25.1982799
37.9464261
38.2101996
29.340386
25.9804122
23.2112094
23.2457664
37.7093086
38.2809217
26.5459556
24.2116846
37.6738343
38.3150286
27.3934448
25.1235483
37.7080485
38.2840592
28.7658508
26.1519601
37.8019461
38.1735174
29.3656538
26.6967556
23.7631437
23.7418492
37.722608
38.0929259
27.5885564
23.0344111
37.7817555
37.8645489
29.3996321
19.6744779
19.8960287
37.3370358
38.2322695
24.6930953
22.8753193
37.2943544
)
;

boundaryField
{
    closed
    {
        type            calculated;
        value           nonuniform List<scalar> 0();
    }
    open
    {
        type            calculated;
        value           nonuniform List<scalar> 0();
    }
    sides
    {
        type            empty;
    }
    procBoundary3to2
    {
        type            processor;
        value           uniform 38.0083958;
    }
    procBoundary3to4
    {
        type            processor;
        value           uniform 38.2362705;
    }
}


// ************************************************************************* //
