/*--------------------------------*- C++ -*----------------------------------*\
| =========                 |                                                 |
| \\      /  F ield         | OpenFOAM: The Open Source CFD Toolbox           |
|  \\    /   O peration     | Version:  2306                                  |
|   \\  /    A nd           | Website:  www.openfoam.com                      |
|    \\/     M anipulation  |                                                 |
\*---------------------------------------------------------------------------*/
FoamFile
{
    version     2.0;
    format      ascii;
    arch        "LSB;label=32;scalar=64";
    class       volScalarField;
    location    "0.002";
    object      prefDh_H;
}
// * * * * * * * * * * * * * * * * * * * * * * * * * * * * * * * * * * * * * //

dimensions      [1 1 -3 0 0 0 0];

internalField   nonuniform List<scalar> 
531
(
23905.592
23404.8615
22718.3312
22739.3068
23865.0027
23922.3631
23895.5727
23927.389
23409.5294
23163.6192
22914.6945
22919.6872
23882.2636
23936.2659
23069.2809
23047.9168
23884.0849
23946.4861
23915.2943
23389.1669
22807.6904
22820.4133
23903.6506
23944.3163
23939.6874
23394.0936
23172.2659
22972.7611
22973.6255
23909.5099
23934.9545
23395.5467
22908.0685
22914.2471
23912.2703
23941.0661
23940.0789
23399.4581
23207.6287
23920.9548
23940.0506
23394.2423
23207.3528
22918.5454
22921.1513
23905.0345
23934.1495
23930.6108
23409.7891
23057.6127
23900.0697
23933.1539
23243.7968
23240.7876
23887.9496
23403.0238
22754.2718
23892.8688
23912.0732
23918.5372
23916.452
23399.4375
22802.9204
22817.1553
23893.6634
23933.9236
23924.5595
23403.7685
22986.7808
22993.4635
23898.9214
23923.5344
23400.7195
22936.2212
23064.3948
23911.2046
23392.9682
22918.505
23915.6012
23925.7501
23405.1613
23095.243
22858.8768
22861.2643
23889.3529
23932.131
23911.3718
23943.4426
23298.2545
23191.1652
23909.2004
23944.3621
23930.3853
23392.5423
22982.9651
22987.2929
23911.7181
23926.8353
23398.4516
22936.835
23075.1043
23913.0312
23384.5204
22856.2572
23930.1693
23921.1573
23387.1259
22832.2476
22886.9262
23909.1923
23947.1641
23929.1287
23390.5197
23093.0058
23150.6343
22804.1921
22813.767
23896.4919
23928.6966
23928.9019
23176.685
22998.5182
23904.8437
23940.9842
23917.9558
23951.3823
23932.3607
23388.4034
22957.7623
22965.8853
23908.8649
23938.7957
23378.7742
22637.8806
22692.612
23909.3171
23932.2699
23926.5158
23172.5308
22855.3772
23917.0877
23927.0725
23937.0243
23931.0016
23394.7855
23084.4756
22908.9026
22916.0956
23909.8217
23928.9115
23925.646
23404.8859
22999.6485
22818.3082
22819.351
23899.4766
23924.4678
23915.9557
23931.9172
23927.1088
23326.9297
23014.3756
22812.3984
22816.6823
23905.227
23918.0853
23925.5425
23923.8922
23400.5565
23146.0387
22945.1509
22943.9303
23914.0529
23929.7205
23932.0781
23934.7039
23400.5697
23097.3718
22906.0749
22906.1422
23912.5642
23930.1109
23928.9942
23933.9765
23402.9951
23151.439
23003.4862
23003.118
23907.3844
23930.8
23138.115
22987.1186
23913.6454
23925.0929
23192.8459
22919.8816
23918.479
23915.614
23330.9109
22653.3456
22738.7839
23901.9432
23928.9366
23917.8498
23932.9575
23928.45
23405.7942
23223.9681
23043.1135
23044.6329
23913.6826
23934.8454
23131.1607
23124.8478
23919.7755
23940.7412
23933.8774
23399.1795
23058.3427
23158.8988
22847.0953
22868.8643
23917.9351
23938.6141
23931.0171
23354.2188
22736.8489
22804.1261
23912.3616
23945.772
23926.0968
23951.2882
23276.362
23251.4293
23929.6587
23380.343
22969.4418
23929.9799
23932.4875
23933.3886
23399.816
22985.6726
22857.8905
22856.6011
23917.7485
23925.3798
23935.2745
23929.4088
23405.214
23057.8399
22925.3623
22928.8074
23921.4044
23928.7296
23932.5604
23414.1094
22866.1231
22919.0179
23918.924
23929.6076
23932.2551
23932.8358
23399.7492
23200.849
23023.3177
23021.7405
23923.1371
23933.7825
23165.3074
22925.4768
23927.5906
23922.2273
23347.9594
22739.74
22830.0945
23906.8003
23922.0505
23919.0899
23135.3713
22921.9073
23921.6
23918.1646
23932.4598
23922.8879
23401.7956
23203.5881
23002.3292
23003.5878
23911.0868
23926.849
22983.4701
22888.6748
23925.021
23929.0492
23940.2727
23933.8196
23400.5481
22907.3406
23045.8548
22697.3594
22705.6152
23911.4401
23929.4163
23924.7972
23190.8061
22923.5191
23941.1468
23915.7038
23388.439
23915.3979
23957.3256
23306.7269
23194.1733
22915.4079
22919.4646
23926.9483
23938.0584
23937.754
23250.5824
23160.2309
23942.1747
23325.409
22902.743
23934.6819
23940.512
23937.578
23396.8539
22974.4825
23947.0171
23925.0078
23393.7405
22935.1782
22943.7199
23925.2192
23937.5323
23316.5692
23030.6452
23938.337
23920.4889
23401.9
22912.16
22924.5643
23903.6415
23932.9788
23208.2108
23036.8856
23903.0588
23921.2642
23028.818
22958.0463
23903.8152
23917.2551
23913.6464
23920.7541
23112.332
22808.9721
23924.3338
23912.0245
23298.864
22805.5271
22821.6096
23903.1507
23936.1395
23221.1338
23039.1918
23913.6478
23939.0377
23183.4157
23116.1789
23920.1598
23940.462
23182.7549
23183.1174
23930.9634
23401.168
22871.1972
23941.5794
23933.9749
23360.7985
22742.0751
22840.7701
23921.2751
23936.3085
23931.6314
23258.3156
23123.6235
23935.4179
23939.1376
23936.7524
23393.5199
22989.71
22993.2692
23938.3545
23936.6129
23397.75
22944.511
22948.5338
23933.9697
23938.3779
23406.172
22876.3721
22883.2124
23928.5744
23934.1715
23337.7758
22715.1837
22736.1717
23918.7405
23941.8793
23930.2354
23948.8411
23408.429
23178.4442
23934.7626
23948.3433
23413.584
23302.9212
23937.6549
23944.5406
23397.1596
23347.6368
23171.7448
23173.8005
23924.348
23948.1965
23352.4906
23205.9623
23928.6148
23942.0424
23411.277
23188.9282
22972.1214
22975.3396
23910.8145
23941.1077
23000.7547
22964.2042
23905.2276
23948.2101
23915.1134
23954.861
23242.0812
23222.1984
23923.7578
23378.7052
22953.9369
23930.477
23935.6098
23935.1215
23394.5178
22835.2008
22998.7423
23923.5868
23287.0381
22959.1415
23921.1168
23935.0352
23928.3513
23397.2158
22804.2961
22966.8577
23916.4117
23248.9693
22889.8362
23912.9003
23929.847
23924.2046
23390.2739
22966.5771
23912.4974
23933.5767
23181.7981
23163.8262
23912.3035
23939.7693
23930.9156
23396.4129
23103.9155
22966.6484
22967.0607
23910.4619
23941.7053
23048.1082
23038.8876
23909.5618
23945.9606
23935.11
23397.8068
23024.7978
23921.1068
23941.096
23366.4514
23151.1896
23921.0416
23940.9915
23403.5787
23197.8007
23031.0371
23034.7144
23904.6857
23944.634
23230.4624
23092.8837
23902.6375
23947.0937
23281.1454
23147.3908
23905.2888
23945.5614
23363.6897
23208.416
23911.9263
23939.1104
23405.7119
23240.2763
23063.6466
23063.5843
23905.5839
23932.85
23293.3158
23020.5741
23909.6129
23917.9011
23404.8072
22817.51
22834.6015
23881.4396
23940.7735
23117.8287
23012.8338
23876.1672
)
;

boundaryField
{
    closed
    {
        type            calculated;
        value           nonuniform List<scalar> 0();
    }
    open
    {
        type            calculated;
        value           nonuniform List<scalar> 0();
    }
    sides
    {
        type            empty;
    }
    procBoundary3to2
    {
        type            processor;
        value           uniform 23929.1884;
    }
    procBoundary3to4
    {
        type            processor;
        value           uniform 23942.3299;
    }
}


// ************************************************************************* //
