/*--------------------------------*- C++ -*----------------------------------*\
| =========                 |                                                 |
| \\      /  F ield         | OpenFOAM: The Open Source CFD Toolbox           |
|  \\    /   O peration     | Version:  2306                                  |
|   \\  /    A nd           | Website:  www.openfoam.com                      |
|    \\/     M anipulation  |                                                 |
\*---------------------------------------------------------------------------*/
FoamFile
{
    version     2.0;
    format      ascii;
    arch        "LSB;label=32;scalar=64";
    class       volVectorField;
    location    "0.002";
    object      U;
}
// * * * * * * * * * * * * * * * * * * * * * * * * * * * * * * * * * * * * * //

dimensions      [0 1 -1 0 0 0 0];

internalField   nonuniform List<vector> 
531
(
(0.339156705 0 0)
(0.328128358 0 0)
(0.317911903 0 0)
(0.316913751 0 0)
(0.328739237 0 0)
(0.340256937 0 0)
(0.340815226 0 0)
(0.33664015 0 0)
(0.330287456 0 0)
(0.325102851 0 0)
(0.32197855 0 0)
(0.319443857 0 0)
(0.327758961 0 0)
(0.333843439 0 0)
(0.324768717 0 0)
(0.32408938 0 0)
(0.334647216 0 0)
(0.342043651 0 0)
(0.337755917 0 0)
(0.326883543 0 0)
(0.317722248 0 0)
(0.318196381 0 0)
(0.329136969 0 0)
(0.337804833 0 0)
(0.334671284 0 0)
(0.327086146 0 0)
(0.320981904 0 0)
(0.318044369 0 0)
(0.322321485 0 0)
(0.332715503 0 0)
(0.334635451 0 0)
(0.325311852 0 0)
(0.315921185 0 0)
(0.315174083 0 0)
(0.323827415 0 0)
(0.330258781 0 0)
(0.327868674 0 0)
(0.321731142 0 0)
(0.320574142 0 0)
(0.327386626 0 0)
(0.328502475 0 0)
(0.321072691 0 0)
(0.314033324 0 0)
(0.309461263 0 0)
(0.315397574 0 0)
(0.325721653 0 0)
(0.327303069 0 0)
(0.324815847 0 0)
(0.318358309 0 0)
(0.316271848 0 0)
(0.323287441 0 0)
(0.323909535 0 0)
(0.316342675 0 0)
(0.316370585 0 0)
(0.320381508 0 0)
(0.315178076 0 0)
(0.310088437 0 0)
(0.316942505 0 0)
(0.323296631 0 0)
(0.32239487 0 0)
(0.315475521 0 0)
(0.304102544 0 0)
(0.295774007 0 0)
(0.304647792 0 0)
(0.317891056 0 0)
(0.318641247 0 0)
(0.313869795 0 0)
(0.303640938 0 0)
(0.295676918 0 0)
(0.300286646 0 0)
(0.310105235 0 0)
(0.309185697 0 0)
(0.300808034 0 0)
(0.29402422 0 0)
(0.295456125 0 0)
(0.299451614 0 0)
(0.295999044 0 0)
(0.293492299 0 0)
(0.30038074 0 0)
(0.302042993 0 0)
(0.294571818 0 0)
(0.287261299 0 0)
(0.282700262 0 0)
(0.287056962 0 0)
(0.296801896 0 0)
(0.299751633 0 0)
(0.298666769 0 0)
(0.293329697 0 0)
(0.286669297 0 0)
(0.287100126 0 0)
(0.293877008 0 0)
(0.297208687 0 0)
(0.292834234 0 0)
(0.283523977 0 0)
(0.276649452 0 0)
(0.281901308 0 0)
(0.291537734 0 0)
(0.290082044 0 0)
(0.282136729 0 0)
(0.275879557 0 0)
(0.277193575 0 0)
(0.280905243 0 0)
(0.277020106 0 0)
(0.274281729 0 0)
(0.28112285 0 0)
(0.282166325 0 0)
(0.273620731 0 0)
(0.266056924 0 0)
(0.266731967 0 0)
(0.275072006 0 0)
(0.279670591 0 0)
(0.276160417 0 0)
(0.2684292 0 0)
(0.263068286 0 0)
(0.259877567 0 0)
(0.256006397 0 0)
(0.261177366 0 0)
(0.271154732 0 0)
(0.272244844 0 0)
(0.270467731 0 0)
(0.261301408 0 0)
(0.256842909 0 0)
(0.263464975 0 0)
(0.26681154 0 0)
(0.266307245 0 0)
(0.265215086 0 0)
(0.261822134 0 0)
(0.254284245 0 0)
(0.248587386 0 0)
(0.25321489 0 0)
(0.262059483 0 0)
(0.260713785 0 0)
(0.253095818 0 0)
(0.246300882 0 0)
(0.247143514 0 0)
(0.256518063 0 0)
(0.261373 0 0)
(0.255738725 0 0)
(0.248316999 0 0)
(0.249343871 0 0)
(0.25652756 0 0)
(0.259774136 0 0)
(0.258654999 0 0)
(0.254359974 0 0)
(0.246811438 0 0)
(0.240818211 0 0)
(0.238147651 0 0)
(0.243473307 0 0)
(0.25198344 0 0)
(0.252421266 0 0)
(0.250800578 0 0)
(0.244502298 0 0)
(0.237293073 0 0)
(0.233985871 0 0)
(0.238746669 0 0)
(0.247705179 0 0)
(0.249023279 0 0)
(0.248094512 0 0)
(0.246704773 0 0)
(0.245023175 0 0)
(0.239260435 0 0)
(0.234132137 0 0)
(0.232041373 0 0)
(0.236312713 0 0)
(0.245128085 0 0)
(0.246940193 0 0)
(0.24590103 0 0)
(0.242258948 0 0)
(0.235423933 0 0)
(0.229949798 0 0)
(0.227542083 0 0)
(0.231405118 0 0)
(0.239252467 0 0)
(0.240875124 0 0)
(0.239864475 0 0)
(0.236301428 0 0)
(0.229375751 0 0)
(0.224082375 0 0)
(0.222163606 0 0)
(0.226348469 0 0)
(0.234679021 0 0)
(0.236696524 0 0)
(0.235807287 0 0)
(0.232459701 0 0)
(0.225995524 0 0)
(0.221266351 0 0)
(0.219726837 0 0)
(0.223310858 0 0)
(0.230294106 0 0)
(0.228733061 0 0)
(0.222900651 0 0)
(0.22373332 0 0)
(0.229818652 0 0)
(0.228814877 0 0)
(0.223386395 0 0)
(0.223935251 0 0)
(0.230284362 0 0)
(0.229772633 0 0)
(0.223585071 0 0)
(0.218871105 0 0)
(0.220162513 0 0)
(0.228549319 0 0)
(0.232273752 0 0)
(0.232340503 0 0)
(0.232125754 0 0)
(0.228122433 0 0)
(0.220467146 0 0)
(0.216689793 0 0)
(0.215634737 0 0)
(0.219984337 0 0)
(0.227045641 0 0)
(0.225002414 0 0)
(0.22006768 0 0)
(0.222709382 0 0)
(0.22897223 0 0)
(0.230076892 0 0)
(0.227450849 0 0)
(0.221335684 0 0)
(0.217506628 0 0)
(0.216066951 0 0)
(0.213982378 0 0)
(0.214531156 0 0)
(0.220751102 0 0)
(0.223670125 0 0)
(0.221415892 0 0)
(0.214171199 0 0)
(0.208567019 0 0)
(0.20934316 0 0)
(0.216403609 0 0)
(0.219435375 0 0)
(0.218776689 0 0)
(0.215510017 0 0)
(0.210993488 0 0)
(0.212210033 0 0)
(0.214215812 0 0)
(0.210397032 0 0)
(0.210329841 0 0)
(0.216252362 0 0)
(0.217692017 0 0)
(0.214986984 0 0)
(0.207511425 0 0)
(0.201803791 0 0)
(0.20046394 0 0)
(0.204145929 0 0)
(0.211951649 0 0)
(0.213802763 0 0)
(0.213006718 0 0)
(0.210057986 0 0)
(0.203583043 0 0)
(0.198677344 0 0)
(0.19755101 0 0)
(0.197520632 0 0)
(0.203812122 0 0)
(0.208433555 0 0)
(0.206100596 0 0)
(0.199307003 0 0)
(0.194049873 0 0)
(0.194437521 0 0)
(0.200129592 0 0)
(0.20264334 0 0)
(0.202135215 0 0)
(0.199485884 0 0)
(0.193898351 0 0)
(0.189684644 0 0)
(0.188417294 0 0)
(0.191619676 0 0)
(0.197579878 0 0)
(0.196191701 0 0)
(0.190821328 0 0)
(0.191021523 0 0)
(0.196278495 0 0)
(0.195590442 0 0)
(0.189479616 0 0)
(0.184497809 0 0)
(0.185068672 0 0)
(0.191418654 0 0)
(0.194160621 0 0)
(0.193681207 0 0)
(0.187655983 0 0)
(0.185257654 0 0)
(0.190623443 0 0)
(0.192648699 0 0)
(0.192297111 0 0)
(0.189751493 0 0)
(0.184283171 0 0)
(0.179660429 0 0)
(0.17793624 0 0)
(0.181145192 0 0)
(0.187142441 0 0)
(0.185592522 0 0)
(0.179779639 0 0)
(0.180299934 0 0)
(0.185873313 0 0)
(0.188188021 0 0)
(0.187927426 0 0)
(0.184325191 0 0)
(0.177603776 0 0)
(0.173281998 0 0)
(0.171943631 0 0)
(0.170856331 0 0)
(0.177268242 0 0)
(0.185274992 0 0)
(0.184754367 0 0)
(0.18205723 0 0)
(0.175790813 0 0)
(0.174099763 0 0)
(0.178320462 0 0)
(0.177915105 0 0)
(0.174961168 0 0)
(0.175686615 0 0)
(0.173971329 0 0)
(0.168869014 0 0)
(0.164773847 0 0)
(0.162737567 0 0)
(0.167717029 0 0)
(0.174238489 0 0)
(0.174199596 0 0)
(0.171587117 0 0)
(0.167509185 0 0)
(0.167389071 0 0)
(0.168402038 0 0)
(0.164871896 0 0)
(0.163670538 0 0)
(0.168357238 0 0)
(0.170815455 0 0)
(0.168340588 0 0)
(0.163821923 0 0)
(0.162938117 0 0)
(0.166301605 0 0)
(0.166423921 0 0)
(0.161712072 0 0)
(0.158186101 0 0)
(0.159611434 0 0)
(0.16476067 0 0)
(0.165501064 0 0)
(0.16124574 0 0)
(0.160159922 0 0)
(0.16349938 0 0)
(0.163547655 0 0)
(0.158620177 0 0)
(0.154745487 0 0)
(0.160171786 0 0)
(0.16677867 0 0)
(0.164213807 0 0)
(0.159426024 0 0)
(0.158366437 0 0)
(0.162006368 0 0)
(0.161452701 0 0)
(0.156053458 0 0)
(0.154777222 0 0)
(0.159165229 0 0)
(0.162433754 0 0)
(0.16279809 0 0)
(0.160060928 0 0)
(0.156086381 0 0)
(0.157086533 0 0)
(0.162746721 0 0)
(0.163876931 0 0)
(0.158352561 0 0)
(0.153606883 0 0)
(0.154969893 0 0)
(0.16063995 0 0)
(0.161779484 0 0)
(0.157472764 0 0)
(0.156589182 0 0)
(0.160574706 0 0)
(0.160904494 0 0)
(0.156800012 0 0)
(0.156498557 0 0)
(0.160760975 0 0)
(0.161330659 0 0)
(0.157755832 0 0)
(0.156162124 0 0)
(0.157824619 0 0)
(0.157098421 0 0)
(0.15642088 0 0)
(0.161171489 0 0)
(0.163896757 0 0)
(0.157532538 0 0)
(0.150458965 0 0)
(0.152951687 0 0)
(0.160294006 0 0)
(0.164632586 0 0)
(0.161815811 0 0)
(0.157510681 0 0)
(0.158100212 0 0)
(0.162647432 0 0)
(0.1658864 0 0)
(0.164854791 0 0)
(0.1606536 0 0)
(0.157624736 0 0)
(0.163222139 0 0)
(0.170155737 0 0)
(0.169387442 0 0)
(0.165029846 0 0)
(0.161341958 0 0)
(0.162066737 0 0)
(0.167489897 0 0)
(0.170298738 0 0)
(0.165906052 0 0)
(0.162062371 0 0)
(0.167426605 0 0)
(0.175095174 0 0)
(0.174678638 0 0)
(0.169150063 0 0)
(0.164189845 0 0)
(0.166513815 0 0)
(0.174207393 0 0)
(0.179712348 0 0)
(0.180714187 0 0)
(0.1788448 0 0)
(0.175401226 0 0)
(0.175502261 0 0)
(0.18003327 0 0)
(0.181620795 0 0)
(0.178724289 0 0)
(0.178773111 0 0)
(0.183145084 0 0)
(0.184828864 0 0)
(0.182144909 0 0)
(0.179474987 0 0)
(0.178994682 0 0)
(0.183359776 0 0)
(0.189370252 0 0)
(0.189789256 0 0)
(0.186125625 0 0)
(0.185877056 0 0)
(0.19082039 0 0)
(0.192832684 0 0)
(0.189503566 0 0)
(0.185745751 0 0)
(0.184401174 0 0)
(0.188998373 0 0)
(0.196120436 0 0)
(0.196013849 0 0)
(0.190591504 0 0)
(0.1903818 0 0)
(0.197410437 0 0)
(0.20319164 0 0)
(0.204441715 0 0)
(0.202017532 0 0)
(0.197948873 0 0)
(0.198901354 0 0)
(0.20269467 0 0)
(0.201723413 0 0)
(0.201154293 0 0)
(0.207209535 0 0)
(0.212695768 0 0)
(0.211590218 0 0)
(0.206453165 0 0)
(0.20296205 0 0)
(0.206299494 0 0)
(0.211373837 0 0)
(0.210834439 0 0)
(0.210510597 0 0)
(0.217100486 0 0)
(0.222842963 0 0)
(0.221577481 0 0)
(0.215998453 0 0)
(0.212023324 0 0)
(0.215133506 0 0)
(0.220212043 0 0)
(0.219429186 0 0)
(0.21900951 0 0)
(0.226245235 0 0)
(0.232351504 0 0)
(0.229881448 0 0)
(0.224692566 0 0)
(0.225139043 0 0)
(0.231941881 0 0)
(0.234133222 0 0)
(0.229022645 0 0)
(0.229094781 0 0)
(0.236812023 0 0)
(0.242716613 0 0)
(0.241612977 0 0)
(0.237093706 0 0)
(0.233779245 0 0)
(0.233021524 0 0)
(0.232427204 0 0)
(0.239148477 0 0)
(0.244168931 0 0)
(0.238115422 0 0)
(0.238626739 0 0)
(0.248040792 0 0)
(0.254771557 0 0)
(0.25338367 0 0)
(0.246605225 0 0)
(0.24478214 0 0)
(0.252155498 0 0)
(0.255187171 0 0)
(0.250261207 0 0)
(0.249790976 0 0)
(0.256708889 0 0)
(0.259784047 0 0)
(0.255709341 0 0)
(0.251640812 0 0)
(0.250060394 0 0)
(0.255138346 0 0)
(0.263576284 0 0)
(0.264153343 0 0)
(0.258568948 0 0)
(0.258482134 0 0)
(0.266156482 0 0)
(0.26871808 0 0)
(0.263303777 0 0)
(0.263024496 0 0)
(0.270458657 0 0)
(0.273226626 0 0)
(0.268232306 0 0)
(0.267979996 0 0)
(0.275356391 0 0)
(0.278755026 0 0)
(0.274923175 0 0)
(0.271238259 0 0)
(0.269601121 0 0)
(0.267719581 0 0)
(0.274415589 0 0)
(0.280822641 0 0)
(0.274865937 0 0)
(0.274353583 0 0)
(0.283048207 0 0)
(0.287131382 0 0)
(0.280294119 0 0)
(0.272652616 0 0)
(0.272600505 0 0)
(0.281964637 0 0)
(0.286457383 0 0)
(0.279553437 0 0)
(0.278748012 0 0)
(0.287990011 0 0)
)
;

boundaryField
{
    closed
    {
        type            noSlip;
    }
    open
    {
        type            inletOutlet;
        inletValue      nonuniform List<vector> 0();
        value           nonuniform List<vector> 0();
    }
    sides
    {
        type            empty;
    }
    procBoundary3to2
    {
        type            processor;
        value           uniform (0.343067199 0 0);
    }
    procBoundary3to4
    {
        type            processor;
        value           uniform (0.295887653 0 0);
    }
}


// ************************************************************************* //
