/*--------------------------------*- C++ -*----------------------------------*\
| =========                 |                                                 |
| \\      /  F ield         | OpenFOAM: The Open Source CFD Toolbox           |
|  \\    /   O peration     | Version:  2306                                  |
|   \\  /    A nd           | Website:  www.openfoam.com                      |
|    \\/     M anipulation  |                                                 |
\*---------------------------------------------------------------------------*/
FoamFile
{
    version     2.0;
    format      ascii;
    arch        "LSB;label=32;scalar=64";
    class       volScalarField;
    location    "0.00122";
    object      mu;
}
// * * * * * * * * * * * * * * * * * * * * * * * * * * * * * * * * * * * * * //

dimensions      [1 -1 -1 0 0 0 0];

internalField   nonuniform List<scalar> 
530
(
5.98312015e-05
5.98659132e-05
5.98984139e-05
5.99318955e-05
5.99631629e-05
5.99954962e-05
6.00256124e-05
6.00568737e-05
6.00859179e-05
6.01161798e-05
6.01442267e-05
6.01722943e-05
6.01977324e-05
6.0224421e-05
6.02489381e-05
6.02747622e-05
6.02984023e-05
6.03234004e-05
6.03462062e-05
6.03715487e-05
6.03947985e-05
6.04197162e-05
6.04421391e-05
6.04662813e-05
6.04879208e-05
6.05113304e-05
6.05322285e-05
6.05549479e-05
6.05751445e-05
6.05961353e-05
6.0614608e-05
6.06349211e-05
6.06527072e-05
6.06723656e-05
6.06894876e-05
6.07085148e-05
6.07249946e-05
6.07434128e-05
6.07592722e-05
6.07771025e-05
6.07923625e-05
6.08096253e-05
6.08243066e-05
6.08410216e-05
6.08551444e-05
6.08713307e-05
6.08849147e-05
6.09005912e-05
6.09136558e-05
6.09288412e-05
6.09414053e-05
6.09561184e-05
6.09682004e-05
6.09824608e-05
6.09940779e-05
6.10079062e-05
6.10186993e-05
6.10312815e-05
6.10412817e-05
6.10534263e-05
6.10629604e-05
6.10746774e-05
6.10837514e-05
6.10950496e-05
6.11036709e-05
6.11145562e-05
6.11227344e-05
6.11332084e-05
6.1140957e-05
6.11510147e-05
6.11583505e-05
6.11679835e-05
6.11749217e-05
6.11841345e-05
6.1190674e-05
6.11995111e-05
6.12056191e-05
6.12136565e-05
6.12195708e-05
6.12272435e-05
6.12332017e-05
6.12401216e-05
6.12460452e-05
6.12522823e-05
6.12581247e-05
6.12637263e-05
6.12694582e-05
6.12744611e-05
6.12800611e-05
6.12844979e-05
6.12899479e-05
6.12938509e-05
6.12991322e-05
6.13025363e-05
6.13076274e-05
6.13105724e-05
6.13154468e-05
6.13179787e-05
6.13226066e-05
6.13247745e-05
6.1328975e-05
6.13307958e-05
6.13348888e-05
6.13362269e-05
6.13396495e-05
6.13404532e-05
6.13435818e-05
6.13440424e-05
6.13468641e-05
6.13469958e-05
6.13495048e-05
6.13493157e-05
6.13515109e-05
6.13510057e-05
6.13528882e-05
6.13520697e-05
6.13536418e-05
6.13525122e-05
6.13537764e-05
6.13523377e-05
6.13532964e-05
6.13515508e-05
6.13522066e-05
6.13501562e-05
6.13505115e-05
6.13481587e-05
6.13482159e-05
6.13455631e-05
6.13453248e-05
6.13423743e-05
6.1341843e-05
6.13385975e-05
6.13377758e-05
6.13342377e-05
6.13331283e-05
6.13293003e-05
6.1327906e-05
6.13237906e-05
6.13221143e-05
6.13177144e-05
6.13157589e-05
6.13110771e-05
6.13088455e-05
6.13038848e-05
6.130138e-05
6.12961434e-05
6.12933684e-05
6.12878592e-05
6.12848167e-05
6.12790385e-05
6.12757313e-05
6.12696878e-05
6.12661185e-05
6.12598136e-05
6.1255985e-05
6.12494227e-05
6.12453378e-05
6.12385218e-05
6.12341842e-05
6.12271176e-05
6.12225323e-05
6.12152168e-05
6.12103906e-05
6.12028264e-05
6.11977687e-05
6.1189954e-05
6.11846764e-05
6.11766083e-05
6.1171124e-05
6.11627994e-05
6.11571372e-05
6.11487707e-05
6.11426326e-05
6.11341135e-05
6.11276694e-05
6.11190222e-05
6.11122667e-05
6.11034991e-05
6.10964374e-05
6.1087552e-05
6.10801938e-05
6.10711897e-05
6.10635472e-05
6.10544217e-05
6.10465081e-05
6.10372578e-05
6.10290867e-05
6.10197086e-05
6.10112928e-05
6.1001785e-05
6.09931366e-05
6.09834981e-05
6.09746283e-05
6.09648593e-05
6.09557787e-05
6.09458802e-05
6.09365989e-05
6.09265727e-05
6.09171002e-05
6.09069488e-05
6.08972945e-05
6.0887021e-05
6.0877194e-05
6.08668021e-05
6.08568115e-05
6.08463053e-05
6.08361599e-05
6.08255438e-05
6.08152005e-05
6.08044173e-05
6.07939109e-05
6.07829851e-05
6.07723267e-05
6.07612994e-05
6.07505102e-05
6.07393843e-05
6.07284709e-05
6.07172499e-05
6.07062187e-05
6.06949062e-05
6.06837633e-05
6.06723633e-05
6.06611148e-05
6.06496311e-05
6.0638283e-05
6.06267199e-05
6.0615278e-05
6.06036397e-05
6.05921099e-05
6.05804008e-05
6.05687889e-05
6.05570134e-05
6.05453252e-05
6.05334877e-05
6.05217287e-05
6.0509834e-05
6.04980099e-05
6.04860624e-05
6.04741788e-05
6.04621833e-05
6.04502458e-05
6.04382068e-05
6.04262209e-05
6.04141432e-05
6.04021143e-05
6.03900138e-05
6.03779548e-05
6.03658152e-05
6.03537111e-05
6.03415348e-05
6.03293916e-05
6.03171837e-05
6.03050071e-05
6.02927727e-05
6.02805683e-05
6.02683126e-05
6.02560859e-05
6.02438142e-05
6.02315707e-05
6.02192879e-05
6.0207033e-05
6.01947444e-05
6.01824834e-05
6.0170194e-05
6.01579322e-05
6.0145647e-05
6.01333895e-05
6.01211134e-05
6.01088654e-05
6.00966034e-05
6.00843698e-05
6.00721267e-05
6.00599126e-05
6.00476931e-05
6.00355032e-05
6.0023312e-05
6.00111513e-05
5.99989929e-05
5.99868661e-05
5.99747449e-05
5.99626567e-05
5.9950577e-05
5.99385321e-05
5.99264417e-05
5.9914367e-05
5.99023109e-05
5.98902962e-05
5.98783032e-05
5.98663524e-05
5.98544259e-05
5.98425429e-05
5.98306866e-05
5.98188749e-05
5.98070922e-05
5.97953555e-05
5.97836498e-05
5.97719914e-05
5.9760366e-05
5.97487892e-05
5.97372474e-05
5.97257555e-05
5.97143004e-05
5.97028964e-05
5.96915311e-05
5.96802181e-05
5.96689455e-05
5.96577263e-05
5.96465493e-05
5.96354269e-05
5.96243481e-05
5.96133251e-05
5.96023473e-05
5.95914263e-05
5.95805519e-05
5.95697355e-05
5.9558967e-05
5.95482575e-05
5.95375972e-05
5.95269969e-05
5.95164471e-05
5.95059583e-05
5.94955211e-05
5.94851457e-05
5.94748231e-05
5.94645632e-05
5.94543571e-05
5.94442146e-05
5.94341268e-05
5.94241035e-05
5.94141357e-05
5.94042331e-05
5.9394387e-05
5.93846068e-05
5.93748838e-05
5.93652273e-05
5.9355629e-05
5.93460975e-05
5.93366252e-05
5.932722e-05
5.93178748e-05
5.9308597e-05
5.92993802e-05
5.92902414e-05
5.92811824e-05
5.9272189e-05
5.92632554e-05
5.92543884e-05
5.92455813e-05
5.92368417e-05
5.92281624e-05
5.92195513e-05
5.92110008e-05
5.9202519e-05
5.91940982e-05
5.91857464e-05
5.91774561e-05
5.91692351e-05
5.9161076e-05
5.91529864e-05
5.91449589e-05
5.91370011e-05
5.91291058e-05
5.91212802e-05
5.91135174e-05
5.91058243e-05
5.90981941e-05
5.90906338e-05
5.90831364e-05
5.90757088e-05
5.90683443e-05
5.90610496e-05
5.90538178e-05
5.90466557e-05
5.90395567e-05
5.90325271e-05
5.90255604e-05
5.90186631e-05
5.90118285e-05
5.9005063e-05
5.89983601e-05
5.8991726e-05
5.89851543e-05
5.89786511e-05
5.897221e-05
5.89658372e-05
5.8959526e-05
5.89532827e-05
5.89470253e-05
5.89408218e-05
5.89346809e-05
5.89286085e-05
5.89225982e-05
5.89166557e-05
5.89107749e-05
5.89049613e-05
5.8899209e-05
5.88935232e-05
5.88878982e-05
5.8882339e-05
5.88768401e-05
5.88714063e-05
5.88660323e-05
5.88607227e-05
5.88554723e-05
5.88502855e-05
5.88451573e-05
5.8840092e-05
5.88350847e-05
5.88301395e-05
5.88252516e-05
5.88204251e-05
5.88156552e-05
5.88109459e-05
5.88062925e-05
5.88016988e-05
5.87971604e-05
5.87926808e-05
5.87882558e-05
5.87838889e-05
5.87795757e-05
5.87753198e-05
5.87711169e-05
5.87669703e-05
5.8762876e-05
5.87588371e-05
5.87548498e-05
5.87509169e-05
5.87470349e-05
5.87432065e-05
5.8739428e-05
5.87357023e-05
5.87320257e-05
5.8728401e-05
5.87248246e-05
5.87212991e-05
5.87178213e-05
5.87143933e-05
5.87110121e-05
5.87076799e-05
5.87043938e-05
5.87011556e-05
5.86979627e-05
5.86948168e-05
5.86917154e-05
5.86886601e-05
5.86856483e-05
5.86826818e-05
5.86797581e-05
5.86768786e-05
5.8674041e-05
5.86712468e-05
5.86684937e-05
5.86657802e-05
5.8663009e-05
5.86600898e-05
5.86570168e-05
5.86537883e-05
5.86503994e-05
5.86468498e-05
5.86431365e-05
5.86392612e-05
5.86352232e-05
5.86310269e-05
5.86266748e-05
5.86221748e-05
5.86175335e-05
5.8612763e-05
5.86078751e-05
5.86028866e-05
5.85978154e-05
5.85926834e-05
5.85875151e-05
5.85823377e-05
5.85771824e-05
5.85720808e-05
5.85670696e-05
5.85621835e-05
5.85574626e-05
5.85529414e-05
5.85486599e-05
5.85446484e-05
5.85409414e-05
5.85375599e-05
5.85345275e-05
5.85318508e-05
5.8529537e-05
5.85275758e-05
5.85259554e-05
5.85246492e-05
5.85236283e-05
5.85228557e-05
5.85222926e-05
5.85219001e-05
5.85216404e-05
5.85214815e-05
5.85213917e-05
5.85213616e-05
5.85212621e-05
5.85211811e-05
5.85211462e-05
5.85211293e-05
5.85211245e-05
5.85211215e-05
5.85211208e-05
5.85211204e-05
5.85211203e-05
5.85211203e-05
5.85211203e-05
5.85211203e-05
5.85211203e-05
5.85211203e-05
5.85211203e-05
5.85211203e-05
5.85211203e-05
5.85211203e-05
5.85211203e-05
5.85211203e-05
5.85211203e-05
5.85211203e-05
5.85211203e-05
5.85211203e-05
5.85211203e-05
5.85211203e-05
5.85211203e-05
5.85211203e-05
5.85211203e-05
5.85211203e-05
5.85211203e-05
5.85211203e-05
5.85211203e-05
)
;

boundaryField
{
    closed
    {
        type            calculated;
        value           nonuniform List<scalar> 0();
    }
    open
    {
        type            calculated;
        value           uniform 5.85211203e-05;
    }
    sides
    {
        type            empty;
    }
    procBoundary5to4
    {
        type            processor;
        value           uniform 5.97973821e-05;
    }
}


// ************************************************************************* //
