/*--------------------------------*- C++ -*----------------------------------*\
| =========                 |                                                 |
| \\      /  F ield         | OpenFOAM: The Open Source CFD Toolbox           |
|  \\    /   O peration     | Version:  2306                                  |
|   \\  /    A nd           | Website:  www.openfoam.com                      |
|    \\/     M anipulation  |                                                 |
\*---------------------------------------------------------------------------*/
FoamFile
{
    version     2.0;
    format      ascii;
    arch        "LSB;label=32;scalar=64";
    class       volScalarField;
    location    "0.00122";
    object      prefDh_H2O;
}
// * * * * * * * * * * * * * * * * * * * * * * * * * * * * * * * * * * * * * //

dimensions      [1 1 -3 0 0 0 0];

internalField   nonuniform List<scalar> 
530
(
-201.475586
-201.635067
-201.785206
-201.938289
-202.082009
-202.229031
-202.366717
-202.508
-202.640015
-202.775865
-202.902551
-203.028479
-203.143994
-203.263217
-203.373967
-203.488478
-203.594714
-203.704736
-203.806689
-203.917591
-204.021081
-204.129678
-204.229071
-204.333816
-204.429338
-204.53044
-204.622304
-204.719964
-204.808375
-204.902013
-204.986418
-205.076858
-205.158081
-205.245462
-205.323637
-205.408096
-205.483351
-205.565019
-205.637475
-205.71648
-205.786253
-205.862718
-205.929917
-206.003963
-206.068695
-206.140436
-206.202801
-206.27235
-206.332445
-206.39991
-206.457829
-206.523316
-206.579148
-206.642759
-206.696592
-206.758425
-206.809298
-206.86723
-206.915457
-206.97186
-207.018394
-207.073323
-207.118221
-207.171725
-207.215046
-207.267165
-207.308972
-207.359742
-207.400097
-207.449552
-207.48851
-207.536696
-207.574294
-207.621288
-207.657527
-207.703458
-207.73829
-207.781905
-207.816231
-207.858504
-207.893215
-207.932983
-207.967931
-208.00539
-208.040474
-208.075784
-208.110935
-208.144226
-208.179395
-208.210783
-208.24593
-208.275527
-208.310612
-208.33853
-208.373512
-208.399863
-208.434703
-208.459596
-208.494264
-208.517794
-208.551393
-208.574059
-208.607441
-208.629558
-208.661455
-208.683043
-208.713963
-208.735245
-208.765195
-208.786193
-208.815186
-208.835913
-208.86397
-208.884431
-208.911576
-208.93177
-208.958035
-208.977958
-209.003372
-209.02302
-209.047611
-209.066979
-209.090777
-209.109859
-209.132892
-209.151685
-209.173977
-209.192478
-209.214053
-209.232259
-209.253141
-209.271051
-209.291258
-209.308872
-209.328425
-209.345742
-209.364659
-209.38168
-209.399979
-209.416705
-209.434402
-209.450833
-209.467944
-209.484081
-209.500621
-209.516467
-209.53245
-209.548007
-209.563446
-209.578715
-209.593624
-209.608607
-209.622998
-209.637699
-209.651582
-209.666004
-209.679389
-209.693536
-209.706434
-209.720309
-209.732729
-209.746335
-209.758288
-209.771628
-209.783122
-209.796198
-209.807247
-209.820059
-209.830673
-209.843222
-209.853418
-209.865595
-209.875525
-209.88736
-209.896975
-209.908458
-209.917772
-209.928906
-209.937929
-209.948715
-209.957455
-209.967898
-209.976363
-209.986465
-209.994663
-210.004427
-210.012365
-210.021797
-210.02948
-210.038586
-210.046018
-210.054804
-210.06199
-210.070463
-210.077408
-210.085574
-210.092281
-210.100148
-210.106623
-210.114197
-210.120443
-210.127733
-210.133754
-210.140769
-210.146568
-210.153316
-210.158897
-210.16539
-210.16987
-210.17505
-210.179595
-210.185289
-210.189949
-210.195453
-210.199972
-210.205291
-210.209669
-210.214806
-210.219045
-210.224003
-210.228103
-210.232887
-210.236849
-210.24146
-210.245287
-210.249729
-210.253422
-210.257698
-210.261258
-210.265371
-210.2688
-210.272754
-210.276053
-210.27985
-210.283021
-210.286665
-210.289708
-210.293204
-210.296121
-210.29947
-210.302265
-210.305469
-210.308145
-210.311206
-210.313767
-210.316561
-210.318829
-210.321412
-210.323508
-210.325904
-210.327835
-210.330048
-210.331819
-210.333852
-210.335467
-210.337327
-210.33879
-210.340482
-210.341797
-210.343327
-210.344498
-210.34587
-210.346901
-210.348121
-210.349016
-210.350089
-210.350852
-210.351783
-210.352419
-210.353213
-210.353723
-210.354386
-210.354776
-210.355311
-210.355585
-210.355997
-210.356159
-210.356452
-210.356507
-210.356685
-210.356638
-210.356702
-210.356559
-210.355591
-210.354053
-210.35263
-210.351041
-210.349566
-210.347931
-210.346404
-210.344726
-210.34315
-210.341431
-210.339808
-210.338052
-210.336385
-210.334592
-210.332884
-210.331058
-210.329311
-210.327453
-210.32567
-210.323783
-210.321966
-210.320052
-210.318205
-210.316266
-210.31439
-210.312428
-210.310527
-210.308544
-210.30662
-210.304619
-210.302673
-210.300655
-210.298691
-210.296659
-210.294678
-210.292635
-210.29064
-210.288586
-210.286579
-210.284517
-210.2825
-210.280432
-210.278407
-210.276336
-210.274304
-210.272231
-210.270196
-210.268123
-210.266085
-210.264014
-210.261977
-210.259908
-210.257874
-210.255809
-210.253781
-210.25172
-210.249701
-210.247644
-210.245636
-210.243573
-210.241539
-210.239459
-210.237413
-210.235333
-210.233281
-210.231203
-210.22915
-210.227077
-210.225027
-210.22296
-210.220917
-210.21886
-210.216826
-210.214781
-210.21276
-210.210729
-210.208723
-210.206709
-210.204721
-210.202726
-210.200758
-210.198785
-210.196839
-210.19489
-210.192968
-210.191045
-210.189149
-210.187253
-210.185385
-210.183519
-210.18168
-210.179845
-210.178037
-210.176235
-210.17446
-210.172691
-210.17095
-210.169217
-210.16751
-210.165814
-210.164142
-210.162484
-210.16085
-210.159228
-210.15694
-210.154539
-210.152174
-210.149835
-210.147531
-210.145253
-210.14301
-210.140793
-210.138611
-210.136455
-210.134335
-210.132239
-210.130179
-210.128144
-210.126145
-210.12417
-210.122231
-210.120317
-210.118437
-210.116583
-210.114763
-210.112967
-210.111206
-210.109469
-210.107766
-210.106088
-210.104442
-210.102821
-210.101233
-210.099669
-210.098138
-210.09663
-210.095154
-210.093702
-210.092281
-210.090884
-210.089517
-210.088174
-210.086861
-210.08557
-210.08431
-210.083072
-210.081863
-210.080677
-210.079519
-210.078383
-210.077275
-210.076189
-210.07513
-210.074093
-210.073082
-210.072092
-210.071128
-210.070185
-210.069268
-210.06837
-210.067498
-210.066645
-210.065817
-210.065008
-210.064223
-210.063457
-210.062714
-210.061989
-210.061287
-210.060602
-210.059915
-210.0592
-210.058463
-210.057701
-210.056922
-210.056121
-210.05531
-210.054485
-210.053658
-210.052828
-210.05201
-210.051203
-210.050424
-210.049676
-210.048976
-210.048331
-210.04776
-210.047272
-210.046886
-210.046614
-210.046477
-210.046483
-210.046655
-210.046999
-210.047532
-210.048257
-210.049182
-210.050303
-210.051614
-210.053101
-210.054743
-210.056514
-210.058376
-210.060291
-210.062212
-210.064092
-210.065887
-210.067551
-210.069061
-210.07037
-210.071511
-210.072422
-210.073184
-210.073867
-210.073769
-210.07369
-210.073656
-210.07364
-210.073635
-210.073633
-210.073632
-210.073632
-210.073632
-210.073632
-210.073632
-210.073632
-210.073632
-210.073632
-210.073632
-210.073632
-210.073632
-210.073632
-210.073632
-210.073632
-210.073632
-210.073632
-210.073632
-210.073632
-210.073632
-210.073632
-210.073632
-210.073632
-210.073632
-210.073632
-210.073632
-210.073632
-210.073632
)
;

boundaryField
{
    closed
    {
        type            calculated;
        value           nonuniform List<scalar> 0();
    }
    open
    {
        type            calculated;
        value           uniform -210.073632;
    }
    sides
    {
        type            empty;
    }
    procBoundary5to4
    {
        type            processor;
        value           uniform -201.318619;
    }
}


// ************************************************************************* //
