/*--------------------------------*- C++ -*----------------------------------*\
| =========                 |                                                 |
| \\      /  F ield         | OpenFOAM: The Open Source CFD Toolbox           |
|  \\    /   O peration     | Version:  2306                                  |
|   \\  /    A nd           | Website:  www.openfoam.com                      |
|    \\/     M anipulation  |                                                 |
\*---------------------------------------------------------------------------*/
FoamFile
{
    version     2.0;
    format      ascii;
    arch        "LSB;label=32;scalar=64";
    class       volScalarField;
    location    "0.00122";
    object      T;
}
// * * * * * * * * * * * * * * * * * * * * * * * * * * * * * * * * * * * * * //

dimensions      [0 0 0 1 0 0 0];

internalField   nonuniform List<scalar> 
530
(
1700.07396
1701.57908
1702.98945
1704.44137
1705.79839
1707.20062
1708.50781
1709.86361
1711.12438
1712.43686
1713.6544
1714.88026
1715.99569
1717.16487
1718.24032
1719.37195
1720.40931
1721.50504
1722.50614
1723.61869
1724.64103
1725.73554
1726.72165
1727.78221
1728.73398
1729.76244
1730.68168
1731.67986
1732.56832
1733.50093
1734.3231
1735.22565
1736.01735
1736.89085
1737.65305
1738.49854
1739.23222
1740.05067
1740.75678
1741.54912
1742.2286
1742.99572
1743.64946
1744.39225
1745.02113
1745.74043
1746.34533
1747.04197
1747.62373
1748.29854
1748.858
1749.5118
1750.04977
1750.68343
1751.20067
1751.81509
1752.29847
1752.86364
1753.31409
1753.85977
1754.2894
1754.81603
1755.22511
1755.73307
1756.12195
1756.61152
1756.98062
1757.45187
1757.8018
1758.25453
1758.58602
1759.01989
1759.33359
1759.74882
1760.0447
1760.44324
1760.71987
1761.08307
1761.35098
1761.69785
1761.96754
1762.28102
1762.54907
1762.83223
1763.09663
1763.35153
1763.61099
1763.83925
1764.09286
1764.29592
1764.54287
1764.72215
1764.96165
1765.11866
1765.34978
1765.48628
1765.70787
1765.82584
1766.03663
1766.13821
1766.3302
1766.41628
1766.60339
1766.66878
1766.82844
1766.87118
1767.01774
1767.04532
1767.17821
1767.19126
1767.31024
1767.30912
1767.41412
1767.39905
1767.49013
1767.46123
1767.5385
1767.49587
1767.55943
1767.50318
1767.55314
1767.48335
1767.51984
1767.43661
1767.45973
1767.36316
1767.37303
1767.26324
1767.25997
1767.13706
1767.12077
1766.98485
1766.95566
1766.80685
1766.76488
1766.60329
1766.54867
1766.37442
1766.30728
1766.1205
1766.04097
1765.84177
1765.74999
1765.53851
1765.43461
1765.21098
1765.0951
1764.85948
1764.73173
1764.48427
1764.34479
1764.08565
1763.93456
1763.66393
1763.50135
1763.2194
1763.04547
1762.75236
1762.56725
1762.26312
1762.06704
1761.75198
1761.54524
1761.21925
1761.00226
1760.66528
1760.43855
1760.09044
1759.85456
1759.4952
1759.25143
1758.89013
1758.62554
1758.2575
1757.97948
1757.60575
1757.31408
1756.935
1756.62991
1756.24561
1755.92752
1755.53797
1755.20741
1754.81249
1754.47005
1754.06962
1753.71589
1753.30983
1752.94538
1752.5336
1752.15896
1751.74143
1751.35709
1750.93382
1750.54025
1750.11128
1749.70893
1749.27435
1748.86363
1748.42355
1748.00488
1747.55945
1747.13323
1746.68261
1746.24922
1745.7936
1745.35345
1744.89301
1744.44568
1743.97968
1743.5259
1743.05456
1742.59446
1742.11868
1741.6529
1741.17282
1740.70164
1740.2174
1739.7411
1739.25287
1738.77171
1738.27966
1737.79391
1737.29821
1736.80813
1736.30897
1735.81483
1735.31239
1734.81443
1734.30891
1733.80739
1733.29898
1732.79414
1732.28304
1731.77513
1731.26154
1730.75082
1730.23493
1729.72163
1729.20366
1728.68803
1728.16817
1727.65045
1727.12891
1726.60933
1726.08745
1725.56732
1725.04386
1724.5218
1723.99676
1723.47302
1722.94661
1722.42143
1721.89389
1721.36753
1720.83907
1720.31176
1719.78262
1719.25459
1718.72498
1718.19648
1717.66663
1717.13788
1716.60801
1716.07924
1715.54956
1715.021
1714.49174
1713.9636
1713.43496
1712.90746
1712.37965
1711.85302
1711.32625
1710.80068
1710.27515
1709.75087
1709.22677
1708.70397
1708.18149
1707.66038
1707.13972
1706.6205
1706.1006
1705.58185
1705.06397
1704.54782
1704.03267
1703.51929
1703.00703
1702.49659
1701.98736
1701.48001
1700.97397
1700.46986
1699.96716
1699.46644
1698.96721
1698.47003
1697.97442
1697.48091
1696.98904
1696.49934
1696.01135
1695.52559
1695.04161
1694.55991
1694.08006
1693.60253
1693.12693
1692.6537
1692.18246
1691.71365
1691.24687
1690.78257
1690.32038
1689.86069
1689.40317
1688.9482
1688.49545
1688.0453
1687.5974
1687.15215
1686.70919
1686.26893
1685.831
1685.3958
1684.96298
1684.53292
1684.10528
1683.68043
1683.25803
1682.83846
1682.42137
1682.00714
1681.59542
1681.18658
1680.7803
1680.37689
1679.9761
1679.57818
1679.18292
1678.79117
1678.40321
1678.01806
1677.63549
1677.25578
1676.87866
1676.50444
1676.13282
1675.76413
1675.39806
1675.03493
1674.67444
1674.31691
1673.96204
1673.61014
1673.26091
1672.91466
1672.5711
1672.23052
1671.89264
1671.55775
1671.22557
1670.89638
1670.56991
1670.24643
1669.92566
1669.60789
1669.29284
1668.98077
1668.67143
1668.36507
1668.06143
1667.76077
1667.46281
1667.16783
1666.87556
1666.58624
1666.29962
1666.01596
1665.73497
1665.45693
1665.18155
1664.90911
1664.63932
1664.37243
1664.10565
1663.84131
1663.57965
1663.32092
1663.06485
1662.81168
1662.56115
1662.3135
1662.06848
1661.82629
1661.58671
1661.34994
1661.11576
1660.88436
1660.65551
1660.42942
1660.20586
1659.98503
1659.76669
1659.55105
1659.33788
1659.12737
1658.91932
1658.71388
1658.51086
1658.31043
1658.11239
1657.9169
1657.72378
1657.53317
1657.34489
1657.15909
1656.97559
1656.79453
1656.61573
1656.43934
1656.26519
1656.0934
1655.92381
1655.75655
1655.59145
1655.42865
1655.26798
1655.10956
1654.95324
1654.79912
1654.64708
1654.4972
1654.34936
1654.20364
1654.05993
1653.9183
1653.77864
1653.64102
1653.50533
1653.37165
1653.23987
1653.11005
1652.98209
1652.85606
1652.73185
1652.60953
1652.489
1652.37032
1652.25339
1652.13814
1652.02046
1651.89649
1651.76601
1651.62892
1651.48505
1651.33436
1651.17674
1651.01225
1650.84088
1650.6628
1650.47815
1650.28724
1650.09037
1649.88804
1649.68078
1649.46929
1649.25434
1649.03686
1648.8179
1648.59862
1648.38034
1648.16441
1647.9524
1647.74576
1647.54621
1647.35521
1647.17445
1647.00522
1646.84897
1646.70658
1646.57904
1646.46662
1646.36961
1646.28754
1646.2199
1646.16554
1646.12322
1646.09135
1646.06827
1646.05232
1646.0419
1646.03564
1646.03223
1646.03131
1646.02706
1646.02361
1646.02211
1646.02139
1646.02119
1646.02106
1646.02103
1646.02101
1646.02101
1646.021
1646.021
1646.021
1646.021
1646.021
1646.021
1646.021
1646.021
1646.021
1646.021
1646.021
1646.021
1646.021
1646.021
1646.021
1646.021
1646.021
1646.021
1646.021
1646.021
1646.021
1646.021
1646.021
1646.021
)
;

boundaryField
{
    closed
    {
        type            fixedValue;
        value           nonuniform List<scalar> 0();
    }
    open
    {
        type            zeroGradient;
    }
    sides
    {
        type            empty;
    }
    procBoundary5to4
    {
        type            processor;
        value           uniform 1698.60658;
    }
}


// ************************************************************************* //
