/*--------------------------------*- C++ -*----------------------------------*\
| =========                 |                                                 |
| \\      /  F ield         | OpenFOAM: The Open Source CFD Toolbox           |
|  \\    /   O peration     | Version:  2306                                  |
|   \\  /    A nd           | Website:  www.openfoam.com                      |
|    \\/     M anipulation  |                                                 |
\*---------------------------------------------------------------------------*/
FoamFile
{
    version     2.0;
    format      ascii;
    arch        "LSB;label=32;scalar=64";
    class       volScalarField;
    location    "0.00192";
    object      sourcePV;
}
// * * * * * * * * * * * * * * * * * * * * * * * * * * * * * * * * * * * * * //

dimensions      [1 -3 -1 0 0 0 0];

internalField   nonuniform List<scalar> 
530
(
0.00368735823
0.00569437692
0.0859041762
0.162786664
0.162462578
0.00381426598
0.0055776819
0.0730127866
0.162489628
0.161822404
0.00380493497
0.0055798006
0.077703319
0.162757689
0.161760342
0.00400984537
0.00554414843
0.0820990052
0.165100658
0.163402264
0.00414870186
0.00557155037
0.0924513993
0.1665333
0.170318345
0.0802259071
0.00528021527
0.00620569507
0.00596072552
0.0717806048
0.143542557
0.168016219
0.165476224
0.00449543527
0.00610313275
0.122720154
0.129697868
0.00460246286
0.00649677057
0.00568673624
0.0786452343
0.13837397
0.166896341
0.165264486
0.00471428141
0.00557995871
0.0848606089
0.165423604
0.161258957
0.00472367002
0.00589845015
0.0779908775
0.145289295
0.145330088
0.178645671
0.174694951
0.00422271009
0.00598787807
0.00566114391
0.104279904
0.122318302
0.00480809452
0.00660480423
0.00581514456
0.0890719607
0.145248773
0.167553377
0.166231367
0.0045870601
0.00545436737
0.0903091174
0.169946913
0.165775348
0.00448587696
0.00536638284
0.0915406127
0.174270429
0.169163767
0.0041184876
0.00579019693
0.135372961
0.145249222
0.0136034643
0.00633037221
0.0051795996
0.117750922
0.162670613
0.152354991
0.1733291
0.138402254
0.00445260897
0.00568345179
0.00548933196
0.00539872496
0.123854184
0.149773201
0.172366524
0.17016489
0.00304739445
0.00573377911
0.00434440568
0.00609645201
0.0478283971
0.126624331
0.117821795
0.142165115
0.156507581
0.00391585812
0.00510643868
0.125234091
0.0508583369
0.00644609249
0.00309921883
0.11810117
0.150321297
0.16328954
0.162037013
0.00380621701
0.00549878155
0.0822384156
0.16471782
0.16303191
0.00397812864
0.00603876443
0.118963069
0.14197662
0.0038707907
0.00635362986
0.121497339
0.137965507
0.00397266451
0.00627058886
0.101418086
0.143127425
0.164313529
0.163427377
0.00365314053
0.00556774496
0.0799132142
0.16228195
0.161425084
0.00374471673
0.00551797564
0.084333605
0.166928132
0.166086586
0.00352136693
0.00527788086
0.139892677
0.186663531
0.00297477729
0.00395247046
0.108390939
0.00320345722
0.00652639742
0.0985687619
0.127800702
0.173726442
0.172698619
0.00295784281
0.004212138
0.106432363
0.00320642768
0.0065104726
0.0723178647
0.126554213
0.131279173
0.159456486
0.158345817
0.00357175319
0.00577012998
0.124698436
0.152569375
0.00311556067
0.00569381224
0.131452259
0.155733792
0.00292194089
0.00542197909
0.0607748212
0.168619947
0.173744402
0.0557969107
0.00540766394
0.00507379443
0.129749777
0.178357595
0.0462206609
0.00551129947
0.00513199984
0.0823629722
0.182993671
0.181770323
0.00882852333
0.00577702001
0.00550409518
0.103216993
0.145247803
0.173280726
0.173036741
0.00315359452
0.0972450039
0.171600147
0.00292769432
0.00565554133
0.129505913
0.146515593
0.00318518481
0.00623381894
0.0751893493
0.12594986
0.162414693
0.161485205
0.00345441598
0.0843258166
0.163805542
0.00291227217
0.00570926277
0.130643768
0.152196102
0.00292991396
0.00583053672
0.130115422
0.153390907
0.00291245155
0.00554551693
0.128283834
0.171053816
0.00282646045
0.00414609569
0.118121003
0.00274342207
0.00588936934
0.10165458
0.174619185
0.173766983
0.00261349798
0.00546996249
0.129287827
0.15669661
0.00264845547
0.00545046858
0.0652698109
0.170537311
0.16933322
0.00217127056
0.00552810442
0.130293984
0.154561137
0.0023873591
0.00548420324
0.0540677449
0.167849479
0.167258142
0.0211165179
0.00595868438
0.010043758
0.118321814
0.169753983
0.148915722
0.00401047001
0.0852651406
0.146321842
0.00290774134
0.0061129939
0.0794555274
0.127538485
0.172675777
0.17132753
0.00974904935
0.00535548698
0.0047290285
0.00553801192
0.117160519
0.157016512
0.00251342243
0.00580018045
0.102660321
0.144285948
0.167090501
0.166099079
0.00297305975
0.0885362448
0.164968677
0.00262237701
0.0054008483
0.0744055999
0.163027702
0.163372623
0.0146896824
0.00465618559
0.00467327959
0.00389241944
0.149992244
0.162073327
0.012166704
0.078954371
0.15666238
0.00800484878
0.00596249348
0.0561260738
0.127971584
0.154127247
0.153125351
0.00401792362
0.00584395879
0.0872939229
0.164437705
0.161602182
0.00327912553
0.00573360688
0.125955352
0.167919423
0.0182107771
0.00519108461
0.0537882317
0.16662223
0.171012609
0.0250479445
0.00545367564
0.120407265
0.147155983
0.0178094281
0.00608669022
0.0460147796
0.120167907
0.154106957
0.152384109
0.0117095588
0.00591894614
0.111211169
0.147462524
0.00954559303
0.00603305636
0.0843781666
0.132314237
0.166779437
0.165499774
0.0200658946
0.0054062706
0.13269644
0.15318816
0.017237804
0.00562386043
0.00493362929
0.143667726
0.175019797
0.0106660214
0.00485191545
0.0707270883
0.170071786
0.167001455
0.00994833989
0.00491980094
0.142951883
0.151047374
0.00242216939
0.00582458359
0.00425257979
0.142275611
0.158148167
0.00374133558
0.0050262239
0.106340097
0.143931039
0.167251833
0.154040755
0.0037359052
0.00416224821
0.135812272
0.133425373
0.00465682464
0.00532932732
0.100833466
0.138045697
0.164500287
0.139539666
0.00263351602
0.118071411
0.159641243
0.00450595908
0.00370942798
0.146100134
0.143261654
0.00455125882
0.00390876903
0.143753178
0.139184241
0.00475469108
0.00407725733
0.141507611
0.136877269
0.00490431766
0.00422525438
0.13884109
0.133896604
0.00503363065
0.00446658976
0.134138969
0.126688425
0.00536261228
0.00577027911
0.0920631489
0.135080452
0.162242869
0.134880616
0.00366635503
0.102675473
0.15147035
0.00478720779
0.00460410764
0.140791356
0.140625097
0.00500660684
0.00490705355
0.133737185
0.1309393
0.00527023951
0.00589750618
0.0904015943
0.134598202
0.162246723
0.138103338
0.00368825959
0.098967405
0.151973668
0.0040910715
0.00478428608
0.137818942
0.14309991
0.004009528
0.00489135917
0.138013459
0.140564389
0.0040466621
0.0064228612
0.00543399143
0.115557009
0.159623666
0.152100772
0.172838613
0.158852693
0.00407182228
0.00534714874
0.00525652545
0.00498230436
0.139943839
0.159813021
0.00280943479
0.00470577301
0.143531487
0.154089181
0.0033624989
0.00495718443
0.107456871
0.177060406
0.166431412
0.00386734955
0.00501553296
0.133149087
0.145643604
0.00349077719
0.00532154377
0.092120452
0.165922708
0.158827059
0.00423853665
0.00531913856
0.0844278933
0.166333393
0.160609503
0.00425058472
0.00526329856
0.0875538186
0.169422394
0.165209475
0.00404495846
0.00531346004
0.130567001
0.144039514
0.00355000752
0.00550838374
0.0879461672
0.16440614
0.161480476
0.00436934336
0.00531236197
0.0924344656
0.171997606
0.168743107
0.00407891649
0.00542894289
0.13196741
0.146839068
0.00355817368
0.00546135951
0.094088806
0.170528565
0.169813093
0.00409935689
0.00550614729
0.131228046
0.146792234
0.00335024249
0.00571694708
0.128735369
0.141150191
0.00350756741
0.0057098516
0.0742517655
0.160692129
0.160594503
0.0036126259
0.00551483954
0.0661048381
0.162624514
0.162645224
0.00344529137
0.00545234149
0.0771547541
0.164690693
0.16445943
0.00355260705
0.00546600475
0.074398235
0.16465244
0.164346598
0.00339704015
0.00546998261
0.074600812
)
;

boundaryField
{
    closed
    {
        type            calculated;
        value           nonuniform List<scalar> 0();
    }
    open
    {
        type            calculated;
        value           nonuniform List<scalar> 0();
    }
    sides
    {
        type            empty;
    }
    procBoundary2to1
    {
        type            processor;
        value           uniform 0;
    }
    procBoundary2to3
    {
        type            processor;
        value           uniform 0;
    }
}


// ************************************************************************* //
