/*--------------------------------*- C++ -*----------------------------------*\
| =========                 |                                                 |
| \\      /  F ield         | OpenFOAM: The Open Source CFD Toolbox           |
|  \\    /   O peration     | Version:  2306                                  |
|   \\  /    A nd           | Website:  www.openfoam.com                      |
|    \\/     M anipulation  |                                                 |
\*---------------------------------------------------------------------------*/
FoamFile
{
    version     2.0;
    format      ascii;
    arch        "LSB;label=32;scalar=64";
    class       volScalarField;
    location    "0.0008";
    object      prefDZ_H2;
}
// * * * * * * * * * * * * * * * * * * * * * * * * * * * * * * * * * * * * * //

dimensions      [1 -1 -1 0 0 0 0];

internalField   nonuniform List<scalar> 
530
(
6.3597098e-05
6.25211704e-05
6.23332892e-05
6.23307088e-05
6.23304662e-05
6.23304601e-05
6.23304598e-05
6.23304597e-05
6.23304597e-05
6.23304597e-05
6.23304597e-05
6.23304597e-05
6.23304597e-05
6.23304597e-05
6.23304597e-05
6.23304597e-05
6.23304597e-05
6.23304597e-05
6.23304597e-05
6.23304597e-05
6.23304597e-05
6.23304597e-05
6.23304597e-05
6.23304597e-05
6.23304597e-05
6.23304597e-05
6.23304597e-05
6.23304597e-05
6.23304597e-05
6.23304597e-05
6.23304597e-05
6.23304597e-05
6.23304597e-05
6.23304597e-05
6.23304597e-05
6.23304597e-05
6.23304597e-05
6.23304597e-05
6.23304597e-05
6.23304597e-05
6.23304597e-05
6.23304597e-05
6.23304597e-05
6.23304597e-05
6.23304597e-05
6.23304597e-05
6.23304597e-05
6.23304597e-05
6.23304597e-05
6.23304597e-05
6.23304597e-05
6.23304597e-05
6.23304597e-05
6.23304597e-05
6.23304597e-05
6.23304597e-05
6.23304597e-05
6.23304597e-05
6.23304597e-05
6.23304597e-05
6.23304597e-05
6.23304597e-05
6.23304597e-05
6.23304597e-05
6.23304597e-05
6.23304597e-05
6.23304597e-05
6.23304598e-05
6.23304598e-05
6.23304598e-05
6.23304599e-05
6.23304602e-05
6.23304607e-05
6.23304626e-05
6.2330465e-05
6.23304757e-05
6.2330489e-05
6.23305315e-05
6.23305747e-05
6.23307302e-05
6.23308874e-05
6.23312073e-05
6.23318874e-05
6.23332989e-05
6.23325927e-05
6.23274173e-05
6.23359569e-05
6.2375562e-05
6.23724165e-05
6.22840706e-05
6.23099707e-05
6.26416808e-05
6.27336254e-05
6.2275111e-05
6.16080506e-05
6.22783876e-05
6.35695888e-05
6.35847208e-05
6.35102823e-05
6.14971458e-05
6.14944249e-05
6.16998111e-05
6.2316725e-05
6.35855227e-05
6.35486686e-05
6.35886141e-05
6.35276037e-05
6.13883158e-05
6.13768708e-05
6.19309687e-05
6.23407353e-05
6.36245927e-05
6.35723267e-05
6.22953556e-05
6.17880286e-05
6.21020663e-05
6.1860554e-05
6.23768399e-05
6.35845178e-05
6.35785145e-05
6.35806613e-05
6.35573107e-05
6.14175848e-05
6.12511438e-05
6.23083829e-05
6.35726026e-05
6.35426335e-05
6.15572013e-05
6.15483282e-05
6.23153674e-05
6.35557316e-05
6.35448823e-05
6.16499883e-05
6.19984473e-05
6.35766841e-05
6.35220125e-05
6.13632635e-05
6.16011711e-05
6.35892664e-05
6.3517717e-05
6.17827559e-05
6.1954571e-05
6.35997866e-05
6.35228377e-05
6.19354147e-05
6.16452922e-05
6.22827831e-05
6.35503521e-05
6.35811007e-05
6.13931931e-05
6.17031721e-05
6.35784647e-05
6.35648374e-05
6.17481539e-05
6.20036378e-05
6.35942833e-05
6.35516916e-05
6.18201587e-05
6.17353105e-05
6.22855887e-05
6.35657323e-05
6.35839454e-05
6.15853031e-05
6.18288408e-05
6.35940379e-05
6.35618781e-05
6.18874054e-05
6.20722475e-05
6.36076555e-05
6.35434281e-05
6.1990164e-05
6.17398519e-05
6.22888253e-05
6.3554552e-05
6.35819281e-05
6.18082338e-05
6.17973591e-05
6.1829504e-05
6.22217459e-05
6.35878665e-05
6.35800158e-05
6.17985883e-05
6.20254919e-05
6.36049672e-05
6.35610091e-05
6.18344856e-05
6.20645657e-05
6.36142851e-05
6.35522254e-05
6.17427938e-05
6.16361893e-05
6.22984146e-05
6.35681315e-05
6.35931467e-05
6.18765601e-05
6.22109097e-05
6.35862005e-05
6.35708817e-05
6.18169077e-05
6.16970478e-05
6.23179848e-05
6.35746186e-05
6.35612018e-05
6.16372204e-05
6.16346661e-05
6.21741458e-05
6.35713346e-05
6.35651101e-05
6.16742976e-05
6.19261611e-05
6.35763071e-05
6.35502773e-05
6.16730161e-05
6.18161477e-05
6.35778722e-05
6.35403885e-05
6.16376113e-05
6.17661468e-05
6.35798874e-05
6.35346534e-05
6.16074614e-05
6.17345566e-05
6.35818979e-05
6.35334929e-05
6.15930369e-05
6.17206518e-05
6.35842107e-05
6.35353549e-05
6.16045502e-05
6.17374825e-05
6.358697e-05
6.35375076e-05
6.16511415e-05
6.17999208e-05
6.35913718e-05
6.35377347e-05
6.16889923e-05
6.19063879e-05
6.36022272e-05
6.35363236e-05
6.15569796e-05
6.14566843e-05
6.20843379e-05
6.35588443e-05
6.35951128e-05
6.16861586e-05
6.19772725e-05
6.35826817e-05
6.35823026e-05
6.17856742e-05
6.20194801e-05
6.36060101e-05
6.35700609e-05
6.1692032e-05
6.16221793e-05
6.21879675e-05
6.35830752e-05
6.36038757e-05
6.18086137e-05
6.21457921e-05
6.36116113e-05
6.35852428e-05
6.17792111e-05
6.17491362e-05
6.22669773e-05
6.3584462e-05
6.36145912e-05
6.19005926e-05
6.21533742e-05
6.35989064e-05
6.36041793e-05
6.18240133e-05
6.18641931e-05
6.18617121e-05
6.22191529e-05
6.36106921e-05
6.36161191e-05
6.1894267e-05
6.21640272e-05
6.36248272e-05
6.36083498e-05
6.19142268e-05
6.18213043e-05
6.22773559e-05
6.36120695e-05
6.36129188e-05
6.36058902e-05
6.18241021e-05
6.18234973e-05
6.18389612e-05
6.22078308e-05
6.36258677e-05
6.35991576e-05
6.18382612e-05
6.18364218e-05
6.22836885e-05
6.36192281e-05
6.36223001e-05
6.20160089e-05
6.19652047e-05
6.22760303e-05
6.36158187e-05
6.3614122e-05
6.19390225e-05
6.1843014e-05
6.22967842e-05
6.3613147e-05
6.35966602e-05
6.18049107e-05
6.18042368e-05
6.21332751e-05
6.36003231e-05
6.35953297e-05
6.18344391e-05
6.20850613e-05
6.3612583e-05
6.35746068e-05
6.16876971e-05
6.15961919e-05
6.19837291e-05
6.35736121e-05
6.35923238e-05
6.16257722e-05
6.19259105e-05
6.35748714e-05
6.35876066e-05
6.35644221e-05
6.35798461e-05
6.14534336e-05
6.14446169e-05
6.15306368e-05
6.18270419e-05
6.35662818e-05
6.35815517e-05
6.16312618e-05
6.18028215e-05
6.35821585e-05
6.35771532e-05
6.1727288e-05
6.19146196e-05
6.36091133e-05
6.35653852e-05
6.17033068e-05
6.16306902e-05
6.20085958e-05
6.35840403e-05
6.36251239e-05
6.18066644e-05
6.19787506e-05
6.35956136e-05
6.36230623e-05
6.18732291e-05
6.20172599e-05
6.36157019e-05
6.36067879e-05
6.18570546e-05
6.18055887e-05
6.23086724e-05
6.35918217e-05
6.36118649e-05
6.18772659e-05
6.18099413e-05
6.20606292e-05
6.16999346e-05
6.21984982e-05
6.3616768e-05
6.36134846e-05
6.36210006e-05
6.3612129e-05
6.18071805e-05
6.16999287e-05
6.22820149e-05
6.36080678e-05
6.36110112e-05
6.19233603e-05
6.19551957e-05
6.19818072e-05
6.18771048e-05
6.19185551e-05
6.26166862e-05
6.36107173e-05
6.35530794e-05
6.36137183e-05
6.18218459e-05
6.18206135e-05
6.36140778e-05
6.35876445e-05
6.17652479e-05
6.15932627e-05
6.20397291e-05
6.35939725e-05
6.36274223e-05
6.17620202e-05
6.20248132e-05
6.36219731e-05
6.36025882e-05
6.17905334e-05
6.16567847e-05
6.21307756e-05
6.35920569e-05
6.3637718e-05
6.16192829e-05
6.2275204e-05
6.35893422e-05
6.18907805e-05
6.15370573e-05
6.2565746e-05
6.35435784e-05
6.35877097e-05
6.13922327e-05
6.16729462e-05
6.35688644e-05
6.35834948e-05
6.35641662e-05
6.17472751e-05
6.15611524e-05
6.20407446e-05
6.17400747e-05
6.2279355e-05
6.35387461e-05
6.36319891e-05
6.14794613e-05
6.17993946e-05
6.35790827e-05
6.35985508e-05
6.35812315e-05
6.16227056e-05
6.14680603e-05
6.36042437e-05
6.3540749e-05
6.1999582e-05
6.1519526e-05
6.22898218e-05
6.35215737e-05
6.36111487e-05
6.14313509e-05
6.17767017e-05
6.35537273e-05
6.35815124e-05
6.35639579e-05
6.16185446e-05
6.12266324e-05
6.18602454e-05
6.35754343e-05
6.35757597e-05
6.19966803e-05
6.18101434e-05
6.22513122e-05
6.359298e-05
6.35969088e-05
6.20336142e-05
6.1864236e-05
6.22773559e-05
6.36016205e-05
6.36016646e-05
6.19902579e-05
6.17923873e-05
6.211937e-05
6.35999221e-05
6.35879709e-05
6.18267374e-05
6.15546744e-05
6.19615389e-05
6.35884227e-05
6.35829774e-05
6.35871536e-05
6.35855155e-05
6.17938433e-05
6.13741979e-05
6.19431959e-05
6.35825781e-05
6.35648356e-05
6.1675824e-05
6.15668482e-05
6.18634988e-05
6.35590337e-05
6.35933025e-05
6.16693591e-05
6.1752341e-05
6.35683183e-05
6.35941467e-05
6.1662965e-05
6.1652186e-05
6.35662011e-05
6.35801296e-05
6.17822628e-05
6.18086781e-05
6.35903168e-05
6.35545151e-05
6.19039202e-05
6.16273851e-05
6.19987675e-05
6.35499853e-05
6.36185907e-05
6.1748548e-05
6.1847521e-05
6.35740131e-05
6.36065586e-05
6.18158646e-05
6.18529474e-05
6.36053427e-05
6.35786612e-05
6.18651553e-05
6.16130783e-05
6.19307633e-05
6.35662812e-05
6.3627049e-05
6.17513791e-05
6.18259218e-05
6.358565e-05
6.36175544e-05
6.18454546e-05
6.18660781e-05
6.36111771e-05
6.35906726e-05
6.19668006e-05
6.17165016e-05
6.20492452e-05
6.35797309e-05
6.36339307e-05
6.18639628e-05
6.16815566e-05
6.23753219e-05
6.36289803e-05
6.21227919e-05
6.19271614e-05
6.35816716e-05
6.3627083e-05
6.19992033e-05
6.19388717e-05
)
;

boundaryField
{
    closed
    {
        type            calculated;
        value           uniform 8.13993184e-05;
    }
    open
    {
        type            calculated;
        value           nonuniform List<scalar> 0();
    }
    sides
    {
        type            empty;
    }
    procBoundary0to1
    {
        type            processor;
        value           uniform 6.36106563e-05;
    }
}


// ************************************************************************* //
