/*--------------------------------*- C++ -*----------------------------------*\
| =========                 |                                                 |
| \\      /  F ield         | OpenFOAM: The Open Source CFD Toolbox           |
|  \\    /   O peration     | Version:  2306                                  |
|   \\  /    A nd           | Website:  www.openfoam.com                      |
|    \\/     M anipulation  |                                                 |
\*---------------------------------------------------------------------------*/
FoamFile
{
    version     2.0;
    format      ascii;
    arch        "LSB;label=32;scalar=64";
    class       volScalarField;
    location    "0.00048";
    object      prefDZ_H2;
}
// * * * * * * * * * * * * * * * * * * * * * * * * * * * * * * * * * * * * * //

dimensions      [1 -1 -1 0 0 0 0];

internalField   nonuniform List<scalar> 
530
(
0.000173624272
0.000173880913
0.000174872812
0.000174753895
0.000173903099
0.000174175484
0.000175143697
0.000175031115
0.000174201573
0.000174451658
0.000175394992
0.00017530157
0.00017455723
0.000174700193
0.000175599794
0.000175635951
0.000175006707
0.000174958146
0.000175719589
0.000175942462
0.000175600366
0.000175260006
0.000175802654
0.000176247847
0.000176246755
0.000175606237
0.000175903391
0.000176589632
0.000176818105
0.000175974668
0.000176214827
0.000176943994
0.000177172194
0.000176361885
0.000176663317
0.00017732282
0.000177517303
0.000176778024
0.000177304077
0.000177811563
0.000177690413
0.00017727006
0.000178002235
0.000178330979
0.000177943128
0.000177990655
0.000178673399
0.000178428735
0.000178355118
0.000178857275
0.000179172973
0.000178695277
0.000178844477
0.000179536928
0.000179612772
0.000179128585
0.000179338721
0.000180053826
0.000180104664
0.000179634132
0.000179851213
0.000180525402
0.000180577992
0.00018020286
0.00018032469
0.000180753422
0.000181098056
0.000180959476
0.000180817701
0.000180753008
0.000181597571
0.000181561974
0.00018134166
0.000181064576
0.000181962675
0.000181820028
0.000181894317
0.00018151425
0.000182324618
0.000182242593
0.000182410799
0.000182022905
0.000182741227
0.000182739995
0.000182860225
0.000182529069
0.00018321458
0.00018323757
0.000183251201
0.000183014204
0.000183689629
0.000183687099
0.000183620863
0.000183462419
0.000184134635
0.000184110304
0.000184005869
0.000183888637
0.000184529562
0.000184507454
0.00018438575
0.000184288872
0.000184901963
0.000184877821
0.000184747155
0.000184666118
0.000185256122
0.000185225446
0.000185088182
0.00018502261
0.00018559318
0.000185555318
0.000185410304
0.000185360279
0.000185911693
0.000185866916
0.000185715301
0.0001856789
0.000186212097
0.000186157619
0.00018600237
0.000185971745
0.000186473448
0.00018642908
0.000186269874
0.00018624327
0.000186713974
0.00018667593
0.000186520398
0.000186490193
0.000186937217
0.000186899788
0.000186753715
0.000186715608
0.00018714567
0.00018710515
0.000186969832
0.000186920183
0.000187339361
0.000187293094
0.000187169718
0.000187104819
0.000187518696
0.000187465205
0.000187354445
0.000187271001
0.000187683941
0.000187621183
0.000187524928
0.000187420802
0.000187835475
0.000187764227
0.000187680983
0.000187560561
0.000187973354
0.000187897989
0.000187822644
0.000187695622
0.000188097432
0.000188024809
0.000187950705
0.000187827297
0.000188208511
0.000188144422
0.000188066462
0.000187952777
0.000188308036
0.000188256067
0.000188171516
0.000188070467
0.000188397388
0.000188350546
0.000188267633
0.000188181311
0.000188477378
0.000188436227
0.000188355533
0.00018828258
0.000188548866
0.000188513254
0.000188434691
0.000188372451
0.000188612094
0.000188582025
0.00018850372
0.000188452301
0.000188666545
0.000188646108
0.000188560409
0.000188532248
0.000188712307
0.000188709623
0.000188605354
0.000188621017
0.000188746935
0.000188787188
0.000188641534
0.000188738022
0.000188776795
0.000188809953
0.000188677089
0.000188855751
0.000188808991
0.000188790222
0.000188717068
0.000188870472
0.000188841461
0.000188806241
0.000188757415
0.000188889942
0.000188875167
0.000188827086
0.000188803493
0.000188907465
0.000188912969
0.00018884483
0.000188865898
0.000188920352
0.000188953789
0.000188857464
0.000188962493
0.00018893242
0.000188925641
0.000188871964
0.000188966145
0.00018894583
0.000188920888
0.000188888924
0.000188972977
0.000188959075
0.000188929881
0.000188906849
0.000188982117
0.000188971147
0.000188941722
0.000188924281
0.000188990433
0.000188982386
0.000188952397
0.00018894156
0.000188997124
0.000188993167
0.000188960504
0.000188958148
0.000189001961
0.000189005043
0.000188965771
0.000188978588
0.000189004426
0.000189026054
0.00018897018
0.000189019291
0.000189007848
0.000189009589
0.000188975384
0.000189023797
0.000189011573
0.000189001278
0.000188981786
0.000189023526
0.000189015932
0.000189002745
0.000188989874
0.000189025041
0.000189021488
0.000189005788
0.000189000954
0.000189026419
0.000189030967
0.000189008336
0.000189018321
0.000189027242
0.000189027916
0.000189011231
0.000189034098
0.000189028609
0.000189018183
0.000189014572
0.000189031531
0.000189030023
0.000189015485
0.000189017707
0.000189030944
0.000189031124
0.000189015671
0.000189020159
0.0001890313
0.000189032344
0.000189017314
0.000189022837
0.00018903207
0.000189033484
0.000189019212
0.000189025244
0.000189032833
0.000189034458
0.000189021084
0.000189027278
0.000189033547
0.000189035244
0.000189022736
0.000189029035
0.000189034144
0.000189035927
0.000189024173
0.000189030567
0.000189034693
0.000189036534
0.000189025541
0.000189031946
0.000189035377
0.000189037134
0.000189027254
0.000189033297
0.000189036648
0.000189037905
0.000189030384
0.000189034987
0.00018904014
0.000189039345
0.000189037282
0.000189037516
0.000189036281
0.000189038774
0.000189038262
0.000189039282
0.000189033699
0.00018903739
0.000189037642
0.000189038762
0.000189033234
0.000189036835
0.000189037534
0.000189038562
0.000189033377
0.000189036672
0.000189037614
0.000189038535
0.000189033846
0.000189036784
0.000189037781
0.00018903859
0.00018903444
0.000189037015
0.000189037979
0.00018903868
0.000189035067
0.000189037296
0.000189038182
0.000189038784
0.000189035684
0.00018903759
0.000189038381
0.000189038892
0.000189036273
0.000189037881
0.00018903857
0.000189038998
0.000189036827
0.000189038162
0.000189038748
0.000189039102
0.000189037343
0.00018903843
0.000189038916
0.000189039202
0.000189037821
0.000189038686
0.000189039072
0.000189039299
0.000189038264
0.000189038933
0.000189039217
0.000189039394
0.000189038671
0.000189039172
0.000189039351
0.000189039485
0.000189039043
0.000189039403
0.000189039472
0.000189039562
0.000189039378
0.0001890396
0.000189039555
0.000189039547
0.000189039606
0.000189039501
0.0001890395
0.00018903945
0.000189039448
0.000189039407
0.0001890394
0.00018903937
0.000189039361
0.000189039338
0.000189039329
0.00018903931
0.000189039302
0.000189039287
0.000189039279
0.000189039267
0.00018903926
0.00018903925
0.000189039244
0.000189039235
0.00018903923
0.000189039223
0.000189039219
0.000189039213
0.000189039209
0.000189039205
0.000189039201
0.000189039197
0.000189039195
0.000189039191
0.000189039189
0.000189039186
0.000189039184
0.000189039182
0.00018903918
0.000189039178
0.000189039177
0.000189039175
0.000189039174
0.000189039173
0.000189039172
0.00018903917
0.00018903917
0.000189039169
0.000189039168
0.000189039167
0.000189039167
0.000189039166
0.000189039165
0.000189039165
0.000189039164
0.000189039164
0.000189039164
0.000189039163
0.000189039163
0.000189039163
0.000189039162
0.000189039162
0.000189039162
0.000189039162
0.000189039161
0.000189039161
0.000189039161
0.000189039161
0.000189039161
0.000189039161
0.000189039161
0.000189039161
0.00018903916
0.00018903916
0.00018903916
0.00018903916
0.00018903916
0.00018903916
0.00018903916
0.00018903916
0.00018903916
0.00018903916
0.00018903916
0.00018903916
0.00018903916
0.00018903916
0.00018903916
0.00018903916
0.00018903916
0.00018903916
0.00018903916
0.00018903916
0.00018903916
0.00018903916
0.00018903916
0.00018903916
0.00018903916
0.00018903916
0.00018903916
0.00018903916
0.00018903916
0.00018903916
0.00018903916
0.00018903916
0.00018903916
0.00018903916
0.00018903916
0.00018903916
0.00018903916
0.00018903916
0.00018903916
0.00018903916
0.00018903916
0.00018903916
0.00018903916
0.00018903916
0.00018903916
0.00018903916
0.00018903916
0.00018903916
0.00018903916
0.00018903916
0.00018903916
0.00018903916
0.00018903916
0.00018903916
0.00018903916
0.00018903916
0.00018903916
0.00018903916
0.00018903916
0.00018903916
0.00018903916
0.00018903916
0.00018903916
0.00018903916
0.00018903916
0.00018903916
0.00018903916
0.00018903916
0.00018903916
0.00018903916
0.00018903916
0.00018903916
0.00018903916
0.00018903916
0.00018903916
0.00018903916
)
;

boundaryField
{
    closed
    {
        type            calculated;
        value           nonuniform List<scalar> 0();
    }
    open
    {
        type            calculated;
        value           uniform 0.00018903916;
    }
    sides
    {
        type            empty;
    }
    procBoundary5to4
    {
        type            processor;
        value           uniform 0.000174492964;
    }
}


// ************************************************************************* //
