/*--------------------------------*- C++ -*----------------------------------*\
| =========                 |                                                 |
| \\      /  F ield         | OpenFOAM: The Open Source CFD Toolbox           |
|  \\    /   O peration     | Version:  2306                                  |
|   \\  /    A nd           | Website:  www.openfoam.com                      |
|    \\/     M anipulation  |                                                 |
\*---------------------------------------------------------------------------*/
FoamFile
{
    version     2.0;
    format      ascii;
    arch        "LSB;label=32;scalar=64";
    class       volScalarField;
    location    "0.00048";
    object      prefDh_H2;
}
// * * * * * * * * * * * * * * * * * * * * * * * * * * * * * * * * * * * * * //

dimensions      [1 1 -3 0 0 0 0];

internalField   nonuniform List<scalar> 
530
(
2949.57812
2959.03957
2999.72988
2992.86356
2963.56447
2973.82276
3014.08551
3007.51063
2978.28973
2988.20354
3027.67503
3021.90914
2995.3573
3001.87862
3039.3758
3039.91206
3016.45677
3016.28778
3047.51857
3056.435
3044.448
3032.78738
3054.96615
3072.94572
3075.81407
3051.50418
3063.165
3091.77622
3104.94049
3071.62241
3080.82808
3111.3787
3124.3893
3092.91454
3104.70033
3132.44214
3144.68512
3115.71262
3137.53412
3159.9236
3157.1706
3141.86496
3173.87637
3190.58181
3173.48219
3178.434
3209.74445
3200.24894
3197.67754
3222.28972
3237.69413
3218.87593
3225.8104
3259.27277
3263.04002
3245.30249
3254.55381
3288.81539
3291.68301
3274.17078
3284.17922
3316.55599
3319.4225
3305.50131
3312.04104
3333.49666
3350.25335
3346.26372
3341.06147
3340.39438
3380.46793
3377.88919
3371.3962
3361.64224
3403.85486
3393.21406
3403.22706
3388.66803
3426.87266
3418.68564
3433.55496
3418.04326
3452.55656
3448.8494
3460.72809
3447.26575
3480.87243
3479.42618
3485.02842
3475.42769
3509.2275
3507.13443
3508.12466
3502.17896
3536.0482
3533.28861
3531.93402
3527.99105
3560.33324
3557.90132
3555.51296
3552.42804
3583.51593
3581.11051
3578.01011
3575.59572
3605.62448
3602.98284
3599.32241
3597.5768
3626.70339
3623.79774
3619.51209
3618.44705
3646.67341
3643.51604
3638.66219
3638.20751
3665.54642
3661.9638
3656.80069
3656.62191
3682.14807
3679.23435
3673.88768
3673.86216
3697.64239
3695.10571
3689.96499
3689.6854
3712.17168
3709.67236
3704.97096
3704.23148
3725.7729
3723.07232
3718.90578
3717.5279
3738.44254
3735.3654
3731.82024
3729.61172
3750.202
3746.64937
3743.77013
3740.55696
3761.06413
3756.90051
3754.80478
3750.4766
3771.04881
3766.32352
3764.92344
3759.69348
3780.15487
3775.15605
3774.13279
3768.47756
3788.36839
3783.55046
3782.47678
3776.91753
3795.7385
3791.48575
3790.02643
3784.88639
3802.35743
3798.90643
3796.90376
3792.31648
3808.31385
3805.20689
3803.17083
3799.25381
3813.6599
3810.9319
3808.88154
3805.58548
3818.47801
3816.1007
3814.02246
3811.21503
3822.75405
3820.74909
3818.52987
3816.21659
3826.44554
3825.08697
3822.30105
3821.10846
3829.55728
3829.39308
3825.37838
3826.34234
3831.92493
3834.62937
3827.9141
3832.92628
3833.97304
3836.87938
3830.3228
3839.31145
3836.18101
3836.44094
3832.87398
3840.34503
3838.40703
3837.73822
3835.37054
3841.69433
3840.7148
3839.21636
3838.09052
3842.91183
3843.29557
3840.47798
3841.58478
3843.81777
3846.19434
3841.428
3846.78377
3844.66695
3845.05244
3842.42478
3846.96122
3845.6033
3845.04852
3843.50612
3847.4535
3846.52626
3845.70483
3844.60237
3848.09862
3847.36863
3846.47459
3845.64404
3848.68634
3848.15264
3847.15919
3846.65106
3849.16232
3848.9039
3847.69123
3847.59856
3849.51079
3849.72617
3848.05938
3848.72126
3849.69787
3851.15155
3848.36533
3850.86368
3849.94704
3850.40925
3848.69647
3851.03442
3850.21495
3850.04807
3849.07555
3851.03176
3850.52417
3850.17138
3849.52895
3851.14721
3850.91232
3850.36554
3850.12345
3851.25178
3851.55912
3850.52683
3851.02949
3851.31786
3851.53172
3850.69877
3851.78815
3851.41899
3851.06371
3850.88771
3851.6236
3851.52186
3850.94605
3851.06228
3851.59174
3851.60288
3850.96992
3851.19884
3851.62213
3851.69107
3851.06392
3851.34404
3851.67948
3851.77321
3851.1682
3851.47342
3851.73554
3851.8435
3851.26903
3851.58216
3851.78753
3851.9005
3851.35703
3851.67542
3851.83109
3851.9499
3851.43288
3851.75606
3851.87094
3851.99366
3851.50416
3851.8279
3851.91949
3852.03658
3851.59171
3851.89734
3852.00726
3852.09064
3851.7498
3851.98312
3852.24173
3852.18877
3852.09967
3852.11089
3852.05114
3852.17584
3852.11943
3852.18728
3851.92079
3852.10666
3852.07855
3852.15314
3851.89729
3852.07883
3852.07205
3852.14048
3851.90433
3852.07046
3852.07808
3852.13946
3851.9277
3852.07583
3852.08991
3852.14377
3851.95733
3852.08719
3852.10365
3852.15036
3851.98859
3852.101
3852.11771
3852.15782
3852.01937
3852.11549
3852.13139
3852.16544
3852.04872
3852.12981
3852.14437
3852.17292
3852.0763
3852.14362
3852.15657
3852.18013
3852.102
3852.15683
3852.16796
3852.18708
3852.12587
3852.16948
3852.17858
3852.19378
3852.14795
3852.18169
3852.18844
3852.20027
3852.16828
3852.19354
3852.19752
3852.20648
3852.18686
3852.20502
3852.20573
3852.21174
3852.20366
3852.21485
3852.21136
3852.21093
3852.21496
3852.20806
3852.20795
3852.20468
3852.20463
3852.20193
3852.20146
3852.1995
3852.19895
3852.19741
3852.19683
3852.19561
3852.19506
3852.19407
3852.19358
3852.19277
3852.19233
3852.19167
3852.19127
3852.19073
3852.19039
3852.18994
3852.18964
3852.18928
3852.18902
3852.18871
3852.18849
3852.18824
3852.18804
3852.18783
3852.18767
3852.18749
3852.18736
3852.18721
3852.18709
3852.18697
3852.18687
3852.18676
3852.18668
3852.18659
3852.18652
3852.18645
3852.18639
3852.18633
3852.18628
3852.18623
3852.18618
3852.18614
3852.1861
3852.18607
3852.18604
3852.18601
3852.18598
3852.18596
3852.18594
3852.18592
3852.1859
3852.18588
3852.18587
3852.18585
3852.18584
3852.18583
3852.18582
3852.18581
3852.1858
3852.18579
3852.18578
3852.18578
3852.18577
3852.18576
3852.18576
3852.18575
3852.18574
3852.18574
3852.18574
3852.18573
3852.18573
3852.18572
3852.18572
3852.18572
3852.18572
3852.18571
3852.18571
3852.18571
3852.18571
3852.18571
3852.18571
3852.18571
3852.18571
3852.18571
3852.18571
3852.18571
3852.18571
3852.18571
3852.18571
3852.18571
3852.18571
3852.18571
3852.18571
3852.18571
3852.18571
3852.18571
3852.18571
3852.18571
3852.18571
3852.18571
3852.18571
3852.18571
3852.18571
3852.18571
3852.18571
3852.18571
3852.18571
3852.18571
3852.18571
3852.18571
3852.18571
3852.18571
3852.18571
3852.18571
3852.18571
3852.18571
3852.18571
3852.18571
3852.18571
3852.18571
3852.18571
3852.18571
3852.18571
3852.18571
3852.18571
3852.18571
3852.18571
3852.18571
3852.18571
3852.18571
3852.18571
3852.18571
3852.18571
3852.18571
3852.18571
3852.18571
3852.18571
3852.18571
)
;

boundaryField
{
    closed
    {
        type            calculated;
        value           nonuniform List<scalar> 0();
    }
    open
    {
        type            calculated;
        value           uniform 3852.18571;
    }
    sides
    {
        type            empty;
    }
    procBoundary5to4
    {
        type            processor;
        value           uniform 2979.28001;
    }
}


// ************************************************************************* //
