/*--------------------------------*- C++ -*----------------------------------*\
| =========                 |                                                 |
| \\      /  F ield         | OpenFOAM: The Open Source CFD Toolbox           |
|  \\    /   O peration     | Version:  2306                                  |
|   \\  /    A nd           | Website:  www.openfoam.com                      |
|    \\/     M anipulation  |                                                 |
\*---------------------------------------------------------------------------*/
FoamFile
{
    version     2.0;
    format      ascii;
    arch        "LSB;label=32;scalar=64";
    class       volScalarField;
    location    "0.00048";
    object      prefDZ_H;
}
// * * * * * * * * * * * * * * * * * * * * * * * * * * * * * * * * * * * * * //

dimensions      [1 -1 -1 0 0 0 0];

internalField   nonuniform List<scalar> 
530
(
0.000342683038
0.000343138962
0.000344982735
0.000344734382
0.000343239212
0.000343727739
0.000345531493
0.000345296185
0.000343829227
0.000344285339
0.000346044293
0.000345844501
0.000344523956
0.00034479747
0.000346473094
0.000346524814
0.000345394273
0.000345332435
0.000346746171
0.000347148605
0.000346548099
0.000345952341
0.000346954467
0.000347770241
0.000347813182
0.000346657781
0.000347197052
0.000348467043
0.000348940163
0.000347408638
0.00034784168
0.000349190252
0.000349660374
0.000348199121
0.000348744939
0.000349964414
0.00035038328
0.000349046346
0.000350017692
0.000350965507
0.00035077779
0.000350034503
0.000351402588
0.00035204534
0.00035132602
0.000351453612
0.000352741158
0.000352308947
0.000352180685
0.000353150431
0.000353755652
0.000352899068
0.00035318453
0.000354509699
0.000354656336
0.000353805815
0.000354199846
0.000355561927
0.000355664925
0.000354836605
0.000355249199
0.000356531236
0.000356636381
0.000355978127
0.000356219743
0.000357046167
0.00035770504
0.000357475676
0.000357229029
0.000357137442
0.000358734433
0.000358656108
0.000358292829
0.000357812757
0.00035950331
0.000359184382
0.000359410531
0.000358737475
0.00036026349
0.000360053081
0.000360459107
0.000359766745
0.000361123639
0.000361076779
0.000361379926
0.000360789399
0.00036208875
0.000362100923
0.000362188783
0.000361770092
0.000363055439
0.000363026382
0.000362954613
0.000362681463
0.000363963288
0.000363897773
0.000363747323
0.000363550251
0.000364773805
0.000364715717
0.000364527982
0.000364367748
0.000365538711
0.000365478539
0.000365270895
0.000365139243
0.000366266353
0.000366194778
0.000365972435
0.000365868731
0.000366958823
0.000366874707
0.000366635348
0.000366559701
0.000367613353
0.000367517238
0.000367263008
0.000367211454
0.000368230721
0.000368116939
0.000367853624
0.000367811109
0.000368769535
0.000368677153
0.000368404195
0.000368368182
0.000369265893
0.000369186605
0.00036891978
0.000368876151
0.00036972704
0.000369649074
0.000369400068
0.000369340769
0.000370157831
0.000370073513
0.000369845124
0.000369763306
0.0003705583
0.000370462126
0.000370256861
0.000370145437
0.000370929261
0.000370818159
0.000370637376
0.000370490024
0.000371271246
0.000371140981
0.000370988478
0.000370801139
0.000371585011
0.000371437181
0.000371309945
0.000371090879
0.000371870644
0.000371714305
0.000371601927
0.000371369391
0.000372127818
0.000371977192
0.000371865999
0.000371639205
0.000372358176
0.000372225268
0.000372104709
0.000371895171
0.000372564689
0.000372456911
0.000372321103
0.000372134703
0.000372750204
0.000372653114
0.000372518771
0.000372359591
0.000372916397
0.00037283113
0.000372699287
0.000372564936
0.000373064999
0.000372991257
0.0003728618
0.000372747246
0.000373196518
0.000373134289
0.000373003755
0.000372909195
0.000373309866
0.000373267621
0.000373121063
0.000373070071
0.000373405221
0.00037339983
0.000373214992
0.000373246563
0.000373477511
0.000373561013
0.000373291228
0.000373475835
0.000373539916
0.000373615806
0.000373365251
0.000373704056
0.000373607193
0.000373584251
0.000373446795
0.000373735078
0.000373675031
0.000373619844
0.000373528247
0.000373775911
0.000373745413
0.00037366393
0.000373619862
0.000373812692
0.00037382426
0.000373701495
0.000373741922
0.000373839859
0.000373910559
0.000373728794
0.000373928669
0.000373865307
0.000373860092
0.000373759127
0.000373935552
0.000373893505
0.000373853581
0.000373793703
0.000373950085
0.000373921334
0.000373872798
0.000373829748
0.000373969379
0.000373946711
0.000373897097
0.000373864543
0.000373986942
0.000373970332
0.000373918904
0.00037389876
0.000374001105
0.000373992983
0.000373935593
0.000373931404
0.000374011394
0.000374017875
0.000373946679
0.00037397115
0.000374016742
0.000374061589
0.000373955935
0.000374049322
0.000374024049
0.000374031289
0.000373966539
0.000374057291
0.000374031966
0.000374016142
0.000373979282
0.0003740569
0.000374041184
0.000374019451
0.000373995109
0.000374060191
0.000374052867
0.00037402566
0.000374016507
0.00037406318
0.000374072629
0.000374030845
0.000374049775
0.000374065006
0.000374068174
0.000374036616
0.000374079327
0.000374067943
0.000374049957
0.000374043173
0.000374074092
0.000374070961
0.000374045037
0.000374049297
0.000374072959
0.000374073322
0.000374045547
0.000374054089
0.000374073769
0.000374075919
0.000374048783
0.000374059278
0.000374075426
0.000374078344
0.000374052477
0.000374063931
0.000374077062
0.000374080417
0.000374056098
0.000374067857
0.000374078586
0.000374082093
0.000374059282
0.00037407124
0.000374079862
0.000374083548
0.000374062046
0.000374074184
0.000374081034
0.000374084839
0.000374064667
0.000374076826
0.000374082479
0.000374086112
0.000374067929
0.000374079403
0.000374085141
0.000374087735
0.00037407387
0.000374082616
0.000374092378
0.000374090735
0.000374086979
0.000374087416
0.000374085102
0.000374089819
0.000374088529
0.000374090636
0.000374080202
0.000374087201
0.000374087252
0.000374089567
0.000374079319
0.000374086152
0.000374087036
0.00037408916
0.00037407959
0.000374085841
0.000374087209
0.000374089114
0.000374080477
0.000374086051
0.000374087562
0.000374089234
0.000374081601
0.000374086487
0.000374087977
0.000374089426
0.000374082787
0.000374087016
0.000374088403
0.000374089647
0.000374083954
0.000374087571
0.000374088818
0.000374089875
0.000374085068
0.000374088119
0.000374089214
0.000374090099
0.000374086115
0.000374088647
0.000374089586
0.000374090317
0.00037408709
0.000374089153
0.000374089934
0.000374090527
0.000374087996
0.000374089636
0.000374090259
0.00037409073
0.000374088833
0.000374090102
0.000374090561
0.000374090928
0.000374089603
0.000374090554
0.00037409084
0.000374091117
0.000374090307
0.00037409099
0.000374091092
0.000374091278
0.000374090941
0.000374091363
0.000374091264
0.000374091249
0.000374091373
0.000374091157
0.000374091154
0.000374091051
0.000374091048
0.000374090964
0.000374090949
0.000374090887
0.00037409087
0.000374090821
0.000374090803
0.000374090765
0.000374090747
0.000374090716
0.000374090701
0.000374090676
0.000374090661
0.000374090641
0.000374090628
0.000374090612
0.000374090601
0.000374090587
0.000374090577
0.000374090566
0.000374090558
0.000374090548
0.000374090541
0.000374090533
0.000374090527
0.000374090521
0.000374090516
0.00037409051
0.000374090506
0.000374090501
0.000374090498
0.000374090494
0.000374090491
0.000374090488
0.000374090485
0.000374090482
0.00037409048
0.000374090478
0.000374090476
0.000374090474
0.000374090472
0.000374090471
0.00037409047
0.000374090468
0.000374090467
0.000374090466
0.000374090465
0.000374090464
0.000374090463
0.000374090463
0.000374090462
0.000374090461
0.000374090461
0.00037409046
0.00037409046
0.000374090459
0.000374090459
0.000374090459
0.000374090458
0.000374090458
0.000374090458
0.000374090458
0.000374090457
0.000374090457
0.000374090457
0.000374090457
0.000374090457
0.000374090456
0.000374090456
0.000374090456
0.000374090456
0.000374090456
0.000374090456
0.000374090456
0.000374090455
0.000374090455
0.000374090455
0.000374090455
0.000374090455
0.000374090455
0.000374090455
0.000374090455
0.000374090455
0.000374090455
0.000374090455
0.000374090455
0.000374090455
0.000374090455
0.000374090455
0.000374090455
0.000374090455
0.000374090455
0.000374090455
0.000374090455
0.000374090455
0.000374090455
0.000374090455
0.000374090455
0.000374090455
0.000374090455
0.000374090455
0.000374090455
0.000374090455
0.000374090455
0.000374090455
0.000374090455
0.000374090455
0.000374090455
0.000374090455
0.000374090455
0.000374090455
0.000374090455
0.000374090455
0.000374090455
0.000374090455
0.000374090455
0.000374090455
0.000374090455
0.000374090455
0.000374090455
0.000374090455
0.000374090455
0.000374090455
0.000374090455
0.000374090455
0.000374090455
0.000374090455
0.000374090455
0.000374090455
0.000374090455
0.000374090455
0.000374090455
0.000374090455
0.000374090455
0.000374090455
0.000374090455
0.000374090455
0.000374090455
0.000374090455
0.000374090455
)
;

boundaryField
{
    closed
    {
        type            calculated;
        value           nonuniform List<scalar> 0();
    }
    open
    {
        type            calculated;
        value           uniform 0.000374090455;
    }
    sides
    {
        type            empty;
    }
    procBoundary5to4
    {
        type            processor;
        value           uniform 0.000344206235;
    }
}


// ************************************************************************* //
