/*--------------------------------*- C++ -*----------------------------------*\
| =========                 |                                                 |
| \\      /  F ield         | OpenFOAM: The Open Source CFD Toolbox           |
|  \\    /   O peration     | Version:  2306                                  |
|   \\  /    A nd           | Website:  www.openfoam.com                      |
|    \\/     M anipulation  |                                                 |
\*---------------------------------------------------------------------------*/
FoamFile
{
    version     2.0;
    format      ascii;
    arch        "LSB;label=32;scalar=64";
    class       volScalarField;
    location    "0.00194";
    object      PV;
}
// * * * * * * * * * * * * * * * * * * * * * * * * * * * * * * * * * * * * * //

dimensions      [0 0 0 0 0 0 0];

internalField   nonuniform List<scalar> 
531
(
-0.00688165566
-0.00688363391
-0.00688114666
-0.00688206019
-0.00707031574
-0.00710542888
-0.00712617194
-0.007124918
-0.00688217186
-0.00688111523
-0.00711449275
-0.00712936747
-0.0068812898
-0.00688190592
-0.0071039568
-0.00713383335
-0.00688025452
-0.00688382432
-0.00708572445
-0.00715229001
-0.00714317885
-0.00688553794
-0.00688144879
-0.00712253447
-0.00712667971
-0.00688440953
-0.00688434527
-0.00688427998
-0.00710551866
-0.00712234475
-0.0068842929
-0.00688455714
-0.00688465919
-0.00706264548
-0.00716161027
-0.00714097335
-0.00688525997
-0.00688436719
-0.00688422389
-0.00710017755
-0.00711913473
-0.00688368394
-0.00688358963
-0.00688351077
-0.00704196062
-0.00713289913
-0.00713008647
-0.0068820998
-0.00688211098
-0.00708600865
-0.00712182983
-0.00714113108
-0.0071409738
-0.00688206517
-0.00688256045
-0.00688186369
-0.00708730901
-0.00713424598
-0.00688199311
-0.00688251301
-0.00710411957
-0.00711590146
-0.00688176771
-0.00688207141
-0.00710599476
-0.00710595558
-0.00688015189
-0.00704846803
-0.0071360108
-0.00688056713
-0.00688204207
-0.00709209381
-0.00712940774
-0.00687938402
-0.00688338358
-0.00707100522
-0.00714284653
-0.00712903494
-0.00688298911
-0.00688131174
-0.00688155421
-0.00709250609
-0.00711498277
-0.00687981338
-0.00688387212
-0.00704035197
-0.00712817764
-0.00711440716
-0.00716390123
-0.00715756371
-0.00688480113
-0.00688011295
-0.00688499065
-0.00687909128
-0.00688433003
-0.007065632
-0.00713759999
-0.00712886434
-0.00688454346
-0.00687904882
-0.00710346049
-0.00711527074
-0.00688234604
-0.00688056644
-0.0071069977
-0.00710667501
-0.00688008789
-0.0070663963
-0.00713706597
-0.00688139611
-0.00688123185
-0.00710732001
-0.00712354734
-0.00688183731
-0.00688186197
-0.0071166959
-0.00711673164
-0.00688190299
-0.00688183929
-0.006881978
-0.00702816863
-0.00713129071
-0.00713051519
-0.0068797258
-0.00688200073
-0.00706807589
-0.00713669091
-0.00713016455
-0.00688315868
-0.00687891352
-0.00709642755
-0.00711375807
-0.0068818641
-0.00688023519
-0.00709279238
-0.00710606768
-0.00688087471
-0.00688111929
-0.00707570024
-0.00710591124
-0.0071261309
-0.00712539001
-0.00688300129
-0.00688182119
-0.00712204284
-0.00712222091
-0.00688294479
-0.00688298842
-0.00688290134
-0.0070851157
-0.00712824334
-0.00688323861
-0.0068834107
-0.00710520488
-0.00711683106
-0.00688375357
-0.00688357875
-0.00711312888
-0.00711313138
-0.00688418475
-0.00688415373
-0.00688370237
-0.00700342286
-0.00711483262
-0.00713297345
-0.00712866489
-0.00688547597
-0.00688080028
-0.00712152778
-0.0071255008
-0.00688448174
-0.00688109932
-0.00712458428
-0.00712302746
-0.00688402825
-0.00688098606
-0.00688442985
-0.00707321619
-0.00715623476
-0.0071421493
-0.00688858277
-0.00688048704
-0.00713332037
-0.00712778571
-0.00688800269
-0.00688200011
-0.00688737364
-0.00688096435
-0.00688575544
-0.00708274081
-0.00714409046
-0.00712091929
-0.00716396149
-0.00715786337
-0.00688612102
-0.00688318266
-0.00688363051
-0.00688277218
-0.00707064795
-0.00712071055
-0.00713606035
-0.00713603516
-0.00688319552
-0.00688322822
-0.00688276425
-0.00709691528
-0.00712102231
-0.00688326647
-0.00688295813
-0.00688302504
-0.00704614254
-0.00713267
-0.00713127477
-0.0068812361
-0.00688298861
-0.00707637048
-0.00714435844
-0.00713540598
-0.00688540007
-0.00688015885
-0.00711579546
-0.00711339423
-0.00688435373
-0.00688120542
-0.00688383851
-0.00706050549
-0.00715038597
-0.0071361072
-0.00688484351
-0.00688163618
-0.00688334772
-0.00710400194
-0.0071351702
-0.00688003392
-0.00688623346
-0.0070689616
-0.00688639226
-0.00687726415
-0.00709209357
-0.00709885689
-0.00712843687
-0.00712446241
-0.00688272574
-0.00687984486
-0.00688162783
-0.00704795031
-0.0071309084
-0.00711562916
-0.00716198322
-0.00715886002
-0.00688411818
-0.0068828391
-0.00688291479
-0.00712500884
-0.00714980442
-0.00688425902
-0.00688476132
-0.00688338998
-0.00688439763
-0.00708828628
-0.00713131542
-0.00688227435
-0.00688684971
-0.00707514203
-0.00714771389
-0.00713950575
-0.00688844506
-0.0068829992
-0.00712069527
-0.00713598052
-0.00688769815
-0.00688556589
-0.00688649227
-0.00688468894
-0.00710140201
-0.0071450762
-0.00717422846
-0.00717223433
-0.00688909343
-0.0068849524
-0.00688868455
-0.00688340081
-0.00688741311
-0.00708315429
-0.00714430332
-0.00713482009
-0.0068889391
-0.00688241591
-0.00711529614
-0.00711309051
-0.0068875976
-0.00688400411
-0.00688662026
-0.0069886044
-0.0071341531
-0.00712510078
-0.00716605587
-0.00716340828
-0.00688646242
-0.00688469519
-0.00688471648
-0.00712654682
-0.00715316417
-0.00688482246
-0.00688587496
-0.0068828034
-0.00688568001
-0.00704252718
-0.00713252454
-0.00711679147
-0.0068858302
-0.00688290428
-0.00688423073
-0.00688182632
-0.00705821418
-0.00711342434
-0.0071421342
-0.00713887344
-0.00688430829
-0.0068804125
-0.00714021136
-0.00714599971
-0.00688366938
-0.00688168782
-0.00688178993
-0.00688084605
-0.00708435404
-0.00712659634
-0.00714551813
-0.00714547724
-0.00688099998
-0.00688001081
-0.00687906438
-0.00709875599
-0.00712893033
-0.00687903369
-0.00687692726
-0.00687720413
-0.00708108151
-0.00715235318
-0.00714597882
-0.00687614773
-0.00687080146
-0.00711941649
-0.00713950637
-0.00687140198
-0.00686719497
-0.00686678243
-0.00686347939
-0.00709255073
-0.00713833361
-0.00717127319
-0.00716712923
-0.00685760709
-0.00685062001
-0.00685256936
-0.00684566067
-0.00684721428
-0.00684110511
-0.00684071766
-0.00708704189
-0.00710639364
-0.00683998146
-0.00683214181
-0.00683176601
-0.00707769944
-0.00710221975
-0.00683119448
-0.00682079065
-0.00682230938
-0.00681301925
-0.00681261801
-0.00680366389
-0.00680163284
-0.00679254148
-0.00678904702
-0.0067794016
-0.00677456512
-0.00676374846
-0.00675759284
-0.00674538082
-0.00673755235
-0.00672359211
-0.00671350759
-0.00669718872
-0.00668370242
-0.00666359171
-0.00664519896
-0.00661326283
-0.0065798241
-0.0065528442
-0.00653672188
-0.00651522286
-0.00649601931
-0.006474561
-0.00645228755
-0.00643069359
-0.00640519848
-0.00638342956
-0.00635442877
-0.00633104191
-0.00629115214
-0.0062573732
-0.00617759685
-0.00613791274
-0.00608514821
-0.00604583558
-0.00599131196
-0.00595281073
-0.005896452
-0.00585676747
-0.00580696741
-0.00577696638
-0.00573152583
-0.00569734869
-0.00564888832
-0.00560849092
-0.005555415
-0.0055085867
-0.00543276564
-0.00515339671
-0.00510282911
-0.00504709327
-0.00498909381
-0.00492687009
-0.00486304167
-0.0047918962
-0.00472405243
-0.00463768947
-0.00457168486
-0.00447096433
-0.00438317961
-0.00421861043
-0.00410695097
-0.00392547295
-0.00380131416
-0.00359836768
-0.00345696913
-0.00323190074
-0.00297422271
-0.00274823372
-0.00259638034
-0.00237015121
-0.00216715618
-0.00191026767
-0.0016727211
-0.0013034262
-0.00109166897
-0.00100577899
-0.000851555104
-0.000576544615
-0.000429417796
-0.000158668101
-1.86117576e-05
0.000246941681
0.000385002404
0.000658692132
0.000795500917
0.00107266157
0.00120527405
0.00148344615
0.00161075309
0.00188691726
0.00200775736
0.00228036508
0.00239542625
0.00266442334
0.00277370306
0.00303705663
0.00314100589
0.00339702232
0.00349615721
0.00374252643
0.00383760482
0.00407290212
0.00416320541
0.00438617247
0.00447051246
0.00467898712
0.00475616686
0.00494641852
0.00502176989
0.005196114
0.00526022491
0.00540627229
0.00547680651
0.0056159071
0.00565705034
0.00577214498
0.00585642875
0.00597399929
0.00594709245
0.00601409994
0.00617665393
0.00626592744
0.0061079916
0.00612676041
0.00643673096
0.00656166452
0.00623442894
0.00627022878
0.00668426841
0.0067626611
0.00646351874
0.00647376294
0.00683616029
0.00685086606
0.00663185551
0.00660056255
0.00687856374
0.00689777598
0.00671531222
0.00670244315
0.00689597178
0.0069338602
0.00676392948
0.00676176767
0.00686890665
0.00695344116
0.00685294691
0.00680290629
0.00683554394
0.00696779925
0.00693698332
0.00683733112
0.00685792647
0.00696930495
0.00696897852
0.00685538568
0.00687457485
0.00693148223
)
;

boundaryField
{
    closed
    {
        type            zeroGradient;
    }
    open
    {
        type            zeroGradient;
    }
    sides
    {
        type            empty;
    }
    procBoundary4to3
    {
        type            processor;
        value           uniform -0.00688381178;
    }
    procBoundary4to5
    {
        type            processor;
        value           uniform 0.00697772672;
    }
}


// ************************************************************************* //
