/*--------------------------------*- C++ -*----------------------------------*\
| =========                 |                                                 |
| \\      /  F ield         | OpenFOAM: The Open Source CFD Toolbox           |
|  \\    /   O peration     | Version:  2306                                  |
|   \\  /    A nd           | Website:  www.openfoam.com                      |
|    \\/     M anipulation  |                                                 |
\*---------------------------------------------------------------------------*/
FoamFile
{
    version     2.0;
    format      ascii;
    arch        "LSB;label=32;scalar=64";
    class       volScalarField;
    location    "0.00112";
    object      p;
}
// * * * * * * * * * * * * * * * * * * * * * * * * * * * * * * * * * * * * * //

dimensions      [1 -1 -2 0 0 0 0];

internalField   nonuniform List<scalar> 
531
(
101465.322
101468.365
101471.3
101473.846
101476.782
101479.674
101482.359
101485.041
101487.469
101490.076
101492.609
101495.013
101497.41
101499.73
101502.007
101504.21
101506.422
101508.497
101510.646
101512.783
101514.837
101516.746
101518.623
101520.436
101522.213
101523.883
101525.489
101527.107
101528.625
101530.101
101531.575
101532.984
101534.427
101535.749
101537.04
101538.318
101539.575
101540.747
101541.902
101543.043
101544.176
101545.192
101546.203
101547.213
101548.166
101549.003
101549.862
101550.646
101551.431
101552.232
101552.945
101553.68
101554.32
101554.964
101555.618
101556.231
101556.776
101557.333
101557.907
101558.425
101558.88
101559.348
101559.854
101560.161
101560.531
101560.908
101561.209
101561.53
101561.925
101562.079
101562.289
101562.5
101562.737
101563.017
101563.265
101563.481
101563.757
101564.074
101564.388
101564.652
101564.947
101565.295
101565.608
101565.886
101566.247
101566.591
101567.02
101567.559
101567.896
101568.333
101568.867
101569.404
101569.879
101570.417
101571.022
101571.608
101572.254
101572.88
101573.584
101574.38
101575.134
101575.977
101576.789
101577.657
101578.6
101579.503
101580.394
101581.386
101582.454
101583.492
101584.626
101585.708
101586.832
101588.016
101589.176
101590.309
101591.423
101592.578
101593.744
101594.874
101595.911
101596.967
101597.975
101598.93
101599.963
101600.939
101601.841
101602.791
101603.485
101604.211
101604.899
101606.075
101607.244
101608.336
101609.474
101610.515
101611.561
101612.609
101613.636
101614.603
101615.496
101616.4
101617.279
101618.101
101618.867
101619.643
101620.395
101621.099
101621.82
101622.548
101623.225
101623.935
101624.586
101625.243
101625.914
101626.547
101627.24
101627.892
101628.487
101629.133
101629.814
101630.506
101631.211
101631.929
101632.605
101633.256
101633.931
101634.632
101635.34
101636.014
101636.646
101637.29
101637.906
101638.568
101639.184
101639.806
101640.439
101641.053
101641.715
101642.329
101642.959
101643.597
101644.243
101644.863
101645.436
101646.008
101646.547
101647.114
101647.627
101648.148
101648.666
101649.178
101649.658
101650.094
101650.517
101650.898
101651.291
101651.631
101651.954
101652.262
101652.535
101652.815
101653.036
101653.255
101653.46
101653.645
101653.804
101653.97
101654.116
101654.225
101654.341
101654.408
101654.42
101654.436
101654.435
101654.399
101654.311
101654.213
101654.048
101653.823
101653.553
101653.221
101652.859
101652.452
101652.005
101651.497
101650.909
101650.287
101649.629
101648.947
101648.167
101647.323
101646.461
101645.581
101644.704
101643.716
101642.789
101641.833
101640.857
101639.846
101638.822
101637.815
101636.838
101635.937
101634.98
101634.025
101633.234
101632.471
101631.811
101631.11
101630.526
101629.94
101629.433
101628.933
101628.512
101628.048
101627.645
101627.225
101626.861
101626.424
101626.032
101625.617
101625.265
101624.853
101624.519
101624.231
101624.044
101623.845
101623.766
101623.753
101623.835
101624.071
101624.383
101624.921
101625.703
101626.737
101628.085
101629.582
101631.393
101633.482
101635.705
101637.906
101641.157
101644.625
101647.969
101651.065
101654.165
101657.412
101660.641
101663.686
101666.514
101669.204
101671.653
101674.013
101676.287
101678.223
101679.84
101681.195
101682.095
101682.699
101683.012
101682.926
101682.269
101681.18
101678.866
101676.086
101675.594
101674.342
101672.588
101672.055
101670.864
101668.954
101666.414
101663.4
101662.664
101661.305
101659.323
101656.915
101654.788
101652.417
101649.66
101646.606
101643.463
101640.066
101636.397
101632.503
101628.554
101624.73
101620.91
101617.019
101613.062
101609.159
101605.442
101601.743
101597.999
101594.215
101590.494
101586.969
101583.47
101579.934
101576.356
101572.831
101569.493
101566.175
101562.816
101559.404
101556.033
101552.84
101549.662
101546.439
101543.157
101539.913
101536.844
101533.791
101530.695
101527.54
101524.425
101521.493
101518.583
101515.647
101512.669
101509.763
101507.091
101504.521
101502.002
101499.512
101497.168
101495.162
101493.381
101491.757
101490.488
101489.23
101488.179
101487.154
101486.037
101484.752
101483.512
101482.213
101480.777
101479.094
101477.064
101474.882
101474.274
101473.448
101472.119
101470.506
101468.589
101468.611
101468.24
101467.563
101466.024
101464.265
101462.275
101459.931
101457.422
101455.547
101453.386
101451.021
101448.649
101446.548
101444.323
101442.181
101439.867
101437.6
101435.12
101432.565
101429.972
101427.48
101425.035
101422.539
101420.191
101417.737
101415.348
101412.744
101410.044
101407.297
101404.589
101401.925
101399.152
101396.335
101393.554
101390.732
101387.824
101385.085
101382.293
101379.626
101377.057
101374.448
101371.848
101369.378
101366.688
101363.917
101362.192
101360.405
101358.391
101356.357
101354.324
101352.262
101350.111
101347.866
101345.623
101343.389
101341.174
101338.967
101336.675
101334.324
101332.194
101330.032
101327.924
101325.823
101323.679
101321.683
101319.671
101317.728
101315.818
101313.894
101312.112
101310.341
101308.676
101307.102
101305.534
101304.02
101302.587
101301.202
101299.811
101298.525
101297.228
101296.01
101294.735
101293.455
101292.199
101291.004
101289.842
101288.669
101287.577
101286.465
101285.415
101284.41
101283.382
101282.366
101281.413
101280.5
101279.57
101278.656
101277.797
101276.965
101276.121
101275.291
101274.485
101273.709
101272.993
101272.251
101271.564
101270.909
101270.237
101269.565
101268.934
101268.318
101267.677
101267.099
101266.5
101265.917
101265.356
101264.813
101264.256
101263.749
101263.216
101262.729
101262.276
101261.827
101261.414
101260.982
101260.604
101260.273
101259.933
101259.591
101259.296
101259.027
101258.742
101258.458
101258.171
101257.813
101257.464
101257.173
101256.903
101256.632
101256.366
101256.118
101255.9
101255.703
101255.514
)
;

boundaryField
{
    closed
    {
        type            zeroGradient;
    }
    open
    {
        type            waveTransmissive;
        gamma           1.25;
        fieldInf        101325;
        lInf            1;
        value           nonuniform List<scalar> 0();
    }
    sides
    {
        type            empty;
    }
    procBoundary1to0
    {
        type            processor;
        value           uniform 101461.988;
    }
    procBoundary1to2
    {
        type            processor;
        value           uniform 101255.36;
    }
}


// ************************************************************************* //
