/*--------------------------------*- C++ -*----------------------------------*\
| =========                 |                                                 |
| \\      /  F ield         | OpenFOAM: The Open Source CFD Toolbox           |
|  \\    /   O peration     | Version:  2306                                  |
|   \\  /    A nd           | Website:  www.openfoam.com                      |
|    \\/     M anipulation  |                                                 |
\*---------------------------------------------------------------------------*/
FoamFile
{
    version     2.0;
    format      ascii;
    arch        "LSB;label=32;scalar=64";
    class       volScalarField;
    location    "0.00112";
    object      prefDh_H2O;
}
// * * * * * * * * * * * * * * * * * * * * * * * * * * * * * * * * * * * * * //

dimensions      [1 1 -3 0 0 0 0];

internalField   nonuniform List<scalar> 
531
(
88.9605295
92.5261765
92.1338259
88.1876669
87.8955714
89.0985277
92.5259546
92.2515735
88.194568
87.880487
89.0533818
92.5465677
91.7172152
88.1922909
89.0482381
92.4832022
91.996078
88.1216182
87.986291
87.910716
87.7436703
88.6352942
92.6536478
92.3392604
92.5011273
92.4141131
90.3428506
87.9226145
88.5955754
92.5852611
91.5966285
87.9403432
87.637798
88.4852051
92.6496233
91.6342711
87.9792224
88.5789946
92.6174619
91.5520571
87.90741
88.4026804
92.6198865
92.3196612
92.5882596
90.9806061
87.9012793
88.3783861
92.5806595
91.797057
87.94143
87.6476758
88.4964142
92.5959844
92.1150891
88.0923152
88.6650267
92.4765859
92.3305347
88.1888479
88.815097
92.4207554
92.4414436
88.2602773
88.0200851
87.9630643
88.7482658
92.471812
92.8490777
88.0938841
87.7666801
88.6744406
92.5708456
92.270702
88.0420602
88.5366799
92.5289439
92.0994543
87.9624267
88.4486787
92.5265562
92.3958681
92.5390894
91.6672418
88.0038609
88.360166
92.4836087
92.8352232
87.9476768
87.8778792
87.8684252
87.7383864
88.6377833
92.4789467
92.230651
91.6005805
88.1666254
88.6165144
92.3462348
92.8446339
88.0875508
87.7826316
88.6707912
92.5087128
92.8947409
88.0760926
88.4628229
92.3911558
92.9634155
88.0384884
87.6976429
88.5119534
92.5467711
92.7988115
87.9835451
88.3278959
92.5058277
92.6037946
87.8663896
88.2618658
92.5325656
92.3961626
92.5569079
91.5336702
87.8571661
88.1989487
92.4557908
92.8651429
87.925124
87.600292
88.3234806
92.4823864
92.8209827
88.0060752
87.6723318
88.3452995
92.4942509
92.8857481
88.0150532
88.294564
92.3822762
92.859882
88.0585543
88.3207832
92.3466279
92.7750449
88.1082612
88.372319
92.2953229
92.58005
88.156981
87.8171643
88.6473422
92.3848777
92.6395272
88.1649135
87.9459695
87.8989407
88.3765535
92.350328
92.8432383
88.1687076
89.5657577
91.5896724
88.374645
88.5535067
92.2376314
92.6587838
88.0780653
88.3253503
92.2493863
92.5622463
88.1329648
87.747941
88.5934004
92.3634699
92.4974398
88.1252166
87.7416506
88.488935
92.3907525
92.6022536
88.0700248
88.3142682
92.253465
92.5254429
88.125242
87.7345768
88.4889334
92.3810296
92.5703789
88.0652251
88.3076302
92.2389224
92.4930841
88.1382439
87.759606
88.6080208
92.3376674
92.4129702
88.1577252
87.7559489
88.5485846
92.3535039
92.519555
88.1203492
88.349003
92.224434
92.5085258
88.208258
87.968567
87.9661811
88.3841347
92.2923911
92.5221544
88.0842534
88.3195079
92.2321347
92.423639
88.1822415
87.7786703
88.5588525
92.3385561
92.3892352
88.1597945
87.7412522
88.486837
92.3525589
92.4065746
88.1361713
87.6989798
88.4238899
92.3978065
92.4983892
88.0538002
88.2655552
92.2805467
92.4570519
88.1278898
87.7028826
88.3798701
92.4034793
92.4576459
88.0830543
87.6321049
88.2640712
92.458777
92.5873982
87.97165
88.2108221
92.3694548
92.742731
87.9714893
88.2387695
92.3695914
92.7754793
87.9801542
88.2505405
92.3824802
92.8082767
88.0000903
88.2726819
92.3954626
92.7866864
88.0211003
88.2491286
92.3933463
92.5056613
88.1118413
87.6655394
88.2406382
92.511486
92.4725069
88.1247439
87.6405435
88.2639069
92.5549799
92.6872218
88.0525339
88.3056384
92.468175
92.9384812
88.061317
88.2845531
92.4546654
92.4675001
88.0860587
87.6596089
88.6265488
92.7579466
92.1553457
92.4828512
88.0946489
87.7909759
88.9051482
92.6698124
92.1764421
92.1006695
88.1580716
87.9721165
87.8787294
88.4522003
92.5264911
92.8561957
88.0554299
88.3129
92.5116427
92.4687336
88.2229481
87.7261807
88.2836434
92.6136729
92.377743
88.2644016
87.727926
88.5288922
92.6036065
92.9996775
88.1528503
88.348676
92.5327859
92.3849966
88.437838
87.7882185
88.4457835
92.6178838
92.3316138
88.4212588
87.8120254
88.4862932
92.6035998
92.3225333
88.4365539
87.8297518
88.5178001
92.5949982
92.3164669
88.4528214
87.8423969
88.5288082
92.5911012
92.3141881
88.4575553
87.8444109
88.5200502
92.5926019
92.3133663
88.455139
87.8436125
88.4813844
92.5993301
92.3166475
88.446788
87.8278512
88.4348608
92.612158
92.3202331
88.4303907
87.8135359
88.3702058
92.6269215
92.3245535
88.417097
87.8020807
88.3183457
92.6451537
92.3296087
88.4030905
87.7845022
88.2115487
92.655504
92.3632184
88.3646461
88.2129851
92.8054038
92.3767974
88.3434109
87.7285782
88.5496686
92.8013442
92.1803263
92.2853065
88.2751985
87.8282976
87.9472702
87.850997
88.1848
92.8811637
92.1774739
93.0201163
88.1863847
88.2265549
92.8114517
92.3937162
88.244953
88.134726
92.8887225
92.3908893
88.3237386
87.6621142
88.001429
92.7141386
92.3297823
88.2420241
88.0662972
92.8732162
92.3880325
88.3445137
87.680617
87.9947649
92.6898466
92.3101184
88.2560945
88.0530352
92.8612598
92.3337158
88.2717975
88.1100885
92.8073305
92.3572081
88.432719
87.749815
88.0412478
92.6439563
92.2588304
88.3810332
87.8714883
87.8454044
88.1339451
92.7502875
92.1802772
92.3350944
88.3468707
88.1606395
92.7094898
92.3717746
88.4700396
87.7053635
88.3016651
92.7207066
92.1470302
92.2743765
88.5546224
87.9454818
87.912483
88.0635162
92.4938126
92.3383834
88.5574969
87.7716292
88.0333431
92.5390156
92.3080276
88.5659584
87.7731091
87.9902635
92.5501091
92.2414643
88.30572
88.0846828
92.6490179
92.325998
88.5433943
87.7441852
87.9438782
92.5546104
92.2453307
88.280137
88.0587665
92.6350632
92.3216726
88.5781983
87.7590306
87.9333881
92.5392052
92.234523
88.3295887
88.0749948
92.6347639
92.1998689
88.4357993
88.1841226
92.588135
92.2162499
88.9523771
88.0758394
88.1143027
88.1004816
87.9217053
87.9442691
92.4744814
92.242335
88.4530255
88.170572
92.5546968
92.3174198
88.9204117
87.7612572
88.1615939
92.6195326
92.1314296
92.3419562
88.987861
87.7598238
87.8919866
92.5101861
92.3179173
88.7900829
87.755747
87.8664843
92.5096254
92.2441856
88.3768635
88.0884409
92.5781086
92.2564453
88.8869027
87.9933796
88.0531566
87.8613533
87.819391
92.611035
92.2330442
88.3015903
88.162493
92.639546
92.1551195
92.3167916
89.3770629
87.8853536
87.940532
)
;

boundaryField
{
    closed
    {
        type            calculated;
        value           nonuniform List<scalar> 0();
    }
    open
    {
        type            calculated;
        value           nonuniform List<scalar> 0();
    }
    sides
    {
        type            empty;
    }
    procBoundary1to0
    {
        type            processor;
        value           uniform 88.1591509;
    }
    procBoundary1to2
    {
        type            processor;
        value           uniform 92.4772422;
    }
}


// ************************************************************************* //
