/*--------------------------------*- C++ -*----------------------------------*\
| =========                 |                                                 |
| \\      /  F ield         | OpenFOAM: The Open Source CFD Toolbox           |
|  \\    /   O peration     | Version:  2306                                  |
|   \\  /    A nd           | Website:  www.openfoam.com                      |
|    \\/     M anipulation  |                                                 |
\*---------------------------------------------------------------------------*/
FoamFile
{
    version     2.0;
    format      ascii;
    arch        "LSB;label=32;scalar=64";
    class       volScalarField;
    location    "0.00112";
    object      PV;
}
// * * * * * * * * * * * * * * * * * * * * * * * * * * * * * * * * * * * * * //

dimensions      [0 0 0 0 0 0 0];

internalField   nonuniform List<scalar> 
531
(
-0.00711811924
-0.00695555377
-0.00699824261
-0.00716054538
-0.00719577369
-0.00711030066
-0.00695613217
-0.00699460792
-0.00715880759
-0.00719769744
-0.00711070999
-0.00695740528
-0.00701001089
-0.00716814476
-0.00711418732
-0.00695381294
-0.00700143671
-0.00716751762
-0.00718599359
-0.007180089
-0.00720708087
-0.00713040677
-0.00695884575
-0.00695057656
-0.00695869168
-0.00695507043
-0.00705720724
-0.00718975171
-0.00713318842
-0.00695478954
-0.00701343824
-0.00718207319
-0.00721526
-0.00713969248
-0.0069582322
-0.00701197059
-0.00719032336
-0.00713679313
-0.00695867606
-0.00701471703
-0.00719755172
-0.00714494063
-0.00695526327
-0.00695022637
-0.00696219536
-0.00703300161
-0.00719339566
-0.00714559676
-0.00695378657
-0.00700684553
-0.00718336074
-0.00721437994
-0.0071408451
-0.00695618869
-0.00699731041
-0.00717743875
-0.00713662663
-0.00695392183
-0.00699128261
-0.00716746864
-0.00712990993
-0.00695254388
-0.00698780796
-0.00716173177
-0.00718082899
-0.00718535898
-0.00713053554
-0.00695239123
-0.00697618893
-0.00717091988
-0.00721006888
-0.00713205451
-0.00695678088
-0.00699245255
-0.00718233636
-0.0071428156
-0.00695559974
-0.00699779679
-0.00718842613
-0.00714497152
-0.00695320073
-0.00695429301
-0.00695979817
-0.00701098084
-0.00718328573
-0.00715241325
-0.00695146863
-0.00697655476
-0.00718324888
-0.00719894082
-0.00718287945
-0.0072076913
-0.00712871314
-0.00695346748
-0.00694906627
-0.00701449767
-0.00716163822
-0.00714277041
-0.00694834352
-0.00696308849
-0.00717059806
-0.00720965134
-0.00713468918
-0.0069563376
-0.00697534832
-0.00717683432
-0.00715328911
-0.00695085451
-0.00696724182
-0.0071748667
-0.00721762484
-0.00714260795
-0.0069573639
-0.00697815221
-0.00718781476
-0.00715967601
-0.00695598947
-0.00698382772
-0.00719622003
-0.00715853274
-0.00695369972
-0.00695474231
-0.00695985569
-0.00701522589
-0.00719458946
-0.00716672921
-0.00695060745
-0.00697618089
-0.00718430472
-0.00722138243
-0.00715335866
-0.00695273964
-0.00696021627
-0.00717887897
-0.00721682909
-0.00715216875
-0.00695466868
-0.00696124693
-0.00718048586
-0.00716548101
-0.00695132722
-0.00696203979
-0.00717453538
-0.00716283291
-0.00695064367
-0.00695972389
-0.0071691323
-0.00715545309
-0.0069486612
-0.00695567987
-0.00716366475
-0.00720031374
-0.00713496531
-0.00695223836
-0.00695325531
-0.0071664325
-0.00718756073
-0.00718580256
-0.00715220144
-0.0069495368
-0.00695854872
-0.0071652474
-0.0070919224
-0.00701423607
-0.00714709912
-0.00714367527
-0.00694704802
-0.0069551697
-0.00716653069
-0.00715850566
-0.00694692911
-0.00695453774
-0.00716226999
-0.00720503154
-0.0071360825
-0.00695184608
-0.00695132454
-0.00716613801
-0.0072049039
-0.00714281135
-0.00695324454
-0.00695234177
-0.00717143973
-0.00715769745
-0.00694795496
-0.0069533015
-0.0071628846
-0.00720589368
-0.00714228992
-0.00695304563
-0.00695152096
-0.00717085876
-0.00715795352
-0.00694736186
-0.00695246097
-0.00716023811
-0.00720222283
-0.00713384417
-0.00695150532
-0.00694857468
-0.0071628951
-0.00720067834
-0.00713961128
-0.00695219292
-0.00694999027
-0.00716628913
-0.0071550528
-0.00694801304
-0.00695112742
-0.00715690931
-0.00718586618
-0.00717768674
-0.00715191598
-0.00694880618
-0.00695023953
-0.00716689707
-0.00715676113
-0.00694744756
-0.00695025885
-0.00715725038
-0.00719961021
-0.00713718167
-0.00695133406
-0.00694754509
-0.00716139132
-0.00720143948
-0.00714105627
-0.00695145809
-0.00694747796
-0.00716345695
-0.00720577354
-0.00714620931
-0.00695340856
-0.00694879568
-0.00717131826
-0.00716324594
-0.00694891642
-0.00695060219
-0.00716151857
-0.00720751964
-0.00714740711
-0.00695333947
-0.00694870253
-0.00716726733
-0.00721280405
-0.00715731164
-0.0069553012
-0.00695124202
-0.00717883923
-0.00717201954
-0.00695241186
-0.0069579156
-0.00717687069
-0.00717179804
-0.00695237357
-0.00695915375
-0.00717612787
-0.00717067625
-0.00695300091
-0.00696047073
-0.00717488826
-0.00716896681
-0.00695350705
-0.00696046902
-0.00717262252
-0.00716955758
-0.00695262932
-0.00695191455
-0.0071618336
-0.00721226822
-0.0071581529
-0.00695655824
-0.00694985958
-0.0071610148
-0.00721351824
-0.00715821151
-0.0069590412
-0.0069549392
-0.00717330242
-0.00716423923
-0.00695626839
-0.0069669365
-0.00716997869
-0.00716549001
-0.00695394493
-0.00695143451
-0.00715634995
-0.00721535453
-0.00712937979
-0.0069682029
-0.00694626645
-0.00698885641
-0.00715375212
-0.00720561804
-0.00711483098
-0.00696463196
-0.00694691921
-0.00699899818
-0.0071554854
-0.00718176261
-0.00718428001
-0.00714579665
-0.00695554506
-0.00697608356
-0.00716902809
-0.0071573741
-0.00695575693
-0.00694919797
-0.00714864703
-0.0072055827
-0.00715095019
-0.00695989142
-0.00694727706
-0.0071480965
-0.00720277548
-0.00714089557
-0.00696065797
-0.0069679662
-0.00716414508
-0.00715423566
-0.00695802315
-0.00694852006
-0.00713887603
-0.00719909754
-0.00714158011
-0.00696132393
-0.00694728115
-0.00714159937
-0.00719500248
-0.00713992884
-0.0069604487
-0.00694729056
-0.00714070433
-0.00719303293
-0.00713816129
-0.00696008439
-0.00694728146
-0.00713981167
-0.00719173635
-0.00713747852
-0.00695987051
-0.00694723768
-0.00713944261
-0.0071913976
-0.00713783992
-0.00695976762
-0.00694721483
-0.00713943708
-0.00719140593
-0.00713984297
-0.00695981901
-0.00694718174
-0.00713967446
-0.00719273416
-0.00714225651
-0.00696001019
-0.00694721146
-0.0071404181
-0.00719399903
-0.00714587669
-0.00696026116
-0.00694743518
-0.007140946
-0.00719532315
-0.00714875945
-0.00696107685
-0.0069478041
-0.00714280304
-0.00719726526
-0.00715985414
-0.00696143234
-0.00694618524
-0.00714628944
-0.00716185476
-0.00696543354
-0.00695229693
-0.00714278874
-0.00720811663
-0.0071342429
-0.00696529164
-0.00694715904
-0.00694846646
-0.00714425934
-0.00719668278
-0.00717253538
-0.00719811845
-0.00715422025
-0.00697120543
-0.00694750031
-0.00697348239
-0.00715454914
-0.00716721629
-0.00696622117
-0.00694877149
-0.00715221823
-0.00716828609
-0.00696741667
-0.00695180567
-0.0071466922
-0.00720960184
-0.00717662416
-0.00696283246
-0.00694665204
-0.00715503996
-0.00717131536
-0.00696722286
-0.00695189905
-0.00714653526
-0.00720808754
-0.00717694145
-0.00696217038
-0.00694715257
-0.0071555991
-0.00717116284
-0.00696737994
-0.00694851178
-0.00715389468
-0.00716857455
-0.00696474802
-0.00695212654
-0.00714154549
-0.0072026128
-0.00716899994
-0.00696143955
-0.00694551645
-0.00714934009
-0.00718012226
-0.00719699934
-0.00716427367
-0.00696089864
-0.00694953572
-0.00695015129
-0.00714713081
-0.00716790734
-0.00695976505
-0.00695547965
-0.00713848185
-0.00721019202
-0.00714724983
-0.00696029896
-0.00694753172
-0.00694940268
-0.00713468425
-0.0071845094
-0.00718085528
-0.00717728873
-0.00695307922
-0.00695167201
-0.00713447941
-0.00719732045
-0.00717102764
-0.00695524778
-0.00694946387
-0.00713589535
-0.00719674902
-0.00717383548
-0.00695604343
-0.00694670606
-0.00715272615
-0.0071661281
-0.00695768651
-0.00695091094
-0.0071376033
-0.00720071702
-0.00717701323
-0.00695640488
-0.00694686664
-0.00715450558
-0.00716788802
-0.0069572128
-0.00695086082
-0.0071362661
-0.0071991893
-0.00717799513
-0.00695615863
-0.00694678017
-0.0071531099
-0.00716359735
-0.0069578948
-0.00694625031
-0.00714789793
-0.00715639674
-0.00695626781
-0.0069483894
-0.00711898476
-0.00716754414
-0.00716589974
-0.00716642767
-0.00718325653
-0.00717915225
-0.00695299424
-0.00694835494
-0.00714404716
-0.00716123923
-0.00695356135
-0.00695312783
-0.00711788127
-0.00720197586
-0.00715660954
-0.00695579701
-0.00694668671
-0.00695343752
-0.00711313012
-0.00720013952
-0.00718068326
-0.00695422189
-0.00694994736
-0.0071257021
-0.00719638207
-0.00718257078
-0.00695317846
-0.00694676089
-0.0071487532
-0.00716350079
-0.00695319573
-0.00694873116
-0.00712040366
-0.00717694579
-0.00716731822
-0.00719116565
-0.00718438548
-0.00695734403
-0.00694599384
-0.00715490084
-0.00715640605
-0.00695575159
-0.0069479833
-0.0069541543
-0.00709659871
-0.00718835722
-0.00717757109
)
;

boundaryField
{
    closed
    {
        type            zeroGradient;
    }
    open
    {
        type            zeroGradient;
    }
    sides
    {
        type            empty;
    }
    procBoundary1to0
    {
        type            processor;
        value           uniform -0.00717096728;
    }
    procBoundary1to2
    {
        type            processor;
        value           uniform -0.00695287617;
    }
}


// ************************************************************************* //
