/*--------------------------------*- C++ -*----------------------------------*\
| =========                 |                                                 |
| \\      /  F ield         | OpenFOAM: The Open Source CFD Toolbox           |
|  \\    /   O peration     | Version:  2306                                  |
|   \\  /    A nd           | Website:  www.openfoam.com                      |
|    \\/     M anipulation  |                                                 |
\*---------------------------------------------------------------------------*/
FoamFile
{
    version     2.0;
    format      ascii;
    arch        "LSB;label=32;scalar=64";
    class       volScalarField;
    location    "0.00022";
    object      prefDh_H2O;
}
// * * * * * * * * * * * * * * * * * * * * * * * * * * * * * * * * * * * * * //

dimensions      [1 1 -3 0 0 0 0];

internalField   nonuniform List<scalar> 
530
(
-201.268674
-202.556123
-201.860499
-198.831689
-201.65783
-203.099955
-202.649694
-199.702583
-202.160638
-203.644065
-203.379892
-200.533471
-202.704521
-204.216075
-204.050303
-201.342446
-203.290704
-204.800629
-204.574611
-202.217524
-203.992396
-205.368902
-204.991274
-203.026774
-204.700486
-205.833803
-205.479828
-203.534531
-205.251809
-206.270787
-206.060405
-204.027126
-205.618875
-206.67739
-206.649272
-204.504963
-205.978537
-207.059366
-207.167306
-204.968448
-206.349268
-207.403124
-207.613988
-205.383144
-206.697881
-207.717805
-207.971116
-205.780071
-207.025006
-208.014538
-208.252098
-206.173531
-207.328015
-208.285058
-208.497899
-206.538252
-207.588479
-208.528942
-208.717134
-206.888723
-207.819427
-208.749398
-208.911696
-207.205049
-208.016704
-208.948237
-209.082037
-207.505776
-208.161994
-209.124051
-209.22525
-207.795251
-208.286882
-209.273219
-209.347642
-208.084476
-208.418071
-209.401255
-209.4571
-208.339935
-208.565802
-209.510057
-209.555674
-208.542046
-208.719222
-209.603742
-209.64244
-208.722515
-208.855225
-209.684938
-209.71533
-208.885055
-208.985873
-209.75151
-209.776943
-209.019916
-209.106314
-209.808018
-209.829663
-209.136698
-209.212304
-209.855881
-209.874162
-209.241368
-209.305167
-209.895849
-209.910453
-209.335635
-209.387126
-209.928391
-209.940316
-209.420161
-209.460282
-209.955504
-209.965057
-209.495905
-209.525993
-209.977943
-209.985451
-209.563725
-209.585387
-209.996412
-210.002188
-209.624575
-209.639048
-210.01153
-210.015865
-209.678932
-209.687702
-210.023833
-210.02699
-209.72735
-209.731935
-210.033788
-210.036004
-209.770415
-209.771831
-210.041787
-210.043269
-209.808433
-209.807921
-210.048189
-210.049154
-209.842288
-209.840786
-210.05333
-210.053899
-209.872378
-209.870161
-210.05741
-210.057687
-209.898647
-209.896187
-210.060628
-210.06071
-209.921594
-209.919185
-210.063165
-210.063122
-209.941656
-209.939467
-210.065167
-210.06505
-209.959204
-209.95733
-210.06675
-210.066597
-209.974548
-209.973059
-210.068007
-210.067846
-209.987954
-209.986931
-210.069008
-210.068862
-209.999644
-209.999195
-210.069812
-210.069692
-210.009843
-210.009976
-210.070464
-210.070375
-210.018837
-210.019362
-210.071003
-210.070937
-210.026798
-210.027503
-210.071454
-210.071405
-210.033901
-210.034527
-210.071832
-210.071796
-210.040069
-210.040788
-210.072153
-210.072131
-210.045512
-210.046194
-210.072423
-210.072409
-210.050142
-210.050906
-210.072651
-210.072657
-210.054303
-210.055068
-210.07285
-210.072871
-210.057933
-210.058761
-210.073034
-210.07306
-210.061196
-210.061971
-210.073196
-210.073223
-210.064054
-210.064747
-210.073338
-210.073364
-210.066554
-210.06714
-210.073463
-210.073485
-210.068739
-210.069203
-210.073572
-210.07359
-210.070639
-210.070983
-210.073666
-210.07368
-210.072259
-210.072498
-210.07374
-210.073747
-210.073539
-210.07366
-210.073749
-210.073742
-210.073723
-210.073716
-210.073697
-210.073693
-210.073681
-210.073677
-210.073667
-210.073664
-210.073658
-210.073655
-210.073651
-210.073649
-210.073645
-210.073644
-210.073642
-210.073641
-210.073639
-210.073638
-210.073637
-210.073636
-210.073635
-210.073635
-210.073634
-210.073634
-210.073633
-210.073633
-210.073633
-210.073633
-210.073633
-210.073632
-210.073632
-210.073632
-210.073632
-210.073632
-210.073632
-210.073632
-210.073632
-210.073632
-210.073632
-210.073632
-210.073632
-210.073632
-210.073632
-210.073632
-210.073632
-210.073632
-210.073632
-210.073632
-210.073632
-210.073632
-210.073632
-210.073632
-210.073632
-210.073632
-210.073632
-210.073632
-210.073632
-210.073632
-210.073632
-210.073632
-210.073632
-210.073632
-210.073632
-210.073632
-210.073632
-210.073632
-210.073632
-210.073632
-210.073632
-210.073632
-210.073632
-210.073632
-210.073632
-210.073632
-210.073632
-210.073632
-210.073632
-210.073632
-210.073632
-210.073632
-210.073632
-210.073632
-210.073632
-210.073632
-210.073632
-210.073632
-210.073632
-210.073632
-210.073632
-210.073632
-210.073632
-210.073632
-210.073632
-210.073632
-210.073632
-210.073632
-210.073632
-210.073632
-210.073632
-210.073632
-210.073632
-210.073632
-210.073632
-210.073632
-210.073632
-210.073632
-210.073632
-210.073632
-210.073632
-210.073632
-210.073632
-210.073632
-210.073632
-210.073632
-210.073632
-210.073632
-210.073632
-210.073632
-210.073632
-210.073632
-210.073632
-210.073632
-210.073632
-210.073632
-210.073632
-210.073632
-210.073632
-210.073632
-210.073632
-210.073632
-210.073632
-210.073632
-210.073632
-210.073632
-210.073632
-210.073632
-210.073632
-210.073632
-210.073632
-210.073632
-210.073632
-210.073632
-210.073632
-210.073632
-210.073632
-210.073632
-210.073632
-210.073632
-210.073632
-210.073632
-210.073632
-210.073632
-210.073632
-210.073632
-210.073632
-210.073632
-210.073632
-210.073632
-210.073632
-210.073632
-210.073632
-210.073632
-210.073632
-210.073632
-210.073632
-210.073632
-210.073632
-210.073632
-210.073632
-210.073632
-210.073632
-210.073632
-210.073632
-210.073632
-210.073632
-210.073632
-210.073632
-210.073632
-210.073632
-210.073632
-210.073632
-210.073632
-210.073632
-210.073632
-210.073632
-210.073632
-210.073632
-210.073632
-210.073632
-210.073632
-210.073632
-210.073632
-210.073632
-210.073632
-210.073632
-210.073632
-210.073632
-210.073632
-210.073632
-210.073632
-210.073632
-210.073632
-210.073632
-210.073632
-210.073632
-210.073632
-210.073632
-210.073632
-210.073632
-210.073632
-210.073632
-210.073632
-210.073632
-210.073632
-210.073632
-210.073632
-210.073632
-210.073632
-210.073632
-210.073632
-210.073632
-210.073632
-210.073632
-210.073632
-210.073632
-210.073632
-210.073632
-210.073632
-210.073632
-210.073632
-210.073632
-210.073632
-210.073632
-210.073632
-210.073632
-210.073632
-210.073632
-210.073632
-210.073632
-210.073632
-210.073632
-210.073632
-210.073632
-210.073632
-210.073632
-210.073632
-210.073632
-210.073632
-210.073632
-210.073632
-210.073632
-210.073632
-210.073632
-210.073632
-210.073632
-210.073632
-210.073632
-210.073632
-210.073632
-210.073632
-210.073632
-210.073632
-210.073632
-210.073632
-210.073632
-210.073632
-210.073632
-210.073632
-210.073632
-210.073632
-210.073632
-210.073632
-210.073632
-210.073632
-210.073632
-210.073632
-210.073632
-210.073632
-210.073632
-210.073632
-210.073632
-210.073632
-210.073632
-210.073632
-210.073632
-210.073632
-210.073632
)
;

boundaryField
{
    closed
    {
        type            calculated;
        value           nonuniform List<scalar> 0();
    }
    open
    {
        type            calculated;
        value           uniform -210.073632;
    }
    sides
    {
        type            empty;
    }
    procBoundary5to4
    {
        type            processor;
        value           uniform -197.908589;
    }
}


// ************************************************************************* //
