/*--------------------------------*- C++ -*----------------------------------*\
| =========                 |                                                 |
| \\      /  F ield         | OpenFOAM: The Open Source CFD Toolbox           |
|  \\    /   O peration     | Version:  2306                                  |
|   \\  /    A nd           | Website:  www.openfoam.com                      |
|    \\/     M anipulation  |                                                 |
\*---------------------------------------------------------------------------*/
FoamFile
{
    version     2.0;
    format      ascii;
    arch        "LSB;label=32;scalar=64";
    class       volScalarField;
    location    "0.00166";
    object      alpha;
}
// * * * * * * * * * * * * * * * * * * * * * * * * * * * * * * * * * * * * * //

dimensions      [1 -1 -1 0 0 0 0];

internalField   nonuniform List<scalar> 
531
(
3.68063357e-05
3.68094357e-05
3.68041378e-05
3.59339071e-05
3.5266704e-05
3.52800559e-05
3.49413028e-05
3.49430675e-05
3.67980691e-05
3.68149692e-05
3.53571559e-05
3.51103072e-05
3.68020361e-05
3.68058373e-05
3.55254154e-05
3.52020066e-05
3.68031301e-05
3.67958079e-05
3.57216114e-05
3.50662679e-05
3.50867545e-05
3.6788505e-05
3.68169751e-05
3.53288328e-05
3.52337122e-05
3.68003709e-05
3.68086262e-05
3.68098678e-05
3.54323202e-05
3.5185719e-05
3.68105549e-05
3.6802782e-05
3.68243833e-05
3.5659487e-05
3.46172244e-05
3.48785299e-05
3.68054781e-05
3.68129576e-05
3.68135586e-05
3.54426297e-05
3.52186136e-05
3.6808244e-05
3.67996009e-05
3.681931e-05
3.57333383e-05
3.50526208e-05
3.50699629e-05
3.67993396e-05
3.68088051e-05
3.56103827e-05
3.51591903e-05
3.49349554e-05
3.49494701e-05
3.68132357e-05
3.680292e-05
3.68198296e-05
3.56589773e-05
3.50204255e-05
3.67994612e-05
3.68050104e-05
3.54454272e-05
3.52720185e-05
3.68077886e-05
3.68058741e-05
3.54047256e-05
3.54376554e-05
3.68144128e-05
3.57452277e-05
3.50374296e-05
3.68064555e-05
3.6813794e-05
3.55848075e-05
3.51746418e-05
3.68110423e-05
3.68060769e-05
3.57078354e-05
3.50225278e-05
3.51284161e-05
3.68043554e-05
3.68168545e-05
3.68121073e-05
3.55426e-05
3.52870732e-05
3.68098401e-05
3.67968565e-05
3.57223756e-05
3.51044588e-05
3.52618834e-05
3.47076819e-05
3.47390856e-05
3.67985691e-05
3.68213639e-05
3.68052131e-05
3.68181932e-05
3.68090119e-05
3.55920971e-05
3.50371754e-05
3.50716e-05
3.6792522e-05
3.68263902e-05
3.54090346e-05
3.52389605e-05
3.68073397e-05
3.68167323e-05
3.53367331e-05
3.53639459e-05
3.68266893e-05
3.57221302e-05
3.49766036e-05
3.68121481e-05
3.68163432e-05
3.53721117e-05
3.51840032e-05
3.68208842e-05
3.68109051e-05
3.5268362e-05
3.52954964e-05
3.68208792e-05
3.68070874e-05
3.68274141e-05
3.57337915e-05
3.50745422e-05
3.51169381e-05
3.68190919e-05
3.68228452e-05
3.56536112e-05
3.50464172e-05
3.50811901e-05
3.68089555e-05
3.68318905e-05
3.55335849e-05
3.52961649e-05
3.68132039e-05
3.68179403e-05
3.55932606e-05
3.54257415e-05
3.68154194e-05
3.68088416e-05
3.57206566e-05
3.54328491e-05
3.52149542e-05
3.52197309e-05
3.68170989e-05
3.68102476e-05
3.51895459e-05
3.52193443e-05
3.68248732e-05
3.68081274e-05
3.6831271e-05
3.56275743e-05
3.50771321e-05
3.68153375e-05
3.6809118e-05
3.53661603e-05
3.52282465e-05
3.68206674e-05
3.6802957e-05
3.52638694e-05
3.53077895e-05
3.68188275e-05
3.67955597e-05
3.68201851e-05
3.57623033e-05
3.51811306e-05
3.51319179e-05
3.50869987e-05
3.68053007e-05
3.68079191e-05
3.51521649e-05
3.51189959e-05
3.68078178e-05
3.68028025e-05
3.51467606e-05
3.51587605e-05
3.68131622e-05
3.67952868e-05
3.68131332e-05
3.56227913e-05
3.48410467e-05
3.49577025e-05
3.67934947e-05
3.68130807e-05
3.52431867e-05
3.51001127e-05
3.68145663e-05
3.6800872e-05
3.6814446e-05
3.67990929e-05
3.57823488e-05
3.53898938e-05
3.53698761e-05
3.52020808e-05
3.48112348e-05
3.48191779e-05
3.68162971e-05
3.68071465e-05
3.68145802e-05
3.68082268e-05
3.57294463e-05
3.52731793e-05
3.51052061e-05
3.51245458e-05
3.6828595e-05
3.68003741e-05
3.6826455e-05
3.55550311e-05
3.52758924e-05
3.68238937e-05
3.68023353e-05
3.68253402e-05
3.57446774e-05
3.50719143e-05
3.51357159e-05
3.68209437e-05
3.68220748e-05
3.5560687e-05
3.49281475e-05
3.50088804e-05
3.68169348e-05
3.68272152e-05
3.52550524e-05
3.52571042e-05
3.6835094e-05
3.68105114e-05
3.6832456e-05
3.57264649e-05
3.49033642e-05
3.51283322e-05
3.68205263e-05
3.68078952e-05
3.68134945e-05
3.55284621e-05
3.5391013e-05
3.68234551e-05
3.60770234e-05
3.51439404e-05
3.68100777e-05
3.68150033e-05
3.5667169e-05
3.53152837e-05
3.51504431e-05
3.51644976e-05
3.68271473e-05
3.67950347e-05
3.68108847e-05
3.57485741e-05
3.50585405e-05
3.52773729e-05
3.47409621e-05
3.47895887e-05
3.68031726e-05
3.67956715e-05
3.67983482e-05
3.52787731e-05
3.49659069e-05
3.68308331e-05
3.6793609e-05
3.68226283e-05
3.68037601e-05
3.54803019e-05
3.50349464e-05
3.68303686e-05
3.67968912e-05
3.55201637e-05
3.49000872e-05
3.49950394e-05
3.67938783e-05
3.68195787e-05
3.5308256e-05
3.53279309e-05
3.6817671e-05
3.68032286e-05
3.68013109e-05
3.58002436e-05
3.50510111e-05
3.52515958e-05
3.46648196e-05
3.47479066e-05
3.68093017e-05
3.68172696e-05
3.67997125e-05
3.68122611e-05
3.67880682e-05
3.55651997e-05
3.49904845e-05
3.50756765e-05
3.67975352e-05
3.68169592e-05
3.52871866e-05
3.5317596e-05
3.6821703e-05
3.67970852e-05
3.68043253e-05
3.57644724e-05
3.50489253e-05
3.52842529e-05
3.46769523e-05
3.47489773e-05
3.68067991e-05
3.67964985e-05
3.68017271e-05
3.51453316e-05
3.48094603e-05
3.68331258e-05
3.67943833e-05
3.68197756e-05
3.67998101e-05
3.52972405e-05
3.5078647e-05
3.68421767e-05
3.67923978e-05
3.68289294e-05
3.67920503e-05
3.57684854e-05
3.51678696e-05
3.53352776e-05
3.48556368e-05
3.48849662e-05
3.68037609e-05
3.67889974e-05
3.5076948e-05
3.50051799e-05
3.68149506e-05
3.67842138e-05
3.68014049e-05
3.67962805e-05
3.51085757e-05
3.48417147e-05
3.46993298e-05
3.47546557e-05
3.6833395e-05
3.67951587e-05
3.68316879e-05
3.54480611e-05
3.51945819e-05
3.68523872e-05
3.68163155e-05
3.68429157e-05
3.5648586e-05
3.49548923e-05
3.50649321e-05
3.68467587e-05
3.68622248e-05
3.52331891e-05
3.52918779e-05
3.68869509e-05
3.68710359e-05
3.68789924e-05
3.56907046e-05
3.48302229e-05
3.50343661e-05
3.43734037e-05
3.44318634e-05
3.69630763e-05
3.69605941e-05
3.69871306e-05
3.69859649e-05
3.70061706e-05
3.70170085e-05
3.54661414e-05
3.44302882e-05
3.47085351e-05
3.71030797e-05
3.71481726e-05
3.71386401e-05
3.48665844e-05
3.46294743e-05
3.70475824e-05
3.70623584e-05
3.70466003e-05
3.70192307e-05
3.49627523e-05
3.69204314e-05
3.69972655e-05
3.44301703e-05
3.44364322e-05
3.67566292e-05
3.67778406e-05
3.66606518e-05
3.66900376e-05
3.65957463e-05
3.6616755e-05
3.65566209e-05
3.65708948e-05
3.65411288e-05
3.65513293e-05
3.65411887e-05
3.65515195e-05
3.65548531e-05
3.6573928e-05
3.65967468e-05
3.66423114e-05
3.67113122e-05
3.68401905e-05
3.70646655e-05
3.72015472e-05
3.70194318e-05
3.68307992e-05
3.66599494e-05
3.64969554e-05
3.63475663e-05
3.62111951e-05
3.60894528e-05
3.5983991e-05
3.58580224e-05
3.57160481e-05
3.55916164e-05
3.55598724e-05
3.55763452e-05
3.54665051e-05
3.53323386e-05
3.5259833e-05
3.51314705e-05
3.51009039e-05
3.49763168e-05
3.49531038e-05
3.4596678e-05
3.44867976e-05
3.40972314e-05
3.40008827e-05
3.35871266e-05
3.34820185e-05
3.30657207e-05
3.59931078e-05
3.54362322e-05
3.52347572e-05
3.46747534e-05
3.44234807e-05
3.38677848e-05
3.35548198e-05
3.30003781e-05
3.26046719e-05
3.20336344e-05
3.15170484e-05
3.1343287e-05
3.12692056e-05
3.11956409e-05
3.11116652e-05
3.10381004e-05
3.09458281e-05
3.08734488e-05
3.07726927e-05
3.08186845e-05
3.06546181e-05
3.08830935e-05
3.19893099e-05
3.34173968e-05
3.49100171e-05
3.57681914e-05
3.79545909e-05
3.94077786e-05
4.08099949e-05
4.23886808e-05
4.34150009e-05
4.4694556e-05
4.56197347e-05
4.69779619e-05
4.79312435e-05
4.94546695e-05
5.04185807e-05
5.2002148e-05
5.29119209e-05
5.44762745e-05
5.52975163e-05
5.67801532e-05
5.74951724e-05
5.88446296e-05
5.94638415e-05
6.07118685e-05
6.12536649e-05
6.24048401e-05
6.28862688e-05
6.39918908e-05
6.43925477e-05
6.53790033e-05
6.57050421e-05
6.65676754e-05
6.68386185e-05
6.75868633e-05
6.7821216e-05
6.84648927e-05
6.86823719e-05
6.92836065e-05
6.9522679e-05
7.00689919e-05
7.02252015e-05
7.06980597e-05
7.09065886e-05
7.13753785e-05
7.13498636e-05
7.17426644e-05
7.20345087e-05
7.2509135e-05
7.24273631e-05
7.27341751e-05
7.312575e-05
7.38289819e-05
7.30715171e-05
7.33430706e-05
7.43478273e-05
7.49069472e-05
7.35844665e-05
7.390737e-05
7.43530298e-05
7.50813859e-05
7.39728961e-05
7.42902942e-05
7.46914986e-05
7.53239762e-05
7.44788459e-05
7.4824232e-05
7.50601116e-05
7.562607e-05
7.50037695e-05
7.5219556e-05
7.5380042e-05
7.59022576e-05
7.54222751e-05
7.55967999e-05
7.56585418e-05
7.61336772e-05
7.57646131e-05
7.58927759e-05
7.59079677e-05
7.63142626e-05
7.60442839e-05
7.61246676e-05
7.61344982e-05
7.64584843e-05
7.62714416e-05
7.63189581e-05
)
;

boundaryField
{
    closed
    {
        type            calculated;
        value           nonuniform List<scalar> 0();
    }
    open
    {
        type            calculated;
        value           nonuniform List<scalar> 0();
    }
    sides
    {
        type            empty;
    }
    procBoundary4to3
    {
        type            processor;
        value           uniform 3.68075496e-05;
    }
    procBoundary4to5
    {
        type            processor;
        value           uniform 7.63393574e-05;
    }
}


// ************************************************************************* //
