/*--------------------------------*- C++ -*----------------------------------*\
| =========                 |                                                 |
| \\      /  F ield         | OpenFOAM: The Open Source CFD Toolbox           |
|  \\    /   O peration     | Version:  2306                                  |
|   \\  /    A nd           | Website:  www.openfoam.com                      |
|    \\/     M anipulation  |                                                 |
\*---------------------------------------------------------------------------*/
FoamFile
{
    version     2.0;
    format      ascii;
    arch        "LSB;label=32;scalar=64";
    class       volVectorField;
    location    "0.00134";
    object      U;
}
// * * * * * * * * * * * * * * * * * * * * * * * * * * * * * * * * * * * * * //

dimensions      [0 1 -1 0 0 0 0];

internalField   nonuniform List<vector> 
531
(
(0.228924133 0 0)
(0.22279948 0 0)
(0.222550696 0 0)
(0.229455698 0 0)
(0.233612791 0 0)
(0.228162685 0 0)
(0.222970184 0 0)
(0.224414592 0 0)
(0.227840044 0 0)
(0.226562391 0 0)
(0.22543602 0 0)
(0.230613812 0 0)
(0.234698091 0 0)
(0.233025277 0 0)
(0.228427883 0 0)
(0.22736311 0 0)
(0.232804846 0 0)
(0.234558529 0 0)
(0.229844985 0 0)
(0.225696141 0 0)
(0.224002545 0 0)
(0.227229753 0 0)
(0.233560509 0 0)
(0.234442509 0 0)
(0.22959322 0 0)
(0.224731886 0 0)
(0.22198627 0 0)
(0.220158092 0 0)
(0.225453053 0 0)
(0.228376151 0 0)
(0.220992658 0 0)
(0.219790127 0 0)
(0.226495999 0 0)
(0.231386252 0 0)
(0.231665487 0 0)
(0.230506997 0 0)
(0.222566601 0 0)
(0.217916916 0 0)
(0.223404023 0 0)
(0.23171038 0 0)
(0.234052042 0 0)
(0.226274953 0 0)
(0.217600207 0 0)
(0.216240787 0 0)
(0.223150805 0 0)
(0.228849141 0 0)
(0.228415447 0 0)
(0.223717689 0 0)
(0.219184089 0 0)
(0.222834283 0 0)
(0.228680973 0 0)
(0.226359065 0 0)
(0.222856768 0 0)
(0.227035942 0 0)
(0.228305675 0 0)
(0.222933763 0 0)
(0.221905387 0 0)
(0.226828671 0 0)
(0.228073284 0 0)
(0.223357701 0 0)
(0.218704971 0 0)
(0.216356006 0 0)
(0.217467641 0 0)
(0.224309399 0 0)
(0.229621743 0 0)
(0.226827862 0 0)
(0.220155791 0 0)
(0.215479943 0 0)
(0.215081781 0 0)
(0.221360341 0 0)
(0.224574056 0 0)
(0.218073907 0 0)
(0.212510783 0 0)
(0.212913841 0 0)
(0.219412538 0 0)
(0.221178591 0 0)
(0.215730338 0 0)
(0.215212173 0 0)
(0.220433224 0 0)
(0.22039669 0 0)
(0.214992593 0 0)
(0.215119862 0 0)
(0.220810923 0 0)
(0.223810049 0 0)
(0.221210363 0 0)
(0.215458838 0 0)
(0.211198526 0 0)
(0.209504189 0 0)
(0.209314493 0 0)
(0.21503525 0 0)
(0.220328199 0 0)
(0.217247615 0 0)
(0.210129019 0 0)
(0.204785532 0 0)
(0.209412962 0 0)
(0.216924017 0 0)
(0.215166694 0 0)
(0.208063221 0 0)
(0.202066387 0 0)
(0.20801848 0 0)
(0.216442314 0 0)
(0.213473666 0 0)
(0.207741059 0 0)
(0.207167681 0 0)
(0.211995018 0 0)
(0.211340479 0 0)
(0.205637097 0 0)
(0.205680611 0 0)
(0.210669008 0 0)
(0.212715559 0 0)
(0.211154672 0 0)
(0.205953584 0 0)
(0.199789352 0 0)
(0.196138744 0 0)
(0.199021509 0 0)
(0.206115463 0 0)
(0.208653059 0 0)
(0.207867087 0 0)
(0.203310553 0 0)
(0.197478757 0 0)
(0.198513953 0 0)
(0.20552446 0 0)
(0.209175102 0 0)
(0.208789617 0 0)
(0.205784516 0 0)
(0.200214251 0 0)
(0.195688489 0 0)
(0.194041901 0 0)
(0.196250526 0 0)
(0.20170415 0 0)
(0.201460646 0 0)
(0.195047828 0 0)
(0.189844483 0 0)
(0.190894453 0 0)
(0.198110153 0 0)
(0.201856167 0 0)
(0.197053147 0 0)
(0.191129054 0 0)
(0.191721358 0 0)
(0.196648208 0 0)
(0.199277089 0 0)
(0.198914127 0 0)
(0.195809372 0 0)
(0.190636583 0 0)
(0.186867458 0 0)
(0.18555677 0 0)
(0.185854919 0 0)
(0.191915201 0 0)
(0.196943914 0 0)
(0.194761877 0 0)
(0.187550047 0 0)
(0.181388772 0 0)
(0.182012102 0 0)
(0.18849606 0 0)
(0.192029762 0 0)
(0.191656295 0 0)
(0.188867089 0 0)
(0.183263588 0 0)
(0.17806069 0 0)
(0.175611033 0 0)
(0.179179849 0 0)
(0.185340143 0 0)
(0.186447215 0 0)
(0.186080824 0 0)
(0.185349787 0 0)
(0.180355709 0 0)
(0.176046187 0 0)
(0.174812482 0 0)
(0.172515247 0 0)
(0.17247003 0 0)
(0.178859358 0 0)
(0.184202421 0 0)
(0.183651285 0 0)
(0.182449117 0 0)
(0.177233159 0 0)
(0.172556323 0 0)
(0.171081478 0 0)
(0.169182096 0 0)
(0.173629783 0 0)
(0.181220001 0 0)
(0.182939309 0 0)
(0.182604975 0 0)
(0.180023856 0 0)
(0.174470454 0 0)
(0.169499625 0 0)
(0.167554813 0 0)
(0.167790087 0 0)
(0.173097981 0 0)
(0.177302087 0 0)
(0.174672867 0 0)
(0.169530803 0 0)
(0.168257107 0 0)
(0.171929176 0 0)
(0.171327808 0 0)
(0.166948089 0 0)
(0.166569013 0 0)
(0.169938634 0 0)
(0.168938914 0 0)
(0.164536465 0 0)
(0.164781709 0 0)
(0.168133101 0 0)
(0.168745775 0 0)
(0.167416698 0 0)
(0.163286246 0 0)
(0.159107319 0 0)
(0.157980861 0 0)
(0.163504607 0 0)
(0.167010604 0 0)
(0.161338183 0 0)
(0.159895269 0 0)
(0.16373901 0 0)
(0.163478139 0 0)
(0.159594668 0 0)
(0.158925878 0 0)
(0.161887663 0 0)
(0.161508894 0 0)
(0.157057372 0 0)
(0.152988297 0 0)
(0.151172838 0 0)
(0.154399638 0 0)
(0.159326613 0 0)
(0.159965836 0 0)
(0.158382245 0 0)
(0.15513724 0 0)
(0.151572758 0 0)
(0.149226972 0 0)
(0.150011144 0 0)
(0.154649054 0 0)
(0.157563489 0 0)
(0.156110941 0 0)
(0.151624062 0 0)
(0.148114816 0 0)
(0.149536626 0 0)
(0.152211397 0 0)
(0.149754518 0 0)
(0.148439673 0 0)
(0.151767081 0 0)
(0.153521774 0 0)
(0.15159117 0 0)
(0.146573914 0 0)
(0.142204871 0 0)
(0.141216445 0 0)
(0.144630066 0 0)
(0.150038791 0 0)
(0.152362771 0 0)
(0.152477201 0 0)
(0.15066255 0 0)
(0.146525885 0 0)
(0.142894594 0 0)
(0.141892674 0 0)
(0.14249429 0 0)
(0.146817188 0 0)
(0.150815691 0 0)
(0.149391354 0 0)
(0.145299071 0 0)
(0.142111332 0 0)
(0.145457005 0 0)
(0.150632389 0 0)
(0.149775505 0 0)
(0.145376985 0 0)
(0.141966055 0 0)
(0.14414788 0 0)
(0.147488574 0 0)
(0.145733666 0 0)
(0.144529579 0 0)
(0.14784 0 0)
(0.147925369 0 0)
(0.143736797 0 0)
(0.142786685 0 0)
(0.146286707 0 0)
(0.146135137 0 0)
(0.141400416 0 0)
(0.14061742 0 0)
(0.144202707 0 0)
(0.146130293 0 0)
(0.144264599 0 0)
(0.141590683 0 0)
(0.143354733 0 0)
(0.14829356 0 0)
(0.150201859 0 0)
(0.147483361 0 0)
(0.143009774 0 0)
(0.140211569 0 0)
(0.141996409 0 0)
(0.144620443 0 0)
(0.142504743 0 0)
(0.141218101 0 0)
(0.144806332 0 0)
(0.147304286 0 0)
(0.145795179 0 0)
(0.141869066 0 0)
(0.140757676 0 0)
(0.143934774 0 0)
(0.144619308 0 0)
(0.140379785 0 0)
(0.135909137 0 0)
(0.134707121 0 0)
(0.138211292 0 0)
(0.143802224 0 0)
(0.146856797 0 0)
(0.147602795 0 0)
(0.145454966 0 0)
(0.14101827 0 0)
(0.138656987 0 0)
(0.140897281 0 0)
(0.146161038 0 0)
(0.14766496 0 0)
(0.143978505 0 0)
(0.143000952 0 0)
(0.146703095 0 0)
(0.147953773 0 0)
(0.144081846 0 0)
(0.140600288 0 0)
(0.14259609 0 0)
(0.148399872 0 0)
(0.15172216 0 0)
(0.148960112 0 0)
(0.144861496 0 0)
(0.144937887 0 0)
(0.14619167 0 0)
(0.143313091 0 0)
(0.141787466 0 0)
(0.146727868 0 0)
(0.151132436 0 0)
(0.151726629 0 0)
(0.148853973 0 0)
(0.1443407 0 0)
(0.144083609 0 0)
(0.145970776 0 0)
(0.143177116 0 0)
(0.141652868 0 0)
(0.14732081 0 0)
(0.152525751 0 0)
(0.153312288 0 0)
(0.150392881 0 0)
(0.145768797 0 0)
(0.145653957 0 0)
(0.147570032 0 0)
(0.144594851 0 0)
(0.143078644 0 0)
(0.148602205 0 0)
(0.153730731 0 0)
(0.154456977 0 0)
(0.151802108 0 0)
(0.1477065 0 0)
(0.147409327 0 0)
(0.149311708 0 0)
(0.147478324 0 0)
(0.14639475 0 0)
(0.150856255 0 0)
(0.154760989 0 0)
(0.154333906 0 0)
(0.1509148 0 0)
(0.147514081 0 0)
(0.148271027 0 0)
(0.153597663 0 0)
(0.156235149 0 0)
(0.151099273 0 0)
(0.146372431 0 0)
(0.148561276 0 0)
(0.155063329 0 0)
(0.159042166 0 0)
(0.156424536 0 0)
(0.152527331 0 0)
(0.152920307 0 0)
(0.155184624 0 0)
(0.154050883 0 0)
(0.1534169 0 0)
(0.157817328 0 0)
(0.159408358 0 0)
(0.155121342 0 0)
(0.15423488 0 0)
(0.158770512 0 0)
(0.159843713 0 0)
(0.155308269 0 0)
(0.154431027 0 0)
(0.159026203 0 0)
(0.159838801 0 0)
(0.155182462 0 0)
(0.154476848 0 0)
(0.159768272 0 0)
(0.164347417 0 0)
(0.164869674 0 0)
(0.162563568 0 0)
(0.158769661 0 0)
(0.158606016 0 0)
(0.163096314 0 0)
(0.165115269 0 0)
(0.162168529 0 0)
(0.159175488 0 0)
(0.158582206 0 0)
(0.16174099 0 0)
(0.167463791 0 0)
(0.169436548 0 0)
(0.164810988 0 0)
(0.160603507 0 0)
(0.160992924 0 0)
(0.166323123 0 0)
(0.169826091 0 0)
(0.16577497 0 0)
(0.161848208 0 0)
(0.163823977 0 0)
(0.169717674 0 0)
(0.1708596 0 0)
(0.166344232 0 0)
(0.166065157 0 0)
(0.171915581 0 0)
(0.176856995 0 0)
(0.177789992 0 0)
(0.177698406 0 0)
(0.176456507 0 0)
(0.171912639 0 0)
(0.170399275 0 0)
(0.175556988 0 0)
(0.17721103 0 0)
(0.17271043 0 0)
(0.172091559 0 0)
(0.1777835 0 0)
(0.180347577 0 0)
(0.175399908 0 0)
(0.170920036 0 0)
(0.173380064 0 0)
(0.180875204 0 0)
(0.186107342 0 0)
(0.184125485 0 0)
(0.178414718 0 0)
(0.177227714 0 0)
(0.183383718 0 0)
(0.186235681 0 0)
(0.181226603 0 0)
(0.176648703 0 0)
(0.178975735 0 0)
(0.186303477 0 0)
(0.191390854 0 0)
(0.189455043 0 0)
(0.184380207 0 0)
(0.183946563 0 0)
(0.190311467 0 0)
(0.193167615 0 0)
(0.188460525 0 0)
(0.183972814 0 0)
(0.185015849 0 0)
(0.191379769 0 0)
(0.194605483 0 0)
(0.190448855 0 0)
(0.189820846 0 0)
(0.195344974 0 0)
(0.197774213 0 0)
(0.193515154 0 0)
(0.189522777 0 0)
(0.189848322 0 0)
(0.195779868 0 0)
(0.199316952 0 0)
(0.195262939 0 0)
(0.194795427 0 0)
(0.200203737 0 0)
(0.202362995 0 0)
(0.197784633 0 0)
(0.193519516 0 0)
(0.194819736 0 0)
(0.201189768 0 0)
(0.203259069 0 0)
(0.198727332 0 0)
(0.198940062 0 0)
(0.205740771 0 0)
(0.210518398 0 0)
(0.205197488 0 0)
(0.200093625 0 0)
(0.202853758 0 0)
(0.209319551 0 0)
(0.211262643 0 0)
(0.206496632 0 0)
(0.206263638 0 0)
(0.212543877 0 0)
(0.215032739 0 0)
(0.211020324 0 0)
(0.207079773 0 0)
(0.205083144 0 0)
(0.205453219 0 0)
(0.212533751 0 0)
(0.219465447 0 0)
(0.21604104 0 0)
(0.210561426 0 0)
(0.211354028 0 0)
(0.218856094 0 0)
(0.224228701 0 0)
(0.222731266 0 0)
(0.216250511 0 0)
(0.214325863 0 0)
(0.221311361 0 0)
(0.22379507 0 0)
(0.219081519 0 0)
(0.218909615 0 0)
(0.22565564 0 0)
(0.228167874 0 0)
(0.222693028 0 0)
(0.21749597 0 0)
(0.218224345 0 0)
(0.225605262 0 0)
(0.228484785 0 0)
(0.223442845 0 0)
(0.223686406 0 0)
(0.230262879 0 0)
(0.231079437 0 0)
(0.225363345 0 0)
(0.22594314 0 0)
(0.233773501 0 0)
(0.238562758 0 0)
(0.236110181 0 0)
(0.22894115 0 0)
(0.227041821 0 0)
(0.234359996 0 0)
(0.237147728 0 0)
(0.232020859 0 0)
(0.227298641 0 0)
(0.228640662 0 0)
(0.237065837 0 0)
(0.242700318 0 0)
(0.236912305 0 0)
(0.231042861 0 0)
(0.234274489 0 0)
(0.242151634 0 0)
(0.243186437 0 0)
(0.236941095 0 0)
(0.237797865 0 0)
(0.246497558 0 0)
(0.251620616 0 0)
(0.248507915 0 0)
(0.241318304 0 0)
(0.240511471 0 0)
(0.248370909 0 0)
)
;

boundaryField
{
    closed
    {
        type            noSlip;
    }
    open
    {
        type            inletOutlet;
        inletValue      nonuniform List<vector> 0();
        value           nonuniform List<vector> 0();
    }
    sides
    {
        type            empty;
    }
    procBoundary3to2
    {
        type            processor;
        value           uniform (0.235008276 0 0);
    }
    procBoundary3to4
    {
        type            processor;
        value           uniform (0.250949342 0 0);
    }
}


// ************************************************************************* //
