/*--------------------------------*- C++ -*----------------------------------*\
| =========                 |                                                 |
| \\      /  F ield         | OpenFOAM: The Open Source CFD Toolbox           |
|  \\    /   O peration     | Version:  2306                                  |
|   \\  /    A nd           | Website:  www.openfoam.com                      |
|    \\/     M anipulation  |                                                 |
\*---------------------------------------------------------------------------*/
FoamFile
{
    version     2.0;
    format      ascii;
    arch        "LSB;label=32;scalar=64";
    class       volScalarField;
    location    "0.00172";
    object      H2;
}
// * * * * * * * * * * * * * * * * * * * * * * * * * * * * * * * * * * * * * //

dimensions      [0 0 0 0 0 0 0];

internalField   nonuniform List<scalar> 
531
(
0.0110454928
0.0110142359
0.010681028
0.01067276
0.0110527101
0.0110010604
0.0110189545
0.0107496087
0.0106578035
0.0106537907
0.0110371494
0.0110178938
0.010751031
0.010648491
0.010653893
0.0110415707
0.0106938376
0.0106453898
0.0110605416
0.0110145323
0.0110327374
0.0110052317
0.011009512
0.0107346646
0.0106731121
0.0106693796
0.0106408623
0.0106360337
0.0110542062
0.011016651
0.0106756665
0.0106705322
0.0110552378
0.0110038556
0.0110183711
0.0107708776
0.0106762358
0.0106579588
0.0106541887
0.0110522642
0.011015619
0.0106790064
0.0106571817
0.0110546276
0.0110144207
0.0106758382
0.0106542683
0.0110574724
0.0110148063
0.0106659535
0.0106489559
0.0110665757
0.0110153898
0.0110325685
0.0110128847
0.0106986753
0.0106676914
0.0110431739
0.0110064428
0.0106847341
0.0106811715
0.0110461983
0.0107137674
0.0106544992
0.0110490641
0.0110074514
0.0110202804
0.0107663536
0.0106711789
0.0106548683
0.010653865
0.0110473833
0.0110243067
0.0106959202
0.0106328585
0.0106280863
0.011049443
0.0110204899
0.010677898
0.0106499963
0.011054843
0.0110155498
0.0106652404
0.0106568793
0.0110592302
0.0110120229
0.0110241876
0.0106792194
0.0106539345
0.0110561997
0.0110146771
0.0110258177
0.0110097414
0.0108095312
0.0106827396
0.0106642625
0.0106617616
0.0110380909
0.0110166483
0.0107338435
0.010650692
0.0106588576
0.0110379917
0.010716172
0.0106514834
0.0110412385
0.0110137519
0.0106772301
0.0106743803
0.0110481679
0.0110018391
0.0110164983
0.0107472195
0.0106677057
0.0106500113
0.0106480889
0.0110488178
0.0110136444
0.0106723903
0.0106700296
0.0110468459
0.0106944407
0.0106426822
0.0110527641
0.0110122984
0.0110293693
0.0106933664
0.0106646945
0.0110461545
0.0110042029
0.0110211959
0.0107218045
0.0106670383
0.011028908
0.0110101435
0.0107322222
0.0106815333
0.0106594607
0.0106627936
0.0110403439
0.010700137
0.0106461746
0.0110559754
0.011020028
0.011034909
0.0106660334
0.0106514138
0.0110583063
0.010687467
0.01063596
0.0110599433
0.0110154678
0.0110375668
0.0106933573
0.0106536712
0.0110511055
0.011011714
0.0110285155
0.0110030688
0.0110070991
0.0107450931
0.0106721266
0.0106702727
0.0106409005
0.0106386627
0.0110424755
0.0106959517
0.0106375497
0.0110361924
0.0110224313
0.0106889556
0.0106615444
0.0110318891
0.0110220212
0.0107363509
0.0106510251
0.0106482878
0.0110505577
0.0110324989
0.0110336647
0.011033439
0.0106678632
0.0106460181
0.011042223
0.0110277233
0.0107040209
0.0106380943
0.0106344072
0.0110441995
0.0110204842
0.0110196029
0.0110158862
0.0107450193
0.0106660482
0.0106484263
0.010644987
0.0110482482
0.0110156355
0.0106763391
0.0106591628
0.0110448721
0.0110116724
0.0106817623
0.0106665217
0.0110456626
0.0110106517
0.0106694885
0.010664378
0.0110527043
0.011008087
0.0110319404
0.0110026427
0.0110106459
0.0107120199
0.0106729095
0.0106657571
0.0106636023
0.0106235069
0.0106259201
0.011049981
0.0110176277
0.0110316728
0.0106828793
0.0106579156
0.0110450163
0.0110075916
0.0110236823
0.0106937147
0.0106546416
0.0110259464
0.0110202673
0.0107129263
0.0106457715
0.0106415904
0.0110297861
0.0110153211
0.0106902864
0.010661814
0.0110258838
0.0110151742
0.0107229583
0.0106546364
0.0106530602
0.0110238113
0.0110175321
0.0107287005
0.010651765
0.010648234
0.0110272249
0.0110091049
0.0106832975
0.0106817639
0.0110342067
0.0107508607
0.0106437101
0.0110276249
0.0110152765
0.0106839243
0.0106656705
0.0110285275
0.0110092283
0.0106877239
0.0106737756
0.0110232627
0.0110081558
0.010712116
0.0106783259
0.0106499777
0.0106517719
0.011041075
0.0110067987
0.0110272523
0.0107232534
0.01065699
0.0110268198
0.0110125136
0.0106819123
0.0106628445
0.0110327474
0.0110097665
0.0106739658
0.0106615572
0.0110352465
0.0110084931
0.0106661786
0.0106649029
0.0110344815
0.011001389
0.0110145607
0.0107042744
0.0106641961
0.0106396488
0.0106428855
0.0110401668
0.0110084853
0.011021972
0.0107034489
0.0106347556
0.0106389692
0.011033711
0.0110112774
0.0110156842
0.010692769
0.0106819707
0.0110303429
0.0108322499
0.0106536774
0.0110276103
0.011012756
0.0106893988
0.0106727148
0.0110224605
0.011010793
0.0107060291
0.0106772711
0.0106449289
0.0106469876
0.0110443319
0.0110148051
0.0110293742
0.0106803202
0.0106602262
0.0110446526
0.0106837006
0.0106120168
0.011040295
0.0110291669
0.0110187197
0.0110208584
0.0107313087
0.010650149
0.0106482193
0.0110236574
0.0110200413
0.010715793
0.0106493169
0.0106473823
0.0110237484
0.0110216713
0.0107118082
0.0106388013
0.0106439275
0.0110337928
0.0110092319
0.0110176756
0.0106945965
0.0106607115
0.0110198709
0.0110187599
0.0107136471
0.0106433599
0.0106444725
0.0110306532
0.0110089881
0.0110140804
0.0106902903
0.0106649308
0.0110193514
0.0110151618
0.0107157897
0.0106541161
0.0106514719
0.011021295
0.0110158862
0.0107197011
0.0106529738
0.0106521119
0.0110196646
0.0110176729
0.0107172639
0.0106505244
0.0106470084
0.0110229189
0.0110128497
0.0106883635
0.0106650628
0.0110217864
0.0110107267
0.0106956529
0.0106677052
0.0106399124
0.0106392991
0.0110432268
0.0110125221
0.0110285127
0.0110032708
0.0110140123
0.0107140624
0.0106552219
0.0106503577
0.0110250863
0.0110115945
0.0106817984
0.0106607067
0.011025329
0.0110112658
0.0106826575
0.0106625545
0.0110196782
0.0110154113
0.0107100092
0.0106523246
0.0106491079
0.0110231306
0.0110139528
0.0106896565
0.0106620557
0.0110197438
0.0110161752
0.0107098807
0.0106482677
0.0106468347
0.0110230069
0.0110236625
0.0106957099
0.0110299459
0.0110036378
0.010699645
0.0106608773
0.0106605741
0.0110207681
0.0110159423
0.01071075
0.0106505787
0.0106478942
0.011022598
0.0110207784
0.0106995746
0.0106310015
0.0106367757
0.0110353488
0.0110116304
0.0110206975
0.0106816329
0.0106653482
0.0110334228
0.0110017826
0.0110193835
0.0107450034
0.0106372072
0.0106476187
0.0110311304
0.0110044623
0.0110163569
0.0107184807
0.0106681497
0.011014562
0.0110069538
0.0107288253
0.010678701
0.0106629499
0.0106622327
0.0110274781
0.0110091236
0.0106839285
0.0106704286
0.0110205037
0.0110080733
0.0107031992
0.0106739168
0.0106538475
0.0106526164
0.0110348517
0.0110139432
0.0106666379
0.0106571496
0.011035251
0.0110125658
0.0106597411
0.0106594718
0.0110378022
0.01100745
0.011023334
0.0106865133
0.0106534539
0.0110246638
0.0110190121
0.0106801832
0.0106519045
0.0110237075
0.011026261
0.0106907008
0.0106207376
0.0106239604
0.0110426219
0.0110214012
0.0110293036
0.0110151304
0.0110151235
0.0106741205
0.0106727762
0.0110347859
0.0106876611
0.0106412696
0.011032726
0.0110082836
0.0110175175
0.0107392386
0.0106605606
0.010671093
0.0106392382
0.0106367745
0.0110354891
0.0110179503
0.0106612596
0.0106603402
0.0110399851
0.0110076129
0.0110257215
0.0106919375
0.0106611749
0.0110242127
0.0110115009
0.0106748458
0.0106772044
0.0110298211
0.0110008315
0.0110163179
0.0107607906
0.0106707886
0.0106589319
0.0106546651
0.0110264366
0.0110211079
0.01068477
0.0106305832
0.0106369293
0.0110335515
0.0110061785
0.0110195385
0.0107155903
)
;

boundaryField
{
    closed
    {
        type            calculated;
        value           nonuniform List<scalar> 0();
    }
    open
    {
        type            calculated;
        value           nonuniform List<scalar> 0();
    }
    sides
    {
        type            empty;
    }
    procBoundary1to0
    {
        type            processor;
        value           uniform 0.0106457665;
    }
    procBoundary1to2
    {
        type            processor;
        value           uniform 0.0106479656;
    }
}


// ************************************************************************* //
