/*--------------------------------*- C++ -*----------------------------------*\
| =========                 |                                                 |
| \\      /  F ield         | OpenFOAM: The Open Source CFD Toolbox           |
|  \\    /   O peration     | Version:  2306                                  |
|   \\  /    A nd           | Website:  www.openfoam.com                      |
|    \\/     M anipulation  |                                                 |
\*---------------------------------------------------------------------------*/
FoamFile
{
    version     2.0;
    format      ascii;
    arch        "LSB;label=32;scalar=64";
    class       volScalarField;
    location    "0.00172";
    object      prefDZ_T;
}
// * * * * * * * * * * * * * * * * * * * * * * * * * * * * * * * * * * * * * //

dimensions      [1 -1 -1 -1 0 0 0];

internalField   nonuniform List<scalar> 
531
(
-1.23082091e-09
-1.22750596e-09
-1.18952367e-09
-1.18869332e-09
-1.23158922e-09
-1.22610926e-09
-1.22801419e-09
-1.19758964e-09
-1.18713717e-09
-1.18675009e-09
-1.22994036e-09
-1.22789572e-09
-1.19769039e-09
-1.18619555e-09
-1.1867512e-09
-1.23040586e-09
-1.19084957e-09
-1.18588223e-09
-1.23242258e-09
-1.22754033e-09
-1.22947741e-09
-1.22655154e-09
-1.22701624e-09
-1.19579616e-09
-1.18869333e-09
-1.18834595e-09
-1.18541132e-09
-1.18493984e-09
-1.23175724e-09
-1.22776331e-09
-1.18895185e-09
-1.18845194e-09
-1.23186209e-09
-1.22641454e-09
-1.22795395e-09
-1.20000158e-09
-1.18902637e-09
-1.18714702e-09
-1.18678288e-09
-1.23155134e-09
-1.22765364e-09
-1.18928801e-09
-1.18709546e-09
-1.23180328e-09
-1.22752376e-09
-1.18896279e-09
-1.18680266e-09
-1.23210518e-09
-1.22756281e-09
-1.18795572e-09
-1.18626461e-09
-1.23306924e-09
-1.22762291e-09
-1.22946282e-09
-1.22735493e-09
-1.19132206e-09
-1.18817976e-09
-1.23058028e-09
-1.22667629e-09
-1.18989522e-09
-1.18955838e-09
-1.23089852e-09
-1.19327772e-09
-1.18680461e-09
-1.23119766e-09
-1.22679518e-09
-1.2281509e-09
-1.19950711e-09
-1.18851164e-09
-1.18684589e-09
-1.18674805e-09
-1.23102244e-09
-1.22857926e-09
-1.19107856e-09
-1.1846018e-09
-1.18413498e-09
-1.2312526e-09
-1.22816601e-09
-1.18918123e-09
-1.18636321e-09
-1.231822e-09
-1.22764442e-09
-1.18789366e-09
-1.18706387e-09
-1.23228174e-09
-1.22727596e-09
-1.22856586e-09
-1.18933875e-09
-1.18675565e-09
-1.23196027e-09
-1.22755509e-09
-1.22874221e-09
-1.22703052e-09
-1.20455271e-09
-1.18971398e-09
-1.1878013e-09
-1.18756132e-09
-1.23003653e-09
-1.22776452e-09
-1.19565334e-09
-1.18641793e-09
-1.18726271e-09
-1.23002599e-09
-1.19351993e-09
-1.18650234e-09
-1.23036994e-09
-1.22745758e-09
-1.18913561e-09
-1.18885096e-09
-1.23110256e-09
-1.22619629e-09
-1.22774734e-09
-1.19724449e-09
-1.1881631e-09
-1.18635195e-09
-1.18616645e-09
-1.23117689e-09
-1.22744285e-09
-1.18863426e-09
-1.18840836e-09
-1.23096355e-09
-1.19093338e-09
-1.18560329e-09
-1.23158796e-09
-1.22730759e-09
-1.22911104e-09
-1.19080763e-09
-1.18785441e-09
-1.23088616e-09
-1.22644564e-09
-1.22824376e-09
-1.19423026e-09
-1.18809656e-09
-1.22905645e-09
-1.22707585e-09
-1.19548627e-09
-1.18956689e-09
-1.18731916e-09
-1.18764816e-09
-1.2302745e-09
-1.19148006e-09
-1.18595362e-09
-1.23193735e-09
-1.22813216e-09
-1.22970564e-09
-1.18798455e-09
-1.18648983e-09
-1.23218488e-09
-1.19018553e-09
-1.1849162e-09
-1.23235712e-09
-1.22764959e-09
-1.22998608e-09
-1.19079259e-09
-1.18672301e-09
-1.23141602e-09
-1.22724085e-09
-1.22902412e-09
-1.22632035e-09
-1.2267554e-09
-1.19706567e-09
-1.18860947e-09
-1.18844386e-09
-1.18542637e-09
-1.18521061e-09
-1.23050037e-09
-1.19111114e-09
-1.18508176e-09
-1.22983199e-09
-1.22838194e-09
-1.19034847e-09
-1.18751513e-09
-1.22937993e-09
-1.22834576e-09
-1.19588519e-09
-1.18643189e-09
-1.18616586e-09
-1.23137706e-09
-1.22945868e-09
-1.22958708e-09
-1.2295518e-09
-1.18816255e-09
-1.18593104e-09
-1.23048011e-09
-1.22895094e-09
-1.19196485e-09
-1.18512941e-09
-1.18477058e-09
-1.23069095e-09
-1.22817043e-09
-1.22808256e-09
-1.22768099e-09
-1.19693851e-09
-1.18799736e-09
-1.18618605e-09
-1.18585354e-09
-1.23112018e-09
-1.22765198e-09
-1.18902227e-09
-1.1873003e-09
-1.23076558e-09
-1.22723335e-09
-1.1895669e-09
-1.18805023e-09
-1.23085108e-09
-1.22712752e-09
-1.18831817e-09
-1.18782994e-09
-1.23159065e-09
-1.22685416e-09
-1.22939039e-09
-1.22627533e-09
-1.22713461e-09
-1.19305148e-09
-1.18867491e-09
-1.1879685e-09
-1.18772635e-09
-1.1836646e-09
-1.18390546e-09
-1.23129663e-09
-1.22787366e-09
-1.22935846e-09
-1.18972462e-09
-1.18715861e-09
-1.23076527e-09
-1.22680591e-09
-1.22850735e-09
-1.19085413e-09
-1.186824e-09
-1.2287402e-09
-1.22814896e-09
-1.19321758e-09
-1.18591789e-09
-1.18551405e-09
-1.2291555e-09
-1.22761598e-09
-1.19048978e-09
-1.18756681e-09
-1.22873627e-09
-1.2276058e-09
-1.19438313e-09
-1.18682715e-09
-1.18667515e-09
-1.2285166e-09
-1.22785652e-09
-1.19510384e-09
-1.1865304e-09
-1.18619103e-09
-1.22888328e-09
-1.22695763e-09
-1.18976593e-09
-1.18962141e-09
-1.22961836e-09
-1.19775919e-09
-1.18572042e-09
-1.22891778e-09
-1.22761427e-09
-1.18984623e-09
-1.18796366e-09
-1.22901518e-09
-1.22697342e-09
-1.19023392e-09
-1.18879251e-09
-1.22845697e-09
-1.22686252e-09
-1.19306301e-09
-1.18924649e-09
-1.18635849e-09
-1.18653786e-09
-1.23034752e-09
-1.22672081e-09
-1.22888412e-09
-1.19440094e-09
-1.18707247e-09
-1.22883632e-09
-1.22732085e-09
-1.18962781e-09
-1.18768139e-09
-1.22946575e-09
-1.22702626e-09
-1.18880985e-09
-1.18755705e-09
-1.22972878e-09
-1.22689035e-09
-1.18802047e-09
-1.18789968e-09
-1.22964253e-09
-1.22614013e-09
-1.22753624e-09
-1.19216731e-09
-1.18780511e-09
-1.1853157e-09
-1.1856359e-09
-1.23024476e-09
-1.22689844e-09
-1.22832066e-09
-1.19197213e-09
-1.18480507e-09
-1.18523855e-09
-1.22956842e-09
-1.22719623e-09
-1.22765933e-09
-1.19073875e-09
-1.18962154e-09
-1.22921088e-09
-1.20719279e-09
-1.18673911e-09
-1.22892264e-09
-1.2273495e-09
-1.19039534e-09
-1.18867282e-09
-1.2283762e-09
-1.22714714e-09
-1.19226583e-09
-1.1891243e-09
-1.18583888e-09
-1.18604298e-09
-1.23069643e-09
-1.22757434e-09
-1.22911171e-09
-1.18945647e-09
-1.1873974e-09
-1.23072932e-09
-1.18981928e-09
-1.18250218e-09
-1.23026495e-09
-1.2290958e-09
-1.2279806e-09
-1.22821295e-09
-1.19534443e-09
-1.18636174e-09
-1.18617675e-09
-1.22850884e-09
-1.22812472e-09
-1.19345596e-09
-1.18627895e-09
-1.18609225e-09
-1.22851595e-09
-1.22829613e-09
-1.19298698e-09
-1.18521134e-09
-1.18574304e-09
-1.22957919e-09
-1.22697861e-09
-1.22787107e-09
-1.19093866e-09
-1.18744376e-09
-1.22809863e-09
-1.22798878e-09
-1.19327187e-09
-1.18567564e-09
-1.18580366e-09
-1.22924487e-09
-1.22694999e-09
-1.22748865e-09
-1.19050073e-09
-1.18787968e-09
-1.22804148e-09
-1.22760569e-09
-1.19355266e-09
-1.18677334e-09
-1.18651992e-09
-1.22825267e-09
-1.22767832e-09
-1.19397797e-09
-1.18666165e-09
-1.1865787e-09
-1.2280768e-09
-1.22787051e-09
-1.19373415e-09
-1.18640617e-09
-1.18606787e-09
-1.22842598e-09
-1.22735305e-09
-1.19029688e-09
-1.1879048e-09
-1.22830187e-09
-1.22713218e-09
-1.19105259e-09
-1.18816508e-09
-1.1853334e-09
-1.18527444e-09
-1.23057719e-09
-1.22732075e-09
-1.22902087e-09
-1.22633831e-09
-1.22748664e-09
-1.19337816e-09
-1.18688163e-09
-1.18641605e-09
-1.22865603e-09
-1.22721716e-09
-1.18962258e-09
-1.18746576e-09
-1.22867559e-09
-1.227187e-09
-1.18972212e-09
-1.18764368e-09
-1.22807475e-09
-1.22763059e-09
-1.19286715e-09
-1.18658977e-09
-1.18628162e-09
-1.22844921e-09
-1.22747191e-09
-1.19042971e-09
-1.18758995e-09
-1.22808646e-09
-1.22771168e-09
-1.19278609e-09
-1.1861795e-09
-1.18604066e-09
-1.22843059e-09
-1.22850332e-09
-1.19114068e-09
-1.22916967e-09
-1.22637692e-09
-1.19149438e-09
-1.18747227e-09
-1.18744254e-09
-1.22819361e-09
-1.22768628e-09
-1.19292862e-09
-1.18641359e-09
-1.18615471e-09
-1.22839056e-09
-1.22819539e-09
-1.19153984e-09
-1.1844249e-09
-1.18502071e-09
-1.22974048e-09
-1.22722797e-09
-1.22818627e-09
-1.18961505e-09
-1.18793243e-09
-1.22953024e-09
-1.2261861e-09
-1.22804547e-09
-1.19705334e-09
-1.18505948e-09
-1.18613089e-09
-1.22929002e-09
-1.22646586e-09
-1.22772467e-09
-1.19389026e-09
-1.18822073e-09
-1.2275316e-09
-1.22673225e-09
-1.19513092e-09
-1.18930167e-09
-1.1876894e-09
-1.1876212e-09
-1.22890568e-09
-1.2269596e-09
-1.18984325e-09
-1.1884554e-09
-1.228166e-09
-1.22685128e-09
-1.19195651e-09
-1.18880335e-09
-1.18675055e-09
-1.18663251e-09
-1.22969181e-09
-1.22747256e-09
-1.18805687e-09
-1.18709523e-09
-1.22973261e-09
-1.22732817e-09
-1.18735414e-09
-1.18733029e-09
-1.23000095e-09
-1.22678783e-09
-1.22846971e-09
-1.19011202e-09
-1.18670312e-09
-1.22860779e-09
-1.22801753e-09
-1.18945974e-09
-1.18654044e-09
-1.22850831e-09
-1.22878782e-09
-1.19053865e-09
-1.1833804e-09
-1.1837146e-09
-1.23052213e-09
-1.22826738e-09
-1.22910766e-09
-1.22760336e-09
-1.22760256e-09
-1.18882746e-09
-1.18868555e-09
-1.22967887e-09
-1.19022731e-09
-1.1854679e-09
-1.22946227e-09
-1.2268804e-09
-1.22785527e-09
-1.19628547e-09
-1.18742044e-09
-1.18851391e-09
-1.18525274e-09
-1.18501324e-09
-1.22976583e-09
-1.22790257e-09
-1.18749904e-09
-1.18741098e-09
-1.23023668e-09
-1.22680924e-09
-1.22872489e-09
-1.19066195e-09
-1.18748928e-09
-1.22856205e-09
-1.22722093e-09
-1.1889025e-09
-1.18913603e-09
-1.22915542e-09
-1.22609039e-09
-1.22772823e-09
-1.198893e-09
-1.18847855e-09
-1.18727692e-09
-1.18683628e-09
-1.22879352e-09
-1.22823382e-09
-1.18994479e-09
-1.1843797e-09
-1.18504189e-09
-1.22955537e-09
-1.22664731e-09
-1.22807147e-09
-1.19354366e-09
)
;

boundaryField
{
    closed
    {
        type            calculated;
        value           nonuniform List<scalar> 0();
    }
    open
    {
        type            calculated;
        value           nonuniform List<scalar> 0();
    }
    sides
    {
        type            empty;
    }
    procBoundary1to0
    {
        type            processor;
        value           uniform -1.18592237e-09;
    }
    procBoundary1to2
    {
        type            processor;
        value           uniform -1.18613966e-09;
    }
}


// ************************************************************************* //
