/*--------------------------------*- C++ -*----------------------------------*\
| =========                 |                                                 |
| \\      /  F ield         | OpenFOAM: The Open Source CFD Toolbox           |
|  \\    /   O peration     | Version:  2306                                  |
|   \\  /    A nd           | Website:  www.openfoam.com                      |
|    \\/     M anipulation  |                                                 |
\*---------------------------------------------------------------------------*/
FoamFile
{
    version     2.0;
    format      ascii;
    arch        "LSB;label=32;scalar=64";
    class       volScalarField;
    location    "0.00152";
    object      prefDh_H;
}
// * * * * * * * * * * * * * * * * * * * * * * * * * * * * * * * * * * * * * //

dimensions      [1 1 -3 0 0 0 0];

internalField   nonuniform List<scalar> 
530
(
24906.4994
23619.0463
23398.8986
23393.6178
23393.139
23393.1179
23393.1164
23393.1163
23393.1163
23393.1163
23393.1163
23393.1163
23393.1163
23393.1163
23393.1163
23393.1163
23393.1163
23393.1163
23393.1163
23393.1163
23393.1163
23393.1163
23393.1163
23393.1163
23393.1163
23393.1163
23393.1163
23393.1163
23393.1163
23393.1163
23393.1163
23393.1163
23393.1163
23393.1163
23393.1163
23393.1163
23393.1163
23393.1163
23393.1163
23393.1163
23393.1163
23393.1163
23393.1163
23393.1163
23393.1163
23393.1163
23393.1163
23393.1163
23393.1163
23393.1163
23393.1163
23393.1163
23393.1163
23393.1163
23393.1163
23393.1163
23393.1163
23393.1163
23393.1163
23393.1163
23393.1163
23393.1163
23393.1164
23393.1168
23393.1168
23393.1193
23393.1193
23393.1308
23393.1332
23393.1684
23393.1895
23393.2722
23393.4295
23393.4664
23393.5645
23393.6976
23396.488
23397.4782
23388.0914
23385.3593
23412.0018
23442.7289
23387.694
23378.9001
23400.4302
23412.0544
23386.7769
23226.7115
23209.9175
23520.2426
23941.4208
23938.3021
23477.34
23072.5797
22955.8182
23366.5727
23941.895
24000.4582
23432.3626
23122.2459
22868.6637
23303.4441
23928.8694
23994.9615
23933.8718
23978.172
23467.6894
23286.3287
22698.2191
22705.8087
23920.1418
23934.0378
23926.8759
23375.1705
23109.0782
23913.58
23914.9664
23915.5351
23549.2841
23315.536
23237.6946
23174.626
23136.7274
23072.291
22909.2149
23358.0793
23948.7961
23992.602
23975.8417
23377.5005
23310.8876
23939.2003
23960.8357
23945.2603
23400.7289
23297.2297
22842.899
22848.8144
23898.6132
23932.4604
23295.7514
23042.1279
23903.704
23910.5385
23407.4547
22752.477
22763.4048
23871.9983
23923.2361
23884.9365
23929.6474
23496.2154
23392.2617
22887.868
22896.4065
23890.0361
23907.8608
23402.7003
22841.8075
22851.3938
23877.3375
23942.5046
23362.5334
23141.9501
23875.9676
23952.2319
23347.0757
23165.6923
23881.3448
23954.3882
23277.3461
23180.6978
23895.0685
23945.8873
23933.4061
23393.2862
23154.3947
23901.9098
23945.8527
23402.9987
23265.1108
22801.6457
22809.3046
23860.9626
23936.8332
23286.8738
23073.426
23864.0962
23931.1276
23375.838
23118.4784
23874.4177
23905.902
23418.2183
22848.3194
22858.3563
23844.962
23929.5406
23302.6766
23138.8121
23862.3811
23931.6864
23920.6099
23398.455
23170.6435
23873.5537
23932.7069
23406.4684
23343.7023
22921.6886
22931.149
23835.4835
23402.0861
22867.1694
23833.4752
23922.7567
23363.2588
23114.2208
23834.7809
23939.163
23414.8491
23176.3365
23490.702
23904.3874
23918.457
23543.9633
22823.3488
22774.6496
23593.2307
23919.4166
23908.5141
23451.7532
22794.467
22789.1193
23707.3634
23932.3493
23434.0616
23110.6037
23779.141
23933.4064
23431.5748
23165.998
23788.4113
23908.7553
23460.4837
22955.192
22927.8405
23701.8628
23935.1506
23425.7031
23169.657
23758.6384
23938.7201
23422.6409
23185.9183
23758.6298
23916.5876
23475.5814
22983.7228
22936.1361
23665.0774
23925.0342
23412.9955
23190.2583
23719.3848
23907.9304
23527.6488
23065.8193
23002.3316
23625.5939
23930.5262
23413.4754
23265.6908
23724.5677
23936.4044
23441.4522
23413.6308
22976.2772
22956.3739
23591.3838
23894.5319
23468.4234
22916.2535
22845.7508
23492.4924
23895.2102
23931.5321
23499.5816
23279.3902
22941.5464
23121.8816
23803.1508
23902.0901
23886.5251
23910.2654
23351.6874
22792.6032
23359.3295
23878.0911
23371.2273
23075.2902
23537.1972
23912.3481
23387.2613
23108.1188
23557.7578
23899.1954
23485.5963
23011.2822
22882.9483
23433.6572
23896.1821
23388.8071
23179.2366
23559.4061
23898.8201
23544.8405
23144.7987
22997.5394
23419.1512
23882.6048
23777.8248
23232.086
23026.9834
23434.9147
23893.9549
23676.3231
23407.1882
23301.9965
22955.0514
22816.621
23332.7669
23866.0233
23973.285
23931.2446
23435.6726
23395.4791
23608.0122
23625.6062
23182.7131
23439.6308
23912.0297
23380.7195
23173.7176
23508.4395
23910.6185
23586.8611
23131.735
22943.2372
23399.5243
23917.1782
23391.2197
23276.9845
23546.4413
23942.9236
23509.7388
23388.3637
23093.0609
23046.449
23440.0853
23914.4
23391.3534
23290.5694
23517.3712
23883.166
23927.5399
23929.753
23388.8916
23170.3042
23171.4305
22991.6919
22870.1587
23354.7161
23897.4049
23400.7282
23190.1451
23356.9869
23887.793
23971.5362
23933.243
23938.5355
23432.7455
23244.3376
23199.9625
22999.132
22980.5999
23418.3671
23400.403
23126.3324
23388.1588
23906.1026
23968.1717
23432.5369
23252.4434
23527.6562
23940.8812
23395.57
23272.9517
23548.077
23945.8435
23476.5905
23396.8814
23067.8646
22967.9644
23372.2605
23916.6191
23383.0774
23161.3641
23509.6814
23931.3535
23385.0106
23161.3647
23512.8817
23945.3813
23517.4086
23211.3701
22864.6248
23332.7921
23850.0467
23983.1398
23889.7532
23948.1451
23917.6133
23519.9213
23264.3813
23173.1887
22996.2697
22890.9547
23359.9858
23914.1012
23396.5152
23282.851
23535.9912
23938.8378
23529.1955
23398.1574
23135.2633
23061.5846
23387.2432
23919.6875
23783.3451
23201.027
22955.0785
23358.2473
23904.4833
23974.2015
23413.9822
23284.2321
23505.2558
23938.9117
23689.652
23237.9872
22975.9399
23373.2635
23908.8132
23735.7233
23191.0961
22937.6653
23367.9407
23904.6023
23766.6068
23185.1959
22952.8553
23372.4848
23915.1937
23531.3752
23413.504
23039.7048
22950.3906
23339.253
23916.9772
23983.1839
23405.0641
23262.9922
23493.326
23902.3597
23950.957
23945.5068
23386.5229
23218.1144
23248.3206
23108.1522
23014.1587
23378.2798
23925.0981
23398.5285
23244.8577
23572.6807
23943.014
23391.8173
23234.723
23543.5917
23945.3676
23579.639
23202.8872
22972.054
23366.4397
23922.7737
23387.5506
23168.2102
23547.5542
23940.8358
23383.4627
23175.6332
23577.28
23944.719
23514.0102
23169.2723
22970.0139
23365.683
23922.9004
23385.6151
23155.9962
23570.0729
23938.1485
23388.1292
23166.9713
23637.3404
23944.4243
23481.4758
23161.7531
22972.0034
23365.2342
23926.7746
23385.8947
23140.6278
23548.8604
23945.7316
23387.5439
23181.7153
)
;

boundaryField
{
    closed
    {
        type            calculated;
        value           uniform 31799.0697;
    }
    open
    {
        type            calculated;
        value           nonuniform List<scalar> 0();
    }
    sides
    {
        type            empty;
    }
    procBoundary0to1
    {
        type            processor;
        value           uniform 23624.5529;
    }
}


// ************************************************************************* //
