/*--------------------------------*- C++ -*----------------------------------*\
| =========                 |                                                 |
| \\      /  F ield         | OpenFOAM: The Open Source CFD Toolbox           |
|  \\    /   O peration     | Version:  2306                                  |
|   \\  /    A nd           | Website:  www.openfoam.com                      |
|    \\/     M anipulation  |                                                 |
\*---------------------------------------------------------------------------*/
FoamFile
{
    version     2.0;
    format      ascii;
    arch        "LSB;label=32;scalar=64";
    class       volScalarField;
    location    "0.00072";
    object      prefDPV_H2;
}
// * * * * * * * * * * * * * * * * * * * * * * * * * * * * * * * * * * * * * //

dimensions      [1 -1 -1 0 0 0 0];

internalField   nonuniform List<scalar> 
530
(
-3.12609665e-05
-3.06349925e-05
-3.058334e-05
-3.12728137e-05
-3.09483912e-05
-3.05055205e-05
-3.1342363e-05
-3.15228388e-05
-3.09414146e-05
-3.0759235e-05
-3.13437278e-05
-3.09527624e-05
-3.0497466e-05
-3.1340354e-05
-3.14809003e-05
-3.10567252e-05
-3.05704769e-05
-3.05468294e-05
-3.11914352e-05
-3.15155644e-05
-3.15007692e-05
-3.09337936e-05
-3.03893403e-05
-3.03977329e-05
-3.13300618e-05
-3.09686006e-05
-3.05546458e-05
-3.13636686e-05
-3.14886106e-05
-3.10138914e-05
-3.06075578e-05
-3.05479039e-05
-3.10442544e-05
-3.15221101e-05
-3.15244817e-05
-3.08743871e-05
-3.04227648e-05
-3.0874507e-05
-3.14389728e-05
-3.153499e-05
-3.10479535e-05
-3.04626651e-05
-3.03863004e-05
-3.11622658e-05
-3.14833389e-05
-3.1029517e-05
-3.04815251e-05
-3.04818045e-05
-3.12236166e-05
-3.09485424e-05
-3.04984777e-05
-3.13382408e-05
-3.14809678e-05
-3.10213292e-05
-3.05747021e-05
-3.05423634e-05
-3.10983295e-05
-3.15228099e-05
-3.15083952e-05
-3.08939442e-05
-3.04705163e-05
-3.08529837e-05
-3.14645165e-05
-3.15468904e-05
-3.09063932e-05
-3.04957879e-05
-3.08964122e-05
-3.14844675e-05
-3.15442163e-05
-3.08915711e-05
-3.04336981e-05
-3.09010505e-05
-3.14542865e-05
-3.15589089e-05
-3.09194651e-05
-3.05369729e-05
-3.10813595e-05
-3.09449513e-05
-3.05154185e-05
-3.12352036e-05
-3.15160689e-05
-3.09282684e-05
-3.06127904e-05
-3.12528923e-05
-3.151962e-05
-3.10827699e-05
-3.0789173e-05
-3.06066107e-05
-3.08959632e-05
-3.14974755e-05
-3.15265539e-05
-3.09622324e-05
-3.04112126e-05
-3.04135448e-05
-3.13998943e-05
-3.15196055e-05
-3.14751865e-05
-3.09738998e-05
-3.08165128e-05
-3.07695368e-05
-3.05252781e-05
-3.05204687e-05
-3.14661616e-05
-3.11765289e-05
-3.06917881e-05
-3.10109588e-05
-3.15166649e-05
-3.09634266e-05
-3.06811971e-05
-3.08213551e-05
-3.15025907e-05
-3.15502684e-05
-3.09360257e-05
-3.05530913e-05
-3.05909583e-05
-3.14589222e-05
-3.15104832e-05
-3.10977941e-05
-3.06673704e-05
-3.06334743e-05
-3.12382797e-05
-3.15410116e-05
-3.1206098e-05
-3.08832508e-05
-3.04026683e-05
-3.08064736e-05
-3.14586046e-05
-3.0971523e-05
-3.05242107e-05
-3.08721186e-05
-3.15011316e-05
-3.15636588e-05
-3.08858734e-05
-3.03901056e-05
-3.08979607e-05
-3.14719634e-05
-3.09066138e-05
-3.05449295e-05
-3.08860003e-05
-3.14815428e-05
-3.15544061e-05
-3.09123874e-05
-3.03669432e-05
-3.10398191e-05
-3.15075366e-05
-3.08650325e-05
-3.05416023e-05
-3.14351698e-05
-3.15094673e-05
-3.07323287e-05
-3.06163263e-05
-3.14334734e-05
-3.15210704e-05
-3.07715893e-05
-3.06423323e-05
-3.14716762e-05
-3.15107324e-05
-3.09377205e-05
-3.05160323e-05
-3.07801058e-05
-3.151319e-05
-3.15636435e-05
-3.15159304e-05
-3.09123817e-05
-3.07504856e-05
-3.0743551e-05
-3.05293848e-05
-3.05239079e-05
-3.14873497e-05
-3.14176268e-05
-3.06739956e-05
-3.08926892e-05
-3.15174067e-05
-3.09847852e-05
-3.06695614e-05
-3.08895107e-05
-3.15120868e-05
-3.14096025e-05
-3.06746667e-05
-3.06202694e-05
-3.14582872e-05
-3.15093682e-05
-3.10524981e-05
-3.05605306e-05
-3.05601576e-05
-3.146948e-05
-3.14824113e-05
-3.14815201e-05
-3.11846342e-05
-3.093102e-05
-3.07015963e-05
-3.07313991e-05
-3.04927832e-05
-3.05011757e-05
-3.14726607e-05
-3.15201925e-05
-3.09317629e-05
-3.05923845e-05
-3.10212845e-05
-3.15091806e-05
-3.15156151e-05
-3.09277572e-05
-3.03920998e-05
-3.11808957e-05
-3.15102951e-05
-3.08247667e-05
-3.05631075e-05
-3.11613436e-05
-3.14999136e-05
-3.14961078e-05
-3.06694135e-05
-3.03309169e-05
-3.10891955e-05
-3.12094623e-05
-3.05695119e-05
-3.08959939e-05
-3.15138601e-05
-3.08919382e-05
-3.05830987e-05
-3.15501686e-05
-3.15135185e-05
-3.09677744e-05
-3.06411879e-05
-3.06350037e-05
-3.10289297e-05
-3.15340769e-05
-3.15288358e-05
-3.08985018e-05
-3.04448127e-05
-3.08893191e-05
-3.14734967e-05
-3.15554313e-05
-3.04894877e-05
-3.03489586e-05
-3.14883226e-05
-3.14990054e-05
-3.09244161e-05
-3.05844714e-05
-3.0791082e-05
-3.15204681e-05
-3.15066965e-05
-3.09494597e-05
-3.05005968e-05
-3.05331468e-05
-3.14400392e-05
-3.15243743e-05
-3.14090211e-05
-3.07418947e-05
-3.01757557e-05
-3.09139345e-05
-3.14999876e-05
-3.080672e-05
-3.05464596e-05
-3.14712806e-05
-3.15020463e-05
-3.13536755e-05
-3.06272351e-05
-3.04574071e-05
-3.10504293e-05
-3.09751353e-05
-3.050762e-05
-3.08946382e-05
-3.14389794e-05
-3.15835021e-05
-3.14474425e-05
-3.08571572e-05
-3.03180446e-05
-3.06373779e-05
-3.15091113e-05
-3.15059258e-05
-3.09839802e-05
-3.0537867e-05
-3.06267655e-05
-3.14721148e-05
-3.15292967e-05
-3.12935984e-05
-3.09121638e-05
-3.03771873e-05
-3.04654697e-05
-3.10760838e-05
-3.10694033e-05
-3.05900713e-05
-3.09117919e-05
-3.15408726e-05
-3.15622455e-05
-3.08572676e-05
-3.04934274e-05
-3.08908649e-05
-3.15235494e-05
-3.15583058e-05
-3.09073727e-05
-3.04863841e-05
-3.10526725e-05
-3.15109405e-05
-3.09552242e-05
-3.05164736e-05
-3.07081223e-05
-3.15630652e-05
-3.155458e-05
-3.08909293e-05
-3.07248222e-05
-3.09162427e-05
-3.09120809e-05
-3.06463504e-05
-3.10730677e-05
-3.1559849e-05
-3.09046473e-05
-3.05313305e-05
-3.12243102e-05
-3.1534542e-05
-3.08226291e-05
-3.05826243e-05
-3.16129301e-05
-3.15211155e-05
-3.08968574e-05
-3.06062604e-05
-3.07434964e-05
-3.1554824e-05
-3.15264037e-05
-3.09564119e-05
-3.06821469e-05
-3.0904013e-05
-3.15489488e-05
-3.15680984e-05
-3.09260083e-05
-3.05662354e-05
-3.0484501e-05
-3.09022297e-05
-3.1526515e-05
-3.15464235e-05
-3.06559445e-05
-3.03973127e-05
-3.09710089e-05
-3.1486873e-05
-3.09362025e-05
-3.05132652e-05
-3.14701951e-05
-3.15493848e-05
-3.04438141e-05
-3.09008347e-05
-3.15325699e-05
-3.09098899e-05
-3.0534803e-05
-3.15388133e-05
-3.1525076e-05
-3.09015561e-05
-3.06251442e-05
-3.08988839e-05
-3.15419689e-05
-3.15368395e-05
-3.09308354e-05
-3.04120322e-05
-3.04929253e-05
-3.14787158e-05
-3.14874203e-05
-3.13037951e-05
-3.04629125e-05
-3.02984162e-05
-3.1521988e-05
-3.15015694e-05
-3.04283524e-05
-3.08497568e-05
-3.15404881e-05
-3.15219594e-05
-3.0911575e-05
-3.04135137e-05
-3.06365276e-05
-3.15301882e-05
-3.13833473e-05
-3.05171622e-05
-3.08549803e-05
-3.15562767e-05
-3.15457941e-05
-3.0891974e-05
-3.04899019e-05
-3.08923969e-05
-3.15425233e-05
-3.15739332e-05
-3.08372665e-05
-3.05066099e-05
-3.09093069e-05
-3.15254684e-05
-3.15365514e-05
-3.09165516e-05
-3.04316858e-05
-3.04821171e-05
-3.15542675e-05
-3.15118967e-05
-3.09274987e-05
-3.04479204e-05
-3.07635646e-05
-3.15311077e-05
-3.0910599e-05
-3.04806004e-05
-3.1554402e-05
-3.15114705e-05
-3.09137544e-05
-3.05836118e-05
-3.07589943e-05
-3.15290241e-05
-3.15238506e-05
-3.09868297e-05
-3.0508128e-05
-3.05260012e-05
-3.15456671e-05
-3.15154261e-05
-3.09356549e-05
-3.05024294e-05
-3.05312854e-05
-3.15498159e-05
-3.15169828e-05
-3.09264466e-05
-3.04881791e-05
-3.055666e-05
-3.15570187e-05
-3.15253307e-05
-3.09082108e-05
-3.05177538e-05
-3.07857475e-05
-3.15627546e-05
-3.15351846e-05
-3.08954105e-05
-3.04315662e-05
-3.07665985e-05
-3.15237486e-05
-3.15034687e-05
-3.05669184e-05
-3.07505389e-05
-3.15542538e-05
-3.15217213e-05
-3.08987641e-05
-3.04548746e-05
-3.07923284e-05
-3.15255259e-05
-3.14864395e-05
-3.05725956e-05
-3.07616294e-05
-3.15540141e-05
-3.1524443e-05
-3.08998404e-05
-3.04583766e-05
-3.07842391e-05
-3.15244694e-05
-3.14980507e-05
-3.05761354e-05
-3.07352531e-05
-3.15533424e-05
-3.15207962e-05
-3.0901739e-05
-3.04612759e-05
-3.07876377e-05
-3.15243415e-05
-3.14636536e-05
-3.05716659e-05
-3.07597572e-05
-3.15521478e-05
-3.15239175e-05
-3.09005498e-05
-3.04501578e-05
-3.07779406e-05
-3.15212211e-05
-3.14484165e-05
-3.05684558e-05
-3.07684517e-05
-3.15498458e-05
-3.15278946e-05
-3.08988333e-05
-3.04280066e-05
-3.07723283e-05
-3.1520166e-05
-3.12199452e-05
-3.05100164e-05
-3.08890028e-05
-3.15139664e-05
-3.09365158e-05
-3.0572165e-05
-3.09379899e-05
-3.15170358e-05
-3.10058378e-05
-3.06254877e-05
-3.08809274e-05
-3.15507891e-05
-3.15435824e-05
-3.08995602e-05
-3.0509651e-05
-3.09022325e-05
-3.15372975e-05
-3.15636596e-05
-3.08088399e-05
-3.04018553e-05
-3.09323491e-05
-3.15089823e-05
-3.09001078e-05
-3.05902495e-05
-3.15549975e-05
-3.15377048e-05
-3.09745712e-05
-3.07949432e-05
-3.05501799e-05
-3.08912581e-05
-3.15131317e-05
-3.09266109e-05
-3.05388827e-05
-3.1102425e-05
-3.15199579e-05
-3.08934162e-05
-3.05251505e-05
-3.09873012e-05
-3.15206374e-05
-3.09052653e-05
-3.05746507e-05
-3.15363814e-05
-3.1534126e-05
-3.10396533e-05
-3.07407067e-05
-3.05245227e-05
-3.09119874e-05
-3.15122543e-05
-3.09036685e-05
-3.06334003e-05
-3.15226732e-05
-3.15394011e-05
-3.10775833e-05
-3.08621476e-05
-3.05443964e-05
-3.08873571e-05
-3.1530643e-05
-3.15522722e-05
-3.0894758e-05
-3.05071228e-05
)
;

boundaryField
{
    closed
    {
        type            calculated;
        value           nonuniform List<scalar> 0();
    }
    open
    {
        type            calculated;
        value           nonuniform List<scalar> 0();
    }
    sides
    {
        type            empty;
    }
    procBoundary2to1
    {
        type            processor;
        value           uniform -3.14766801e-05;
    }
    procBoundary2to3
    {
        type            processor;
        value           uniform -3.08922252e-05;
    }
}


// ************************************************************************* //
