/*--------------------------------*- C++ -*----------------------------------*\
| =========                 |                                                 |
| \\      /  F ield         | OpenFOAM: The Open Source CFD Toolbox           |
|  \\    /   O peration     | Version:  2306                                  |
|   \\  /    A nd           | Website:  www.openfoam.com                      |
|    \\/     M anipulation  |                                                 |
\*---------------------------------------------------------------------------*/
FoamFile
{
    version     2.0;
    format      ascii;
    arch        "LSB;label=32;scalar=64";
    class       surfaceScalarField;
    location    "0.00094";
    object      phi;
}
// * * * * * * * * * * * * * * * * * * * * * * * * * * * * * * * * * * * * * //

dimensions      [1 0 -1 0 0 0 0];

oriented        oriented;

internalField   nonuniform List<scalar> 
530
(
4.62713599e-07
4.47477782e-07
4.62477335e-07
4.61228422e-07
4.0017011e-07
3.86979558e-07
3.68267038e-07
3.71714319e-07
3.71267159e-07
3.26290977e-07
3.10092782e-07
2.8776461e-07
2.71317524e-07
2.31712763e-07
2.15718429e-07
1.95168164e-07
1.87103027e-07
1.7356279e-07
1.57875976e-07
1.4723776e-07
9.8695029e-08
7.96584947e-08
5.83382196e-08
3.67583188e-08
1.59048562e-08
-1.24715907e-08
-2.00658024e-08
-6.1555346e-08
-7.8266154e-08
-1.01529781e-07
-1.32615584e-07
-1.33841402e-07
-1.63721089e-07
-1.82297473e-07
-2.09891119e-07
-2.38424005e-07
-2.46357984e-07
-2.70534061e-07
-2.9898135e-07
-3.28269024e-07
-3.37610064e-07
-3.58688653e-07
-3.79044605e-07
-4.01740545e-07
-4.4208415e-07
-4.50488048e-07
-4.57605471e-07
-4.79451311e-07
-5.02530872e-07
-5.45831896e-07
-5.48191921e-07
-5.50316924e-07
-5.70529701e-07
-5.9661508e-07
-6.21763279e-07
-6.19225093e-07
-6.37944443e-07
-6.64141837e-07
-6.87633052e-07
-6.95953398e-07
-7.13124386e-07
-7.36280574e-07
-7.56162767e-07
-7.77866245e-07
-7.85932665e-07
-7.76935615e-07
-7.9286931e-07
-8.09447171e-07
-8.55025614e-07
-8.5643937e-07
-8.4080182e-07
-8.56139769e-07
-8.73706837e-07
-8.94082407e-07
-8.81893226e-07
-8.96171874e-07
-9.1242536e-07
-9.30257312e-07
-9.07227245e-07
-9.2994658e-07
-9.43442401e-07
-9.55558809e-07
-1.00754313e-06
-1.01150582e-06
-1.01787029e-06
-1.03216733e-06
-1.04285756e-06
-1.10312684e-06
-1.11443427e-06
-1.12970658e-06
-1.12047218e-06
-1.1267537e-06
-1.13676994e-06
-1.14527411e-06
-1.15411138e-06
-1.16149054e-06
-1.150114e-06
-1.16261036e-06
-1.16896761e-06
-1.21557016e-06
-1.21953335e-06
-1.19142157e-06
-1.20276922e-06
-1.20132551e-06
-1.2178251e-06
-1.2021784e-06
-1.21343758e-06
-1.21832467e-06
-1.26682549e-06
-1.27046281e-06
-1.24009148e-06
-1.24968704e-06
-1.24580002e-06
-1.25899269e-06
-1.24641115e-06
-1.25358535e-06
-1.24765539e-06
-1.2557113e-06
-1.26834276e-06
-1.25463121e-06
-1.26318417e-06
-1.26624734e-06
-1.32028061e-06
-1.32424008e-06
-1.32174514e-06
-1.33195062e-06
-1.33032799e-06
-1.38168667e-06
-1.38257885e-06
-1.3780811e-06
-1.38755262e-06
-1.38309533e-06
-1.43681354e-06
-1.43672617e-06
-1.40201763e-06
-1.40948932e-06
-1.39886873e-06
-1.40876362e-06
-1.39858862e-06
-1.40481037e-06
-1.39903296e-06
-1.40374697e-06
-1.3959878e-06
-1.40268929e-06
-1.3950461e-06
-1.40014907e-06
-1.38319119e-06
-1.39270239e-06
-1.39250333e-06
-1.43940488e-06
-1.44454683e-06
-1.44113291e-06
-1.44880416e-06
-1.45159173e-06
-1.46283464e-06
-1.48531761e-06
-1.48049466e-06
-1.46949244e-06
-1.47730324e-06
-1.46418194e-06
-1.49388656e-06
-1.48869127e-06
-1.48817475e-06
-1.47832267e-06
-1.46535196e-06
-1.46832036e-06
-1.45451285e-06
-1.45544801e-06
-1.438063e-06
-1.44286421e-06
-1.4370839e-06
-1.47888854e-06
-1.48122996e-06
-1.47272686e-06
-1.47842546e-06
-1.4698448e-06
-1.51620609e-06
-1.51337954e-06
-1.50243237e-06
-1.50419443e-06
-1.48379491e-06
-1.48758232e-06
-1.4688977e-06
-1.47085099e-06
-1.46170248e-06
-1.50064971e-06
-1.49803259e-06
-1.48551889e-06
-1.4855758e-06
-1.46381533e-06
-1.46570504e-06
-1.44526528e-06
-1.44542116e-06
-1.43523438e-06
-1.47213205e-06
-1.4701721e-06
-1.45802031e-06
-1.45988293e-06
-1.44736402e-06
-1.48644363e-06
-1.48022553e-06
-1.46602226e-06
-1.46372785e-06
-1.44401668e-06
-1.44566828e-06
-1.42929118e-06
-1.42390777e-06
-1.37184508e-06
-1.42271933e-06
-1.43704797e-06
-1.4202849e-06
-1.4035295e-06
-1.39694784e-06
-1.37109612e-06
-1.36566993e-06
-1.35208335e-06
-1.34696772e-06
-1.33223529e-06
-1.35770453e-06
-1.35319961e-06
-1.33809394e-06
-1.3330065e-06
-1.31644138e-06
-1.34331473e-06
-1.33539018e-06
-1.31996707e-06
-1.31445001e-06
-1.29548496e-06
-1.31966394e-06
-1.30825221e-06
-1.29303665e-06
-1.28389681e-06
-1.25434083e-06
-1.24908667e-06
-1.23828751e-06
-1.22828335e-06
-1.20922183e-06
-1.22427824e-06
-1.21663711e-06
-1.19984799e-06
-1.19022891e-06
-1.16740568e-06
-1.18254949e-06
-1.16780748e-06
-1.14733968e-06
-1.13324815e-06
-1.10216123e-06
-1.09339421e-06
-1.09703717e-06
-1.08230241e-06
-1.05297898e-06
-1.03883295e-06
-1.04601583e-06
-1.03033609e-06
-1.00171447e-06
-9.85927541e-07
-9.93336323e-07
-9.77353248e-07
-9.48492182e-07
-9.31980652e-07
-9.39757247e-07
-9.24238088e-07
-8.94520156e-07
-8.80933735e-07
-8.81351261e-07
-8.65251495e-07
-8.43738542e-07
-8.37610843e-07
-8.25900264e-07
-8.09306399e-07
-7.95137919e-07
-7.70682907e-07
-7.68032531e-07
-7.49563558e-07
-7.4764552e-07
-7.31599648e-07
-7.00963438e-07
-6.90675842e-07
-7.05614502e-07
-6.91458232e-07
-6.60829586e-07
-6.49730959e-07
-6.61918171e-07
-6.46745751e-07
-6.24826057e-07
-6.11433045e-07
-5.92828831e-07
-5.84608665e-07
-5.73182434e-07
-5.59641411e-07
-5.41806545e-07
-5.24773842e-07
-5.08806829e-07
-4.93320578e-07
-4.81634542e-07
-4.69691843e-07
-4.51237707e-07
-4.41120148e-07
-4.28931284e-07
-4.16329913e-07
-4.31174242e-07
-4.21122759e-07
-3.91282118e-07
-3.83373568e-07
-4.08285365e-07
-3.96975465e-07
-3.78387723e-07
-3.59910223e-07
-3.5383291e-07
-3.46796967e-07
-3.37594619e-07
-3.18413772e-07
-3.03118158e-07
-2.91246635e-07
-2.89040648e-07
-2.80483261e-07
-2.53674785e-07
-2.52526988e-07
-2.83938643e-07
-2.75917933e-07
-2.60418669e-07
-2.43771152e-07
-2.40044168e-07
-2.37305176e-07
-2.30692521e-07
-2.1527639e-07
-2.01667486e-07
-1.97182063e-07
-1.95663562e-07
-1.895445e-07
-1.75073455e-07
-1.63034909e-07
-1.60176348e-07
-1.60455533e-07
-1.5555725e-07
-1.4176896e-07
-1.29404963e-07
-1.2778175e-07
-1.2932857e-07
-1.25270821e-07
-1.12297484e-07
-9.95644843e-08
-9.90107913e-08
-1.01802869e-07
-9.86020957e-08
-8.6462336e-08
-7.39238643e-08
-7.46557499e-08
-7.84399439e-08
-7.5929469e-08
-6.46177397e-08
-5.12110554e-08
-5.3341439e-08
-5.78880603e-08
-5.57273198e-08
-4.521579e-08
-2.93039435e-08
-3.2052754e-08
-3.72398376e-08
-3.55768369e-08
-2.61139967e-08
-9.21627072e-09
-1.23257402e-08
-1.83071384e-08
-1.78008496e-08
-8.29909448e-09
8.49475418e-09
8.59691437e-09
-2.77014686e-09
-4.39686721e-09
1.39825849e-08
5.80289623e-09
-4.83652402e-08
-4.98831309e-08
-4.30510854e-08
-2.79921404e-08
-3.23883218e-08
-3.48830391e-08
-4.02407546e-08
-4.30075503e-08
-4.1885661e-08
-3.28410077e-08
-4.60120963e-08
-4.2585605e-08
-4.6018375e-08
-6.71800058e-08
-6.88773707e-08
-7.46346793e-08
-6.15787798e-08
-6.42780903e-08
-1.21481026e-07
-1.25385263e-07
-1.11895814e-07
-1.19890287e-07
-1.68567193e-07
-1.72654103e-07
-1.69426998e-07
-1.61394507e-07
-1.66586821e-07
-2.05404565e-07
-2.11066682e-07
-2.00258147e-07
-2.13310398e-07
-2.50454634e-07
-2.5594383e-07
-2.5311736e-07
-2.51260045e-07
-2.55543732e-07
-2.85384911e-07
-2.9047348e-07
-2.82580803e-07
-2.93519608e-07
-3.26495264e-07
-3.33185891e-07
-3.25320096e-07
-3.33736967e-07
-3.62164911e-07
-3.6779843e-07
-3.68153555e-07
-3.73683429e-07
-3.8059327e-07
-4.04284896e-07
-4.09078461e-07
-4.0246988e-07
-4.14365515e-07
-4.18898366e-07
-4.20226065e-07
-4.3181687e-07
-4.34437283e-07
-4.40256202e-07
-4.38731764e-07
-4.39788488e-07
-4.56187913e-07
-4.60578385e-07
-4.61994537e-07
-4.73510938e-07
-4.72328216e-07
-4.76717498e-07
-4.83509074e-07
-4.89468219e-07
-4.90496666e-07
-5.07145976e-07
-5.11337964e-07
-5.16794295e-07
-5.14359218e-07
-5.19334123e-07
-5.21485357e-07
-5.35305192e-07
-5.36723212e-07
-5.33130034e-07
-5.36923703e-07
-5.39572959e-07
-5.60872624e-07
-5.59356372e-07
-5.56218195e-07
-5.59765714e-07
-5.60819321e-07
-5.7111533e-07
-5.68317612e-07
-5.72544983e-07
-5.75231201e-07
-5.9394337e-07
-5.93332889e-07
-5.83656425e-07
-5.86990539e-07
-5.89333158e-07
-5.99142816e-07
-5.90880051e-07
-5.94746976e-07
-5.97769872e-07
-6.17254859e-07
-6.14303133e-07
-5.97816749e-07
-6.00025366e-07
-6.04264858e-07
-6.11314382e-07
-5.98871749e-07
-6.02229256e-07
-6.06447921e-07
-6.08930576e-07
-5.98394505e-07
-6.01410716e-07
-6.04585615e-07
-6.08808474e-07
-6.1236048e-07
-6.13831252e-07
-6.12817384e-07
-6.06237469e-07
-5.82065647e-07
-5.83037546e-07
-5.8988648e-07
-5.93450826e-07
-5.7797586e-07
-5.80156739e-07
-5.84074013e-07
-6.15040589e-07
-6.07425109e-07
-5.91465314e-07
-5.89483252e-07
-5.89301212e-07
-5.92492599e-07
-6.12203319e-07
-6.08822846e-07
-5.76811601e-07
-5.76688278e-07
-5.80937662e-07
-6.06749848e-07
-5.94429253e-07
-5.61872986e-07
-5.6227746e-07
-5.72531289e-07
-5.77241098e-07
-5.52376062e-07
-5.50802304e-07
-5.54786417e-07
-5.86631458e-07
-5.82244944e-07
-5.81909821e-07
-5.71461948e-07
-5.2949332e-07
-5.3287797e-07
-5.44290816e-07
-5.45353907e-07
-5.10845153e-07
-5.07837792e-07
-5.01515939e-07
-5.03318923e-07
-5.01385993e-07
-4.86987495e-07
-4.53579157e-07
)
;

boundaryField
{
    closed
    {
        type            calculated;
        value           nonuniform List<scalar> 0();
    }
    open
    {
        type            calculated;
        value           nonuniform List<scalar> 0();
    }
    sides
    {
        type            empty;
        value           nonuniform List<scalar> 0();
    }
    procBoundary1to0
    {
        type            processor;
        value           uniform -4.75089422e-07;
    }
    procBoundary1to2
    {
        type            processor;
        value           uniform -4.47112329e-07;
    }
}


// ************************************************************************* //
