/*--------------------------------*- C++ -*----------------------------------*\
| =========                 |                                                 |
| \\      /  F ield         | OpenFOAM: The Open Source CFD Toolbox           |
|  \\    /   O peration     | Version:  2306                                  |
|   \\  /    A nd           | Website:  www.openfoam.com                      |
|    \\/     M anipulation  |                                                 |
\*---------------------------------------------------------------------------*/
FoamFile
{
    version     2.0;
    format      ascii;
    arch        "LSB;label=32;scalar=64";
    class       volScalarField;
    location    "0.00094";
    object      rho;
}
// * * * * * * * * * * * * * * * * * * * * * * * * * * * * * * * * * * * * * //

dimensions      [1 -3 0 0 0 0 0];

internalField   nonuniform List<scalar> 
531
(
0.902838363
0.903442139
0.945742028
0.955620775
0.941593734
0.903367929
0.902771934
0.945817732
0.954859532
0.942789509
0.903312751
0.902965155
0.945365163
0.943641141
0.903201688
0.903577008
0.947230555
0.955101885
0.947350512
0.958072835
0.94378988
0.903374071
0.903199143
0.903374666
0.903063964
0.945644158
0.961698559
0.943369468
0.903425234
0.903491451
0.953952638
0.961257637
0.950032385
0.903521631
0.90302452
0.954105035
0.952386365
0.903568445
0.903102655
0.955414407
0.94607904
0.903281169
0.90362865
0.903367586
0.94706513
0.965720268
0.943903471
0.903495362
0.903548353
0.954930047
0.960077786
0.946980455
0.903377979
0.903431771
0.950409666
0.947451709
0.903408984
0.90366671
0.946877026
0.943198773
0.903336378
0.904220249
0.94984221
0.949110639
0.951696558
0.941773348
0.90309348
0.9040491
0.952695587
0.958449669
0.945144781
0.903653745
0.903368696
0.951375054
0.947797046
0.90348353
0.903538137
0.951966524
0.942039745
0.903165371
0.903445471
0.90349992
0.945424288
0.960340355
0.940004161
0.903659151
0.903919271
0.953329484
0.955531475
0.948307267
0.958401929
0.940332949
0.903286661
0.903473185
0.904221816
0.947472905
0.945945214
0.903141658
0.904407935
0.952803084
0.957926063
0.94217036
0.903772296
0.904211848
0.950453283
0.94489023
0.903329289
0.904340273
0.955626951
0.960564019
0.944309452
0.903809515
0.904071455
0.953540661
0.948216
0.903655347
0.904284987
0.954186384
0.942401677
0.903426515
0.903662891
0.90402272
0.949746087
0.962208518
0.939950548
0.903931936
0.904062241
0.955019224
0.957884736
0.939818939
0.903454135
0.904279843
0.957303047
0.9601031
0.943149786
0.903518758
0.904353564
0.952786054
0.946877765
0.903061105
0.904520907
0.950996622
0.945254067
0.902676622
0.904664744
0.948794067
0.94179779
0.902562023
0.904387028
0.95090382
0.95337966
0.939856848
0.903770799
0.903950877
0.948779543
0.94928601
0.949055125
0.939993254
0.903078893
0.903925965
0.95072264
0.939069271
0.90388434
0.94409922
0.943257256
0.902527463
0.90394266
0.946269506
0.940929959
0.902309873
0.903777872
0.951342668
0.953879835
0.940013752
0.903117618
0.903115982
0.95242142
0.954172251
0.939605503
0.902584843
0.903791284
0.947792439
0.939941903
0.902348549
0.903514904
0.953112714
0.955431272
0.940084743
0.902754516
0.90329657
0.947974019
0.940535083
0.902463122
0.903167501
0.951746455
0.954061126
0.9396598
0.902680668
0.903000121
0.952170595
0.952786768
0.939494261
0.902674679
0.90338349
0.944501406
0.938784854
0.902563426
0.903805085
0.94802715
0.94795234
0.946999768
0.939081703
0.902207076
0.903451608
0.945608248
0.938743298
0.9021465
0.903417739
0.951193354
0.952994201
0.939524021
0.903031966
0.902719222
0.952440294
0.953655235
0.939038394
0.90271586
0.903089367
0.953361481
0.954300212
0.939110069
0.902850839
0.903160367
0.947005322
0.939610805
0.902686173
0.903371754
0.952349673
0.95461705
0.939040183
0.903106482
0.903032176
0.956018433
0.957569133
0.940305162
0.902951925
0.903080491
0.951757244
0.946298955
0.902547924
0.903506601
0.952406126
0.947422586
0.902298158
0.903534905
0.953228741
0.947876936
0.902166422
0.903517325
0.95273698
0.947033134
0.902145611
0.90342719
0.950901902
0.944262967
0.90235364
0.903400219
0.954636385
0.956928757
0.93929114
0.903138793
0.902590995
0.955244001
0.956763726
0.940431651
0.902815826
0.90268836
0.950013796
0.944496398
0.902378418
0.903117148
0.949259383
0.943703918
0.902238848
0.903241845
0.954805656
0.95833378
0.940744289
0.9031264
0.902372962
0.902564498
0.951202465
0.960019827
0.939257866
0.902945448
0.902700237
0.902379639
0.953536203
0.954712037
0.95089053
0.943187913
0.902197861
0.902285159
0.949276597
0.944098467
0.90208983
0.902826927
0.952115739
0.954255177
0.939612426
0.902799803
0.901924939
0.951798232
0.953395768
0.939251883
0.902353434
0.901739352
0.946526759
0.941117493
0.902092374
0.902376907
0.949003214
0.950696979
0.939577445
0.902565197
0.901668059
0.94826812
0.94975034
0.939265938
0.90228832
0.901764877
0.947093852
0.949068873
0.939342376
0.902320475
0.901629833
0.946793717
0.948955675
0.939350134
0.902262973
0.901589348
0.946821298
0.948990162
0.939391415
0.902252747
0.901550783
0.946742644
0.949071324
0.939415182
0.902261813
0.9015455
0.947183983
0.949586345
0.939453928
0.902284789
0.901571553
0.948548534
0.950413578
0.939560449
0.902365661
0.901531761
0.949329679
0.951139225
0.939468106
0.902374732
0.90165523
0.949892806
0.951758832
0.939386012
0.902309725
0.901375961
0.945851199
0.941729944
0.902079822
0.902339557
0.948672702
0.951851438
0.939513046
0.903034781
0.902315545
0.902275789
0.949848769
0.956095623
0.947594331
0.956580913
0.941309421
0.902866641
0.902003392
0.902060029
0.948818099
0.949271318
0.902051209
0.902402688
0.949456056
0.946499161
0.902020394
0.902838536
0.954020177
0.95705549
0.944131456
0.902768592
0.901666751
0.950533658
0.94650815
0.902349684
0.90250015
0.953712847
0.95670453
0.944191458
0.902561229
0.901829421
0.949298603
0.946203134
0.902104634
0.90236694
0.947577419
0.944155967
0.901878007
0.902808592
0.950180977
0.953144366
0.941401613
0.902738504
0.901845419
0.9507374
0.950880763
0.952278833
0.940062582
0.901954889
0.902090621
0.90199589
0.946271054
0.946172853
0.902005188
0.902235664
0.948110792
0.953463233
0.940133622
0.902151667
0.902119508
0.902049883
0.948100825
0.949005929
0.946582464
0.941722703
0.901861814
0.902178945
0.948834233
0.951354816
0.941149292
0.902226229
0.901824355
0.948000355
0.951732835
0.941031637
0.902009287
0.901921719
0.946818647
0.943955565
0.901757427
0.902212489
0.949498467
0.95356875
0.94332222
0.902040468
0.901713856
0.948643705
0.946034297
0.90161026
0.902058507
0.95107629
0.954818384
0.944848951
0.901904894
0.901426733
0.946714489
0.94485388
0.901520271
0.901805883
0.94248559
0.939447177
0.901240245
0.902083169
0.939643967
0.943466463
0.942008199
0.943180504
0.944455251
0.940744918
0.901234406
0.901807637
0.942351584
0.94148871
0.900963569
0.901991756
0.941239358
0.95071604
0.940104979
0.901543916
0.901288492
0.901751318
0.947202307
0.954257883
0.945147195
0.901647944
0.901411031
0.949441103
0.953739995
0.945347283
0.901441632
0.901669833
0.944781737
0.94359051
0.901302005
0.902094429
0.942543972
0.94916355
0.944275891
0.950334695
0.945098358
0.901861265
0.901213609
0.948329179
0.941512068
0.901334673
0.901704225
0.901353767
0.939334471
0.950993536
0.939774698
0.901329367
)
;

boundaryField
{
    closed
    {
        type            calculated;
        value           nonuniform List<scalar> 0();
    }
    open
    {
        type            calculated;
        value           nonuniform List<scalar> 0();
    }
    sides
    {
        type            empty;
    }
    procBoundary1to0
    {
        type            processor;
        value           uniform 0.946118502;
    }
    procBoundary1to2
    {
        type            processor;
        value           uniform 0.901598665;
    }
}


// ************************************************************************* //
