/*--------------------------------*- C++ -*----------------------------------*\
| =========                 |                                                 |
| \\      /  F ield         | OpenFOAM: The Open Source CFD Toolbox           |
|  \\    /   O peration     | Version:  2306                                  |
|   \\  /    A nd           | Website:  www.openfoam.com                      |
|    \\/     M anipulation  |                                                 |
\*---------------------------------------------------------------------------*/
FoamFile
{
    version     2.0;
    format      ascii;
    arch        "LSB;label=32;scalar=64";
    class       volVectorField;
    location    "0.0012";
    object      U;
}
// * * * * * * * * * * * * * * * * * * * * * * * * * * * * * * * * * * * * * //

dimensions      [0 1 -1 0 0 0 0];

internalField   nonuniform List<vector> 
531
(
(-0.000651102774 0 0)
(-0.0157194744 0 0)
(-0.0328144595 0 0)
(-0.0498168398 0 0)
(-0.0622849398 0 0)
(-0.0733244725 0 0)
(-0.0893546128 0 0)
(-0.107123366 0 0)
(-0.123014003 0 0)
(-0.134829135 0 0)
(-0.145630011 0 0)
(-0.160934009 0 0)
(-0.175020516 0 0)
(-0.190298407 0 0)
(-0.20125721 0 0)
(-0.206074539 0 0)
(-0.213409661 0 0)
(-0.220143315 0 0)
(-0.227881751 0 0)
(-0.235881023 0 0)
(-0.245455648 0 0)
(-0.248862368 0 0)
(-0.250006988 0 0)
(-0.25688778 0 0)
(-0.261236721 0 0)
(-0.264586176 0 0)
(-0.27084895 0 0)
(-0.26968427 0 0)
(-0.268666562 0 0)
(-0.267314202 0 0)
(-0.268203402 0 0)
(-0.26451769 0 0)
(-0.259266966 0 0)
(-0.252269564 0 0)
(-0.244726265 0 0)
(-0.23609127 0 0)
(-0.230302319 0 0)
(-0.226472902 0 0)
(-0.223635117 0 0)
(-0.220157386 0 0)
(-0.207454085 0 0)
(-0.199910987 0 0)
(-0.1941543 0 0)
(-0.187396888 0 0)
(-0.178668358 0 0)
(-0.158407816 0 0)
(-0.149774621 0 0)
(-0.152166368 0 0)
(-0.135037469 0 0)
(-0.109117674 0 0)
(-0.0988543638 0 0)
(-0.0939836902 0 0)
(-0.0715339014 0 0)
(-0.0427566652 0 0)
(-0.0272776222 0 0)
(-0.0101865844 0 0)
(0.00891012869 0 0)
(0.0337640335 0 0)
(0.0647534962 0 0)
(0.0870703118 0 0)
(0.113615221 0 0)
(0.147663505 0 0)
(0.170883286 0 0)
(0.203854155 0 0)
(0.247502945 0 0)
(0.284961043 0 0)
(0.328417384 0 0)
(0.374116721 0 0)
(0.418600809 0 0)
(0.481407773 0 0)
(0.548178455 0 0)
(0.594187089 0 0)
(0.64861737 0 0)
(0.729653548 0 0)
(0.802768112 0 0)
(0.862469328 0 0)
(0.944554483 0 0)
(1.04264058 0 0)
(1.14047635 0 0)
(1.24452012 0 0)
(1.39286822 0 0)
(1.53970514 0 0)
(1.64286748 0 0)
(1.79500258 0 0)
(1.99275347 0 0)
(2.26563175 0 0)
(2.53618988 0 0)
(2.70811268 0 0)
(2.9595655 0 0)
(3.27889092 0 0)
(3.67578543 0 0)
(4.04677302 0 0)
(4.30355251 0 0)
(4.68757461 0 0)
(5.12244684 0 0)
(5.51555035 0 0)
(5.91378783 0 0)
(6.45164672 0 0)
(6.86399416 0 0)
(7.12371848 0 0)
(7.51878137 0 0)
(7.92250539 0 0)
(8.21375666 0 0)
(8.29151404 0 0)
(8.33654549 0 0)
(8.4604642 0 0)
(8.52787953 0 0)
(8.51437075 0 0)
(8.41290449 0 0)
(8.219438 0 0)
(8.13922751 0 0)
(8.11528887 0 0)
(7.9473301 0 0)
(7.69863671 0 0)
(7.56273923 0 0)
(7.44606586 0 0)
(7.22553822 0 0)
(6.89222063 0 0)
(6.58973715 0 0)
(6.37879083 0 0)
(6.192138 0 0)
(5.95216856 0 0)
(5.62272221 0 0)
(5.33794262 0 0)
(5.14073947 0 0)
(4.96327849 0 0)
(4.75059952 0 0)
(4.44668961 0 0)
(4.19389706 0 0)
(4.01842267 0 0)
(3.86237641 0 0)
(3.69077939 0 0)
(3.42470507 0 0)
(3.21828213 0 0)
(3.07786031 0 0)
(2.94534748 0 0)
(2.79839235 0 0)
(2.54295315 0 0)
(2.35380622 0 0)
(2.22171282 0 0)
(2.09857407 0 0)
(1.9760268 0 0)
(1.73661419 0 0)
(1.58698503 0 0)
(1.46263445 0 0)
(1.41163267 0 0)
(1.20251157 0 0)
(1.06246774 0 0)
(0.957097981 0 0)
(0.854753692 0 0)
(0.761256651 0 0)
(0.556750068 0 0)
(0.446272399 0 0)
(0.352214949 0 0)
(0.310479423 0 0)
(0.129811131 0 0)
(0.032492317 0 0)
(-0.0690356099 0 0)
(-0.194487032 0 0)
(-0.296577253 0 0)
(-0.43586383 0 0)
(-0.507688756 0 0)
(-0.620301355 0 0)
(-0.733820217 0 0)
(-0.817729859 0 0)
(-0.902611927 0 0)
(-1.04215778 0 0)
(-1.125641 0 0)
(-1.23546359 0 0)
(-1.33365626 0 0)
(-1.39493897 0 0)
(-1.53331501 0 0)
(-1.63488183 0 0)
(-1.74185538 0 0)
(-1.79421952 0 0)
(-1.96317111 0 0)
(-2.07008823 0 0)
(-2.20343118 0 0)
(-2.30588614 0 0)
(-2.36344671 0 0)
(-2.52825281 0 0)
(-2.65078842 0 0)
(-2.75102061 0 0)
(-2.8035333 0 0)
(-2.99380961 0 0)
(-3.14525367 0 0)
(-3.27987655 0 0)
(-3.39719281 0 0)
(-3.43484422 0 0)
(-3.59674222 0 0)
(-3.6946272 0 0)
(-3.74736418 0 0)
(-3.76587903 0 0)
(-3.92551654 0 0)
(-4.07123557 0 0)
(-4.1339489 0 0)
(-4.11389161 0 0)
(-4.0825626 0 0)
(-4.16940921 0 0)
(-4.25358627 0 0)
(-4.27070415 0 0)
(-4.23148876 0 0)
(-4.14572648 0 0)
(-4.16188547 0 0)
(-4.17601139 0 0)
(-4.16312328 0 0)
(-4.11796715 0 0)
(-4.01607008 0 0)
(-3.97447558 0 0)
(-3.94497023 0 0)
(-3.91945272 0 0)
(-3.87622883 0 0)
(-3.87456421 0 0)
(-3.90461439 0 0)
(-3.88592269 0 0)
(-3.80631663 0 0)
(-3.73841299 0 0)
(-3.71138585 0 0)
(-3.61824649 0 0)
(-3.49397087 0 0)
(-3.40316655 0 0)
(-3.32331409 0 0)
(-3.28030366 0 0)
(-3.17092982 0 0)
(-3.03282776 0 0)
(-2.90426939 0 0)
(-2.80193706 0 0)
(-2.74540992 0 0)
(-2.67534091 0 0)
(-2.58180776 0 0)
(-2.46749934 0 0)
(-2.39095206 0 0)
(-2.32946449 0 0)
(-2.17929161 0 0)
(-2.01568183 0 0)
(-1.91128842 0 0)
(-1.84342361 0 0)
(-1.7332611 0 0)
(-1.60752261 0 0)
(-1.52564527 0 0)
(-1.47610513 0 0)
(-1.4554175 0 0)
(-1.36870178 0 0)
(-1.25159391 0 0)
(-1.17963029 0 0)
(-1.13006291 0 0)
(-1.10074895 0 0)
(-1.02786014 0 0)
(-0.934557302 0 0)
(-0.859891958 0 0)
(-0.811052535 0 0)
(-0.772725567 0 0)
(-0.693224162 0 0)
(-0.588320227 0 0)
(-0.52716071 0 0)
(-0.499714603 0 0)
(-0.444185359 0 0)
(-0.395884225 0 0)
(-0.298993002 0 0)
(-0.192172677 0 0)
(-0.143759675 0 0)
(-0.102378743 0 0)
(-0.082610623 0 0)
(0.0122438919 0 0)
(0.109038321 0 0)
(0.163409206 0 0)
(0.201774313 0 0)
(0.235835036 0 0)
(0.319100535 0 0)
(0.402625688 0 0)
(0.45021597 0 0)
(0.473676798 0 0)
(0.554606569 0 0)
(0.651808845 0 0)
(0.68746651 0 0)
(0.716705367 0 0)
(0.727180436 0 0)
(0.788393422 0 0)
(0.871978722 0 0)
(0.907137791 0 0)
(0.924139499 0 0)
(0.93050161 0 0)
(0.979973377 0 0)
(1.05136128 0 0)
(1.06890809 0 0)
(1.06709552 0 0)
(1.11388258 0 0)
(1.17368183 0 0)
(1.19822868 0 0)
(1.20821995 0 0)
(1.25038486 0 0)
(1.29328904 0 0)
(1.29000306 0 0)
(1.29830802 0 0)
(1.33451918 0 0)
(1.41629446 0 0)
(1.46453194 0 0)
(1.46094839 0 0)
(1.4613235 0 0)
(1.45396857 0 0)
(1.47690831 0 0)
(1.50517475 0 0)
(1.48366867 0 0)
(1.47376209 0 0)
(1.45879934 0 0)
(1.46520938 0 0)
(1.46900458 0 0)
(1.42390939 0 0)
(1.39811633 0 0)
(1.37605142 0 0)
(1.36647565 0 0)
(1.35569205 0 0)
(1.30473169 0 0)
(1.26519871 0 0)
(1.25729577 0 0)
(1.22151095 0 0)
(1.15333514 0 0)
(1.10450916 0 0)
(1.06367851 0 0)
(1.02481629 0 0)
(0.987963811 0 0)
(0.93168192 0 0)
(0.883850389 0 0)
(0.866346469 0 0)
(0.835322478 0 0)
(0.787636632 0 0)
(0.759206424 0 0)
(0.736604347 0 0)
(0.717082577 0 0)
(0.705951008 0 0)
(0.69222641 0 0)
(0.679729916 0 0)
(0.679610177 0 0)
(0.673569228 0 0)
(0.663564597 0 0)
(0.65892 0 0)
(0.665841084 0 0)
(0.66206211 0 0)
(0.643374534 0 0)
(0.635649923 0 0)
(0.63038176 0 0)
(0.627804061 0 0)
(0.631384685 0 0)
(0.62835716 0 0)
(0.622933216 0 0)
(0.634722988 0 0)
(0.635509945 0 0)
(0.617235213 0 0)
(0.608319606 0 0)
(0.598178781 0 0)
(0.599671771 0 0)
(0.606535035 0 0)
(0.593753606 0 0)
(0.587949579 0 0)
(0.584224517 0 0)
(0.593811742 0 0)
(0.61337319 0 0)
(0.619096461 0 0)
(0.619684593 0 0)
(0.646806495 0 0)
(0.679783804 0 0)
(0.694368961 0 0)
(0.705508916 0 0)
(0.747493485 0 0)
(0.791828686 0 0)
(0.809281105 0 0)
(0.830934313 0 0)
(0.849539139 0 0)
(0.896936482 0 0)
(0.954918801 0 0)
(0.978489258 0 0)
(1.00499047 0 0)
(1.07273291 0 0)
(1.13518907 0 0)
(1.16337537 0 0)
(1.20003911 0 0)
(1.22670595 0 0)
(1.28279361 0 0)
(1.34417013 0 0)
(1.36885158 0 0)
(1.40641746 0 0)
(1.42716412 0 0)
(1.47672077 0 0)
(1.5280001 0 0)
(1.54109601 0 0)
(1.57005963 0 0)
(1.57824806 0 0)
(1.61500521 0 0)
(1.6492457 0 0)
(1.64421151 0 0)
(1.65588967 0 0)
(1.64431785 0 0)
(1.66274849 0 0)
(1.67520585 0 0)
(1.64610699 0 0)
(1.64330886 0 0)
(1.64175663 0 0)
(1.60308136 0 0)
(1.59645614 0 0)
(1.6011894 0 0)
(1.57952788 0 0)
(1.53296198 0 0)
(1.50062583 0 0)
(1.48773251 0 0)
(1.4629601 0 0)
(1.39771246 0 0)
(1.34064784 0 0)
(1.30023556 0 0)
(1.27819522 0 0)
(1.2467264 0 0)
(1.18059997 0 0)
(1.12097943 0 0)
(1.07888161 0 0)
(1.03516569 0 0)
(0.974492431 0 0)
(0.923813927 0 0)
(0.880687902 0 0)
(0.851273241 0 0)
(0.81537071 0 0)
(0.759590522 0 0)
(0.708839704 0 0)
(0.669809509 0 0)
(0.63397243 0 0)
(0.575291016 0 0)
(0.533014274 0 0)
(0.499009082 0 0)
(0.465790912 0 0)
(0.418317604 0 0)
(0.377443646 0 0)
(0.343874941 0 0)
(0.314917301 0 0)
(0.277777444 0 0)
(0.235679669 0 0)
(0.197526963 0 0)
(0.164895539 0 0)
(0.142800118 0 0)
(0.122233638 0 0)
(0.0880147015 0 0)
(0.0525010088 0 0)
(0.0296179493 0 0)
(0.00434513322 0 0)
(-0.0135771028 0 0)
(-0.0485084875 0 0)
(-0.0786266755 0 0)
(-0.0838584233 0 0)
(-0.0862663531 0 0)
(-0.110670522 0 0)
(-0.130941095 0 0)
(-0.14636931 0 0)
(-0.143921479 0 0)
(-0.139376211 0 0)
(-0.156150748 0 0)
(-0.17043671 0 0)
(-0.178786706 0 0)
(-0.173580049 0 0)
(-0.166544015 0 0)
(-0.176612044 0 0)
(-0.18415128 0 0)
(-0.186384437 0 0)
(-0.175033161 0 0)
(-0.168326949 0 0)
(-0.164010223 0 0)
(-0.184736911 0 0)
(-0.161643755 0 0)
(-0.128863142 0 0)
(-0.140964468 0 0)
(-0.136973537 0 0)
(-0.155552317 0 0)
(-0.119420346 0 0)
(-0.0817502199 0 0)
(-0.10382797 0 0)
(-0.0954685878 0 0)
(-0.0888712698 0 0)
(-0.0840559854 0 0)
(-0.072992632 0 0)
(-0.0577543131 0 0)
(-0.0381990364 0 0)
(-0.0332603154 0 0)
(-0.026923028 0 0)
(-0.0116325498 0 0)
(0.0131675684 0 0)
(0.0345696294 0 0)
(0.0478065694 0 0)
(0.0605000377 0 0)
(0.0846957406 0 0)
(0.111927544 0 0)
(0.126848527 0 0)
(0.144707357 0 0)
(0.164588695 0 0)
(0.199557921 0 0)
(0.22896698 0 0)
(0.242832068 0 0)
(0.259386926 0 0)
(0.294284209 0 0)
(0.324595769 0 0)
(0.337622772 0 0)
(0.35745324 0 0)
(0.397188536 0 0)
(0.424215183 0 0)
(0.436488421 0 0)
(0.456639721 0 0)
(0.475855265 0 0)
(0.515202591 0 0)
(0.544554952 0 0)
(0.557621272 0 0)
(0.578120572 0 0)
(0.595256845 0 0)
(0.632137326 0 0)
(0.657241497 0 0)
(0.666202165 0 0)
(0.684530329 0 0)
(0.696446555 0 0)
(0.727957693 0 0)
(0.746469749 0 0)
(0.746861608 0 0)
(0.758944023 0 0)
(0.763674985 0 0)
(0.786324503 0 0)
(0.795859612 0 0)
(0.786834458 0 0)
(0.790717467 0 0)
(0.786626425 0 0)
(0.800540797 0 0)
(0.802289042 0 0)
(0.785292066 0 0)
(0.782241166 0 0)
(0.771631377 0 0)
(0.777618666 0 0)
(0.773861657 0 0)
(0.752088369 0 0)
(0.743883169 0 0)
)
;

boundaryField
{
    closed
    {
        type            noSlip;
    }
    open
    {
        type            inletOutlet;
        inletValue      nonuniform List<vector> 0();
        value           nonuniform List<vector> 0();
    }
    sides
    {
        type            empty;
    }
    procBoundary1to0
    {
        type            processor;
        value           uniform (0.0114480102 0 0);
    }
    procBoundary1to2
    {
        type            processor;
        value           uniform (0.729162352 0 0);
    }
}


// ************************************************************************* //
