/*--------------------------------*- C++ -*----------------------------------*\
| =========                 |                                                 |
| \\      /  F ield         | OpenFOAM: The Open Source CFD Toolbox           |
|  \\    /   O peration     | Version:  2306                                  |
|   \\  /    A nd           | Website:  www.openfoam.com                      |
|    \\/     M anipulation  |                                                 |
\*---------------------------------------------------------------------------*/
FoamFile
{
    version     2.0;
    format      ascii;
    arch        "LSB;label=32;scalar=64";
    class       volScalarField;
    location    "0.0012";
    object      Z;
}
// * * * * * * * * * * * * * * * * * * * * * * * * * * * * * * * * * * * * * //

dimensions      [0 0 0 0 0 0 0];

internalField   nonuniform List<scalar> 
531
(
0.0146132975
0.014064371
0.014064506
0.0147008265
0.0147823721
0.0146318072
0.0140647841
0.0140679449
0.0147045629
0.0147910796
0.0146483125
0.0140709783
0.0140821601
0.0147469588
0.0148892539
0.0147487946
0.0140855258
0.0140663426
0.014090749
0.0147413076
0.0147598322
0.0140719915
0.0140903897
0.0147391169
0.0148413141
0.014652902
0.0140755405
0.0140586637
0.0140821937
0.0147183612
0.0147922783
0.0147595782
0.0147564236
0.0143543649
0.0140682533
0.0140846404
0.014717229
0.014836416
0.0146799954
0.0140713202
0.0140713777
0.0147310385
0.0148156384
0.014690051
0.0140686103
0.014063482
0.0147220188
0.0147309092
0.0140701036
0.0140666686
0.0147345417
0.0147346189
0.0140729998
0.0140710947
0.0147358806
0.0148010503
0.01457665
0.014078782
0.0140619969
0.0147536429
0.0147915517
0.014806747
0.0147295887
0.0140809202
0.0140630926
0.0144036342
0.0147314829
0.0147579977
0.0145843271
0.0140715943
0.0140558695
0.0146949494
0.0147227826
0.0140863842
0.0140627196
0.0145224865
0.0147489738
0.0147293321
0.0147543319
0.0145384068
0.0140775412
0.0140616017
0.0146677552
0.0147793163
0.0145462011
0.0140876949
0.0140612062
0.0146849604
0.014782726
0.0145079075
0.0140892292
0.014064504
0.01456641
0.01473089
0.0147051429
0.0147307883
0.0146513857
0.0141202755
0.0140633558
0.0144153188
0.0147268934
0.0147337937
0.0141737497
0.0140729295
0.0145065271
0.014783503
0.0147860737
0.0142091851
0.0140804015
0.0144731564
0.0147166491
0.0143763115
0.0141087971
0.0144243693
0.0147624297
0.0147829479
0.0143031496
0.014097839
0.0143686144
0.0147449478
0.0147827895
0.0143648044
0.0141074492
0.0143365934
0.014731101
0.0147849868
0.0144012561
0.014113861
0.0143110383
0.0147199974
0.0147847365
0.0144312105
0.0141183631
0.0142928189
0.0147110448
0.0147819018
0.0144488083
0.0141196857
0.0142808044
0.0147026701
0.0147830296
0.0144646824
0.0141180361
0.0142929495
0.0146794704
0.0145276952
0.014134019
0.0142771065
0.0147068361
0.0147832521
0.0144576415
0.0141082461
0.0143035778
0.0146962346
0.0145225271
0.0141221795
0.014288947
0.0147318909
0.0148004164
0.0144354987
0.0141004223
0.0143373172
0.0147167379
0.0147923288
0.0147969885
0.0144096212
0.0140985758
0.0143011309
0.0147325129
0.0147683381
0.0143540649
0.014092676
0.0143496475
0.0147064733
0.0144798527
0.0141097055
0.0143162529
0.0147561897
0.0147745092
0.0143728749
0.0141105333
0.0144032973
0.0147298561
0.0144787108
0.0141096205
0.0142385928
0.0147468753
0.0147521529
0.0143503794
0.0141263336
0.0144611793
0.0147495666
0.0144539681
0.0141210115
0.0143314888
0.0147918314
0.0147750954
0.0143685673
0.0141201826
0.0143572909
0.0147540604
0.0147163001
0.0142809657
0.0141257849
0.014437348
0.0147583063
0.0146958197
0.0142290026
0.0141302173
0.0144691771
0.0147921856
0.014785592
0.0146296299
0.0141201283
0.0141307128
0.014514891
0.0147687958
0.0146894019
0.0142071005
0.0141267847
0.0144659942
0.014737958
0.0146425192
0.0141443915
0.014133806
0.0145374493
0.0147601967
0.0146132799
0.0141230672
0.0141394532
0.0145858493
0.0148061759
0.0147002932
0.0141539889
0.0141467873
0.0146408929
0.014714382
0.0142452784
0.0141392497
0.0145838339
0.0148002638
0.0146808609
0.0141374411
0.0141333085
0.0145950691
0.0147753726
0.0145809598
0.0141025396
0.0141333861
0.014638953
0.0147891458
0.0145680796
0.0140961157
0.0141357058
0.0146987513
0.014827447
0.014806271
0.0147083832
0.0141849451
0.0140884711
0.014316674
0.0147257439
0.0146549409
0.0141127708
0.0141153133
0.0145955717
0.0148081175
0.0146912284
0.0141113624
0.0141067736
0.0146573116
0.0146962
0.0141495942
0.01411353
0.0146374987
0.0148297494
0.014699284
0.0141151717
0.0141083603
0.0146266508
0.0148338108
0.0147183714
0.0141226419
0.01410355
0.0146641199
0.0147157981
0.0141535352
0.0141075922
0.0146992129
0.0147413563
0.0141684982
0.0141086821
0.01458741
0.0148099319
0.0146896424
0.0141162332
0.0140989454
0.014614036
0.0148236994
0.0147040476
0.0141173063
0.0140972378
0.0146153427
0.0148263512
0.0147092227
0.0141182423
0.0140966428
0.0146234288
0.014836865
0.0147326485
0.0141211679
0.0140908305
0.0146575119
0.01470946
0.0141391257
0.0141013264
0.0146563439
0.014861079
0.0147490554
0.0141163534
0.0140865705
0.0146792883
0.0147284046
0.0141238876
0.0140966202
0.0146662558
0.0148702788
0.0147535838
0.014110884
0.0140838859
0.0147090867
0.0147492523
0.014125124
0.0140906567
0.0147493881
0.0147802114
0.0141139062
0.0140953698
0.0146473392
0.0148535035
0.014733051
0.0141010914
0.0140773946
0.0147021303
0.0147407563
0.0141051597
0.0140874123
0.0146344142
0.0148387989
0.0147175619
0.0140944518
0.0140802095
0.0146295577
0.0148564995
0.0147625666
0.0141056137
0.0140779261
0.0147085694
0.0147617777
0.0141289754
0.014086547
0.0147529241
0.0147964127
0.014128831
0.0140928214
0.0146030408
0.014850023
0.0147759441
0.0141129872
0.0140727178
0.0146456676
0.0147313412
0.0141366191
0.0140830936
0.0145736897
0.0148316232
0.014777382
0.0141145223
0.0140792598
0.0145249232
0.0148114882
0.0147757719
0.0141178761
0.0140795105
0.014503599
0.0148061058
0.0147830803
0.0141228358
0.0140806651
0.0144878696
0.0148055777
0.0147990389
0.0141298551
0.0140778404
0.014498328
0.0147760633
0.0148346925
0.014816881
0.0141576288
0.014072377
0.0140747646
0.0144999514
0.0148279036
0.0148257049
0.0141635991
0.0140878717
0.0144560858
0.0148277373
0.0148258062
0.0141710743
0.0140790934
0.0144963853
0.0147244936
0.0143552206
0.0141001419
0.0144399711
0.0148531259
0.0148459161
0.0141795237
0.0140798599
0.0145211513
0.0147401749
0.0143500092
0.0140900833
0.0145627634
0.0147667985
0.0142397735
0.0140877963
0.0146533445
0.0147875763
0.0142259978
0.0140935621
0.0144984127
0.0148508472
0.0148395313
0.0141337058
0.0140756405
0.0145374028
0.0147327345
0.0143174601
0.014086462
0.0144615773
0.014809024
0.0148015046
0.0141088972
0.0140794089
0.0145075378
0.0148144093
0.0148058703
0.0141073522
0.0140826855
0.0145351845
0.0148366259
0.0148260387
0.0141021722
0.0140859786
0.0145625515
0.0148605888
0.0148382273
0.014103396
0.0140762706
0.0146474131
0.0147444948
0.0141245269
0.0140846593
0.0145875833
0.0148741816
0.0148086309
0.0141478197
0.0140704179
0.0140952581
0.0145723418
0.0147798272
0.0148139991
0.0148076535
0.014087811
0.014083659
0.0145236737
0.0148234049
0.0148100669
0.014087891
0.0140697631
0.0146412742
0.0147302368
0.0140819897
0.014074951
0.0146173279
0.0148560954
0.0148375237
0.0140869357
0.0140714429
0.0146729048
0.0147437364
0.0140852715
0.0140652321
0.0147072333
0.0147349465
0.0140828461
0.0140773707
0.0146265002
0.0148392518
0.014803769
0.0140819861
0.0140845804
0.0145625416
0.0148252968
0.0147795785
0.0140817791
0.0140834079
0.014547791
0.0148181185
0.0147683031
0.0140820202
0.0140833033
0.0145425728
0.0148165736
0.0147633065
0.0140824715
0.0140835167
0.0145447714
0.0148171378
0.0147621707
0.0140829895
0.0140836978
0.0145452511
0.0148174085
0.0147587097
0.0140832412
0.0140831556
0.0145445106
0.0148159207
)
;

boundaryField
{
    closed
    {
        type            zeroGradient;
    }
    open
    {
        type            zeroGradient;
    }
    sides
    {
        type            empty;
    }
    procBoundary1to0
    {
        type            processor;
        value           uniform 0.0147855438;
    }
    procBoundary1to2
    {
        type            processor;
        value           uniform 0.0147540854;
    }
}


// ************************************************************************* //
