/*--------------------------------*- C++ -*----------------------------------*\
| =========                 |                                                 |
| \\      /  F ield         | OpenFOAM: The Open Source CFD Toolbox           |
|  \\    /   O peration     | Version:  2306                                  |
|   \\  /    A nd           | Website:  www.openfoam.com                      |
|    \\/     M anipulation  |                                                 |
\*---------------------------------------------------------------------------*/
FoamFile
{
    version     2.0;
    format      ascii;
    arch        "LSB;label=32;scalar=64";
    class       volScalarField;
    location    "0.00012";
    object      H2O;
}
// * * * * * * * * * * * * * * * * * * * * * * * * * * * * * * * * * * * * * //

dimensions      [0 0 0 0 0 0 0];

internalField   nonuniform List<scalar> 
531
(
0.00450717163
0.00450708981
0.00450710407
0.0045071531
0.00450715078
0.00450712905
0.00450712925
0.00450713751
0.00450713751
0.00450713483
0.00450713479
0.0045071356
0.00450713561
0.00450713539
0.00450713538
0.00450713544
0.00450713544
0.00450713542
0.00450713542
0.00450713543
0.00450713543
0.00450713542
0.00450713542
0.00450713542
0.00450713542
0.00450713542
0.00450713542
0.00450713542
0.00450713542
0.00450713542
0.00450713542
0.00450713542
0.00450713542
0.00450713542
0.00450713542
0.00450713542
0.00450713542
0.00450713542
0.00450713542
0.00450713542
0.00450713542
0.00450713542
0.00450713542
0.00450713542
0.00450713542
0.00450713542
0.00450713542
0.00450713542
0.00450713542
0.00450713542
0.00450713542
0.00450713542
0.00450713542
0.00450713542
0.00450713542
0.00450713542
0.00450713542
0.00450713542
0.00450713542
0.00450713542
0.00450713542
0.00450713542
0.00450713542
0.00450713542
0.00450713542
0.00450713542
0.00450713542
0.00450713542
0.00450713542
0.00450713542
0.00450713542
0.00450713542
0.00450713542
0.00450713542
0.00450713542
0.00450713542
0.00450713542
0.00450713542
0.00450713542
0.00450713542
0.00450713542
0.00450713542
0.00450713542
0.00450713542
0.00450713542
0.00450713542
0.00450713542
0.00450713542
0.00450713542
0.00450713542
0.00450713542
0.00450713542
0.00450713542
0.00450713542
0.00450713542
0.00450713542
0.00450713542
0.00450713542
0.00450713542
0.00450713542
0.00450713542
0.00450713542
0.00450713542
0.00450713542
0.00450713542
0.00450713542
0.00450713542
0.00450713542
0.00450713542
0.00450713542
0.00450713542
0.00450713542
0.00450713542
0.00450713542
0.00450713542
0.00450713542
0.00450713542
0.00450713542
0.00450713542
0.00450713542
0.00450713542
0.00450713542
0.00450713542
0.00450713542
0.00450713542
0.00450713542
0.00450713542
0.00450713542
0.00450713542
0.00450713542
0.00450713542
0.00450713542
0.00450713542
0.00450713542
0.00450713542
0.00450713542
0.00450713542
0.00450713542
0.00450713542
0.00450713542
0.00450713542
0.00450713542
0.00450713542
0.00450713542
0.00450713542
0.00450713542
0.00450713542
0.00450713542
0.00450713542
0.00450713542
0.00450713542
0.00450713542
0.00450713542
0.00450713542
0.00450713542
0.00450713542
0.00450713542
0.00450713542
0.00450713542
0.00450713542
0.00450713542
0.00450713542
0.00450713542
0.00450713542
0.00450713542
0.00450713542
0.00450713542
0.00450713542
0.00450713542
0.00450713542
0.00450713542
0.00450713542
0.00450713542
0.00450713542
0.00450713542
0.00450713542
0.00450713542
0.00450713542
0.00450713542
0.00450713542
0.00450713542
0.00450713542
0.00450713542
0.00450713542
0.00450713542
0.00450713542
0.00450713542
0.00450713542
0.00450713542
0.00450713542
0.00450713542
0.00450713542
0.00450713542
0.00450713542
0.00450713542
0.00450713542
0.00450713542
0.00450713542
0.00450713542
0.00450713542
0.00450713542
0.00450713542
0.00450713542
0.00450713542
0.00450713542
0.00450713542
0.00450713542
0.00450713542
0.00450713542
0.00450713542
0.00450713542
0.00450713542
0.00450713542
0.00450713542
0.00450713542
0.00450713542
0.00450713542
0.00450713542
0.00450713542
0.00450713542
0.00450713542
0.00450713542
0.00450713542
0.00450713542
0.00450713542
0.00450713542
0.00450713542
0.00450713542
0.00450713542
0.00450713542
0.00450713542
0.00450713542
0.00450713542
0.00450713542
0.00450713542
0.00450713542
0.00450713542
0.00450713542
0.00450713542
0.00450713542
0.00450713542
0.00450713542
0.00450713542
0.00450713542
0.00450713542
0.00450713542
0.00450713542
0.00450713542
0.00450713542
0.00450713542
0.00450713542
0.00450713542
0.00450713542
0.00450713542
0.00450713542
0.00450713542
0.00450713542
0.00450713542
0.00450713542
0.00450713542
0.00450713542
0.00450713542
0.00450713542
0.00450713542
0.00450713542
0.00450713542
0.00450713542
0.00450713542
0.00450713542
0.00450713542
0.00450713542
0.00450713542
0.00450713542
0.00450713542
0.00450713542
0.00450713543
0.00450713543
0.00450713542
0.00450713542
0.00450713542
0.00450713542
0.00450713542
0.00450713543
0.00450713543
0.00450713542
0.00450713542
0.00450713542
0.00450713542
0.00450713542
0.00450713542
0.00450713542
0.00450713542
0.00450713542
0.00450713543
0.00450713543
0.00450713542
0.00450713542
0.00450713542
0.00450713543
0.00450713543
0.00450713542
0.00450713542
0.00450713542
0.00450713542
0.00450713542
0.00450713542
0.00450713542
0.00450713542
0.00450713542
0.00450713542
0.00450713542
0.00450713542
0.00450713542
0.00450713543
0.00450713543
0.00450713542
0.00450713542
0.00450713542
0.00450713543
0.00450713543
0.00450713543
0.00450713542
0.00450713542
0.00450713542
0.00450713543
0.00450713543
0.00450713542
0.00450713542
0.00450713542
0.00450713542
0.00450713542
0.00450713542
0.00450713543
0.00450713543
0.00450713542
0.00450713542
0.00450713543
0.00450713543
0.00450713543
0.00450713542
0.00450713542
0.00450713543
0.00450713542
0.00450713542
0.00450713543
0.00450713542
0.00450713542
0.00450713543
0.00450713543
0.00450713542
0.00450713542
0.00450713542
0.00450713543
0.00450713543
0.00450713542
0.00450713542
0.00450713543
0.00450713542
0.00450713542
0.00450713542
0.00450713543
0.00450713543
0.00450713542
0.00450713542
0.00450713542
0.00450713543
0.00450713543
0.00450713542
0.00450713542
0.00450713542
0.00450713542
0.00450713542
0.00450713542
0.00450713541
0.0045071354
0.00450713539
0.00450713537
0.00450713534
0.00450713529
0.0045071352
0.00450713508
0.00450713488
0.00450713458
0.00450713411
0.00450713341
0.00450713235
0.00450713076
0.00450712839
0.00450712488
0.00450711973
0.00450711222
0.00450710132
0.00450708563
0.00450706322
0.00450703137
0.00450698652
0.00450692395
0.00450683712
0.00450671424
0.00450654927
0.00450634053
0.00450604235
0.00450546493
0.00450504946
0.00450540489
0.00450293082
0.00449485212
0.00450279437
0.004542767
0.00450723578
0.00429786069
0.00437700248
0.00526626123
0.00575081468
0.00274160749
0.000934705493
0.00564776193
0.0074638467
0.00589899597
0.000852178256
0.00119554304
0.000914938681
0.00588461856
0.00273178631
0.00190491219
0.00192705729
0.00237607408
0.0025387643
0.00283233613
0.00302896643
0.00321060037
0.00327951862
0.00317293295
0.00341204808
0.00731290406
0.0110099557
0.0108097512
0.00977820646
0.00828091862
0.0109923051
0.0117929685
0.00688218823
0.00977594552
0.00580756547
0.00960411551
0.00788069884
0.00837810746
0.00350433415
0.00533172715
0.0144303683
0.0159142413
0.0170726281
0.0185215085
0.019909591
0.0218632795
0.0253235728
0.0287982111
0.0318248207
0.0355787665
0.0394465799
0.043299639
0.047808106
0.0516872886
0.0552833275
0.058830544
0.0624585526
0.0660256589
0.0695738114
0.0731097103
0.0765918733
0.0803002161
0.0839215223
0.0875474952
0.090918816
0.0942442633
0.0973043864
0.100384011
0.103316821
0.106116929
0.108572895
0.110861908
0.112877522
0.114685555
0.116099759
0.117609654
0.118950975
0.120214896
0.121193905
0.12218429
0.123029057
0.123761972
0.124450841
0.124991471
0.12556916
0.125959914
0.126440953
0.126759145
0.127150901
0.127413951
0.127735427
0.127943727
0.128227173
0.128444272
0.128715065
0.128887868
0.129103058
0.129235496
0.129398715
0.129499301
0.129621936
0.12969642
0.129786741
0.129841197
0.129911179
0.129954256
0.130002752
0.130027351
0.1300552
0.130063577
0.130074203
0.130074103
0.130073987
0.130067287
0.130057349
0.130044692
0.130030842
0.130016791
0.129997412
0.129978197
0.129952594
0.129927296
)
;

boundaryField
{
    closed
    {
        type            calculated;
        value           nonuniform List<scalar> 0();
    }
    open
    {
        type            calculated;
        value           nonuniform List<scalar> 0();
    }
    sides
    {
        type            empty;
    }
    procBoundary4to3
    {
        type            processor;
        value           uniform 0.00450723987;
    }
    procBoundary4to5
    {
        type            processor;
        value           uniform 0.129898578;
    }
}


// ************************************************************************* //
