/*--------------------------------*- C++ -*----------------------------------*\
| =========                 |                                                 |
| \\      /  F ield         | OpenFOAM: The Open Source CFD Toolbox           |
|  \\    /   O peration     | Version:  2306                                  |
|   \\  /    A nd           | Website:  www.openfoam.com                      |
|    \\/     M anipulation  |                                                 |
\*---------------------------------------------------------------------------*/
FoamFile
{
    version     2.0;
    format      ascii;
    arch        "LSB;label=32;scalar=64";
    class       volScalarField;
    location    "0.00074";
    object      prefDh_H2;
}
// * * * * * * * * * * * * * * * * * * * * * * * * * * * * * * * * * * * * * //

dimensions      [1 1 -3 0 0 0 0];

internalField   nonuniform List<scalar> 
530
(
2918.74303
2968.89263
2965.86896
2952.08732
2941.25498
2967.66143
2990.1875
2992.82236
2962.49139
2966.01516
3007.75319
3008.27417
2980.93135
2984.90603
3025.8496
3023.03951
2996.33256
3001.85066
3040.02422
3038.82809
3012.06462
3016.16221
3052.41034
3053.10238
3026.98948
3030.05145
3065.14404
3066.65872
3039.8003
3043.4946
3076.78228
3078.6008
3051.54541
3056.27994
3088.00149
3089.80321
3063.39075
3067.84652
3099.30898
3100.88941
3075.46484
3079.59713
3110.83148
3112.18738
3087.80024
3091.66368
3122.8062
3123.86862
3100.36168
3104.04763
3135.56372
3136.12451
3113.14944
3116.8868
3148.94767
3149.11395
3127.10893
3130.20835
3162.52638
3162.71158
3141.37764
3144.55493
3176.31946
3177.02789
3155.73366
3159.69932
3190.26665
3191.55166
3170.23305
3175.02059
3204.51139
3206.44977
3185.46191
3190.76675
3220.03384
3221.95826
3201.51292
3206.99733
3236.74726
3238.46055
3219.20131
3224.16772
3254.16146
3255.8123
3237.22575
3242.33134
3272.1048
3273.72775
3255.72986
3260.68133
3290.36933
3292.0667
3274.74176
3279.41243
3308.93735
3310.70653
3294.10142
3298.37254
3327.20064
3329.13225
3312.73077
3317.2639
3345.33528
3347.3168
3331.52073
3335.97668
3363.80217
3365.88352
3350.71465
3355.16968
3382.75834
3384.93851
3370.16115
3374.66014
3402.1005
3404.20514
3389.80494
3394.26041
3420.95607
3423.42414
3409.16709
3413.7873
3439.26213
3442.04308
3427.90905
3432.73231
3457.16877
3460.44844
3446.35382
3451.45093
3474.93649
3478.50027
3464.4527
3469.98915
3492.33616
3496.33403
3482.18785
3488.25524
3509.27626
3513.74337
3499.47849
3506.11245
3526.14968
3530.93125
3516.89693
3523.79716
3542.80242
3548.25852
3534.03063
3541.65112
3559.08384
3565.11451
3550.60534
3559.02412
3575.00644
3581.61358
3566.7629
3575.85415
3590.84679
3597.60451
3582.58434
3592.03425
3607.40363
3612.69416
3598.63931
3606.97309
3625.9383
3627.85542
3616.33526
3620.7408
3644.36173
3641.7108
3634.12909
3634.64542
3661.35599
3654.73129
3650.49125
3647.95096
3676.31955
3667.50014
3665.83548
3660.95324
3689.86555
3679.86813
3679.90998
3673.49741
3702.15591
3691.71925
3693.07277
3685.40807
3713.71949
3702.80946
3705.35758
3696.5127
3724.90083
3712.87691
3717.07111
3706.67458
3735.35877
3722.60063
3727.84847
3716.45602
3745.12094
3731.94792
3737.92589
3725.72121
3754.24829
3741.03448
3747.31359
3734.61413
3762.68621
3750.18471
3755.9792
3743.36817
3770.30952
3759.67014
3763.81874
3752.41222
3777.0204
3769.65888
3770.5841
3762.6669
3782.95849
3780.49002
3776.42928
3774.38718
3787.99541
3792.42234
3781.45491
3789.59421
3792.79255
3793.36594
3786.65417
3800.11853
3797.89439
3794.30562
3792.06141
3803.79145
3802.854
3798.33631
3797.42426
3808.13737
3807.59628
3802.88985
3802.62765
3812.42618
3812.0448
3807.35612
3807.5796
3816.4053
3816.20658
3811.32163
3812.3997
3819.96254
3819.97937
3814.61211
3816.97759
3822.98916
3823.17452
3817.78093
3820.6813
3826.01039
3826.25637
3821.36404
3823.62263
3828.75549
3829.03274
3824.50863
3826.59525
3831.3698
3831.61522
3827.3427
3829.32079
3833.71477
3833.95628
3829.89109
3831.79223
3835.81556
3836.06665
3832.18159
3834.02358
3837.69279
3837.95949
3834.2315
3836.02739
3839.36777
3839.64704
3836.07219
3837.80573
3840.86616
3841.14154
3837.74055
3839.36993
3842.21058
3842.45893
3839.25917
3840.74116
3843.41753
3843.61769
3840.6414
3841.94528
3844.49821
3844.63934
3841.89434
3843.01794
3845.45902
3845.55566
3843.02239
3844.07653
3846.36389
3846.38372
3843.99527
3844.99497
3847.08829
3847.10681
3844.7801
3845.81439
3847.71253
3847.73326
3845.51943
3846.46499
3848.2564
3848.27151
3846.22458
3847.03319
3848.73069
3848.73917
3846.80776
3847.56854
3849.14546
3849.15714
3847.32813
3848.0471
3849.50953
3849.52259
3847.79393
3848.42645
3849.79202
3849.84255
3848.21702
3848.81178
3850.07577
3850.12421
3848.59888
3849.15521
3850.32719
3850.37247
3848.94903
3849.46318
3850.55079
3850.59056
3849.26954
3849.73893
3850.74923
3850.78227
3849.56213
3850.01966
3850.95075
3850.95188
3849.8281
3850.24179
3851.10373
3851.10148
3850.06874
3850.4437
3851.23805
3851.23411
3850.28579
3850.6274
3851.35588
3851.35161
3850.48177
3850.79392
3851.45962
3851.45537
3850.65974
3850.94377
3851.55164
3851.54663
3850.82268
3851.07899
3851.63393
3851.62984
3850.97137
3851.21111
3851.70671
3851.70261
3851.09185
3851.32729
3851.7682
3851.77092
3851.21395
3851.4226
3851.81164
3851.82465
3851.30479
3851.52522
3851.88344
3851.87144
3851.43834
3851.56859
3851.95307
3851.92004
3851.61177
3851.60955
3852.03216
3851.9526
3851.74106
3851.66708
3852.08341
3851.98374
3851.8377
3851.72522
3852.11882
3852.01125
3851.90504
3851.77864
3852.14211
3852.03581
3851.95414
3851.82812
3852.15803
3852.05788
3851.99242
3851.87246
3852.16956
3852.07728
3852.02336
3851.91221
3852.1782
3852.09436
3852.04917
3851.94797
3852.18487
3852.10953
3852.07119
3851.98039
3852.19014
3852.12317
3852.09035
3852.01006
3852.19456
3852.13573
3852.10745
3852.03771
3852.19978
3852.14954
3852.12579
3852.06658
3852.21258
3852.17056
3852.14621
3852.10404
3852.21386
3852.21804
3852.18981
3852.16272
3852.19661
3852.18674
3852.19817
3852.18709
3852.20021
3852.19206
3852.2026
3852.19678
3852.20534
3852.20178
3852.20861
3852.20701
3852.21252
3852.21246
3852.21703
3852.21755
3852.20954
3852.20592
3852.20028
3852.19727
3852.19377
3852.19163
3852.18966
3852.18838
3852.18739
3852.18675
3852.18632
3852.18605
3852.18589
3852.1858
3852.18575
3852.18573
3852.18572
3852.18571
3852.18571
3852.18571
3852.18571
3852.18571
3852.18571
3852.18571
3852.18571
3852.18571
3852.18571
3852.18571
3852.18571
3852.18571
3852.18571
3852.18571
3852.18571
3852.18571
3852.18571
3852.18571
3852.18571
3852.18571
3852.18571
3852.18571
3852.18571
3852.18571
3852.18571
3852.18571
3852.18571
3852.18571
3852.18571
3852.18571
3852.18571
3852.18571
3852.18571
3852.18571
3852.18571
3852.18571
3852.18571
3852.18571
3852.18571
)
;

boundaryField
{
    closed
    {
        type            calculated;
        value           nonuniform List<scalar> 0();
    }
    open
    {
        type            calculated;
        value           uniform 3852.18571;
    }
    sides
    {
        type            empty;
    }
    procBoundary5to4
    {
        type            processor;
        value           uniform 2915.02062;
    }
}


// ************************************************************************* //
