/*--------------------------------*- C++ -*----------------------------------*\
| =========                 |                                                 |
| \\      /  F ield         | OpenFOAM: The Open Source CFD Toolbox           |
|  \\    /   O peration     | Version:  2306                                  |
|   \\  /    A nd           | Website:  www.openfoam.com                      |
|    \\/     M anipulation  |                                                 |
\*---------------------------------------------------------------------------*/
FoamFile
{
    version     2.0;
    format      ascii;
    arch        "LSB;label=32;scalar=64";
    class       volScalarField;
    location    "0.00074";
    object      prefDh_T;
}
// * * * * * * * * * * * * * * * * * * * * * * * * * * * * * * * * * * * * * //

dimensions      [1 1 -3 -1 0 0 0];

internalField   nonuniform List<scalar> 
530
(
0.00742593269
0.0083485059
0.00841335476
0.00763349064
0.00744177599
0.00780394034
0.00839900829
0.00829480722
0.00747828305
0.00760180137
0.00838567321
0.00838510723
0.00753782404
0.00771420314
0.00837277343
0.00837054981
0.00754845636
0.00779411466
0.00835966474
0.00835748011
0.00760121746
0.00782047838
0.00834639695
0.00834480725
0.00765065249
0.00784006279
0.00833375632
0.00833243415
0.00768226052
0.00785475601
0.00832143283
0.00832038165
0.00770149336
0.00786326516
0.0083095906
0.00830876334
0.00771910355
0.00786343528
0.00829834934
0.00829762557
0.00773723181
0.00786356666
0.00828766803
0.00828700769
0.00775411357
0.00786514773
0.00827752784
0.00827689462
0.0077683885
0.00786729398
0.00826781287
0.00826721561
0.00777730665
0.00787072771
0.00825854958
0.00825795944
0.00778891671
0.00787422534
0.00824975244
0.00824917037
0.00779797054
0.00788264604
0.00824137893
0.00824082074
0.00780068483
0.00789546722
0.00823346366
0.00823289928
0.00779901946
0.00790307911
0.00822589812
0.0082253919
0.00780137774
0.00790842408
0.00821862954
0.00821820737
0.00780552437
0.00791252607
0.00821177968
0.00821134105
0.00781758468
0.00791618325
0.00820531247
0.00820484622
0.00782857764
0.00792296547
0.00819924771
0.00819877802
0.00783983927
0.00792774133
0.00819349683
0.00819305415
0.00785014332
0.00793238677
0.00818806962
0.00818766863
0.00786191628
0.00793746141
0.0081830421
0.00818270578
0.00786783489
0.00794236849
0.0081783546
0.00817810649
0.00787230853
0.00794493064
0.00817402898
0.0081738591
0.00787827969
0.00794997084
0.00816998165
0.00816986445
0.0078848942
0.00795589662
0.00816622454
0.00816617308
0.00789254709
0.00795963193
0.008162868
0.0081628617
0.00790150311
0.00796436262
0.00815984503
0.00815992963
0.00790668462
0.00796742801
0.00815715074
0.00815729575
0.00791149573
0.00797021711
0.00815474238
0.00815487552
0.00791541921
0.00797360163
0.00815258421
0.00815269339
0.00791972962
0.00797689709
0.00815072892
0.00815078093
0.00792157764
0.00797990141
0.00814904895
0.00814911803
0.00792351412
0.00798251762
0.00814759059
0.00814764351
0.00792576378
0.00798719654
0.00814638274
0.00814643249
0.00792790678
0.00799146622
0.00814540945
0.00814541408
0.00793122507
0.00799519885
0.00814467668
0.00814458279
0.00793670324
0.00799742139
0.00814430625
0.00814395713
0.00794919954
0.0079934168
0.0081443578
0.00814362797
0.00798375677
0.00798388545
0.00814488646
0.00814344322
0.00802164202
0.00798309656
0.00814543583
0.00814335172
0.00804784994
0.00798416312
0.00814590846
0.00814344324
0.00805850814
0.00798808309
0.00814619621
0.0081436996
0.00806580803
0.0079934428
0.00814620132
0.00814398422
0.00807165277
0.0079985199
0.00814629716
0.00814404611
0.00807592991
0.00800161467
0.00814654781
0.00814416797
0.00808052839
0.00800157254
0.00814689475
0.00814442468
0.00808380694
0.00800369295
0.00814730455
0.00814483154
0.00808677031
0.00800650696
0.00814778303
0.00814538781
0.00808938522
0.00801128548
0.00814830416
0.00814613317
0.00809143817
0.00802012307
0.00814883781
0.00814709681
0.00809236358
0.00803553515
0.00814936477
0.00814824619
0.00809096176
0.00805238146
0.00814990143
0.0081495091
0.00808803059
0.00807799882
0.00815044973
0.00815067454
0.00808398848
0.00811901921
0.00815104912
0.00812363359
0.00808311318
0.00815219775
0.00815179102
0.0081048291
0.00808532418
0.00815276258
0.00815257426
0.00810158617
0.0080892228
0.00815350498
0.00815339607
0.00810236505
0.00809427096
0.00815430509
0.00815423279
0.00810431916
0.00810003337
0.0081551169
0.00815504385
0.00810575984
0.00810673177
0.00815593805
0.00815577971
0.00810592886
0.00811369212
0.00815676318
0.00815651485
0.00810691164
0.00811802998
0.00815752009
0.00815730567
0.00811103718
0.00812010411
0.00815824365
0.0081580742
0.00811460179
0.00812323893
0.00815897351
0.00815881734
0.00811796058
0.00812628724
0.00815968124
0.00815953518
0.00812110708
0.00812918427
0.00816036024
0.00816022608
0.00812405167
0.008131924
0.00816100851
0.00816088501
0.00812678644
0.00813448391
0.00816162635
0.00816151105
0.00812936444
0.00813680994
0.00816221175
0.00816210493
0.00813186545
0.00813888071
0.00816276436
0.00816266543
0.00813432152
0.00814072033
0.00816328481
0.0081631924
0.00813672812
0.00814237758
0.00816377343
0.00816368606
0.00813906045
0.00814394668
0.00816423114
0.00816414746
0.00814128459
0.00814586606
0.00816466362
0.00816457582
0.00814322529
0.00814757414
0.00816506455
0.00816497138
0.00814469276
0.00814919356
0.00816543306
0.00816534132
0.00814625748
0.00815037811
0.00816576391
0.00816568525
0.00814793263
0.00815146438
0.00816606758
0.00816599888
0.0081493079
0.00815263338
0.00816635033
0.00816628742
0.0081506062
0.00815375063
0.00816661001
0.00816655193
0.00815183662
0.00815460987
0.00816684496
0.00816679432
0.00815302643
0.00815563431
0.00816706232
0.00816701599
0.00815416082
0.00815660013
0.00816726037
0.00816721884
0.00815526151
0.00815751644
0.0081674404
0.00816740347
0.0081563213
0.00815838068
0.00816760368
0.008167571
0.00815733348
0.00815933848
0.0081677534
0.00816772271
0.00815829126
0.008160105
0.00816788643
0.00816785954
0.00815918968
0.00816083428
0.00816800606
0.00816798269
0.00816002722
0.00816152602
0.00816811332
0.00816809325
0.00816080692
0.00816217701
0.0081682092
0.00816819222
0.00816153554
0.00816278297
0.00816829477
0.00816828053
0.00816222041
0.00816334723
0.00816837109
0.00816835934
0.00816285996
0.00816391553
0.00816843986
0.00816842899
0.00816338929
0.00816442779
0.00816849967
0.00816849227
0.00816393662
0.00816485933
0.0081685523
0.00816854568
0.00816435375
0.00816532942
0.00816860225
0.00816859623
0.00816496113
0.00816554737
0.00816864417
0.00816864257
0.00816574605
0.00816575592
0.00816868339
0.00816868008
0.00816634295
0.00816604067
0.00816871876
0.00816871178
0.00816679978
0.0081663296
0.008168748
0.00816873885
0.00816712951
0.00816659833
0.00816877256
0.00816876225
0.00816737962
0.00816684928
0.00816879307
0.00816878276
0.00816758171
0.00816707695
0.00816881045
0.00816880061
0.0081677507
0.00816728332
0.00816882526
0.00816881612
0.00816789582
0.00816747085
0.00816883794
0.00816882959
0.00816802283
0.00816764216
0.00816884882
0.00816884133
0.00816813567
0.00816779976
0.00816885826
0.00816885169
0.00816823758
0.00816794649
0.00816886662
0.00816886121
0.00816834254
0.00816809559
0.00816887446
0.00816887159
0.00816845206
0.00816827632
0.00816875943
0.00816878112
0.00816866603
0.00816855224
0.00816870942
0.00816867162
0.00816873023
0.00816868751
0.0081687536
0.00816872413
0.00816877873
0.0081687597
0.00816880525
0.00816879617
0.00816883352
0.00816883278
0.00816886352
0.00816886902
0.0081688943
0.00816890353
0.00816890512
0.0081689063
0.00816890724
0.00816890802
0.00816890847
0.00816890887
0.00816890902
0.00816890915
0.00816890916
0.00816890916
0.00816890912
0.00816890909
0.00816890905
0.00816890902
0.008168909
0.00816890899
0.00816890898
0.00816890897
0.00816890897
0.00816890897
0.00816890897
0.00816890897
0.00816890897
0.00816890897
0.00816890897
0.00816890897
0.00816890897
0.00816890897
0.00816890897
0.00816890897
0.00816890897
0.00816890897
0.00816890897
0.00816890897
0.00816890897
0.00816890897
0.00816890897
0.00816890897
0.00816890897
0.00816890897
0.00816890897
0.00816890897
0.00816890897
0.00816890897
0.00816890897
0.00816890897
0.00816890897
0.00816890897
0.00816890897
0.00816890897
0.00816890897
0.00816890897
0.00816890897
0.00816890897
0.00816890897
0.00816890897
0.00816890897
)
;

boundaryField
{
    closed
    {
        type            calculated;
        value           nonuniform List<scalar> 0();
    }
    open
    {
        type            calculated;
        value           uniform 0.00816890897;
    }
    sides
    {
        type            empty;
    }
    procBoundary5to4
    {
        type            processor;
        value           uniform 0.0072191906;
    }
}


// ************************************************************************* //
