/*--------------------------------*- C++ -*----------------------------------*\
| =========                 |                                                 |
| \\      /  F ield         | OpenFOAM: The Open Source CFD Toolbox           |
|  \\    /   O peration     | Version:  2306                                  |
|   \\  /    A nd           | Website:  www.openfoam.com                      |
|    \\/     M anipulation  |                                                 |
\*---------------------------------------------------------------------------*/
FoamFile
{
    version     2.0;
    format      ascii;
    arch        "LSB;label=32;scalar=64";
    class       volScalarField;
    location    "0.00074";
    object      prefDPV_H2;
}
// * * * * * * * * * * * * * * * * * * * * * * * * * * * * * * * * * * * * * //

dimensions      [1 -1 -1 0 0 0 0];

internalField   nonuniform List<scalar> 
530
(
-8.57190324e-05
-8.63266515e-05
-8.63261143e-05
-8.60584196e-05
-8.59349268e-05
-8.62285951e-05
-8.65543764e-05
-8.65476657e-05
-8.61397696e-05
-8.61909248e-05
-8.67204632e-05
-8.67254358e-05
-8.63224521e-05
-8.63855326e-05
-8.68891891e-05
-8.68655849e-05
-8.64706517e-05
-8.65591845e-05
-8.70233171e-05
-8.70140817e-05
-8.6628177e-05
-8.67005363e-05
-8.71418316e-05
-8.71490132e-05
-8.67780396e-05
-8.68367925e-05
-8.72631919e-05
-8.72774946e-05
-8.69055323e-05
-8.69679363e-05
-8.7373045e-05
-8.73896423e-05
-8.70210064e-05
-8.70917081e-05
-8.74788546e-05
-8.74951703e-05
-8.7136702e-05
-8.72018952e-05
-8.75851831e-05
-8.75994979e-05
-8.72540923e-05
-8.73133397e-05
-8.76931399e-05
-8.77054502e-05
-8.73731851e-05
-8.74274657e-05
-8.78047858e-05
-8.78145128e-05
-8.74934382e-05
-8.75441043e-05
-8.79220886e-05
-8.79273167e-05
-8.76145413e-05
-8.76645958e-05
-8.80436984e-05
-8.80455194e-05
-8.77447668e-05
-8.77885325e-05
-8.81667179e-05
-8.81687037e-05
-8.78765763e-05
-8.79207927e-05
-8.82913215e-05
-8.82978086e-05
-8.80074303e-05
-8.80603823e-05
-8.84169437e-05
-8.84284031e-05
-8.81382113e-05
-8.82001853e-05
-8.85443914e-05
-8.85612148e-05
-8.82756072e-05
-8.83427527e-05
-8.86811676e-05
-8.86978052e-05
-8.8419687e-05
-8.84887671e-05
-8.88277246e-05
-8.88425659e-05
-8.85775384e-05
-8.864133e-05
-8.89798751e-05
-8.89941922e-05
-8.8737514e-05
-8.88017464e-05
-8.91361127e-05
-8.91501823e-05
-8.89011424e-05
-8.8962709e-05
-8.92938209e-05
-8.9308307e-05
-8.90685466e-05
-8.91262877e-05
-8.94525933e-05
-8.94676356e-05
-8.92385325e-05
-8.92912684e-05
-8.96083882e-05
-8.9624724e-05
-8.93991595e-05
-8.94542809e-05
-8.97627098e-05
-8.97793801e-05
-8.95600499e-05
-8.96138733e-05
-8.9919368e-05
-8.99367907e-05
-8.97240399e-05
-8.97774548e-05
-9.00785538e-05
-9.00965394e-05
-8.98896652e-05
-8.99431206e-05
-9.02397844e-05
-9.02570788e-05
-9.00565488e-05
-9.01085983e-05
-9.03965394e-05
-9.04167513e-05
-9.02198734e-05
-9.02727127e-05
-9.05483573e-05
-9.05710325e-05
-9.03761373e-05
-9.04299648e-05
-9.06964785e-05
-9.07231453e-05
-9.05293084e-05
-9.05847432e-05
-9.08423613e-05
-9.08710245e-05
-9.06789243e-05
-9.07376324e-05
-9.0984019e-05
-9.10161482e-05
-9.08251331e-05
-9.0887749e-05
-9.11215842e-05
-9.11574742e-05
-9.09667238e-05
-9.10339663e-05
-9.12583065e-05
-9.1296655e-05
-9.11080314e-05
-9.11778517e-05
-9.13929186e-05
-9.14366267e-05
-9.12463369e-05
-9.13222571e-05
-9.15241986e-05
-9.15724423e-05
-9.13797386e-05
-9.14622801e-05
-9.16519083e-05
-9.17042062e-05
-9.1509725e-05
-9.15974274e-05
-9.17777026e-05
-9.18311771e-05
-9.16372792e-05
-9.17266371e-05
-9.19087485e-05
-9.19507274e-05
-9.17681799e-05
-9.18442184e-05
-9.20549178e-05
-9.20704922e-05
-9.1916934e-05
-9.19510068e-05
-9.21996534e-05
-9.21797225e-05
-9.20667035e-05
-9.20594803e-05
-9.23328969e-05
-9.22821917e-05
-9.22010957e-05
-9.21626958e-05
-9.24500476e-05
-9.23824431e-05
-9.23255092e-05
-9.22639906e-05
-9.25554128e-05
-9.24793238e-05
-9.24378856e-05
-9.23618279e-05
-9.26496733e-05
-9.25712715e-05
-9.25420972e-05
-9.24544279e-05
-9.27381895e-05
-9.26562815e-05
-9.26384664e-05
-9.25400666e-05
-9.28235667e-05
-9.27333232e-05
-9.27303651e-05
-9.26174808e-05
-9.29032507e-05
-9.28075583e-05
-9.28141244e-05
-9.26924213e-05
-9.29774941e-05
-9.28787321e-05
-9.28921389e-05
-9.27634911e-05
-9.30467721e-05
-9.29477357e-05
-9.29644881e-05
-9.28321755e-05
-9.31107012e-05
-9.3017019e-05
-9.30308236e-05
-9.29008244e-05
-9.3168364e-05
-9.30886275e-05
-9.30900869e-05
-9.29736281e-05
-9.32190449e-05
-9.31638575e-05
-9.31398511e-05
-9.30598795e-05
-9.32638072e-05
-9.32453311e-05
-9.31817448e-05
-9.31615187e-05
-9.33016843e-05
-9.33351535e-05
-9.32168034e-05
-9.32969982e-05
-9.33376812e-05
-9.33271893e-05
-9.32547169e-05
-9.33924417e-05
-9.33758652e-05
-9.33237541e-05
-9.32956499e-05
-9.34198886e-05
-9.34129179e-05
-9.33513681e-05
-9.33371286e-05
-9.34522946e-05
-9.34482732e-05
-9.33850445e-05
-9.33780035e-05
-9.34842087e-05
-9.34813722e-05
-9.34186524e-05
-9.34173656e-05
-9.35136526e-05
-9.35122114e-05
-9.34481709e-05
-9.34562449e-05
-9.35397882e-05
-9.35400258e-05
-9.34719282e-05
-9.34933539e-05
-9.35619287e-05
-9.35634944e-05
-9.3495179e-05
-9.35225223e-05
-9.35840694e-05
-9.35860658e-05
-9.35232947e-05
-9.35448e-05
-9.36041554e-05
-9.36063541e-05
-9.35478895e-05
-9.35679031e-05
-9.36232502e-05
-9.36252003e-05
-9.35700798e-05
-9.35891323e-05
-9.3640336e-05
-9.36422492e-05
-9.35900426e-05
-9.36084011e-05
-9.36556075e-05
-9.36575838e-05
-9.36079963e-05
-9.3625815e-05
-9.36692219e-05
-9.36713072e-05
-9.36240673e-05
-9.3641461e-05
-9.36813395e-05
-9.36835129e-05
-9.36385221e-05
-9.36553259e-05
-9.36921549e-05
-9.36942928e-05
-9.36516832e-05
-9.36674848e-05
-9.37018382e-05
-9.37037678e-05
-9.36637378e-05
-9.36781111e-05
-9.37105133e-05
-9.37120771e-05
-9.36747834e-05
-9.36874259e-05
-9.37182639e-05
-9.3719382e-05
-9.36848586e-05
-9.36957471e-05
-9.37251378e-05
-9.37259201e-05
-9.3693976e-05
-9.37041906e-05
-9.37316099e-05
-9.373182e-05
-9.37018165e-05
-9.3711506e-05
-9.37367525e-05
-9.37369565e-05
-9.37080361e-05
-9.3718065e-05
-9.37411677e-05
-9.37413871e-05
-9.37139938e-05
-9.37231635e-05
-9.37450073e-05
-9.37451754e-05
-9.3719781e-05
-9.37276241e-05
-9.37483449e-05
-9.37484565e-05
-9.37245313e-05
-9.37319125e-05
-9.37512517e-05
-9.37513831e-05
-9.37288012e-05
-9.37357774e-05
-9.37537949e-05
-9.37539333e-05
-9.37326538e-05
-9.37387879e-05
-9.37557448e-05
-9.37561584e-05
-9.37361907e-05
-9.3741958e-05
-9.37577164e-05
-9.37581113e-05
-9.37394141e-05
-9.37448077e-05
-9.37594596e-05
-9.37598274e-05
-9.37424052e-05
-9.37473877e-05
-9.37610071e-05
-9.37613305e-05
-9.37451738e-05
-9.37497196e-05
-9.3762378e-05
-9.3762648e-05
-9.37477276e-05
-9.37521589e-05
-9.37637814e-05
-9.37638113e-05
-9.37500711e-05
-9.37540747e-05
-9.37648332e-05
-9.37648352e-05
-9.37522098e-05
-9.37558359e-05
-9.37657548e-05
-9.37657416e-05
-9.37541544e-05
-9.3757456e-05
-9.37665616e-05
-9.37665437e-05
-9.37559244e-05
-9.37589395e-05
-9.37672708e-05
-9.3767251e-05
-9.3757545e-05
-9.3760287e-05
-9.37678996e-05
-9.37678721e-05
-9.37590414e-05
-9.3761514e-05
-9.37684621e-05
-9.37684397e-05
-9.3760418e-05
-9.376273e-05
-9.37689586e-05
-9.37689356e-05
-9.37615354e-05
-9.3763806e-05
-9.3769377e-05
-9.37694025e-05
-9.37626813e-05
-9.37646915e-05
-9.37696653e-05
-9.37697673e-05
-9.37635336e-05
-9.37656609e-05
-9.37701677e-05
-9.37700821e-05
-9.37648156e-05
-9.37660578e-05
-9.37706594e-05
-9.37704134e-05
-9.37664954e-05
-9.37664418e-05
-9.37712238e-05
-9.37706309e-05
-9.37677466e-05
-9.37669925e-05
-9.37715825e-05
-9.37708417e-05
-9.37686817e-05
-9.37675539e-05
-9.3771827e-05
-9.37710287e-05
-9.37693337e-05
-9.37680725e-05
-9.37719842e-05
-9.3771196e-05
-9.37698102e-05
-9.37685559e-05
-9.3772089e-05
-9.37713469e-05
-9.37701833e-05
-9.37689913e-05
-9.37721632e-05
-9.37714796e-05
-9.37704868e-05
-9.37693835e-05
-9.37722175e-05
-9.37715966e-05
-9.37707416e-05
-9.3769738e-05
-9.37722585e-05
-9.37717007e-05
-9.37709606e-05
-9.37700609e-05
-9.37722903e-05
-9.37717946e-05
-9.37711526e-05
-9.37703577e-05
-9.37723169e-05
-9.37718813e-05
-9.37713253e-05
-9.37706353e-05
-9.377235e-05
-9.37719779e-05
-9.37715111e-05
-9.37709265e-05
-9.37724403e-05
-9.37721279e-05
-9.37717208e-05
-9.37713064e-05
-9.37723857e-05
-9.37724314e-05
-9.37721543e-05
-9.37718927e-05
-9.3772224e-05
-9.37721302e-05
-9.37722429e-05
-9.37721371e-05
-9.37722667e-05
-9.37721893e-05
-9.37722941e-05
-9.37722393e-05
-9.3772325e-05
-9.37722921e-05
-9.37723609e-05
-9.3772347e-05
-9.37724028e-05
-9.37724038e-05
-9.377245e-05
-9.37724573e-05
-9.37723962e-05
-9.37723683e-05
-9.37723254e-05
-9.37723024e-05
-9.37722759e-05
-9.37722596e-05
-9.37722448e-05
-9.37722351e-05
-9.37722277e-05
-9.37722229e-05
-9.37722197e-05
-9.37722177e-05
-9.37722165e-05
-9.37722159e-05
-9.37722156e-05
-9.37722154e-05
-9.37722153e-05
-9.37722153e-05
-9.37722152e-05
-9.37722152e-05
-9.37722152e-05
-9.37722152e-05
-9.37722152e-05
-9.37722152e-05
-9.37722152e-05
-9.37722152e-05
-9.37722152e-05
-9.37722152e-05
-9.37722152e-05
-9.37722152e-05
-9.37722152e-05
-9.37722152e-05
-9.37722152e-05
-9.37722152e-05
-9.37722152e-05
-9.37722152e-05
-9.37722152e-05
-9.37722152e-05
-9.37722152e-05
-9.37722152e-05
-9.37722152e-05
-9.37722152e-05
-9.37722152e-05
-9.37722152e-05
-9.37722152e-05
-9.37722152e-05
-9.37722152e-05
-9.37722152e-05
-9.37722152e-05
-9.37722152e-05
-9.37722152e-05
-9.37722152e-05
-9.37722152e-05
-9.37722152e-05
-9.37722152e-05
-9.37722152e-05
-9.37722152e-05
)
;

boundaryField
{
    closed
    {
        type            calculated;
        value           nonuniform List<scalar> 0();
    }
    open
    {
        type            calculated;
        value           uniform -9.37722152e-05;
    }
    sides
    {
        type            empty;
    }
    procBoundary5to4
    {
        type            processor;
        value           uniform -8.56558355e-05;
    }
}


// ************************************************************************* //
