/*--------------------------------*- C++ -*----------------------------------*\
| =========                 |                                                 |
| \\      /  F ield         | OpenFOAM: The Open Source CFD Toolbox           |
|  \\    /   O peration     | Version:  2306                                  |
|   \\  /    A nd           | Website:  www.openfoam.com                      |
|    \\/     M anipulation  |                                                 |
\*---------------------------------------------------------------------------*/
FoamFile
{
    version     2.0;
    format      ascii;
    arch        "LSB;label=32;scalar=64";
    class       volScalarField;
    location    "0.00052";
    object      prefDPV_H2O;
}
// * * * * * * * * * * * * * * * * * * * * * * * * * * * * * * * * * * * * * //

dimensions      [1 -1 -1 0 0 0 0];

internalField   nonuniform List<scalar> 
530
(
1.09168498e-06
1.09286473e-06
1.09425854e-06
1.09534724e-06
1.09671152e-06
1.09771603e-06
1.09900833e-06
1.09989381e-06
1.10114378e-06
1.10195646e-06
1.10317056e-06
1.10391791e-06
1.10508958e-06
1.10577817e-06
1.10689802e-06
1.10752684e-06
1.1086085e-06
1.10922187e-06
1.11024274e-06
1.11083472e-06
1.11180011e-06
1.11235371e-06
1.11321254e-06
1.11372855e-06
1.11453884e-06
1.1150346e-06
1.11579911e-06
1.11627459e-06
1.11699593e-06
1.11745123e-06
1.11813186e-06
1.11856719e-06
1.1192094e-06
1.11962512e-06
1.12023106e-06
1.12062762e-06
1.1211993e-06
1.12157732e-06
1.1221166e-06
1.12247685e-06
1.12298546e-06
1.12332884e-06
1.12379618e-06
1.12410364e-06
1.12453469e-06
1.12482414e-06
1.12522796e-06
1.12550013e-06
1.1258777e-06
1.12613319e-06
1.12648557e-06
1.12672492e-06
1.12705315e-06
1.12727688e-06
1.127582e-06
1.12779064e-06
1.12807366e-06
1.12826772e-06
1.12852964e-06
1.12870969e-06
1.12895146e-06
1.12911808e-06
1.12934062e-06
1.12949443e-06
1.12969861e-06
1.1298403e-06
1.13002691e-06
1.13015727e-06
1.13032702e-06
1.1304469e-06
1.13060044e-06
1.13071077e-06
1.13084057e-06
1.1309229e-06
1.13102912e-06
1.1311002e-06
1.1311919e-06
1.13125485e-06
1.13133295e-06
1.13138759e-06
1.13145329e-06
1.13149941e-06
1.13155385e-06
1.13159156e-06
1.13163552e-06
1.13167895e-06
1.13171419e-06
1.13174168e-06
1.13176054e-06
1.13178575e-06
1.13179142e-06
1.13181272e-06
1.13180747e-06
1.13182398e-06
1.13180961e-06
1.13182084e-06
1.13179867e-06
1.13180441e-06
1.13177537e-06
1.13177564e-06
1.13174046e-06
1.13173543e-06
1.13169472e-06
1.13168465e-06
1.13163641e-06
1.13161733e-06
1.13156211e-06
1.13153613e-06
1.13147484e-06
1.1314423e-06
1.13137556e-06
1.13133683e-06
1.13126525e-06
1.1312207e-06
1.13114486e-06
1.13109498e-06
1.13101537e-06
1.13096075e-06
1.13087341e-06
1.13080775e-06
1.13071608e-06
1.13064638e-06
1.13054946e-06
1.1304725e-06
1.13037335e-06
1.13029519e-06
1.13019613e-06
1.13011686e-06
1.13001799e-06
1.12993774e-06
1.12983915e-06
1.12975801e-06
1.12965979e-06
1.12957789e-06
1.1294801e-06
1.12939756e-06
1.12930028e-06
1.12921719e-06
1.12912049e-06
1.12903699e-06
1.12894092e-06
1.12885711e-06
1.12876174e-06
1.12867773e-06
1.12858312e-06
1.12849902e-06
1.12840522e-06
1.12832114e-06
1.12822821e-06
1.12814427e-06
1.12805225e-06
1.12796855e-06
1.12787751e-06
1.12779415e-06
1.12770414e-06
1.12762123e-06
1.12753231e-06
1.12744995e-06
1.12736216e-06
1.12728045e-06
1.12719386e-06
1.1271129e-06
1.12702757e-06
1.12694746e-06
1.12686345e-06
1.12678429e-06
1.12670165e-06
1.12662354e-06
1.12654235e-06
1.12646537e-06
1.12638569e-06
1.12630995e-06
1.12623186e-06
1.12615745e-06
1.126081e-06
1.12600802e-06
1.1259333e-06
1.12586183e-06
1.12578891e-06
1.12571908e-06
1.12564799e-06
1.12557993e-06
1.12551072e-06
1.12544459e-06
1.12537726e-06
1.12531324e-06
1.12524952e-06
1.12519122e-06
1.12513104e-06
1.12507445e-06
1.12501595e-06
1.12496131e-06
1.12490462e-06
1.12485208e-06
1.12479736e-06
1.12474852e-06
1.12469995e-06
1.12465125e-06
1.12460054e-06
1.12455459e-06
1.12450695e-06
1.12446368e-06
1.12441901e-06
1.12437841e-06
1.1243366e-06
1.12429866e-06
1.1242596e-06
1.12422431e-06
1.12418789e-06
1.12415521e-06
1.12412136e-06
1.12409124e-06
1.12405989e-06
1.12403227e-06
1.12400335e-06
1.12397817e-06
1.12395161e-06
1.12392879e-06
1.12390454e-06
1.12388402e-06
1.123862e-06
1.12384371e-06
1.12382386e-06
1.12380773e-06
1.12378998e-06
1.12377594e-06
1.12376022e-06
1.12374819e-06
1.12373445e-06
1.12372436e-06
1.12371251e-06
1.12370429e-06
1.12369427e-06
1.12368785e-06
1.1236796e-06
1.1236749e-06
1.12366834e-06
1.12366529e-06
1.12366036e-06
1.12365889e-06
1.12365551e-06
1.12365555e-06
1.12365366e-06
1.12365512e-06
1.12365466e-06
1.12365748e-06
1.12365838e-06
1.12366248e-06
1.12366467e-06
1.12366998e-06
1.12367339e-06
1.12367984e-06
1.12368442e-06
1.12369192e-06
1.1236976e-06
1.1237061e-06
1.12371282e-06
1.12372224e-06
1.12372993e-06
1.1237402e-06
1.1237488e-06
1.12375986e-06
1.12376931e-06
1.12378109e-06
1.12379134e-06
1.12380377e-06
1.12381475e-06
1.12382778e-06
1.12383944e-06
1.123853e-06
1.12386528e-06
1.12387931e-06
1.12389216e-06
1.12390661e-06
1.12391997e-06
1.12393479e-06
1.12394861e-06
1.12396373e-06
1.12397797e-06
1.12399335e-06
1.12400795e-06
1.12402355e-06
1.12403846e-06
1.12405422e-06
1.12406941e-06
1.12408529e-06
1.12410072e-06
1.12411668e-06
1.12413229e-06
1.12414828e-06
1.12416405e-06
1.12418004e-06
1.12419592e-06
1.12421188e-06
1.12422784e-06
1.12424373e-06
1.12425973e-06
1.12427551e-06
1.12429153e-06
1.12430718e-06
1.12432318e-06
1.12433867e-06
1.12435463e-06
1.12436992e-06
1.12438582e-06
1.12440089e-06
1.1244167e-06
1.12443153e-06
1.12444723e-06
1.1244618e-06
1.12447737e-06
1.12449165e-06
1.12450707e-06
1.12452104e-06
1.1245363e-06
1.12454995e-06
1.12456503e-06
1.12457835e-06
1.12459323e-06
1.12460619e-06
1.12462088e-06
1.12463347e-06
1.12464794e-06
1.12466016e-06
1.12467441e-06
1.12468624e-06
1.12470025e-06
1.1247117e-06
1.12472546e-06
1.12473651e-06
1.12475002e-06
1.12476068e-06
1.12477393e-06
1.12478419e-06
1.12479717e-06
1.12480703e-06
1.12481974e-06
1.12482921e-06
1.12484164e-06
1.12485071e-06
1.12486287e-06
1.12487154e-06
1.12488341e-06
1.12489171e-06
1.12490329e-06
1.12491121e-06
1.12492249e-06
1.12493004e-06
1.12494103e-06
1.12494822e-06
1.12495892e-06
1.12496575e-06
1.12497615e-06
1.12498262e-06
1.12499276e-06
1.12499887e-06
1.12500875e-06
1.1250145e-06
1.12502412e-06
1.12502955e-06
1.12503863e-06
1.125044e-06
1.12505264e-06
1.125058e-06
1.12506607e-06
1.12507142e-06
1.12507895e-06
1.12508425e-06
1.12509129e-06
1.12509651e-06
1.12510312e-06
1.12510823e-06
1.12511443e-06
1.12511943e-06
1.12512526e-06
1.12513011e-06
1.1251356e-06
1.1251403e-06
1.12514547e-06
1.12515001e-06
1.12515489e-06
1.12515926e-06
1.12516387e-06
1.12516806e-06
1.12517242e-06
1.12517643e-06
1.12518055e-06
1.12518439e-06
1.12518829e-06
1.12519196e-06
1.12519565e-06
1.12519914e-06
1.12520263e-06
1.12520596e-06
1.12520926e-06
1.12521242e-06
1.12521555e-06
1.12521855e-06
1.12522151e-06
1.12522435e-06
1.12522715e-06
1.12522985e-06
1.12523249e-06
1.12523505e-06
1.12523755e-06
1.12523996e-06
1.12524232e-06
1.12524461e-06
1.12524684e-06
1.125249e-06
1.1252511e-06
1.12525314e-06
1.12525512e-06
1.12525705e-06
1.12525892e-06
1.12526073e-06
1.1252625e-06
1.12526421e-06
1.12526587e-06
1.12526748e-06
1.12526905e-06
1.12527057e-06
1.12527204e-06
1.12527347e-06
1.12527485e-06
1.1252762e-06
1.1252775e-06
1.12527876e-06
1.12527999e-06
1.12528118e-06
1.12528233e-06
1.12528344e-06
1.12528453e-06
1.12528557e-06
1.12528659e-06
1.12528757e-06
1.12528853e-06
1.12528945e-06
1.12529035e-06
1.12529122e-06
1.12529206e-06
1.12529287e-06
1.12529366e-06
1.12529442e-06
1.12529516e-06
1.12529587e-06
1.12529657e-06
1.12529724e-06
1.12529789e-06
1.12529852e-06
1.12529913e-06
1.12529972e-06
1.12530029e-06
1.12530086e-06
1.12530146e-06
1.12530207e-06
1.1253027e-06
1.12530336e-06
1.12530401e-06
1.12530471e-06
1.12530537e-06
1.1253061e-06
1.12530591e-06
1.12530554e-06
1.1253052e-06
1.12530489e-06
1.12530461e-06
1.12530436e-06
1.12530414e-06
1.12530395e-06
1.12530379e-06
1.12530365e-06
1.12530354e-06
1.12530345e-06
1.12530339e-06
1.12530333e-06
1.1253033e-06
1.12530327e-06
1.12530325e-06
1.12530324e-06
1.12530323e-06
1.12530323e-06
1.12530322e-06
1.12530322e-06
1.12530322e-06
1.12530322e-06
1.12530322e-06
1.12530322e-06
1.12530322e-06
1.12530322e-06
1.12530322e-06
1.12530322e-06
1.12530322e-06
1.12530322e-06
1.12530322e-06
1.12530322e-06
1.12530322e-06
1.12530322e-06
1.12530322e-06
1.12530322e-06
1.12530322e-06
1.12530322e-06
1.12530322e-06
1.12530322e-06
1.12530322e-06
1.12530322e-06
1.12530322e-06
1.12530322e-06
1.12530322e-06
1.12530322e-06
1.12530322e-06
1.12530322e-06
1.12530322e-06
1.12530322e-06
1.12530322e-06
1.12530322e-06
1.12530322e-06
1.12530322e-06
1.12530322e-06
1.12530322e-06
1.12530322e-06
1.12530322e-06
1.12530322e-06
1.12530322e-06
1.12530322e-06
1.12530322e-06
1.12530322e-06
1.12530322e-06
1.12530322e-06
1.12530322e-06
)
;

boundaryField
{
    closed
    {
        type            calculated;
        value           nonuniform List<scalar> 0();
    }
    open
    {
        type            calculated;
        value           uniform 1.12530322e-06;
    }
    sides
    {
        type            empty;
    }
    procBoundary5to4
    {
        type            processor;
        value           uniform 1.09026127e-06;
    }
}


// ************************************************************************* //
