/*--------------------------------*- C++ -*----------------------------------*\
| =========                 |                                                 |
| \\      /  F ield         | OpenFOAM: The Open Source CFD Toolbox           |
|  \\    /   O peration     | Version:  2306                                  |
|   \\  /    A nd           | Website:  www.openfoam.com                      |
|    \\/     M anipulation  |                                                 |
\*---------------------------------------------------------------------------*/
FoamFile
{
    version     2.0;
    format      ascii;
    arch        "LSB;label=32;scalar=64";
    class       volScalarField;
    location    "0.00014";
    object      prefDPV_H2;
}
// * * * * * * * * * * * * * * * * * * * * * * * * * * * * * * * * * * * * * //

dimensions      [1 -1 -1 0 0 0 0];

internalField   nonuniform List<scalar> 
531
(
-3.09188314e-05
-3.09188119e-05
-3.09187961e-05
-3.09188016e-05
-3.09188117e-05
-3.09188101e-05
-3.09188053e-05
-3.09188055e-05
-3.09188075e-05
-3.09188075e-05
-3.09188068e-05
-3.09188068e-05
-3.0918807e-05
-3.0918807e-05
-3.0918807e-05
-3.0918807e-05
-3.0918807e-05
-3.0918807e-05
-3.0918807e-05
-3.0918807e-05
-3.0918807e-05
-3.0918807e-05
-3.0918807e-05
-3.0918807e-05
-3.0918807e-05
-3.0918807e-05
-3.0918807e-05
-3.0918807e-05
-3.0918807e-05
-3.0918807e-05
-3.0918807e-05
-3.0918807e-05
-3.0918807e-05
-3.0918807e-05
-3.0918807e-05
-3.0918807e-05
-3.0918807e-05
-3.0918807e-05
-3.0918807e-05
-3.0918807e-05
-3.0918807e-05
-3.0918807e-05
-3.0918807e-05
-3.0918807e-05
-3.0918807e-05
-3.0918807e-05
-3.0918807e-05
-3.0918807e-05
-3.0918807e-05
-3.0918807e-05
-3.0918807e-05
-3.0918807e-05
-3.0918807e-05
-3.0918807e-05
-3.0918807e-05
-3.0918807e-05
-3.0918807e-05
-3.0918807e-05
-3.0918807e-05
-3.0918807e-05
-3.0918807e-05
-3.0918807e-05
-3.0918807e-05
-3.0918807e-05
-3.0918807e-05
-3.0918807e-05
-3.0918807e-05
-3.0918807e-05
-3.0918807e-05
-3.0918807e-05
-3.0918807e-05
-3.0918807e-05
-3.0918807e-05
-3.0918807e-05
-3.0918807e-05
-3.0918807e-05
-3.0918807e-05
-3.0918807e-05
-3.0918807e-05
-3.0918807e-05
-3.0918807e-05
-3.0918807e-05
-3.0918807e-05
-3.0918807e-05
-3.0918807e-05
-3.0918807e-05
-3.0918807e-05
-3.0918807e-05
-3.0918807e-05
-3.0918807e-05
-3.0918807e-05
-3.0918807e-05
-3.0918807e-05
-3.0918807e-05
-3.0918807e-05
-3.0918807e-05
-3.0918807e-05
-3.0918807e-05
-3.0918807e-05
-3.0918807e-05
-3.0918807e-05
-3.0918807e-05
-3.0918807e-05
-3.0918807e-05
-3.0918807e-05
-3.0918807e-05
-3.0918807e-05
-3.0918807e-05
-3.0918807e-05
-3.0918807e-05
-3.0918807e-05
-3.0918807e-05
-3.0918807e-05
-3.0918807e-05
-3.0918807e-05
-3.0918807e-05
-3.0918807e-05
-3.0918807e-05
-3.0918807e-05
-3.0918807e-05
-3.0918807e-05
-3.0918807e-05
-3.0918807e-05
-3.0918807e-05
-3.0918807e-05
-3.0918807e-05
-3.0918807e-05
-3.0918807e-05
-3.0918807e-05
-3.0918807e-05
-3.0918807e-05
-3.0918807e-05
-3.0918807e-05
-3.0918807e-05
-3.0918807e-05
-3.0918807e-05
-3.0918807e-05
-3.0918807e-05
-3.0918807e-05
-3.0918807e-05
-3.0918807e-05
-3.0918807e-05
-3.0918807e-05
-3.0918807e-05
-3.0918807e-05
-3.0918807e-05
-3.0918807e-05
-3.0918807e-05
-3.0918807e-05
-3.0918807e-05
-3.0918807e-05
-3.0918807e-05
-3.0918807e-05
-3.0918807e-05
-3.0918807e-05
-3.0918807e-05
-3.0918807e-05
-3.0918807e-05
-3.0918807e-05
-3.0918807e-05
-3.0918807e-05
-3.0918807e-05
-3.0918807e-05
-3.0918807e-05
-3.0918807e-05
-3.0918807e-05
-3.0918807e-05
-3.0918807e-05
-3.0918807e-05
-3.0918807e-05
-3.0918807e-05
-3.0918807e-05
-3.0918807e-05
-3.0918807e-05
-3.0918807e-05
-3.0918807e-05
-3.0918807e-05
-3.0918807e-05
-3.0918807e-05
-3.0918807e-05
-3.0918807e-05
-3.0918807e-05
-3.0918807e-05
-3.0918807e-05
-3.0918807e-05
-3.0918807e-05
-3.0918807e-05
-3.0918807e-05
-3.0918807e-05
-3.0918807e-05
-3.0918807e-05
-3.0918807e-05
-3.0918807e-05
-3.0918807e-05
-3.0918807e-05
-3.0918807e-05
-3.0918807e-05
-3.0918807e-05
-3.0918807e-05
-3.0918807e-05
-3.0918807e-05
-3.0918807e-05
-3.0918807e-05
-3.0918807e-05
-3.0918807e-05
-3.0918807e-05
-3.0918807e-05
-3.0918807e-05
-3.0918807e-05
-3.0918807e-05
-3.0918807e-05
-3.0918807e-05
-3.0918807e-05
-3.0918807e-05
-3.0918807e-05
-3.0918807e-05
-3.0918807e-05
-3.0918807e-05
-3.0918807e-05
-3.0918807e-05
-3.0918807e-05
-3.0918807e-05
-3.0918807e-05
-3.0918807e-05
-3.0918807e-05
-3.0918807e-05
-3.0918807e-05
-3.0918807e-05
-3.0918807e-05
-3.0918807e-05
-3.0918807e-05
-3.0918807e-05
-3.0918807e-05
-3.0918807e-05
-3.0918807e-05
-3.0918807e-05
-3.0918807e-05
-3.0918807e-05
-3.0918807e-05
-3.0918807e-05
-3.0918807e-05
-3.0918807e-05
-3.0918807e-05
-3.0918807e-05
-3.0918807e-05
-3.0918807e-05
-3.0918807e-05
-3.0918807e-05
-3.0918807e-05
-3.0918807e-05
-3.0918807e-05
-3.0918807e-05
-3.0918807e-05
-3.0918807e-05
-3.0918807e-05
-3.0918807e-05
-3.0918807e-05
-3.0918807e-05
-3.0918807e-05
-3.0918807e-05
-3.0918807e-05
-3.0918807e-05
-3.0918807e-05
-3.0918807e-05
-3.0918807e-05
-3.0918807e-05
-3.0918807e-05
-3.0918807e-05
-3.0918807e-05
-3.0918807e-05
-3.0918807e-05
-3.0918807e-05
-3.0918807e-05
-3.0918807e-05
-3.0918807e-05
-3.0918807e-05
-3.0918807e-05
-3.0918807e-05
-3.0918807e-05
-3.0918807e-05
-3.0918807e-05
-3.0918807e-05
-3.0918807e-05
-3.0918807e-05
-3.0918807e-05
-3.0918807e-05
-3.0918807e-05
-3.0918807e-05
-3.0918807e-05
-3.0918807e-05
-3.0918807e-05
-3.0918807e-05
-3.0918807e-05
-3.0918807e-05
-3.0918807e-05
-3.0918807e-05
-3.0918807e-05
-3.0918807e-05
-3.0918807e-05
-3.0918807e-05
-3.0918807e-05
-3.0918807e-05
-3.0918807e-05
-3.0918807e-05
-3.0918807e-05
-3.0918807e-05
-3.0918807e-05
-3.0918807e-05
-3.0918807e-05
-3.0918807e-05
-3.0918807e-05
-3.0918807e-05
-3.0918807e-05
-3.0918807e-05
-3.0918807e-05
-3.0918807e-05
-3.0918807e-05
-3.0918807e-05
-3.0918807e-05
-3.0918807e-05
-3.0918807e-05
-3.0918807e-05
-3.0918807e-05
-3.0918807e-05
-3.0918807e-05
-3.0918807e-05
-3.0918807e-05
-3.0918807e-05
-3.0918807e-05
-3.0918807e-05
-3.0918807e-05
-3.0918807e-05
-3.0918807e-05
-3.0918807e-05
-3.0918807e-05
-3.0918807e-05
-3.0918807e-05
-3.0918807e-05
-3.0918807e-05
-3.0918807e-05
-3.0918807e-05
-3.0918807e-05
-3.0918807e-05
-3.0918807e-05
-3.0918807e-05
-3.0918807e-05
-3.0918807e-05
-3.0918807e-05
-3.0918807e-05
-3.0918807e-05
-3.0918807e-05
-3.0918807e-05
-3.0918807e-05
-3.0918807e-05
-3.0918807e-05
-3.0918807e-05
-3.0918807e-05
-3.0918807e-05
-3.0918807e-05
-3.0918807e-05
-3.0918807e-05
-3.0918807e-05
-3.0918807e-05
-3.0918807e-05
-3.0918807e-05
-3.0918807e-05
-3.0918807e-05
-3.0918807e-05
-3.0918807e-05
-3.0918807e-05
-3.09188069e-05
-3.09188069e-05
-3.09188069e-05
-3.09188068e-05
-3.09188068e-05
-3.09188066e-05
-3.09188065e-05
-3.09188062e-05
-3.09188058e-05
-3.09188053e-05
-3.09188044e-05
-3.09188032e-05
-3.09188015e-05
-3.0918799e-05
-3.09187954e-05
-3.09187904e-05
-3.09187832e-05
-3.09187732e-05
-3.09187592e-05
-3.09187398e-05
-3.09187129e-05
-3.0918676e-05
-3.09186255e-05
-3.09185569e-05
-3.0918463e-05
-3.09183382e-05
-3.09181717e-05
-3.09179535e-05
-3.09176381e-05
-3.09172823e-05
-3.09169101e-05
-3.09160711e-05
-3.09147109e-05
-3.09147768e-05
-3.09176001e-05
-3.09151446e-05
-3.08928255e-05
-3.08915737e-05
-3.0958002e-05
-3.09681389e-05
-3.08335571e-05
-3.07822405e-05
-3.07624951e-05
-3.13674825e-05
-3.17527478e-05
-3.10368343e-05
-3.03400161e-05
-3.05858777e-05
-3.17131735e-05
-3.17184834e-05
-3.16619901e-05
-3.16742517e-05
-3.16659957e-05
-3.17217833e-05
-3.1747977e-05
-3.18235689e-05
-3.18890776e-05
-3.19860566e-05
-3.21606134e-05
-3.23640485e-05
-3.20175082e-05
-3.18712011e-05
-3.02947402e-05
-3.01239124e-05
-3.12495986e-05
-3.22059469e-05
-3.34179309e-05
-3.38999109e-05
-3.43707308e-05
-3.5879968e-05
-3.47662345e-05
-3.67456824e-05
-3.43395336e-05
-3.51053708e-05
-3.58060981e-05
-3.6234972e-05
-3.69078509e-05
-4.12033392e-05
-4.06436804e-05
-3.91233421e-05
-4.11510516e-05
-4.50787731e-05
-4.81670385e-05
-5.02749434e-05
-5.25912902e-05
-5.45558736e-05
-5.68199538e-05
-5.89248708e-05
-6.10000085e-05
-6.26393192e-05
-6.42049518e-05
-6.56426235e-05
-6.70339601e-05
-6.82866557e-05
-6.95004536e-05
-7.06188361e-05
-7.18037688e-05
-7.28996351e-05
-7.39428653e-05
-7.48993048e-05
-7.57995787e-05
-7.66701045e-05
-7.75405833e-05
-7.83315807e-05
-7.90813362e-05
-7.97520788e-05
-8.04184456e-05
-8.10241881e-05
-8.15937656e-05
-8.20267108e-05
-8.25790659e-05
-8.30420085e-05
-8.35011112e-05
-8.38811517e-05
-8.42919188e-05
-8.46529237e-05
-8.50162286e-05
-8.53535019e-05
-8.56623916e-05
-8.59817914e-05
-8.6244389e-05
-8.65401875e-05
-8.67720984e-05
-8.70452551e-05
-8.72603462e-05
-8.75045253e-05
-8.7686819e-05
-8.79229133e-05
-8.81247781e-05
-8.8377692e-05
-8.85568095e-05
-8.87817494e-05
-8.89389931e-05
-8.91408185e-05
-8.92864659e-05
-8.94666995e-05
-8.96022955e-05
-8.97637837e-05
-8.9886012e-05
-9.00380163e-05
-9.01559557e-05
-9.02890526e-05
-9.03892146e-05
-9.05031383e-05
-9.05893111e-05
-9.06925209e-05
-9.0778023e-05
-9.08792375e-05
-9.09561888e-05
-9.10471839e-05
-9.1114197e-05
-9.11988407e-05
-9.12621357e-05
-9.13390648e-05
-9.13994003e-05
-9.14653621e-05
-9.15206167e-05
-9.15810174e-05
-9.16340885e-05
-9.16898754e-05
-9.17410477e-05
)
;

boundaryField
{
    closed
    {
        type            calculated;
        value           nonuniform List<scalar> 0();
    }
    open
    {
        type            calculated;
        value           nonuniform List<scalar> 0();
    }
    sides
    {
        type            empty;
    }
    procBoundary4to3
    {
        type            processor;
        value           uniform -3.09188174e-05;
    }
    procBoundary4to5
    {
        type            processor;
        value           uniform -9.17917415e-05;
    }
}


// ************************************************************************* //
