/*--------------------------------*- C++ -*----------------------------------*\
| =========                 |                                                 |
| \\      /  F ield         | OpenFOAM: The Open Source CFD Toolbox           |
|  \\    /   O peration     | Version:  2306                                  |
|   \\  /    A nd           | Website:  www.openfoam.com                      |
|    \\/     M anipulation  |                                                 |
\*---------------------------------------------------------------------------*/
FoamFile
{
    version     2.0;
    format      ascii;
    arch        "LSB;label=32;scalar=64";
    class       volVectorField;
    location    "0.00014";
    object      U;
}
// * * * * * * * * * * * * * * * * * * * * * * * * * * * * * * * * * * * * * //

dimensions      [0 1 -1 0 0 0 0];

internalField   nonuniform List<vector> 
531
(
(-0.328896936 0 0)
(-0.318545952 0 0)
(-0.310465166 0 0)
(-0.304756445 0 0)
(-0.301476525 0 0)
(-0.300659434 0 0)
(-0.302268887 0 0)
(-0.306332335 0 0)
(-0.312775992 0 0)
(-0.321407626 0 0)
(-0.332113602 0 0)
(-0.344724192 0 0)
(-0.35904201 0 0)
(-0.374839234 0 0)
(-0.391871153 0 0)
(-0.409863621 0 0)
(-0.428594379 0 0)
(-0.447788847 0 0)
(-0.467149284 0 0)
(-0.486430294 0 0)
(-0.5053712 0 0)
(-0.523745922 0 0)
(-0.541340433 0 0)
(-0.557971095 0 0)
(-0.573477047 0 0)
(-0.5877257 0 0)
(-0.600605729 0 0)
(-0.612115563 0 0)
(-0.62223387 0 0)
(-0.630924522 0 0)
(-0.638259665 0 0)
(-0.644331537 0 0)
(-0.649266493 0 0)
(-0.653218004 0 0)
(-0.656373418 0 0)
(-0.658941091 0 0)
(-0.661149184 0 0)
(-0.663234657 0 0)
(-0.665507363 0 0)
(-0.668239755 0 0)
(-0.671662153 0 0)
(-0.676064281 0 0)
(-0.681719139 0 0)
(-0.68888436 0 0)
(-0.697796968 0 0)
(-0.708675646 0 0)
(-0.721708832 0 0)
(-0.737050672 0 0)
(-0.754816075 0 0)
(-0.775128782 0 0)
(-0.798033219 0 0)
(-0.823494028 0 0)
(-0.851480591 0 0)
(-0.881911729 0 0)
(-0.91465821 0 0)
(-0.949545012 0 0)
(-0.986359306 0 0)
(-1.02484739 0 0)
(-1.06471651 0 0)
(-1.10564358 0 0)
(-1.14732025 0 0)
(-1.18938475 0 0)
(-1.23143367 0 0)
(-1.27309557 0 0)
(-1.31399392 0 0)
(-1.35375524 0 0)
(-1.3920152 0 0)
(-1.42842854 0 0)
(-1.46267013 0 0)
(-1.49443894 0 0)
(-1.5234642 0 0)
(-1.5495259 0 0)
(-1.57242208 0 0)
(-1.59197967 0 0)
(-1.60807528 0 0)
(-1.62061596 0 0)
(-1.62954864 0 0)
(-1.63485212 0 0)
(-1.63653709 0 0)
(-1.63464208 0 0)
(-1.62923237 0 0)
(-1.62039345 0 0)
(-1.60822664 0 0)
(-1.59285031 0 0)
(-1.57441737 0 0)
(-1.55306625 0 0)
(-1.52892194 0 0)
(-1.50213706 0 0)
(-1.47286268 0 0)
(-1.44124341 0 0)
(-1.40741775 0 0)
(-1.37151919 0 0)
(-1.3336734 0 0)
(-1.29399789 0 0)
(-1.2526029 0 0)
(-1.20959668 0 0)
(-1.16507612 0 0)
(-1.1191351 0 0)
(-1.0718648 0 0)
(-1.02335104 0 0)
(-0.973687392 0 0)
(-0.922971606 0 0)
(-0.871308894 0 0)
(-0.818815104 0 0)
(-0.765621142 0 0)
(-0.711874714 0 0)
(-0.65774319 0 0)
(-0.603419044 0 0)
(-0.549127252 0 0)
(-0.495114785 0 0)
(-0.441656594 0 0)
(-0.389063096 0 0)
(-0.337673597 0 0)
(-0.287860601 0 0)
(-0.24002518 0 0)
(-0.194594061 0 0)
(-0.152015756 0 0)
(-0.112754838 0 0)
(-0.0772838667 0 0)
(-0.0460742001 0 0)
(-0.0195843166 0 0)
(0.00217421195 0 0)
(0.0185167606 0 0)
(0.0285831584 0 0)
(0.0326169894 0 0)
(0.0296285355 0 0)
(0.019080396 0 0)
(0.0019647811 0 0)
(-0.0221633696 0 0)
(-0.053925462 0 0)
(-0.0922794139 0 0)
(-0.137146846 0 0)
(-0.189046269 0 0)
(-0.246793945 0 0)
(-0.309977669 0 0)
(-0.378092792 0 0)
(-0.449779275 0 0)
(-0.525262412 0 0)
(-0.603234396 0 0)
(-0.682597188 0 0)
(-0.762914402 0 0)
(-0.842343495 0 0)
(-0.921073102 0 0)
(-0.9979249 0 0)
(-1.07176343 0 0)
(-1.14234069 0 0)
(-1.20811671 0 0)
(-1.26956809 0 0)
(-1.32600638 0 0)
(-1.37669739 0 0)
(-1.42181696 0 0)
(-1.460699 0 0)
(-1.49380576 0 0)
(-1.52077515 0 0)
(-1.54210687 0 0)
(-1.55814336 0 0)
(-1.56853793 0 0)
(-1.57405795 0 0)
(-1.57467411 0 0)
(-1.57130611 0 0)
(-1.56427839 0 0)
(-1.55372547 0 0)
(-1.54038412 0 0)
(-1.52436504 0 0)
(-1.50631703 0 0)
(-1.48637876 0 0)
(-1.46523934 0 0)
(-1.44316256 0 0)
(-1.42031942 0 0)
(-1.39720551 0 0)
(-1.37372171 0 0)
(-1.35033853 0 0)
(-1.32711185 0 0)
(-1.30420059 0 0)
(-1.28156109 0 0)
(-1.25958233 0 0)
(-1.23836258 0 0)
(-1.21744123 0 0)
(-1.19711637 0 0)
(-1.17726173 0 0)
(-1.15789123 0 0)
(-1.13892915 0 0)
(-1.12031981 0 0)
(-1.10189397 0 0)
(-1.08387765 0 0)
(-1.06627221 0 0)
(-1.04856329 0 0)
(-1.03108089 0 0)
(-1.01380168 0 0)
(-0.996600866 0 0)
(-0.979573215 0 0)
(-0.96279943 0 0)
(-0.946235871 0 0)
(-0.930257468 0 0)
(-0.915032147 0 0)
(-0.900353721 0 0)
(-0.886521274 0 0)
(-0.873689288 0 0)
(-0.861988807 0 0)
(-0.851573882 0 0)
(-0.842578895 0 0)
(-0.835062855 0 0)
(-0.829222918 0 0)
(-0.825078217 0 0)
(-0.822683097 0 0)
(-0.822065129 0 0)
(-0.82302174 0 0)
(-0.825499902 0 0)
(-0.829354687 0 0)
(-0.834413144 0 0)
(-0.840450581 0 0)
(-0.847231168 0 0)
(-0.854430384 0 0)
(-0.861742429 0 0)
(-0.868886434 0 0)
(-0.875748703 0 0)
(-0.881939089 0 0)
(-0.887001629 0 0)
(-0.89078381 0 0)
(-0.893066723 0 0)
(-0.893679367 0 0)
(-0.89247145 0 0)
(-0.88937197 0 0)
(-0.884304323 0 0)
(-0.877234711 0 0)
(-0.868255023 0 0)
(-0.857498174 0 0)
(-0.844951685 0 0)
(-0.83086826 0 0)
(-0.815411082 0 0)
(-0.798601872 0 0)
(-0.780661172 0 0)
(-0.761735764 0 0)
(-0.741989759 0 0)
(-0.72152532 0 0)
(-0.700420325 0 0)
(-0.678722463 0 0)
(-0.656436523 0 0)
(-0.633552827 0 0)
(-0.609961482 0 0)
(-0.585456612 0 0)
(-0.560076878 0 0)
(-0.533594018 0 0)
(-0.505657339 0 0)
(-0.476099085 0 0)
(-0.444656553 0 0)
(-0.411119088 0 0)
(-0.37528119 0 0)
(-0.336987103 0 0)
(-0.296138571 0 0)
(-0.252702686 0 0)
(-0.206713532 0 0)
(-0.158313721 0 0)
(-0.107757404 0 0)
(-0.0553957151 0 0)
(-0.00164394443 0 0)
(0.0529312449 0 0)
(0.107721239 0 0)
(0.161924878 0 0)
(0.214783357 0 0)
(0.265623655 0 0)
(0.313628527 0 0)
(0.358044593 0 0)
(0.398177151 0 0)
(0.433438629 0 0)
(0.463368531 0 0)
(0.487670278 0 0)
(0.506209709 0 0)
(0.51904683 0 0)
(0.526424706 0 0)
(0.528773604 0 0)
(0.526672081 0 0)
(0.520845445 0 0)
(0.512111108 0 0)
(0.501346103 0 0)
(0.489392152 0 0)
(0.477075613 0 0)
(0.464992247 0 0)
(0.453704832 0 0)
(0.443551393 0 0)
(0.434686669 0 0)
(0.426971235 0 0)
(0.419908376 0 0)
(0.412913195 0 0)
(0.405111601 0 0)
(0.39550892 0 0)
(0.382955095 0 0)
(0.366249448 0 0)
(0.344178832 0 0)
(0.315603807 0 0)
(0.279501474 0 0)
(0.235036262 0 0)
(0.181604863 0 0)
(0.118884486 0 0)
(0.0468643106 0 0)
(-0.0340861187 0 0)
(-0.123309622 0 0)
(-0.220114178 0 0)
(-0.32345412 0 0)
(-0.431888181 0 0)
(-0.544038276 0 0)
(-0.658142666 0 0)
(-0.772598787 0 0)
(-0.885383268 0 0)
(-0.995097679 0 0)
(-1.09954446 0 0)
(-1.19793354 0 0)
(-1.28896169 0 0)
(-1.37056777 0 0)
(-1.44232098 0 0)
(-1.50317923 0 0)
(-1.55280075 0 0)
(-1.59078238 0 0)
(-1.61714557 0 0)
(-1.63197974 0 0)
(-1.63574205 0 0)
(-1.62895958 0 0)
(-1.61252152 0 0)
(-1.58728162 0 0)
(-1.55454924 0 0)
(-1.51515006 0 0)
(-1.47120572 0 0)
(-1.42406895 0 0)
(-1.37471732 0 0)
(-1.32508259 0 0)
(-1.2763299 0 0)
(-1.23010274 0 0)
(-1.18764362 0 0)
(-1.15022782 0 0)
(-1.11883424 0 0)
(-1.09433516 0 0)
(-1.07728008 0 0)
(-1.06803374 0 0)
(-1.06658772 0 0)
(-1.07272604 0 0)
(-1.08577641 0 0)
(-1.10494355 0 0)
(-1.12873974 0 0)
(-1.15618903 0 0)
(-1.18548535 0 0)
(-1.21428537 0 0)
(-1.24082462 0 0)
(-1.26268795 0 0)
(-1.27787833 0 0)
(-1.28436072 0 0)
(-1.28034956 0 0)
(-1.26432417 0 0)
(-1.23518422 0 0)
(-1.19228557 0 0)
(-1.13553965 0 0)
(-1.06539861 0 0)
(-0.982926934 0 0)
(-0.889724495 0 0)
(-0.787958581 0 0)
(-0.680220484 0 0)
(-0.569545149 0 0)
(-0.459168636 0 0)
(-0.35261404 0 0)
(-0.25322845 0 0)
(-0.164777814 0 0)
(-0.0903106787 0 0)
(-0.0324223683 0 0)
(0.0073596399 0 0)
(0.0267905771 0 0)
(0.0230600564 0 0)
(-0.00491784567 0 0)
(-0.0577299456 0 0)
(-0.133229293 0 0)
(-0.227068293 0 0)
(-0.335648548 0 0)
(-0.456653356 0 0)
(-0.582718521 0 0)
(-0.704238946 0 0)
(-0.816765611 0 0)
(-0.911858578 0 0)
(-0.979603197 0 0)
(-1.0158287 0 0)
(-1.01357984 0 0)
(-0.969614101 0 0)
(-0.884580671 0 0)
(-0.757195473 0 0)
(-0.595202431 0 0)
(-0.407131754 0 0)
(-0.20113809 0 0)
(0.00609351774 0 0)
(0.200996386 0 0)
(0.367655791 0 0)
(0.486385671 0 0)
(0.546538327 0 0)
(0.538066396 0 0)
(0.45603746 0 0)
(0.302625801 0 0)
(0.085563559 0 0)
(-0.178217976 0 0)
(-0.470165902 0 0)
(-0.766156707 0 0)
(-1.04301776 0 0)
(-1.28120648 0 0)
(-1.46463342 0 0)
(-1.58781393 0 0)
(-1.64743195 0 0)
(-1.65300174 0 0)
(-1.61683554 0 0)
(-1.55212794 0 0)
(-1.47705989 0 0)
(-1.40599747 0 0)
(-1.35004238 0 0)
(-1.31703285 0 0)
(-1.30570462 0 0)
(-1.30938381 0 0)
(-1.33093403 0 0)
(-1.37782146 0 0)
(-1.4423267 0 0)
(-1.40888339 0 0)
(-1.34636483 0 0)
(-1.36040634 0 0)
(-1.3095836 0 0)
(-1.22571484 0 0)
(-1.17532557 0 0)
(-1.08995094 0 0)
(-0.954048479 0 0)
(-0.808275147 0 0)
(-0.656371945 0 0)
(-0.505359667 0 0)
(-0.364486649 0 0)
(-0.23882689 0 0)
(-0.137775569 0 0)
(-0.0727955993 0 0)
(-0.0550080874 0 0)
(-0.0746619752 0 0)
(-0.199268092 0 0)
(-0.440821785 0 0)
(-0.744341523 0 0)
(-1.05737738 0 0)
(-1.59379336 0 0)
(-2.040869 0 0)
(-3.00676696 0 0)
(-2.98933666 0 0)
(-3.69991025 0 0)
(-3.08962431 0 0)
(-0.294157366 0 0)
(0.879929 0 0)
(0.207405368 0 0)
(0.0707358981 0 0)
(0.309823644 0 0)
(0.195765084 0 0)
(0.168923808 0 0)
(-0.0483214474 0 0)
(-0.298375964 0 0)
(-0.5233452 0 0)
(-0.479044284 0 0)
(-0.521578759 0 0)
(-0.467099595 0 0)
(-0.36160663 0 0)
(-0.288756784 0 0)
(-0.199709602 0 0)
(-0.0925165918 0 0)
(0.0107915856 0 0)
(0.0996630585 0 0)
(0.188001009 0 0)
(0.273694908 0 0)
(0.364478518 0 0)
(0.458159384 0 0)
(0.555432472 0 0)
(0.654956307 0 0)
(0.757339156 0 0)
(0.863559639 0 0)
(0.973569076 0 0)
(1.0826764 0 0)
(1.1890901 0 0)
(1.29201631 0 0)
(1.39322256 0 0)
(1.49223442 0 0)
(1.58615783 0 0)
(1.67325758 0 0)
(1.75354511 0 0)
(1.82826816 0 0)
(1.89721797 0 0)
(1.95780398 0 0)
(2.01294626 0 0)
(2.06609983 0 0)
(2.11431213 0 0)
(2.1567427 0 0)
(2.19600188 0 0)
(2.23362257 0 0)
(2.27035525 0 0)
(2.30631622 0 0)
(2.3421566 0 0)
(2.37793544 0 0)
(2.41413428 0 0)
(2.44866491 0 0)
(2.48343973 0 0)
(2.52105014 0 0)
(2.5579314 0 0)
(2.59247045 0 0)
(2.62526312 0 0)
(2.65607522 0 0)
(2.68518852 0 0)
(2.71180245 0 0)
(2.7346113 0 0)
(2.75139071 0 0)
(2.76186094 0 0)
(2.76456411 0 0)
(2.75941752 0 0)
(2.74456307 0 0)
(2.71987161 0 0)
(2.68413212 0 0)
(2.63735166 0 0)
(2.57847638 0 0)
(2.50786651 0 0)
(2.42453669 0 0)
(2.32864171 0 0)
(2.21977445 0 0)
(2.09881406 0 0)
(1.9658296 0 0)
(1.82236818 0 0)
(1.66936358 0 0)
(1.5079445 0 0)
(1.33899355 0 0)
(1.16469067 0 0)
(0.986469331 0 0)
(0.806567029 0 0)
(0.626994087 0 0)
(0.44998014 0 0)
(0.277345933 0 0)
(0.111671401 0 0)
(-0.0448170125 0 0)
(-0.190337017 0 0)
(-0.322974648 0 0)
(-0.440821861 0 0)
(-0.542407855 0 0)
)
;

boundaryField
{
    closed
    {
        type            noSlip;
    }
    open
    {
        type            inletOutlet;
        inletValue      nonuniform List<vector> 0();
        value           nonuniform List<vector> 0();
    }
    sides
    {
        type            empty;
    }
    procBoundary4to3
    {
        type            processor;
        value           uniform (-0.341390677 0 0);
    }
    procBoundary4to5
    {
        type            processor;
        value           uniform (-0.626776122 0 0);
    }
}


// ************************************************************************* //
