/*--------------------------------*- C++ -*----------------------------------*\
| =========                 |                                                 |
| \\      /  F ield         | OpenFOAM: The Open Source CFD Toolbox           |
|  \\    /   O peration     | Version:  2306                                  |
|   \\  /    A nd           | Website:  www.openfoam.com                      |
|    \\/     M anipulation  |                                                 |
\*---------------------------------------------------------------------------*/
FoamFile
{
    version     2.0;
    format      ascii;
    arch        "LSB;label=32;scalar=64";
    class       volScalarField;
    location    "0.00076";
    object      H;
}
// * * * * * * * * * * * * * * * * * * * * * * * * * * * * * * * * * * * * * //

dimensions      [0 0 0 0 0 0 0];

internalField   nonuniform List<scalar> 
530
(
5.41707345e-05
5.28843638e-05
5.17328294e-05
5.05223366e-05
4.95224064e-05
4.84326607e-05
4.74734327e-05
4.6414568e-05
4.54945541e-05
4.44648783e-05
4.35517083e-05
4.24858431e-05
4.16048034e-05
4.05783098e-05
3.97959201e-05
3.88979394e-05
3.81745593e-05
3.73078511e-05
3.66201903e-05
3.57826074e-05
3.5129513e-05
3.43186224e-05
3.36993917e-05
3.29122816e-05
3.23267952e-05
3.15599602e-05
3.10087233e-05
3.02855446e-05
2.97523874e-05
2.9114773e-05
2.86461017e-05
2.80633678e-05
2.75986131e-05
2.70494293e-05
2.65898856e-05
2.60714364e-05
2.56178508e-05
2.51278911e-05
2.46806161e-05
2.42173198e-05
2.37764321e-05
2.33382756e-05
2.2903661e-05
2.24893418e-05
2.20607512e-05
2.16691362e-05
2.12462178e-05
2.08763157e-05
2.04586243e-05
2.01462838e-05
1.97913793e-05
1.95085679e-05
1.91566291e-05
1.88905227e-05
1.85409267e-05
1.82914263e-05
1.79546661e-05
1.77151033e-05
1.73819134e-05
1.71463162e-05
1.68262359e-05
1.6594945e-05
1.6287059e-05
1.60602047e-05
1.57637978e-05
1.55406116e-05
1.52534593e-05
1.50331186e-05
1.47567096e-05
1.45406273e-05
1.42744751e-05
1.40625191e-05
1.38061739e-05
1.3598203e-05
1.33512371e-05
1.31471117e-05
1.29091097e-05
1.27086968e-05
1.24883984e-05
1.23260908e-05
1.21439097e-05
1.19842646e-05
1.18083848e-05
1.16513791e-05
1.14815584e-05
1.13271676e-05
1.11631743e-05
1.10113715e-05
1.08529853e-05
1.07037397e-05
1.05507529e-05
1.04040279e-05
1.02562466e-05
1.0111999e-05
9.96924348e-06
9.82742189e-06
9.68952752e-06
9.55007197e-06
9.41688901e-06
9.27973062e-06
9.15112415e-06
9.01618515e-06
8.8920345e-06
8.75922859e-06
8.63942651e-06
8.5086595e-06
8.39311105e-06
8.26428176e-06
8.15290305e-06
8.02590421e-06
7.9186211e-06
7.79334033e-06
7.69008713e-06
7.56640778e-06
7.46712626e-06
7.34492763e-06
7.2495669e-06
7.12872333e-06
7.03724153e-06
6.91761867e-06
6.82998856e-06
6.71143458e-06
6.62765654e-06
6.50998331e-06
6.43011494e-06
6.31305557e-06
6.23727291e-06
6.12093801e-06
6.06801292e-06
5.9827517e-06
5.92930766e-06
5.84719008e-06
5.7935437e-06
5.7142829e-06
5.66062124e-06
5.58402315e-06
5.53046737e-06
5.45587146e-06
5.40083574e-06
5.3268645e-06
5.27209376e-06
5.20029999e-06
5.1458539e-06
5.07612765e-06
5.02206413e-06
4.95429888e-06
4.90067416e-06
4.83476713e-06
4.78163482e-06
4.71748777e-06
4.66489777e-06
4.60241785e-06
4.55041538e-06
4.48951578e-06
4.4381407e-06
4.37874104e-06
4.32802746e-06
4.27005391e-06
4.22003015e-06
4.1634152e-06
4.11410411e-06
4.0587861e-06
4.01020551e-06
3.95612809e-06
3.90829146e-06
3.85540291e-06
3.80832006e-06
3.75657265e-06
3.71025044e-06
3.65959985e-06
3.61379499e-06
3.56372202e-06
3.51859073e-06
3.46993425e-06
3.42587007e-06
3.37856694e-06
3.33554404e-06
3.2895357e-06
3.24752614e-06
3.20275797e-06
3.16173217e-06
3.11815304e-06
3.07808009e-06
3.03564204e-06
2.9964899e-06
2.95514794e-06
2.91688363e-06
2.87659562e-06
2.83918539e-06
2.79991197e-06
2.76332153e-06
2.72502595e-06
2.68922087e-06
2.65186883e-06
2.616815e-06
2.57999051e-06
2.54456488e-06
2.5077486e-06
2.47291652e-06
2.43675714e-06
2.40250128e-06
2.3669867e-06
2.33329145e-06
2.29840798e-06
2.26525911e-06
2.23099164e-06
2.19837588e-06
2.16470819e-06
2.13261272e-06
2.09952789e-06
2.06793985e-06
2.03542066e-06
2.0043267e-06
1.97235602e-06
1.94174191e-06
1.91030306e-06
1.88015335e-06
1.84923047e-06
1.81952817e-06
1.78910658e-06
1.75983279e-06
1.72989937e-06
1.701033e-06
1.67157637e-06
1.6566354e-06
1.64194339e-06
1.62772639e-06
1.61318497e-06
1.59909686e-06
1.58470944e-06
1.5707486e-06
1.55651712e-06
1.54268324e-06
1.52860867e-06
1.51490228e-06
1.50098498e-06
1.48740712e-06
1.47364711e-06
1.46019911e-06
1.44659617e-06
1.43327954e-06
1.41983327e-06
1.40664968e-06
1.39335944e-06
1.38031079e-06
1.36717563e-06
1.35426418e-06
1.34128263e-06
1.32851116e-06
1.31568118e-06
1.30305314e-06
1.29037201e-06
1.27789162e-06
1.26535608e-06
1.25302828e-06
1.24063473e-06
1.22796223e-06
1.21443112e-06
1.2011482e-06
1.18787089e-06
1.17480998e-06
1.16177532e-06
1.14893579e-06
1.13613453e-06
1.12351477e-06
1.11093924e-06
1.09853687e-06
1.08618064e-06
1.07399272e-06
1.06185028e-06
1.04987346e-06
1.03794013e-06
1.02617068e-06
1.01444259e-06
1.00287635e-06
9.91350605e-07
9.79982737e-07
9.68657473e-07
9.5748239e-07
9.46356625e-07
9.35522641e-07
9.24828391e-07
9.14270918e-07
9.0375197e-07
8.93373673e-07
8.8302966e-07
8.72826175e-07
8.62655587e-07
8.52623637e-07
8.42624236e-07
8.32761313e-07
8.22930543e-07
8.13234566e-07
8.03569844e-07
7.94038916e-07
7.84537778e-07
7.75170063e-07
7.65830209e-07
7.5662389e-07
7.47443181e-07
7.38396455e-07
7.29372893e-07
7.20483985e-07
7.11615687e-07
7.02882861e-07
6.94168041e-07
6.85589605e-07
6.77026556e-07
6.68600865e-07
6.60187954e-07
6.51913406e-07
6.43649062e-07
6.35524095e-07
6.27406807e-07
6.19429894e-07
6.11458202e-07
6.03627846e-07
5.95800339e-07
5.88115069e-07
5.80430379e-07
5.72888747e-07
5.65345546e-07
5.57946119e-07
5.50543112e-07
5.43284475e-07
5.36020399e-07
5.28901146e-07
5.21774765e-07
5.147935e-07
5.07803599e-07
5.00958932e-07
4.94104316e-07
4.87394862e-07
4.80674351e-07
4.74098728e-07
4.67511154e-07
4.61067979e-07
4.54612183e-07
4.48300073e-07
4.41974902e-07
4.35792473e-07
4.29596777e-07
4.23542639e-07
4.17475267e-07
4.11548028e-07
4.05607828e-07
3.99806089e-07
3.93991904e-07
3.88314262e-07
3.82624926e-07
3.7706997e-07
3.71504307e-07
3.66070622e-07
3.60627444e-07
3.55313606e-07
3.49991712e-07
3.44796289e-07
3.39594462e-07
3.34516017e-07
3.2943302e-07
3.24470109e-07
3.19504686e-07
3.14655856e-07
3.09806733e-07
3.05070525e-07
3.00336402e-07
2.95711352e-07
2.91090906e-07
2.86575543e-07
2.82067427e-07
2.77660273e-07
2.73263115e-07
2.68962689e-07
2.64675088e-07
2.60479905e-07
2.56300435e-07
2.52209004e-07
2.48136212e-07
2.44147041e-07
2.40179444e-07
2.36291037e-07
2.32427129e-07
2.28637989e-07
2.24876232e-07
2.21184863e-07
2.17523695e-07
2.13928598e-07
2.1036643e-07
2.06866109e-07
2.03401327e-07
1.99994288e-07
1.96625254e-07
1.93310004e-07
1.90035058e-07
1.86810107e-07
1.83627566e-07
1.80491431e-07
1.77399593e-07
1.74350794e-07
1.71347938e-07
1.68385001e-07
1.6546939e-07
1.62590849e-07
1.59760733e-07
1.56965125e-07
1.54218742e-07
1.51504614e-07
1.48840192e-07
1.46206097e-07
1.43621857e-07
1.41066358e-07
1.38560515e-07
1.36082181e-07
1.33652951e-07
1.31250359e-07
1.28895955e-07
1.26567691e-07
1.2428633e-07
1.22030988e-07
1.19820893e-07
1.17637074e-07
1.15496476e-07
1.13382787e-07
1.11309926e-07
1.09264984e-07
1.07258114e-07
1.0528054e-07
1.03337931e-07
1.01426352e-07
9.95462904e-08
9.76993397e-08
9.58801335e-08
9.40964483e-08
9.23364272e-08
9.06146491e-08
8.89121677e-08
8.72509413e-08
8.5604381e-08
8.40023537e-08
8.24101249e-08
8.08659462e-08
7.93264901e-08
7.78388104e-08
7.63506014e-08
7.49180717e-08
7.34796188e-08
7.21008899e-08
7.07107387e-08
6.93844604e-08
6.80411951e-08
6.67660155e-08
6.54682602e-08
6.4241534e-08
6.29406189e-08
6.1634099e-08
6.01979627e-08
5.87698965e-08
5.719398e-08
5.56455138e-08
5.39283262e-08
5.22650138e-08
5.04093363e-08
4.86421966e-08
4.66565787e-08
4.48029371e-08
4.2703595e-08
4.07873509e-08
3.86006009e-08
3.66513015e-08
3.44167796e-08
3.24666413e-08
3.02415358e-08
2.83193797e-08
2.61837315e-08
2.43049017e-08
2.23668866e-08
2.05217427e-08
1.89130985e-08
1.7092824e-08
1.58925917e-08
1.43057287e-08
1.33250465e-08
1.20911727e-08
1.11538486e-08
1.03149824e-08
9.63022919e-09
9.02850328e-09
9.02807358e-09
9.02778668e-09
9.02761965e-09
9.02752685e-09
9.02747862e-09
9.02745524e-09
9.02744472e-09
9.0274407e-09
9.02743897e-09
9.02743812e-09
9.02743786e-09
9.02743777e-09
9.02743775e-09
9.02743775e-09
9.02743775e-09
9.02743774e-09
9.02743774e-09
9.02743774e-09
9.02743774e-09
9.02743774e-09
9.02743774e-09
9.02743774e-09
9.02743774e-09
9.02743774e-09
9.02743774e-09
9.02743774e-09
9.02743774e-09
9.02743774e-09
9.02743774e-09
9.02743774e-09
9.02743774e-09
9.02743774e-09
9.02743774e-09
9.02743774e-09
9.02743774e-09
9.02743774e-09
9.02743774e-09
9.02743774e-09
9.02743774e-09
9.02743774e-09
9.02743774e-09
9.02743774e-09
9.02743774e-09
)
;

boundaryField
{
    closed
    {
        type            calculated;
        value           nonuniform List<scalar> 0();
    }
    open
    {
        type            calculated;
        value           uniform 9.02743774e-09;
    }
    sides
    {
        type            empty;
    }
    procBoundary5to4
    {
        type            processor;
        value           uniform 5.53734875e-05;
    }
}


// ************************************************************************* //
