/*--------------------------------*- C++ -*----------------------------------*\
| =========                 |                                                 |
| \\      /  F ield         | OpenFOAM: The Open Source CFD Toolbox           |
|  \\    /   O peration     | Version:  2306                                  |
|   \\  /    A nd           | Website:  www.openfoam.com                      |
|    \\/     M anipulation  |                                                 |
\*---------------------------------------------------------------------------*/
FoamFile
{
    version     2.0;
    format      ascii;
    arch        "LSB;label=32;scalar=64";
    class       volScalarField;
    location    "0.00124";
    object      prefDZ_T;
}
// * * * * * * * * * * * * * * * * * * * * * * * * * * * * * * * * * * * * * //

dimensions      [1 -1 -1 -1 0 0 0];

internalField   nonuniform List<scalar> 
531
(
-1.1912116e-09
-1.18911466e-09
-1.2013691e-09
-1.22918425e-09
-1.23257125e-09
-1.19069905e-09
-1.18892593e-09
-1.20094138e-09
-1.22924349e-09
-1.23308312e-09
-1.19022748e-09
-1.18855441e-09
-1.20030049e-09
-1.22961459e-09
-1.2338671e-09
-1.18927634e-09
-1.18765347e-09
-1.19682358e-09
-1.22819774e-09
-1.22781515e-09
-1.20568688e-09
-1.19019575e-09
-1.20118246e-09
-1.22926515e-09
-1.230086e-09
-1.18904263e-09
-1.18813424e-09
-1.20152212e-09
-1.22859104e-09
-1.22654839e-09
-1.2255648e-09
-1.19037727e-09
-1.1881444e-09
-1.18795313e-09
-1.19070399e-09
-1.23044553e-09
-1.22740266e-09
-1.21654808e-09
-1.18867182e-09
-1.18783069e-09
-1.20144206e-09
-1.22900222e-09
-1.23328747e-09
-1.1892258e-09
-1.18809853e-09
-1.2032177e-09
-1.22924034e-09
-1.21584619e-09
-1.19070266e-09
-1.20469393e-09
-1.22852401e-09
-1.21149214e-09
-1.19010143e-09
-1.20283023e-09
-1.22813684e-09
-1.22738053e-09
-1.1889413e-09
-1.18834915e-09
-1.20661416e-09
-1.22806052e-09
-1.22660766e-09
-1.18976184e-09
-1.18809916e-09
-1.18802006e-09
-1.20143711e-09
-1.22717662e-09
-1.22833263e-09
-1.19336454e-09
-1.1886326e-09
-1.18888832e-09
-1.22128634e-09
-1.22686314e-09
-1.21128258e-09
-1.19111238e-09
-1.20354083e-09
-1.22644933e-09
-1.22912648e-09
-1.19048734e-09
-1.18907591e-09
-1.18871809e-09
-1.18892582e-09
-1.21612953e-09
-1.22684117e-09
-1.23247515e-09
-1.18950333e-09
-1.18891248e-09
-1.20994808e-09
-1.22734867e-09
-1.23444576e-09
-1.18946608e-09
-1.1893383e-09
-1.21453978e-09
-1.22667525e-09
-1.22973347e-09
-1.19060446e-09
-1.18938491e-09
-1.18915217e-09
-1.18953042e-09
-1.21275942e-09
-1.22685284e-09
-1.23023073e-09
-1.19006412e-09
-1.18907927e-09
-1.20679225e-09
-1.22809882e-09
-1.23451024e-09
-1.18833155e-09
-1.1881824e-09
-1.21244411e-09
-1.22972188e-09
-1.20455355e-09
-1.19014185e-09
-1.21424227e-09
-1.22889061e-09
-1.21050196e-09
-1.18798917e-09
-1.18864244e-09
-1.21574524e-09
-1.22929244e-09
-1.21245647e-09
-1.18822456e-09
-1.18896127e-09
-1.22045758e-09
-1.22978685e-09
-1.20736517e-09
-1.18822575e-09
-1.18915878e-09
-1.22514604e-09
-1.23017865e-09
-1.20338053e-09
-1.18824496e-09
-1.1893793e-09
-1.22951146e-09
-1.23041168e-09
-1.2007167e-09
-1.18829709e-09
-1.18964418e-09
-1.23403861e-09
-1.23059268e-09
-1.19880517e-09
-1.18837193e-09
-1.190102e-09
-1.2313482e-09
-1.23212835e-09
-1.19214435e-09
-1.19160876e-09
-1.23124412e-09
-1.23084914e-09
-1.1949487e-09
-1.18826484e-09
-1.19179703e-09
-1.23019083e-09
-1.23319287e-09
-1.19157916e-09
-1.19173845e-09
-1.23041761e-09
-1.23096346e-09
-1.19349756e-09
-1.18802198e-09
-1.19121958e-09
-1.22980567e-09
-1.23051606e-09
-1.19466403e-09
-1.18797498e-09
-1.18817397e-09
-1.19063563e-09
-1.22997726e-09
-1.2302938e-09
-1.19481291e-09
-1.18854615e-09
-1.19479753e-09
-1.22803776e-09
-1.23264317e-09
-1.1907442e-09
-1.19159505e-09
-1.22905177e-09
-1.22992009e-09
-1.19378126e-09
-1.18797781e-09
-1.19224042e-09
-1.22901896e-09
-1.23146016e-09
-1.19036561e-09
-1.19057539e-09
-1.22964332e-09
-1.22902068e-09
-1.19801658e-09
-1.18801919e-09
-1.1915273e-09
-1.22923984e-09
-1.22973625e-09
-1.18982495e-09
-1.18943328e-09
-1.23357597e-09
-1.22914214e-09
-1.19773784e-09
-1.18703806e-09
-1.18939573e-09
-1.22991973e-09
-1.22857349e-09
-1.19730824e-09
-1.18790601e-09
-1.19049743e-09
-1.22988343e-09
-1.22830263e-09
-1.19760203e-09
-1.18815288e-09
-1.19042303e-09
-1.23028738e-09
-1.2277032e-09
-1.19861295e-09
-1.18825229e-09
-1.18804561e-09
-1.1929026e-09
-1.22972342e-09
-1.22744623e-09
-1.19747862e-09
-1.18840884e-09
-1.19010369e-09
-1.2320389e-09
-1.22794279e-09
-1.20487736e-09
-1.18906959e-09
-1.19081382e-09
-1.23180083e-09
-1.22783725e-09
-1.20124461e-09
-1.18888451e-09
-1.19092127e-09
-1.23201704e-09
-1.22796498e-09
-1.19841357e-09
-1.18803357e-09
-1.18976075e-09
-1.2332311e-09
-1.2304942e-09
-1.19202413e-09
-1.19031072e-09
-1.23083116e-09
-1.22882623e-09
-1.1980602e-09
-1.1879015e-09
-1.18944309e-09
-1.23304782e-09
-1.22811201e-09
-1.20021536e-09
-1.18869938e-09
-1.19069995e-09
-1.23160074e-09
-1.22757358e-09
-1.19816502e-09
-1.18870364e-09
-1.190892e-09
-1.23123588e-09
-1.22756696e-09
-1.19586701e-09
-1.18859958e-09
-1.18896924e-09
-1.18906604e-09
-1.19957468e-09
-1.22910572e-09
-1.22785251e-09
-1.19342608e-09
-1.19025874e-09
-1.23412499e-09
-1.22804916e-09
-1.20030235e-09
-1.18819787e-09
-1.18935852e-09
-1.23116883e-09
-1.22787418e-09
-1.19268527e-09
-1.19055462e-09
-1.23261474e-09
-1.22753876e-09
-1.19475283e-09
-1.1873073e-09
-1.18940094e-09
-1.2303189e-09
-1.2274177e-09
-1.1949577e-09
-1.18720011e-09
-1.18889037e-09
-1.23017676e-09
-1.22765141e-09
-1.19129879e-09
-1.18972739e-09
-1.23172531e-09
-1.22767569e-09
-1.19055328e-09
-1.18962854e-09
-1.23119415e-09
-1.22744464e-09
-1.1947465e-09
-1.18777996e-09
-1.18983791e-09
-1.22918994e-09
-1.2271657e-09
-1.19494465e-09
-1.18751147e-09
-1.18961192e-09
-1.22923084e-09
-1.22719539e-09
-1.19507925e-09
-1.18741999e-09
-1.18937709e-09
-1.2294082e-09
-1.22734763e-09
-1.19494149e-09
-1.1872697e-09
-1.18846805e-09
-1.22991346e-09
-1.22716444e-09
-1.19263855e-09
-1.19022919e-09
-1.23150863e-09
-1.22741673e-09
-1.19399026e-09
-1.18704443e-09
-1.1878041e-09
-1.23061774e-09
-1.2274149e-09
-1.19267512e-09
-1.18994013e-09
-1.23256131e-09
-1.22760745e-09
-1.19480188e-09
-1.18692006e-09
-1.18723442e-09
-1.23135048e-09
-1.22768328e-09
-1.19262646e-09
-1.18908161e-09
-1.23417278e-09
-1.2275285e-09
-1.19165374e-09
-1.18926308e-09
-1.23425749e-09
-1.22782e-09
-1.19645915e-09
-1.18725391e-09
-1.18703652e-09
-1.23173497e-09
-1.22732003e-09
-1.19428705e-09
-1.1899379e-09
-1.23387371e-09
-1.2273406e-09
-1.19848633e-09
-1.18766981e-09
-1.18769549e-09
-1.23125676e-09
-1.22771683e-09
-1.19953593e-09
-1.18738317e-09
-1.18704683e-09
-1.23280345e-09
-1.22751004e-09
-1.19328619e-09
-1.18893896e-09
-1.23472236e-09
-1.22744523e-09
-1.19164579e-09
-1.18886654e-09
-1.23461812e-09
-1.22782452e-09
-1.19805091e-09
-1.18730184e-09
-1.18694652e-09
-1.23243603e-09
-1.22715123e-09
-1.19433633e-09
-1.18997397e-09
-1.23285296e-09
-1.22713474e-09
-1.19973106e-09
-1.18773191e-09
-1.18766853e-09
-1.23114585e-09
-1.22740489e-09
-1.20222161e-09
-1.18801751e-09
-1.18790566e-09
-1.23091397e-09
-1.22725445e-09
-1.20296746e-09
-1.18813436e-09
-1.18803574e-09
-1.23096936e-09
-1.22725621e-09
-1.20347669e-09
-1.18832747e-09
-1.18796903e-09
-1.23139014e-09
-1.22682694e-09
-1.20108064e-09
-1.18906799e-09
-1.18727938e-09
-1.18695652e-09
-1.2324814e-09
-1.2264825e-09
-1.22713635e-09
-1.20104693e-09
-1.18755807e-09
-1.18723696e-09
-1.23222412e-09
-1.22761174e-09
-1.20168071e-09
-1.18760448e-09
-1.18720524e-09
-1.23241534e-09
-1.22702024e-09
-1.19360757e-09
-1.18943865e-09
-1.23257242e-09
-1.22737349e-09
-1.19894533e-09
-1.18717961e-09
-1.18671938e-09
-1.23304612e-09
-1.22730847e-09
-1.19283297e-09
-1.18860139e-09
-1.233674e-09
-1.22693517e-09
-1.19179732e-09
-1.18860092e-09
-1.23390565e-09
-1.22697972e-09
-1.19168001e-09
-1.18884931e-09
-1.23353707e-09
-1.22765642e-09
-1.19915288e-09
-1.18704481e-09
-1.18655089e-09
-1.23375628e-09
-1.22719208e-09
-1.1940822e-09
-1.18963907e-09
-1.23315347e-09
-1.22712833e-09
-1.20198951e-09
-1.18798372e-09
-1.18774406e-09
-1.2334957e-09
-1.22763275e-09
-1.20522718e-09
-1.18800213e-09
-1.18765869e-09
-1.23374547e-09
-1.22771771e-09
-1.20348463e-09
-1.18744535e-09
-1.18712789e-09
-1.23362168e-09
-1.22796271e-09
-1.20200059e-09
-1.18699255e-09
-1.18644117e-09
-1.23357869e-09
-1.22721792e-09
-1.19332255e-09
-1.18938633e-09
-1.23248972e-09
-1.22741866e-09
-1.20104543e-09
-1.18655081e-09
-1.18642951e-09
-1.23279118e-09
-1.22674545e-09
-1.22757125e-09
-1.20150019e-09
-1.18977473e-09
-1.18728685e-09
-1.1872057e-09
-1.23236099e-09
-1.22798495e-09
-1.203079e-09
-1.18772505e-09
-1.18731322e-09
-1.23208277e-09
-1.2269232e-09
-1.19379797e-09
-1.18989249e-09
-1.23080928e-09
-1.22717723e-09
-1.20067052e-09
-1.18694952e-09
-1.18663605e-09
-1.23198103e-09
-1.22693679e-09
-1.19241289e-09
-1.18911158e-09
-1.23084134e-09
-1.22627211e-09
-1.19197991e-09
-1.18941384e-09
-1.2304255e-09
-1.22709321e-09
-1.2009841e-09
-1.18700401e-09
-1.18709311e-09
-1.23122868e-09
-1.22777219e-09
-1.20363091e-09
-1.18732367e-09
-1.18741034e-09
-1.23107152e-09
-1.22766368e-09
-1.20508788e-09
-1.18758356e-09
-1.18768363e-09
-1.23088676e-09
-1.22758673e-09
-1.20563484e-09
-1.18763799e-09
-1.18774329e-09
-1.23067676e-09
-1.22756098e-09
-1.20563398e-09
-1.18757826e-09
-1.18768238e-09
-1.23049853e-09
-1.22755576e-09
-1.2056988e-09
-1.18753532e-09
-1.18763994e-09
-1.23035518e-09
-1.2275461e-09
-1.20598143e-09
)
;

boundaryField
{
    closed
    {
        type            calculated;
        value           nonuniform List<scalar> 0();
    }
    open
    {
        type            calculated;
        value           nonuniform List<scalar> 0();
    }
    sides
    {
        type            empty;
    }
    procBoundary1to0
    {
        type            processor;
        value           uniform -1.2332191e-09;
    }
    procBoundary1to2
    {
        type            processor;
        value           uniform -1.18753923e-09;
    }
}


// ************************************************************************* //
