/*--------------------------------*- C++ -*----------------------------------*\
| =========                 |                                                 |
| \\      /  F ield         | OpenFOAM: The Open Source CFD Toolbox           |
|  \\    /   O peration     | Version:  2306                                  |
|   \\  /    A nd           | Website:  www.openfoam.com                      |
|    \\/     M anipulation  |                                                 |
\*---------------------------------------------------------------------------*/
FoamFile
{
    version     2.0;
    format      ascii;
    arch        "LSB;label=32;scalar=64";
    class       volScalarField;
    location    "0.00124";
    object      T;
}
// * * * * * * * * * * * * * * * * * * * * * * * * * * * * * * * * * * * * * //

dimensions      [0 0 0 1 0 0 0];

internalField   nonuniform List<scalar> 
531
(
329.038059
324.910328
329.281217
339.571225
338.463638
328.993214
324.63216
329.26593
339.61439
338.319905
328.184082
323.928227
329.159795
339.545002
337.852715
326.495911
322.293648
328.527223
340.087419
340.01728
329.983366
327.780788
329.29057
339.709748
336.556293
325.902168
323.229303
329.068155
339.560594
340.278967
335.047742
328.220456
324.118087
323.495323
328.776333
339.401263
340.118207
332.436012
325.78164
323.289524
329.380048
339.756661
337.69001
326.211747
323.366706
329.513479
339.628527
332.204069
328.772674
329.749105
340.012898
331.092521
327.865029
329.515378
340.14232
335.685339
325.861083
324.239773
330.174323
339.890194
335.423091
327.171724
324.19901
324.560025
329.355936
340.353156
339.978908
328.956621
324.720621
326.408218
333.753422
340.22369
331.121482
328.969615
329.672361
340.549383
340.203119
328.962894
325.585879
325.595855
325.971939
332.306121
340.150506
337.404242
327.255808
325.197592
330.8075
339.96205
338.306404
326.840837
326.021617
331.888998
340.124307
339.777157
329.04077
325.996284
326.434585
326.88513
331.475967
340.090731
339.43804
327.86396
325.555845
330.246035
339.791993
338.320481
324.703521
323.891893
331.354656
339.271733
329.670051
328.254329
331.796577
339.659115
330.852677
324.364792
325.499308
332.217892
339.330773
331.322531
324.425349
325.924273
333.505833
339.091872
330.187974
324.315505
326.532377
334.916548
338.937341
329.517391
324.194225
327.11618
336.327942
338.852076
329.219048
324.083692
327.671774
337.881266
338.77992
329.092048
324.031252
328.74539
339.040189
338.421819
329.917566
329.254852
339.365828
338.799428
329.052536
323.774299
328.758913
339.492853
338.19474
329.341646
329.360755
339.677116
338.872563
329.140062
323.334863
328.728425
339.705952
339.150665
329.375717
323.827401
324.118575
329.100438
339.774607
339.14237
329.118248
324.413881
329.006985
340.032886
338.750607
328.333617
329.599001
340.162304
339.27727
329.093437
323.287606
329.018352
339.821817
339.258603
327.478428
328.019724
339.973495
339.480362
329.047598
323.600031
329.009275
339.760164
339.831794
326.449179
326.071864
338.574141
339.532429
329.099456
321.999129
327.014996
339.6983
339.859999
329.048794
323.480382
328.787851
339.585705
339.923557
329.016791
323.97118
328.826083
339.31497
340.253468
329.211205
324.864712
324.569104
329.188642
339.282188
340.194592
328.934965
324.312604
327.813166
338.767533
339.974563
329.880293
325.71237
329.145622
338.793103
340.062385
329.36329
325.313871
329.28053
338.711246
340.128539
329.024392
323.564664
326.913684
338.325061
339.750285
329.066118
327.572151
336.856639
339.843422
329.065351
323.266471
326.504364
338.507857
340.098791
329.294121
325.012884
328.982392
338.814917
340.264157
329.0236
325.060928
329.147768
338.802177
340.355588
328.906763
325.275447
326.22719
325.96088
329.213499
339.243359
340.417739
329.074647
327.799254
338.006593
339.787799
329.432222
323.921632
326.337901
338.921493
340.43674
329.158353
328.376793
338.613832
340.01769
329.035945
322.664751
326.622461
339.36011
340.179744
329.028947
322.500995
325.762509
339.245771
340.449906
329.347787
327.048298
338.989673
340.344335
328.610431
326.893315
339.297204
340.038811
329.074759
323.516469
327.432395
339.614441
340.194775
329.029342
323.181263
327.12236
339.670976
340.186646
329.045643
322.986212
326.654171
339.626794
340.104978
329.095808
322.557423
325.132128
339.364731
340.451573
329.434009
328.007665
339.294724
339.968324
329.222344
322.000923
323.812117
339.162116
340.323861
329.517192
327.453399
339.006474
339.879544
329.285488
321.669938
322.733261
338.922621
340.205848
329.725318
326.113615
338.483813
340.25612
329.710232
326.271454
338.53309
339.804701
329.398276
322.209705
322.389863
338.860313
340.235121
329.604786
327.61652
338.670802
339.930973
329.490266
323.172835
323.329996
339.17524
339.755236
329.446223
322.456775
322.666433
338.579
340.178361
329.814879
326.017366
338.26895
340.250026
329.609034
325.677262
338.513563
339.747416
329.488291
322.19196
322.499562
338.772588
340.209328
329.760299
327.738881
339.133692
339.945006
329.5854
323.332373
323.466989
339.318262
339.798306
329.718498
323.881469
323.941063
339.382517
339.830163
329.800568
324.140927
324.15372
339.385334
339.783363
329.828116
324.289191
324.31678
339.084558
340.091197
329.728561
326.304035
322.494135
322.555089
339.10135
339.963655
339.599725
329.4732
323.038973
323.078339
338.914684
339.743242
329.674619
323.028694
323.086093
338.762814
340.145918
329.613679
326.818856
339.228982
339.863666
329.439796
322.184714
322.261569
338.487811
340.118845
329.903371
325.63128
338.74381
340.306441
329.754608
325.660865
338.630552
340.230556
329.725234
325.755959
338.866062
339.752572
329.507477
321.857002
321.958659
338.360253
340.053019
329.748682
327.107463
338.91285
339.855433
329.771873
323.610475
323.637595
338.515907
339.586757
330.17141
323.517719
323.573089
338.539391
339.642248
329.951825
322.635455
322.707153
338.708411
339.598749
329.740747
321.706543
321.898835
338.690426
340.039126
329.90989
326.624325
339.228409
339.786566
329.67136
321.285836
321.621989
339.09068
339.792154
339.341646
329.654629
326.944602
322.386613
322.659827
339.330799
339.426537
329.86732
322.727337
323.347329
339.176544
340.020348
329.973487
327.542678
339.786627
339.765353
329.553837
321.720591
322.493201
339.375773
340.230102
330.143935
326.667052
339.748532
340.317385
329.956486
326.918394
339.949052
339.840757
329.645453
321.991912
322.737239
339.717609
339.586121
329.948929
322.362339
323.157336
339.699176
339.554044
330.14272
322.810516
323.550754
339.752217
339.556741
330.21392
322.962775
323.631414
339.819097
339.573028
330.201653
322.935104
323.533141
339.871549
339.587599
330.199449
322.924016
323.459191
339.904122
339.594427
330.232844
)
;

boundaryField
{
    closed
    {
        type            fixedValue;
        value           nonuniform List<scalar> 0();
    }
    open
    {
        type            zeroGradient;
    }
    sides
    {
        type            empty;
    }
    procBoundary1to0
    {
        type            processor;
        value           uniform 338.042118;
    }
    procBoundary1to2
    {
        type            processor;
        value           uniform 322.973133;
    }
}


// ************************************************************************* //
