/*--------------------------------*- C++ -*----------------------------------*\
| =========                 |                                                 |
| \\      /  F ield         | OpenFOAM: The Open Source CFD Toolbox           |
|  \\    /   O peration     | Version:  2306                                  |
|   \\  /    A nd           | Website:  www.openfoam.com                      |
|    \\/     M anipulation  |                                                 |
\*---------------------------------------------------------------------------*/
FoamFile
{
    version     2.0;
    format      ascii;
    arch        "LSB;label=32;scalar=64";
    class       volVectorField;
    location    "0.00124";
    object      U;
}
// * * * * * * * * * * * * * * * * * * * * * * * * * * * * * * * * * * * * * //

dimensions      [0 1 -1 0 0 0 0];

internalField   nonuniform List<vector> 
531
(
(-1.02041804 0 0)
(-1.03542328 0 0)
(-1.04010011 0 0)
(-1.08393725 0 0)
(-1.09160481 0 0)
(-1.09631386 0 0)
(-1.14073867 0 0)
(-1.14500699 0 0)
(-1.18310907 0 0)
(-1.1758246 0 0)
(-1.16737375 0 0)
(-1.19792764 0 0)
(-1.19555388 0 0)
(-1.22986908 0 0)
(-1.21577438 0 0)
(-1.2076165 0 0)
(-1.22834424 0 0)
(-1.22298758 0 0)
(-1.24668402 0 0)
(-1.2468818 0 0)
(-1.221116 0 0)
(-1.21039949 0 0)
(-1.17719664 0 0)
(-1.18010686 0 0)
(-1.14367909 0 0)
(-1.11963695 0 0)
(-1.1158081 0 0)
(-1.08594712 0 0)
(-1.07427171 0 0)
(-1.04672752 0 0)
(-1.00647535 0 0)
(-0.980034327 0 0)
(-0.962274204 0 0)
(-0.927282648 0 0)
(-0.908232272 0 0)
(-0.868120207 0 0)
(-0.804912477 0 0)
(-0.764520234 0 0)
(-0.736035088 0 0)
(-0.698130852 0 0)
(-0.653627606 0 0)
(-0.619838721 0 0)
(-0.539541819 0 0)
(-0.48131903 0 0)
(-0.470356514 0 0)
(-0.429764083 0 0)
(-0.378878139 0 0)
(-0.330716577 0 0)
(-0.296466879 0 0)
(-0.260866246 0 0)
(-0.208465284 0 0)
(-0.162556911 0 0)
(-0.138812135 0 0)
(-0.116839575 0 0)
(-0.0808721317 0 0)
(-0.0150500563 0 0)
(0.0283460503 0 0)
(0.0314213094 0 0)
(0.0452052753 0 0)
(0.0594482925 0 0)
(0.107484487 0 0)
(0.143695361 0 0)
(0.139825221 0 0)
(0.146166858 0 0)
(0.148323965 0 0)
(0.153482758 0 0)
(0.169153697 0 0)
(0.168095156 0 0)
(0.144661714 0 0)
(0.121725089 0 0)
(0.113453808 0 0)
(0.114265541 0 0)
(0.0946286212 0 0)
(0.0651124915 0 0)
(0.0311939958 0 0)
(-0.00923062909 0 0)
(-0.0301043331 0 0)
(-0.0658957527 0 0)
(-0.133978874 0 0)
(-0.189645249 0 0)
(-0.244771616 0 0)
(-0.310354964 0 0)
(-0.399099441 0 0)
(-0.448665806 0 0)
(-0.497887256 0 0)
(-0.605612586 0 0)
(-0.699864069 0 0)
(-0.830223243 0 0)
(-0.911666505 0 0)
(-0.978294291 0 0)
(-1.11647096 0 0)
(-1.21505202 0 0)
(-1.33496862 0 0)
(-1.45826191 0 0)
(-1.54563765 0 0)
(-1.6649465 0 0)
(-1.76897591 0 0)
(-1.85083838 0 0)
(-1.92959557 0 0)
(-2.06491896 0 0)
(-2.20820979 0 0)
(-2.30169505 0 0)
(-2.39217813 0 0)
(-2.44941394 0 0)
(-2.58683397 0 0)
(-2.68160908 0 0)
(-2.70538802 0 0)
(-2.7633837 0 0)
(-2.76691917 0 0)
(-2.83299919 0 0)
(-2.83652934 0 0)
(-2.8101227 0 0)
(-2.74808926 0 0)
(-2.75922723 0 0)
(-2.75830809 0 0)
(-2.70666907 0 0)
(-2.61910313 0 0)
(-2.52178856 0 0)
(-2.47924776 0 0)
(-2.44948603 0 0)
(-2.37127066 0 0)
(-2.26670777 0 0)
(-2.14332567 0 0)
(-2.05605475 0 0)
(-1.99340505 0 0)
(-1.90977889 0 0)
(-1.81691995 0 0)
(-1.6912295 0 0)
(-1.58745291 0 0)
(-1.52190959 0 0)
(-1.45400689 0 0)
(-1.38816984 0 0)
(-1.27075251 0 0)
(-1.16463777 0 0)
(-1.10977271 0 0)
(-1.06400078 0 0)
(-1.02779738 0 0)
(-0.916479931 0 0)
(-0.809955579 0 0)
(-0.768612554 0 0)
(-0.738506515 0 0)
(-0.707923473 0 0)
(-0.640001008 0 0)
(-0.584757757 0 0)
(-0.550308635 0 0)
(-0.535282425 0 0)
(-0.475536535 0 0)
(-0.420464501 0 0)
(-0.393481824 0 0)
(-0.383360263 0 0)
(-0.372304952 0 0)
(-0.33317069 0 0)
(-0.287238445 0 0)
(-0.276464091 0 0)
(-0.290019106 0 0)
(-0.24064624 0 0)
(-0.195132568 0 0)
(-0.17945851 0 0)
(-0.184804587 0 0)
(-0.186251808 0 0)
(-0.150250673 0 0)
(-0.104715647 0 0)
(-0.081866892 0 0)
(-0.0728018819 0 0)
(-0.0586561589 0 0)
(-0.0484346638 0 0)
(-0.000640378405 0 0)
(0.0533420118 0 0)
(0.0792303259 0 0)
(0.0881435781 0 0)
(0.114183034 0 0)
(0.140560657 0 0)
(0.203695151 0 0)
(0.251993534 0 0)
(0.264128609 0 0)
(0.333899714 0 0)
(0.388033148 0 0)
(0.420246981 0 0)
(0.439759233 0 0)
(0.489725886 0 0)
(0.552035668 0 0)
(0.636228151 0 0)
(0.700251003 0 0)
(0.70060134 0 0)
(0.763632849 0 0)
(0.841267983 0 0)
(0.877416809 0 0)
(0.921278072 0 0)
(0.999145013 0 0)
(1.0927497 0 0)
(1.16722485 0 0)
(1.23073621 0 0)
(1.28336494 0 0)
(1.37530677 0 0)
(1.44426225 0 0)
(1.46186782 0 0)
(1.50432531 0 0)
(1.53457042 0 0)
(1.59784668 0 0)
(1.66885548 0 0)
(1.68328305 0 0)
(1.7019308 0 0)
(1.70993064 0 0)
(1.75046745 0 0)
(1.80543534 0 0)
(1.81368627 0 0)
(1.83744759 0 0)
(1.84119529 0 0)
(1.87112825 0 0)
(1.90967857 0 0)
(1.88378234 0 0)
(1.87488345 0 0)
(1.8815603 0 0)
(1.88469323 0 0)
(1.9172192 0 0)
(1.90587786 0 0)
(1.84274443 0 0)
(1.79656981 0 0)
(1.73635216 0 0)
(1.70470168 0 0)
(1.68474609 0 0)
(1.63305931 0 0)
(1.60142087 0 0)
(1.54038734 0 0)
(1.50900742 0 0)
(1.4911453 0 0)
(1.43494924 0 0)
(1.3884827 0 0)
(1.36340202 0 0)
(1.37016806 0 0)
(1.3476529 0 0)
(1.30057578 0 0)
(1.27150935 0 0)
(1.23855039 0 0)
(1.21363528 0 0)
(1.21108733 0 0)
(1.19377462 0 0)
(1.17027532 0 0)
(1.15489633 0 0)
(1.11978385 0 0)
(1.09114512 0 0)
(1.08025156 0 0)
(1.06425316 0 0)
(1.05916112 0 0)
(1.05239645 0 0)
(1.02714629 0 0)
(1.01474796 0 0)
(0.990414073 0 0)
(0.984034075 0 0)
(0.977620272 0 0)
(0.961702977 0 0)
(0.965752013 0 0)
(0.987821607 0 0)
(1.02763581 0 0)
(1.03761004 0 0)
(1.02894894 0 0)
(1.04349446 0 0)
(1.06275472 0 0)
(1.07706723 0 0)
(1.09011996 0 0)
(1.10526552 0 0)
(1.10157448 0 0)
(1.08617196 0 0)
(1.09180472 0 0)
(1.10507324 0 0)
(1.08728813 0 0)
(1.06429284 0 0)
(1.06930043 0 0)
(1.06904448 0 0)
(1.07167693 0 0)
(1.06898342 0 0)
(1.05513094 0 0)
(1.06821847 0 0)
(1.09145441 0 0)
(1.08152756 0 0)
(1.06090167 0 0)
(1.07185301 0 0)
(1.07901881 0 0)
(1.09140057 0 0)
(1.09057661 0 0)
(1.0708395 0 0)
(1.08234189 0 0)
(1.09185579 0 0)
(1.1053724 0 0)
(1.10915899 0 0)
(1.08763492 0 0)
(1.08440727 0 0)
(1.1193063 0 0)
(1.12412993 0 0)
(1.12624677 0 0)
(1.15768724 0 0)
(1.20187716 0 0)
(1.19940262 0 0)
(1.17175024 0 0)
(1.18521417 0 0)
(1.18470795 0 0)
(1.20505045 0 0)
(1.21111886 0 0)
(1.1849982 0 0)
(1.19427694 0 0)
(1.193283 0 0)
(1.21393034 0 0)
(1.21913484 0 0)
(1.18966973 0 0)
(1.19268106 0 0)
(1.18351757 0 0)
(1.19856175 0 0)
(1.19740179 0 0)
(1.15935606 0 0)
(1.14891721 0 0)
(1.12816525 0 0)
(1.13538254 0 0)
(1.13030677 0 0)
(1.08510056 0 0)
(1.05881549 0 0)
(1.06967805 0 0)
(1.0533081 0 0)
(1.00764326 0 0)
(0.979863769 0 0)
(0.947297343 0 0)
(0.940334105 0 0)
(0.930962421 0 0)
(0.886894868 0 0)
(0.849105528 0 0)
(0.843536343 0 0)
(0.823946906 0 0)
(0.777829658 0 0)
(0.738791385 0 0)
(0.69641144 0 0)
(0.673929624 0 0)
(0.655978628 0 0)
(0.611718003 0 0)
(0.566211308 0 0)
(0.544030786 0 0)
(0.524840787 0 0)
(0.477299388 0 0)
(0.425469752 0 0)
(0.399931816 0 0)
(0.379735262 0 0)
(0.336791513 0 0)
(0.293452598 0 0)
(0.254005745 0 0)
(0.221853054 0 0)
(0.200776183 0 0)
(0.170495361 0 0)
(0.132260676 0 0)
(0.111206537 0 0)
(0.101684779 0 0)
(0.071699841 0 0)
(0.0397774587 0 0)
(0.0164758488 0 0)
(-0.000284378069 0 0)
(-0.00823538034 0 0)
(-0.029291093 0 0)
(-0.0557834201 0 0)
(-0.0745811798 0 0)
(-0.06046166 0 0)
(-0.0474478217 0 0)
(-0.0432994528 0 0)
(-0.0622002999 0 0)
(-0.0283588218 0 0)
(0.0384934624 0 0)
(-0.00144108883 0 0)
(-0.0433846277 0 0)
(-0.00890164311 0 0)
(0.0423980318 0 0)
(0.0383429026 0 0)
(0.046311529 0 0)
(0.0550795283 0 0)
(0.0818701545 0 0)
(0.108047895 0 0)
(0.114675341 0 0)
(0.118157396 0 0)
(0.143691248 0 0)
(0.174560213 0 0)
(0.176064051 0 0)
(0.182957394 0 0)
(0.194359038 0 0)
(0.220957428 0 0)
(0.248804361 0 0)
(0.255317119 0 0)
(0.266317309 0 0)
(0.278945119 0 0)
(0.307989199 0 0)
(0.337963681 0 0)
(0.347021106 0 0)
(0.360048152 0 0)
(0.378034182 0 0)
(0.4110371 0 0)
(0.438416098 0 0)
(0.449043001 0 0)
(0.464430572 0 0)
(0.482842688 0 0)
(0.519662612 0 0)
(0.548395865 0 0)
(0.557505295 0 0)
(0.577530044 0 0)
(0.597148854 0 0)
(0.615545892 0 0)
(0.653451483 0 0)
(0.685807521 0 0)
(0.698045042 0 0)
(0.70215533 0 0)
(0.715104487 0 0)
(0.736427141 0 0)
(0.778065234 0 0)
(0.793824404 0 0)
(0.789645672 0 0)
(0.795653415 0 0)
(0.813615419 0 0)
(0.855272618 0 0)
(0.865132516 0 0)
(0.850591909 0 0)
(0.85306749 0 0)
(0.886469653 0 0)
(0.895764042 0 0)
(0.879981901 0 0)
(0.875599463 0 0)
(0.881364284 0 0)
(0.916889977 0 0)
(0.922605623 0 0)
(0.899358116 0 0)
(0.892462154 0 0)
(0.919585779 0 0)
(0.922433941 0 0)
(0.907346162 0 0)
(0.908554977 0 0)
(0.931848815 0 0)
(0.929820823 0 0)
(0.909834405 0 0)
(0.906574433 0 0)
(0.924563178 0 0)
(0.916473044 0 0)
(0.882695627 0 0)
(0.861286967 0 0)
(0.846276446 0 0)
(0.86166854 0 0)
(0.852728667 0 0)
(0.812471842 0 0)
(0.79015034 0 0)
(0.790867722 0 0)
(0.771346954 0 0)
(0.730529795 0 0)
(0.696728478 0 0)
(0.673821028 0 0)
(0.669413039 0 0)
(0.645222127 0 0)
(0.6016027 0 0)
(0.561140849 0 0)
(0.528858159 0 0)
(0.514967861 0 0)
(0.487455621 0 0)
(0.438513124 0 0)
(0.393417144 0 0)
(0.352432714 0 0)
(0.331797758 0 0)
(0.307616619 0 0)
(0.256950807 0 0)
(0.211619433 0 0)
(0.171062226 0 0)
(0.150300894 0 0)
(0.129317151 0 0)
(0.0912809217 0 0)
(0.0592035248 0 0)
(0.0371542969 0 0)
(0.0217469529 0 0)
(-0.0120455061 0 0)
(-0.0511358962 0 0)
(-0.0785790931 0 0)
(-0.0846308062 0 0)
(-0.079044482 0 0)
(-0.117250002 0 0)
(-0.134534022 0 0)
(-0.153555661 0 0)
(-0.171993698 0 0)
(-0.183837938 0 0)
(-0.174235145 0 0)
(-0.156170365 0 0)
(-0.170204407 0 0)
(-0.179250225 0 0)
(-0.184345759 0 0)
(-0.160263771 0 0)
(-0.137297576 0 0)
(-0.133290843 0 0)
(-0.131855912 0 0)
(-0.110570565 0 0)
(-0.0787645231 0 0)
(-0.0783650289 0 0)
(-0.0726510469 0 0)
(-0.0708679484 0 0)
(-0.0324801028 0 0)
(-0.00319660348 0 0)
(0.0108246649 0 0)
(0.0147925516 0 0)
(0.0394831035 0 0)
(0.0710257155 0 0)
(0.0762602189 0 0)
(0.0814343198 0 0)
(0.10569729 0 0)
(0.137443731 0 0)
(0.135237962 0 0)
(0.142637784 0 0)
(0.137647123 0 0)
(0.17269471 0 0)
(0.199581559 0 0)
(0.195507022 0 0)
(0.197888953 0 0)
(0.189226232 0 0)
(0.219917467 0 0)
(0.242414908 0 0)
(0.23552638 0 0)
(0.235127358 0 0)
(0.223878821 0 0)
(0.249157078 0 0)
(0.268948785 0 0)
(0.260308999 0 0)
(0.257599061 0 0)
(0.246464495 0 0)
(0.267802736 0 0)
(0.286324303 0 0)
(0.277421969 0 0)
(0.273912003 0 0)
(0.264189764 0 0)
(0.283289684 0 0)
(0.300813952 0 0)
(0.292692817 0 0)
(0.289520503 0 0)
(0.280567879 0 0)
(0.298443136 0 0)
(0.315502564 0 0)
(0.308535985 0 0)
)
;

boundaryField
{
    closed
    {
        type            noSlip;
    }
    open
    {
        type            inletOutlet;
        inletValue      nonuniform List<vector> 0();
        value           nonuniform List<vector> 0();
    }
    sides
    {
        type            empty;
    }
    procBoundary1to0
    {
        type            processor;
        value           uniform (-1.05105083 0 0);
    }
    procBoundary1to2
    {
        type            processor;
        value           uniform (0.306373338 0 0);
    }
}


// ************************************************************************* //
