/*--------------------------------*- C++ -*----------------------------------*\
| =========                 |                                                 |
| \\      /  F ield         | OpenFOAM: The Open Source CFD Toolbox           |
|  \\    /   O peration     | Version:  2306                                  |
|   \\  /    A nd           | Website:  www.openfoam.com                      |
|    \\/     M anipulation  |                                                 |
\*---------------------------------------------------------------------------*/
FoamFile
{
    version     2.0;
    format      ascii;
    arch        "LSB;label=32;scalar=64";
    class       volScalarField;
    location    "4e-05";
    object      prefDZ_H2;
}
// * * * * * * * * * * * * * * * * * * * * * * * * * * * * * * * * * * * * * //

dimensions      [1 -1 -1 0 0 0 0];

internalField   nonuniform List<scalar> 
3801
(
6.33887133e-05
6.35275181e-05
6.21419416e-05
6.19987722e-05
6.34432083e-05
6.23463284e-05
6.12846873e-05
6.34697882e-05
6.3540091e-05
6.19885189e-05
6.16231847e-05
6.3485517e-05
6.35636489e-05
6.18245464e-05
6.16428684e-05
6.35154441e-05
6.35594149e-05
6.17214609e-05
6.17069615e-05
6.3537707e-05
6.35512659e-05
6.16778609e-05
6.17652012e-05
6.35612936e-05
6.35276002e-05
6.16450085e-05
6.18326909e-05
6.35662419e-05
6.34979291e-05
6.16293638e-05
6.18856303e-05
6.3567693e-05
6.34730759e-05
6.16289616e-05
6.19367261e-05
6.35675363e-05
6.34549685e-05
6.16419124e-05
6.19829591e-05
6.35675708e-05
6.34448087e-05
6.16626717e-05
6.20320542e-05
6.35677667e-05
6.34460887e-05
6.16814794e-05
6.21110807e-05
6.35480411e-05
6.34899002e-05
6.15016408e-05
6.2370855e-05
6.35130657e-05
6.19105141e-05
6.18627622e-05
6.35586736e-05
6.34917898e-05
6.16895996e-05
6.19113143e-05
6.35786182e-05
6.34793744e-05
6.16653494e-05
6.20197464e-05
6.35536145e-05
6.35382099e-05
6.14778581e-05
6.23713603e-05
6.35646537e-05
6.18528523e-05
6.1748957e-05
6.35583343e-05
6.35506977e-05
6.16226495e-05
6.17623255e-05
6.35793208e-05
6.35272952e-05
6.15921626e-05
6.17737611e-05
6.35711899e-05
6.35389591e-05
6.16038004e-05
6.17465672e-05
6.35666541e-05
6.35510346e-05
6.16043614e-05
6.1732268e-05
6.35663526e-05
6.35592434e-05
6.16014405e-05
6.17158489e-05
6.35674515e-05
6.35643973e-05
6.16102283e-05
6.17027677e-05
6.35695919e-05
6.35670858e-05
6.16147639e-05
6.17116179e-05
6.35739581e-05
6.35684009e-05
6.1633985e-05
6.17408711e-05
6.35782998e-05
6.35684526e-05
6.1657632e-05
6.18221901e-05
6.35801454e-05
6.35703386e-05
6.15625921e-05
6.20989825e-05
6.359881e-05
6.21804013e-05
6.12986003e-05
6.35864004e-05
6.35474942e-05
6.17314328e-05
6.16122477e-05
6.35962678e-05
6.3544995e-05
6.16885742e-05
6.1695711e-05
6.35928197e-05
6.35507104e-05
6.17492928e-05
6.17867104e-05
6.36064221e-05
6.35511376e-05
6.18291515e-05
6.18023329e-05
6.36382796e-05
6.3518507e-05
6.22077658e-05
6.12278612e-05
6.14129767e-05
6.35584499e-05
6.35676297e-05
6.19859422e-05
6.18260515e-05
6.36087017e-05
6.35545929e-05
6.19743202e-05
6.18937972e-05
6.36455429e-05
6.35077275e-05
6.23282083e-05
6.12008321e-05
6.13761945e-05
6.35488865e-05
6.35491492e-05
6.20452289e-05
6.21609204e-05
6.35824485e-05
6.23408502e-05
6.13195023e-05
6.36071651e-05
6.35301154e-05
6.19592246e-05
6.16695905e-05
6.3533267e-05
6.35631861e-05
6.19791947e-05
6.16809234e-05
6.34867011e-05
6.35654776e-05
6.20499338e-05
6.1676124e-05
6.34231758e-05
6.35598371e-05
6.21431609e-05
6.16580025e-05
6.32981328e-05
6.35564625e-05
6.22253091e-05
6.16608107e-05
6.32561639e-05
6.35576642e-05
6.22674175e-05
6.16600139e-05
6.32165472e-05
6.3559206e-05
6.22967211e-05
6.16562344e-05
6.31791603e-05
6.35593227e-05
6.23174566e-05
6.1655892e-05
6.31567258e-05
6.35585028e-05
6.23292302e-05
6.16672332e-05
6.31546508e-05
6.35562395e-05
6.23022821e-05
6.17217339e-05
6.32202797e-05
6.35516652e-05
6.22100687e-05
6.19629808e-05
6.32756249e-05
6.23368358e-05
6.11849293e-05
6.326018e-05
6.35063088e-05
6.22637753e-05
6.16160564e-05
6.32552285e-05
6.3547041e-05
6.22429822e-05
6.16859899e-05
6.32780574e-05
6.35593835e-05
6.22495828e-05
6.17350146e-05
6.33041432e-05
6.35644951e-05
6.22349438e-05
6.18189141e-05
6.3325824e-05
6.35588266e-05
6.2161334e-05
6.20397459e-05
6.33774632e-05
6.2321333e-05
6.14291869e-05
6.33753395e-05
6.35414436e-05
6.20385765e-05
6.17432394e-05
6.34155381e-05
6.35405185e-05
6.19780685e-05
6.17875396e-05
6.34618454e-05
6.35182013e-05
6.21242352e-05
6.11165156e-05
6.14030778e-05
6.34711254e-05
6.35593086e-05
6.18228349e-05
6.17034495e-05
6.35043518e-05
6.35547311e-05
6.17569534e-05
6.17353867e-05
6.35477811e-05
6.35562014e-05
6.1720884e-05
6.17593579e-05
6.35722524e-05
6.35435933e-05
6.17089212e-05
6.17748967e-05
6.35794097e-05
6.35297816e-05
6.17068423e-05
6.17683572e-05
6.3581925e-05
6.3523667e-05
6.17068737e-05
6.17462997e-05
6.35850583e-05
6.35276607e-05
6.1727166e-05
6.17429784e-05
6.35889488e-05
6.35399026e-05
6.17812432e-05
6.17632398e-05
6.35945223e-05
6.35563321e-05
6.18846417e-05
6.18409119e-05
6.35985593e-05
6.3571741e-05
6.2050889e-05
6.19980157e-05
6.36236289e-05
6.35727772e-05
6.23452586e-05
6.20803406e-05
6.17192491e-05
6.18220333e-05
6.35833354e-05
6.23633744e-05
6.16936202e-05
6.35496862e-05
6.35891825e-05
6.22443809e-05
6.18653162e-05
6.34967134e-05
6.36076446e-05
6.22036978e-05
6.19026652e-05
6.34739653e-05
6.35965024e-05
6.21773793e-05
6.21167778e-05
6.34420232e-05
6.23382991e-05
6.15229006e-05
6.3423615e-05
6.35599939e-05
6.22593608e-05
6.17638089e-05
6.33819633e-05
6.35663206e-05
6.22322028e-05
6.18038016e-05
6.33865627e-05
6.35253002e-05
6.23411645e-05
6.12396143e-05
6.12900881e-05
6.34009251e-05
6.35761436e-05
6.22288306e-05
6.17134731e-05
6.33157288e-05
6.35832753e-05
6.21830218e-05
6.17574022e-05
6.33250425e-05
6.35811637e-05
6.21675921e-05
6.18058553e-05
6.3343023e-05
6.3588834e-05
6.21522395e-05
6.18974073e-05
6.33701851e-05
6.36029249e-05
6.20237122e-05
6.22202146e-05
6.35186248e-05
6.23269139e-05
6.17510358e-05
6.34185732e-05
6.35487944e-05
6.19414421e-05
6.11082684e-05
6.17089079e-05
6.34612253e-05
6.36129936e-05
6.17784058e-05
6.16682484e-05
6.34709577e-05
6.35884533e-05
6.18021413e-05
6.17250967e-05
6.35148081e-05
6.35798039e-05
6.17554649e-05
6.17423478e-05
6.35512575e-05
6.35792748e-05
6.17067419e-05
6.17456488e-05
6.35790572e-05
6.35759172e-05
6.1676996e-05
6.17682035e-05
6.35904903e-05
6.35581561e-05
6.16791254e-05
6.18039591e-05
6.35959782e-05
6.3542514e-05
6.1695654e-05
6.185843e-05
6.36045908e-05
6.35271844e-05
6.17313187e-05
6.19393676e-05
6.36169417e-05
6.35103346e-05
6.17790354e-05
6.19978954e-05
6.36137744e-05
6.35150791e-05
6.16924402e-05
6.12817247e-05
6.20006057e-05
6.35577946e-05
6.35375501e-05
6.17925912e-05
6.20120498e-05
6.35977726e-05
6.3501018e-05
6.19073102e-05
6.21712693e-05
6.36231186e-05
6.34856839e-05
6.20190644e-05
6.23141168e-05
6.36304479e-05
6.35127953e-05
6.21301088e-05
6.17080403e-05
6.23006717e-05
6.35694659e-05
6.35403967e-05
6.21332258e-05
6.18388447e-05
6.18055639e-05
6.21854837e-05
6.36050558e-05
6.34852034e-05
6.18926389e-05
6.13487605e-05
6.21020308e-05
6.35446763e-05
6.34620183e-05
6.19070099e-05
6.21808765e-05
6.36001955e-05
6.34226282e-05
6.19267617e-05
6.22695717e-05
6.36189146e-05
6.34549548e-05
6.19150814e-05
6.13222193e-05
6.21042706e-05
6.35395505e-05
6.34460971e-05
6.18803009e-05
6.21306173e-05
6.3583846e-05
6.34237796e-05
6.18779919e-05
6.22095475e-05
6.35846188e-05
6.34286644e-05
6.17699719e-05
6.23425146e-05
6.35391967e-05
6.20840492e-05
6.17559582e-05
6.3608073e-05
6.3403061e-05
6.1706065e-05
6.19034613e-05
6.35928547e-05
6.34260084e-05
6.16653117e-05
6.1873779e-05
6.35846315e-05
6.34551408e-05
6.16558794e-05
6.18176782e-05
6.35833881e-05
6.34840328e-05
6.16600154e-05
6.17592572e-05
6.35831067e-05
6.35150387e-05
6.16675405e-05
6.17035006e-05
6.35823557e-05
6.35466293e-05
6.1686787e-05
6.16523706e-05
6.3583273e-05
6.35783283e-05
6.17281921e-05
6.16419995e-05
6.35693723e-05
6.3584232e-05
6.18190122e-05
6.16637826e-05
6.3534871e-05
6.35846068e-05
6.19211269e-05
6.17049873e-05
6.34956774e-05
6.35869332e-05
6.20297994e-05
6.18029058e-05
6.34678481e-05
6.35799524e-05
6.20925733e-05
6.20848033e-05
6.34349885e-05
6.23597383e-05
6.14929805e-05
6.34224451e-05
6.35362854e-05
6.22946435e-05
6.17616682e-05
6.34094174e-05
6.35089702e-05
6.2363119e-05
6.12030492e-05
6.12324897e-05
6.33483581e-05
6.35570505e-05
6.24459145e-05
6.1756072e-05
6.31807554e-05
6.35669382e-05
6.24362475e-05
6.18351336e-05
6.32100015e-05
6.35525114e-05
6.24136401e-05
6.18794682e-05
6.33114907e-05
6.35067253e-05
6.23591071e-05
6.12420262e-05
6.13130771e-05
6.33697012e-05
6.35653005e-05
6.22837274e-05
6.16917869e-05
6.32811191e-05
6.35727158e-05
6.21797447e-05
6.17027285e-05
6.3298747e-05
6.3565317e-05
6.20906508e-05
6.16983629e-05
6.33306263e-05
6.35665141e-05
6.19924737e-05
6.16913935e-05
6.33716651e-05
6.35686886e-05
6.18966055e-05
6.16887734e-05
6.34188593e-05
6.35691903e-05
6.18071076e-05
6.16954302e-05
6.34664996e-05
6.35676368e-05
6.17310878e-05
6.17035929e-05
6.35118627e-05
6.35649652e-05
6.16731886e-05
6.1717263e-05
6.35452821e-05
6.35616403e-05
6.1635346e-05
6.17298788e-05
6.35658656e-05
6.35572334e-05
6.16159112e-05
6.17414629e-05
6.35757727e-05
6.35501373e-05
6.16239813e-05
6.17602143e-05
6.35803561e-05
6.3546163e-05
6.16496235e-05
6.17978536e-05
6.35867891e-05
6.35426758e-05
6.16960027e-05
6.18541163e-05
6.35945144e-05
6.35397962e-05
6.17571604e-05
6.18715503e-05
6.35873094e-05
6.35247118e-05
6.16662049e-05
6.12282689e-05
6.17995584e-05
6.35299713e-05
6.35946707e-05
6.16881871e-05
6.17492482e-05
6.35720266e-05
6.3563575e-05
6.1732839e-05
6.18421853e-05
6.35998059e-05
6.35468267e-05
6.17716663e-05
6.18669472e-05
6.36061608e-05
6.35243678e-05
6.18397079e-05
6.12594897e-05
6.17467468e-05
6.35324326e-05
6.35843273e-05
6.17136884e-05
6.1738412e-05
6.35696686e-05
6.3557065e-05
6.17269145e-05
6.17812615e-05
6.35843271e-05
6.35448033e-05
6.17480527e-05
6.18369421e-05
6.35888919e-05
6.35346873e-05
6.17740086e-05
6.19342192e-05
6.35929508e-05
6.35291845e-05
6.17150614e-05
6.22189342e-05
6.35933326e-05
6.2255637e-05
6.15136084e-05
6.3624453e-05
6.35180458e-05
6.18361772e-05
6.18583579e-05
6.36324319e-05
6.35077095e-05
6.18653582e-05
6.19050256e-05
6.36536023e-05
6.35087811e-05
6.22431734e-05
6.13102325e-05
6.17073138e-05
6.3568715e-05
6.35671963e-05
6.19585026e-05
6.19220827e-05
6.36374728e-05
6.35323261e-05
6.23239143e-05
6.1367697e-05
6.16402934e-05
6.36161093e-05
6.35180047e-05
6.23079188e-05
6.1236111e-05
6.15140418e-05
6.35401757e-05
6.35721277e-05
6.20710692e-05
6.18459536e-05
6.35436947e-05
6.35567771e-05
6.21318531e-05
6.18344478e-05
6.35533717e-05
6.35022435e-05
6.23115023e-05
6.12005242e-05
6.12210284e-05
6.34435123e-05
6.35580974e-05
6.22622732e-05
6.17207333e-05
6.33804511e-05
6.35746881e-05
6.2353814e-05
6.1753768e-05
6.31964363e-05
6.35688338e-05
6.23970644e-05
6.17683993e-05
6.28263596e-05
6.35508784e-05
6.23244381e-05
6.17723138e-05
6.26078529e-05
6.35361036e-05
6.23057003e-05
6.17710717e-05
6.24755506e-05
6.35246178e-05
6.23128923e-05
6.17829559e-05
6.24103692e-05
6.35183153e-05
6.23254926e-05
6.18009836e-05
6.23859656e-05
6.35162771e-05
6.23301329e-05
6.18269057e-05
6.23972756e-05
6.35169671e-05
6.23201825e-05
6.18781238e-05
6.2459095e-05
6.3526874e-05
6.23069842e-05
6.21016792e-05
6.26497999e-05
6.23404861e-05
6.15075928e-05
6.25008587e-05
6.35059722e-05
6.2299961e-05
6.1678886e-05
6.27319401e-05
6.35383475e-05
6.23517144e-05
6.16910671e-05
6.2982973e-05
6.35560962e-05
6.23858502e-05
6.17026969e-05
6.33579992e-05
6.35684994e-05
6.22820066e-05
6.17700268e-05
6.32238829e-05
6.35686102e-05
6.21866467e-05
6.20811484e-05
6.33720387e-05
6.23177648e-05
6.10905487e-05
6.29138672e-05
6.34957322e-05
6.23461935e-05
6.15656058e-05
6.32303745e-05
6.35515219e-05
6.21212463e-05
6.16255164e-05
6.34147943e-05
6.35683881e-05
6.19705195e-05
6.16843867e-05
6.35090166e-05
6.35677368e-05
6.18759844e-05
6.17815895e-05
6.35676959e-05
6.35511615e-05
6.18694171e-05
6.19004366e-05
6.35951154e-05
6.35362566e-05
6.1895801e-05
6.1924901e-05
6.36247348e-05
6.3510771e-05
6.23511757e-05
6.1317287e-05
6.15953158e-05
6.36062713e-05
6.34968713e-05
6.23371719e-05
6.11885015e-05
6.14059882e-05
6.35544811e-05
6.35551567e-05
6.19045255e-05
6.17196639e-05
6.35667864e-05
6.35459981e-05
6.18862675e-05
6.18708537e-05
6.35611377e-05
6.35456825e-05
6.18811653e-05
6.20715145e-05
6.35733862e-05
6.23440037e-05
6.13915479e-05
6.35675423e-05
6.35557029e-05
6.1833472e-05
6.16682914e-05
6.35444574e-05
6.35637036e-05
6.17852092e-05
6.16945328e-05
6.35279193e-05
6.35688945e-05
6.1764738e-05
6.16666154e-05
6.35264689e-05
6.35665543e-05
6.17261643e-05
6.16347477e-05
6.35341378e-05
6.35657314e-05
6.17433244e-05
6.16289041e-05
6.35500454e-05
6.35599332e-05
6.19695281e-05
6.16268682e-05
6.32022308e-05
6.35502903e-05
6.23697487e-05
6.16276229e-05
6.28494848e-05
6.35504823e-05
6.23122089e-05
6.16337566e-05
6.27941943e-05
6.35538073e-05
6.23343745e-05
6.16543185e-05
6.2999808e-05
6.35560822e-05
6.21488034e-05
6.16906975e-05
6.34911323e-05
6.35302069e-05
6.1779965e-05
6.18384497e-05
6.35678039e-05
6.35012888e-05
6.17123067e-05
6.19827155e-05
6.35753939e-05
6.34953537e-05
6.17342545e-05
6.21271552e-05
6.35638372e-05
6.35171601e-05
6.16323036e-05
6.23379366e-05
6.35500209e-05
6.19431091e-05
6.18677167e-05
6.35963342e-05
6.34777232e-05
6.17960171e-05
6.20246676e-05
6.35987467e-05
6.34629634e-05
6.15727331e-05
6.10918365e-05
6.20755877e-05
6.35178363e-05
6.35190029e-05
6.1684058e-05
6.19322237e-05
6.35663586e-05
6.3467488e-05
6.17506634e-05
6.20179627e-05
6.35793373e-05
6.34567374e-05
6.18055637e-05
6.20863117e-05
6.35819303e-05
6.34510777e-05
6.18651843e-05
6.21584416e-05
6.35842307e-05
6.34494015e-05
6.19485999e-05
6.22532138e-05
6.35662201e-05
6.34890413e-05
6.18234245e-05
6.16872516e-05
6.15638211e-05
6.19550355e-05
6.35582815e-05
6.3422428e-05
6.16325941e-05
6.1891145e-05
6.3565431e-05
6.34074763e-05
6.16687725e-05
6.19240018e-05
6.35670577e-05
6.34071759e-05
6.16833327e-05
6.19263456e-05
6.35671271e-05
6.34092686e-05
6.16804345e-05
6.19110301e-05
6.35675476e-05
6.34175966e-05
6.16905092e-05
6.18951505e-05
6.3568464e-05
6.34306228e-05
6.16745191e-05
6.1852193e-05
6.35684861e-05
6.34485097e-05
6.16494207e-05
6.17885021e-05
6.35683523e-05
6.3473468e-05
6.16421991e-05
6.17221998e-05
6.35706144e-05
6.35073455e-05
6.16400815e-05
6.16519714e-05
6.35757235e-05
6.35503878e-05
6.16375678e-05
6.15796991e-05
6.35773442e-05
6.35769042e-05
6.16832668e-05
6.15978117e-05
6.35343769e-05
6.35798324e-05
6.17723058e-05
6.15964473e-05
6.34770486e-05
6.35749883e-05
6.18608485e-05
6.15850389e-05
6.34106884e-05
6.35673568e-05
6.20031569e-05
6.1608791e-05
6.33454943e-05
6.35658681e-05
6.21904131e-05
6.16666057e-05
6.32678539e-05
6.35740213e-05
6.23405394e-05
6.17805124e-05
6.31248172e-05
6.35729512e-05
6.24039554e-05
6.21190381e-05
6.31643472e-05
6.23026064e-05
6.15577887e-05
6.28512731e-05
6.35435814e-05
6.23263223e-05
6.18139593e-05
6.27969647e-05
6.35508826e-05
6.23224801e-05
6.19249747e-05
6.28575437e-05
6.35045925e-05
6.22949843e-05
6.12928278e-05
6.13068701e-05
6.31771657e-05
6.35942614e-05
6.23700463e-05
6.20726415e-05
6.31525725e-05
6.22847942e-05
6.15939066e-05
6.29985739e-05
6.35824193e-05
6.2358131e-05
6.1780708e-05
6.32364095e-05
6.36282563e-05
6.237063e-05
6.18692083e-05
6.33453645e-05
6.36426075e-05
6.23475906e-05
6.18888124e-05
6.34063278e-05
6.36314532e-05
6.22487668e-05
6.13246306e-05
6.13283575e-05
6.34765443e-05
6.37063252e-05
6.22371194e-05
6.17447934e-05
6.35035503e-05
6.37480291e-05
6.21148768e-05
6.16774299e-05
6.36119553e-05
6.37573038e-05
6.21526791e-05
6.10305357e-05
6.11021342e-05
6.37631008e-05
6.38163644e-05
6.15511535e-05
6.11862049e-05
6.3858361e-05
6.3849145e-05
6.38796338e-05
6.38770094e-05
6.20827619e-05
6.39360115e-05
6.40041541e-05
6.14633192e-05
6.14467874e-05
6.4027142e-05
6.40941944e-05
6.16186456e-05
6.15915456e-05
6.41014712e-05
6.41948334e-05
6.41284752e-05
6.42409103e-05
6.41679412e-05
6.42871431e-05
6.42410058e-05
6.43365377e-05
6.43190842e-05
6.43884653e-05
6.43887724e-05
6.44348611e-05
6.44424703e-05
5.94342992e-05
5.89606514e-05
5.91074347e-05
5.95657431e-05
5.93809959e-05
6.06172348e-05
5.92308886e-05
5.92651811e-05
5.96487312e-05
6.00707629e-05
5.99352404e-05
6.06188772e-05
5.95251096e-05
5.94048238e-05
5.95933343e-05
6.01840744e-05
5.99261755e-05
6.01993376e-05
6.11355156e-05
5.98325136e-05
6.0290362e-05
5.96545042e-05
6.13789779e-05
5.98406631e-05
6.18555456e-05
6.3500562e-05
6.36048878e-05
6.53152848e-05
6.5362204e-05
6.54118685e-05
6.51365456e-05
6.53233463e-05
6.5225966e-05
6.53016436e-05
6.48886175e-05
6.62261119e-05
6.5946451e-05
6.55034222e-05
6.56201813e-05
6.63575207e-05
6.6130218e-05
6.6052905e-05
6.62553751e-05
6.64432308e-05
6.65118996e-05
6.65623608e-05
6.67204059e-05
6.76482258e-05
6.77687446e-05
6.77109054e-05
6.76651555e-05
6.66681442e-05
6.73012494e-05
6.74112241e-05
6.69401423e-05
6.76824019e-05
6.93288764e-05
6.91244125e-05
6.7425153e-05
6.79637745e-05
6.96452845e-05
6.96536379e-05
6.88292485e-05
6.94034061e-05
7.0501442e-05
7.03471771e-05
7.0518562e-05
7.02140873e-05
7.01548973e-05
6.99823664e-05
7.08654694e-05
6.8082122e-05
6.92283063e-05
6.87204107e-05
6.98899246e-05
6.93376762e-05
7.04697444e-05
6.97644168e-05
7.17338572e-05
6.81571604e-05
6.67863609e-05
6.6978417e-05
7.01810929e-05
6.93910512e-05
6.62462814e-05
6.81372371e-05
6.80906286e-05
7.49927693e-05
7.04595205e-05
7.04825665e-05
7.13869812e-05
6.87018559e-05
6.93444107e-05
6.99959167e-05
7.08557726e-05
7.18660668e-05
7.08934833e-05
7.20787929e-05
7.29691594e-05
7.41369095e-05
7.50452215e-05
7.62058634e-05
7.71207061e-05
7.79338378e-05
7.80348737e-05
7.92638129e-05
8.02211724e-05
8.13912212e-05
8.22805816e-05
8.33278258e-05
8.41752495e-05
8.52701901e-05
8.35756365e-05
8.41332543e-05
8.47221146e-05
8.52199313e-05
8.60409726e-05
8.69169461e-05
8.80033088e-05
8.82024182e-05
8.84948849e-05
8.86644478e-05
8.9041887e-05
8.93446351e-05
8.9935013e-05
9.0370354e-05
9.09139198e-05
9.13052846e-05
9.18031967e-05
9.21626191e-05
9.26452905e-05
9.2987679e-05
9.34696579e-05
9.38037998e-05
9.42657425e-05
9.45404867e-05
9.49811382e-05
9.5292591e-05
9.58152274e-05
9.61569295e-05
9.67088805e-05
9.70640125e-05
9.76972048e-05
9.81865449e-05
9.89828873e-05
9.94650525e-05
0.000100208306
0.00010060301
0.000101255681
0.000101618477
0.000102203945
0.000102525178
0.000102969562
0.000103257899
0.000103726914
0.000104068443
0.00010458709
0.00010497911
0.000105539135
0.000105979768
0.000106560522
0.000107033809
0.00010763568
0.000108108564
0.000108725695
0.000109205123
0.000109822047
0.000110291291
0.00011089979
0.000111352242
0.000111933503
0.000112376997
0.000112943856
0.000113385129
0.000113928668
0.000114355636
0.000114845827
0.000115259157
0.000115736372
0.000116160387
0.00011663591
0.000117080354
0.000117570672
0.000118012651
0.000118510028
0.000118958399
0.000119476521
0.000119921837
0.000120442485
0.000120885459
0.000121396054
0.000121835628
0.000122337183
0.000122773135
0.000123266611
0.00012369873
0.000124184592
0.000124612661
0.000125091185
0.000125515253
0.000125986686
0.000126406794
0.000126871382
0.000127287724
0.000127745581
0.000128158001
0.000128609013
0.000129017542
0.000129461826
0.000129866324
0.000130305776
0.000130710748
0.00013114708
0.000131547995
0.000131976476
0.000132368591
0.000132782676
0.000133166435
0.000133572459
0.000133950754
0.000134349373
0.000134722371
0.000135113799
0.00013548161
0.000135866131
0.00013622891
0.000136606812
0.000136964742
0.00013733634
0.000137689699
0.000138055442
0.000138404486
0.000138764621
0.000139109433
0.000139464199
0.000139805063
0.000140154802
0.000140491829
0.0001408366
0.000141169729
0.00014150963
0.00014183911
0.000142174455
0.000142500443
0.000142831396
0.000143154033
0.000143480781
0.000143800238
0.000144122973
0.000144439426
0.000144758333
0.000145071955
0.000145387207
0.000145703065
0.000146023529
0.000146338904
0.000146656099
0.000146969037
0.000147283051
0.000147593518
0.000147904427
0.000148212308
0.000148522519
0.00014883833
0.000149150238
0.000149461579
0.000149768001
0.000150074833
0.000150376747
0.000150678043
0.000150972974
0.000151267983
0.000151556573
0.000151845609
0.000152128155
0.000152411571
0.00015268839
0.000152966328
0.000153237544
0.00015351029
0.000153776308
0.000154043997
0.000154304786
0.000154567531
0.00015482353
0.000155081553
0.000155332635
0.000155585994
0.000155832699
0.000156081495
0.000156323533
0.000156568065
0.000156806026
0.000157045729
0.000157279647
0.000157515268
0.000157744902
0.000157976037
0.000158201857
0.000158428111
0.000158650076
0.00015887209
0.000159089743
0.000159307957
0.00015952253
0.000159736725
0.000159949
0.000160159593
0.000160368947
0.000160575607
0.000160780547
0.000160983066
0.000161183689
0.00016138274
0.000161579506
0.000161776287
0.000161967236
0.000162164292
0.000162348542
0.000162541751
0.000162714958
0.000162907533
0.000163072096
0.000163278211
0.000163442645
0.000163655605
0.000163812323
0.000164032767
0.000164174253
0.000164398879
0.000164525378
0.000164771167
0.000164865491
0.000165104466
0.000165196186
0.000165559305
0.000165519791
0.000165564382
0.000165822792
0.000166875938
0.000166129668
0.000165626698
0.000166433157
0.000168355854
0.000166662122
0.000165602722
0.000167276627
0.000170785344
0.000166670066
0.000166087791
0.000168862667
0.000171390556
0.00016646743
0.000166581423
0.000171434431
0.00017272963
0.000166949771
0.000167032831
0.000172321561
0.000173507558
0.00016742213
0.000167438407
0.000173530136
0.000174061563
0.000167729684
0.000167915467
0.000174106941
0.000174547011
0.00016812149
0.000168457022
0.000174756712
0.000175010264
0.000168750458
0.000168887157
0.000175319872
0.000175413995
0.00016948016
0.000169280837
0.00017589858
0.000175799106
0.000170148852
0.000169647059
0.000176230733
0.000176144877
0.000170782431
0.000169984749
0.000176441771
0.000176446783
0.000171575993
0.000170282978
0.000176729576
0.000176694754
0.00017186771
0.000170586096
0.000177008106
0.000176911684
0.000171779414
0.000171038791
0.000177284024
0.000177108414
0.00017197326
0.000171487006
0.00017751079
0.000177346777
0.000172104436
0.000172055559
0.00017761968
0.000177478316
0.000172217248
0.000173312196
0.000177813206
0.000177450834
0.000172474512
0.00017599799
0.000178031683
0.000177011424
0.000172747336
0.000177077725
0.0001782211
0.000177387386
0.000173024327
0.000177314677
0.000178411018
0.000177766563
0.000173323189
0.000177706901
0.000178605899
0.000178051358
0.000173612112
0.000178019542
0.000178794428
0.000178309706
0.000173905988
0.000178289915
0.000178977931
0.000178556018
0.000174192529
0.000178532618
0.000179168684
0.000178792265
0.000174479038
0.000178763646
0.000179360515
0.000179020336
0.000174772715
0.000178988144
0.000179557887
0.000179242192
0.00017506126
0.000179204823
0.000179760466
0.000179458029
0.000175359621
0.000179417839
0.000179962699
0.000179668906
0.000175653361
0.000179628394
0.000180168796
0.000179878067
0.00017594739
0.000179839873
0.000180375118
0.000180084104
0.000176238702
0.000180060223
0.000180586209
0.000180285245
0.000176530387
0.000180309123
0.000180799592
0.000180504119
0.000176827705
0.000180552252
0.000181012018
0.000180740197
0.000177128613
0.00018079321
0.000181232342
0.000180978974
0.000177427051
0.000181036512
0.000181452106
0.000181219514
0.000177722141
0.000181281999
0.000181679788
0.000181463411
0.000178015453
0.000181531361
0.000181917127
0.000181714824
0.000178303564
0.000181771485
0.000182155713
0.000181983844
0.000178586105
0.00018191547
0.000182395018
0.000182196701
0.000178868735
0.000182050061
0.000182631726
0.000182407051
0.000179144971
0.000182137783
0.000182864865
0.000182632807
0.000179441713
0.000182115537
0.000183093802
0.000182874747
0.000179730408
0.00018192641
0.000183299237
0.000183150673
0.000180002629
0.000181519811
0.00018348767
0.00018338506
0.000180285045
0.000181262429
0.00018368818
0.000183630316
0.000180598141
0.000181264212
0.000183912022
0.000183884208
0.000180931804
0.000181275812
0.000184146628
0.000184136835
0.00018126639
0.000181420057
0.00018438569
0.000184386722
0.000181588066
0.000181708222
0.000184622654
0.000184639035
0.0001818901
0.000182030818
0.000184856055
0.000184901504
0.000182155531
0.000182380591
0.000185064651
0.000185168988
0.000182330132
0.000182701099
0.000185277933
0.000185405225
0.000182552437
0.000182970034
0.000185512035
0.000185605734
0.000182830961
0.000183206201
0.000185759245
0.000185806855
0.000183092353
0.000183421332
0.000185977575
0.000186015875
0.000183322987
0.000183611162
0.000186182895
0.000186222822
0.000183530944
0.000183810974
0.000186376336
0.000186424614
0.000183719229
0.000184022135
0.000186554817
0.000186625186
0.000183881008
0.000184240294
0.000186716539
0.000186807273
0.000184063119
0.000184409265
0.000186897793
0.000186974918
0.000184264065
0.0001845622
0.000187075366
0.000187139917
0.000184449169
0.000184716765
0.000187242349
0.000187297271
0.00018461646
0.000184871701
0.000187404945
0.000187458243
0.000184749621
0.000185031668
0.000187551409
0.0001876035
0.000184892051
0.000185173425
0.000187692983
0.000187740381
0.000185035608
0.000185300475
0.000187828802
0.000187869251
0.000185176205
0.00018542751
0.000187945355
0.000187993888
0.000185304334
0.000185535666
0.000188064218
0.000188111968
0.000185421073
0.000185639204
0.000188174194
0.000188219624
0.000185532541
0.000185737566
0.000188277571
0.000188322911
0.000185628258
0.000185833154
0.000188372679
0.000188417879
0.000185717451
0.000185922515
0.000188460845
0.00018850596
0.000185800215
0.00018600538
0.000188542423
0.00018858757
0.000185876927
0.000186082185
0.000188617493
0.00018866196
0.000185948365
0.000186156518
0.00018868568
0.000188732798
0.000186006864
0.000186225655
0.000188749377
0.000188794475
0.000186064097
0.000186290698
0.0001888074
0.000188851488
0.000186114037
0.000186339727
0.000188870937
0.000188906052
0.000186157144
0.000186389841
0.000188921655
0.000188952186
0.000186205182
0.000186433445
0.000188967043
0.000188996052
0.000186247755
0.000186468524
0.000189012702
0.000189035801
0.000186285878
0.000186511014
0.000189046622
0.000189074083
0.000186312108
0.000186547557
0.000189079686
0.000189105871
0.000186341264
0.000186576901
0.000189110042
0.000189135463
0.000186368784
0.000186603147
0.000189134715
0.000189161992
0.0001863952
0.000186622876
0.000189156984
0.000189184222
0.000186423242
0.000186637294
0.000189177157
0.000189204242
0.000186448046
0.000186652278
0.000189193058
0.00018922183
0.00018646669
0.000186667103
0.000189207188
0.00018923778
0.000186480099
0.000186681102
0.000189218486
0.00018924945
0.000186492971
0.000186690091
0.000189230761
0.000189258655
0.000186505055
0.000186699538
0.000189239119
0.000189268367
0.000186511975
0.000186709382
0.000189244277
0.000189276058
0.000186516392
0.000186717465
0.000189248627
0.000189281334
0.000186519934
0.000186723393
0.000189252115
0.000189284866
0.000186522781
0.000186727085
0.000189254582
0.00018928691
0.000186525165
0.000186728783
0.000189255965
0.000189288001
0.000186526824
0.000186729011
0.000189255982
0.000189288455
0.000186527592
0.00018672796
0.000189254667
0.000189288105
0.000186527734
0.000186725798
0.000189252542
0.000189285313
0.00018652804
0.000186727143
0.000189248995
0.00018928461
0.000186518711
0.000186740072
0.000189236597
0.00018928007
0.000186511064
0.000186745063
0.000189230645
0.000189277909
0.000186499336
0.000186740391
0.000189228353
0.00018927044
0.000186500471
0.000186716756
0.000189238861
0.000189263914
0.000186499875
0.000186715887
0.00018923329
0.000189262051
0.000186482628
0.000186717629
0.000189228056
0.000189255653
0.000186471725
0.000186713692
0.000189223874
0.000189248449
0.000186465587
0.000186707726
0.000189218624
0.00018924184
0.0001864586
0.000186703536
0.000189210923
0.000189236021
0.000186450362
0.000186696637
0.000189203717
0.0001892289
0.000186445713
0.000186687023
0.000189197024
0.000189222719
0.000186440506
0.000186678397
0.000189188249
0.00018921565
0.000186436272
0.000186666054
0.000189181613
0.000189206127
0.000186436034
0.000186654862
0.00018917403
0.000189200546
0.000186429983
0.000186647267
0.000189163404
0.000189193487
0.000186424681
0.000186636224
0.000189155243
0.000189185289
0.000186422094
0.000186624857
0.000189146569
0.00018917792
0.000186417679
0.000186615686
0.00018913716
0.00018917006
0.000186411257
0.000186618876
0.000189119007
0.000189161716
0.000186403059
0.000186613409
0.000189110123
0.000189153606
0.000186393254
0.00018659811
0.000189110518
0.000189145436
0.000186383165
0.000186592958
0.000189101372
0.000189137036
0.000186374027
0.000186586035
0.000189092399
0.000189127872
0.000186367201
0.000186576619
0.000189084145
0.000189118161
0.000186362416
0.000186567343
0.000189075607
0.000189107809
0.000186356858
0.00018656482
0.000189065667
0.000189103024
0.000186336434
0.000186577554
0.000189042683
0.000189093387
0.000186326968
0.000186563204
0.000189039188
0.000189081105
0.000186326475
0.000186546409
0.000189039862
0.000189076429
0.000186309334
0.000186543407
0.000189029745
0.000189066069
0.000186301958
0.000186532152
0.000189023516
0.000189055967
0.00018629957
0.000186523068
0.00018901336
0.000189048455
0.000186293791
0.00018651519
0.000189002797
0.00018904008
0.000186288247
0.000186506133
0.000188993592
0.000189030439
0.000186284195
0.000186508576
0.000188975061
0.000189020279
0.000186278462
0.000186493058
0.000188977393
0.000189010133
0.000186263904
0.000186504254
0.000188964975
0.000189007324
0.00018623166
0.000186508255
0.000188955831
0.000188993117
0.000186227963
0.000186500635
0.000188949962
0.000188984574
0.000186220644
0.000186494423
0.000188941844
0.000188975875
0.000186215368
0.000186488534
0.000188933208
0.000188967613
0.000186210778
0.000186483373
0.00018892455
0.000188959569
0.000186206838
0.000186479191
0.000188916129
0.000188951543
0.000186203968
0.000186476421
0.000188908096
0.000188943528
0.000186202225
0.000186475917
0.000188900649
0.000188935857
0.000186201138
0.000186479115
0.000188892722
0.000188930348
0.000186201025
0.000186483279
0.000188884279
0.000188923042
0.000186211716
0.000186484212
0.00018887981
0.000188916268
0.000186228067