/*--------------------------------*- C++ -*----------------------------------*\
| =========                 |                                                 |
| \\      /  F ield         | OpenFOAM: The Open Source CFD Toolbox           |
|  \\    /   O peration     | Version:  2306                                  |
|   \\  /    A nd           | Website:  www.openfoam.com                      |
|    \\/     M anipulation  |                                                 |
\*---------------------------------------------------------------------------*/
FoamFile
{
    version     2.0;
    format      ascii;
    arch        "LSB;label=32;scalar=64";
    class       volScalarField;
    location    "4e-05";
    object      prefDPV_H2;
}
// * * * * * * * * * * * * * * * * * * * * * * * * * * * * * * * * * * * * * //

dimensions      [1 -1 -1 0 0 0 0];

internalField   nonuniform List<scalar> 
3801
(
-3.144375e-05
-3.15126036e-05
-3.08252932e-05
-3.07542745e-05
-3.1470782e-05
-3.09266786e-05
-3.04000552e-05
-3.14839669e-05
-3.15188403e-05
-3.07491884e-05
-3.05679657e-05
-3.14917691e-05
-3.15305262e-05
-3.06678504e-05
-3.05777297e-05
-3.15066143e-05
-3.15284259e-05
-3.06167152e-05
-3.06095229e-05
-3.15176578e-05
-3.15243836e-05
-3.05950876e-05
-3.06384124e-05
-3.15293578e-05
-3.15126443e-05
-3.05787913e-05
-3.06718905e-05
-3.15318124e-05
-3.14979261e-05
-3.05710308e-05
-3.06981509e-05
-3.15325322e-05
-3.14855977e-05
-3.05708313e-05
-3.07234968e-05
-3.15324545e-05
-3.14766156e-05
-3.05772555e-05
-3.07464305e-05
-3.15324716e-05
-3.14715759e-05
-3.0587553e-05
-3.07707839e-05
-3.15325688e-05
-3.14722108e-05
-3.05968825e-05
-3.08099848e-05
-3.1522784e-05
-3.14939433e-05
-3.05076742e-05
-3.09388449e-05
-3.15054345e-05
-3.07104944e-05
-3.06868073e-05
-3.15280582e-05
-3.14948807e-05
-3.06009106e-05
-3.07108913e-05
-3.15379516e-05
-3.14887221e-05
-3.05888813e-05
-3.07646787e-05
-3.15255487e-05
-3.15179072e-05
-3.04958769e-05
-3.09390956e-05
-3.15310246e-05
-3.06818915e-05
-3.06303546e-05
-3.15278898e-05
-3.15241018e-05
-3.05677002e-05
-3.0636986e-05
-3.15383001e-05
-3.1512493e-05
-3.05525772e-05
-3.06426585e-05
-3.15342668e-05
-3.15182789e-05
-3.05583502e-05
-3.06291691e-05
-3.15320169e-05
-3.15242689e-05
-3.05586284e-05
-3.0622076e-05
-3.15318673e-05
-3.15283408e-05
-3.05571795e-05
-3.06139314e-05
-3.15324124e-05
-3.15308974e-05
-3.05615387e-05
-3.06074425e-05
-3.15334742e-05
-3.1532231e-05
-3.05637885e-05
-3.06118326e-05
-3.153564e-05
-3.15328834e-05
-3.05733231e-05
-3.06263436e-05
-3.15377937e-05
-3.1532909e-05
-3.05850531e-05
-3.06666816e-05
-3.15387092e-05
-3.15338445e-05
-3.05379089e-05
-3.08039835e-05
-3.15479677e-05
-3.0844371e-05
-3.04069567e-05
-3.1541812e-05
-3.15225127e-05
-3.06216618e-05
-3.05625404e-05
-3.15467067e-05
-3.1521273e-05
-3.06004019e-05
-3.06039421e-05
-3.15449962e-05
-3.15241081e-05
-3.06305211e-05
-3.0649082e-05
-3.15517436e-05
-3.152432e-05
-3.06701348e-05
-3.06568315e-05
-3.15675465e-05
-3.15081337e-05
-3.08579451e-05
-3.03718668e-05
-3.04636927e-05
-3.15279472e-05
-3.15325008e-05
-3.07479103e-05
-3.06685971e-05
-3.15528745e-05
-3.15260339e-05
-3.07421452e-05
-3.0702202e-05
-3.15711494e-05
-3.15027865e-05
-3.09176902e-05
-3.03584591e-05
-3.04454471e-05
-3.15232033e-05
-3.15233336e-05
-3.07773192e-05
-3.08347076e-05
-3.15398516e-05
-3.09239611e-05
-3.04173251e-05
-3.15521122e-05
-3.1513892e-05
-3.07346571e-05
-3.05909851e-05
-3.15154553e-05
-3.15302966e-05
-3.07445632e-05
-3.05966067e-05
-3.14923565e-05
-3.15314333e-05
-3.07796531e-05
-3.0594226e-05
-3.1460845e-05
-3.15286353e-05
-3.0825898e-05
-3.05852369e-05
-3.13988178e-05
-3.15269614e-05
-3.08666474e-05
-3.05866299e-05
-3.13779993e-05
-3.15275575e-05
-3.08875351e-05
-3.05862347e-05
-3.13583476e-05
-3.15283223e-05
-3.09020711e-05
-3.05843599e-05
-3.13398019e-05
-3.15283802e-05
-3.09123568e-05
-3.058419e-05
-3.13286734e-05
-3.15279735e-05
-3.09181971e-05
-3.05898158e-05
-3.13276441e-05
-3.15268507e-05
-3.09048296e-05
-3.06168506e-05
-3.13601991e-05
-3.15245817e-05
-3.08590874e-05
-3.07365203e-05
-3.13876528e-05
-3.09219698e-05
-3.03505706e-05
-3.13799915e-05
-3.15020828e-05
-3.08857284e-05
-3.05644297e-05
-3.13775353e-05
-3.15222879e-05
-3.0875414e-05
-3.059912e-05
-3.13888595e-05
-3.15284103e-05
-3.08786883e-05
-3.06234385e-05
-3.14017993e-05
-3.15309459e-05
-3.08714267e-05
-3.06650565e-05
-3.1412554e-05
-3.15281341e-05
-3.08349128e-05
-3.07745994e-05
-3.14381694e-05
-3.09142797e-05
-3.04717337e-05
-3.1437116e-05
-3.15195113e-05
-3.07740193e-05
-3.06275184e-05
-3.14570563e-05
-3.15190524e-05
-3.07440045e-05
-3.06494934e-05
-3.14800269e-05
-3.1507982e-05
-3.081651e-05
-3.03166342e-05
-3.04587824e-05
-3.14846302e-05
-3.15283732e-05
-3.06670015e-05
-3.06077807e-05
-3.1501112e-05
-3.15261025e-05
-3.06343212e-05
-3.06236231e-05
-3.1522655e-05
-3.15268319e-05
-3.06164291e-05
-3.06355139e-05
-3.15347939e-05
-3.15205777e-05
-3.0610495e-05
-3.06432219e-05
-3.15383443e-05
-3.15137264e-05
-3.06094637e-05
-3.0639978e-05
-3.1539592e-05
-3.15106933e-05
-3.06094793e-05
-3.06290364e-05
-3.15411462e-05
-3.15126744e-05
-3.06195452e-05
-3.06273889e-05
-3.15430761e-05
-3.15187469e-05
-3.06463701e-05
-3.06374395e-05
-3.15458408e-05
-3.15268967e-05
-3.06976605e-05
-3.06759685e-05
-3.15478433e-05
-3.15345402e-05
-3.07801269e-05
-3.07538993e-05
-3.1560279e-05
-3.15350542e-05
-3.09261479e-05
-3.07947362e-05
-3.06156181e-05
-3.06666038e-05
-3.15402916e-05
-3.09351342e-05
-3.0602905e-05
-3.15236e-05
-3.1543192e-05
-3.08761079e-05
-3.06880742e-05
-3.1497323e-05
-3.15523501e-05
-3.08559272e-05
-3.0706601e-05
-3.14860389e-05
-3.1546823e-05
-3.0842872e-05
-3.08128108e-05
-3.14701942e-05
-3.09226956e-05
-3.05182201e-05
-3.14610628e-05
-3.15287131e-05
-3.08835386e-05
-3.06377218e-05
-3.14404016e-05
-3.15318514e-05
-3.0870067e-05
-3.06575601e-05
-3.14426831e-05
-3.15115034e-05
-3.0924117e-05
-3.03776969e-05
-3.04027343e-05
-3.14498076e-05
-3.15367241e-05
-3.08683942e-05
-3.06127529e-05
-3.14075463e-05
-3.15402618e-05
-3.08456709e-05
-3.06345438e-05
-3.14121663e-05
-3.15392143e-05
-3.08380171e-05
-3.06585788e-05
-3.14210855e-05
-3.15430191e-05
-3.08304015e-05
-3.07039928e-05
-3.14345591e-05
-3.15500089e-05
-3.07666459e-05
-3.08641203e-05
-3.15081921e-05
-3.09170481e-05
-3.06313858e-05
-3.14585619e-05
-3.15231576e-05
-3.07258361e-05
-3.03125432e-05
-3.06104884e-05
-3.14797193e-05
-3.15550034e-05
-3.06449625e-05
-3.05903194e-05
-3.1484547e-05
-3.15428303e-05
-3.06567365e-05
-3.06185188e-05
-3.15062989e-05
-3.15385398e-05
-3.06335828e-05
-3.06270761e-05
-3.15243794e-05
-3.15382773e-05
-3.06094139e-05
-3.06287135e-05
-3.15381694e-05
-3.15366118e-05
-3.05946586e-05
-3.06399017e-05
-3.15438408e-05
-3.15278015e-05
-3.05957149e-05
-3.06576382e-05
-3.1546563e-05
-3.15200422e-05
-3.06039138e-05
-3.06846583e-05
-3.15508352e-05
-3.15124381e-05
-3.06216052e-05
-3.07248071e-05
-3.15569619e-05
-3.15040798e-05
-3.06452749e-05
-3.07538396e-05
-3.15553908e-05
-3.15064333e-05
-3.06023196e-05
-3.03985856e-05
-3.0755184e-05
-3.15276222e-05
-3.15175799e-05
-3.06519992e-05
-3.07608608e-05
-3.15474531e-05
-3.14994583e-05
-3.07089051e-05
-3.08398411e-05
-3.15600259e-05
-3.14918519e-05
-3.07643404e-05
-3.09107001e-05
-3.15636615e-05
-3.15053004e-05
-3.08194236e-05
-3.0610058e-05
-3.09040307e-05
-3.15334117e-05
-3.1518992e-05
-3.08209698e-05
-3.0674943e-05
-3.06584342e-05
-3.08468921e-05
-3.15510659e-05
-3.14916135e-05
-3.07016275e-05
-3.04318385e-05
-3.08054956e-05
-3.15211149e-05
-3.14801127e-05
-3.07087562e-05
-3.08446067e-05
-3.1548655e-05
-3.14605733e-05
-3.0718554e-05
-3.08886037e-05
-3.15579405e-05
-3.14766088e-05
-3.071276e-05
-3.04186728e-05
-3.08066066e-05
-3.15185723e-05
-3.1472215e-05
-3.06955072e-05
-3.08196758e-05
-3.15405449e-05
-3.14611445e-05
-3.06943619e-05
-3.08588289e-05
-3.15409282e-05
-3.14635676e-05
-3.06407789e-05
-3.09247867e-05
-3.15183967e-05
-3.07965759e-05
-3.06338275e-05
-3.15525626e-05
-3.14508671e-05
-3.06090782e-05
-3.07069959e-05
-3.15450136e-05
-3.14622501e-05
-3.05888626e-05
-3.06922721e-05
-3.15409345e-05
-3.14767011e-05
-3.05841838e-05
-3.06644435e-05
-3.15403177e-05
-3.14910329e-05
-3.05862354e-05
-3.06354639e-05
-3.15401781e-05
-3.15064133e-05
-3.05899682e-05
-3.06078061e-05
-3.15398056e-05
-3.15220837e-05
-3.05995154e-05
-3.05824432e-05
-3.15402606e-05
-3.15378078e-05
-3.06200542e-05
-3.05772987e-05
-3.15333653e-05
-3.15407363e-05
-3.06651052e-05
-3.05881041e-05
-3.1516251e-05
-3.15409222e-05
-3.07157589e-05
-3.06085435e-05
-3.14968091e-05
-3.15420762e-05
-3.07696655e-05
-3.06571157e-05
-3.14830045e-05
-3.15386134e-05
-3.08008042e-05
-3.079695e-05
-3.14667046e-05
-3.09333305e-05
-3.05033783e-05
-3.14604825e-05
-3.15169526e-05
-3.09010404e-05
-3.06366599e-05
-3.14540202e-05
-3.1503403e-05
-3.09350075e-05
-3.03595589e-05
-3.03741628e-05
-3.14237319e-05
-3.15272531e-05
-3.09760779e-05
-3.0633884e-05
-3.13405932e-05
-3.15321578e-05
-3.09712826e-05
-3.06731022e-05
-3.13551006e-05
-3.15250014e-05
-3.09600683e-05
-3.06950942e-05
-3.14054439e-05
-3.15022894e-05
-3.09330174e-05
-3.03788933e-05
-3.04141379e-05
-3.14343191e-05
-3.15313454e-05
-3.08956256e-05
-3.06019955e-05
-3.13903782e-05
-3.15350238e-05
-3.08440453e-05
-3.06074231e-05
-3.13991225e-05
-3.15313536e-05
-3.07998506e-05
-3.06052575e-05
-3.14149361e-05
-3.15319474e-05
-3.07511502e-05
-3.06018004e-05
-3.14352932e-05
-3.15330261e-05
-3.07035951e-05
-3.06005007e-05
-3.14587038e-05
-3.15332749e-05
-3.06592e-05
-3.06038028e-05
-3.14823356e-05
-3.15325044e-05
-3.06214906e-05
-3.06078519e-05
-3.15048378e-05
-3.15311791e-05
-3.05927699e-05
-3.06146329e-05
-3.15214154e-05
-3.15295298e-05
-3.05739983e-05
-3.06208909e-05
-3.15316257e-05
-3.15273438e-05
-3.05643577e-05
-3.06266371e-05
-3.15365401e-05
-3.15238238e-05
-3.05683608e-05
-3.06359387e-05
-3.15388137e-05
-3.15218523e-05
-3.05810805e-05
-3.06546095e-05
-3.15420048e-05
-3.15201225e-05
-3.06040868e-05
-3.06825185e-05
-3.15458369e-05
-3.15186941e-05
-3.06344238e-05
-3.06911665e-05
-3.15422629e-05
-3.15112116e-05
-3.05893057e-05
-3.03720691e-05
-3.06554552e-05
-3.15138205e-05
-3.15459144e-05
-3.06002099e-05
-3.0630499e-05
-3.15346819e-05
-3.15304895e-05
-3.06223593e-05
-3.06766001e-05
-3.15484617e-05
-3.15221816e-05
-3.06416194e-05
-3.06888832e-05
-3.15516141e-05
-3.15110409e-05
-3.06753712e-05
-3.0387556e-05
-3.06292582e-05
-3.15150414e-05
-3.15407836e-05
-3.06128597e-05
-3.06251238e-05
-3.15335122e-05
-3.15272603e-05
-3.06194205e-05
-3.06463791e-05
-3.15407835e-05
-3.15211779e-05
-3.0629906e-05
-3.06739993e-05
-3.15430478e-05
-3.15161599e-05
-3.06427814e-05
-3.07222532e-05
-3.15450613e-05
-3.15134302e-05
-3.06135408e-05
-3.08634851e-05
-3.15452507e-05
-3.08816914e-05
-3.05136107e-05
-3.15606878e-05
-3.15079049e-05
-3.06736199e-05
-3.06846225e-05
-3.15646457e-05
-3.15027776e-05
-3.0688095e-05
-3.07077718e-05
-3.15751473e-05
-3.15033092e-05
-3.08755089e-05
-3.04127268e-05
-3.06096976e-05
-3.15330392e-05
-3.15322858e-05
-3.07342989e-05
-3.0716233e-05
-3.15671463e-05
-3.15149886e-05
-3.09155602e-05
-3.04412319e-05
-3.05764524e-05
-3.1556549e-05
-3.15078845e-05
-3.09076256e-05
-3.03759591e-05
-3.05138257e-05
-3.15188824e-05
-3.1534732e-05
-3.07901372e-05
-3.06784694e-05
-3.1520628e-05
-3.15271174e-05
-3.08202889e-05
-3.0672762e-05
-3.15254282e-05
-3.15000662e-05
-3.09094032e-05
-3.03583064e-05
-3.03684774e-05
-3.14709328e-05
-3.15277724e-05
-3.08849833e-05
-3.06163543e-05
-3.14396515e-05
-3.15360021e-05
-3.09303918e-05
-3.06327411e-05
-3.13483716e-05
-3.15330981e-05
-3.0951846e-05
-3.06399989e-05
-3.11647964e-05
-3.15241914e-05
-3.091582e-05
-3.06419406e-05
-3.10564069e-05
-3.15168624e-05
-3.09065251e-05
-3.06413245e-05
-3.09907788e-05
-3.15111649e-05
-3.09100927e-05
-3.06472196e-05
-3.09584458e-05
-3.15080386e-05
-3.09163431e-05
-3.06561622e-05
-3.09463405e-05
-3.15070275e-05
-3.09186449e-05
-3.06690208e-05
-3.09519507e-05
-3.15073698e-05
-3.0913709e-05
-3.06944273e-05
-3.0982616e-05
-3.15122841e-05
-3.0907162e-05
-3.08053212e-05
-3.10772145e-05
-3.09237805e-05
-3.05106267e-05
-3.10033328e-05
-3.15019158e-05
-3.09036782e-05
-3.05955961e-05
-3.11179599e-05
-3.15179755e-05
-3.09293503e-05
-3.06016385e-05
-3.12424839e-05
-3.15267797e-05
-3.09462832e-05
-3.06074074e-05
-3.14285144e-05
-3.15329322e-05
-3.0894772e-05
-3.06408062e-05
-3.13619864e-05
-3.15329872e-05
-3.0847469e-05
-3.0795137e-05
-3.14354786e-05
-3.09125097e-05
-3.03037534e-05
-3.12082042e-05
-3.14968363e-05
-3.09266117e-05
-3.05394039e-05
-3.13652065e-05
-3.15245106e-05
-3.08150274e-05
-3.05691223e-05
-3.14566874e-05
-3.1532877e-05
-3.07402599e-05
-3.05983247e-05
-3.1503426e-05
-3.1532554e-05
-3.06933661e-05
-3.06465418e-05
-3.15325337e-05
-3.15243318e-05
-3.06901084e-05
-3.07054955e-05
-3.1546135e-05
-3.15169383e-05
-3.0703196e-05
-3.0717631e-05
-3.15608276e-05
-3.15042963e-05
-3.09290831e-05
-3.04162262e-05
-3.05541414e-05
-3.15516688e-05
-3.14974014e-05
-3.09221365e-05
-3.03523426e-05
-3.04602261e-05
-3.15259785e-05
-3.15263136e-05
-3.07075238e-05
-3.06158239e-05
-3.15320825e-05
-3.15217706e-05
-3.06984669e-05
-3.0690821e-05
-3.15292805e-05
-3.1521614e-05
-3.0695936e-05
-3.07903581e-05
-3.15353563e-05
-3.09255254e-05
-3.0453063e-05
-3.15324575e-05
-3.15265846e-05
-3.06722779e-05
-3.05903407e-05
-3.15210063e-05
-3.15305533e-05
-3.06483374e-05
-3.06033576e-05
-3.15128026e-05
-3.15331282e-05
-3.06381827e-05
-3.05895093e-05
-3.15120831e-05
-3.15319674e-05
-3.06190483e-05
-3.05737015e-05
-3.15158873e-05
-3.15315592e-05
-3.06275605e-05
-3.05708028e-05
-3.15237782e-05
-3.1528683e-05
-3.07397681e-05
-3.05697929e-05
-3.1351246e-05
-3.15238996e-05
-3.09382961e-05
-3.05701672e-05
-3.11762676e-05
-3.15239949e-05
-3.09097537e-05
-3.05732098e-05
-3.11488409e-05
-3.15256443e-05
-3.09207489e-05
-3.05834095e-05
-3.12508348e-05
-3.15267727e-05
-3.0828697e-05
-3.06014552e-05
-3.14945546e-05
-3.15139374e-05
-3.0645736e-05
-3.06747471e-05
-3.15325872e-05
-3.14995926e-05
-3.06121743e-05
-3.07463097e-05
-3.15363522e-05
-3.14966485e-05
-3.06230614e-05
-3.08179585e-05
-3.15306195e-05
-3.15074655e-05
-3.05724891e-05
-3.09225159e-05
-3.1523766e-05
-3.0726663e-05
-3.06892649e-05
-3.15467396e-05
-3.1487903e-05
-3.06536986e-05
-3.07671199e-05
-3.15479363e-05
-3.14805815e-05
-3.05429393e-05
-3.03043922e-05
-3.07923786e-05
-3.1507801e-05
-3.15083797e-05
-3.05981616e-05
-3.07212634e-05
-3.15318703e-05
-3.14828259e-05
-3.0631201e-05
-3.07637939e-05
-3.15383083e-05
-3.14774931e-05
-3.06584341e-05
-3.07976982e-05
-3.15395946e-05
-3.14746856e-05
-3.06880087e-05
-3.0833478e-05
-3.15407357e-05
-3.14738542e-05
-3.07293867e-05
-3.08804894e-05
-3.15318016e-05
-3.14935173e-05
-3.06672939e-05
-3.05997458e-05
-3.05385186e-05
-3.07325791e-05
-3.15278637e-05
-3.1460474e-05
-3.05726332e-05
-3.07008864e-05
-3.15314102e-05
-3.14530573e-05
-3.05905793e-05
-3.07171849e-05
-3.15322171e-05
-3.14529083e-05
-3.05978019e-05
-3.07183476e-05
-3.15322515e-05
-3.14539464e-05
-3.05963642e-05
-3.07107504e-05
-3.15324601e-05
-3.14580774e-05
-3.06013618e-05
-3.07028733e-05
-3.15329146e-05
-3.1464539e-05
-3.05934299e-05
-3.06815645e-05
-3.15329256e-05
-3.14734118e-05
-3.058098e-05
-3.06499708e-05
-3.15328593e-05
-3.14857922e-05
-3.05773977e-05
-3.06170818e-05
-3.15339814e-05
-3.15025971e-05
-3.05763473e-05
-3.05822452e-05
-3.15365157e-05
-3.1523948e-05
-3.05751003e-05
-3.05463948e-05
-3.15373196e-05
-3.15371014e-05
-3.05977692e-05
-3.05553795e-05
-3.15160059e-05
-3.15385539e-05
-3.06419366e-05
-3.05547027e-05
-3.14875684e-05
-3.1536151e-05
-3.0685858e-05
-3.05490436e-05
-3.14546507e-05
-3.15323654e-05
-3.07564495e-05
-3.05608257e-05
-3.14223113e-05
-3.1531627e-05
-3.08493373e-05
-3.05895045e-05
-3.13837981e-05
-3.15356714e-05
-3.0923807e-05
-3.06460075e-05
-3.13128452e-05
-3.15351405e-05
-3.09552643e-05
-3.0813932e-05
-3.1332454e-05
-3.09049904e-05
-3.05355262e-05
-3.11771547e-05
-3.15205717e-05
-3.09167546e-05
-3.06625987e-05
-3.11502152e-05
-3.15241935e-05
-3.09148487e-05
-3.07176676e-05
-3.11802652e-05
-3.15012314e-05
-3.09012095e-05
-3.04040933e-05
-3.04110589e-05
-3.13388125e-05
-3.15457114e-05
-3.09384438e-05
-3.07909172e-05
-3.13266132e-05
-3.08961547e-05
-3.05534424e-05
-3.12502227e-05
-3.15398371e-05
-3.09325332e-05
-3.06461045e-05
-3.13682002e-05
-3.15625744e-05
-3.09387333e-05
-3.06900048e-05
-3.1422247e-05
-3.15696933e-05
-3.09273047e-05
-3.06997294e-05
-3.14524876e-05
-3.15641603e-05
-3.08782835e-05
-3.04198689e-05
-3.04217177e-05
-3.14873182e-05
-3.16013002e-05
-3.08725059e-05
-3.06282893e-05
-3.15007145e-05
-3.16219873e-05
-3.08118678e-05
-3.05948738e-05
-3.15544884e-05
-3.1626588e-05
-3.08306195e-05
-3.02739842e-05
-3.03095004e-05
-3.16294636e-05
-3.16558848e-05
-3.05322348e-05
-3.03512034e-05
-3.1676717e-05
-3.16721455e-05
-3.16872694e-05
-3.16859675e-05
-3.07959373e-05
-3.17152353e-05
-3.17490372e-05
-3.04886649e-05
-3.04804644e-05
-3.17604403e-05
-3.17937014e-05
-3.05657141e-05
-3.05522712e-05
-3.1797311e-05
-3.1843623e-05
-3.18107063e-05
-3.18664793e-05
-3.18302832e-05
-3.18894129e-05
-3.18665267e-05
-3.19139149e-05
-3.19052572e-05
-3.19396735e-05
-3.19398258e-05
-3.19626879e-05
-3.19664625e-05
-2.94821766e-05
-2.92472253e-05
-2.93200367e-05
-2.95473789e-05
-2.94557357e-05
-3.00689677e-05
-2.93812756e-05
-2.93982862e-05
-2.95885449e-05
-2.97978922e-05
-2.97306668e-05
-3.00697824e-05
-2.95272229e-05
-2.94675555e-05
-2.95610654e-05
-2.98541e-05
-2.97261702e-05
-2.98616713e-05
-3.03260591e-05
-2.96797095e-05
-2.99068236e-05
-2.95914086e-05
-3.04468277e-05
-2.9683752e-05
-3.06832275e-05
-3.14992321e-05
-3.15509826e-05
-3.2399419e-05
-3.24226931e-05
-3.2447329e-05
-3.23107561e-05
-3.24034179e-05
-3.23551127e-05
-3.23926524e-05
-3.21877722e-05
-3.28512316e-05
-3.27125068e-05
-3.24927439e-05
-3.25506619e-05
-3.29164165e-05
-3.28036638e-05
-3.27653129e-05
-3.28657475e-05
-3.29589327e-05
-3.29929956e-05
-3.30180267e-05
-3.30964244e-05
-3.35566663e-05
-3.36164492e-05
-3.35877583e-05
-3.35650642e-05
-3.30705002e-05
-3.33845498e-05
-3.34391024e-05
-3.32054239e-05
-3.35736192e-05
-3.43903471e-05
-3.42889235e-05
-3.34460118e-05
-3.37131931e-05
-3.45473003e-05
-3.4551444e-05
-3.41425085e-05
-3.44273173e-05
-3.49719942e-05
-3.48954717e-05
-3.49804865e-05
-3.48294529e-05
-3.48000919e-05
-3.47145086e-05
-3.51525687e-05
-3.3771899e-05
-3.43404597e-05
-3.40885198e-05
-3.46686531e-05
-3.43947122e-05
-3.49562707e-05
-3.46063954e-05
-3.55833295e-05
-3.38091215e-05
-3.31291412e-05
-3.32244099e-05
-3.48130861e-05
-3.44211887e-05
-3.28612366e-05
-3.37992386e-05
-3.37761186e-05
-3.71999014e-05
-3.49511992e-05
-3.49626311e-05
-3.54112628e-05
-3.40793158e-05
-3.43980529e-05
-3.47212301e-05
-3.51477587e-05
-3.56489116e-05
-3.51664649e-05
-3.57544336e-05
-3.61960968e-05
-3.67753552e-05
-3.72259202e-05
-3.78016525e-05
-3.82554571e-05
-3.86588082e-05
-3.87089267e-05
-3.93185377e-05
-3.97934325e-05
-4.03738312e-05
-4.08149953e-05
-4.13344771e-05
-4.17548387e-05
-4.22979802e-05
-4.14574028e-05
-4.17340071e-05
-4.20261092e-05
-4.22730495e-05
-4.26803241e-05
-4.31148477e-05
-4.36537341e-05
-4.37525017e-05
-4.38975788e-05
-4.39816898e-05
-4.41689172e-05
-4.43190944e-05
-4.46119493e-05
-4.48278987e-05
-4.50975326e-05
-4.52916677e-05
-4.55386553e-05
-4.57169455e-05
-4.5956373e-05
-4.61262136e-05
-4.63652975e-05
-4.65310474e-05
-4.67601925e-05
-4.68964784e-05
-4.7115062e-05
-4.72695571e-05
-4.75288091e-05
-4.76983092e-05
-4.79721026e-05
-4.81482646e-05
-4.84623574e-05
-4.87050928e-05
-4.91001157e-05
-4.93392921e-05
-4.97079803e-05
-4.99037717e-05
-5.02275271e-05
-5.04074909e-05
-5.06979101e-05
-5.08572566e-05
-5.10776919e-05
-5.12207202e-05
-5.14533737e-05
-5.16227878e-05
-5.18800608e-05
-5.20745212e-05
-5.23523194e-05
-5.25708939e-05
-5.2858975e-05
-5.30937475e-05
-5.33923033e-05
-5.36268756e-05
-5.39330014e-05
-5.41708202e-05
-5.44768432e-05
-5.47096097e-05
-5.50114535e-05
-5.52358909e-05
-5.55242233e-05
-5.5744217e-05
-5.60254054e-05
-5.62442974e-05
-5.65139182e-05
-5.6725714e-05
-5.69688718e-05
-5.71739025e-05
-5.74106232e-05
-5.76209546e-05
-5.78568358e-05
-5.8077301e-05
-5.83205214e-05
-5.85397635e-05
-5.87864855e-05
-5.90088984e-05
-5.92659111e-05
-5.94868089e-05
-5.97450741e-05
-5.99648101e-05
-6.02180887e-05
-6.0436138e-05
-6.06849328e-05
-6.0901185e-05
-6.11459722e-05
-6.1360323e-05
-6.16013336e-05
-6.18136753e-05
-6.20510456e-05
-6.22614033e-05
-6.24952557e-05
-6.2703649e-05
-6.2934106e-05
-6.31406314e-05
-6.33677494e-05
-6.35723288e-05
-6.37960521e-05
-6.39987015e-05
-6.42190867e-05
-6.44197367e-05
-6.46377253e-05
-6.48386104e-05
-6.50550512e-05
-6.52539236e-05
-6.54664701e-05
-6.56609774e-05
-6.58663828e-05
-6.60567451e-05
-6.62581519e-05
-6.64458037e-05
-6.66435376e-05
-6.6828562e-05
-6.70227285e-05
-6.72051797e-05
-6.73959202e-05
-6.75758755e-05
-6.77633322e-05
-6.79408822e-05
-6.81252122e-05
-6.83004945e-05
-6.84819202e-05
-6.86550622e-05
-6.88337057e-05
-6.90047486e-05
-6.91807293e-05
-6.93498136e-05
-6.95233005e-05
-6.96904815e-05
-6.98615037e-05
-7.00267511e-05
-7.01953582e-05
-7.03587953e-05
-7.05251423e-05
-7.06868471e-05
-7.08510155e-05
-7.10110585e-05
-7.11731408e-05
-7.13316059e-05
-7.14916976e-05
-7.16486731e-05
-7.18068657e-05
-7.19624371e-05
-7.21188167e-05
-7.22754968e-05
-7.24344617e-05
-7.25909024e-05
-7.27482458e-05
-7.29034777e-05
-7.30592433e-05
-7.32132494e-05
-7.33674746e-05
-7.35201981e-05
-7.3674077e-05
-7.3830734e-05
-7.39854549e-05
-7.41398944e-05
-7.42918941e-05
-7.44440968e-05
-7.45938602e-05
-7.47433175e-05
-7.48896165e-05
-7.50359549e-05
-7.5179109e-05
-7.53224843e-05
-7.54626404e-05
-7.56032278e-05
-7.57405429e-05
-7.58784131e-05
-7.6012949e-05
-7.61482437e-05
-7.62802006e-05
-7.64129872e-05
-7.65423503e-05
-7.66726844e-05
-7.67996717e-05
-7.69276631e-05
-7.70522116e-05
-7.7177889e-05
-7.73002665e-05
-7.74236808e-05
-7.75437427e-05
-7.76650423e-05
-7.77830818e-05
-7.79019856e-05
-7.801802e-05
-7.81348986e-05
-7.82488082e-05
-7.83634615e-05
-7.84754788e-05
-7.85877113e-05
-7.86978166e-05
-7.88079458e-05
-7.89159118e-05
-7.9024156e-05
-7.91305939e-05
-7.92368446e-05
-7.93421433e-05
-7.94466073e-05
-7.95504563e-05
-7.96529691e-05
-7.9754629e-05
-7.98550878e-05
-7.99546063e-05
-8.00533447e-05
-8.01509502e-05
-8.02485626e-05
-8.03432819e-05
-8.04410308e-05
-8.05324277e-05
-8.06282683e-05
-8.07141868e-05
-8.0809713e-05
-8.08913442e-05
-8.09935865e-05
-8.10751535e-05
-8.11807918e-05
-8.12585308e-05
-8.13678815e-05
-8.14380649e-05
-8.15494902e-05
-8.16122395e-05
-8.17341625e-05
-8.17809513e-05
-8.18994941e-05
-8.19449915e-05
-8.21251152e-05
-8.21055147e-05
-8.21276339e-05
-8.22558172e-05
-8.27782264e-05
-8.24080417e-05
-8.21585456e-05
-8.25585864e-05
-8.35123336e-05
-8.26721639e-05
-8.21466523e-05
-8.2976987e-05
-8.47174739e-05
-8.26761043e-05
-8.23872689e-05
-8.37637364e-05
-8.50176868e-05
-8.25755877e-05
-8.26321333e-05
-8.5039451e-05
-8.56819301e-05
-8.28148513e-05
-8.28560525e-05
-8.5479509e-05
-8.60678184e-05
-8.30491632e-05
-8.30572376e-05
-8.60790184e-05
-8.63426309e-05
-8.32017243e-05
-8.32938812e-05
-8.63651404e-05
-8.65834355e-05
-8.33960783e-05
-8.35625176e-05
-8.66874568e-05
-8.68132308e-05
-8.37080756e-05
-8.37758846e-05
-8.69668104e-05
-8.70135e-05
-8.40700416e-05
-8.39711685e-05
-8.72538767e-05
-8.72045327e-05
-8.44017442e-05
-8.41528316e-05
-8.74186397e-05
-8.73760515e-05
-8.47160287e-05
-8.43203411e-05
-8.75233245e-05
-8.75258108e-05
-8.51096726e-05
-8.44682767e-05
-8.76660892e-05
-8.76488158e-05
-8.52543774e-05
-8.46186373e-05
-8.78042532e-05
-8.77564234e-05
-8.52105786e-05
-8.48431952e-05
-8.79411212e-05
-8.78540104e-05
-8.53067352e-05
-8.50655306e-05
-8.80536079e-05
-8.79722499e-05
-8.53718048e-05
-8.53475595e-05
-8.81076222e-05
-8.80374991e-05
-8.54277646e-05
-8.59709097e-05
-8.82036203e-05
-8.8023867e-05
-8.55553798e-05
-8.73031888e-05
-8.83119949e-05
-8.78058992e-05
-8.56907131e-05
-8.78387873e-05
-8.84059544e-05
-8.79923937e-05
-8.58281134e-05
-8.79563266e-05
-8.85001626e-05
-8.81804832e-05
-8.59763627e-05
-8.81508881e-05
-8.85968329e-05
-8.83217549e-05
-8.6119682e-05
-8.83059722e-05
-8.86903519e-05
-8.84499071e-05
-8.62654581e-05
-8.84400897e-05
-8.87813781e-05
-8.85720894e-05
-8.64075961e-05
-8.8560482e-05
-8.88760002e-05
-8.86892788e-05
-8.65497176e-05
-8.86750827e-05
-8.89711572e-05
-8.88024128e-05
-8.66953952e-05
-8.87864441e-05
-8.90690631e-05
-8.89124635e-05
-8.68385269e-05
-8.88939271e-05
-8.91695517e-05
-8.90195289e-05
-8.69865278e-05
-8.89995929e-05
-8.92698687e-05
-8.91241337e-05
-8.71322366e-05
-8.91040379e-05
-8.93721022e-05
-8.92278873e-05
-8.72780888e-05
-8.92089413e-05
-8.94744476e-05
-8.93300914e-05
-8.7422593e-05
-8.93182452e-05
-8.95791584e-05
-8.94298665e-05
-8.75672822e-05
-8.9441711e-05
-8.96850063e-05
-8.95384382e-05
-8.77147659e-05
-8.95623145e-05
-8.97903795e-05
-8.9655544e-05
-8.78640301e-05
-8.9681841e-05
-8.98996707e-05
-8.97739881e-05
-8.80120694e-05
-8.98025296e-05
-9.00086836e-05
-8.98933074e-05
-8.81584478e-05
-8.99243029e-05
-9.01216246e-05
-9.00142917e-05
-8.8303944e-05
-9.00479981e-05
-9.02393559e-05
-9.01390042e-05
-8.84468603e-05
-9.01671104e-05
-9.03577054e-05
-9.02724508e-05
-8.85870139e-05
-9.02385338e-05
-9.04764118e-05
-9.03780375e-05
-8.87272119e-05
-9.03052972e-05
-9.05938303e-05
-9.04823807e-05
-8.88642376e-05
-9.03488113e-05
-9.07094779e-05
-9.05943666e-05
-8.90114355e-05
-9.03377766e-05
-9.08230415e-05
-9.07143799e-05
-8.91546414e-05
-9.02439607e-05
-9.09249465e-05
-9.0851252e-05
-8.9289676e-05
-9.00422688e-05
-9.10184181e-05
-9.09675189e-05
-8.94297673e-05
-8.99145951e-05
-9.11178803e-05
-9.10891774e-05
-8.95850776e-05
-8.99154798e-05
-9.12289164e-05
-9.12151197e-05
-8.97505896e-05
-8.99212336e-05
-9.13452923e-05
-9.13404344e-05
-8.99165599e-05
-8.99927858e-05
-9.14638781e-05
-9.14643899e-05
-9.00761263e-05
-9.0135729e-05
-9.15814233e-05
-9.15895488e-05
-9.02259494e-05
-9.02957519e-05
-9.16972009e-05
-9.17197457e-05
-9.03576151e-05
-9.04692558e-05
-9.18006742e-05
-9.18524303e-05
-9.04442256e-05
-9.06282426e-05
-9.19064719e-05
-9.19696148e-05
-9.0554499e-05
-9.07616468e-05
-9.20225973e-05
-9.20690764e-05
-9.06926601e-05
-9.08787965e-05
-9.21452253e-05
-9.2168842e-05
-9.08223225e-05
-9.09855115e-05
-9.22535267e-05
-9.22725254e-05
-9.0936728e-05
-9.10796758e-05
-9.23553751e-05
-9.23751809e-05
-9.10398841e-05
-9.11787921e-05
-9.24513309e-05
-9.24752791e-05
-9.11332823e-05
-9.12835379e-05
-9.25398658e-05
-9.25747721e-05
-9.12135319e-05
-9.13917548e-05
-9.26200872e-05
-9.26650956e-05
-9.13038678e-05
-9.14755722e-05
-9.27099977e-05
-9.27482555e-05
-9.14035463e-05
-9.15514348e-05
-9.27980821e-05
-9.28301028e-05
-9.14953663e-05
-9.16281065e-05
-9.28809134e-05
-9.29081573e-05
-9.15783504e-05
-9.17049619e-05
-9.29615686e-05
-9.29880073e-05
-9.16444047e-05
-9.17843131e-05
-9.30342217e-05
-9.30600615e-05
-9.17150566e-05
-9.1854631e-05
-9.31044488e-05
-9.31279604e-05
-9.17862673e-05
-9.19176539e-05
-9.31718214e-05
-9.31918861e-05
-9.18560099e-05
-9.19806689e-05
-9.32296372e-05
-9.32537118e-05
-9.1919568e-05
-9.20343194e-05
-9.32885987e-05
-9.33122852e-05
-9.19774763e-05
-9.20856791e-05
-9.33431521e-05
-9.33656874e-05
-9.20327692e-05
-9.21344713e-05
-9.33944318e-05
-9.34169224e-05
-9.20802494e-05
-9.21818872e-05
-9.344161e-05
-9.3464031e-05
-9.21244931e-05
-9.22262145e-05
-9.34853441e-05
-9.35077237e-05
-9.21655483e-05
-9.22673196e-05
-9.35258106e-05
-9.35482056e-05
-9.22036009e-05
-9.23054183e-05
-9.35630492e-05
-9.35851065e-05
-9.22390373e-05
-9.23422908e-05
-9.3596873e-05
-9.36202455e-05
-9.22680557e-05
-9.23765862e-05
-9.36284697e-05
-9.36508405e-05
-9.22964458e-05
-9.24088502e-05
-9.36572515e-05
-9.36791212e-05
-9.23212184e-05
-9.2433171e-05
-9.36887688e-05
-9.37061879e-05
-9.23426013e-05
-9.24580298e-05
-9.37139276e-05
-9.37290722e-05
-9.23664304e-05
-9.24796597e-05
-9.37364421e-05
-9.37508319e-05
-9.23875486e-05
-9.24970603e-05
-9.3759091e-05
-9.37705492e-05
-9.24064595e-05
-9.25181375e-05
-9.3775917e-05
-9.37895388e-05
-9.24194708e-05
-9.25362645e-05
-9.37923181e-05
-9.3805307e-05
-9.24339337e-05
-9.25508203e-05
-9.38073764e-05
-9.38199861e-05
-9.24475847e-05
-9.25638396e-05
-9.38196152e-05
-9.38331459e-05
-9.24606882e-05
-9.2573626e-05
-9.38306615e-05
-9.38441728e-05
-9.24745982e-05
-9.2580778e-05
-9.38406683e-05
-9.38541037e-05
-9.24869024e-05
-9.25882108e-05
-9.3848556e-05
-9.38628284e-05
-9.24961509e-05
-9.25955648e-05
-9.38555653e-05
-9.38707404e-05
-9.25028023e-05
-9.26025091e-05
-9.38611694e-05
-9.3876529e-05
-9.2509187e-05
-9.2606968e-05
-9.38672583e-05
-9.3881095e-05
-9.25151813e-05
-9.2611654e-05
-9.38714042e-05
-9.38859128e-05
-9.2518614e-05
-9.26165374e-05
-9.38739632e-05
-9.38897279e-05
-9.25208054e-05
-9.26205469e-05
-9.3876121e-05
-9.38923449e-05
-9.25225621e-05
-9.26234874e-05
-9.38778512e-05
-9.3894097e-05
-9.25239744e-05
-9.26253187e-05
-9.38790748e-05
-9.38951112e-05
-9.25251569e-05
-9.26261612e-05
-9.38797609e-05
-9.38956521e-05
-9.25259801e-05
-9.26262743e-05
-9.38797693e-05
-9.38958774e-05
-9.25263611e-05
-9.26257527e-05
-9.38791167e-05
-9.38957039e-05
-9.25264314e-05
-9.26246803e-05
-9.38780628e-05
-9.38943188e-05
-9.25265833e-05
-9.26253476e-05
-9.38763034e-05
-9.38939702e-05
-9.25219557e-05
-9.26317606e-05
-9.38701534e-05
-9.38917179e-05
-9.25181622e-05
-9.26342366e-05
-9.38672012e-05
-9.38906463e-05
-9.25123445e-05
-9.26319193e-05
-9.38660641e-05
-9.38869409e-05
-9.25129074e-05
-9.26201952e-05
-9.38712763e-05
-9.38837038e-05
-9.25126121e-05
-9.26197641e-05
-9.38685127e-05
-9.38827795e-05
-9.25040565e-05
-9.26206281e-05
-9.38659164e-05
-9.38796062e-05
-9.24986482e-05
-9.26186754e-05
-9.3863842e-05
-9.38760323e-05
-9.24956037e-05
-9.26157159e-05
-9.38612381e-05
-9.38727542e-05
-9.24921375e-05
-9.26136373e-05
-9.38574178e-05
-9.38698677e-05
-9.24880513e-05
-9.26102149e-05
-9.38538432e-05
-9.38663351e-05
-9.24857449e-05
-9.26054463e-05
-9.38505234e-05
-9.38632692e-05
-9.24831621e-05
-9.2601167e-05
-9.38461707e-05
-9.38597627e-05
-9.24810619e-05
-9.25950445e-05
-9.38428787e-05
-9.38550387e-05
-9.24809437e-05
-9.25894929e-05
-9.38391171e-05
-9.38522705e-05
-9.24779425e-05
-9.25857255e-05
-9.38338463e-05
-9.38487689e-05
-9.24753123e-05
-9.25802474e-05
-9.3829798e-05
-9.38447022e-05
-9.24740291e-05
-9.2574609e-05
-9.38254955e-05
-9.38410467e-05
-9.2471839e-05
-9.25700598e-05