/*--------------------------------*- C++ -*----------------------------------*\
| =========                 |                                                 |
| \\      /  F ield         | OpenFOAM: The Open Source CFD Toolbox           |
|  \\    /   O peration     | Version:  2306                                  |
|   \\  /    A nd           | Website:  www.openfoam.com                      |
|    \\/     M anipulation  |                                                 |
\*---------------------------------------------------------------------------*/
FoamFile
{
    version     2.0;
    format      ascii;
    arch        "LSB;label=32;scalar=64";
    class       volScalarField;
    location    "0.00184";
    object      prefDPV_H2O;
}
// * * * * * * * * * * * * * * * * * * * * * * * * * * * * * * * * * * * * * //

dimensions      [1 -1 -1 0 0 0 0];

internalField   nonuniform List<scalar> 
531
(
-3.84552241e-07
-3.6646111e-07
-3.63588888e-07
-3.63594543e-07
-3.85059521e-07
-3.84413823e-07
-3.84404774e-07
-3.84379183e-07
-3.66553893e-07
-3.64091602e-07
-3.6349404e-07
-3.63459911e-07
-3.8538377e-07
-3.8437743e-07
-3.6444217e-07
-3.64271208e-07
-3.85684157e-07
-3.83876462e-07
-3.84868394e-07
-3.67373017e-07
-3.63195036e-07
-3.64295101e-07
-3.85082925e-07
-3.8389389e-07
-3.84332391e-07
-3.66524497e-07
-3.64131651e-07
-3.63570051e-07
-3.63532236e-07
-3.85438588e-07
-3.84398878e-07
-3.64213244e-07
-3.63440857e-07
-3.85864962e-07
-3.843517e-07
-3.84884989e-07
-3.84236334e-07
-3.66235369e-07
-3.64658483e-07
-3.84852755e-07
-3.84104811e-07
-3.66436833e-07
-3.64966856e-07
-3.64197759e-07
-3.64216276e-07
-3.85156264e-07
-3.83899619e-07
-3.8450026e-07
-3.66799988e-07
-3.64817844e-07
-3.84934202e-07
-3.83916308e-07
-3.66120497e-07
-3.65815446e-07
-3.8512514e-07
-3.67127661e-07
-3.64879239e-07
-3.85019899e-07
-3.83679997e-07
-3.84037372e-07
-3.69252116e-07
-3.65367483e-07
-3.64713333e-07
-3.646905e-07
-3.85044344e-07
-3.83701619e-07
-3.84138257e-07
-3.67140879e-07
-3.64602963e-07
-3.64504309e-07
-3.84742738e-07
-3.84209444e-07
-3.6862596e-07
-3.64086249e-07
-3.65235061e-07
-3.85088822e-07
-3.67485838e-07
-3.63539231e-07
-3.85119962e-07
-3.84562499e-07
-3.661023e-07
-3.63165194e-07
-3.63073286e-07
-3.8550892e-07
-3.84376321e-07
-3.84460448e-07
-3.84280805e-07
-3.72742089e-07
-3.64020096e-07
-3.64500585e-07
-3.84851541e-07
-3.83732163e-07
-3.83885553e-07
-3.67242946e-07
-3.6484869e-07
-3.64735173e-07
-3.84895471e-07
-3.84168519e-07
-3.68713382e-07
-3.64309561e-07
-3.65426993e-07
-3.85089203e-07
-3.68026505e-07
-3.63878065e-07
-3.85169026e-07
-3.84493545e-07
-3.66573764e-07
-3.63646903e-07
-3.63633905e-07
-3.85234305e-07
-3.84122896e-07
-3.84188782e-07
-3.65672689e-07
-3.6387375e-07
-3.62843091e-07
-3.627914e-07
-3.86274401e-07
-3.84583121e-07
-3.85131491e-07
-3.84467904e-07
-3.64893642e-07
-3.63775616e-07
-3.86419363e-07
-3.84272222e-07
-3.85114929e-07
-3.839942e-07
-3.84103533e-07
-3.66310707e-07
-3.6371417e-07
-3.6358248e-07
-3.85740129e-07
-3.84649047e-07
-3.66085312e-07
-3.62138057e-07
-3.62659323e-07
-3.85774055e-07
-3.8436023e-07
-3.84677798e-07
-3.65433533e-07
-3.63256475e-07
-3.86339868e-07
-3.8452914e-07
-3.84791049e-07
-3.84421373e-07
-3.66355429e-07
-3.64425513e-07
-3.63530433e-07
-3.63534274e-07
-3.86142746e-07
-3.84243243e-07
-3.84676979e-07
-3.65927616e-07
-3.61664244e-07
-3.62346158e-07
-3.8603626e-07
-3.84563037e-07
-3.85009949e-07
-3.84259795e-07
-3.84327266e-07
-3.65660167e-07
-3.63860928e-07
-3.63105078e-07
-3.63066126e-07
-3.86381069e-07
-3.84433385e-07
-3.8510641e-07
-3.84078817e-07
-3.84340985e-07
-3.66464966e-07
-3.6405978e-07
-3.63946181e-07
-3.63856057e-07
-3.86374557e-07
-3.84370854e-07
-3.84679684e-07
-3.8428967e-07
-3.6640719e-07
-3.64455679e-07
-3.64208485e-07
-3.64165638e-07
-3.86150137e-07
-3.84262109e-07
-3.84488178e-07
-3.84172462e-07
-3.66992111e-07
-3.64926217e-07
-3.64767919e-07
-3.64659808e-07
-3.86016518e-07
-3.84217625e-07
-3.65645659e-07
-3.64312159e-07
-3.86010143e-07
-3.84325719e-07
-3.65848366e-07
-3.64016218e-07
-3.85994536e-07
-3.84511886e-07
-3.66019329e-07
-3.63203994e-07
-3.63457993e-07
-3.85630807e-07
-3.84199831e-07
-3.84612883e-07
-3.83907881e-07
-3.83961988e-07
-3.66732874e-07
-3.6518864e-07
-3.64836696e-07
-3.64804246e-07
-3.85865854e-07
-3.8419448e-07
-3.65278301e-07
-3.64689724e-07
-3.86239195e-07
-3.84045064e-07
-3.84518726e-07
-3.66084076e-07
-3.63512554e-07
-3.63435657e-07
-3.63208479e-07
-3.86661018e-07
-3.84608325e-07
-3.84882726e-07
-3.84620562e-07
-3.65109074e-07
-3.62384193e-07
-3.62517591e-07
-3.85627292e-07
-3.84447668e-07
-3.84533118e-07
-3.84239482e-07
-3.65706232e-07
-3.65019431e-07
-3.8574451e-07
-3.66065487e-07
-3.64772184e-07
-3.85931985e-07
-3.83933998e-07
-3.84313336e-07
-3.66426748e-07
-3.64045694e-07
-3.64307471e-07
-3.63965171e-07
-3.86143355e-07
-3.84400555e-07
-3.84577503e-07
-3.84362759e-07
-3.65662171e-07
-3.64142864e-07
-3.63653885e-07
-3.63755639e-07
-3.85858749e-07
-3.84420028e-07
-3.84803848e-07
-3.64992267e-07
-3.63522658e-07
-3.86286868e-07
-3.84465102e-07
-3.85015039e-07
-3.84301813e-07
-3.84677e-07
-3.655734e-07
-3.63322376e-07
-3.63457431e-07
-3.6343246e-07
-3.86178671e-07
-3.84582285e-07
-3.64235504e-07
-3.63592802e-07
-3.86072819e-07
-3.84540706e-07
-3.64046517e-07
-3.63718637e-07
-3.86046323e-07
-3.84450997e-07
-3.84786229e-07
-3.64783452e-07
-3.63631059e-07
-3.85974893e-07
-3.84380917e-07
-3.8483157e-07
-3.84216912e-07
-3.84536596e-07
-3.65607735e-07
-3.6362112e-07
-3.63849172e-07
-3.63780724e-07
-3.85637889e-07
-3.84322829e-07
-3.64395066e-07
-3.64378066e-07
-3.85232437e-07
-3.83852922e-07
-3.84540845e-07
-3.68001969e-07
-3.63376635e-07
-3.64856379e-07
-3.62872532e-07
-3.63054088e-07
-3.84973727e-07
-3.84466161e-07
-3.84324777e-07
-3.84407771e-07
-3.6516995e-07
-3.63590311e-07
-3.84882068e-07
-3.8448843e-07
-3.65732936e-07
-3.85103375e-07
-3.83897839e-07
-3.6485796e-07
-3.64628822e-07
-3.63904631e-07
-3.64098832e-07
-3.84576017e-07
-3.84064044e-07
-3.84129503e-07
-3.65120123e-07
-3.64790535e-07
-3.84662469e-07
-3.6517635e-07
-3.64589191e-07
-3.84727823e-07
-3.83846702e-07
-3.84189009e-07
-3.6598217e-07
-3.64259054e-07
-3.84332556e-07
-3.84090677e-07
-3.65687622e-07
-3.64437082e-07
-3.64666351e-07
-3.84246881e-07
-3.83973321e-07
-3.65620962e-07
-3.64531661e-07
-3.84273164e-07
-3.84061693e-07
-3.65553063e-07
-3.64346137e-07
-3.64738838e-07
-3.8431111e-07
-3.8387256e-07
-3.65064417e-07
-3.6480066e-07
-3.8437825e-07
-3.83855435e-07
-3.64769065e-07
-3.6529464e-07
-3.84181076e-07
-3.83715378e-07
-3.84078754e-07
-3.66207882e-07
-3.64330034e-07
-3.65073489e-07
-3.84123832e-07
-3.84021304e-07
-3.64958047e-07
-3.64068309e-07
-3.64430431e-07
-3.84233134e-07
-3.83983899e-07
-3.64797056e-07
-3.64488504e-07
-3.84197044e-07
-3.83980516e-07
-3.64913519e-07
-3.64910171e-07
-3.84073101e-07
-3.83793554e-07
-3.64691755e-07
-3.65938214e-07
-3.84171715e-07
-3.67265354e-07
-3.63969083e-07
-3.83666909e-07
-3.84307875e-07
-3.65505083e-07
-3.63444026e-07
-3.64833987e-07
-3.84309092e-07
-3.83941653e-07
-3.8411488e-07
-3.64864364e-07
-3.65172845e-07
-3.84066479e-07
-3.83867809e-07
-3.8411922e-07
-3.65758912e-07
-3.64293787e-07
-3.65019602e-07
-3.84052585e-07
-3.84081169e-07
-3.65093183e-07
-3.64389909e-07
-3.64672015e-07
-3.84063895e-07
-3.8415989e-07
-3.64919705e-07
-3.63983389e-07
-3.64365512e-07
-3.84150125e-07
-3.84258872e-07
-3.64411359e-07
-3.6327906e-07
-3.6409593e-07
-3.84091504e-07
-3.84061671e-07
-3.83848377e-07
-3.83978031e-07
-3.65808932e-07
-3.65325033e-07
-3.83537654e-07
-3.83749863e-07
-3.66135028e-07
-3.66123665e-07
-3.83308972e-07
-3.83686968e-07
-3.68227862e-07
-3.65889184e-07
-3.65882722e-07
-3.65754815e-07
-3.83567097e-07
-3.83771212e-07
-3.65647331e-07
-3.65627188e-07
-3.83644023e-07
-3.83924001e-07
-3.65590259e-07
-3.65245965e-07
-3.64866992e-07
-3.65007004e-07
-3.84068985e-07
-3.84272549e-07
-3.63716921e-07
-3.64218718e-07
-3.84233205e-07
-3.84376126e-07
-3.84313039e-07
-3.84436759e-07
-3.63233139e-07
-3.64040009e-07
-3.84310695e-07
-3.64165485e-07
-3.64354255e-07
-3.84270386e-07
-3.83856851e-07
-3.84389352e-07
-3.6618836e-07
-3.63601604e-07
-3.65793641e-07
-3.84268843e-07
-3.64911548e-07
-3.64711833e-07
-3.84098427e-07
-3.83897588e-07
-3.84307643e-07
-3.65791136e-07
-3.63373281e-07
-3.65409001e-07
-3.84319923e-07
-3.64536587e-07
-3.64235835e-07
-3.84037499e-07
-3.8404336e-07
-3.84127389e-07
-3.65242895e-07
-3.64245671e-07
-3.83891334e-07
-3.84139188e-07
-3.64684629e-07
-3.65398105e-07
-3.84049433e-07
-3.83697199e-07
-3.8416556e-07
-3.66327816e-07
-3.64185356e-07
-3.64819752e-07
-3.64337855e-07
-3.84034943e-07
-3.84248642e-07
-3.63573302e-07
-3.64493141e-07
-3.84167429e-07
-3.83908076e-07
-3.84194398e-07
-3.65647514e-07
-3.64219887e-07
-3.8362929e-07
-3.84103226e-07
-3.65698776e-07
-3.65090395e-07
-3.83605205e-07
-3.84041411e-07
-3.6556992e-07
-3.65091353e-07
-3.64986238e-07
-3.65040468e-07
-3.83833969e-07
-3.84116438e-07
-3.64746173e-07
-3.64931699e-07
-3.83802327e-07
-3.84075815e-07
-3.65083335e-07
-3.65260001e-07
-3.8369803e-07
-3.83917303e-07
-3.65530533e-07
-3.65628407e-07
-3.83592701e-07
-3.8393536e-07
-3.65800302e-07
-3.65442373e-07
-3.65308695e-07
-3.65300872e-07
-3.83768073e-07
-3.84105267e-07
-3.64998875e-07
-3.64690239e-07
-3.83794523e-07
-3.84361965e-07
-3.64968042e-07
-3.63792566e-07
-3.6452371e-07
-3.84297429e-07
-3.84175968e-07
-3.64029963e-07
-3.6458513e-07
-3.84229845e-07
)
;

boundaryField
{
    closed
    {
        type            calculated;
        value           nonuniform List<scalar> 0();
    }
    open
    {
        type            calculated;
        value           nonuniform List<scalar> 0();
    }
    sides
    {
        type            empty;
    }
    procBoundary3to2
    {
        type            processor;
        value           uniform -3.83852653e-07;
    }
    procBoundary3to4
    {
        type            processor;
        value           uniform -3.84023633e-07;
    }
}


// ************************************************************************* //
