/*--------------------------------*- C++ -*----------------------------------*\
| =========                 |                                                 |
| \\      /  F ield         | OpenFOAM: The Open Source CFD Toolbox           |
|  \\    /   O peration     | Version:  2306                                  |
|   \\  /    A nd           | Website:  www.openfoam.com                      |
|    \\/     M anipulation  |                                                 |
\*---------------------------------------------------------------------------*/
FoamFile
{
    version     2.0;
    format      ascii;
    arch        "LSB;label=32;scalar=64";
    class       volScalarField;
    location    "0.00184";
    object      prefDZ_H;
}
// * * * * * * * * * * * * * * * * * * * * * * * * * * * * * * * * * * * * * //

dimensions      [1 -1 -1 0 0 0 0];

internalField   nonuniform List<scalar> 
531
(
0.000110141898
0.000107687623
0.000105558407
0.000105676772
0.000110148634
0.000110196451
0.000110176246
0.000110216911
0.000107716859
0.000105981422
0.000105544407
0.000105555988
0.000110137115
0.000110199143
0.000106158338
0.000106143706
0.000110108332
0.000110240432
0.000110082672
0.000107893171
0.000105267847
0.000106176375
0.000110182408
0.000110254425
0.000110221352
0.000107725499
0.000106026617
0.000105625274
0.000105634685
0.000110173978
0.000110241232
0.000106018088
0.000105604476
0.000110089308
0.00011025495
0.00011008699
0.000110277845
0.000107473697
0.000106438308
0.00011026822
0.000110266045
0.0001076718
0.000106619195
0.00010608789
0.000106107647
0.000110236238
0.000110244938
0.000110221892
0.000107898098
0.000106545012
0.000110221638
0.000110295636
0.000107387346
0.00010724349
0.000110218714
0.000107890668
0.000106554512
0.000110243061
0.00011029046
0.000110225162
0.000107810298
0.000106934976
0.000106478766
0.000106490799
0.000110289185
0.000110334904
0.000110253122
0.000107820667
0.000106338142
0.000106364876
0.000110235218
0.000110255902
0.000107852751
0.000105976783
0.000106830045
0.000110202261
0.000107881549
0.000105603503
0.000110214356
0.000110189101
0.000107463103
0.000105277642
0.000105358202
0.000110091579
0.000110258206
0.000110139971
0.000110252518
0.00010791333
0.000105990217
0.000106342086
0.000110265352
0.000110314059
0.00011029355
0.000107825991
0.000106505679
0.000106519506
0.000110170431
0.000110248125
0.000107868441
0.000106119243
0.000106948302
0.000110163616
0.000107886479
0.000105821242
0.000110135648
0.000110168652
0.000107758526
0.000105612214
0.000105706737
0.000110105615
0.000110251839
0.000110215626
0.000107159003
0.000105848602
0.000105078588
0.000105095162
0.000109971351
0.000110187531
0.000110034154
0.000110213325
0.0001065079
0.000105803813
0.000109933162
0.000110219735
0.000110044858
0.000110271332
0.000110227868
0.000107625634
0.000105641985
0.000105698541
0.000109998982
0.00011020477
0.0001073908
0.00010456505
0.000104992652
0.000110046638
0.00011019624
0.000110160798
0.000106915384
0.000105408274
0.000109891213
0.000110159242
0.000110048383
0.000110164966
0.000107613436
0.000106177971
0.00010556503
0.000105566961
0.000109981259
0.000110187918
0.000110163177
0.000107314752
0.000104197545
0.000104755652
0.000109947275
0.000110163528
0.0001100617
0.000110227906
0.000110186651
0.000107160895
0.000105805805
0.000105251104
0.000105248591
0.000109878917
0.000110167812
0.000110025378
0.000110242563
0.000110221534
0.000107721986
0.000105969375
0.000105840852
0.000105847276
0.000109864416
0.000110197231
0.000110081829
0.000110217398
0.000107682887
0.000106253798
0.000106049221
0.000106070372
0.000109899115
0.000110213965
0.000110111099
0.00011023427
0.000107868524
0.00010658397
0.000106437477
0.000106421254
0.000109913238
0.000110226286
0.000107026081
0.00010617186
0.000109908755
0.000110215688
0.000107168602
0.000105951832
0.000109918556
0.000110178385
0.00010737474
0.000105297662
0.000105563123
0.000109968617
0.000110210689
0.000110113187
0.000110260044
0.000110255031
0.000107875282
0.000106743484
0.000106473351
0.000106482683
0.000109914127
0.000110191428
0.000106778156
0.000106414704
0.000109883362
0.000110226248
0.00011018042
0.000107454205
0.000105593603
0.000105492096
0.000105411086
0.000109790174
0.000110203752
0.000110081563
0.000110203931
0.000106812229
0.000104766962
0.000104931216
0.000109983118
0.000110220516
0.00011014445
0.000110244464
0.000107150982
0.000106657689
0.000109953596
0.000107389091
0.000106442456
0.000109915882
0.000110239032
0.000110196777
0.000107692693
0.000105958876
0.000106116871
0.000105919451
0.000109843136
0.000110182689
0.000110102072
0.000110182738
0.000107167266
0.0001059877
0.000105678303
0.000105708201
0.000109936854
0.000110135917
0.000110105274
0.000106596646
0.000105585061
0.000109796497
0.000110143291
0.000110014676
0.000110166095
0.000110129615
0.000107060369
0.000105398828
0.000105470601
0.000105489626
0.000109812621
0.000110120122
0.000106027873
0.000105595758
0.000109863599
0.000110122654
0.000105930322
0.000105690938
0.000109887267
0.00011013929
0.000110113059
0.000106466336
0.000105673122
0.000109868831
0.000110167836
0.000110083195
0.000110189932
0.000110185274
0.000107097504
0.000105653321
0.000105785918
0.000105778697
0.000109945202
0.000110190076
0.00010620931
0.000106180403
0.000110066023
0.00011020814
0.000110219954
0.000107871165
0.000105498832
0.00010657614
0.00010515551
0.000105313426
0.000110119033
0.000110248843
0.000110226396
0.000110264076
0.000106818003
0.000105682697
0.000110083835
0.000110177281
0.000107220687
0.00011006333
0.000110302229
0.000106591315
0.000106432935
0.000105929919
0.000106059996
0.000110228869
0.000110289367
0.000110307166
0.000106815255
0.000106567099
0.000110202445
0.000106848577
0.000106428416
0.00011018832
0.000110315665
0.000110309676
0.000107403217
0.000106204663
0.000110191127
0.000110307081
0.000107216818
0.000106278696
0.000106507933
0.000110226218
0.000110340139
0.000107133589
0.000106388587
0.0001102106
0.000110299572
0.000107130232
0.00010620407
0.000106573176
0.000110219416
0.00011036476
0.000106739882
0.000106602927
0.000110221778
0.00011033307
0.000106577993
0.000106902856
0.000110337389
0.00011029513
0.000110366769
0.000107553944
0.000106246431
0.000106771544
0.00011029738
0.000110321036
0.00010672522
0.000106044532
0.000106360549
0.000110258454
0.000110357621
0.000106564876
0.000106386784
0.000110250848
0.000110339567
0.000106661247
0.000106659594
0.000110300908
0.000110336108
0.000106525404
0.000107360752
0.000110356264
0.000107846743
0.000106006187
0.000110293664
0.000110310329
0.000107088978
0.000105595209
0.000106621542
0.000110273582
0.0001103124
0.000110299525
0.000106631201
0.000106791408
0.000110332953
0.000110248815
0.000110339093
0.000107207477
0.000106198592
0.000106714816
0.000110279939
0.000110295486
0.000106775877
0.000106250213
0.000106492945
0.000110271515
0.000110306685
0.000106657471
0.000105982116
0.000106292567
0.000110285873
0.000110327469
0.000106325097
0.000105530024
0.000106131206
0.000110327364
0.000110356347
0.000110333002
0.000110368599
0.000107290742
0.00010695088
0.000110368865
0.000110341561
0.000107546912
0.000107470698
0.000110432626
0.000110317317
0.000107732887
0.000107312389
0.000107387089
0.000107240917
0.000110402009
0.000110336305
0.000107201005
0.000107125422
0.000110358013
0.000110283134
0.000107143151
0.000106822075
0.000106632429
0.000106663689
0.000110330871
0.000110236577
0.000105859149
0.000106111258
0.000110339932
0.000110213664
0.000110322901
0.000110228693
0.00010551081
0.000106003808
0.000110324279
0.000106098817
0.000106267402
0.000110281579
0.000110279377
0.000110294047
0.000107511793
0.00010568918
0.000107256532
0.000110303895
0.000106651442
0.000106492469
0.00011032945
0.000110265559
0.000110332065
0.000107238144
0.000105559747
0.000107002084
0.000110318087
0.000106413728
0.00010617501
0.000110358324
0.000110270204
0.000110366739
0.000106853234
0.000106202352
0.00011029895
0.000110303394
0.00010650947
0.000106963258
0.000110360385
0.000110277529
0.000110359261
0.000107611684
0.000106141699
0.00010660628
0.000106251291
0.000110363647
0.000110292829
0.000105793655
0.000106359012
0.000110394066
0.000110296917
0.000110388573
0.000107157466
0.000106195933
0.000110333799
0.000110317224
0.000107217503
0.000106746958
0.00011036436
0.000110276931
0.000107145622
0.000106729781
0.000106742668
0.000106718177
0.000110378093
0.000110288546
0.00010659121
0.000106643132
0.000110381043
0.000110290438
0.000106819038
0.00010686996
0.000110378497
0.000110295212
0.000107114558
0.000107111152
0.000110372146
0.0001102712
0.000107300745
0.000106958767
0.000106957148
0.000106879384
0.000110367104
0.000110257602
0.000106747971
0.000106436851
0.000110348758
0.000110221569
0.0001067253
0.000105782602
0.000106419362
0.000110232533
0.000110313172
0.000106001882
0.000106420578
0.000110284429
)
;

boundaryField
{
    closed
    {
        type            calculated;
        value           nonuniform List<scalar> 0();
    }
    open
    {
        type            calculated;
        value           nonuniform List<scalar> 0();
    }
    sides
    {
        type            empty;
    }
    procBoundary3to2
    {
        type            processor;
        value           uniform 0.000110255601;
    }
    procBoundary3to4
    {
        type            processor;
        value           uniform 0.000110267542;
    }
}


// ************************************************************************* //
