/*--------------------------------*- C++ -*----------------------------------*\
| =========                 |                                                 |
| \\      /  F ield         | OpenFOAM: The Open Source CFD Toolbox           |
|  \\    /   O peration     | Version:  2306                                  |
|   \\  /    A nd           | Website:  www.openfoam.com                      |
|    \\/     M anipulation  |                                                 |
\*---------------------------------------------------------------------------*/
FoamFile
{
    version     2.0;
    format      ascii;
    arch        "LSB;label=32;scalar=64";
    class       volScalarField;
    location    "0.00184";
    object      prefDZ_T;
}
// * * * * * * * * * * * * * * * * * * * * * * * * * * * * * * * * * * * * * //

dimensions      [1 -1 -1 -1 0 0 0];

internalField   nonuniform List<scalar> 
531
(
-1.22835007e-09
-1.19066645e-09
-1.18600383e-09
-1.18582812e-09
-1.2295959e-09
-1.22800421e-09
-1.22798394e-09
-1.22791705e-09
-1.19089781e-09
-1.18675303e-09
-1.18575631e-09
-1.18564031e-09
-1.23039304e-09
-1.22791444e-09
-1.18747157e-09
-1.18699699e-09
-1.23113303e-09
-1.22667757e-09
-1.22913353e-09
-1.19239895e-09
-1.18534381e-09
-1.18700963e-09
-1.22964983e-09
-1.22671925e-09
-1.22780153e-09
-1.1907859e-09
-1.18679226e-09
-1.18584251e-09
-1.18571871e-09
-1.23052356e-09
-1.2279632e-09
-1.18704402e-09
-1.18550633e-09
-1.23157845e-09
-1.2278459e-09
-1.22917383e-09
-1.22756005e-09
-1.19040719e-09
-1.18761348e-09
-1.22907613e-09
-1.22723748e-09
-1.19062356e-09
-1.18820098e-09
-1.18687933e-09
-1.18689909e-09
-1.22982441e-09
-1.2267342e-09
-1.22821432e-09
-1.19128793e-09
-1.18789247e-09
-1.22928067e-09
-1.22677089e-09
-1.19022631e-09
-1.18957253e-09
-1.22974977e-09
-1.19189519e-09
-1.18805848e-09
-1.229489e-09
-1.22618929e-09
-1.22707517e-09
-1.19617132e-09
-1.18881042e-09
-1.18770265e-09
-1.18761209e-09
-1.22954458e-09
-1.22623893e-09
-1.22732095e-09
-1.19186026e-09
-1.18762975e-09
-1.18728906e-09
-1.22880902e-09
-1.22749587e-09
-1.19492605e-09
-1.18674537e-09
-1.18861103e-09
-1.22966228e-09
-1.19261933e-09
-1.18578981e-09
-1.2297375e-09
-1.22837054e-09
-1.1900125e-09
-1.18524494e-09
-1.18485828e-09
-1.23070515e-09
-1.22790615e-09
-1.22812452e-09
-1.22767174e-09
-1.20341837e-09
-1.18652977e-09
-1.18731961e-09
-1.22907342e-09
-1.22631585e-09
-1.22669534e-09
-1.19207367e-09
-1.1880567e-09
-1.18769235e-09
-1.22919071e-09
-1.22739587e-09
-1.19511853e-09
-1.18715178e-09
-1.18896595e-09
-1.2296672e-09
-1.1937292e-09
-1.18640451e-09
-1.22986615e-09
-1.22820302e-09
-1.19087096e-09
-1.18608314e-09
-1.1858916e-09
-1.23002968e-09
-1.22728326e-09
-1.22744874e-09
-1.18930208e-09
-1.18634629e-09
-1.18464587e-09
-1.18447599e-09
-1.23259604e-09
-1.22842139e-09
-1.22978534e-09
-1.22813558e-09
-1.18818623e-09
-1.18613793e-09
-1.23295602e-09
-1.22765366e-09
-1.22974343e-09
-1.22696475e-09
-1.22723779e-09
-1.19032295e-09
-1.1862272e-09
-1.18575716e-09
-1.2312832e-09
-1.22858174e-09
-1.19010989e-09
-1.18344809e-09
-1.18426276e-09
-1.23136062e-09
-1.22787241e-09
-1.22865682e-09
-1.18904933e-09
-1.1852984e-09
-1.23276698e-09
-1.2282915e-09
-1.22894725e-09
-1.22802589e-09
-1.19049107e-09
-1.18738923e-09
-1.18582689e-09
-1.18583473e-09
-1.23227227e-09
-1.22758539e-09
-1.22865456e-09
-1.18977519e-09
-1.18266824e-09
-1.1837459e-09
-1.2320157e-09
-1.22837441e-09
-1.22948366e-09
-1.22762232e-09
-1.22779225e-09
-1.1892595e-09
-1.18638077e-09
-1.18511677e-09
-1.18501108e-09
-1.23286956e-09
-1.22805515e-09
-1.22972477e-09
-1.22717561e-09
-1.22782265e-09
-1.19060386e-09
-1.18668109e-09
-1.18656828e-09
-1.18629735e-09
-1.23285561e-09
-1.22789845e-09
-1.22866978e-09
-1.22769681e-09
-1.19050523e-09
-1.18734519e-09
-1.18697731e-09
-1.18681585e-09
-1.2323011e-09
-1.22762933e-09
-1.22819572e-09
-1.22740684e-09
-1.19159847e-09
-1.18814457e-09
-1.18794005e-09
-1.18764858e-09
-1.23197176e-09
-1.22751872e-09
-1.18948123e-09
-1.18706773e-09
-1.23195673e-09
-1.22778565e-09
-1.18982344e-09
-1.18658442e-09
-1.23191718e-09
-1.22824715e-09
-1.18993733e-09
-1.18532324e-09
-1.18562325e-09
-1.23101883e-09
-1.22747639e-09
-1.22850218e-09
-1.22675321e-09
-1.22688688e-09
-1.19107459e-09
-1.18863504e-09
-1.18807946e-09
-1.1879663e-09
-1.23160228e-09
-1.22746505e-09
-1.18883986e-09
-1.18774927e-09
-1.23252143e-09
-1.22709401e-09
-1.22826377e-09
-1.18997401e-09
-1.18572963e-09
-1.18567379e-09
-1.18515762e-09
-1.2335676e-09
-1.22848175e-09
-1.22916887e-09
-1.22851181e-09
-1.18826241e-09
-1.18383441e-09
-1.18396041e-09
-1.2310084e-09
-1.22808513e-09
-1.22830279e-09
-1.22757081e-09
-1.18942178e-09
-1.18828697e-09
-1.23129962e-09
-1.19005165e-09
-1.18794375e-09
-1.23176419e-09
-1.22681939e-09
-1.227757e-09
-1.19054612e-09
-1.18665804e-09
-1.18714977e-09
-1.18649132e-09
-1.23229213e-09
-1.22797292e-09
-1.22841636e-09
-1.22787995e-09
-1.18925274e-09
-1.18689119e-09
-1.18599597e-09
-1.18623876e-09
-1.2315819e-09
-1.22802551e-09
-1.22897245e-09
-1.18831857e-09
-1.18577239e-09
-1.23265039e-09
-1.22813563e-09
-1.22950156e-09
-1.22773164e-09
-1.22865808e-09
-1.18919376e-09
-1.18549995e-09
-1.18576953e-09
-1.18566864e-09
-1.23238296e-09
-1.22842621e-09
-1.18709209e-09
-1.18595531e-09
-1.23211643e-09
-1.2283237e-09
-1.18670873e-09
-1.18616089e-09
-1.23204827e-09
-1.22810135e-09
-1.22892831e-09
-1.18793413e-09
-1.185939e-09
-1.23187567e-09
-1.22792609e-09
-1.22904298e-09
-1.2275204e-09
-1.22830723e-09
-1.18922541e-09
-1.18594295e-09
-1.18637983e-09
-1.18619472e-09
-1.23103915e-09
-1.227781e-09
-1.18724539e-09
-1.18724613e-09
-1.23002955e-09
-1.22662251e-09
-1.22831429e-09
-1.1936656e-09
-1.18549513e-09
-1.18794998e-09
-1.18461071e-09
-1.1848754e-09
-1.22938835e-09
-1.22812793e-09
-1.22778233e-09
-1.22798295e-09
-1.18843653e-09
-1.18580612e-09
-1.229167e-09
-1.22818958e-09
-1.18936302e-09
-1.22971294e-09
-1.22672485e-09
-1.18792631e-09
-1.18753494e-09
-1.18629737e-09
-1.18663844e-09
-1.2283999e-09
-1.2271351e-09
-1.22729465e-09
-1.18829017e-09
-1.18776923e-09
-1.22861496e-09
-1.18839634e-09
-1.18742502e-09
-1.22877698e-09
-1.22659782e-09
-1.22744084e-09
-1.18976146e-09
-1.18685285e-09
-1.22780483e-09
-1.22719912e-09
-1.18922997e-09
-1.18724598e-09
-1.18750755e-09
-1.22759071e-09
-1.22690753e-09
-1.18919362e-09
-1.18732694e-09
-1.22765684e-09
-1.22712843e-09
-1.18899014e-09
-1.18711077e-09
-1.18760198e-09
-1.22774936e-09
-1.22665752e-09
-1.18826703e-09
-1.18773174e-09
-1.22791429e-09
-1.22661789e-09
-1.18768396e-09
-1.18865094e-09
-1.22741897e-09
-1.22627607e-09
-1.22716483e-09
-1.19015185e-09
-1.18698744e-09
-1.18823345e-09
-1.22728154e-09
-1.22702721e-09
-1.1879726e-09
-1.18657614e-09
-1.18707678e-09
-1.22755392e-09
-1.22693214e-09
-1.18779301e-09
-1.1872015e-09
-1.22746581e-09
-1.22692529e-09
-1.18796116e-09
-1.18795421e-09
-1.22715639e-09
-1.22646527e-09
-1.18755093e-09
-1.18971291e-09
-1.22739438e-09
-1.19213781e-09
-1.18635279e-09
-1.22615678e-09
-1.22773316e-09
-1.18892581e-09
-1.18553074e-09
-1.1877968e-09
-1.22773941e-09
-1.22683187e-09
-1.22725933e-09
-1.18787009e-09
-1.18849661e-09
-1.22713739e-09
-1.22665551e-09
-1.22726665e-09
-1.1894706e-09
-1.18696629e-09
-1.18817942e-09
-1.22710772e-09
-1.22717672e-09
-1.18828489e-09
-1.18715765e-09
-1.18755271e-09
-1.22713629e-09
-1.22736946e-09
-1.18798707e-09
-1.18643669e-09
-1.18700875e-09
-1.22734724e-09
-1.22761117e-09
-1.18708544e-09
-1.18516531e-09
-1.18650325e-09
-1.22719944e-09
-1.22712364e-09
-1.22660052e-09
-1.22691682e-09
-1.18945479e-09
-1.18864908e-09
-1.22583232e-09
-1.22635723e-09
-1.18993586e-09
-1.19006364e-09
-1.22526408e-09
-1.22620425e-09
-1.1940074e-09
-1.18966036e-09
-1.18948255e-09
-1.18938941e-09
-1.22590239e-09
-1.22641023e-09
-1.18913719e-09
-1.18922935e-09
-1.22609523e-09
-1.2267909e-09
-1.18907907e-09
-1.18865937e-09
-1.18787568e-09
-1.18823839e-09
-1.22714373e-09
-1.2276529e-09
-1.18587292e-09
-1.18689994e-09
-1.22754698e-09
-1.22790984e-09
-1.22774478e-09
-1.22805753e-09
-1.18506544e-09
-1.18656435e-09
-1.22773889e-09
-1.18676569e-09
-1.1870212e-09
-1.22764349e-09
-1.22662587e-09
-1.22793496e-09
-1.19018027e-09
-1.18582784e-09
-1.18947806e-09
-1.22763773e-09
-1.18797393e-09
-1.18767281e-09
-1.2272163e-09
-1.22672738e-09
-1.22773072e-09
-1.18950802e-09
-1.18538636e-09
-1.18880482e-09
-1.22776212e-09
-1.1872951e-09
-1.18683752e-09
-1.227064e-09
-1.22708587e-09
-1.22728448e-09
-1.18859004e-09
-1.18681745e-09
-1.22670911e-09
-1.22731881e-09
-1.18755955e-09
-1.18884846e-09
-1.2270932e-09
-1.22623276e-09
-1.22737899e-09
-1.19040743e-09
-1.18674822e-09
-1.18778296e-09
-1.18700181e-09
-1.22705728e-09
-1.227589e-09
-1.18556828e-09
-1.18726658e-09
-1.22738079e-09
-1.22675051e-09
-1.22744756e-09
-1.1892273e-09
-1.18675278e-09
-1.22606083e-09
-1.22722914e-09
-1.1892633e-09
-1.1883321e-09
-1.2259991e-09
-1.22708048e-09
-1.18901083e-09
-1.18836774e-09
-1.18802432e-09
-1.1882361e-09
-1.22656146e-09
-1.22726411e-09
-1.18758957e-09
-1.18805048e-09
-1.22648333e-09
-1.22716398e-09
-1.18817039e-09
-1.18860959e-09
-1.22622668e-09
-1.22677337e-09
-1.18895239e-09
-1.18926176e-09
-1.2259677e-09
-1.2268199e-09
-1.18940683e-09
-1.18899247e-09
-1.18858637e-09
-1.1887157e-09
-1.22640006e-09
-1.22723936e-09
-1.18805242e-09
-1.18771066e-09
-1.22646664e-09
-1.22787426e-09
-1.18800283e-09
-1.18622235e-09
-1.18724607e-09
-1.22771448e-09
-1.22740846e-09
-1.18653836e-09
-1.1874274e-09
-1.2275435e-09
)
;

boundaryField
{
    closed
    {
        type            calculated;
        value           nonuniform List<scalar> 0();
    }
    open
    {
        type            calculated;
        value           nonuniform List<scalar> 0();
    }
    sides
    {
        type            empty;
    }
    procBoundary3to2
    {
        type            processor;
        value           uniform -1.22661759e-09;
    }
    procBoundary3to4
    {
        type            processor;
        value           uniform -1.22703754e-09;
    }
}


// ************************************************************************* //
