/*--------------------------------*- C++ -*----------------------------------*\
| =========                 |                                                 |
| \\      /  F ield         | OpenFOAM: The Open Source CFD Toolbox           |
|  \\    /   O peration     | Version:  2306                                  |
|   \\  /    A nd           | Website:  www.openfoam.com                      |
|    \\/     M anipulation  |                                                 |
\*---------------------------------------------------------------------------*/
FoamFile
{
    version     2.0;
    format      ascii;
    arch        "LSB;label=32;scalar=64";
    class       volScalarField;
    location    "0.00184";
    object      rho;
}
// * * * * * * * * * * * * * * * * * * * * * * * * * * * * * * * * * * * * * //

dimensions      [1 -3 0 0 0 0 0];

internalField   nonuniform List<scalar> 
531
(
0.904043078
0.940344202
0.965107583
0.963757653
0.903664314
0.903555541
0.903773582
0.903362667
0.940009449
0.96021326
0.965286241
0.965160765
0.903591774
0.90355325
0.958149532
0.958335609
0.903714453
0.903428468
0.904481216
0.93756779
0.968485616
0.957963896
0.903308118
0.90327702
0.903357969
0.939919729
0.959705792
0.964368381
0.964267512
0.903190787
0.903118606
0.959804341
0.964635126
0.903828265
0.903011293
0.904452093
0.902845317
0.942885278
0.954948656
0.902578422
0.903059104
0.940580322
0.952851752
0.959036148
0.958810586
0.902746659
0.903423381
0.903302248
0.937963819
0.953739781
0.903050672
0.902896725
0.943938369
0.945616715
0.902979719
0.937830476
0.953653769
0.902799975
0.903122467
0.90359437
0.93734834
0.949247011
0.954565446
0.954432291
0.902331007
0.902673038
0.90327031
0.938570994
0.956224466
0.955928297
0.90310913
0.903221201
0.937371031
0.960450701
0.950533415
0.903268847
0.937802035
0.964810255
0.903137758
0.903746859
0.943181606
0.968599796
0.967705526
0.90421665
0.903161105
0.904356815
0.903289473
0.934295677
0.960386052
0.956299759
0.902829202
0.903004895
0.903132051
0.938594377
0.954416994
0.954269649
0.903832684
0.903464841
0.937305504
0.958940096
0.949302001
0.903814723
0.937570189
0.962428085
0.904076775
0.904146582
0.939885618
0.96487033
0.963800036
0.904381191
0.903527615
0.903873323
0.946916493
0.962176699
0.971115041
0.970944136
0.905201744
0.903966341
0.905249695
0.903778445
0.954551083
0.962757859
0.905554838
0.903857866
0.905188077
0.90349902
0.903895873
0.941572606
0.964667423
0.964048863
0.905329017
0.903837365
0.944352035
0.977200253
0.972266679
0.904840936
0.904135665
0.904320324
0.94993829
0.96747672
0.906162523
0.904454116
0.905464084
0.904469899
0.941828957
0.958556045
0.965687067
0.965670162
0.905384881
0.90437581
0.904376929
0.945362559
0.981576057
0.975139713
0.905842867
0.904473095
0.905275681
0.903991235
0.904387922
0.947206308
0.962982123
0.969422508
0.969461293
0.906398934
0.904553537
0.905643532
0.90399229
0.904057214
0.940693777
0.961127065
0.962617213
0.962560145
0.906600325
0.904329893
0.905360229
0.904179984
0.941203418
0.957875171
0.960257311
0.960025201
0.906421131
0.904267501
0.905215239
0.904117869
0.938882726
0.954073328
0.955780147
0.955979644
0.906389611
0.904199582
0.948942124
0.958899704
0.906456825
0.904261358
0.947298887
0.961475739
0.906380179
0.904556722
0.944910164
0.969077592
0.966019031
0.906096681
0.90442868
0.9052051
0.904095881
0.904119311
0.93906149
0.952305229
0.955454631
0.955354835
0.9065616
0.904669879
0.951924539
0.956165251
0.906674117
0.904410644
0.904606398
0.944057835
0.965737067
0.966909829
0.967872935
0.907419891
0.904326196
0.9054454
0.904321503
0.95157656
0.975353042
0.973469531
0.906038401
0.904263695
0.90501246
0.904141625
0.947637464
0.953390219
0.906285453
0.944862724
0.955896062
0.906570043
0.904392008
0.904604721
0.94130869
0.961523795
0.959682661
0.961986705
0.907203166
0.904695904
0.905433894
0.904715487
0.947442991
0.961174554
0.96477452
0.96441532
0.906383247
0.905166062
0.905252052
0.954085877
0.96585512
0.907588724
0.905052007
0.9060655
0.904906645
0.905058439
0.94866582
0.967988469
0.967145946
0.966929997
0.907458218
0.90519572
0.960657598
0.965679139
0.906971619
0.905178325
0.961779996
0.964556476
0.9067218
0.90504054
0.90510682
0.955521963
0.964746936
0.906934167
0.904758094
0.905367069
0.904614602
0.904462595
0.94812777
0.964931063
0.963376866
0.963461312
0.906289527
0.904513272
0.958444733
0.958773778
0.90524794
0.904590241
0.904040896
0.938224463
0.966666379
0.954126941
0.970638603
0.968802121
0.904785469
0.903722514
0.904036545
0.903582028
0.951248475
0.96445648
0.905162647
0.904412391
0.946515777
0.905218505
0.90343466
0.953829522
0.95566534
0.96151282
0.959988581
0.903748392
0.90341618
0.903180587
0.951155976
0.95403921
0.903929626
0.950738647
0.955626227
0.904010345
0.903200152
0.90304495
0.94421667
0.958183899
0.904174602
0.903094011
0.946351495
0.957274598
0.954599493
0.903808665
0.902768729
0.947272485
0.95594699
0.903916941
0.90310102
0.947267671
0.958045946
0.953743729
0.9037497
0.90248
0.95176659
0.953353601
0.90364294
0.902782229
0.953611488
0.949811841
0.9025071
0.903225088
0.902240563
0.942172187
0.957406319
0.951278015
0.902900862
0.902704921
0.951787758
0.959699754
0.956016205
0.903192635
0.902293202
0.953601847
0.955668327
0.903255437
0.90244597
0.952438803
0.952447712
0.902764652
0.902555495
0.953979047
0.944227862
0.902083356
0.938135519
0.95998176
0.903020664
0.902445793
0.947339045
0.96471419
0.95276897
0.902794632
0.90260238
0.902623546
0.952620144
0.950742282
0.902276385
0.903272948
0.902163389
0.945859931
0.95760055
0.951582974
0.902792271
0.902603852
0.950847569
0.956956014
0.954126587
0.902834951
0.902399874
0.952187003
0.960036295
0.956421577
0.902595104
0.90208528
0.956021342
0.965261447
0.958266007
0.902160955
0.901868474
0.902237469
0.901778528
0.944719828
0.948676575
0.902025889
0.902177317
0.941701545
0.942591856
0.901472342
0.902447195
0.938323656
0.94441466
0.94353141
0.945235934
0.901604476
0.902165213
0.945684314
0.946563032
0.902000568
0.902611642
0.94634078
0.950076972
0.952283466
0.951911577
0.902000331
0.902862364
0.961269223
0.958319483
0.901789929
0.903024925
0.901913269
0.90282358
0.965295
0.959549149
0.901887194
0.958439304
0.956479477
0.902350862
0.902623199
0.902142025
0.941971413
0.963178943
0.944940795
0.902101303
0.951986197
0.953832675
0.901929418
0.902720383
0.901770267
0.945138969
0.96466527
0.947884807
0.901901107
0.954734564
0.957507498
0.901645204
0.902565091
0.901498881
0.949605838
0.957183125
0.902349756
0.90215069
0.953604303
0.948316973
0.901603131
0.902686601
0.901541946
0.940753498
0.957874646
0.95246869
0.956597965
0.90157018
0.902182623
0.961928921
0.955340976
0.901166923
0.902344204
0.901206885
0.946039254
0.957237888
0.902124669
0.90200927
0.945336102
0.950818516
0.901816749
0.902468308
0.946172007
0.95101635
0.950868892
0.951151944
0.901531443
0.902299275
0.95263339
0.952025044
0.901519401
0.902303949
0.949978215
0.949384132
0.901609894
0.902350714
0.946533522
0.946575381
0.901741455
0.902592475
0.944362726
0.948350977
0.948370322
0.949276201
0.901689083
0.90263344
0.950809513
0.954425978
0.901867014
0.902856714
0.951075148
0.962025982
0.954639477
0.902783036
0.902011152
0.959490165
0.954624955
0.902281701
)
;

boundaryField
{
    closed
    {
        type            calculated;
        value           nonuniform List<scalar> 0();
    }
    open
    {
        type            calculated;
        value           nonuniform List<scalar> 0();
    }
    sides
    {
        type            empty;
    }
    procBoundary3to2
    {
        type            processor;
        value           uniform 0.903275676;
    }
    procBoundary3to4
    {
        type            processor;
        value           uniform 0.902585163;
    }
}


// ************************************************************************* //
