/*--------------------------------*- C++ -*----------------------------------*\
| =========                 |                                                 |
| \\      /  F ield         | OpenFOAM: The Open Source CFD Toolbox           |
|  \\    /   O peration     | Version:  2306                                  |
|   \\  /    A nd           | Website:  www.openfoam.com                      |
|    \\/     M anipulation  |                                                 |
\*---------------------------------------------------------------------------*/
FoamFile
{
    version     2.0;
    format      ascii;
    arch        "LSB;label=32;scalar=64";
    class       volScalarField;
    location    "0.00042";
    object      sourcePV;
}
// * * * * * * * * * * * * * * * * * * * * * * * * * * * * * * * * * * * * * //

dimensions      [1 -3 -1 0 0 0 0];

internalField   nonuniform List<scalar> 
531
(
0.152460716
0.00238464865
0.00469116958
0.138880477
0.153219786
0.005726141
0.00449618197
0.137604142
0.153205806
0.00582955628
0.00441280631
0.137284754
0.152096104
0.00499609348
0.00431225774
0.135317395
0.149675704
0.00277074164
0.00435950934
0.127472416
0.141181211
0.0187084275
0.00600663635
0.0345574574
0.121560459
0.141771031
0.163311686
0.159654914
0.0127998389
0.0057972258
0.0181117359
0.129742893
0.151644223
0.0762772633
0.00522658988
0.00545810875
0.095118605
0.143573173
0.163303894
0.152385797
0.00284665972
0.00321843727
0.137355972
0.136138006
0.00332424375
0.00263339698
0.138478829
0.130067337
0.00321796779
0.0233976172
0.138646105
0.117835924
0.00360255018
0.00455029641
0.112544796
0.167398232
0.119919365
0.00306264849
0.0545347182
0.141472602
0.0906346226
0.00421987501
0.00427755654
0.126956119
0.165726243
0.100822294
0.00372998289
0.0427697359
0.136380054
0.131654843
0.0105417555
0.00605410569
0.0272860737
0.114990571
0.161000302
0.1705059
0.0971067871
0.00370411795
0.0716231956
0.139581925
0.0779156065
0.00439585694
0.00419505597
0.129781325
0.164978949
0.090152142
0.00383247419
0.0778570177
0.148388763
0.0757274663
0.00432710409
0.082341728
0.149543382
0.0733193782
0.00439495988
0.085802049
0.151672947
0.07128102
0.00447041451
0.0892633546
0.151535177
0.0665944352
0.00470089241
0.0923143067
0.143485394
0.0586593924
0.00523910772
0.0320413839
0.107634632
0.159906362
0.166501631
0.0744151985
0.00437029511
0.00329224212
0.142040377
0.168836014
0.0680423278
0.00454801925
0.0967574119
0.148801581
0.0514525353
0.00509857694
0.0996887553
0.144367486
0.0473645132
0.00549167615
0.0332667806
0.120706449
0.15473995
0.149555362
0.00271519668
0.00572947179
0.0801270483
0.158349255
0.152002611
0.00333041449
0.00559499431
0.0931960166
0.162699035
0.109482955
0.00366109239
0.0490600059
0.139962412
0.128493303
0.003279784
0.00566403871
0.0804176172
0.160422375
0.160746105
0.0113726329
0.00561985017
0.0780595417
0.158171301
0.12602375
0.0031119987
0.0357681245
0.139179687
0.1315059
0.00305091882
0.00571335625
0.0765148533
0.157380658
0.158918323
0.0185557457
0.00558899964
0.0689850026
0.152340953
0.156120842
0.0205221538
0.00559259724
0.0680462637
0.152091881
0.156913202
0.019072917
0.00555643566
0.0742015103
0.156998094
0.126879283
0.00296072911
0.075987863
0.145451821
0.0488858637
0.00533585005
0.0225612617
0.122001969
0.160155023
0.118994738
0.003303345
0.0790155016
0.143319088
0.0473266863
0.00552973778
0.0265240116
0.115859295
0.153614214
0.154560963
0.00779483939
0.0056899003
0.0703336561
0.154425018
0.156118206
0.0104863893
0.0056487041
0.0728389298
0.154737165
0.15567983
0.00255067112
0.00558142675
0.077391716
0.159077198
0.15719038
0.00250422492
0.00562546246
0.088238636
0.158738909
0.106783937
0.0039025387
0.00373835623
0.140577551
0.169095798
0.0686249012
0.00477114074
0.0671604862
0.143171824
0.125978712
0.00358420979
0.00634845564
0.00985881309
0.122223798
0.166134197
0.130586362
0.00344370226
0.00288535277
0.127840276
0.166845524
0.164685393
0.0046297266
0.00567976185
0.0729515158
0.146969837
0.101088435
0.00416498485
0.0753488669
0.146233026
0.0663295228
0.00493750904
0.0206855026
0.142081233
0.165658505
0.0805900603
0.00463860769
0.0832295253
0.143755109
0.0748155459
0.00523857384
0.00712037245
0.122845754
0.160931445
0.13116433
0.00359437905
0.00522004178
0.11038442
0.165228157
0.101844558
0.00416251926
0.0753881933
0.14331618
0.0673369093
0.00521695831
0.0238198344
0.13059002
0.163169915
0.111247333
0.00389896139
0.0718351523
0.150716282
0.0648459385
0.00494407433
0.0859964009
0.151405431
0.0722339765
0.00487373963
0.0900625334
0.148619455
0.0597683964
0.00521249163
0.0417157043
0.137663424
0.162484611
0.103914426
0.00421206477
0.0809013619
0.150412069
0.0536776388
0.00519011029
0.09908778
0.147466346
0.0484376204
0.00539186978
0.0470991808
0.138598086
0.161612807
0.0982343672
0.0043894791
0.0870280946
0.151942337
0.044268023
0.00529358076
0.105661811
0.149056144
0.0370488383
0.00543965213
0.0532495685
0.14457409
0.162969989
0.085560177
0.00471780053
0.0986384818
0.14814405
0.0243711716
0.00543302746
0.0536431946
0.153111862
0.163415748
0.0537028063
0.00520993991
0.110621896
0.147158153
0.0173522549
0.00575382694
0.0576368432
0.139933867
0.158681171
0.102293878
0.00487601183
0.00469899275
0.13217691
0.168413711
0.0808869766
0.00486339379
0.106869008
0.147337983
0.00781896829
0.00577657381
0.0566419663
0.143304086
0.161552333
0.0767729704
0.00503433437
0.109780217
0.151750109
0.00196154781
0.00575003665
0.11885525
0.147420514
0.0491961733
0.00577911378
0.0231702167
0.134638656
0.160367326
0.0976060125
0.00529455652
0.00610728258
0.125572526
0.174780618
0.169635815
0.00349600538
0.00572287948
0.109541096
0.140714948
0.0725076775
0.00582139556
0.00610338136
0.0758580124
0.135430105
0.136748409
0.162009542
0.160272919
0.00372410761
0.00592325224
0.128000326
0.145133621
0.0037706352
0.00624369918
0.139355504
0.146995654
0.00252570394
0.00642124933
0.0292686031
0.153635814
0.178712855
0.0938816846
0.0062337619
0.00740131449
0.137165165
0.135950008
0.00795941976
0.125738327
0.202587826
0.067980177
0.0140331636
0.0180320911
0.0213158531
0.0253422625
0.0292395272
0.0326449996
0.0362427284
0.038823259
0.0424021966
0.044830405
0.0483138997
0.050271031
0.0521381652
0.05231119
0.0462266132
0.0374193232
0.0393606388
0.0411004488
0.0450970235
0.0481447335
0.0530985036
0.0581891458
0.0641148312
0.0657083549
0.0548995142
0.0515434031
0.0516558902
0.0575278754
0.0614818445
0.168444076
0.154784367
0.10617214
0.280639201
0.155549024
0.373143271
0.268909105
0.170551937
0.161245304
0.115004056
0.0909299033
0.0931273104
0.141712802
0.197695286
0.21330539
0.519016668
0.671675361
0.829411246
1.08910781
1.44346976
1.92536767
2.48326166
3.17338874
3.85581743
4.70470241
5.29056876
6.08807198
6.40648772
7.08975168
7.2503341
7.91402052
8.13229283
8.98138307
9.17886673
10.2727627
10.5377047
12.2421633
11.5773215
11.3740797
11.1443259
16.6049158
14.4892239
9.07185246
8.8581756
23.6780976
18.2894773
4.14971455
4.76346502
31.4904265
19.3829336
0.0347535471
2.09894507
24.1295914
13.4359015
1.44724593e-08
0.381925694
16.2120984
9.57331198
1.65179644e-08
1.74882673e-08
10.1233664
5.87394202
1.83957142e-08
1.82984322e-08
6.05783154
3.54663349
2.0671075e-08
2.05111222e-08
3.11404011
1.84846515
2.30696442e-08
2.27509495e-08
2.02967018
0.960868212
2.50854662e-08
2.48187802e-08
1.3897793
0.575559135
2.67980884e-08
2.66184098e-08
1.0415023
0.4120578
2.8126871e-08
2.80328489e-08
0.846432852
0.337196594
2.92609237e-08
2.91970973e-08
0.736986984
0.31012513
3.03670498e-08
3.03547563e-08
0.662494889
0.309135157
3.13949527e-08
3.14377994e-08
0.591248797
0.314366742
3.24360829e-08
3.24627966e-08
0.504934265
0.31306937
)
;

boundaryField
{
    closed
    {
        type            calculated;
        value           nonuniform List<scalar> 0();
    }
    open
    {
        type            calculated;
        value           nonuniform List<scalar> 0();
    }
    sides
    {
        type            empty;
    }
    procBoundary4to3
    {
        type            processor;
        value           uniform 0;
    }
    procBoundary4to5
    {
        type            processor;
        value           uniform 0;
    }
}


// ************************************************************************* //
