/*--------------------------------*- C++ -*----------------------------------*\
| =========                 |                                                 |
| \\      /  F ield         | OpenFOAM: The Open Source CFD Toolbox           |
|  \\    /   O peration     | Version:  2306                                  |
|   \\  /    A nd           | Website:  www.openfoam.com                      |
|    \\/     M anipulation  |                                                 |
\*---------------------------------------------------------------------------*/
FoamFile
{
    version     2.0;
    format      ascii;
    arch        "LSB;label=32;scalar=64";
    class       surfaceScalarField;
    location    "0.00128";
    object      phi;
}
// * * * * * * * * * * * * * * * * * * * * * * * * * * * * * * * * * * * * * //

dimensions      [1 0 -1 0 0 0 0];

oriented        oriented;

internalField   nonuniform List<scalar> 
529
(
1.82571138e-06
1.83059736e-06
1.8352188e-06
1.83958503e-06
1.84369436e-06
1.84755932e-06
1.85118059e-06
1.85457214e-06
1.85773513e-06
1.86068379e-06
1.86340758e-06
1.86593111e-06
1.86825625e-06
1.87039404e-06
1.87234658e-06
1.87412331e-06
1.87572658e-06
1.87716484e-06
1.87844042e-06
1.87956144e-06
1.88053002e-06
1.88135438e-06
1.8820198e-06
1.88255149e-06
1.8829507e-06
1.88322635e-06
1.88338015e-06
1.88341188e-06
1.88333192e-06
1.88314876e-06
1.88286407e-06
1.88248583e-06
1.88201612e-06
1.88146181e-06
1.88082568e-06
1.88011329e-06
1.87932788e-06
1.87847391e-06
1.87755471e-06
1.87657388e-06
1.87553454e-06
1.87443972e-06
1.87329212e-06
1.87209438e-06
1.87084879e-06
1.86955773e-06
1.86822309e-06
1.86684714e-06
1.86543148e-06
1.8639783e-06
1.86248916e-06
1.86096608e-06
1.85941094e-06
1.85782533e-06
1.85621196e-06
1.85456382e-06
1.85289115e-06
1.85119615e-06
1.84948093e-06
1.84774792e-06
1.84599953e-06
1.84423797e-06
1.84246626e-06
1.84068612e-06
1.83890125e-06
1.83711274e-06
1.83532489e-06
1.83353815e-06
1.83175723e-06
1.82998198e-06
1.82821722e-06
1.82646238e-06
1.82472202e-06
1.82299535e-06
1.82128629e-06
1.81959418e-06
1.81792176e-06
1.81626895e-06
1.8146368e-06
1.81302646e-06
1.81143643e-06
1.80987029e-06
1.80832248e-06
1.80680057e-06
1.80529312e-06
1.80380665e-06
1.80233214e-06
1.80088033e-06
1.79943999e-06
1.79801803e-06
1.79660523e-06
1.79520685e-06
1.7938143e-06
1.79243263e-06
1.79105301e-06
1.78968107e-06
1.78830697e-06
1.78693781e-06
1.78556172e-06
1.78418831e-06
1.78280268e-06
1.78141169e-06
1.78000337e-06
1.7785929e-06
1.77715974e-06
1.77572141e-06
1.77425596e-06
1.77278114e-06
1.77127327e-06
1.76975126e-06
1.76819459e-06
1.7666176e-06
1.76500283e-06
1.76336066e-06
1.76167742e-06
1.75995925e-06
1.75819608e-06
1.75639037e-06
1.75453475e-06
1.75262917e-06
1.75066784e-06
1.74864925e-06
1.74656846e-06
1.74442321e-06
1.74220897e-06
1.73992316e-06
1.7375615e-06
1.73512132e-06
1.73259863e-06
1.72999077e-06
1.72729409e-06
1.72450609e-06
1.72162354e-06
1.71864415e-06
1.71556521e-06
1.71238477e-06
1.70910067e-06
1.70571141e-06
1.70221549e-06
1.69861195e-06
1.69490001e-06
1.69107939e-06
1.68715017e-06
1.68311285e-06
1.67896849e-06
1.67471859e-06
1.67036531e-06
1.66591138e-06
1.66136024e-06
1.6567161e-06
1.65198389e-06
1.64716963e-06
1.64228002e-06
1.63732319e-06
1.63230794e-06
1.6272449e-06
1.62214536e-06
1.61702275e-06
1.61189133e-06
1.6067676e-06
1.60166925e-06
1.59661597e-06
1.59162937e-06
1.58673226e-06
1.58195053e-06
1.57730989e-06
1.57284072e-06
1.56857124e-06
1.56453605e-06
1.56076563e-06
1.55729777e-06
1.55416518e-06
1.55140734e-06
1.54905852e-06
1.54716219e-06
1.54574771e-06
1.5448747e-06
1.54452119e-06
1.54480268e-06
1.54567856e-06
1.54724188e-06
1.54949973e-06
1.55246886e-06
1.55618826e-06
1.5606695e-06
1.56593381e-06
1.57199224e-06
1.57885147e-06
1.58651745e-06
1.594984e-06
1.60424804e-06
1.61429145e-06
1.62510008e-06
1.63664437e-06
1.64889832e-06
1.66182139e-06
1.67537576e-06
1.68951054e-06
1.70417683e-06
1.71931425e-06
1.73486406e-06
1.75075773e-06
1.76692829e-06
1.78330073e-06
1.79980188e-06
1.81635229e-06
1.8328747e-06
1.84928758e-06
1.86551093e-06
1.88146454e-06
1.89707065e-06
1.91225038e-06
1.92692944e-06
1.94103379e-06
1.95449478e-06
1.96724547e-06
1.97922485e-06
1.99039163e-06
2.00067774e-06
2.01003546e-06
2.01842387e-06
2.02580672e-06
2.03215475e-06
2.0374438e-06
2.04165671e-06
2.0447817e-06
2.04681375e-06
2.04775322e-06
2.04760692e-06
2.04638677e-06
2.04411063e-06
2.0408011e-06
2.03648604e-06
2.03119751e-06
2.02497208e-06
2.01784987e-06
2.00987466e-06
2.00109305e-06
1.99155447e-06
1.98131034e-06
1.97041411e-06
1.95892039e-06
1.94688502e-06
1.93436422e-06
1.92141468e-06
1.90809274e-06
1.89445455e-06
1.88055522e-06
1.86644912e-06
1.85218897e-06
1.83782628e-06
1.82341045e-06
1.80898926e-06
1.79460803e-06
1.78031019e-06
1.76613875e-06
1.75213017e-06
1.73832012e-06
1.72474209e-06
1.71142664e-06
1.69840203e-06
1.68569369e-06
1.67332474e-06
1.66131559e-06
1.6496844e-06
1.6384468e-06
1.62761629e-06
1.61720404e-06
1.60721924e-06
1.597669e-06
1.58855863e-06
1.5798916e-06
1.57166978e-06
1.56389345e-06
1.55656152e-06
1.54967155e-06
1.54321993e-06
1.53720193e-06
1.5316119e-06
1.52644325e-06
1.52168866e-06
1.51734013e-06
1.51338906e-06
1.50982637e-06
1.50664254e-06
1.50382773e-06
1.50137184e-06
1.49926453e-06
1.49749539e-06
1.49605381e-06
1.49492935e-06
1.49411128e-06
1.4935893e-06
1.4933528e-06
1.49339172e-06
1.49371319e-06
1.49428989e-06
1.49511189e-06
1.4961699e-06
1.49745453e-06
1.4989569e-06
1.50066823e-06
1.50258011e-06
1.50468437e-06
1.50697311e-06
1.50943876e-06
1.51207397e-06
1.51487175e-06
1.51782531e-06
1.52092819e-06
1.52417418e-06
1.52755732e-06
1.53107192e-06
1.53471254e-06
1.53847395e-06
1.54235119e-06
1.54633948e-06
1.55043426e-06
1.55463118e-06
1.55892606e-06
1.56331489e-06
1.56779385e-06
1.57235924e-06
1.57700753e-06
1.58173531e-06
1.58653928e-06
1.59141628e-06
1.59636323e-06
1.60137714e-06
1.60645512e-06
1.61159435e-06
1.61679205e-06
1.62204556e-06
1.6273522e-06
1.63270939e-06
1.63811457e-06
1.64356522e-06
1.64905885e-06
1.65459301e-06
1.66016525e-06
1.66577315e-06
1.67141433e-06
1.6770864e-06
1.68278701e-06
1.68851379e-06
1.69426445e-06
1.70003663e-06
1.7058281e-06
1.71163651e-06
1.7174597e-06
1.72329535e-06
1.72914134e-06
1.73499543e-06
1.74085555e-06
1.74672137e-06
1.75258917e-06
1.75845683e-06
1.76432247e-06
1.77018408e-06
1.77603987e-06
1.78188795e-06
1.78772663e-06
1.79355415e-06
1.79936895e-06
1.80516941e-06
1.81095407e-06
1.81672151e-06
1.82247037e-06
1.8281994e-06
1.8339074e-06
1.83959326e-06
1.84525595e-06
1.8508945e-06
1.85650806e-06
1.86209582e-06
1.86765708e-06
1.87319121e-06
1.87869765e-06
1.88417594e-06
1.88962568e-06
1.89504656e-06
1.90043834e-06
1.90580086e-06
1.91113404e-06
1.91643786e-06
1.92171236e-06
1.92695769e-06
1.93217402e-06
1.93736161e-06
1.94252079e-06
1.94765192e-06
1.95275545e-06
1.95783186e-06
1.96288172e-06
1.9679056e-06
1.97290417e-06
1.97787811e-06
1.98282819e-06
1.98775514e-06
1.99265985e-06
1.99754311e-06
2.00242289e-06
2.00728293e-06
2.01212423e-06
2.01694775e-06
2.02175454e-06
2.0265456e-06
2.03132201e-06
2.03608484e-06
2.04083519e-06
2.04557417e-06
2.05030291e-06
2.05502254e-06
2.05973421e-06
2.06443906e-06
2.06913826e-06
2.07383296e-06
2.07852431e-06
2.08321349e-06
2.08790164e-06
2.09258991e-06
2.09727944e-06
2.10197136e-06
2.10666679e-06
2.11136685e-06
2.11607261e-06
2.12078516e-06
2.12550554e-06
2.13023479e-06
2.13497392e-06
2.13972391e-06
2.14448572e-06
2.14926027e-06
2.15404845e-06
2.15885114e-06
2.16366916e-06
2.16850329e-06
2.17335428e-06
2.17822286e-06
2.18310967e-06
2.18801535e-06
2.19294047e-06
2.19788556e-06
2.20285109e-06
2.20783749e-06
2.21284512e-06
2.21787431e-06
2.22292532e-06
2.22799833e-06
2.2330935e-06
2.23821091e-06
2.24335056e-06
2.24852331e-06
2.25408915e-06
2.26007944e-06
2.26652813e-06
2.27347185e-06
2.28095003e-06
2.289005e-06
2.29768194e-06
2.30702878e-06
2.31709593e-06
2.32793573e-06
2.33960164e-06
2.35214693e-06
2.3656229e-06
2.38007617e-06
2.39554513e-06
2.4120551e-06
2.42961197e-06
2.44819392e-06
2.46774119e-06
2.48814325e-06
2.50922347e-06
2.53072101e-06
2.55227024e-06
2.57337799e-06
2.59339985e-06
2.6115178e-06
2.62672337e-06
2.63781399e-06
2.64341499e-06
2.64204594e-06
2.63225278e-06
2.61281973e-06
2.5830434e-06
2.54298797e-06
2.49355083e-06
2.43611619e-06
2.37167783e-06
2.2996852e-06
2.21752956e-06
2.12201725e-06
2.0128844e-06
1.89709793e-06
1.79138892e-06
1.71795063e-06
1.68749859e-06
1.67671299e-06
1.65323681e-06
1.58649374e-06
1.5377326e-06
1.65105815e-06
1.96884743e-06
2.4164606e-06
2.79523323e-06
2.87519916e-06
2.70036452e-06
2.58774141e-06
2.67419272e-06
2.73453624e-06
2.87218112e-06
3.18287696e-06
3.38233877e-06
3.19706265e-06
2.79411582e-06
2.5024308e-06
2.4147893e-06
2.28522621e-06
2.50049352e-06
2.63302213e-06
1.73431294e-06
1.00363528e-06
1.67722454e-06
2.90121834e-06
3.24995402e-06
2.60731623e-06
1.97513999e-06
1.84986104e-06
)
;

boundaryField
{
    closed
    {
        type            calculated;
        value           nonuniform List<scalar> 0();
    }
    open
    {
        type            calculated;
        value           uniform 1.91216295e-06;
    }
    sides
    {
        type            empty;
        value           nonuniform List<scalar> 0();
    }
    procBoundary5to4
    {
        type            processor;
        value           uniform -1.82056798e-06;
    }
}


// ************************************************************************* //
