/*--------------------------------*- C++ -*----------------------------------*\
| =========                 |                                                 |
| \\      /  F ield         | OpenFOAM: The Open Source CFD Toolbox           |
|  \\    /   O peration     | Version:  2306                                  |
|   \\  /    A nd           | Website:  www.openfoam.com                      |
|    \\/     M anipulation  |                                                 |
\*---------------------------------------------------------------------------*/
FoamFile
{
    version     2.0;
    format      ascii;
    arch        "LSB;label=32;scalar=64";
    class       volScalarField;
    location    "0.00128";
    object      prefDh_H;
}
// * * * * * * * * * * * * * * * * * * * * * * * * * * * * * * * * * * * * * //

dimensions      [1 1 -3 0 0 0 0];

internalField   nonuniform List<scalar> 
530
(
92734.5653
92802.7091
92866.172
92931.7466
92992.9393
93056.1275
93115.1925
93176.1679
93233.2408
93292.17
93346.3321
93400.5623
93451.0452
93503.4377
93552.165
93602.817
93649.8668
93698.8698
93744.3186
93791.7605
93835.6828
93881.6494
93924.7529
93972.286
94015.6157
94061.7267
94103.6631
94148.2687
94187.3481
94229.206
94266.9317
94307.4709
94343.8825
94383.1601
94418.2974
94456.3654
94490.2695
94527.1762
94559.8887
94595.6793
94627.242
94661.9602
94692.4139
94726.1022
94755.4868
94788.1873
94816.5415
94848.2959
94875.6573
94906.507
94932.9125
94962.8988
94988.3851
95017.5483
95042.1533
95069.4295
95092.013
95118.2977
95140.0063
95165.4652
95186.3134
95210.9663
95230.9688
95254.834
95274.0063
95297.0998
95315.4587
95337.7943
95355.3573
95376.9471
95393.7322
95414.5871
95430.6123
95450.7427
95466.0255
95485.4422
95499.9987
95518.7144
95532.5582
95550.5886
95563.7303
95581.0967
95593.5422
95610.2754
95622.0223
95637.5439
95648.9489
95663.7547
95675.158
95688.7324
95700.0878
95712.504
95723.7735
95735.0964
95746.2462
95756.5367
95767.5353
95776.8528
95787.6697
95796.0758
95806.678
95814.1971
95824.0461
95830.3634
95839.8695
95845.419
95854.5266
95859.3721
95867.846
95872.032
95880.2244
95883.7337
95891.454
95894.3362
95901.5495
95903.841
95910.5255
95912.2504
95918.3958
95919.5689
95925.1721
95925.8027
95930.8644
95930.9587
95935.4818
95935.0449
95939.0325
95938.069
95941.5247
95940.0391
95942.9667
95940.9633
95943.3668
95940.8498
95942.7333
95939.7069
95941.0747
95937.5433
95938.3997
95934.3675
95934.7173
95930.1884
95930.0363
95925.0153
95924.366
95918.8573
95917.7157
95911.724
95910.0951
95903.6253
95901.5139
95894.5713
95891.9821
95884.5723
95881.51
95873.6391
95870.1081
95861.7825
95857.7873
95849.0138
95844.5589
95835.3443
95830.4347
95820.7855
95815.4272
95805.3488
95799.5496
95789.0458
95782.8154
95771.8884
95765.2387
95753.8892
95746.8324
95735.0618
95727.6098
95715.4199
95707.5953
95694.9731
95686.8335
95674.0865
95665.1736
95652.1752
95642.7222
95629.5216
95619.5123
95606.1311
95595.5695
95582.0099
95570.9154
95557.17
95545.5687
95531.6272
95519.547
95505.3995
95492.8675
95478.5062
95465.548
95450.9673
95437.6065
95422.8032
95409.0618
95394.0351
95379.9337
95364.6843
95350.2428
95334.7732
95320.0103
95304.3247
95289.2991
95273.4989
95258.2127
95242.1944
95226.6167
95210.382
95194.5254
95178.0768
95161.953
95145.2623
95128.777
95111.8031
95095.073
95077.901
95060.9368
95043.5722
95026.3841
95008.8326
94991.4308
94973.6987
94956.0928
94938.1866
94920.3864
94902.3128
94884.3278
94866.0939
94847.9334
94829.5464
94811.2197
94792.6869
94774.2033
94755.5322
94736.9006
94718.0989
94699.3284
94680.4038
94661.5033
94642.4635
94623.442
94604.2948
94585.1612
94565.9143
94546.6775
94527.3387
94508.0076
94488.5845
94469.168
94449.7037
94430.2483
94410.7086
94391.1617
94371.54
94351.911
94332.2159
94312.5141
94292.7543
94272.9889
94253.1728
94233.3529
94213.4891
94193.6236
94173.7207
94153.8183
94133.8848
94113.9543
94093.9986
94074.0485
94054.079
94034.1178
94014.1428
93994.1788
93974.2065
93954.248
93934.2866
93914.3415
93894.3989
93874.4753
93854.5595
93834.6652
93814.7839
93794.9266
93775.0874
93755.2749
93735.485
93715.7252
93695.9917
93676.2921
93656.4901
93636.7142
93616.9796
93597.2928
93577.6508
93558.0595
93538.5159
93519.0264
93499.5872
93480.2053
93460.8762
93441.6078
93422.3946
93403.2451
93384.1534
93365.1283
93346.1636
93327.2681
93308.4356
93289.675
93270.9799
93252.3591
93233.8063
93215.3302
93196.9244
93178.5977
93160.3437
93142.1709
93124.0731
93106.0587
93088.1213
93070.2694
93052.4967
93034.8115
93017.2072
92999.6926
92982.2608
92964.9204
92947.6646
92930.5021
92913.4258
92896.4446
92879.551
92862.7545
92846.0468
92829.4378
92812.9191
92796.5007
92780.1737
92763.9485
92747.816
92731.7866
92715.8512
92700.0197
92684.284
92668.6525
92653.1188
92637.6892
92622.3596
92607.1663
92592.1129
92577.1605
92562.3052
92547.5534
92532.8988
92518.3495
92503.8978
92489.553
92475.3063
92461.1675
92447.1277
92433.1965
92419.3651
92405.6429
92392.0213
92378.5094
92365.0988
92351.7983
92338.5997
92325.5114
92312.5256
92299.6503
92286.878
92274.2164
92261.6579
92249.2104
92236.8662
92224.6331
92212.5033
92200.4846
92188.5693
92176.7649
92165.064
92153.4739
92141.987
92130.6107
92119.3375
92108.1747
92097.1145
92086.1645
92075.3168
92064.5787
92053.9428
92043.4158
92032.9907
92022.6737
92012.3613
92002.0893
91991.9209
91981.8621
91971.9062
91962.059
91952.3139
91942.6766
91933.1407
91923.7116
91914.3831
91905.1604
91896.0374
91887.0192
91878.0999
91869.2841
91860.5664
91851.9511
91843.4329
91835.0159
91826.695
91818.4742
91810.3484
91802.3214
91794.3884
91786.553
91778.8105
91771.1642
91763.6098
91756.1503
91748.7814
91741.5062
91734.3205
91727.227
91720.2218
91713.3075
91706.4803
91699.7426
91693.0908
91686.527
91680.0479
91673.6554
91667.3462
91661.1223
91654.9805
91648.9225
91642.9452
91637.0503
91631.2349
91625.5003
91619.844
91614.2611
91608.5532
91602.5318
91596.1848
91589.5054
91582.4836
91575.115
91567.3928
91559.3163
91550.8834
91542.0984
91532.9655
91523.4958
91513.7019
91503.6031
91493.2225
91482.5898
91471.7404
91460.7157
91449.565
91438.3421
91427.111
91415.9373
91404.8985
91394.0694
91383.5371
91373.3806
91363.6895
91354.5385
91346.0095
91338.1615
91331.0555
91324.7229
91319.1905
91314.4526
91310.4935
91307.2677
91304.718
91302.7677
91301.3312
91300.3209
91299.6426
91299.226
91298.9841
91298.8732
91298.8265
91298.6565
91298.5267
91298.4641
91298.4455
91298.4331
91298.4296
91298.4285
91298.428
91298.4278
91298.4278
91298.4278
91298.4278
91298.4278
91298.4278
91298.4278
91298.4278
91298.4278
91298.4278
91298.4278
91298.4278
91298.4278
91298.4278
91298.4278
91298.4278
91298.4278
91298.4278
91298.4278
91298.4278
91298.4278
91298.4278
91298.4278
91298.4278
)
;

boundaryField
{
    closed
    {
        type            calculated;
        value           nonuniform List<scalar> 0();
    }
    open
    {
        type            calculated;
        value           uniform 91298.4278;
    }
    sides
    {
        type            empty;
    }
    procBoundary5to4
    {
        type            processor;
        value           uniform 92668.6832;
    }
}


// ************************************************************************* //
