/*--------------------------------*- C++ -*----------------------------------*\
| =========                 |                                                 |
| \\      /  F ield         | OpenFOAM: The Open Source CFD Toolbox           |
|  \\    /   O peration     | Version:  2306                                  |
|   \\  /    A nd           | Website:  www.openfoam.com                      |
|    \\/     M anipulation  |                                                 |
\*---------------------------------------------------------------------------*/
FoamFile
{
    version     2.0;
    format      ascii;
    arch        "LSB;label=32;scalar=64";
    class       volScalarField;
    location    "0.0003";
    object      H;
}
// * * * * * * * * * * * * * * * * * * * * * * * * * * * * * * * * * * * * * //

dimensions      [0 0 0 0 0 0 0];

internalField   nonuniform List<scalar> 
530
(
4.44211654e-08
3.76239173e-08
1.12254447e-09
2.31529232e-09
4.71058358e-08
4.16673042e-08
1.09040364e-09
9.22761993e-10
3.79575827e-08
3.8014659e-08
1.56815141e-08
1.34158672e-08
2.49153692e-08
2.80495601e-08
2.16072218e-08
1.96024425e-08
2.22222389e-08
2.33690021e-08
2.23313365e-08
2.19149961e-08
2.23093179e-08
2.23608944e-08
2.20551852e-08
2.21062208e-08
2.25017946e-08
2.24823155e-08
2.20348088e-08
2.19766428e-08
2.23325035e-08
2.24988631e-08
2.22871078e-08
2.2055295e-08
2.2144767e-08
2.23720488e-08
2.23495444e-08
2.21766495e-08
2.21798381e-08
2.23006936e-08
2.22996586e-08
2.21834247e-08
2.21838608e-08
2.23290386e-08
2.23443654e-08
2.21732945e-08
2.21205986e-08
2.22900345e-08
2.23906125e-08
2.22542128e-08
2.21108947e-08
2.21993279e-08
2.23642751e-08
2.23219023e-08
2.21585914e-08
2.21688084e-08
2.23152063e-08
2.23176693e-08
2.2201888e-08
2.21837354e-08
2.22816681e-08
2.23160926e-08
2.22295591e-08
2.21724899e-08
2.2243489e-08
2.23291816e-08
2.22831906e-08
2.21707179e-08
2.21850426e-08
2.23131518e-08
2.23157993e-08
2.22128101e-08
2.21873712e-08
2.22583187e-08
2.22966479e-08
2.22539542e-08
2.22127092e-08
2.22356747e-08
2.22734522e-08
2.22624731e-08
2.22302402e-08
2.22343199e-08
2.226148e-08
2.22607758e-08
2.22389174e-08
2.22373818e-08
2.2253915e-08
2.2258492e-08
2.2246675e-08
2.22378339e-08
2.22426586e-08
2.22588772e-08
2.22597668e-08
2.22446019e-08
2.22313633e-08
2.2237378e-08
2.22689554e-08
2.22725855e-08
2.2235917e-08
2.22116529e-08
2.22400901e-08
2.229198e-08
2.22837913e-08
2.22082339e-08
2.21967148e-08
2.22614969e-08
2.2305488e-08
2.22723131e-08
2.21967697e-08
2.22005484e-08
2.22739464e-08
2.22990896e-08
2.2258783e-08
2.22053908e-08
2.22133863e-08
2.2274042e-08
2.22857534e-08
2.22466723e-08
2.22164094e-08
2.22331674e-08
2.22713374e-08
2.22685236e-08
2.22352231e-08
2.22314015e-08
2.2251978e-08
2.22601391e-08
2.22494128e-08
2.22407753e-08
2.22454828e-08
2.22524815e-08
2.22508871e-08
2.22460783e-08
2.22463508e-08
2.22492592e-08
2.22492901e-08
2.22479339e-08
2.22477403e-08
2.22483065e-08
2.2248478e-08
2.22482616e-08
2.22481545e-08
2.22482301e-08
2.22482864e-08
2.22482617e-08
2.22482362e-08
2.22482432e-08
2.2248254e-08
2.2248252e-08
2.2248248e-08
2.22482484e-08
2.22482499e-08
2.22482497e-08
2.22482493e-08
2.22482493e-08
2.22482495e-08
2.22482494e-08
2.22482494e-08
2.22482494e-08
2.22482494e-08
2.22482494e-08
2.22482494e-08
2.22482494e-08
2.22482494e-08
2.22482494e-08
2.22482494e-08
2.22482494e-08
2.22482494e-08
2.22482494e-08
2.22482494e-08
2.22482494e-08
2.22482494e-08
2.22482494e-08
2.22482494e-08
2.22482494e-08
2.22482494e-08
2.22482494e-08
2.22482494e-08
2.22482494e-08
2.22482494e-08
2.22482494e-08
2.22482494e-08
2.22482495e-08
2.22482495e-08
2.22482493e-08
2.22482491e-08
2.22482497e-08
2.22482505e-08
2.22482496e-08
2.2248246e-08
2.22482463e-08
2.22482584e-08
2.2248262e-08
2.22482341e-08
2.22482083e-08
2.22482569e-08
2.2248359e-08
2.22483249e-08
2.22479981e-08
2.22479689e-08
2.22486258e-08
2.22490119e-08
2.22479942e-08
2.22465592e-08
2.22474414e-08
2.22514603e-08
2.22512643e-08
2.22439309e-08
2.22416506e-08
2.22514826e-08
2.22600087e-08
2.22503931e-08
2.22307498e-08
2.22347883e-08
2.22701939e-08
2.22724641e-08
2.22316493e-08
2.22137275e-08
2.22508989e-08
2.22894273e-08
2.22663703e-08
2.22061218e-08
2.22118726e-08
2.22819202e-08
2.2289984e-08
2.22342489e-08
2.22083562e-08
2.2243582e-08
2.228068e-08
2.22658466e-08
2.22254289e-08
2.22277981e-08
2.22598548e-08
2.22641238e-08
2.22465079e-08
2.22378135e-08
2.22451671e-08
2.22541182e-08
2.22525891e-08
2.22453402e-08
2.22453168e-08
2.22487753e-08
2.22498555e-08
2.22486257e-08
2.22474921e-08
2.22477413e-08
2.22485711e-08
2.2248562e-08
2.22481842e-08
2.22480984e-08
2.22482311e-08
2.22483147e-08
2.22482756e-08
2.22482239e-08
2.22482324e-08
2.22482588e-08
2.22482578e-08
2.22482464e-08
2.22482461e-08
2.22482501e-08
2.22482506e-08
2.22482493e-08
2.2248249e-08
2.22482494e-08
2.22482495e-08
2.22482494e-08
2.22482494e-08
2.22482494e-08
2.22482494e-08
2.22482494e-08
2.22482494e-08
2.22482494e-08
2.22482494e-08
2.22482494e-08
2.22482494e-08
2.22482494e-08
2.22482494e-08
2.22482494e-08
2.22482494e-08
2.22482494e-08
2.22482494e-08
2.22482494e-08
2.22482494e-08
2.22482494e-08
2.22482494e-08
2.22482494e-08
2.22482494e-08
2.22482494e-08
2.22482494e-08
2.22482494e-08
2.22482494e-08
2.22482494e-08
2.22482494e-08
2.22482494e-08
2.22482494e-08
2.22482494e-08
2.22482494e-08
2.22482494e-08
2.22482494e-08
2.22482494e-08
2.22482494e-08
2.22482494e-08
2.22482494e-08
2.22482494e-08
2.22482494e-08
2.22482494e-08
2.22482494e-08
2.22482494e-08
2.22482494e-08
2.22482494e-08
2.22482494e-08
2.22482494e-08
2.22482494e-08
2.22482494e-08
2.22482494e-08
2.22482494e-08
2.22482494e-08
2.22482494e-08
2.22482494e-08
2.22482494e-08
2.22482494e-08
2.22482494e-08
2.22482494e-08
2.22482494e-08
2.22482494e-08
2.22482494e-08
2.22482494e-08
2.22482494e-08
2.22482494e-08
2.22482494e-08
2.22482494e-08
2.22482494e-08
2.22482494e-08
2.22482494e-08
2.22482494e-08
2.22482494e-08
2.22482494e-08
2.22482494e-08
2.22482494e-08
2.22482494e-08
2.22482494e-08
2.22482494e-08
2.22482494e-08
2.22482494e-08
2.22482494e-08
2.22482494e-08
2.22482494e-08
2.22482494e-08
2.22482494e-08
2.22482494e-08
2.22482494e-08
2.22482494e-08
2.22482494e-08
2.22482494e-08
2.22482494e-08
2.22482494e-08
2.22482494e-08
2.22482494e-08
2.22482494e-08
2.22482494e-08
2.22482494e-08
2.22482494e-08
2.22482494e-08
2.22482494e-08
2.22482494e-08
2.22482494e-08
2.22482494e-08
2.22482494e-08
2.22482494e-08
2.22482494e-08
2.22482494e-08
2.22482494e-08
2.22482494e-08
2.22482494e-08
2.22482494e-08
2.22482494e-08
2.22482494e-08
2.22482494e-08
2.22482494e-08
2.22482494e-08
2.22482494e-08
2.22482494e-08
2.22482494e-08
2.22482494e-08
2.22482494e-08
2.22482494e-08
2.22482494e-08
2.22482494e-08
2.22482494e-08
2.22482495e-08
2.22482495e-08
2.2248249e-08
2.22482489e-08
2.22482503e-08
2.22482512e-08
2.22482483e-08
2.22482432e-08
2.22482475e-08
2.22482668e-08
2.22482651e-08
2.22482116e-08
2.22481952e-08
2.22483033e-08
2.22483993e-08
2.22482347e-08
2.22479058e-08
2.22480183e-08
2.22489283e-08
2.22489515e-08
2.22473594e-08
2.22466775e-08
2.22488665e-08
2.22511405e-08
2.22489309e-08
2.2243848e-08
2.22448019e-08
2.22538891e-08
2.22544193e-08
2.2243617e-08
2.223949e-08
2.22498568e-08
2.22587669e-08
2.22509939e-08
2.22374488e-08
2.22410133e-08
2.22579219e-08
2.22574406e-08
2.22418568e-08
2.22394211e-08
2.22508119e-08
2.22556118e-08
2.22484803e-08
2.22428027e-08
2.22465709e-08
2.22518414e-08
2.22502726e-08
2.22461305e-08
2.22465096e-08
2.22493844e-08
2.2249363e-08
2.2247811e-08
2.2247634e-08
2.22483585e-08
2.22485597e-08
2.22482525e-08
2.22481052e-08
2.22482239e-08
2.22483113e-08
2.22482693e-08
2.22482256e-08
2.2248238e-08
2.22482581e-08
2.22482547e-08
2.22482466e-08
2.22482468e-08
2.22482505e-08
2.22482505e-08
2.22482496e-08
2.2248249e-08
2.22482485e-08
2.2248249e-08
2.22482513e-08
2.22482513e-08
2.22482462e-08
2.22482445e-08
2.22482538e-08
2.22482614e-08
2.22482483e-08
2.22482229e-08
2.22482268e-08
2.22483089e-08
2.2248344e-08
2.22481914e-08
2.2247937e-08
2.22480201e-08
2.2249241e-08
2.22496329e-08
2.22463587e-08
2.2242602e-08
2.22492053e-08
2.22679052e-08
2.22636136e-08
2.21900277e-08
2.21752699e-08
2.23720658e-08
2.25209001e-08
2.21040119e-08
2.14534334e-08
2.20755967e-08
2.43144004e-08
2.3842569e-08
1.83793958e-08
1.85203298e-08
2.8230269e-08
3.38161209e-08
1.73697866e-08
8.08569243e-10
2.18783549e-08
4.13191575e-08
3.63914317e-08
2.04866498e-08
1.21809647e-09
1.90441515e-09
4.76667819e-08
4.45227725e-08
8.46075273e-10
9.56866649e-10
2.23390135e-08
4.91653318e-08
3.75643962e-08
1.058594e-09
9.96991039e-10
2.49315542e-08
4.86715677e-08
3.45838954e-08
1.17181726e-09
1.08723972e-09
2.43255626e-08
4.54360795e-08
2.93638559e-08
1.19613495e-09
5.86554451e-10
4.44787803e-08
4.47702622e-08
2.11254666e-08
1.17469813e-09
4.96791619e-10
4.41234549e-08
3.26216873e-08
1.07237411e-09
1.59900672e-08
4.74141442e-08
4.25132531e-08
)
;

boundaryField
{
    closed
    {
        type            calculated;
        value           nonuniform List<scalar> 0();
    }
    open
    {
        type            calculated;
        value           nonuniform List<scalar> 0();
    }
    sides
    {
        type            empty;
    }
    procBoundary2to1
    {
        type            processor;
        value           uniform 9.91999933e-10;
    }
    procBoundary2to3
    {
        type            processor;
        value           uniform 8.13148133e-09;
    }
}


// ************************************************************************* //
