/*--------------------------------*- C++ -*----------------------------------*\
| =========                 |                                                 |
| \\      /  F ield         | OpenFOAM: The Open Source CFD Toolbox           |
|  \\    /   O peration     | Version:  2306                                  |
|   \\  /    A nd           | Website:  www.openfoam.com                      |
|    \\/     M anipulation  |                                                 |
\*---------------------------------------------------------------------------*/
FoamFile
{
    version     2.0;
    format      ascii;
    arch        "LSB;label=32;scalar=64";
    class       volScalarField;
    location    "0.0003";
    object      mu;
}
// * * * * * * * * * * * * * * * * * * * * * * * * * * * * * * * * * * * * * //

dimensions      [1 -1 -1 0 0 0 0];

internalField   nonuniform List<scalar> 
530
(
1.95259018e-05
1.97252508e-05
2.0286621e-05
2.0169051e-05
1.94533368e-05
1.96064063e-05
2.02984467e-05
2.02735139e-05
1.9705866e-05
1.97025289e-05
1.9887334e-05
1.99244109e-05
1.97794422e-05
1.9767022e-05
1.98062239e-05
1.98303296e-05
1.97992483e-05
1.9788997e-05
1.97979184e-05
1.98022514e-05
1.97980228e-05
1.97975094e-05
1.98005401e-05
1.98000026e-05
1.97960381e-05
1.97962201e-05
1.98007119e-05
1.98013083e-05
1.9797695e-05
1.97960507e-05
1.97981467e-05
1.98004964e-05
1.9799582e-05
1.97972999e-05
1.9797523e-05
1.97992588e-05
1.97992264e-05
1.97980102e-05
1.97980206e-05
1.97991899e-05
1.97991856e-05
1.9797727e-05
1.97975745e-05
1.97992924e-05
1.9799828e-05
1.97981167e-05
1.97971153e-05
1.97984759e-05
1.9799927e-05
1.97990289e-05
1.97973765e-05
1.97977981e-05
1.97994417e-05
1.9799338e-05
1.97978651e-05
1.97978405e-05
1.97990032e-05
1.97991868e-05
1.97982004e-05
1.97978562e-05
1.97987239e-05
1.97993007e-05
1.97985837e-05
1.97977256e-05
1.97981852e-05
1.97993186e-05
1.97991734e-05
1.97978855e-05
1.97978591e-05
1.97988929e-05
1.97991499e-05
1.97984347e-05
1.97980505e-05
1.97984785e-05
1.97988939e-05
1.97986623e-05
1.97982828e-05
1.97983929e-05
1.97987171e-05
1.9798676e-05
1.97984029e-05
1.979841e-05
1.97986297e-05
1.97986452e-05
1.97984789e-05
1.97984329e-05
1.97985517e-05
1.97986406e-05
1.9798592e-05
1.9798429e-05
1.97984201e-05
1.97985725e-05
1.97987058e-05
1.97986452e-05
1.97983279e-05
1.97982915e-05
1.97986599e-05
1.97989045e-05
1.97986179e-05
1.97980971e-05
1.97981791e-05
1.9798939e-05
1.97990554e-05
1.97984027e-05
1.97979621e-05
1.97982942e-05
1.97990548e-05
1.97990166e-05
1.97982778e-05
1.9798026e-05
1.979843e-05
1.97989677e-05
1.9798887e-05
1.97982769e-05
1.97981595e-05
1.97985517e-05
1.97988565e-05
1.97986876e-05
1.9798304e-05
1.97983322e-05
1.97986669e-05
1.97987054e-05
1.97984983e-05
1.97984164e-05
1.97985241e-05
1.9798611e-05
1.97985636e-05
1.97984933e-05
1.97985093e-05
1.97985576e-05
1.97985549e-05
1.97985257e-05
1.97985254e-05
1.9798539e-05
1.97985409e-05
1.97985352e-05
1.97985335e-05
1.97985357e-05
1.97985368e-05
1.9798536e-05
1.97985354e-05
1.97985357e-05
1.97985359e-05
1.97985359e-05
1.97985358e-05
1.97985358e-05
1.97985358e-05
1.97985358e-05
1.97985358e-05
1.97985358e-05
1.97985358e-05
1.97985358e-05
1.97985358e-05
1.97985358e-05
1.97985358e-05
1.97985358e-05
1.97985358e-05
1.97985358e-05
1.97985358e-05
1.97985358e-05
1.97985358e-05
1.97985358e-05
1.97985358e-05
1.97985358e-05
1.97985358e-05
1.97985358e-05
1.97985358e-05
1.97985358e-05
1.97985358e-05
1.97985358e-05
1.97985358e-05
1.97985358e-05
1.97985358e-05
1.97985358e-05
1.97985358e-05
1.97985358e-05
1.97985358e-05
1.97985358e-05
1.97985358e-05
1.97985358e-05
1.97985358e-05
1.97985358e-05
1.97985358e-05
1.97985358e-05
1.97985358e-05
1.97985358e-05
1.97985359e-05
1.97985358e-05
1.97985357e-05
1.97985357e-05
1.9798536e-05
1.97985362e-05
1.97985357e-05
1.97985347e-05
1.97985351e-05
1.97985383e-05
1.97985386e-05
1.9798532e-05
1.97985282e-05
1.97985384e-05
1.97985528e-05
1.97985439e-05
1.97985035e-05
1.97985055e-05
1.97985792e-05
1.97986022e-05
1.97985033e-05
1.97984177e-05
1.97985143e-05
1.97987119e-05
1.97986713e-05
1.97983154e-05
1.97982927e-05
1.97987029e-05
1.97988836e-05
1.97985092e-05
1.97981227e-05
1.97983538e-05
1.97989603e-05
1.97989023e-05
1.97981979e-05
1.97981171e-05
1.97986767e-05
1.97989378e-05
1.97985828e-05
1.97982103e-05
1.9798359e-05
1.97987656e-05
1.97987417e-05
1.97984192e-05
1.97983763e-05
1.97985533e-05
1.97986408e-05
1.97985668e-05
1.97984768e-05
1.97984922e-05
1.97985651e-05
1.97985653e-05
1.97985305e-05
1.97985197e-05
1.9798532e-05
1.97985434e-05
1.97985409e-05
1.97985326e-05
1.97985327e-05
1.97985365e-05
1.97985373e-05
1.9798536e-05
1.97985352e-05
1.97985356e-05
1.97985361e-05
1.9798536e-05
1.97985357e-05
1.97985357e-05
1.97985358e-05
1.97985359e-05
1.97985358e-05
1.97985358e-05
1.97985358e-05
1.97985358e-05
1.97985358e-05
1.97985358e-05
1.97985358e-05
1.97985358e-05
1.97985358e-05
1.97985358e-05
1.97985358e-05
1.97985358e-05
1.97985358e-05
1.97985358e-05
1.97985358e-05
1.97985358e-05
1.97985358e-05
1.97985358e-05
1.97985358e-05
1.97985358e-05
1.97985358e-05
1.97985358e-05
1.97985358e-05
1.97985358e-05
1.97985358e-05
1.97985358e-05
1.97985358e-05
1.97985358e-05
1.97985358e-05
1.97985358e-05
1.97985358e-05
1.97985358e-05
1.97985358e-05
1.97985358e-05
1.97985358e-05
1.97985358e-05
1.97985358e-05
1.97985358e-05
1.97985358e-05
1.97985358e-05
1.97985358e-05
1.97985358e-05
1.97985358e-05
1.97985358e-05
1.97985358e-05
1.97985358e-05
1.97985358e-05
1.97985358e-05
1.97985358e-05
1.97985358e-05
1.97985358e-05
1.97985358e-05
1.97985358e-05
1.97985358e-05
1.97985358e-05
1.97985358e-05
1.97985358e-05
1.97985358e-05
1.97985358e-05
1.97985358e-05
1.97985358e-05
1.97985358e-05
1.97985358e-05
1.97985358e-05
1.97985358e-05
1.97985358e-05
1.97985358e-05
1.97985358e-05
1.97985358e-05
1.97985358e-05
1.97985358e-05
1.97985358e-05
1.97985358e-05
1.97985358e-05
1.97985358e-05
1.97985358e-05
1.97985358e-05
1.97985358e-05
1.97985358e-05
1.97985358e-05
1.97985358e-05
1.97985358e-05
1.97985358e-05
1.97985358e-05
1.97985358e-05
1.97985358e-05
1.97985358e-05
1.97985358e-05
1.97985358e-05
1.97985358e-05
1.97985358e-05
1.97985358e-05
1.97985358e-05
1.97985358e-05
1.97985358e-05
1.97985358e-05
1.97985358e-05
1.97985358e-05
1.97985358e-05
1.97985358e-05
1.97985358e-05
1.97985358e-05
1.97985358e-05
1.97985358e-05
1.97985358e-05
1.97985358e-05
1.97985358e-05
1.97985358e-05
1.97985358e-05
1.97985358e-05
1.97985358e-05
1.97985358e-05
1.97985358e-05
1.97985358e-05
1.97985358e-05
1.97985358e-05
1.97985358e-05
1.97985358e-05
1.97985358e-05
1.97985358e-05
1.97985358e-05
1.97985358e-05
1.97985358e-05
1.97985358e-05
1.97985358e-05
1.97985358e-05
1.97985358e-05
1.97985358e-05
1.97985358e-05
1.97985358e-05
1.97985358e-05
1.97985358e-05
1.97985358e-05
1.97985358e-05
1.97985358e-05
1.97985358e-05
1.97985358e-05
1.97985359e-05
1.97985358e-05
1.97985356e-05
1.97985357e-05
1.97985362e-05
1.97985364e-05
1.97985353e-05
1.97985343e-05
1.9798536e-05
1.97985393e-05
1.97985381e-05
1.9798529e-05
1.97985288e-05
1.97985448e-05
1.97985516e-05
1.97985296e-05
1.97985068e-05
1.9798529e-05
1.97985801e-05
1.97985705e-05
1.97984791e-05
1.97984738e-05
1.97985824e-05
1.97986239e-05
1.97985197e-05
1.97984301e-05
1.97985082e-05
1.97986445e-05
1.97986086e-05
1.97984386e-05
1.97984434e-05
1.97986001e-05
1.97986246e-05
1.97985101e-05
1.97984618e-05
1.97985335e-05
1.97985906e-05
1.97985527e-05
1.97984997e-05
1.97985155e-05
1.97985571e-05
1.97985533e-05
1.97985244e-05
1.97985246e-05
1.97985402e-05
1.9798542e-05
1.97985347e-05
1.97985327e-05
1.97985358e-05
1.97985373e-05
1.97985361e-05
1.97985352e-05
1.97985356e-05
1.97985361e-05
1.97985359e-05
1.97985357e-05
1.97985358e-05
1.97985358e-05
1.97985358e-05
1.97985358e-05
1.97985358e-05
1.97985358e-05
1.97985358e-05
1.97985358e-05
1.97985358e-05
1.97985358e-05
1.97985358e-05
1.97985359e-05
1.97985359e-05
1.97985358e-05
1.97985357e-05
1.97985359e-05
1.97985362e-05
1.97985362e-05
1.97985355e-05
1.97985353e-05
1.97985371e-05
1.97985402e-05
1.979854e-05
1.97985293e-05
1.9798527e-05
1.97985637e-05
1.97986063e-05
1.97985485e-05
1.97983748e-05
1.97984358e-05
1.97992177e-05
1.97994064e-05
1.97975356e-05
1.97961805e-05
1.98005393e-05
1.9807572e-05
1.9801535e-05
1.97821519e-05
1.97872658e-05
1.98465314e-05
1.984652e-05
1.97638374e-05
1.97767101e-05
1.98606973e-05
2.02735736e-05
1.98052995e-05
1.96197485e-05
1.97319884e-05
1.9836444e-05
2.02867634e-05
2.01981206e-05
1.94387195e-05
1.95271655e-05
2.02678332e-05
2.02416133e-05
1.97963895e-05
1.93982666e-05
1.969384e-05
2.02941275e-05
2.02584742e-05
1.97731526e-05
1.94101677e-05
1.97364921e-05
2.03097543e-05
2.02828144e-05
1.97750116e-05
1.94965302e-05
1.97694514e-05
2.02877094e-05
2.02447706e-05
1.95236228e-05
1.95213924e-05
1.98271544e-05
2.02814084e-05
2.02648065e-05
1.9533787e-05
1.97705671e-05
2.02774595e-05
1.98799956e-05
1.94451202e-05
1.95738624e-05
)
;

boundaryField
{
    closed
    {
        type            calculated;
        value           nonuniform List<scalar> 0();
    }
    open
    {
        type            calculated;
        value           nonuniform List<scalar> 0();
    }
    sides
    {
        type            empty;
    }
    procBoundary2to1
    {
        type            processor;
        value           uniform 2.02047453e-05;
    }
    procBoundary2to3
    {
        type            processor;
        value           uniform 2.00216744e-05;
    }
}


// ************************************************************************* //
