/*--------------------------------*- C++ -*----------------------------------*\
| =========                 |                                                 |
| \\      /  F ield         | OpenFOAM: The Open Source CFD Toolbox           |
|  \\    /   O peration     | Version:  2306                                  |
|   \\  /    A nd           | Website:  www.openfoam.com                      |
|    \\/     M anipulation  |                                                 |
\*---------------------------------------------------------------------------*/
FoamFile
{
    version     2.0;
    format      ascii;
    arch        "LSB;label=32;scalar=64";
    class       volScalarField;
    location    "0.00068";
    object      h;
}
// * * * * * * * * * * * * * * * * * * * * * * * * * * * * * * * * * * * * * //

dimensions      [0 2 -2 0 0 0 0];

internalField   nonuniform List<scalar> 
530
(
8260.06856
-2442.10304
-4886.6287
1704.41869
9225.82959
8226.37706
-2452.74492
-4857.56901
1682.23495
9284.34208
8797.64871
-1467.1057
-5354.13398
-2818.49423
7591.72332
10062.0564
10077.9459
6807.77886
-2093.96063
-5142.27013
-5159.46111
6922.18404
9976.95698
5372.57432
-3699.31747
-5095.74236
2990.35497
9678.04424
8154.85669
-1393.03171
-5368.67639
-4883.99081
7641.59739
9873.1489
3502.88089
-5336.30962
-3626.98259
7742.08138
10245.323
10246.1298
4877.47682
-2413.57076
-4908.27431
-5026.71257
3820.58112
9822.45621
4378.29475
-2287.60319
-854.868074
1562.07962
-1427.3132
-2602.28355
6082.12423
10040.1568
1323.83084
-3684.04233
4936.52106
9863.19099
4251.63748
-4392.04819
-4166.49666
8671.15207
9976.64892
513.424465
-5043.07636
2491.73993
9548.78551
5017.21041
-4714.81199
-4737.69512
7546.91322
9987.47043
743.504788
-5036.43297
3403.54965
9392.22209
-155.648934
-5029.64763
4503.54981
9818.26284
4134.58827
-4601.5771
-3462.11957
9118.67505
9959.49038
-437.629298
-5063.53062
2231.30933
9580.0972
4503.2937
-4709.93616
-3425.09124
9140.21569
9843.48112
-1234.41451
-5023.91922
4131.16415
9557.03902
424.564859
-4527.50303
3281.90592
9787.24332
7189.63007
-3954.70974
-5192.28127
3841.0941
9704.71706
5860.90383
-4715.89414
-5117.38245
7724.59501
9615.13097
-1060.23625
-4631.75969
3116.40367
9728.08467
7827.56974
-3532.70769
-5107.52936
3490.53803
9652.40342
7103.54895
-3782.49101
-5155.49594
3430.5707
9588.16104
7125.42206
-3740.06945
-5045.10921
3494.96609
9554.69551
7306.08653
-3917.16003
-5000.48575
4739.06089
9662.02248
5598.19194
-3905.65858
-4392.45862
6694.39166
9461.86869
-33.468247
-4232.6692
3286.59699
9515.66244
7790.32178
-3265.50282
-4878.30862
4193.00114
9521.2564
5573.14108
-4032.04747
-4854.96445
5554.12031
9254.1932
409.903683
-4076.1653
3787.67658
9556.54557
6629.96591
-3464.24687
-4722.49154
4468.63921
9610.00254
5616.535
-3822.1367
-4795.02358
5020.57595
9122.09045
723.79429
-3379.06472
4499.39886
9690.84726
5698.80802
-3803.05425
-4757.76223
4816.81667
9590.95127
4921.87157
-4314.99056
-5326.82112
4558.85851
9016.2141
524.676353
-3990.15714
4249.27259
8992.69574
437.786844
-4139.36969
4216.46261
8968.94503
420.696786
-4076.05324
4347.80025
9011.32262
497.868367
-3759.22663
4179.89431
9544.8485
5101.05175
-4262.74432
-5318.21103
4564.84132
8990.47946
377.10412
-3885.40197
4746.67504
9069.4212
360.56331
-3554.27837
4495.36819
9647.06705
5309.63601
-4107.33118
-5145.57834
4795.95266
8974.39531
42.8350467
-3956.04499
5085.02091
9079.95804
86.8843829
-3543.92662
4687.97359
9658.91024
5166.32584
-4123.63524
-4985.82293
5250.78
8985.54293
-105.703702
-3614.14517
4830.45947
9628.99977
4875.75109
-4233.95878
-4806.22614
5937.57039
9030.74811
-403.869853
-3464.89584
5160.85808
9691.46382
4807.86732
-4089.76534
-4193.49101
6896.03204
9619.34457
3088.67044
-4879.10118
-4878.40753
7862.11668
9023.72871
-1331.74427
-3242.21603
6282.66091
9768.71597
4029.70829
-4284.24964
-4165.3663
7998.03786
9724.94196
2988.29761
-4633.94237
-4198.83024
8019.19974
9704.013
2920.57982
-4686.4982
-4199.18186
7993.73921
9723.62665
3014.65201
-4589.43378
-4100.98386
8080.04705
9691.86794
2802.22784
-4789.2928
-4340.56215
8219.62707
8897.12736
-2125.66321
-3387.67037
6965.41167
9721.83898
3394.06027
-4502.93134
-4156.27045
7863.42863
9689.19999
3001.51655
-4624.99295
-4029.34043
8045.64819
9691.60052
2764.85937
-4675.51696
-3923.66125
8124.31524
9700.67877
2622.3159
-4818.83981
-4120.48015
7908.60856
9769.41449
3239.54229
-4358.90923
-3589.74155
8405.04784
9705.916
2255.47447
-4791.17934
-3782.52963
8518.50722
9556.3978
1538.52081
-2610.96287
-994.837557
3915.00321
4330.86644
1484.91519
785.351329
2158.42467
2997.37718
2656.00256
2071.46967
2066.00623
2293.8541
2392.68874
2391.81255
2297.84172
2142.40947
2170.57255
2448.85069
2472.66224
2114.04378
1981.16703
2361.34159
2676.75759
2342.15331
1786.43107
1989.35891
2788.45373
2764.92385
1850.05231
1780.80657
2511.83882
2664.31091
2139.65505
2118.90007
2682.65153
2402.53766
1103.97335
1848.2263
4386.22349
3486.14203
-1897.17702
-725.952659
7366.85424
5362.64849
-3653.64657
-2369.71343
8727.44093
9150.77022
-1837.21599
-5000.85352
3300.91379
9431.85195
4356.5056
-4178.6131
-2476.79879
8544.7597
7942.02377
-3641.714
-3279.0067
8386.16701
7882.01044
-3593.49538
-2957.49627
8394.2055
7557.77815
-3564.43277
-2612.69454
8407.91696
7170.3345
-3450.35426
-1997.99847
8513.96007
6771.14146
-3147.555
-2299.73201
8520.26822
9181.03745
-324.662836
-5645.55741
-1298.68294
8497.2797
5573.53995
-3646.92271
-586.805034
8663.09374
5182.55771
-3623.68991
97.8047824
8830.52545
4792.65288
-3322.39428
-143.764775
8906.17251
8664.26119
-2829.49224
-5446.82448
1300.17846
8942.02069
2925.93265
-3986.80901
2322.28661
9145.49648
2160.5103
-4183.16205
3070.9516
9344.14203
2200.88697
-3609.68323
1304.59037
9496.74488
8582.7651
-1771.68834
-2708.9858
2552.50771
3219.5749
-2387.65616
-2623.38404
8320.90332
10251.6246
4798.18409
-4295.54036
-4245.20966
7919.414
8494.20645
-3703.22073
-4390.99048
7864.16296
10084.7965
3670.00735
-4423.42594
-4143.68958
8601.72634
8868.77108
-3454.70626
-4413.2632
8025.55212
10140.3383
4094.93533
-4027.27616
-4380.0723
5020.37395
9880.79688
5534.35451
-4232.65418
-4560.89558
6078.39331
9937.0754
4450.87706
-4761.68011
-4794.18491
7929.69771
10007.8579
3124.48512
-5026.54354
-4885.2228
8404.57958
9979.99547
2363.31662
-5292.78047
-5232.58764
9160.53521
9830.50469
-3206.22028
-4406.56206
7871.10945
10049.5662
2486.87251
-5256.03796
-4302.46042
9285.16451
9363.66396
-4634.87513
-4678.04681
9570.00524
9668.62823
-4708.09666
-4922.23709
9560.02585
10024.4806
387.398187
-4685.61667
-2063.53414
10049.6601
10298.2724
1203.63508
-4842.16246
-3369.60219
9952.4934
10002.2688
366.599021
-6205.94363
-5053.44814
8618.22717
9916.30986
1576.75775
-5598.97645
-3909.77052
8899.3066
10331.8778
6800.9389
-4656.18321
-5151.45748
7729.25868
9882.32438
946.179126
-5286.33608
-3299.51718
9908.04898
10104.5501
756.762826
-5093.00467
-3304.4791
9888.06054
)
;

boundaryField
{
    closed
    {
        type            lookUpEnthalpy;
        h0              nonuniform List<scalar> 0();
        value           nonuniform List<scalar> 0();
    }
    open
    {
        type            zeroGradient;
    }
    sides
    {
        type            empty;
    }
    procBoundary2to1
    {
        type            processor;
        value           uniform 9192.71819;
    }
    procBoundary2to3
    {
        type            processor;
        value           uniform 10091.417;
    }
}


// ************************************************************************* //
