/*--------------------------------*- C++ -*----------------------------------*\
| =========                 |                                                 |
| \\      /  F ield         | OpenFOAM: The Open Source CFD Toolbox           |
|  \\    /   O peration     | Version:  2306                                  |
|   \\  /    A nd           | Website:  www.openfoam.com                      |
|    \\/     M anipulation  |                                                 |
\*---------------------------------------------------------------------------*/
FoamFile
{
    version     2.0;
    format      ascii;
    arch        "LSB;label=32;scalar=64";
    class       volScalarField;
    location    "0.0002";
    object      h;
}
// * * * * * * * * * * * * * * * * * * * * * * * * * * * * * * * * * * * * * //

dimensions      [0 2 -2 0 0 0 0];

internalField   nonuniform List<scalar> 
530
(
2301.28768
2253.15665
2254.78502
2282.66462
2284.04351
2271.46925
2269.22248
2274.19857
2275.79954
2274.04941
2273.1986
2273.74644
2274.12464
2273.97305
2273.82692
2273.86228
2273.90913
2273.90422
2273.89592
2273.89611
2273.89056
2273.88711
2273.89602
2273.90501
2273.89978
2273.88364
2273.88428
2273.90082
2273.90666
2273.89723
2273.88359
2273.88532
2273.90092
2273.90484
2273.89571
2273.88651
2273.88922
2273.89891
2273.89895
2273.89407
2273.89336
2273.89455
2273.89362
2273.89213
2273.89585
2273.89993
2273.89602
2273.88772
2273.88944
2273.90111
2273.90123
2273.89111
2273.88831
2273.89524
2273.89945
2273.89576
2273.89125
2273.89313
2273.89673
2273.8957
2273.89295
2273.89388
2273.89653
2273.89581
2273.89205
2273.8923
2273.89721
2273.89793
2273.89334
2273.89079
2273.89402
2273.89787
2273.89683
2273.89234
2273.89241
2273.89551
2273.89606
2273.89439
2273.89371
2273.89479
2273.89536
2273.89435
2273.89383
2273.89473
2273.89535
2273.89466
2273.8941
2273.89446
2273.89493
2273.89465
2273.89438
2273.89461
2273.89487
2273.89476
2273.89437
2273.89434
2273.89447
2273.89495
2273.89526
2273.89456
2273.89357
2273.89381
2273.89589
2273.89622
2273.89395
2273.89248
2273.89396
2273.89658
2273.89652
2273.89363
2273.89248
2273.89386
2273.89614
2273.89632
2273.89445
2273.89299
2273.89345
2273.89574
2273.896
2273.89433
2273.89341
2273.89432
2273.89542
2273.89512
2273.89412
2273.89419
2273.89482
2273.89487
2273.89454
2273.89448
2273.89462
2273.89467
2273.89462
2273.89459
2273.8946
2273.89462
2273.89461
2273.89461
2273.89461
2273.89461
2273.89461
2273.89461
2273.89461
2273.89461
2273.89461
2273.89461
2273.89461
2273.89461
2273.89461
2273.89461
2273.89461
2273.89461
2273.89461
2273.89461
2273.89461
2273.89461
2273.89461
2273.89461
2273.89461
2273.89461
2273.89461
2273.89461
2273.89461
2273.89461
2273.89461
2273.89461
2273.89461
2273.89461
2273.89461
2273.89461
2273.89461
2273.89461
2273.89461
2273.89461
2273.89461
2273.89461
2273.89461
2273.89461
2273.89461
2273.89461
2273.89461
2273.89461
2273.89461
2273.89461
2273.89461
2273.89461
2273.89461
2273.89461
2273.89461
2273.89461
2273.89461
2273.89461
2273.89461
2273.89461
2273.89461
2273.89461
2273.89461
2273.89461
2273.89461
2273.89461
2273.89461
2273.89461
2273.89461
2273.8946
2273.8946
2273.89463
2273.89464
2273.89458
2273.89453
2273.89461
2273.8948
2273.89476
2273.8943
2273.89424
2273.89483
2273.89542
2273.89476
2273.89344
2273.89368
2273.89588
2273.89622
2273.894
2273.89258
2273.89418
2273.89647
2273.89617
2273.89317
2273.89304
2273.89498
2273.89576
2273.89503
2273.89389
2273.89404
2273.89485
2273.895
2273.89467
2273.89443
2273.89447
2273.89466
2273.89469
2273.89462
2273.89457
2273.89459
2273.89462
2273.89462
2273.89461
2273.89461
2273.89461
2273.89461
2273.89461
2273.89461
2273.89461
2273.89461
2273.89461
2273.89461
2273.89461
2273.89461
2273.89461
2273.89461
2273.89461
2273.89461
2273.89461
2273.89461
2273.89461
2273.89461
2273.89461
2273.89461
2273.89461
2273.89461
2273.89461
2273.89461
2273.89461
2273.89461
2273.89461
2273.89461
2273.89461
2273.89461
2273.89461
2273.89461
2273.89461
2273.89461
2273.89461
2273.89461
2273.89461
2273.89461
2273.89461
2273.89461
2273.89461
2273.89461
2273.89461
2273.89461
2273.89461
2273.89461
2273.89461
2273.89461
2273.89461
2273.89461
2273.89461
2273.89461
2273.89461
2273.89461
2273.89461
2273.89461
2273.89461
2273.89461
2273.89461
2273.89461
2273.89461
2273.89461
2273.89461
2273.89461
2273.89461
2273.89461
2273.89461
2273.89461
2273.89461
2273.89461
2273.89461
2273.89461
2273.89461
2273.89461
2273.89461
2273.89461
2273.89461
2273.89461
2273.89461
2273.89461
2273.89461
2273.89461
2273.89461
2273.89461
2273.89461
2273.89461
2273.89461
2273.89461
2273.89461
2273.89461
2273.89461
2273.89461
2273.89461
2273.89461
2273.89461
2273.89461
2273.89461
2273.89461
2273.89461
2273.89461
2273.89461
2273.89461
2273.89461
2273.89461
2273.89461
2273.89461
2273.89461
2273.89461
2273.89461
2273.89461
2273.89461
2273.89461
2273.89461
2273.89461
2273.89461
2273.89461
2273.89461
2273.89461
2273.89461
2273.89461
2273.89461
2273.89461
2273.89461
2273.89461
2273.89461
2273.89461
2273.89461
2273.89461
2273.89461
2273.89461
2273.89461
2273.89461
2273.89461
2273.89461
2273.89461
2273.89461
2273.89461
2273.89461
2273.89461
2273.89461
2273.89461
2273.89461
2273.89461
2273.89461
2273.89461
2273.89461
2273.89461
2273.89461
2273.89461
2273.89461
2273.89461
2273.89461
2273.89461
2273.89461
2273.89461
2273.89461
2273.89461
2273.89461
2273.89461
2273.89461
2273.89461
2273.89461
2273.8946
2273.8946
2273.89461
2273.89465
2273.89464
2273.89453
2273.89452
2273.89471
2273.89482
2273.89458
2273.89428
2273.89443
2273.89502
2273.89502
2273.89428
2273.89412
2273.89468
2273.89512
2273.89473
2273.8942
2273.89437
2273.89488
2273.89485
2273.89446
2273.89446
2273.89465
2273.8947
2273.8946
2273.89457
2273.89461
2273.89463
2273.89461
2273.8946
2273.89461
2273.89461
2273.89461
2273.89461
2273.89461
2273.89461
2273.89461
2273.89461
2273.89461
2273.89461
2273.89461
2273.89461
2273.89461
2273.89461
2273.89461
2273.89461
2273.89461
2273.89461
2273.89461
2273.89461
2273.89461
2273.89461
2273.89461
2273.89461
2273.89461
2273.89461
2273.89461
2273.89461
2273.89461
2273.89461
2273.89461
2273.89461
2273.89461
2273.89461
2273.89461
2273.8946
2273.8946
2273.89461
2273.89461
2273.89459
2273.89457
2273.8946
2273.89466
2273.89464
2273.89445
2273.89438
2273.89468
2273.8954
2273.89523
2273.89178
2273.88998
2273.90046
2273.917
2273.89626
2273.80947
2273.81589
2274.13823
2274.28822
2273.49134
2272.46055
2273.74056
2277.93342
2277.45562
2265.3974
2261.20832
2283.43864
2306.57704
2279.85176
2209.2793
2219.05667
2367.73187
2400.12244
2205.76805
2059.99288
2235.01588
2553.74981
2482.30392
1988.23701
1971.66677
2437.19142
2602.01127
2261.57226
1989.78209
2174.95089
2479.51613
2415.07485
2147.14858
2155.34914
)
;

boundaryField
{
    closed
    {
        type            lookUpEnthalpy;
        h0              nonuniform List<scalar> 0();
        value           nonuniform List<scalar> 0();
    }
    open
    {
        type            zeroGradient;
    }
    sides
    {
        type            empty;
    }
    procBoundary2to1
    {
        type            processor;
        value           uniform 2312.92905;
    }
    procBoundary2to3
    {
        type            processor;
        value           uniform 2331.4601;
    }
}


// ************************************************************************* //
