/*--------------------------------*- C++ -*----------------------------------*\
| =========                 |                                                 |
| \\      /  F ield         | OpenFOAM: The Open Source CFD Toolbox           |
|  \\    /   O peration     | Version:  2306                                  |
|   \\  /    A nd           | Website:  www.openfoam.com                      |
|    \\/     M anipulation  |                                                 |
\*---------------------------------------------------------------------------*/
FoamFile
{
    version     2.0;
    format      ascii;
    arch        "LSB;label=32;scalar=64";
    class       volScalarField;
    location    "0.00162";
    object      H;
}
// * * * * * * * * * * * * * * * * * * * * * * * * * * * * * * * * * * * * * //

dimensions      [0 0 0 0 0 0 0];

internalField   nonuniform List<scalar> 
530
(
1.16927293e-09
3.74093142e-08
4.61087502e-08
2.97273156e-08
1.20764056e-09
1.1987516e-09
3.64420894e-08
4.60068388e-08
3.0300005e-08
1.20082573e-09
1.22352957e-09
3.53353544e-08
4.58723621e-08
3.09589697e-08
1.18412975e-09
1.23863407e-09
3.49932346e-08
4.62427649e-08
3.19696486e-08
1.15907254e-09
1.22730204e-09
3.55469095e-08
4.95860323e-08
3.27758073e-08
7.65677975e-10
1.40882602e-09
6.3977068e-10
3.81162394e-08
4.79241711e-08
4.95768296e-08
4.08636307e-08
9.07854468e-10
1.10777771e-09
1.17649892e-09
1.1087388e-09
3.29813719e-08
3.44863602e-08
1.00835524e-09
1.23649131e-09
3.28001628e-08
4.26545674e-08
4.326139e-08
3.62363727e-08
1.05738913e-09
1.20251751e-09
3.3551208e-08
4.78870022e-08
3.61930405e-08
9.64047227e-10
1.11354089e-09
3.45615424e-08
4.55564508e-08
4.82985542e-08
4.22700215e-08
7.74112735e-10
1.27864609e-09
9.87536036e-10
1.28011442e-09
7.74405266e-09
3.99924888e-08
3.92465595e-08
9.94591821e-10
1.06763437e-09
3.42615934e-08
4.50133293e-08
4.55134217e-08
3.75205483e-08
9.55943888e-10
1.1054655e-09
3.36593415e-08
4.80765386e-08
3.45766456e-08
9.3691839e-10
1.13873752e-09
3.26945943e-08
4.66085587e-08
3.05605113e-08
9.90119453e-10
9.42200686e-09
3.45436618e-08
2.43397941e-08
1.19741368e-09
1.19785563e-09
2.97263886e-08
4.12770411e-08
4.2592445e-08
4.68958069e-08
3.00446158e-08
6.77821141e-10
1.37744427e-09
8.27070782e-10
3.58498889e-08
4.78674367e-08
2.76571484e-08
9.6088201e-10
1.98088022e-08
3.84675174e-08
1.09672895e-08
1.19657217e-09
1.25817498e-08
3.99949242e-08
4.58921838e-08
2.57484503e-08
1.02158659e-09
2.1572493e-08
3.89935168e-08
1.00206436e-08
1.23038721e-09
2.79184304e-08
3.85674495e-08
4.30841099e-09
1.22611743e-09
1.63368866e-08
4.17269e-08
4.5663765e-08
2.05101588e-08
1.03218857e-09
7.94418886e-09
4.24994775e-08
4.68751966e-08
1.76565421e-08
1.03704921e-09
1.0782111e-08
4.3606684e-08
4.66695287e-08
1.57796058e-08
1.12962971e-09
2.70464741e-08
3.85503426e-08
2.78739269e-09
1.21459661e-09
1.71436819e-08
4.33395851e-08
4.53195917e-08
1.30737399e-08
1.10123208e-09
1.27135233e-08
4.30215617e-08
4.56128267e-08
1.33708002e-08
1.10389474e-09
1.32057093e-08
4.32082646e-08
4.58296244e-08
1.34080809e-08
1.10067934e-09
1.4480997e-08
4.39985751e-08
4.60141381e-08
1.33925365e-08
1.17193817e-09
2.74715152e-08
3.90525889e-08
3.55518457e-09
1.22066854e-09
1.9123366e-08
4.36105833e-08
4.50640303e-08
1.31091392e-08
1.19148484e-09
2.72774143e-08
3.86137546e-08
3.44239802e-09
1.23754831e-09
1.89463057e-08
4.27136944e-08
4.44423343e-08
1.28695501e-08
1.13534366e-09
1.52578864e-08
4.32784435e-08
4.48286286e-08
1.24900725e-08
1.20274302e-09
2.7669696e-08
3.81071482e-08
2.15501712e-09
1.24509023e-09
1.95499097e-08
4.24148926e-08
4.34297431e-08
1.19923738e-08
1.1555328e-09
1.36652915e-08
4.1561837e-08
4.33139838e-08
1.20587337e-08
1.15714806e-09
1.1071643e-08
4.09017395e-08
4.27548389e-08
9.94582316e-09
1.20785132e-09
1.38405777e-08
3.69941806e-08
3.96437393e-08
4.6156783e-08
4.62524894e-08
1.40411461e-08
1.15230481e-09
2.90570478e-08
4.0332878e-08
4.96392544e-09
1.23415924e-09
3.11863403e-08
4.05159641e-08
2.60169829e-09
1.16245486e-09
2.40408818e-08
4.69078081e-08
4.75009549e-08
1.49426469e-08
1.11259729e-09
2.93921695e-08
4.18032946e-08
6.3625167e-09
1.20927885e-09
3.12676669e-08
4.18048859e-08
6.34646757e-09
1.21175416e-09
3.16036457e-08
4.18913233e-08
5.71445659e-09
1.21784328e-09
3.20041084e-08
4.14628014e-08
4.03404045e-09
1.22551056e-09
3.25168359e-08
4.10481387e-08
5.8498891e-10
1.1559794e-09
2.48209241e-08
4.82585994e-08
4.79156383e-08
8.67517107e-09
1.16186672e-09
3.10982079e-08
3.99652281e-08
4.32622119e-10
1.17623626e-09
2.39007643e-08
4.72464861e-08
4.64353514e-08
5.6497408e-09
1.18964336e-09
3.10602243e-08
3.85995213e-08
5.38178e-10
1.18808811e-09
2.34241949e-08
4.62277357e-08
4.49925591e-08
3.10384358e-09
1.09956142e-09
2.14143297e-08
4.64336963e-08
4.4613829e-08
2.82831916e-09
1.1530158e-09
3.18678296e-08
3.74242828e-08
7.7878976e-10
1.16580309e-09
2.39026872e-08
4.51758285e-08
4.27345544e-08
6.44930361e-10
1.11440492e-09
1.97207497e-08
4.42015785e-08
4.16205741e-08
8.36821629e-10
1.21861605e-09
1.58917834e-08
3.66475334e-08
4.69817211e-08
4.34252834e-08
7.82142459e-10
1.09486204e-09
2.07825714e-08
4.63073832e-08
4.06035349e-08
6.99253318e-10
2.92801972e-08
4.0018699e-08
9.07547133e-10
1.32026244e-09
9.47758504e-10
2.48885234e-08
4.87148763e-08
4.5163174e-08
8.34062085e-10
1.08617958e-09
2.60287819e-08
4.66828329e-08
4.29261965e-08
9.06492397e-10
1.12870109e-09
2.367276e-08
4.53112361e-08
4.22475257e-08
9.36919262e-10
1.14645634e-09
2.37523682e-08
4.51262447e-08
4.25888819e-08
9.46710185e-10
1.15383287e-09
2.42643142e-08
4.53210267e-08
4.33045975e-08
9.39772446e-10
1.14605368e-09
2.5436506e-08
4.62797981e-08
4.49073297e-08
9.30082386e-10
1.22449905e-09
3.34404322e-08
3.7962593e-08
8.4007817e-10
1.21207986e-09
2.80249537e-08
4.5960765e-08
4.57494399e-08
9.13473828e-10
1.15451771e-09
2.72090716e-08
4.72390015e-08
4.71939027e-08
8.52158222e-10
1.11520795e-09
2.78226078e-08
5.04004811e-08
4.82622503e-08
7.62420155e-10
1.29262379e-09
1.21783564e-09
3.29975887e-08
3.93926326e-08
6.80711786e-10
1.18148683e-09
2.94735193e-08
4.6810059e-08
4.67364849e-08
7.55726038e-10
1.14066902e-09
2.76219221e-08
4.6615499e-08
4.64438167e-08
7.3799777e-10
1.21463073e-09
3.21300365e-08
3.65939071e-08
6.49147986e-10
1.2218559e-09
2.66706613e-08
4.33426856e-08
4.32330879e-08
7.55253085e-10
1.21963898e-09
2.68651034e-08
4.115468e-08
4.56588864e-08
4.55821732e-08
5.91848889e-10
1.15325393e-09
3.46923734e-08
4.03899184e-08
5.18534923e-10
1.13632367e-09
3.22274938e-08
5.03289608e-08
5.00406358e-08
5.93476042e-10
1.12450169e-09
3.51044472e-08
4.18836406e-08
1.0879088e-09
1.15641099e-09
3.58067e-08
4.18548148e-08
1.05382594e-09
1.16923019e-09
3.55605147e-08
4.16762603e-08
1.09514297e-09
1.17709577e-09
3.51691525e-08
4.12778433e-08
1.07782128e-09
1.18681462e-09
3.48547169e-08
4.07213661e-08
8.65277711e-10
1.19277108e-09
3.46172257e-08
4.03757307e-08
4.61196672e-10
1.14252566e-09
3.17926269e-08
5.01814766e-08
4.98924844e-08
5.87819379e-10
1.15245452e-09
3.49578667e-08
4.19521873e-08
7.55831168e-10
1.19388376e-09
3.5596798e-08
4.13928871e-08
4.7342528e-10
1.20884069e-09
3.50813417e-08
4.10060858e-08
5.29806777e-10
1.15571025e-09
3.19174388e-08
4.97457809e-08
4.94126809e-08
6.52551736e-10
1.18424903e-09
3.52173981e-08
4.16978184e-08
5.32380645e-10
1.21693741e-09
3.57650572e-08
4.11083283e-08
5.73935782e-10
1.21528915e-09
3.56510587e-08
4.15427691e-08
6.12500996e-10
1.1216432e-09
3.28933864e-08
5.36441685e-08
5.27719793e-08
6.22373579e-10
1.17924625e-09
1.01044905e-09
1.26762318e-09
1.24956639e-09
3.34549641e-08
4.66495759e-08
5.15441477e-08
5.15517089e-08
5.97744957e-10
1.12689596e-09
3.81013852e-08
4.32780049e-08
7.1763248e-10
1.15351056e-09
3.18721844e-08
4.76242464e-08
4.7257732e-08
8.88197924e-10
1.24953811e-09
3.33215428e-08
3.78465266e-08
8.68720624e-10
1.26020055e-09
2.77680753e-08
4.37224291e-08
4.35685897e-08
9.39833534e-10
1.22362104e-09
2.61889174e-08
4.46718891e-08
4.45661404e-08
9.65228662e-10
1.20654082e-09
2.81247863e-08
4.62699888e-08
4.59436226e-08
9.58124722e-10
1.28306063e-09
3.42561694e-08
3.8942528e-08
9.57323627e-10
1.26614601e-09
3.00368525e-08
4.592048e-08
4.5798387e-08
1.00111512e-09
1.19774438e-09
2.95194902e-08
4.74648986e-08
4.71571362e-08
1.00016517e-09
1.26402594e-09
3.51564984e-08
4.0177804e-08
9.91600691e-10
1.23385751e-09
3.16423556e-08
4.79114729e-08
4.75003706e-08
9.87168675e-10
1.27705215e-09
3.54960158e-08
3.98599649e-08
9.67577741e-10
1.3355306e-09
3.51288756e-08
3.85310255e-08
1.01491271e-09
1.27920373e-09
2.89145228e-08
4.48138945e-08
4.46274847e-08
1.05102022e-09
1.22705017e-09
2.6191231e-08
4.50079748e-08
4.47706446e-08
1.05357107e-09
1.22651474e-09
2.62939345e-08
4.5077347e-08
4.48399817e-08
1.06013594e-09
1.2287381e-09
2.6163346e-08
4.49933572e-08
4.47732822e-08
1.06870081e-09
1.23146934e-09
2.60905993e-08
)
;

boundaryField
{
    closed
    {
        type            calculated;
        value           nonuniform List<scalar> 0();
    }
    open
    {
        type            calculated;
        value           nonuniform List<scalar> 0();
    }
    sides
    {
        type            empty;
    }
    procBoundary2to1
    {
        type            processor;
        value           uniform 1.20925702e-09;
    }
    procBoundary2to3
    {
        type            processor;
        value           uniform 4.49228544e-08;
    }
}


// ************************************************************************* //
