/*--------------------------------*- C++ -*----------------------------------*\
| =========                 |                                                 |
| \\      /  F ield         | OpenFOAM: The Open Source CFD Toolbox           |
|  \\    /   O peration     | Version:  2306                                  |
|   \\  /    A nd           | Website:  www.openfoam.com                      |
|    \\/     M anipulation  |                                                 |
\*---------------------------------------------------------------------------*/
FoamFile
{
    version     2.0;
    format      ascii;
    arch        "LSB;label=32;scalar=64";
    class       volScalarField;
    location    "0.00162";
    object      p;
}
// * * * * * * * * * * * * * * * * * * * * * * * * * * * * * * * * * * * * * //

dimensions      [1 -1 -2 0 0 0 0];

internalField   nonuniform List<scalar> 
530
(
100998.523
100994.125
100989.575
100985.523
100981.913
100978.677
100975.956
100973.036
100970.282
100967.451
100963.981
100959.747
100962.256
100963.602
100964.127
100964.49
100965.142
100965.891
100966.677
100967.797
100969.809
100973.427
100977.58
100983.349
100990.21
100997.291
101004.624
101012.367
101020.583
101028.864
101037.023
101044.749
101052.176
101059.535
101066.765
101073.894
101080.787
101087.544
101093.474
101099.602
101105.628
101111.551
101117.248
101122.878
101127.445
101132.294
101136.9
101141.212
101145.54
101148.685
101152.274
101155.688
101159.022
101162.324
101165.51
101168.149
101170.99
101173.806
101176.678
101179.513
101182.622
101186.123
101189.009
101192.288
101195.788
101199.415
101203.053
101206.809
101210.188
101213.711
101217.245
101220.699
101224.066
101227.03
101229.981
101232.921
101235.809
101238.635
101241.379
101244.055
101246.962
101249.966
101252.938
101256.098
101259.537
101263.179
101266.923
101270.877
101274.876
101278.589
101282.059
101284.807
101290.252
101294.796
101298.783
101302.404
101306.012
101309.6
101312.968
101316.261
101319.645
101323.241
101327.046
101330.857
101334.701
101338.835
101343.22
101347.398
101351.599
101355.935
101360.354
101364.206
101368.002
101371.842
101375.639
101379.322
101382.773
101386.014
101388.921
101391.959
101394.941
101397.737
101400.361
101402.765
101405.246
101407.68
101409.861
101411.97
101414.016
101416.039
101417.647
101419.243
101420.791
101422.222
101423.482
101424.588
101425.461
101425.976
101426.277
101426.295
101426.09
101425.556
101424.51
101423.105
101421.35
101419.445
101417.25
101414.526
101411.433
101408.068
101404.663
101401.17
101397.43
101393.503
101389.641
101385.782
101381.702
101377.381
101372.962
101368.755
101364.614
101360.386
101356.114
101352.029
101348.024
101343.877
101339.546
101335.144
101331.05
101326.957
101322.586
101318.059
101313.502
101309.219
101305.017
101300.788
101296.593
101292.58
101288.73
101284.831
101280.841
101276.86
101273.301
101269.833
101266.205
101262.558
101258.97
101255.805
101252.728
101249.409
101246.1
101242.847
101239.99
101237.204
101234.278
101231.367
101228.561
101225.803
101223.104
101220.702
101218.483
101216.429
101214.532
101212.943
101211.693
101210.779
101210.199
101209.9
101210.122
101210.837
101211.998
101213.624
101215.732
101218.473
101221.865
101225.883
101230.241
101235.417
101241.37
101248.063
101255
101262.893
101271.667
101281.304
101290.999
101301.8
101313.547
101326.254
101338.661
101352.347
101366.952
101382.701
101396.991
101412.871
101429.953
101448.217
101466.971
101484.706
101501.963
101521.304
101540.657
101559.78
101580.086
101601.249
101622.942
101643.934
101663.537
101684.341
101705.149
101725.141
101744.81
101765.061
101785.231
101805.063
101823.776
101840.196
101856.597
101872.253
101886.541
101898.833
101907.982
101916.079
101922.585
101927.78
101931.981
101935.142
101937.041
101937.976
101938.102
101935.51
101931.733
101926.509
101920.27
101913.572
101904.694
101894.499
101882.95
101869.747
101855.428
101841.202
101826.407
101810.466
101793.413
101776.157
101760.044
101742.434
101724.675
101708.423
101691.872
101675.572
101658.466
101640.823
101622.768
101606.893
101591.06
101575.43
101559.96
101544.411
101530.334
101516.352
101502.513
101488.647
101474.762
101462.501
101450.673
101439.48
101428.691
101418.269
101409.48
101401.178
101393.657
101386.642
101380.081
101374.964
101370.348
101366.66
101363.596
101361.072
101359.628
101358.416
101357.944
101357.778
101357.876
101358.006
101358.537
101359.148
101359.845
101360.972
101362.171
101364.048
101365.636
101365.163
101364.219
101362.531
101362.798
101363.961
101365.29
101366.617
101367.169
101367.374
101369.545
101371.285
101372.616
101373.58
101374.676
101375.691
101376.8
101377.857
101378.6
101379.339
101379.797
101379.988
101379.651
101378.706
101377.685
101376.522
101375.335
101373.897
101372.466
101370.965
101369.734
101368.96
101368.591
101368.985
101369.849
101371.046
101372.595
101374.084
101374.947
101375.635
101375.994
101376.334
101376.503
101377.008
101377.586
101378.347
101379.162
101379.739
101380.619
101381.745
101382.929
101383.79
101384.323
101384.376
101384.199
101384.05
101384.047
101384.019
101384.125
101384.4
101384.999
101386.12
101388.276
101391.242
101394.735
101398.304
101401.587
101404.912
101408.628
101412.36
101416.011
101418.819
101421.179
101422.552
101423.039
101422.971
101423.119
101424.742
101426.383
101429.034
101431.666
101433.797
101435.177
101435.662
101434.609
101432.411
101434.633
101435.672
101435.42
101434.825
101433.824
101432.622
101431.143
101429.329
101427.554
101425.467
101423.282
101420.872
101418.442
101415.503
101412.383
101409.233
101406.331
101403.231
101400.243
101397.322
101394.663
101392.007
101389.223
101386.606
101383.894
101381.308
101379.073
101377.617
101374.39
101371.824
101369.001
101367.135
101364.863
101363.004
101360.418
101357.853
101355.397
101352.976
101350.79
101348.888
101347.348
101343.532
101341.503
101339.653
101337.591
101335.47
101333.443
101331.651
101329.965
101328.063
101325.576
101323.595
101322.147
101320.801
101320.145
101317.715
101316.954
101316.019
101315.096
101313.692
101314.047
101313.006
101312.543
101312.089
101311.609
101311.082
101310.646
101310.097
101309.762
101308.84
101308.363
101307.799
101307.322
101306.531
101306.385
101305.503
101304.902
101304.16
101303.391
101302.603
101301.838
101300.826
101299.651
101299.645
101298.837
101298.202
101297.703
101297.24
101296.694
101296.171
101295.554
101294.914
101294.274
101293.747
101293.262
101292.853
101292.612
101292.414
101292.389
101292.4
101292.423
101292.488
101292.499
101292.639
101292.82
101293.042
101293.335
101293.595
101294.009
101294.488
101295.023
101295.618
101296.158
101296.819
)
;

boundaryField
{
    closed
    {
        type            zeroGradient;
    }
    open
    {
        type            waveTransmissive;
        gamma           1.25;
        fieldInf        101325;
        lInf            1;
        value           nonuniform List<scalar> 0();
    }
    sides
    {
        type            empty;
    }
    procBoundary2to1
    {
        type            processor;
        value           uniform 101003.541;
    }
    procBoundary2to3
    {
        type            processor;
        value           uniform 101297.525;
    }
}


// ************************************************************************* //
