/*--------------------------------*- C++ -*----------------------------------*\
| =========                 |                                                 |
| \\      /  F ield         | OpenFOAM: The Open Source CFD Toolbox           |
|  \\    /   O peration     | Version:  2306                                  |
|   \\  /    A nd           | Website:  www.openfoam.com                      |
|    \\/     M anipulation  |                                                 |
\*---------------------------------------------------------------------------*/
FoamFile
{
    version     2.0;
    format      ascii;
    arch        "LSB;label=32;scalar=64";
    class       volScalarField;
    location    "0.00162";
    object      sourcePV;
}
// * * * * * * * * * * * * * * * * * * * * * * * * * * * * * * * * * * * * * //

dimensions      [1 -3 -1 0 0 0 0];

internalField   nonuniform List<scalar> 
530
(
0.00548976847
0.135074172
0.162564522
0.108444734
0.0056958497
0.00561848645
0.132029887
0.162242886
0.11049697
0.00566867409
0.00572803304
0.128509208
0.161816404
0.112857817
0.00559645163
0.0057953107
0.127287453
0.162992819
0.11647616
0.00547485568
0.00575712499
0.129271912
0.173498773
0.119361482
0.00383619708
0.00657043866
0.00322142751
0.137389306
0.168196965
0.173605956
0.145817115
0.0043520271
0.0052680733
0.00556968547
0.00520100909
0.1200946
0.125465734
0.00485971708
0.00578961097
0.119446847
0.151581149
0.153528119
0.13121626
0.0050267024
0.00564025422
0.12213435
0.168119909
0.131146064
0.00465348037
0.00520676024
0.125740571
0.160788853
0.169459078
0.150371681
0.0037860819
0.00599351254
0.00477129758
0.0059930491
0.0290456034
0.143231826
0.140677323
0.00474356169
0.00501475604
0.124671578
0.159040369
0.160629056
0.135245232
0.00457691344
0.0052071652
0.122521976
0.16867705
0.125796876
0.00451971084
0.0053368365
0.11907063
0.164048137
0.111429039
0.00477093847
0.035126273
0.125673715
0.0890881454
0.00566284308
0.00561352473
0.108438052
0.147088161
0.151588879
0.164891594
0.1095722
0.00347093781
0.00640102026
0.00407212491
0.1303602
0.167978329
0.101001413
0.00463924293
0.07276333
0.138320054
0.0406064016
0.0056443379
0.0466453888
0.143341206
0.161849483
0.0941358784
0.00487839512
0.0791311304
0.14005407
0.0371736601
0.00578760847
0.10197245
0.13869587
0.0163486227
0.0057810547
0.0602810164
0.14876336
0.161079144
0.0752383958
0.0049656239
0.0298085664
0.151152192
0.164894961
0.0649013757
0.00499234074
0.0401079482
0.154627718
0.164325351
0.0581050067
0.00536905671
0.0988438848
0.13858683
0.01081762
0.00575321144
0.0632010093
0.153779327
0.160004186
0.048282313
0.00527055156
0.0471378287
0.15274765
0.160922338
0.0493743116
0.00528144322
0.0489203616
0.153351537
0.161619649
0.0495036381
0.00526236503
0.0535216762
0.155860075
0.162276512
0.0494550908
0.00554972489
0.100367668
0.140194777
0.0136335935
0.00577371778
0.0703272815
0.154649623
0.159282511
0.0484316403
0.00563263348
0.0996729274
0.138813995
0.0132409451
0.00584947726
0.0696986951
0.151801641
0.157255897
0.0475593317
0.00540859691
0.0563305757
0.15356512
0.158527554
0.046196807
0.00568363666
0.101082578
0.137209885
0.0085417151
0.00588460045
0.0718789512
0.150825438
0.154043372
0.0443865638
0.00550536589
0.0505825966
0.148092354
0.153640813
0.0446407605
0.0055244242
0.041183009
0.145975984
0.151857953
0.0369492435
0.00573600719
0.051220182
0.133651272
0.14201833
0.162705496
0.163066641
0.0518156637
0.00544659814
0.106050989
0.144292213
0.0187814821
0.00580992541
0.113674666
0.144831441
0.0101384466
0.00551280005
0.0880466617
0.165084974
0.167038207
0.0550845639
0.00526884286
0.107250953
0.1489578
0.0238737159
0.00568583235
0.113965417
0.148984031
0.0238146625
0.00569208184
0.115166716
0.149262062
0.0215077579
0.00571934736
0.116597745
0.147893333
0.0153782654
0.0057630363
0.118427784
0.146518016
0.00276107848
0.00548916777
0.0908565549
0.169305821
0.168336807
0.0323024446
0.00549631034
0.113359588
0.14306366
0.00225694316
0.00558894323
0.08755007
0.166063562
0.163641276
0.0212985958
0.00562338013
0.113223721
0.1387608
0.00272192997
0.00564745931
0.0858406997
0.162826776
0.159024451
0.0120061926
0.00526572995
0.0785907373
0.163468607
0.157888923
0.0110395768
0.00547747148
0.11610884
0.135082248
0.00374719573
0.0055612464
0.0875548957
0.159481101
0.151902804
0.0030756424
0.00534157955
0.0724842356
0.156372001
0.148379336
0.0038111781
0.00578567486
0.0586711514
0.132576473
0.165139158
0.15413621
0.00378329421
0.00524685216
0.076316516
0.163101923
0.145187276
0.00343451315
0.106850534
0.143241561
0.00426498967
0.00622322306
0.00463878232
0.0910736861
0.170718454
0.159668594
0.00400564711
0.00520081102
0.0951915279
0.164264975
0.152513453
0.00432550685
0.00539732675
0.0867218478
0.159915341
0.150343364
0.00446150852
0.00547192775
0.0870066201
0.159344636
0.151419057
0.00451051302
0.00549582437
0.0888464968
0.159989072
0.153681163
0.00448131847
0.0054540692
0.093052457
0.163046419
0.158814335
0.00445782542
0.00576827328
0.121732485
0.136771922
0.00408921627
0.0057344282
0.102344607
0.162065687
0.16144788
0.00439704979
0.00547357659
0.0994200318
0.16612481
0.166013661
0.00414041118
0.00529600905
0.101618985
0.176178563
0.169435703
0.00374109496
0.00609012565
0.00574270906
0.120152543
0.141266424
0.00342350469
0.00559815958
0.107537946
0.164753231
0.164575922
0.00375390841
0.00541272795
0.100898101
0.164120272
0.163658836
0.00369978334
0.00573106333
0.117049469
0.132380513
0.00330817406
0.00578944564
0.0974867893
0.153716004
0.153448328
0.00378491259
0.00576345368
0.0981907815
0.146844469
0.161087719
0.160881053
0.00305391588
0.00545222351
0.126207205
0.144389796
0.00273306158
0.00539558804
0.117398703
0.175882283
0.175076864
0.00308163728
0.00530439608
0.127663587
0.149162382
0.00477424278
0.00545124261
0.129871498
0.149071775
0.00465059404
0.00550566203
0.129101937
0.148509772
0.00480156944
0.00554035911
0.1278668
0.147245852
0.00473807825
0.00558546927
0.12678401
0.145473393
0.00396062044
0.00561781805
0.125937331
0.144359908
0.00248342536
0.00541755733
0.115842771
0.175421436
0.174608788
0.00304870575
0.00542280158
0.127152663
0.149397784
0.00355283723
0.00561707481
0.129218228
0.14761736
0.00253362157
0.00569105038
0.127594289
0.146368393
0.00277003131
0.00547825683
0.116289402
0.174036645
0.1730955
0.00332876235
0.0055728606
0.127989948
0.148586501
0.00279311924
0.00573424235
0.129693764
0.146687656
0.00297101531
0.0057414366
0.129346644
0.148026123
0.00312782992
0.00534375526
0.119779012
0.186411544
0.183743182
0.00315875765
0.00558810212
0.00486431124
0.00598328893
0.00590547678
0.121787186
0.164227743
0.179813993
0.179834646
0.00303356385
0.00534529884
0.137124167
0.153519903
0.0035534963
0.00549158283
0.116127412
0.167264618
0.166225513
0.00434059062
0.00589243179
0.121305016
0.136335429
0.00422100212
0.00596219959
0.101430826
0.154928872
0.154496684
0.00454252499
0.00579072061
0.0957601231
0.157976402
0.157679296
0.00463237934
0.00570853602
0.10270167
0.163041102
0.16212442
0.00460663084
0.00601645619
0.12464622
0.139885917
0.00456409145
0.00595867796
0.109557899
0.161964805
0.161619738
0.00476943758
0.00565974573
0.107702229
0.166848981
0.165978242
0.00477315296
0.00593172907
0.127835252
0.143788889
0.00469265103
0.00581993897
0.115304986
0.168252174
0.167088252
0.00471580292
0.00597513575
0.12885314
0.142844813
0.00460135852
0.0062459706
0.127701368
0.138585373
0.00480663657
0.00602622644
0.105537315
0.15843001
0.157889318
0.00498353947
0.00580214518
0.095766106
0.15904303
0.158344348
0.00499305943
0.00579871769
0.096134381
0.159268577
0.158568454
0.005019866
0.00580697917
0.0956646397
0.159008742
0.158358635
0.00505624529
0.00581812072
0.0954027542
)
;

boundaryField
{
    closed
    {
        type            calculated;
        value           nonuniform List<scalar> 0();
    }
    open
    {
        type            calculated;
        value           nonuniform List<scalar> 0();
    }
    sides
    {
        type            empty;
    }
    procBoundary2to1
    {
        type            processor;
        value           uniform 0;
    }
    procBoundary2to3
    {
        type            processor;
        value           uniform 0;
    }
}


// ************************************************************************* //
