/*--------------------------------*- C++ -*----------------------------------*\
| =========                 |                                                 |
| \\      /  F ield         | OpenFOAM: The Open Source CFD Toolbox           |
|  \\    /   O peration     | Version:  2306                                  |
|   \\  /    A nd           | Website:  www.openfoam.com                      |
|    \\/     M anipulation  |                                                 |
\*---------------------------------------------------------------------------*/
FoamFile
{
    version     2.0;
    format      ascii;
    arch        "LSB;label=32;scalar=64";
    class       volScalarField;
    location    "0.0017";
    object      h;
}
// * * * * * * * * * * * * * * * * * * * * * * * * * * * * * * * * * * * * * //

dimensions      [0 2 -2 0 0 0 0];

internalField   nonuniform List<scalar> 
530
(
12623.9012
4971.39125
2377.30049
2283.0437
2274.37903
2273.93216
2273.89641
2273.89472
2273.89462
2273.89461
2273.89461
2273.89461
2273.89461
2273.89461
2273.89461
2273.89461
2273.89461
2273.89461
2273.89461
2273.89461
2273.89461
2273.89461
2273.89461
2273.89461
2273.89461
2273.89461
2273.89461
2273.89461
2273.89461
2273.89461
2273.89461
2273.89461
2273.89461
2273.89461
2273.89461
2273.89461
2273.89461
2273.89461
2273.89461
2273.89461
2273.89461
2273.89461
2273.89461
2273.89461
2273.89461
2273.89461
2273.89461
2273.89461
2273.89461
2273.89461
2273.89461
2273.89461
2273.89461
2273.89461
2273.89461
2273.89461
2273.89461
2273.89465
2273.89465
2273.89499
2273.89514
2273.89771
2273.899
2273.91423
2273.91689
2273.99443
2274.01518
2274.26119
2274.59229
2275.2626
2275.29611
2277.65708
2282.44805
2291.37911
2273.58932
2221.79688
2262.24115
2725.8974
2741.69209
550.001648
-199.411048
5213.47968
7372.15478
1243.65834
-1464.1984
1983.08772
3418.28537
976.029164
-3022.67315
-4587.64299
-5.09317202
9838.28221
10746.0363
9882.85638
-1406.11205
-6810.6335
-3664.22689
9685.86542
10623.5491
9953.23977
-2856.54995
-5384.02142
-6078.89959
-5952.25611
9645.51207
10129.0943
9707.77042
10303.8385
9785.00331
-3685.45217
-6111.16761
-5002.01642
10287.2967
10057.003
-2526.73989
-5737.09461
-4447.356
10150.8336
10299.1004
10521.8586
10347.792
13.5059572
-4556.70074
-4526.6287
-5302.63292
-6965.36883
-6458.64442
9684.38248
10023.7177
9784.52639
-5077.814
-6596.54185
10080.7885
9887.29008
10367.2289
9938.365
-3398.01351
-6567.7701
-5676.63441
10015.6131
10074.4251
-4179.43938
-5184.10812
10377.4993
10295.5689
-2081.32072
-4378.57501
-4454.11158
-5107.97617
10126.9104
10092.3417
10476.2594
10081.3156
-2452.36191
-5893.41521
-5401.43521
10251.0422
10055.1087
1845.9185
-6581.8695
-4016.50927
9678.64155
-2641.90736
-6236.38188
10221.1968
10191.2955
-4665.10452
-5074.3805
9936.71471
10224.9398
-5042.82768
-4724.3526
9824.90153
10333.4176
10053.1552
-3868.6116
-4625.38667
10009.485
10542.8461
10192.0476
1808.34163
-4502.49469
-5353.09626
-4493.46874
9724.81747
-2175.03941
-6862.38171
10549.3138
9846.3055
-786.257143
-7348.97429
-5512.43034
9662.44827
10028.154
10026.1078
-6006.13448
-5861.30725
9630.48638
-4229.46466
-6532.52216
9783.06453
10170.593
9906.59439
-3782.73927
-5931.01509
10044.7261
10081.8372
10348.0193
10196.9616
-3265.87502
-5725.98062
-4818.21954
-6575.19064
-6581.73784
9879.37287
9953.19735
-4169.1263
-5793.57482
10278.4377
10042.6369
-415.387299
-6753.86992
-5850.31221
9770.36209
9973.8197
10132.2264
10034.0745
-3590.17333
-6858.68209
-3685.94049
9728.08939
10391.6682
10100.8358
-4763.72465
-4701.70205
9696.53885
-258.969574
-6701.41735
10432.8663
9907.87185
-1428.70992
-7259.49247
-5425.18946
9536.47425
10190.8087
9842.20475
-4514.29057
-5361.64629
9614.72064
3561.38591
-6442.5528
10187.6703
10022.4188
-1490.37042
-6853.2548
-5304.82478
9380.72007
10096.1616
9650.69735
-5802.65007
-7321.49743
9523.12138
9971.90833
-5429.00268
-5370.1341
9437.31144
10170.9112
9812.95837
-4866.40242
-5450.0094
9473.35303
-3458.36129
-6379.75072
9769.07796
10115.7804
10103.0347
4825.09311
-4779.78224
-5759.41182
-5839.02613
9752.82375
9825.22796
-3401.70849
-7735.98731
-5599.24363
9349.39567
10369.6431
9665.11998
-3126.01261
-8253.65237
-6921.82005
9545.95703
9888.05918
10116.1372
10038.3457
2614.15311
-6350.32851
-6339.54988
9797.39533
9980.38444
-4122.31392
-5531.22579
9840.69625
10103.9761
-3524.98746
-5116.40602
10006.8475
10105.574
-2734.94908
-5535.76946
-5534.59391
9968.55512
10106.5569
-3070.29724
-4923.89429
10118.7809
10208.2773
-1549.9954
-4749.53271
-4747.71623
10166.0521
10180.0121
-400.703445
-6134.36755
-4987.58298
9630.40027
10291.9035
10046.0491
-4073.49967
-6286.79374
-6811.31695
-6683.53256
9362.75757
10332.2754
9763.9223
-1805.38454
-5218.73289
10066.8871
10219.138
-2803.80455
-4268.98504
9997.73478
10300.8367
-2771.84634
-4337.95872
10091.5559
10238.7035
-403.269957
-4980.9069
-4968.72019
10000.549
10254.2277
-2630.74415
-4011.3533
10090.3864
10417.396
-1261.62691
-3652.62687
-4651.14447
-4631.09892
9586.08478
10225.6428
-4652.1408
-5084.07998
9532.81977
10209.0959
10278.4333
10282.2309
421.063689
-5295.58558
-4604.4227
-7204.47635
-7204.0452
9251.69927
9827.32528
-6379.41813
-6859.23322
8991.96271
9942.57759
9713.29105
10087.6851
10336.5097
10274.9305
-519.879706
-4369.70687
-3402.59323
-5107.36992
-4894.72648
-6623.9672
-6467.66715
9473.73242
10403.4292
9913.70586
-1016.34178
-4750.57894
10058.4657
10322.4786
-2198.23237
-3645.19801
10082.4998
10448.7201
-1225.45956
-3658.99264
-4680.14513
-4666.54409
9561.5397
10193.7858
-4052.28663
-5205.29965
9609.81387
10069.7614
-3680.29588
-5821.609
9651.93581
9763.94111
-3572.78662
-8408.55947
-7704.60789
9099.55873
9818.18294
9506.62399
9993.58934
9852.24472
10235.6208
10197.6916
-3382.34756
-5332.60943
-6147.03703
-6124.83035
9410.79576
10082.2718
-3743.49201
-4776.48659
9799.68913
10288.5613
-1468.18545
-3935.50138
-4143.36569
-4660.77506
9740.82762
10078.1204
-2090.44506
-5867.62215
-5122.2045
9680.85202
10453.0534
10272.73
-2457.94507
-4322.51821
9947.57826
10284.7069
440.0589
-4622.82593
-4618.89952
9918.34409
10209.9871
-985.072496
-4881.70318
-4876.99457
9913.05852
10174.2502
-1004.94655
-4970.04124
-4976.56023
9899.1268
10182.9606
-2136.35568
-4642.78808
-5743.4903
-5771.53729
9184.88419
10294.2097
9751.88192
-3242.52196
-5941.27117
9403.30781
10088.3751
10188.9465
10200.79
1940.96742
-4902.70819
-4417.10516
-6557.60799
-6567.10628
9297.26996
9600.04777
-3145.84707
9252.31366
10357.149
-2875.3123
-4922.9106
-4921.72594
9767.2279
10149.1848
-821.416313
-5163.66882
-5163.81739
9769.46294
10187.9189
-2751.66062
-4529.064
9672.43427
10250.9653
-2625.60232
-4495.937
9789.52489
10177.0967
947.600661
-5500.17319
-4273.80392
9513.25072
-1849.88067
-5679.82853
9512.91982
10184.7969
-4053.19213
-4213.17631
9162.55613
10578.2667
10037.8377
-1712.64088
-5926.61096
-5851.60047
9687.66088
10228.6814
-3561.65357
-3591.39208
9242.84005
-941.583373
-5864.0651
)
;

boundaryField
{
    closed
    {
        type            lookUpEnthalpy;
        h0              uniform 257653.02;
        value           uniform 257653.02;
    }
    open
    {
        type            zeroGradient;
    }
    sides
    {
        type            empty;
    }
    procBoundary0to1
    {
        type            processor;
        value           uniform 9512.60031;
    }
}


// ************************************************************************* //
