/*--------------------------------*- C++ -*----------------------------------*\
| =========                 |                                                 |
| \\      /  F ield         | OpenFOAM: The Open Source CFD Toolbox           |
|  \\    /   O peration     | Version:  2306                                  |
|   \\  /    A nd           | Website:  www.openfoam.com                      |
|    \\/     M anipulation  |                                                 |
\*---------------------------------------------------------------------------*/
FoamFile
{
    version     2.0;
    format      ascii;
    arch        "LSB;label=32;scalar=64";
    class       volScalarField;
    location    "0.0017";
    object      prefDh_H2O;
}
// * * * * * * * * * * * * * * * * * * * * * * * * * * * * * * * * * * * * * //

dimensions      [1 1 -3 0 0 0 0];

internalField   nonuniform List<scalar> 
530
(
93.0354011
90.0409127
89.8100898
89.8185827
89.8195513
89.819574
89.8195747
89.8195748
89.8195748
89.8195748
89.8195748
89.8195748
89.8195748
89.8195748
89.8195748
89.8195748
89.8195748
89.8195748
89.8195748
89.8195748
89.8195748
89.8195748
89.8195748
89.8195748
89.8195748
89.8195748
89.8195748
89.8195748
89.8195748
89.8195748
89.8195748
89.8195748
89.8195748
89.8195748
89.8195748
89.8195748
89.8195748
89.8195748
89.8195748
89.8195748
89.8195748
89.8195748
89.8195748
89.8195748
89.8195748
89.8195748
89.8195748
89.8195748
89.8195748
89.8195748
89.8195748
89.8195748
89.8195748
89.8195748
89.8195748
89.8195748
89.8195748
89.8195748
89.8195748
89.8195748
89.8195748
89.8195747
89.8195747
89.8195743
89.8195744
89.8195729
89.8195694
89.8195595
89.8195955
89.819583
89.8192186
89.8193855
89.8209359
89.8225507
89.8149226
89.7855538
89.8040972
89.9944581
89.9953442
89.1165522
88.8568435
91.3125174
92.6770615
89.3709464
88.4833062
89.6463721
90.2724672
89.2460525
88.1038364
87.9170743
88.9619623
92.4292411
92.0809966
92.4263435
88.4968632
87.565747
88.0037334
92.4455169
92.1880829
92.3686619
88.1530744
87.7837579
87.6529239
87.6892272
92.4461102
92.3533979
92.4254491
92.3086426
92.4089326
88.0398744
87.665496
87.8312781
92.3127085
92.3457125
88.2200135
87.721108
87.9179263
92.3207642
92.2927777
92.2269858
92.2817471
88.9302163
87.9134279
87.9088061
87.7969668
87.5255523
87.6108053
92.4673432
92.3834695
92.4468564
87.8240876
87.6000836
92.3669254
92.4372557
92.2909849
92.4082123
88.0833008
87.6024905
87.7226961
92.3836046
92.3488799
87.9602923
87.8128689
92.2715491
92.3115855
88.3017337
87.9548212
87.907563
87.8333685
92.3282325
92.3659907
92.2509246
92.3506668
88.2329564
87.703161
87.7757665
92.3110279
92.3722571
89.5864197
87.593948
87.9785493
92.4546086
88.1942696
87.6512298
92.3200973
92.342342
87.8827285
87.838498
92.3820715
92.3420346
87.8195756
87.893935
92.4032814
92.3133776
92.3453136
88.0187958
87.8957098
92.3741743
92.246637
92.3213442
89.5482674
87.9085482
87.7903854
87.9082512
92.4584296
88.278375
87.5642264
92.2460307
92.4580633
88.67801
87.490661
87.7555404
92.5001376
92.3867458
92.3979515
87.6862976
87.7196969
92.4915902
87.9805705
87.6117035
92.4769965
92.375299
92.4342129
88.046404
87.713698
92.4036619
92.3995607
92.3246047
92.3623452
88.1257088
87.7533817
87.8847301
87.6133912
87.6030926
92.4593187
92.4307022
87.9858161
87.7387007
92.3402567
92.4012743
88.787412
87.5776046
87.7085923
92.4554847
92.3997077
92.35284
92.3842499
88.0580219
87.5652623
88.0516851
92.4724899
92.2999787
92.3693839
87.8791897
87.8908596
92.4666244
88.8378337
87.5773574
92.2850281
92.4170352
88.4898499
87.4986209
87.7723101
92.5250751
92.3503954
92.4363221
87.9281592
87.7923928
92.5186919
90.2721693
87.6295765
92.3661877
92.4246847
88.4746879
87.5874505
87.8061558
92.6005655
92.4006467
92.5205117
87.7326567
87.5036928
92.5691667
92.473174
87.8006016
87.825352
92.5755759
92.407571
92.467336
87.8875933
87.7914507
92.5617911
88.1072382
87.6506539
92.5008669
92.4127548
92.4093105
90.8528042
87.8929249
87.7510566
87.7229563
92.5030032
92.4629059
88.1112807
87.4277932
87.7633897
92.5852616
92.3332433
92.488168
88.1529805
87.3369465
87.5444451
92.5338909
92.4298627
92.370467
92.3835643
89.8696729
87.6319708
87.6287154
92.4570906
92.3973998
87.9813306
87.7681336
92.4375414
92.3731918
88.07128
87.8362826
92.3892887
92.3753994
88.1848945
87.7748025
87.7480397
92.41823
92.3450479
88.1482747
87.8578583
92.370539
92.3433518
88.4561036
87.8988229
87.8854761
92.365616
92.3592757
88.792314
87.6798619
87.8472171
92.4985483
92.3236633
92.3854881
87.9879856
87.6547086
87.5565567
87.5875307
92.5648923
92.3253944
92.4505724
88.3856568
87.8175321
92.3762713
92.3373425
88.1752757
87.9654842
92.3690953
92.3114023
88.1664809
87.9527942
92.3292855
92.3272062
88.8036207
87.8519552
87.8204984
92.3934587
92.2867676
88.2075644
87.9932969
92.3624569
92.2809843
88.5377165
88.0652911
87.9011977
87.9074535
92.5029829
92.342544
87.8990083
87.8401872
92.51856
92.3573192
92.323987
92.3413473
89.0543204
87.8187443
87.9068655
87.5122009
87.4937525
92.6344091
92.4482145
87.6414009
87.5521968
92.690117
92.4198737
92.4912825
92.3796193
92.3226709
92.3346158
88.7556567
87.9625815
88.1000396
87.8447288
87.8667526
87.5992755
87.6148991
92.5444239
92.2981367
92.4191628
88.609099
87.8934055
92.3814576
92.3155303
88.2765125
88.0684727
92.3645969
92.2854361
88.5481147
88.0650352
87.8940607
87.8982143
92.507612
92.3402668
87.9936069
87.8166828
92.5048814
92.383316
88.0554085
87.7296909
92.4986813
92.4805142
88.0656083
87.3164413
87.4099692
92.6700701
92.4424577
92.5508601
92.3932489
92.449573
92.3306606
92.3528333
88.0936691
87.8076242
87.6680615
87.6755957
92.564969
92.3871738
88.0483329
87.8951644
92.4574881
92.3384239
88.479271
88.0322611
87.9836183
87.9080126
92.4643911
92.3786467
88.3036611
87.7222116
87.8178526
92.477461
92.2688871
92.3134104
88.2327645
87.9550477
92.3967217
92.3228302
89.0705303
87.91236
87.889032
92.4158931
92.3166591
88.6187883
87.8657094
87.8533596
92.4122392
92.3346717
88.6129561
87.8584147
87.8384904
92.4268201
92.3320844
88.2940504
87.9102886
87.731894
87.7281921
92.6087009
92.3269669
92.4584908
88.1205899
87.7073221
92.5647349
92.3918876
92.3565365
92.3630402
89.589606
87.8726963
87.9381021
87.6081315
87.5995306
92.5926564
92.5196688
88.1218161
92.6182073
92.2904285
88.1837955
87.8676424
87.8623109
92.462043
92.3642646
88.6673522
87.8382167
87.8079107
92.4751668
92.3226239
88.2016984
87.9159346
92.4846471
92.3198111
88.211255
87.9299581
92.4424275
92.3531121
89.2421347
87.7733316
87.9480103
92.507521
88.3692802
87.7384869
92.5148029
92.333766
87.9881373
87.9614776
92.5988762
92.230872
92.3659909
88.407567
87.7056713
87.6976026
92.4833082
92.3113392
88.0744019
88.0594579
92.5957063
88.6312476
87.7154492
)
;

boundaryField
{
    closed
    {
        type            calculated;
        value           uniform 120.375574;
    }
    open
    {
        type            calculated;
        value           nonuniform List<scalar> 0();
    }
    sides
    {
        type            empty;
    }
    procBoundary0to1
    {
        type            processor;
        value           uniform 92.5308058;
    }
}


// ************************************************************************* //
