/*--------------------------------*- C++ -*----------------------------------*\
| =========                 |                                                 |
| \\      /  F ield         | OpenFOAM: The Open Source CFD Toolbox           |
|  \\    /   O peration     | Version:  2306                                  |
|   \\  /    A nd           | Website:  www.openfoam.com                      |
|    \\/     M anipulation  |                                                 |
\*---------------------------------------------------------------------------*/
FoamFile
{
    version     2.0;
    format      ascii;
    arch        "LSB;label=32;scalar=64";
    class       volScalarField;
    location    "0.0017";
    object      prefDZ_H;
}
// * * * * * * * * * * * * * * * * * * * * * * * * * * * * * * * * * * * * * //

dimensions      [1 -1 -1 0 0 0 0];

internalField   nonuniform List<scalar> 
530
(
0.000115825352
0.000109048589
0.000107873759
0.000107843008
0.000107840239
0.000107840106
0.000107840096
0.000107840095
0.000107840095
0.000107840095
0.000107840095
0.000107840095
0.000107840095
0.000107840095
0.000107840095
0.000107840095
0.000107840095
0.000107840095
0.000107840095
0.000107840095
0.000107840095
0.000107840095
0.000107840095
0.000107840095
0.000107840095
0.000107840095
0.000107840095
0.000107840095
0.000107840095
0.000107840095
0.000107840095
0.000107840095
0.000107840095
0.000107840095
0.000107840095
0.000107840095
0.000107840095
0.000107840095
0.000107840095
0.000107840095
0.000107840095
0.000107840095
0.000107840095
0.000107840095
0.000107840095
0.000107840095
0.000107840095
0.000107840095
0.000107840095
0.000107840095
0.000107840095
0.000107840095
0.000107840095
0.000107840095
0.000107840095
0.000107840095
0.000107840095
0.000107840095
0.000107840095
0.000107840095
0.000107840096
0.000107840096
0.000107840097
0.000107840101
0.000107840102
0.000107840124
0.000107840131
0.000107840203
0.000107840283
0.000107840475
0.000107840611
0.000107841213
0.000107842011
0.000107843941
0.000107841656
0.000107838013
0.00010784245
0.000107908579
0.00010791198
0.000107751901
0.000107800339
0.00010852353
0.000109442509
0.000107771509
0.000107899297
0.000107835866
0.000108023292
0.00010780875
0.00010743825
0.000106628341
0.000107627029
0.000110282332
0.000110608374
0.000110264093
0.000107623739
0.000105416128
0.000107115679
0.000110329081
0.000110425368
0.000110363408
0.000107528289
0.000106207396
0.000105853181
0.000105905203
0.000110350285
0.000110302121
0.000110364689
0.000110312698
0.000110360971
0.00010710597
0.000105817459
0.000106418881
0.000110312087
0.000110360645
0.000107700121
0.00010602333
0.000106710343
0.000110368288
0.000110353404
0.0001103883
0.000110352977
0.000107767045
0.000106648412
0.000106667759
0.000106250807
0.000105354884
0.000105627151
0.00011027735
0.000110288526
0.000110270102
0.000106376155
0.000105535331
0.000110296492
0.000110234921
0.000110320085
0.000110276694
0.000107254247
0.000105554512
0.000106062484
0.000110292758
0.000110343437
0.000106849966
0.000106316164
0.00011036102
0.000110310196
0.000107786845
0.000106737481
0.000106709472
0.000106351269
0.00011036369
0.00011029227
0.000110356149
0.000110335333
0.000107738383
0.000105932417
0.000106202006
0.00011033624
0.00011029801
0.000107828946
0.000105555678
0.000106935631
0.000110311336
0.000107639256
0.000105742577
0.00011033101
0.000110294043
0.000106596742
0.000106369406
0.000110340596
0.000110275922
0.000106400129
0.000106556339
0.000110352222
0.000110284751
0.000110363721
0.000107010179
0.000106614969
0.000110318936
0.000110329874
0.000110344163
0.000107849008
0.000106681751
0.000106222683
0.000106687007
0.000110275962
0.000107820777
0.000105375765
0.000110327773
0.000110207315
0.000107795175
0.000105089764
0.000106144693
0.000110209852
0.000110278082
0.000110251956
0.000105870083
0.000105937965
0.000110249198
0.000106815886
0.00010556888
0.000110197117
0.000110225315
0.000110231336
0.000107052998
0.000105893985
0.000110227368
0.000110216249
0.00011024918
0.000110242135
0.000107323406
0.000105999221
0.000106503162
0.000105532211
0.00010554261
0.000110185102
0.00011021325
0.00010684926
0.000105966225
0.000110250128
0.000110234421
0.000107829587
0.000105443406
0.00010595718
0.000110257183
0.000110277295
0.000110301716
0.000110280801
0.00010715515
0.000105377089
0.000107104908
0.000110239864
0.000110284742
0.00011027927
0.000106539635
0.000106571591
0.000110272176
0.000107804171
0.000105486021
0.000110298046
0.000110272532
0.000107826563
0.000105154234
0.000106189077
0.000110221467
0.000110274778
0.000110262915
0.000106667534
0.00010621549
0.000110191784
0.000108046118
0.000105613883
0.000110237985
0.000110188284
0.000107877416
0.000105341129
0.000106242414
0.000110125644
0.000110205365
0.000110166282
0.000105966227
0.000105086921
0.000110119836
0.000110096212
0.000106162667
0.000106180216
0.000110154576
0.000110144978
0.000110203686
0.000106470796
0.000106156528
0.00011016765
0.000107222287
0.000105632915
0.000110145928
0.000110163995
0.000110179942
0.000108293792
0.000106522554
0.000105977394
0.000105950469
0.000110150118
0.00011020753
0.000107252366
0.000104866804
0.000106079148
0.000110182251
0.000110215705
0.000110237675
0.000107396414
0.000104583008
0.000105359757
0.000110194271
0.000110252558
0.000110268012
0.000110280057
0.000107916961
0.000105681494
0.000105693614
0.00011023781
0.000110279187
0.000106877124
0.000106121683
0.000110260806
0.000110268243
0.000107188838
0.000106343826
0.000110283928
0.000110261962
0.00010759338
0.000106112518
0.000106135937
0.000110235107
0.000110334776
0.000107424288
0.000106452514
0.000110266344
0.000110282078
0.000107845312
0.000106538147
0.000106546296
0.000110251637
0.00011025923
0.000107824177
0.000105783422
0.000106418916
0.00011023225
0.000110283005
0.000110271036
0.000106902923
0.000105700078
0.00010543008
0.00010548482
0.000110224567
0.000110256119
0.000110272793
0.000107866733
0.000106290561
0.00011028167
0.000110290565
0.000107558555
0.000106797929
0.000110337674
0.000110307708
0.000107571227
0.000106762111
0.000110380651
0.000110304155
0.000107721328
0.000106420273
0.000106444002
0.000110277367
0.000110392301
0.000107648197
0.000106936252
0.00011030191
0.000110316401
0.000107815636
0.000107121467
0.000106597295
0.000106606515
0.000110246899
0.000110274288
0.000106597682
0.00010636205
0.000110239521
0.00011024757
0.000110289757
0.000110245315
0.000107808709
0.000106238344
0.000106622787
0.000105176165
0.00010521156
0.00011011767
0.000110242393
0.000105646568
0.000105398323
0.000110133609
0.000110245899
0.000110202243
0.000110261791
0.00011026039
0.000110265882
0.000107833937
0.000106739601
0.000107252248
0.00010634367
0.000106465622
0.000105514653
0.000105614834
0.000110210335
0.000110282649
0.000110264051
0.00010783265
0.000106540469
0.000110273824
0.000110285642
0.00010786597
0.00010712513
0.00011030116
0.000110288234
0.000107806863
0.000107118047
0.000106583096
0.000106589385
0.000110249709
0.000110297672
0.000106913538
0.000106299925
0.000110228604
0.00011026292
0.000107107583
0.000105955765
0.000110219508
0.000110199497
0.000107164004
0.00010447783
0.000104937187
0.000110119294
0.000110261651
0.000110175261
0.000110281803
0.00011022479
0.000110297525
0.000110264968
0.000107262654
0.000106222605
0.000105788397
0.000105795803
0.000110196416
0.000110246411
0.00010707421
0.000106523338
0.000110235523
0.000110248898
0.000107843851
0.000106970271
0.00010686465
0.000106588197
0.000110252344
0.000110269565
0.000107838455
0.00010593066
0.000106352143
0.000110254786
0.000110325828
0.000110318491
0.00010773576
0.000106770324
0.000110299313
0.000110289053
0.000107774301
0.000106609227
0.000106621292
0.000110269373
0.000110345455
0.000107794703
0.000106474323
0.000106483627
0.000110281234
0.000110322062
0.000107792191
0.000106423161
0.000106430635
0.00011025368
0.000110323439
0.000107870227
0.000106598069
0.000106008898
0.00010599292
0.000110220822
0.000110273681
0.000110260405
0.000107335195
0.000105893738
0.000110201362
0.000110231388
0.00011026087
0.00011023826
0.000107867079
0.000106457042
0.000106721103
0.000105554287
0.000105559273
0.000110194549
0.000110197904
0.000107383654
0.000110157772
0.000110327004
0.000107525641
0.000106447343
0.000106451301
0.000110242975
0.000110264468
0.000107798296
0.000106311318
0.00010633211
0.000110209493
0.000110343384
0.00010758918
0.000106663725
0.00011024208
0.000110315168
0.000107651585
0.000106677732
0.000110278009
0.000110275885
0.00010779483
0.000106138267
0.000106800202
0.00011027758
0.000107814445
0.000106046704
0.00011026011
0.000110318373
0.000106914162
0.000106830898
0.000110257726
0.00011034828
0.000110322773
0.000107802802
0.000105906168
0.000105966699
0.000110236611
0.000110347854
0.000107169446
0.000107154471
0.000110218851
0.000107812969
0.000105940512
)
;

boundaryField
{
    closed
    {
        type            calculated;
        value           uniform 0.000144178592;
    }
    open
    {
        type            calculated;
        value           nonuniform List<scalar> 0();
    }
    sides
    {
        type            empty;
    }
    procBoundary0to1
    {
        type            processor;
        value           uniform 0.000110221229;
    }
}


// ************************************************************************* //
