/*--------------------------------*- C++ -*----------------------------------*\
| =========                 |                                                 |
| \\      /  F ield         | OpenFOAM: The Open Source CFD Toolbox           |
|  \\    /   O peration     | Version:  2306                                  |
|   \\  /    A nd           | Website:  www.openfoam.com                      |
|    \\/     M anipulation  |                                                 |
\*---------------------------------------------------------------------------*/
FoamFile
{
    version     2.0;
    format      ascii;
    arch        "LSB;label=32;scalar=64";
    class       volScalarField;
    location    "0.0017";
    object      prefDh_H;
}
// * * * * * * * * * * * * * * * * * * * * * * * * * * * * * * * * * * * * * //

dimensions      [1 1 -3 0 0 0 0];

internalField   nonuniform List<scalar> 
530
(
25206.1999
23667.8468
23400.7853
23393.7799
23393.149
23393.1187
23393.1164
23393.1163
23393.1163
23393.1163
23393.1163
23393.1163
23393.1163
23393.1163
23393.1163
23393.1163
23393.1163
23393.1163
23393.1163
23393.1163
23393.1163
23393.1163
23393.1163
23393.1163
23393.1163
23393.1163
23393.1163
23393.1163
23393.1163
23393.1163
23393.1163
23393.1163
23393.1163
23393.1163
23393.1163
23393.1163
23393.1163
23393.1163
23393.1163
23393.1163
23393.1163
23393.1163
23393.1163
23393.1163
23393.1163
23393.1163
23393.1163
23393.1163
23393.1163
23393.1163
23393.1163
23393.1163
23393.1163
23393.1163
23393.1163
23393.1163
23393.1163
23393.1163
23393.1163
23393.1163
23393.1163
23393.1165
23393.1166
23393.1176
23393.1177
23393.1228
23393.1244
23393.1408
23393.159
23393.2026
23393.2339
23393.3709
23393.5512
23393.9895
23393.475
23392.6671
23393.6635
23408.5755
23409.3493
23373.5037
23384.6604
23547.4543
23755.3578
23377.8108
23407.3457
23392.2745
23434.4769
23386.3549
23303.1796
23120.6474
23345.2014
23944.6884
24018.0597
23940.5686
23344.7136
22847.0824
23230.3867
23955.2539
23976.8154
23962.9512
23323.5929
23025.6194
22945.5944
22957.4023
23960.0414
23949.1039
23963.2795
23951.461
23962.4285
23228.3565
22937.6065
23073.2935
23951.326
23962.3117
23362.432
22984.0517
23139.0657
23964.0201
23960.6403
23968.4732
23960.5363
23377.0519
23125.1417
23129.4693
23035.4177
22833.1948
22894.6599
23943.5898
23946.0553
23941.9393
23063.6709
22873.9851
23947.8425
23933.9902
23953.1166
23943.4011
23261.8113
22878.3048
22992.8547
23947.0108
23958.4288
23170.5757
23050.1555
23962.3451
23950.8982
23381.8832
23145.2971
23138.8309
23058.1127
23962.987
23946.8887
23961.231
23956.6004
23371.0718
22963.5633
23024.3813
23956.7777
23948.1889
23390.7396
22878.5415
23189.8777
23951.2538
23348.6655
22920.7307
23955.6032
23947.2727
23113.4252
23062.2052
23957.8101
23943.1813
23069.0398
23104.3918
23960.4495
23945.1549
23963.0059
23206.7706
23117.5663
23952.9145
23955.2959
23958.5736
23395.3279
23132.6104
23029.0765
23133.7896
23943.2703
23389.6057
22838.0017
23954.8212
23927.772
23383.5819
22773.4742
23011.436
23928.3734
23943.6998
23937.8091
22949.5
22964.8631
23937.2506
23163.0001
22881.5627
23925.4826
23931.7788
23933.1786
23216.4913
22954.959
23932.2618
23929.7487
23937.1318
23935.5673
23277.5067
22978.7381
23092.4144
22873.3229
22875.6307
23922.758
23929.0932
23170.5144
22971.2753
23937.3567
23933.8525
23391.3459
22853.2504
22969.1458
23939.0287
23943.5309
23949.0122
23944.3118
23239.4679
22838.3024
23228.1654
23935.1303
23945.1434
23943.9559
23100.5871
23107.8064
23942.421
23385.5417
22862.8313
23948.1367
23942.4675
23390.8134
22787.9967
23021.4648
23931.0126
23942.9287
23940.3096
23129.4902
23027.4672
23924.307
23439.6789
22891.7338
23934.6329
23923.4524
23402.3776
22830.2775
23033.5631
23909.431
23927.2923
23918.5509
22971.2564
22772.8694
23908.0986
23902.6995
23015.6246
23019.6494
23915.9458
23913.6639
23926.9589
23085.1534
23014.2151
23918.8879
23254.7352
22896.0757
23913.9425
23917.9609
23921.5586
23495.5959
23096.7994
22973.8248
22967.6837
23914.8899
23927.8239
23261.5034
22723.1519
22996.7338
23922.2002
23929.5801
23934.6467
23294.0041
22659.0697
22834.3454
23924.8789
23937.967
23941.415
23944.1433
23410.5762
22906.9407
22909.655
23934.656
23943.9566
23176.7538
23006.3078
23939.8342
23941.469
23247.0827
23056.4506
23945.0214
23940.0527
23338.3337
23004.2702
23009.4434
23934.0191
23956.4708
23300.2397
23080.9424
23941.0386
23944.5719
23395.0914
23100.323
23102.1059
23937.7147
23939.4247
23390.1136
22930.0008
23073.3576
23933.429
23944.7677
23942.1082
23182.5717
22911.1879
22850.1926
22862.5912
23931.7396
23938.699
23942.5493
23399.9948
23044.4193
23944.5026
23946.4839
23330.4795
23158.9115
23957.1416
23950.3363
23333.2834
23150.8208
23966.8171
23949.5451
23366.7291
23073.6792
23078.8966
23943.5428
23969.4181
23350.7301
23190.0749
23949.0626
23952.2781
23388.3055
23231.9363
23113.617
23115.7104
23936.7392
23942.8128
23113.6958
23060.5584
23935.0842
23936.791
23946.2922
23936.2708
23386.4549
23032.6907
23119.3628
22792.9665
22800.8757
23907.6539
23935.6845
22899.1176
22843.0395
23911.2899
23936.4566
23926.6496
23940.0169
23939.6613
23940.9094
23392.3514
23145.8016
23261.4313
23056.4445
23083.9183
22869.3336
22891.9035
23928.5128
23944.6697
23940.5543
23392.1353
23100.8254
23942.7348
23945.3575
23399.8762
23232.7712
23948.8947
23945.9217
23386.3063
23231.1676
23110.4022
23111.8296
23937.3769
23948.0904
23184.9767
23046.5204
23932.6102
23940.2743
23228.7805
22968.8955
23930.5524
23926.0223
23241.4859
22635.3519
22738.9379
23908.0445
23940.0284
23920.5988
23944.5443
23931.7112
23948.0506
23940.7156
23263.7408
23029.1169
22931.0823
22932.7706
23925.3842
23936.5498
23221.261
23096.9834
23934.1399
23937.0776
23394.7476
23197.8627
23173.9617
23111.598
23937.9422
23941.7713
23393.6102
22963.2291
23058.2552
23938.5024
23954.398
23952.7722
23370.4827
23152.6734
23948.4999
23946.1326
23378.623
23116.3372
23118.9615
23941.7535
23958.8622
23383.5057
23085.8689
23087.9147
23944.4289
23953.5931
23382.9379
23074.3506
23075.9592
23938.2181
23953.9023
23400.8346
23113.8236
22980.844
22977.2412
23930.924
23942.6649
23939.7581
23280.1313
22954.8833
23926.5007
23933.1613
23939.793
23934.6929
23399.4126
23082.0117
23141.5572
22878.271
22879.3664
23924.9817
23925.6893
23291.0104
23916.6963
23954.6783
23323.1321
23079.8152
23080.6855
23935.8253
23940.6106
23384.2969
23049.1534
23053.7203
23928.2753
23958.3987
23337.4647
23128.5898
23935.6388
23952.0264
23351.5062
23131.7872
23943.7214
23943.1806
23383.1919
23010.0517
23159.3557
23943.669
23388.121
22989.3615
23939.7299
23952.7596
23185.0957
23166.299
23939.2488
23959.4406
23953.7751
23385.4555
22957.6717
22971.2492
23934.4032
23959.4001
23242.7426
23239.3214
23930.4701
23387.6508
22965.4218
)
;

boundaryField
{
    closed
    {
        type            calculated;
        value           uniform 31815.8252;
    }
    open
    {
        type            calculated;
        value           nonuniform List<scalar> 0();
    }
    sides
    {
        type            empty;
    }
    procBoundary0to1
    {
        type            processor;
        value           uniform 23930.9629;
    }
}


// ************************************************************************* //
