/*--------------------------------*- C++ -*----------------------------------*\
| =========                 |                                                 |
| \\      /  F ield         | OpenFOAM: The Open Source CFD Toolbox           |
|  \\    /   O peration     | Version:  2306                                  |
|   \\  /    A nd           | Website:  www.openfoam.com                      |
|    \\/     M anipulation  |                                                 |
\*---------------------------------------------------------------------------*/
FoamFile
{
    version     2.0;
    format      ascii;
    arch        "LSB;label=32;scalar=64";
    class       volScalarField;
    location    "0.0017";
    object      Z;
}
// * * * * * * * * * * * * * * * * * * * * * * * * * * * * * * * * * * * * * //

dimensions      [0 0 0 0 0 0 0];

internalField   nonuniform List<scalar> 
530
(
0.0146786045
0.0145282589
0.0144656744
0.0144620736
0.0144617213
0.0144617078
0.0144617069
0.0144617069
0.0144617069
0.0144617069
0.0144617069
0.0144617069
0.0144617069
0.0144617069
0.0144617069
0.0144617069
0.0144617069
0.0144617069
0.0144617069
0.0144617069
0.0144617069
0.0144617069
0.0144617069
0.0144617069
0.0144617069
0.0144617069
0.0144617069
0.0144617069
0.0144617069
0.0144617069
0.0144617069
0.0144617069
0.0144617069
0.0144617069
0.0144617069
0.0144617069
0.0144617069
0.0144617069
0.0144617069
0.0144617069
0.0144617069
0.0144617069
0.0144617069
0.0144617069
0.0144617069
0.0144617069
0.0144617069
0.0144617069
0.0144617069
0.0144617069
0.0144617069
0.0144617069
0.0144617069
0.0144617069
0.0144617069
0.0144617069
0.0144617069
0.0144617069
0.0144617069
0.0144617069
0.0144617069
0.014461707
0.014461707
0.0144617074
0.0144617074
0.0144617094
0.0144617104
0.0144617174
0.0144617183
0.0144617347
0.014461798
0.0144618199
0.0144616562
0.0144615698
0.0144625009
0.0144664854
0.0144641327
0.0144416379
0.0144417616
0.0145585653
0.0146018479
0.0143020596
0.0141837794
0.0145222063
0.0146672861
0.0144866782
0.0144103342
0.0145439495
0.0147196296
0.0147989943
0.0145711409
0.0140845386
0.0140473172
0.014085046
0.0146409126
0.0148940543
0.014745761
0.014083873
0.0140617155
0.0140771114
0.0147182619
0.0148304063
0.014853436
0.0148530763
0.0140830973
0.0140783611
0.0140810901
0.0140747273
0.0140800654
0.0147563585
0.0148602798
0.0148106925
0.014075045
0.0140755754
0.0147083119
0.014843301
0.0147873774
0.0140734946
0.0140720342
0.0140659362
0.01407125
0.0145878883
0.0147953625
0.0147915748
0.0148270696
0.0148953886
0.0148752438
0.0140874234
0.0140810407
0.0140862633
0.0148152051
0.0148848774
0.0140795486
0.0140869677
0.0140731649
0.0140832651
0.0147440742
0.0148829081
0.0148383705
0.0140808865
0.0140764559
0.0147763118
0.0148212558
0.0140702065
0.0140750359
0.0146849583
0.0147915113
0.0147851922
0.014820483
0.0140742054
0.0140796445
0.0140688853
0.0140768928
0.0147055628
0.0148520001
0.0148296065
0.0140740042
0.0140798719
0.0144949592
0.0148814172
0.0147676746
0.0140852006
0.0147112498
0.0148673976
0.014074858
0.0140778765
0.0147961884
0.0148190125
0.0140789367
0.0140785533
0.0148109258
0.0148043083
0.0140799994
0.0140761405
0.0140754303
0.0147659002
0.0147963578
0.0140792034
0.0140695586
0.0140744485
0.0145022235
0.0147894827
0.0148296095
0.0147886492
0.0140868502
0.0146915418
0.014898642
0.0140695933
0.0140895375
0.0146284878
0.0149215072
0.0148334956
0.014092402
0.0140816799
0.0140834995
0.0148571078
0.014854183
0.0140902361
0.0147858498
0.0148825935
0.014091283
0.0140829211
0.0140868934
0.0147659498
0.0148587642
0.0140848734
0.0140850187
0.0140783286
0.0140813301
0.0147439374
0.014852194
0.0148098378
0.0148873078
0.0148844576
0.0140905141
0.0140873598
0.0147821768
0.0148538623
0.014079425
0.014084425
0.0146149057
0.014892562
0.0148497393
0.0140873802
0.0140826359
0.0140783365
0.014081396
0.014753216
0.014898637
0.0147593767
0.0140892632
0.014075168
0.0140803908
0.0148035933
0.0148015156
0.0140875759
0.0146050565
0.0148873667
0.0140735707
0.0140840549
0.0146598418
0.0149152139
0.0148306947
0.0140936827
0.0140792001
0.0140857998
0.0147957795
0.0148309592
0.0140944279
0.0144119241
0.0148798944
0.0140817689
0.014087924
0.0146666574
0.0149060142
0.0148299579
0.0141028215
0.0140855269
0.0140955855
0.0148528119
0.0149235493
0.0141008818
0.0140951001
0.0148394758
0.0148416576
0.0140999022
0.0140884335
0.0140903382
0.0148148609
0.0148386108
0.0140984117
0.0147549052
0.0148808816
0.0140950307
0.0140880419
0.0140871578
0.0143478475
0.0148088135
0.0148545717
0.0148531442
0.014095011
0.0140898716
0.0147513124
0.0149383434
0.0148436438
0.0140994453
0.0140802609
0.0140904528
0.0147394329
0.014958328
0.0148976298
0.0140953902
0.0140857483
0.0140809054
0.0140813758
0.0144603193
0.0148718973
0.0148698343
0.0140882581
0.0140823977
0.014777087
0.0148389209
0.0140859689
0.0140810919
0.0147512726
0.0148220666
0.0140816346
0.0140814946
0.0147162617
0.0148413462
0.0148332531
0.0140856078
0.0140765109
0.0147338468
0.0148114176
0.0140809754
0.0140784105
0.0146666405
0.0148078509
0.014803964
0.0140811945
0.0140804427
0.0146136909
0.0148670193
0.0148139309
0.0140913968
0.0140769527
0.014081864
0.0147747854
0.0148732869
0.0148909773
0.0148890769
0.0140963265
0.0140781167
0.0140864203
0.0146792792
0.0148256517
0.0140807914
0.01407765
0.0147193576
0.0147851321
0.0140781226
0.0140751177
0.0147148382
0.0147875308
0.0140736417
0.0140763965
0.0146030456
0.0148146952
0.0148048734
0.0140821873
0.0140701403
0.0147134639
0.0147710419
0.0140790194
0.0140725773
0.0146515946
0.0147601177
0.0148000472
0.0148000581
0.0140911254
0.0140786532
0.0147995303
0.0148203499
0.0140925074
0.0140807559
0.0140767164
0.0140796911
0.0145727549
0.0148328663
0.0147976226
0.0149145538
0.0149078481
0.0141054853
0.0140874493
0.0148777566
0.0148941585
0.0141086315
0.0140853001
0.0140920844
0.0140818038
0.0140777538
0.014078406
0.0146201011
0.0147928716
0.0147485738
0.0148237243
0.0148114
0.0148872657
0.0148774396
0.0140954775
0.0140751143
0.0140845376
0.0146422426
0.0148064203
0.0140814672
0.0140762623
0.0146958606
0.0147603213
0.0140792017
0.0140739754
0.0146492397
0.014760573
0.0148005575
0.0148005404
0.0140913377
0.0140775874
0.0147744979
0.0148242183
0.0140919858
0.0140820246
0.014759862
0.0148536376
0.0140919139
0.0140914359
0.0147537105
0.0149671712
0.0149281777
0.014107861
0.0140862838
0.0140973419
0.0140819999
0.0140882418
0.0140769002
0.0140797559
0.0147453708
0.0148328773
0.0148644225
0.0148647515
0.0140974659
0.0140829457
0.0147632222
0.0148091594
0.0140883766
0.0140793403
0.014662983
0.0147749296
0.0147794397
0.0148027568
0.0140881992
0.0140814315
0.0146892629
0.0148555546
0.0148172854
0.014089023
0.0140713382
0.0140748515
0.0147059478
0.0147868366
0.0140815686
0.0140766598
0.0145673784
0.0148007045
0.0147940032
0.0140840971
0.0140740616
0.0146374333
0.0148099783
0.0148061268
0.0140833747
0.0140762498
0.0146380981
0.0148155881
0.0148105219
0.0140854882
0.0140760109
0.0146935644
0.0148018432
0.0148471531
0.0148485745
0.0140994981
0.0140775512
0.0140874655
0.0147408089
0.0148577047
0.0140972498
0.0140838727
0.0140801818
0.0140815316
0.0144975621
0.0148137809
0.0147902455
0.014883818
0.0148818574
0.0140994568
0.01409425
0.0147334411
0.0141027171
0.0140728619
0.0147269723
0.0148141045
0.0148124873
0.0140884036
0.0140805978
0.0146303781
0.014826822
0.0148180715
0.0140906593
0.0140745703
0.0147215093
0.0147937044
0.0140900307
0.0140754411
0.0147139235
0.01479471
0.0140856406
0.0140793529
0.0145433672
0.0148376858
0.0147808994
0.0140902294
0.0146771242
0.0148433862
0.0140914277
0.0140763255
0.0147731484
0.0147794117
0.0140973408
0.0140677111
0.014078471
0.0146702601
0.0148558293
0.0148465096
0.0140901535
0.0140735867
0.0147550175
0.0147536731
0.0140986841
0.0146371464
0.014853114
)
;

boundaryField
{
    closed
    {
        type            zeroGradient;
    }
    open
    {
        type            zeroGradient;
    }
    sides
    {
        type            empty;
    }
    procBoundary0to1
    {
        type            processor;
        value           uniform 0.014094092;
    }
}


// ************************************************************************* //
