/*--------------------------------*- C++ -*----------------------------------*\
| =========                 |                                                 |
| \\      /  F ield         | OpenFOAM: The Open Source CFD Toolbox           |
|  \\    /   O peration     | Version:  2306                                  |
|   \\  /    A nd           | Website:  www.openfoam.com                      |
|    \\/     M anipulation  |                                                 |
\*---------------------------------------------------------------------------*/
FoamFile
{
    version     2.0;
    format      ascii;
    arch        "LSB;label=32;scalar=64";
    class       volScalarField;
    location    "0.0014";
    object      prefDZ_H2O;
}
// * * * * * * * * * * * * * * * * * * * * * * * * * * * * * * * * * * * * * //

dimensions      [1 -1 -1 0 0 0 0];

internalField   nonuniform List<scalar> 
530
(
-7.7308808e-07
-7.53531299e-07
-7.52042046e-07
-7.52076395e-07
-7.52079958e-07
-7.52080021e-07
-7.52080021e-07
-7.52080022e-07
-7.52080022e-07
-7.52080022e-07
-7.52080022e-07
-7.52080022e-07
-7.52080022e-07
-7.52080022e-07
-7.52080022e-07
-7.52080022e-07
-7.52080022e-07
-7.52080022e-07
-7.52080022e-07
-7.52080022e-07
-7.52080022e-07
-7.52080022e-07
-7.52080022e-07
-7.52080022e-07
-7.52080022e-07
-7.52080022e-07
-7.52080022e-07
-7.52080022e-07
-7.52080022e-07
-7.52080022e-07
-7.52080022e-07
-7.52080022e-07
-7.52080022e-07
-7.52080022e-07
-7.52080022e-07
-7.52080022e-07
-7.52080022e-07
-7.52080022e-07
-7.52080022e-07
-7.52080022e-07
-7.52080022e-07
-7.52080022e-07
-7.52080022e-07
-7.52080022e-07
-7.52080022e-07
-7.52080022e-07
-7.52080022e-07
-7.52080022e-07
-7.52080022e-07
-7.52080022e-07
-7.52080022e-07
-7.52080022e-07
-7.52080022e-07
-7.52080022e-07
-7.52080022e-07
-7.52080022e-07
-7.52080022e-07
-7.52080022e-07
-7.52080022e-07
-7.52080022e-07
-7.52080022e-07
-7.52080021e-07
-7.52080021e-07
-7.52080021e-07
-7.52080021e-07
-7.5208002e-07
-7.5208002e-07
-7.52080016e-07
-7.52080023e-07
-7.52079949e-07
-7.5207989e-07
-7.52080489e-07
-7.52080439e-07
-7.52075565e-07
-7.5207424e-07
-7.52100157e-07
-7.521547e-07
-7.52064308e-07
-7.51526153e-07
-7.51643246e-07
-7.54027797e-07
-7.53985085e-07
-7.48846849e-07
-7.48593833e-07
-7.54355376e-07
-7.52990946e-07
-7.4466222e-07
-7.36213787e-07
-7.41083449e-07
-7.74704175e-07
-7.72363749e-07
-7.77070877e-07
-7.37668458e-07
-7.31201363e-07
-7.35651201e-07
-7.76353981e-07
-7.73489367e-07
-7.77945092e-07
-7.36266774e-07
-7.30052576e-07
-7.3561885e-07
-7.74765814e-07
-7.74339637e-07
-7.75649408e-07
-7.74713159e-07
-7.7644035e-07
-7.32985177e-07
-7.32623949e-07
-7.32272393e-07
-7.36922052e-07
-7.75307785e-07
-7.73912408e-07
-7.76505001e-07
-7.36206513e-07
-7.3714521e-07
-7.73661861e-07
-7.73167029e-07
-7.74823203e-07
-7.38803109e-07
-7.3533006e-07
-7.36661256e-07
-7.35128053e-07
-7.36126377e-07
-7.34874223e-07
-7.42280191e-07
-7.73850584e-07
-7.73733385e-07
-7.73786337e-07
-7.75164406e-07
-7.36382458e-07
-7.39590663e-07
-7.7463384e-07
-7.73574826e-07
-7.75813888e-07
-7.3426808e-07
-7.32794949e-07
-7.33594852e-07
-7.35942753e-07
-7.74189188e-07
-7.76131207e-07
-7.34781975e-07
-7.36620576e-07
-7.73637191e-07
-7.75052999e-07
-7.36405898e-07
-7.35647017e-07
-7.47900976e-07
-7.73829029e-07
-7.73829209e-07
-7.73759903e-07
-7.75095989e-07
-7.35730798e-07
-7.3454197e-07
-7.36036094e-07
-7.34530566e-07
-7.62028726e-07
-7.75161777e-07
-7.38909705e-07
-7.3547209e-07
-7.49346014e-07
-7.74002334e-07
-7.74901384e-07
-7.36861408e-07
-7.37535257e-07
-7.73883834e-07
-7.75676791e-07
-7.35319193e-07
-7.36587872e-07
-7.74332772e-07
-7.75860479e-07
-7.33716668e-07
-7.37489837e-07
-7.75329382e-07
-7.73949715e-07
-7.76855181e-07
-7.35147918e-07
-7.35826451e-07
-7.74179464e-07
-7.75449596e-07
-7.35196572e-07
-7.34938574e-07
-7.34742116e-07
-7.37284963e-07
-7.74229545e-07
-7.76054418e-07
-7.34618159e-07
-7.36452202e-07
-7.73822965e-07
-7.75892228e-07
-7.35986619e-07
-7.37853895e-07
-7.73125023e-07
-7.75163134e-07
-7.38103912e-07
-7.34161959e-07
-7.38512037e-07
-7.74409359e-07
-7.74861149e-07
-7.35318097e-07
-7.38031851e-07
-7.73325109e-07
-7.74158281e-07
-7.49091933e-07
-7.35547758e-07
-7.39086463e-07
-7.73448848e-07
-7.73852597e-07
-7.38450009e-07
-7.36711789e-07
-7.3532567e-07
-7.41686217e-07
-7.74761122e-07
-7.36389318e-07
-7.35905753e-07
-7.73718508e-07
-7.75603178e-07
-7.36159793e-07
-7.36944344e-07
-7.74001717e-07
-7.75400615e-07
-7.35126719e-07
-7.38349232e-07
-7.75007762e-07
-7.7379488e-07
-7.76252467e-07
-7.35209326e-07
-7.30571138e-07
-7.3762841e-07
-7.75299545e-07
-7.73812452e-07
-7.76251878e-07
-7.34892291e-07
-7.3174174e-07
-7.37195117e-07
-7.74918728e-07
-7.75333404e-07
-7.35683009e-07
-7.36997294e-07
-7.73875756e-07
-7.75349124e-07
-7.36384438e-07
-7.38051391e-07
-7.72932407e-07
-7.74802905e-07
-7.42018278e-07
-7.33649527e-07
-7.37483002e-07
-7.74420797e-07
-7.75026214e-07
-7.34733502e-07
-7.36231441e-07
-7.73754807e-07
-7.75337865e-07
-7.35975482e-07
-7.3732418e-07
-7.72973353e-07
-7.74937743e-07
-7.38485715e-07
-7.33756551e-07
-7.37812768e-07
-7.74316394e-07
-7.74650024e-07
-7.35254745e-07
-7.37205743e-07
-7.73073576e-07
-7.74526428e-07
-7.44474698e-07
-7.34118959e-07
-7.37513668e-07
-7.74089375e-07
-7.7444765e-07
-7.3625584e-07
-7.37884633e-07
-7.7318301e-07
-7.74331395e-07
-7.38300628e-07
-7.36309825e-07
-7.36782335e-07
-7.37419464e-07
-7.73052295e-07
-7.75163547e-07
-7.38009811e-07
-7.33157137e-07
-7.3773554e-07
-7.76566396e-07
-7.73506992e-07
-7.78827258e-07
-7.35974185e-07
-7.3183245e-07
-7.3823081e-07
-7.74524831e-07
-7.74402481e-07
-7.74354591e-07
-7.75508656e-07
-7.35441272e-07
-7.32542079e-07
-7.38419515e-07
-7.75557012e-07
-7.75529071e-07
-7.30969515e-07
-7.32903719e-07
-7.75156342e-07
-7.75818795e-07
-7.3459775e-07
-7.36467493e-07
-7.73716058e-07
-7.75128869e-07
-7.38411719e-07
-7.33709128e-07
-7.37551043e-07
-7.74402602e-07
-7.74739071e-07
-7.35929592e-07
-7.36713217e-07
-7.73330462e-07
-7.7476137e-07
-7.38201031e-07
-7.34144976e-07
-7.37855636e-07
-7.73558995e-07
-7.73847329e-07
-7.46782437e-07
-7.35049265e-07
-7.3782588e-07
-7.73217708e-07
-7.74072173e-07
-7.39205747e-07
-7.35576359e-07
-7.37174552e-07
-7.34688731e-07
-7.37305642e-07
-7.73648206e-07
-7.7353992e-07
-7.73588102e-07
-7.73952796e-07
-7.36595126e-07
-7.40381426e-07
-7.73966259e-07
-7.38065126e-07
-7.35905406e-07
-7.73011776e-07
-7.74464397e-07
-7.35292086e-07
-7.35613715e-07
-7.72943024e-07
-7.74841058e-07
-7.3761372e-07
-7.33116097e-07
-7.36466387e-07
-7.74331631e-07
-7.7420295e-07
-7.35466051e-07
-7.36607562e-07
-7.73163192e-07
-7.7371149e-07
-7.45809607e-07
-7.36673572e-07
-7.37003576e-07
-7.4743234e-07
-7.73893467e-07
-7.73616085e-07
-7.35197844e-07
-7.37660288e-07
-7.74550988e-07
-7.73355253e-07
-7.74870451e-07
-7.37415078e-07
-7.34212287e-07
-7.36687421e-07
-7.36358956e-07
-7.35632263e-07
-7.40247623e-07
-7.73838016e-07
-7.73690376e-07
-7.36041844e-07
-7.37617462e-07
-7.73224379e-07
-7.73703475e-07
-7.72888191e-07
-7.74034341e-07
-7.40428778e-07
-7.35988902e-07
-7.36296453e-07
-7.36706411e-07
-7.33913783e-07
-7.44426114e-07
-7.74142459e-07
-7.3658427e-07
-7.3639911e-07
-7.73599284e-07
-7.73644084e-07
-7.73827035e-07
-7.36473107e-07
-7.36033516e-07
-7.7339278e-07
-7.73992623e-07
-7.37171782e-07
-7.37422309e-07
-7.72867487e-07
-7.73869068e-07
-7.40114698e-07
-7.36302183e-07
-7.34833159e-07
-7.35852486e-07
-7.74056068e-07
-7.74427295e-07
-7.34220751e-07
-7.35009555e-07
-7.73901704e-07
-7.74086002e-07
-7.35735649e-07
-7.37792583e-07
-7.73531683e-07
-7.74297703e-07
-7.36108069e-07
-7.32829072e-07
-7.36998897e-07
-7.7455622e-07
-7.72931618e-07
-7.74601641e-07
-7.72808983e-07
-7.74572608e-07
-7.38528638e-07
-7.35362269e-07
-7.36377549e-07
-7.35955432e-07
-7.35049342e-07
-7.37254307e-07
-7.73462216e-07
-7.73363324e-07
-7.37555842e-07
-7.38819582e-07
-7.72961588e-07
-7.7331779e-07
-7.50552874e-07
-7.36633158e-07
-7.35225938e-07
-7.35721052e-07
-7.73089269e-07
-7.74396779e-07
-7.38153793e-07
-7.34587799e-07
-7.46974228e-07
-7.74537399e-07
-7.73101827e-07
-7.7473377e-07
-7.36149056e-07
-7.3403507e-07
-7.63216478e-07
-7.74572601e-07
-7.60771163e-07
-7.33823743e-07
-7.34080466e-07
-7.73549675e-07
-7.74556418e-07
-7.38643612e-07
-7.34066949e-07
-7.36025599e-07
-7.73385885e-07
-7.74100153e-07
-7.4047073e-07
-7.34752313e-07
-7.3623659e-07
-7.73521314e-07
-7.73882293e-07
-7.38700525e-07
-7.3532581e-07
-7.34517024e-07
-7.35381627e-07
-7.74080884e-07
-7.74274159e-07
-7.74029523e-07
-7.3612915e-07
-7.36518282e-07
-7.74555482e-07
-7.73326585e-07
-7.74836584e-07
-7.38385507e-07
-7.33779083e-07
-7.39006157e-07
-7.55734899e-07
-7.38142705e-07
-7.36967564e-07
-7.73123942e-07
-7.73818998e-07
-7.35927841e-07
-7.3622838e-07
-7.73323926e-07
-7.73892823e-07
-7.36026192e-07
-7.36082624e-07
-7.72761921e-07
-7.74411337e-07
-7.42746222e-07
-7.33280638e-07
-7.35160666e-07
-7.7430882e-07
-7.7396606e-07
-7.34838234e-07
-7.35217922e-07
-7.73810023e-07
-7.74081339e-07
-7.35876505e-07
-7.35735049e-07
-7.72951774e-07
-7.74537408e-07
-7.4171723e-07
-7.33398499e-07
-7.35308603e-07
-7.74349349e-07
-7.73973606e-07
-7.35045288e-07
-7.35399514e-07
-7.73819412e-07
-7.74096067e-07
-7.36095867e-07
-7.35778021e-07
-7.72966508e-07
-7.74628726e-07
-7.41841433e-07
-7.33006864e-07
-7.35034903e-07
-7.74489307e-07
-7.74060218e-07
-7.34718298e-07
-7.34955205e-07
-7.74040264e-07
-7.74121073e-07
-7.35695895e-07
-7.35769243e-07
)
;

boundaryField
{
    closed
    {
        type            calculated;
        value           uniform -1.03406709e-06;
    }
    open
    {
        type            calculated;
        value           nonuniform List<scalar> 0();
    }
    sides
    {
        type            empty;
    }
    procBoundary0to1
    {
        type            processor;
        value           uniform -7.73677441e-07;
    }
}


// ************************************************************************* //
