/*--------------------------------*- C++ -*----------------------------------*\
| =========                 |                                                 |
| \\      /  F ield         | OpenFOAM: The Open Source CFD Toolbox           |
|  \\    /   O peration     | Version:  2306                                  |
|   \\  /    A nd           | Website:  www.openfoam.com                      |
|    \\/     M anipulation  |                                                 |
\*---------------------------------------------------------------------------*/
FoamFile
{
    version     2.0;
    format      ascii;
    arch        "LSB;label=32;scalar=64";
    class       volScalarField;
    location    "0.00196";
    object      mu;
}
// * * * * * * * * * * * * * * * * * * * * * * * * * * * * * * * * * * * * * //

dimensions      [1 -1 -1 0 0 0 0];

internalField   nonuniform List<scalar> 
530
(
1.93132564e-05
1.9366595e-05
2.02689658e-05
2.02861677e-05
2.02709358e-05
1.97687151e-05
1.93644704e-05
1.93728114e-05
2.02690465e-05
2.02915985e-05
1.96184332e-05
1.94953274e-05
2.02747107e-05
2.0289036e-05
1.95530801e-05
1.95530117e-05
2.02844551e-05
2.02850203e-05
2.02831058e-05
1.97743227e-05
1.94927237e-05
1.93150849e-05
1.9319587e-05
2.0282949e-05
2.0273612e-05
2.02865715e-05
2.02757056e-05
1.97701892e-05
1.93575201e-05
1.93812584e-05
2.02758115e-05
2.0291277e-05
1.96022114e-05
1.95580689e-05
2.02842766e-05
2.02856394e-05
2.02824373e-05
1.97566343e-05
1.94981923e-05
1.93077593e-05
1.93156576e-05
2.02797768e-05
2.02748753e-05
2.02772514e-05
1.96331511e-05
1.93727846e-05
2.02812084e-05
2.02769114e-05
2.02770852e-05
2.0280326e-05
1.98411766e-05
1.9650731e-05
1.94898992e-05
1.94902996e-05
2.0282253e-05
2.02798007e-05
1.97748807e-05
1.93889325e-05
1.93929483e-05
2.02791815e-05
2.02772732e-05
1.97765144e-05
1.93021589e-05
1.93692145e-05
2.0269833e-05
2.02784515e-05
2.02677973e-05
1.976399e-05
1.93394652e-05
1.93466678e-05
2.02665318e-05
2.02790523e-05
1.95454969e-05
1.94004934e-05
2.02729393e-05
2.0271446e-05
2.02731507e-05
2.02740108e-05
1.97834238e-05
1.93607638e-05
1.93648957e-05
2.0277704e-05
2.02724365e-05
1.97319863e-05
1.92215232e-05
1.92408748e-05
2.0267543e-05
2.02802249e-05
1.94866926e-05
1.93529023e-05
2.02750766e-05
2.02786635e-05
2.02744166e-05
2.02811226e-05
1.97824706e-05
1.94975759e-05
1.93455421e-05
1.9345222e-05
2.02822434e-05
2.02777057e-05
2.02782828e-05
1.96208759e-05
1.94475414e-05
2.02883948e-05
2.02788006e-05
2.02820336e-05
1.97019636e-05
1.96174251e-05
2.02912216e-05
1.97735047e-05
1.94357261e-05
2.02901291e-05
2.02794249e-05
2.0280133e-05
1.97767071e-05
1.9517979e-05
1.94071582e-05
1.94088228e-05
2.02876654e-05
2.02815663e-05
2.02828482e-05
1.97668537e-05
1.94469389e-05
2.02935269e-05
2.02746458e-05
1.97702969e-05
1.93802707e-05
1.94790111e-05
2.02804004e-05
1.97021452e-05
1.9442112e-05
2.0289843e-05
2.02785851e-05
2.02797735e-05
1.97755192e-05
1.93592827e-05
1.93779865e-05
2.02731224e-05
2.02830168e-05
1.96085459e-05
1.96107858e-05
2.02867848e-05
1.97777364e-05
1.93030057e-05
2.02794861e-05
2.02728416e-05
1.95837915e-05
1.94255929e-05
2.02712307e-05
2.02796893e-05
1.95065556e-05
1.94244091e-05
2.02678143e-05
2.02838045e-05
1.94162929e-05
1.94216602e-05
2.02726883e-05
2.02861944e-05
2.02622266e-05
2.02886083e-05
2.02627712e-05
1.97892493e-05
1.95312072e-05
1.95718104e-05
1.93138178e-05
1.93170002e-05
2.0280944e-05
2.02738237e-05
2.02752508e-05
1.95928794e-05
1.96005893e-05
2.02844573e-05
1.977801e-05
1.92786935e-05
2.02850692e-05
2.02707828e-05
1.95752426e-05
1.93848149e-05
2.03030227e-05
2.02774565e-05
1.97364303e-05
1.93791346e-05
1.97456332e-05
2.0278844e-05
2.03138768e-05
2.02843589e-05
2.03061558e-05
1.9771727e-05
1.94006039e-05
1.91834284e-05
1.91841688e-05
2.02744534e-05
2.02783607e-05
2.02677527e-05
2.02795936e-05
1.97143402e-05
1.94261044e-05
2.02848038e-05
2.02685163e-05
1.97732941e-05
1.93618136e-05
1.93754408e-05
2.02650021e-05
2.02855916e-05
1.96139398e-05
1.95909506e-05
2.02732718e-05
1.97325095e-05
1.93520145e-05
2.02834112e-05
2.0272633e-05
2.02694766e-05
1.97516865e-05
1.92157176e-05
1.92379777e-05
2.02556018e-05
2.0276336e-05
2.02535345e-05
2.02795936e-05
1.97085142e-05
1.95715112e-05
2.02713749e-05
2.02767242e-05
2.02663737e-05
1.97501973e-05
1.94391234e-05
1.93232557e-05
1.93288925e-05
2.02663103e-05
2.02582856e-05
2.02621038e-05
1.97378889e-05
1.96464692e-05
2.02629698e-05
1.97929171e-05
1.92695824e-05
2.02757861e-05
2.02591939e-05
1.9745096e-05
1.90746744e-05
1.91115334e-05
2.02553422e-05
2.02748925e-05
2.02626588e-05
2.02771167e-05
2.02772554e-05
1.96433455e-05
1.95854995e-05
2.02725643e-05
1.97738293e-05
1.92743821e-05
2.0281291e-05
2.02599914e-05
1.97760435e-05
1.94114321e-05
1.95096768e-05
1.91965981e-05
1.92149641e-05
2.02555507e-05
2.02857583e-05
2.02564043e-05
2.02911063e-05
2.02642374e-05
1.97951512e-05
1.94868594e-05
1.94919812e-05
2.02740937e-05
2.02946353e-05
1.9757923e-05
1.95710962e-05
2.02820083e-05
2.02850016e-05
1.97879871e-05
1.95572234e-05
1.95900249e-05
1.93591547e-05
1.93622037e-05
2.02847982e-05
2.02865694e-05
2.02862668e-05
1.96569976e-05
1.96196742e-05
2.02831051e-05
1.9767662e-05
1.94154183e-05
2.02836724e-05
2.02810139e-05
2.02805391e-05
1.97752978e-05
1.94944975e-05
2.02802196e-05
2.0292517e-05
1.97553003e-05
1.95614037e-05
2.02845569e-05
2.02986934e-05
1.97716879e-05
1.9577629e-05
1.95793575e-05
1.95733458e-05
1.94009811e-05
1.95874543e-05
2.02929637e-05
2.03064492e-05
2.02920735e-05
2.03116224e-05
2.0293775e-05
1.97687424e-05
1.94694983e-05
1.94729723e-05
2.02851132e-05
2.02926065e-05
1.97658554e-05
1.93254428e-05
1.93323556e-05
2.02685733e-05
2.02887105e-05
1.96785324e-05
1.94588154e-05
2.02689878e-05
2.02816506e-05
1.97617629e-05
1.94941141e-05
1.93253176e-05
1.9327837e-05
2.02597806e-05
2.02774183e-05
2.02627111e-05
2.02822498e-05
2.02776099e-05
1.97888648e-05
1.96057352e-05
1.94715861e-05
1.94719078e-05
2.02668359e-05
2.02861018e-05
1.95521577e-05
1.94627613e-05
2.02595085e-05
2.0285381e-05
2.02658956e-05
2.02873586e-05
1.97852307e-05
1.95726411e-05
1.95051227e-05
1.94584178e-05
2.02687472e-05
2.02845464e-05
1.97462478e-05
1.9266351e-05
1.92734382e-05
2.02730406e-05
2.027848e-05
2.02799677e-05
1.96929177e-05
1.96341782e-05
2.02672576e-05
1.97778913e-05
1.92872737e-05
2.02740811e-05
2.02698045e-05
1.97376884e-05
1.91798782e-05
1.92127048e-05
2.02595829e-05
2.02849621e-05
2.02689155e-05
2.02891921e-05
2.02802017e-05
1.9769508e-05
1.95927088e-05
1.94469669e-05
1.9447777e-05
2.02728306e-05
2.02789812e-05
2.02807487e-05
1.97796233e-05
1.94763549e-05
2.0271857e-05
2.02734041e-05
1.97742854e-05
1.94172957e-05
1.94635618e-05
2.02692081e-05
2.02847659e-05
2.02774151e-05
1.97785579e-05
1.94845252e-05
1.95430658e-05
1.92665876e-05
1.92758216e-05
2.02594849e-05
2.0279498e-05
2.02781638e-05
1.95087643e-05
1.94125234e-05
2.02651292e-05
2.02817663e-05
2.02783631e-05
1.96546228e-05
1.94855607e-05
2.02721956e-05
2.0284562e-05
2.02804783e-05
1.97697944e-05
1.93889814e-05
1.93951376e-05
2.02660572e-05
2.02808781e-05
1.97718716e-05
1.93480741e-05
1.93549611e-05
2.02594324e-05
2.02873759e-05
1.96803236e-05
1.9402852e-05
2.02645376e-05
2.02792315e-05
1.97412674e-05
1.9259466e-05
1.93156267e-05
2.02693495e-05
2.02811174e-05
2.02820522e-05
1.97377116e-05
1.94545605e-05
2.02645647e-05
2.02825781e-05
1.97065387e-05
1.95197264e-05
2.02629403e-05
2.02813456e-05
1.97398818e-05
1.95403013e-05
2.02687411e-05
2.027401e-05
1.97725147e-05
1.948167e-05
1.94836711e-05
2.02643448e-05
2.02812222e-05
1.97762362e-05
1.94142036e-05
1.94212626e-05
2.0255047e-05
2.02857015e-05
1.96914014e-05
1.9465748e-05
2.02550941e-05
2.02811191e-05
1.96756237e-05
1.94292528e-05
2.02608759e-05
2.02733265e-05
1.97030734e-05
1.92176587e-05
1.92247085e-05
2.02556856e-05
2.02803732e-05
2.02659484e-05
2.0286373e-05
2.02782064e-05
1.97167375e-05
1.94833077e-05
1.93059873e-05
1.93077336e-05
2.02526694e-05
2.0278847e-05
2.02640522e-05
2.02842452e-05
2.02801805e-05
1.97743433e-05
1.9499269e-05
1.94364836e-05
1.94353188e-05
2.02580031e-05
2.02804622e-05
1.95081075e-05
1.94117179e-05
2.02515572e-05
2.02819142e-05
1.95041769e-05
1.94168451e-05
2.02482964e-05
2.02803147e-05
2.02628419e-05
2.02827119e-05
1.97795924e-05
1.95513947e-05
1.94528843e-05
1.94526907e-05
2.0259462e-05
2.02824666e-05
1.95123214e-05
1.94065509e-05
2.02531677e-05
2.02806858e-05
2.0270016e-05
2.02804079e-05
1.97679852e-05
1.94334721e-05
1.94382091e-05
2.0260063e-05
2.02898695e-05
1.96794979e-05
1.96286719e-05
2.02627219e-05
1.97734232e-05
1.95195117e-05
2.02671691e-05
1.97205107e-05
1.94803065e-05
2.02620305e-05
2.02792595e-05
2.02760408e-05
1.97777886e-05
1.94985772e-05
1.94485822e-05
1.94472221e-05
2.02513018e-05
2.02799521e-05
1.94767645e-05
1.94289018e-05
2.02524159e-05
2.02783768e-05
2.02729082e-05
1.96305711e-05
1.94792578e-05
2.02644299e-05
2.0279765e-05
)
;

boundaryField
{
    closed
    {
        type            calculated;
        value           nonuniform List<scalar> 0();
    }
    open
    {
        type            calculated;
        value           nonuniform List<scalar> 0();
    }
    sides
    {
        type            empty;
    }
    procBoundary2to1
    {
        type            processor;
        value           uniform 1.97756752e-05;
    }
    procBoundary2to3
    {
        type            processor;
        value           uniform 2.02812195e-05;
    }
}


// ************************************************************************* //
