/*--------------------------------*- C++ -*----------------------------------*\
| =========                 |                                                 |
| \\      /  F ield         | OpenFOAM: The Open Source CFD Toolbox           |
|  \\    /   O peration     | Version:  2306                                  |
|   \\  /    A nd           | Website:  www.openfoam.com                      |
|    \\/     M anipulation  |                                                 |
\*---------------------------------------------------------------------------*/
FoamFile
{
    version     2.0;
    format      ascii;
    arch        "LSB;label=32;scalar=64";
    class       volScalarField;
    location    "0.00196";
    object      p;
}
// * * * * * * * * * * * * * * * * * * * * * * * * * * * * * * * * * * * * * //

dimensions      [1 -1 -2 0 0 0 0];

internalField   nonuniform List<scalar> 
530
(
101390.889
101390.766
101390.635
101390.488
101390.349
101390.221
101390.111
101390.002
101389.889
101389.756
101389.652
101389.559
101389.451
101389.327
101389.235
101389.157
101389.068
101388.966
101388.868
101388.784
101388.722
101388.659
101388.597
101388.505
101388.425
101388.388
101388.371
101388.125
101387.924
101387.759
101387.599
101387.429
101387.3
101387.193
101387.085
101386.981
101386.893
101386.828
101386.791
101386.783
101386.786
101386.327
101386.202
101386.095
101385.982
101385.887
101385.786
101385.671
101385.566
101385.463
101385.369
101385.28
101385.196
101385.12
101385.036
101384.951
101384.892
101384.902
101384.917
101384.481
101384.34
101384.22
101384.135
101384.056
101383.954
101383.83
101383.705
101383.587
101383.489
101383.407
101383.334
101383.207
101383.09
101382.981
101382.841
101382.668
101382.462
101382.219
101382.154
101382.073
101381.946
101382.188
101382.106
101382.022
101381.947
101381.864
101381.765
101381.637
101381.533
101381.435
101381.319
101381.184
101381.051
101380.91
101380.764
101380.615
101380.447
101380.275
101380.506
101380.413
101380.31
101380.245
101380.178
101380.099
101380.009
101379.92
101379.843
101379.771
101379.683
101379.591
101379.52
101379.436
101379.319
101379.197
101379.098
101378.996
101378.875
101378.748
101379.004
101378.968
101378.919
101378.647
101378.669
101378.679
101378.662
101378.648
101378.648
101378.646
101378.62
101378.594
101378.592
101378.58
101378.561
101378.547
101378.541
101378.558
101378.587
101378.613
101378.628
101378.683
101378.739
101378.446
101378.427
101378.444
101378.439
101378.413
101378.412
101378.441
101378.457
101378.448
101378.466
101378.513
101378.541
101378.54
101378.566
101378.603
101378.641
101378.667
101378.709
101378.745
101378.78
101378.818
101378.865
101378.916
101378.968
101379.043
101379.138
101379.223
101379.305
101379.138
101379.371
101379.285
101379.434
101379.608
101379.755
101379.865
101379.989
101380.129
101380.252
101380.342
101380.449
101380.568
101380.682
101380.777
101380.854
101380.928
101380.987
101381.039
101381.088
101381.121
101381.164
101381.703
101381.857
101382.007
101382.167
101382.328
101382.514
101382.681
101382.818
101382.968
101383.141
101383.322
101383.48
101383.611
101383.767
101383.96
101384.126
101384.279
101384.484
101384.683
101384.856
101385.034
101385.216
101385.436
101385.67
101385.883
101386.079
101386.294
101386.508
101386.74
101387.018
101387.294
101387.562
101387.851
101388.161
101388.512
101388.888
101389.263
101389.121
101389.328
101389.56
101389.78
101390.053
101390.319
101390.568
101390.862
101391.165
101391.416
101391.679
101392.006
101392.349
101392.642
101392.893
101393.157
101393.44
101393.7
101393.63
101394.035
101394.413
101394.758
101395.137
101395.505
101395.821
101396.152
101396.506
101396.86
101397.21
101397.575
101397.924
101398.256
101398.617
101398.987
101399.361
101399.755
101400.175
101400.598
101400.507
101400.751
101401.034
101401.372
101401.696
101401.971
101402.266
101402.585
101402.902
101403.214
101403.554
101403.904
101404.206
101404.501
101404.477
101404.923
101405.323
101405.675
101406.052
101406.421
101406.721
101407.023
101407.363
101407.729
101408.081
101408.393
101408.731
101409.12
101409.491
101409.818
101410.17
101410.547
101410.918
101411.278
101411.643
101412.007
101412.368
101412.692
101413.018
101413.335
101413.636
101413.938
101414.231
101414.496
101414.694
101414.865
101415.072
101415.357
101415.669
101415.976
101416.224
101416.495
101416.818
101417.104
101417.304
101417.501
101417.716
101417.892
101418.071
101418.868
101419.122
101419.371
101419.676
101419.979
101420.014
101420.118
101420.226
101420.365
101421.113
101421.346
101421.598
101421.916
101422.208
101422.456
101422.712
101422.96
101423.216
101423.478
101423.737
101424.011
101424.266
101424.469
101424.695
101424.962
101425.242
101425.491
101425.672
101425.86
101426.111
101426.337
101426.514
101426.659
101426.846
101427.028
101427.131
101427.252
101427.407
101427.577
101427.708
101427.784
101427.866
101427.904
101427.926
101428.382
101428.845
101429.273
101429.68
101429.356
101429.531
101429.698
101429.767
101429.837
101429.884
101429.871
101429.882
101429.918
101429.965
101430.007
101430.024
101430.056
101430.124
101430.227
101430.343
101430.507
101430.703
101430.131
101430.074
101430.052
101430.047
101430.099
101430.132
101430.15
101430.174
101429.775
101429.977
101430.138
101430.241
101430.338
101430.457
101430.596
101430.73
101430.087
101429.903
101429.725
101429.565
101429.42
101429.986
101429.93
101429.883
101429.877
101429.837
101429.745
101429.677
101429.617
101429.569
101429.506
101429.439
101429.364
101428.828
101428.876
101428.899
101428.853
101428.825
101428.803
101428.742
101428.632
101428.545
101428.472
101428.36
101428.19
101428.024
101427.859
101427.709
101428.26
101428.251
101428.283
101428.334
101428.408
101427.728
101427.561
101427.449
101427.354
101427.238
101427.076
101426.952
101426.864
101426.752
101426.586
101426.449
101426.332
101426.278
101426.281
101426.207
101426.146
101426.083
101426.035
101426.523
101426.398
101426.308
101426.271
101425.416
101425.105
101424.812
101424.406
101423.948
101423.907
101423.831
101423.656
101423.484
101424.034
101423.974
101423.929
101423.9
101423.828
101423.71
101423.633
101423.566
101423.476
101423.364
101423.27
101423.187
101423.131
101423.104
101423.106
101423.151
101422.496
101422.327
101422.214
101422.116
101421.989
101421.81
101421.624
101421.411
101421.177
101420.923
101420.678
101421.13
101420.979
101420.844
101420.732
101420.578
101420.431
101420.325
101420.209
101420.105
101420.031
101419.99
101419.974
101420.006
101419.718
101419.491
101419.302
101419.169
101419.033
101418.866
101418.757
101418.691
101418.603
101418.492
101418.375
101417.794
101417.857
101417.862
101417.79
)
;

boundaryField
{
    closed
    {
        type            zeroGradient;
    }
    open
    {
        type            waveTransmissive;
        gamma           1.25;
        fieldInf        101325;
        lInf            1;
        value           nonuniform List<scalar> 0();
    }
    sides
    {
        type            empty;
    }
    procBoundary2to1
    {
        type            processor;
        value           uniform 101391.019;
    }
    procBoundary2to3
    {
        type            processor;
        value           uniform 101417.692;
    }
}


// ************************************************************************* //
