/*--------------------------------*- C++ -*----------------------------------*\
| =========                 |                                                 |
| \\      /  F ield         | OpenFOAM: The Open Source CFD Toolbox           |
|  \\    /   O peration     | Version:  2306                                  |
|   \\  /    A nd           | Website:  www.openfoam.com                      |
|    \\/     M anipulation  |                                                 |
\*---------------------------------------------------------------------------*/
FoamFile
{
    version     2.0;
    format      ascii;
    arch        "LSB;label=32;scalar=64";
    class       volScalarField;
    location    "0.00196";
    object      rho;
}
// * * * * * * * * * * * * * * * * * * * * * * * * * * * * * * * * * * * * * //

dimensions      [1 -3 0 0 0 0 0];

internalField   nonuniform List<scalar> 
530
(
0.967495837
0.964052029
0.904209145
0.903408449
0.904227504
0.938353389
0.964241513
0.963637546
0.904240643
0.903013196
0.948066719
0.955849644
0.903853902
0.90320223
0.952205701
0.952182352
0.903261818
0.903501054
0.903505062
0.938073141
0.956063653
0.967313571
0.967046223
0.903262999
0.904005936
0.903258995
0.903897129
0.93780117
0.964647072
0.963080151
0.903829829
0.90302665
0.949056071
0.951836827
0.903250508
0.903444122
0.903530492
0.939184577
0.95569585
0.967761316
0.96727716
0.903427495
0.90397881
0.9036945
0.947065553
0.963643348
0.903384961
0.903851104
0.903786567
0.903692782
0.932004619
0.945937365
0.956196792
0.956147925
0.903426836
0.903654827
0.938004308
0.962617608
0.962335695
0.903628084
0.903761815
0.937825018
0.968129444
0.963834265
0.904100146
0.903799006
0.904345911
0.938701822
0.965774116
0.965261215
0.904317464
0.903669406
0.952660417
0.961854248
0.903839077
0.904109345
0.904005515
0.903952047
0.937158681
0.964387324
0.964104363
0.903685357
0.904005782
0.940723867
0.973227117
0.971960424
0.904210267
0.903556036
0.956377166
0.964849923
0.903671119
0.903673465
0.903899196
0.9035413
0.937377906
0.955670875
0.965312951
0.96533428
0.903257157
0.903765949
0.903618862
0.947781849
0.958833447
0.902924153
0.903738244
0.903440124
0.942614796
0.948017152
0.902800121
0.937998557
0.959576207
0.902858267
0.903724513
0.903560126
0.937323442
0.954350436
0.961372407
0.961272578
0.902954687
0.903575738
0.90337145
0.938452738
0.95886777
0.902751457
0.90389591
0.937800154
0.963114559
0.956792399
0.903445415
0.942577917
0.959169734
0.902837671
0.903762998
0.90357159
0.937696502
0.96444953
0.963216904
0.903901466
0.903445414
0.948588202
0.948435502
0.903030335
0.937573554
0.968010629
0.903500524
0.903985536
0.950168658
0.960215238
0.903928218
0.903610787
0.955098655
0.960272367
0.904092964
0.903373515
0.960839179
0.96043915
0.903744561
0.903275629
0.904513355
0.903193654
0.904645494
0.935868715
0.953532577
0.950897343
0.96733088
0.967107964
0.903365747
0.903975343
0.903879011
0.949586236
0.949102825
0.903147535
0.937623239
0.969569903
0.903170427
0.904105039
0.950676386
0.962828819
0.90211518
0.903723922
0.940308864
0.963205372
0.93931997
0.903603513
0.901708144
0.903408556
0.902096348
0.93795881
0.961799509
0.975602159
0.975548177
0.903597582
0.903638969
0.904227908
0.903597257
0.941879269
0.960235362
0.903229784
0.904279159
0.938004267
0.964357459
0.963423317
0.904389976
0.903331758
0.948325462
0.949726033
0.903806269
0.940693866
0.964969347
0.903202303
0.904139744
0.904206592
0.939505024
0.973643304
0.972183483
0.904864117
0.903840323
0.90516442
0.903694224
0.94234314
0.951016492
0.903970624
0.903964783
0.904478443
0.939642615
0.95949611
0.966832356
0.96649371
0.904221779
0.905012022
0.904676024
0.940500192
0.946314587
0.904478135
0.936020028
0.970278882
0.90381149
0.904824915
0.93999207
0.982638531
0.980269482
0.904868611
0.903958471
0.904594441
0.903902802
0.903886171
0.946509392
0.950179849
0.90390536
0.937786508
0.970011802
0.903530502
0.90487927
0.937577422
0.961342894
0.955019314
0.974969828
0.973748582
0.904890269
0.90341959
0.905041544
0.903193894
0.904758075
0.935458026
0.956552026
0.956148788
0.90399228
0.902967149
0.93927858
0.951146061
0.903559955
0.903564602
0.936200349
0.952059437
0.949943746
0.964668626
0.964448066
0.903310563
0.903471659
0.903475384
0.945709798
0.94807959
0.903412058
0.938596482
0.961122006
0.903357501
0.903864069
0.9037507
0.938014319
0.956086991
0.903691356
0.903156321
0.939493349
0.951818822
0.903464887
0.902828235
0.937746467
0.9507729
0.950688013
0.951041051
0.962061286
0.95015603
0.902969214
0.902465006
0.903185439
0.902190646
0.903215365
0.937528801
0.957736264
0.957465462
0.903422469
0.903153239
0.93882445
0.966937459
0.966454917
0.904406168
0.903396146
0.944494379
0.958447936
0.904385136
0.90384855
0.939181237
0.956239379
0.966981575
0.966800845
0.904817434
0.904130088
0.90486242
0.903924549
0.904167667
0.936445358
0.949134224
0.957701713
0.957645247
0.904505971
0.903632356
0.952599114
0.958232972
0.904874175
0.90368595
0.904780726
0.903590342
0.936961943
0.951261307
0.955600411
0.958527909
0.904427884
0.903697193
0.940206464
0.970776668
0.97031204
0.90420687
0.904127362
0.904003238
0.943641538
0.947374345
0.904505298
0.937437395
0.969479787
0.904187269
0.904539114
0.940753349
0.976304642
0.974178819
0.904972254
0.903731657
0.904610186
0.903566652
0.904091466
0.938484256
0.950060161
0.959329662
0.95928268
0.904219014
0.904197225
0.903981987
0.93788582
0.957477594
0.90438852
0.904436953
0.938144267
0.961260856
0.958267368
0.904546223
0.903878316
0.90426155
0.937311226
0.956967276
0.953197844
0.970824987
0.970202436
0.90495465
0.904063694
0.904143896
0.955409339
0.961517886
0.904588225
0.903988312
0.904089435
0.946099036
0.956874978
0.90423992
0.903877911
0.904022086
0.938518115
0.963053616
0.962616819
0.904706574
0.903967664
0.938598063
0.965651577
0.965155049
0.905075676
0.903591549
0.944503351
0.962133059
0.904759445
0.904046132
0.940565301
0.971265644
0.967670947
0.904455331
0.904027487
0.903897219
0.940798311
0.958840239
0.904761242
0.903905613
0.942816433
0.954694133
0.904864321
0.903994125
0.940682134
0.953393313
0.904548595
0.90441445
0.938307209
0.957156318
0.95696014
0.904821415
0.903967732
0.938218861
0.96144176
0.960936574
0.905325065
0.903696034
0.943791288
0.958108643
0.905288374
0.903961121
0.944785321
0.960440688
0.904940229
0.904365982
0.942979054
0.973897449
0.97341573
0.905205475
0.903975277
0.904764917
0.903684808
0.904159636
0.942079049
0.957003127
0.968270843
0.968149305
0.905285399
0.904087751
0.904818068
0.903835229
0.903993608
0.938040871
0.955959213
0.959964532
0.96001328
0.905026556
0.903971336
0.955425482
0.961509136
0.905377091
0.903877196
0.955677041
0.961179085
0.905549875
0.903978106
0.904974141
0.903851949
0.937834049
0.952634461
0.958916212
0.958901955
0.904942418
0.903841597
0.955131207
0.961816652
0.905250762
0.903928803
0.904532254
0.903944086
0.938592909
0.960139757
0.959772629
0.905004464
0.903435306
0.944469626
0.947660151
0.904774452
0.938340725
0.954663513
0.90451686
0.941827372
0.957136521
0.904770909
0.90410771
0.904198857
0.937670587
0.955962346
0.959157994
0.959210617
0.905351339
0.90396037
0.95737227
0.960369583
0.905240678
0.904081585
0.904320129
0.94753465
0.957173974
0.904572789
0.90403651
)
;

boundaryField
{
    closed
    {
        type            calculated;
        value           nonuniform List<scalar> 0();
    }
    open
    {
        type            calculated;
        value           nonuniform List<scalar> 0();
    }
    sides
    {
        type            empty;
    }
    procBoundary2to1
    {
        type            processor;
        value           uniform 0.937955374;
    }
    procBoundary2to3
    {
        type            processor;
        value           uniform 0.903844566;
    }
}


// ************************************************************************* //
