/*--------------------------------*- C++ -*----------------------------------*\
| =========                 |                                                 |
| \\      /  F ield         | OpenFOAM: The Open Source CFD Toolbox           |
|  \\    /   O peration     | Version:  2306                                  |
|   \\  /    A nd           | Website:  www.openfoam.com                      |
|    \\/     M anipulation  |                                                 |
\*---------------------------------------------------------------------------*/
FoamFile
{
    version     2.0;
    format      ascii;
    arch        "LSB;label=32;scalar=64";
    class       volScalarField;
    location    "0.00196";
    object      T;
}
// * * * * * * * * * * * * * * * * * * * * * * * * * * * * * * * * * * * * * //

dimensions      [0 0 0 1 0 0 0];

internalField   nonuniform List<scalar> 
530
(
319.417126
320.584699
339.363429
339.787463
339.432047
329.360143
320.538919
320.720563
339.372918
339.897177
326.096942
323.401719
339.491199
339.847086
324.666518
324.66392
339.707218
339.768504
339.70649
329.502681
323.346604
319.457097
319.555758
339.658553
339.483784
339.777579
339.533428
329.274296
320.386572
320.905455
339.526149
339.892661
325.741123
324.774325
339.702465
339.781914
339.692134
329.116159
323.466235
319.296695
319.469703
339.586838
339.524045
339.551821
326.417442
320.720654
339.627374
339.569197
339.563624
339.653719
330.450664
326.8018
323.284377
323.292405
339.670564
339.630543
329.515046
321.07435
321.161808
339.60615
339.567351
329.5312
319.174042
320.642231
339.383185
339.613482
339.36035
329.277927
319.991259
320.148631
339.314205
339.611271
324.501751
321.327283
339.440626
339.440012
339.477981
339.497166
329.621559
320.457625
320.547893
339.571335
339.455085
328.578106
317.407272
317.831948
339.330868
339.632192
323.214536
320.285168
339.483437
339.602404
339.502975
339.66027
329.647322
323.452556
320.124068
320.117083
339.647027
339.588527
339.581525
326.14841
322.357062
339.791003
339.620233
339.673834
327.921618
326.073895
339.862742
329.474289
322.098401
339.837505
339.63939
339.633767
329.417352
323.898796
321.472792
321.50938
339.774154
339.684008
339.69002
329.339258
322.34414
339.931655
339.51372
329.301359
320.884777
323.04499
339.623022
327.924821
322.238379
339.825725
339.6198
339.625
329.472856
320.425204
320.834129
339.464625
339.709162
325.880415
325.928923
339.759564
329.524823
319.192615
339.603019
339.470677
325.339204
321.876717
339.407257
339.629348
323.649696
321.850368
339.323907
339.722458
321.67376
321.789992
339.422014
339.783486
339.21468
339.848157
339.255992
329.511069
324.189146
325.075453
319.42943
319.499071
339.625839
339.499884
339.529603
325.53755
325.706439
339.70241
329.546073
318.660036
339.725979
339.421868
325.149977
320.984119
340.128523
339.572985
328.668157
320.859905
328.762334
339.596537
340.412575
339.743118
340.22725
329.392197
321.329111
316.573443
316.589881
339.448848
339.585219
339.340555
339.617906
328.193895
321.888223
339.723186
339.373554
329.459392
320.48083
320.7784
339.276506
339.765812
325.999894
325.494104
339.443633
328.588516
320.266043
339.669027
339.480955
339.388736
329.009198
317.279636
317.768456
339.047483
339.547708
339.032439
339.62826
328.069287
325.069933
339.405472
339.580142
339.330484
328.977548
322.173921
319.636151
319.759644
339.28039
339.156809
339.222394
328.711731
326.711599
339.214281
329.659986
318.460162
339.516343
339.150141
328.865537
314.187172
314.998003
339.028804
339.510401
339.220372
339.572832
339.574033
326.641464
325.375422
339.421565
329.392471
318.56538
339.640692
339.179087
329.417683
321.567726
323.716157
316.860479
317.264535
339.031086
339.763732
339.085427
339.898422
339.291592
329.577483
323.218474
323.327877
339.477976
339.971524
329.146989
325.059511
339.659753
339.75867
329.493395
324.756842
325.473003
320.42216
320.488506
339.703537
339.790236
339.780484
326.938456
326.121668
339.663577
329.34675
321.65396
339.670717
339.673094
339.636915
329.478117
323.384021
339.614081
339.923329
329.088247
324.846769
339.714368
340.06605
329.262875
325.200434
325.239237
325.106237
321.337278
325.415058
339.898367
340.252165
339.906604
340.372652
339.966808
329.086276
322.83693
322.911195
339.716795
339.915501
329.315549
319.684028
319.835066
339.345269
339.828283
327.411698
322.603385
339.35337
339.674603
329.230639
323.376747
319.68132
319.736414
339.124059
339.582455
339.228202
339.703969
339.594037
329.547306
325.817988
322.883855
322.889789
339.297576
339.77628
324.647535
322.689372
339.119935
339.76032
339.313213
339.807608
329.537414
325.093575
323.617821
322.594294
339.341613
339.731673
328.88964
318.389754
318.545109
339.441732
339.606535
339.63316
327.724924
326.43977
339.302702
329.376317
318.84798
339.470119
339.391886
328.701192
316.494558
317.215075
339.131268
339.74623
339.374104
339.855878
339.653197
329.330955
325.533708
322.344365
322.362114
339.430765
339.62925
339.649011
329.553334
322.987895
339.428247
339.487861
329.4186
321.695694
322.707169
339.368909
339.762164
339.588355
329.360103
323.166884
324.446168
318.394833
318.597346
339.120928
339.62177
339.592148
323.696875
321.590246
339.241402
339.68288
339.588831
326.886625
323.188789
339.41227
339.755061
339.646219
329.345781
321.0755
321.209444
339.293547
339.6504
329.448286
320.179762
320.329978
339.141268
339.797385
327.450791
321.378602
339.253267
339.6104
328.780475
318.238849
319.468968
339.358048
339.669602
339.677376
328.703574
322.510487
339.255991
339.696972
328.023738
323.936529
339.221121
339.672473
328.752455
324.387152
339.356556
339.506448
329.399179
323.105253
323.146995
339.260551
339.664347
329.516888
321.627979
321.781297
339.044896
339.764587
327.693924
322.755161
339.040641
339.66164
327.348504
321.95682
339.169778
339.477908
327.945974
317.322607
317.477798
339.046792
339.640988
339.306687
339.787003
339.602678
328.243015
323.140071
319.257924
319.296157
338.962832
339.612481
339.255808
339.746306
339.641475
329.407981
323.489238
322.115427
322.089361
339.094749
339.646749
323.683574
321.572588
338.945198
339.678229
323.597682
321.684791
338.869126
339.644063
339.246212
339.700812
329.55472
324.629779
322.474438
322.46948
339.130283
339.692268
323.775466
321.459404
338.9786
339.649982
339.406375
339.64418
329.31972
322.049716
322.151815
339.163485
339.865832
327.432622
326.318728
339.210843
329.4616
323.933083
339.312004
328.328279
323.074466
339.188296
339.637619
339.547952
329.450905
323.474101
322.38037
322.349757
338.939833
339.636101
322.997589
321.948754
338.957355
339.606365
339.469005
326.361386
323.051248
339.235292
339.645102
)
;

boundaryField
{
    closed
    {
        type            fixedValue;
        value           nonuniform List<scalar> 0();
    }
    open
    {
        type            zeroGradient;
    }
    sides
    {
        type            empty;
    }
    procBoundary2to1
    {
        type            processor;
        value           uniform 329.517244;
    }
    procBoundary2to3
    {
        type            processor;
        value           uniform 339.6591;
    }
}


// ************************************************************************* //
