/*--------------------------------*- C++ -*----------------------------------*\
| =========                 |                                                 |
| \\      /  F ield         | OpenFOAM: The Open Source CFD Toolbox           |
|  \\    /   O peration     | Version:  2306                                  |
|   \\  /    A nd           | Website:  www.openfoam.com                      |
|    \\/     M anipulation  |                                                 |
\*---------------------------------------------------------------------------*/
FoamFile
{
    version     2.0;
    format      ascii;
    arch        "LSB;label=32;scalar=64";
    class       volScalarField;
    location    "0.0019";
    object      alpha;
}
// * * * * * * * * * * * * * * * * * * * * * * * * * * * * * * * * * * * * * //

dimensions      [1 -1 -1 0 0 0 0];

internalField   nonuniform List<scalar> 
531
(
3.5754175e-05
3.51670051e-05
3.52439462e-05
3.45847676e-05
3.47060819e-05
3.68143721e-05
3.68200921e-05
3.67796649e-05
3.68193099e-05
3.67841325e-05
3.55324724e-05
3.51381026e-05
3.68612026e-05
3.67982059e-05
3.56669475e-05
3.46153065e-05
3.47603381e-05
3.68139328e-05
3.68165107e-05
3.67898245e-05
3.68126099e-05
3.67886106e-05
3.57538527e-05
3.53847724e-05
3.50787892e-05
3.51085706e-05
3.68273203e-05
3.68133968e-05
3.52718854e-05
3.51448115e-05
3.68249271e-05
3.68140936e-05
3.517157e-05
3.51740393e-05
3.68294871e-05
3.68042746e-05
3.67988179e-05
3.54774317e-05
3.51078944e-05
3.68384131e-05
3.68023606e-05
3.67990283e-05
3.68069211e-05
3.58327711e-05
3.53987983e-05
3.52944444e-05
3.51664442e-05
3.45099895e-05
3.45861865e-05
3.68155801e-05
3.68209208e-05
3.67922092e-05
3.68265497e-05
3.67822618e-05
3.57244753e-05
3.50777805e-05
3.51234101e-05
3.68009575e-05
3.68250437e-05
3.56887953e-05
3.54456833e-05
3.68164135e-05
3.68101881e-05
3.57601449e-05
3.55072557e-05
3.52101822e-05
3.52180305e-05
3.68179098e-05
3.68045616e-05
3.67875678e-05
3.57703295e-05
3.51557568e-05
3.52808098e-05
3.46545862e-05
3.46851739e-05
3.68077876e-05
3.68175476e-05
3.67883778e-05
3.68237147e-05
3.54917978e-05
3.53756924e-05
3.68098798e-05
3.68065487e-05
3.67920941e-05
3.57523053e-05
3.50432174e-05
3.50496233e-05
3.68089866e-05
3.67998307e-05
3.57360868e-05
3.49005598e-05
3.49377787e-05
3.6792803e-05
3.68046188e-05
3.53298761e-05
3.51136741e-05
3.68088935e-05
3.67921384e-05
3.6798121e-05
3.67910459e-05
3.57780669e-05
3.49286177e-05
3.52526774e-05
3.67964752e-05
3.57239304e-05
3.47902903e-05
3.68157899e-05
3.67739095e-05
3.56205801e-05
3.45223491e-05
3.46989436e-05
3.67875902e-05
3.68053408e-05
3.67892874e-05
3.68044994e-05
3.56904893e-05
3.51122459e-05
3.67975572e-05
3.67861784e-05
3.57124028e-05
3.47964881e-05
3.48572439e-05
3.67684101e-05
3.68179866e-05
3.52073912e-05
3.51452031e-05
3.67779976e-05
3.6810366e-05
3.67811874e-05
3.68098179e-05
3.67826416e-05
3.57586869e-05
3.54375698e-05
3.52481245e-05
3.52209016e-05
3.67959848e-05
3.67872334e-05
3.57266096e-05
3.48364719e-05
3.51919265e-05
3.67839702e-05
3.57119636e-05
3.47490143e-05
3.67951499e-05
3.6792416e-05
3.55345959e-05
3.46593442e-05
3.4662062e-05
3.60141149e-05
3.68072599e-05
3.6820332e-05
3.68128666e-05
3.6810997e-05
3.6816954e-05
3.56121565e-05
3.53935261e-05
3.67938566e-05
3.67992836e-05
3.68085992e-05
3.57444422e-05
3.51681441e-05
3.49909468e-05
3.49875706e-05
3.67843205e-05
3.6798658e-05
3.52822377e-05
3.50144878e-05
3.67897485e-05
3.67928735e-05
3.55824221e-05
3.46079032e-05
3.48042175e-05
3.67737754e-05
3.68068249e-05
3.67898652e-05
3.68049317e-05
3.67970337e-05
3.57829519e-05
3.54675261e-05
3.5233671e-05
3.52433337e-05
3.67891898e-05
3.68007749e-05
3.56410647e-05
3.4709261e-05
3.48374755e-05
3.67909302e-05
3.68222414e-05
3.68107658e-05
3.68262844e-05
3.57315991e-05
3.53821324e-05
3.67731192e-05
3.68125862e-05
3.5736848e-05
3.53578789e-05
3.50196089e-05
3.50187293e-05
3.678059e-05
3.68071029e-05
3.67913004e-05
3.68099817e-05
3.62232669e-05
3.55652198e-05
3.51137538e-05
3.51473291e-05
3.6780109e-05
3.68216654e-05
3.57351493e-05
3.53082377e-05
3.50591501e-05
3.50585177e-05
3.67648679e-05
3.68253791e-05
3.53677136e-05
3.51970319e-05
3.67674883e-05
3.68281345e-05
3.53547942e-05
3.52897585e-05
3.67825119e-05
3.68179264e-05
3.6823754e-05
3.56923039e-05
3.53107685e-05
3.67955001e-05
3.67973003e-05
3.57088526e-05
3.50826048e-05
3.51830129e-05
3.67914174e-05
3.68315243e-05
3.56599126e-05
3.54734979e-05
3.67809125e-05
3.68132929e-05
3.57446964e-05
3.55060463e-05
3.51849321e-05
3.53078997e-05
3.68180828e-05
3.57287677e-05
3.49946239e-05
3.67857378e-05
3.68095835e-05
3.53924195e-05
3.52117368e-05
3.67852815e-05
3.68149018e-05
3.52728479e-05
3.52491509e-05
3.6801322e-05
3.68045686e-05
3.68157646e-05
3.56849844e-05
3.51792459e-05
3.67991395e-05
3.68123323e-05
3.5370517e-05
3.53392268e-05
3.68087125e-05
3.68056834e-05
3.68170186e-05
3.57523056e-05
3.51616859e-05
3.48511746e-05
3.49306505e-05
3.6825447e-05
3.67927745e-05
3.68058504e-05
3.55219171e-05
3.4992635e-05
3.63061156e-05
3.68041375e-05
3.68091301e-05
3.6817644e-05
3.68167684e-05
3.57222173e-05
3.51436365e-05
3.51736965e-05
3.50466137e-05
3.48022606e-05
3.47794463e-05
3.59458999e-05
3.68007656e-05
3.6838398e-05
3.68092674e-05
3.68169388e-05
3.57262597e-05
3.53273432e-05
3.68248403e-05
3.67941623e-05
3.57383905e-05
3.50947248e-05
3.51952323e-05
3.68092193e-05
3.6812107e-05
3.68117436e-05
3.5777264e-05
3.54067698e-05
3.53252502e-05
3.51822919e-05
3.46587086e-05
3.466599e-05
3.64319194e-05
3.68279791e-05
3.68013534e-05
3.68351302e-05
3.68055079e-05
3.57051044e-05
3.49241922e-05
3.49402194e-05
3.68184293e-05
3.68418538e-05
3.53917453e-05
3.52996919e-05
3.68409303e-05
3.6829839e-05
3.68333935e-05
3.56528984e-05
3.52348829e-05
3.68742288e-05
3.68274214e-05
3.56920485e-05
3.49790361e-05
3.50546864e-05
3.68619523e-05
3.68674933e-05
3.68458944e-05
3.56989198e-05
3.50675466e-05
3.51027825e-05
3.69256072e-05
3.68986035e-05
3.56560195e-05
3.49664528e-05
3.50183656e-05
3.69640144e-05
3.6966627e-05
3.54261961e-05
3.51332464e-05
3.70233531e-05
3.70108778e-05
3.56571489e-05
3.48267785e-05
3.48646253e-05
3.71305391e-05
3.71190057e-05
3.51962716e-05
3.48303401e-05
3.70670189e-05
3.70800229e-05
3.52840428e-05
3.4293683e-05
3.43875122e-05
3.6821641e-05
3.68957245e-05
3.68124157e-05
3.68266642e-05
3.67829418e-05
3.67604331e-05
3.67301745e-05
3.66952247e-05
3.66750761e-05
3.66436395e-05
3.66310641e-05
3.66115535e-05
3.66040294e-05
3.65971775e-05
3.65950969e-05
3.66005803e-05
3.6608801e-05
3.66317613e-05
3.66642349e-05
3.67268269e-05
3.68202326e-05
3.7020179e-05
3.72796458e-05
3.70571947e-05
3.68837847e-05
3.6669334e-05
3.6521201e-05
3.63271047e-05
3.62070997e-05
3.60424746e-05
3.59554908e-05
3.5809166e-05
3.56927556e-05
3.55355037e-05
3.55336537e-05
3.54504684e-05
3.53368727e-05
3.51849876e-05
3.50840111e-05
3.49651703e-05
3.48870433e-05
3.4799018e-05
3.45683447e-05
3.43037502e-05
3.40172116e-05
3.37639439e-05
3.34906111e-05
3.371214e-05
3.58713083e-05
3.5482709e-05
3.50253389e-05
3.45736318e-05
3.4132853e-05
3.36389535e-05
3.32012901e-05
3.26728854e-05
3.22291229e-05
3.16643502e-05
3.1351586e-05
3.12585398e-05
3.19964651e-05
3.14743185e-05
3.10195445e-05
3.10695146e-05
3.25683176e-05
3.41888222e-05
3.44085245e-05
3.51413203e-05
3.47266228e-05
4.09315165e-05
4.14800238e-05
4.25564031e-05
4.32819251e-05
4.47413143e-05
4.61752073e-05
4.82167065e-05
5.04734203e-05
5.37318565e-05
5.64801059e-05
5.79978575e-05
5.95257774e-05
6.10828219e-05
6.28482928e-05
6.40316666e-05
6.51300854e-05
6.61660554e-05
6.71335855e-05
6.80712696e-05
6.90162758e-05
6.9919556e-05
7.07635812e-05
7.15651221e-05
7.2167687e-05
7.27488808e-05
7.32537507e-05
7.37812815e-05
7.42420088e-05
7.47372061e-05
7.51653496e-05
7.56414353e-05
7.60178567e-05
7.64346262e-05
7.67504699e-05
7.71258347e-05
7.73975152e-05
7.77444494e-05
7.79993286e-05
7.8315652e-05
7.85646876e-05
7.88647448e-05
7.91379082e-05
7.94478585e-05
7.97076049e-05
7.98896238e-05
8.00618708e-05
8.02206789e-05
8.03765739e-05
8.05165861e-05
8.06547611e-05
8.07741445e-05
8.09173571e-05
8.10542497e-05
8.12071848e-05
8.1343425e-05
8.14875492e-05
8.16215366e-05
8.17649392e-05
8.18815946e-05
8.20072192e-05
8.21110866e-05
8.22257746e-05
8.23212103e-05
8.24283698e-05
8.25190093e-05
8.26210292e-05
8.27002478e-05
8.27888619e-05
8.286401e-05
8.29482097e-05
8.30202543e-05
8.31194162e-05
8.32119785e-05
8.33081491e-05
8.3391815e-05
8.34786674e-05
8.35551672e-05
8.36325807e-05
8.36950201e-05
8.37600632e-05
8.38198724e-05
8.38817675e-05
8.39392151e-05
8.39982946e-05
8.40535995e-05
8.4109949e-05
8.41634541e-05
8.42181324e-05
8.42705028e-05
8.43236727e-05
8.4375045e-05
8.44268721e-05
8.44773808e-05
8.45280257e-05
8.4573586e-05
8.46177385e-05
8.46615707e-05
8.47043743e-05
8.47492295e-05
8.47928577e-05
8.48374148e-05
8.48793598e-05
8.49223505e-05
8.49627501e-05
8.5004304e-05
8.50432843e-05
8.50826924e-05
)
;

boundaryField
{
    closed
    {
        type            calculated;
        value           nonuniform List<scalar> 0();
    }
    open
    {
        type            calculated;
        value           nonuniform List<scalar> 0();
    }
    sides
    {
        type            empty;
    }
    procBoundary4to3
    {
        type            processor;
        value           uniform 3.67809626e-05;
    }
    procBoundary4to5
    {
        type            processor;
        value           uniform 8.51175504e-05;
    }
}


// ************************************************************************* //
