/*--------------------------------*- C++ -*----------------------------------*\
| =========                 |                                                 |
| \\      /  F ield         | OpenFOAM: The Open Source CFD Toolbox           |
|  \\    /   O peration     | Version:  2306                                  |
|   \\  /    A nd           | Website:  www.openfoam.com                      |
|    \\/     M anipulation  |                                                 |
\*---------------------------------------------------------------------------*/
FoamFile
{
    version     2.0;
    format      ascii;
    arch        "LSB;label=32;scalar=64";
    class       volScalarField;
    location    "0.0019";
    object      h;
}
// * * * * * * * * * * * * * * * * * * * * * * * * * * * * * * * * * * * * * //

dimensions      [0 2 -2 0 0 0 0];

internalField   nonuniform List<scalar> 
531
(
141.876406
-5284.49789
-4883.46523
-8278.30824
-7780.38369
8480.00795
9847.91704
9234.18127
10173.2269
9893.30175
-3276.20464
-5445.73637
9550.95077
9758.36844
-2508.94834
-8123.91311
-7493.59983
8999.06336
10021.7427
9586.51977
10440.6854
10211.9417
-519.596261
-4107.53079
-5758.95986
-5616.10329
9201.88159
10067.7332
-4718.83783
-5422.17615
9151.03591
10109.7975
-5256.47472
-5263.44111
8847.55732
10309.4276
9609.50239
-3592.26519
-5606.69268
9099.8025
10126.5459
9899.59574
10249.9706
1943.18121
-4027.9704
-4601.51183
-5302.79972
-8686.43341
-8380.45386
8624.42465
9904.07888
9299.40546
10343.1322
10055.8962
-732.432224
-5749.87531
-5549.2312
9723.29504
10230.0426
-2419.31142
-3764.48644
9754.0781
10459.8922
-734.697463
-3426.33284
-5057.1213
-5021.15759
9392.16714
10567.7734
10069.436
550.516043
-5337.68478
-4679.52437
-7932.88039
-7863.96563
8886.57851
9832.1097
9609.63295
10049.5232
-3523.50064
-4154.24804
9150.65256
10649.1086
9915.2204
-345.804941
-5943.98138
-5929.24683
9813.13316
9902.37005
-1751.81561
-6678.63455
-6528.23935
9519.36668
9987.60322
-4408.06161
-5578.52609
9011.04569
10004.3384
9969.25693
9969.18816
522.296888
-6528.72215
-4833.69613
9227.84313
-1717.29477
-7226.27622
9551.61923
9642.23265
-2769.56854
-8540.10169
-7783.45852
8956.89379
9747.14848
9791.88813
9853.77465
-2398.56599
-5574.8522
9618.61822
9872.63176
-2242.02552
-7189.08788
-6968.38019
9370.48498
9962.1842
-5063.09049
-5421.84447
8588.12421
10301.7901
9505.37347
10561.9923
10348.2266
82.9306708
-3822.05722
-4857.80187
-4994.61124
9400.18586
9926.03973
-1471.30151
-6988.21953
-5168.5011
9121.80218
-2069.2498
-7447.49989
9400.63652
9707.21892
-3254.42039
-7950.27877
-7993.79587
4151.67353
9534.14101
9985.71988
9798.42183
10220.0417
10038.3073
-2826.08373
-4057.61912
9112.52213
10624.4018
9879.41078
-928.683981
-5279.8001
-6239.19468
-6247.43704
8966.6349
9911.4092
-4671.51206
-6097.49335
9227.99607
9711.85292
-2988.11124
-8151.61688
-7232.58945
9014.56766
10091.6478
9688.73246
10471.4841
10385.3934
834.274365
-3656.46027
-4936.93614
-4877.77956
9277.87539
9876.45312
-2636.3683
-7675.03635
-7072.62669
9092.73899
9877.06842
9977.51755
10026.5857
-1804.4647
-4119.96149
9579.71099
10284.9379
-1547.44245
-4255.15547
-6081.90442
-6088.39976
8964.44142
10148.9754
9639.1081
10338.4367
6024.89215
-3080.30722
-5560.02184
-5407.90053
9710.23207
10143.7195
-1592.44718
-4527.92475
-5874.95073
-5889.76295
8964.46631
10000.976
-4198.60469
-5141.55396
8836.45376
10096.9775
-4269.84497
-4630.31573
8818.92483
10451.6613
9942.52141
-2325.80964
-4512.69129
9344.62609
10098.491
-1108.49895
-5734.84229
-5221.1262
9590.13286
10253.6133
-2549.67156
-3606.78895
9487.60665
10413.4518
-813.866268
-3434.33113
-5201.09442
-4529.07781
9271.75194
-1822.39035
-6219.89354
9230.00715
10007.5312
-4063.05559
-5055.75516
9035.88321
10119.9185
-4721.20449
-4851.99808
8776.60285
10447.8088
9584.20756
-2401.93109
-5226.57973
9287.59025
10124.2338
-4184.03263
-4357.20414
8958.21023
10603.0645
9850.78707
-595.971019
-5316.2599
-6949.20978
-6543.26078
8351.55957
10240.7177
9523.37443
-3345.12201
-6217.58973
5867.39415
10062.3198
9631.98142
10403.1475
10185.209
-1373.96818
-5416.11731
-5271.36203
-5934.38741
-7289.90217
-7352.73425
3439.4061
9861.42226
9939.08559
10360.9496
10068.9688
-1127.74931
-4422.3554
9765.72571
10150.2166
-204.720317
-5671.42676
-5150.36897
9484.66113
10538.9627
10284.0201
808.664073
-3986.01539
-4434.29085
-5215.43774
-7976.97405
-7976.64792
6301.91154
9849.70182
9418.41553
10291.4613
10086.0833
-1331.35596
-6580.47133
-6554.75327
9425.06686
10043.5752
-4064.60961
-4574.7485
9013.85656
10485.0168
9987.47134
-2551.97509
-4931.8069
9653.89786
10014.1636
-926.323542
-6326.94374
-5946.29714
9349.76935
10346.4151
9983.31396
-91.3738374
-5872.73496
-5686.35092
9601.12603
9913.12493
-480.783191
-6467.15996
-6181.9065
9420.74906
9889.50229
-3743.28994
-5493.71459
9217.91709
9786.0211
378.051276
-7346.37312
-7113.09202
8991.07415
9461.62757
-4888.3117
-7288.09584
8385.48223
8559.01214
-2930.68891
-10929.9124
-10272.0542
5672.0821
6735.93351
5753.32858
6127.4659
5644.83508
5563.15732
5274.34472
5009.3213
4848.81718
4584.30642
4495.17963
4320.50336
4249.04962
4159.50443
4078.70064
4043.90235
3958.5361
3976.51044
3950.28716
4106.26149
4290.44301
5021.23357
6181.68262
6259.23484
6185.58542
6182.98106
6047.96563
5921.74978
5659.61339
5400.01627
4991.4446
4555.73075
4089.11217
4029.51496
4378.55656
5682.0336
5745.95804
5742.26465
5440.19481
5002.87173
4245.18947
3436.22833
2084.88076
929.467029
-788.019857
-2060.86989
-4021.05455
-2717.90101
8165.59411
7640.61529
5599.83594
4710.55803
2631.72912
1162.73906
-1080.22159
-3215.99274
-5780.8922
-8332.56001
-11161.7411
-12321.3163
-10955.677
-13833.0313
-16861.6648
-13826.2638
-19316.9273
-21574.364
-24256.1265
-23288.9074
-28927.9159
-36660.1733
-36611.2309
-40476.1537
-41861.5173
-45285.5951
-46623.9983
-48795.5818
-48587.4368
-48185.8549
-46176.4717
-46372.5785
-46510.8789
-47357.4597
-48356.8335
-49760.4482
-51849.177
-53990.1834
-56350.8369
-58884.6997
-61775.8387
-64661.3245
-67317.0918
-69822.1439
-72007.8738
-74054.0429
-75872.897
-77580.6156
-79199.4186
-80859.687
-82638.9254
-84652.0403
-86423.7034
-87719.4432
-88424.3441
-88505.2401
-88339.2471
-87490.6281
-86610.3303
-84963.9649
-83415.9057
-81081.3269
-78429.5838
-75073.5033
-72045.4969
-70347.6341
-68600.9761
-67063.2497
-65415.1576
-63946.7861
-62479.2141
-61183.432
-59419.881
-57459.8529
-55318.0941
-53212.6632
-51223.6659
-49217.1905
-47281.9446
-45505.2586
-43880.709
-42275.3357
-40812.2448
-39340.803
-38016.0624
-36561.4476
-35277.7588
-34006.2042
-32965.0921
-31721.3071
-30721.392
-29496.9625
-28277.0308
-26707.9941
-25500.9788
-24074.5933
-23009.2427
-21695.0755
-20789.513
-19799.8045
-19168.5748
-18209.4265
-17603.5476
-16671.4727
-16084.7652
-15185.8374
-14692.7565
-13873.714
-13379.4039
-12567.8181
-12070.025
-11263.5047
-10759.7668
-9955.74665
-9443.7072
-8776.32314
-8431.21361
-7796.87024
-7452.4504
-6786.77652
-6398.11171
-5730.28104
-5352.15162
-4709.46906
-4340.12823
-3719.91148
-3357.86983
-2788.65549
)
;

boundaryField
{
    closed
    {
        type            lookUpEnthalpy;
        h0              nonuniform List<scalar> 0();
        value           nonuniform List<scalar> 0();
    }
    open
    {
        type            zeroGradient;
    }
    sides
    {
        type            empty;
    }
    procBoundary4to3
    {
        type            processor;
        value           uniform 10117.1394;
    }
    procBoundary4to5
    {
        type            processor;
        value           uniform -2538.62121;
    }
}


// ************************************************************************* //
