/*--------------------------------*- C++ -*----------------------------------*\
| =========                 |                                                 |
| \\      /  F ield         | OpenFOAM: The Open Source CFD Toolbox           |
|  \\    /   O peration     | Version:  2306                                  |
|   \\  /    A nd           | Website:  www.openfoam.com                      |
|    \\/     M anipulation  |                                                 |
\*---------------------------------------------------------------------------*/
FoamFile
{
    version     2.0;
    format      ascii;
    arch        "LSB;label=32;scalar=64";
    class       volScalarField;
    location    "0.0019";
    object      prefDh_H2O;
}
// * * * * * * * * * * * * * * * * * * * * * * * * * * * * * * * * * * * * * //

dimensions      [1 1 -3 0 0 0 0];

internalField   nonuniform List<scalar> 
531
(
88.9638374
87.8303754
87.8619419
87.3467812
87.3937315
92.8192009
92.43323
92.6610417
92.3467365
92.4752452
88.1193123
87.796647
92.4498396
92.4907174
88.2352805
87.3729664
87.4409783
92.6750868
92.3917789
92.5498643
92.285584
92.3830541
88.7544274
88.0065476
87.7494434
87.7560863
92.5987104
92.384174
87.9271305
87.7842144
92.6163994
92.371797
87.8393055
87.8092811
92.6936026
92.3333472
92.5302113
88.0811538
87.7714407
92.6098584
92.3851973
92.4512961
92.3451969
89.5622567
88.0091235
87.9318437
87.8062563
87.2707668
87.3023677
92.77691
92.4167579
92.6247327
92.2899982
92.4342999
88.6949129
87.7626206
87.7483566
92.4960915
92.3226156
88.2785515
88.0442371
92.4643074
92.2842005
88.6903593
88.1079955
87.8607037
87.8534644
92.5607465
92.2641914
92.4227726
89.0932219
87.8294076
87.8993499
87.403146
87.3886816
92.7154898
92.4414151
92.545725
92.3731902
88.1153228
87.981541
92.6392889
92.2396088
92.4574851
88.8076838
87.7222701
87.7094269
92.4596124
92.449339
88.4023042
87.6092571
87.6105816
92.5637255
92.4191219
87.9662452
87.7731903
92.6793339
92.4334252
92.4338821
92.4445159
89.0767919
87.635962
87.8776661
92.6380558
88.4091335
87.5263365
92.5203585
92.5581521
88.191205
87.3131101
87.4048417
92.7258503
92.4830148
92.4949689
92.4554168
88.2720047
87.7848901
92.5296187
92.4777831
88.2719574
87.5344594
87.5320998
92.6400703
92.4055725
87.8736035
87.7816046
92.8422339
92.3260736
92.5846893
92.2576522
92.3556336
88.9416098
88.0748795
87.8769838
87.8789311
92.5915346
92.4618195
88.4782726
87.5666774
87.8189399
92.6856388
88.3095614
87.4859113
92.5926528
92.5132368
88.1110315
87.3886816
87.3642799
90.6578349
92.5380528
92.3956135
92.4576949
92.3469724
92.3866361
88.1903527
88.0061475
92.6736695
92.2572658
92.4422714
88.6344814
87.8294116
87.6616417
87.666641
92.7279324
92.4486662
87.901948
87.6960985
92.6479601
92.5112986
88.1583511
87.3706392
87.4958542
92.7299938
92.3877822
92.5220451
92.2891796
92.3241017
89.1838149
88.0933086
87.8640422
87.8902463
92.6350945
92.4549129
88.1986808
87.440319
87.5153346
92.6834368
92.4220314
92.4124905
92.3753919
88.3868658
87.9930581
92.5762697
92.3271694
88.458614
87.9809583
87.6905882
87.6882132
92.7339676
92.3719702
92.5333803
92.3168774
91.467499
88.1382316
87.7934991
87.7873849
92.5306427
92.3510195
88.4458535
87.9311726
87.7210264
87.7083657
92.7566024
92.3837022
87.9745663
87.8207248
92.7882516
92.3535551
87.960611
87.9053782
92.7714759
92.2744486
92.4019983
88.2365181
87.9456793
92.6074625
92.4003769
88.5828212
87.7566204
87.8017513
92.5465173
92.3061908
88.229381
88.0656572
92.5899323
92.291784
88.6680114
88.1087887
87.8247743
87.9380499
92.593549
88.381288
87.6645998
92.6533049
92.4062059
88.0025277
87.8472037
92.707403
92.3678373
87.9042727
87.8785659
92.7556692
92.2960286
92.5115077
88.2489517
87.8292311
92.6176869
92.3706192
87.9815582
87.9547497
92.6942375
92.2531225
92.437168
88.7317937
87.8211928
87.558419
87.6207635
92.8387538
92.3691141
92.5431148
88.121831
87.6734683
91.7534159
92.3997479
92.5085683
92.2878112
92.3474411
88.5054079
87.8013536
87.7961238
87.7174732
87.4660741
87.479866
90.389993
92.4589874
92.3801453
92.3119666
92.3784057
88.5766392
87.9594171
92.4482105
92.391236
88.8573495
87.7660759
87.8218885
92.5486043
92.2602351
92.328709
89.1808473
88.0240856
87.9407745
87.8224592
87.3774364
87.3660593
92.1588375
92.4205806
92.5785387
92.2903941
92.3912807
88.5168423
87.6129391
87.580762
92.5509404
92.3464768
87.9946908
87.898311
92.6297916
92.2469989
92.3748891
88.1996936
87.8601397
92.4007672
92.3769781
88.641276
87.6305187
87.6583173
92.5039413
92.2239908
92.3563865
88.9235292
87.673145
87.6778114
92.3303705
92.2901228
88.8147972
87.5397529
87.5571281
92.3143236
92.1803809
87.9079183
87.6203658
92.2650768
92.1296531
89.2959989
87.2817731
87.3091328
92.1255144
92.0150548
87.5527844
87.1830966
91.8942413
91.8714587
88.1728376
86.5581357
86.5886042
91.7070896
91.3558621
91.4207809
91.0510819
91.040729
90.7055594
90.6093463
90.3226008
90.1565833
89.9039572
89.6890529
89.453895
89.2044488
88.9733617
88.7006151
88.4667226
88.182953
87.9462963
87.6740363
87.4448129
87.2202963
87.0788807
87.0548058
86.7303347
86.4423343
86.0382855
85.712789
85.2252615
84.8571104
84.2798032
83.8721507
83.2010947
82.8104443
82.2469575
82.1293695
81.8920244
81.5091494
80.8559927
80.2568499
79.4427867
78.6546916
77.7305284
76.6506292
75.5800849
74.3906329
73.344463
72.0991295
71.7101838
73.2590057
72.031219
70.532013
69.0873516
67.6378561
66.0336122
64.589265
62.8520891
61.3881634
59.5222532
58.1773074
56.77057
56.2856923
54.5096009
53.1671039
53.8812043
51.7843612
42.0100614
45.2931066
35.9220421
40.0674873
14.9254344
13.8939974
6.33797288
4.13684654
-4.40636007
-9.4602507
-20.2121967
-29.1843396
-46.5002773
-59.7108421
-70.4275222
-78.7327202
-89.2414322
-98.6255176
-105.953349
-111.204548
-117.123362
-121.806084
-127.015133
-131.548161
-136.316427
-140.331772
-144.415833
-147.287057
-150.247493
-152.615491
-155.163217
-157.227576
-159.422752
-161.176114
-163.026814
-164.490141
-166.096994
-167.411583
-168.908881
-170.103311
-171.516602
-172.65089
-173.977257
-175.065348
-176.327412
-177.460008
-178.743891
-179.807199
-180.650653
-181.398395
-182.130414
-182.819193
-183.478234
-184.111811
-184.697811
-185.360025
-185.997472
-186.684203
-187.304102
-187.936302
-188.488769
-189.086992
-189.582416
-190.135278
-190.582588
-191.092228
-191.501489
-191.981803
-192.36652
-192.824349
-193.174691
-193.596323
-193.927951
-194.329865
-194.645619
-195.071261
-195.427852
-195.835912
-196.158608
-196.530797
-196.825666
-197.163679
-197.417935
-197.718406
-197.958307
-198.241764
-198.468785
-198.736706
-198.952168
-199.206905
-199.41442
-199.659194
-199.860104
-200.095524
-200.2903
-200.516963
-200.706043
-200.924538
-201.090947
-201.279923
-201.437816
-201.618338
-201.776863
-201.955834
-202.11123
-202.281182
-202.429662
-202.59121
-202.733246
-202.886971
-203.022116
)
;

boundaryField
{
    closed
    {
        type            calculated;
        value           nonuniform List<scalar> 0();
    }
    open
    {
        type            calculated;
        value           nonuniform List<scalar> 0();
    }
    sides
    {
        type            empty;
    }
    procBoundary4to3
    {
        type            processor;
        value           uniform 92.4198136;
    }
    procBoundary4to5
    {
        type            processor;
        value           uniform -203.165662;
    }
}


// ************************************************************************* //
