/*--------------------------------*- C++ -*----------------------------------*\
| =========                 |                                                 |
| \\      /  F ield         | OpenFOAM: The Open Source CFD Toolbox           |
|  \\    /   O peration     | Version:  2306                                  |
|   \\  /    A nd           | Website:  www.openfoam.com                      |
|    \\/     M anipulation  |                                                 |
\*---------------------------------------------------------------------------*/
FoamFile
{
    version     2.0;
    format      ascii;
    arch        "LSB;label=32;scalar=64";
    class       volScalarField;
    location    "4e-05";
    object      p;
}
// * * * * * * * * * * * * * * * * * * * * * * * * * * * * * * * * * * * * * //

dimensions      [1 -1 -2 0 0 0 0];

internalField   nonuniform List<scalar> 
530
(
101845.801
101820.518
101799.451
101778.069
101757.935
101740.278
101722.409
101704.579
101689.772
101677.35
101663.369
101649.062
101638.159
101629.136
101617.982
101605.947
101596.946
101590.08
101581.015
101570.885
101563.878
101558.881
101552.509
101545.874
101541.001
101537.033
101533.133
101529.894
101527.038
101524.28
101522.182
101520.646
101519.524
101518.81
101518.505
101518.574
101518.975
101519.676
101520.645
101521.854
101523.269
101524.866
101526.617
101528.5
101530.494
101532.581
101534.745
101536.972
101539.25
101541.566
101543.911
101546.277
101548.655
101551.037
101553.416
101555.786
101558.139
101560.47
101562.773
101565.041
101567.27
101569.453
101571.585
101573.661
101575.677
101577.626
101579.506
101581.31
101583.036
101584.679
101586.235
101587.701
101589.074
101590.35
101591.527
101592.603
101593.574
101594.439
101595.196
101595.843
101596.379
101596.803
101597.113
101597.308
101597.389
101597.355
101597.205
101596.94
101596.559
101596.064
101595.456
101594.733
101593.899
101592.954
101591.898
101590.735
101589.465
101588.09
101586.613
101585.034
101583.357
101581.584
101579.717
101577.759
101575.712
101573.58
101571.364
101569.069
101566.696
101564.25
101561.732
101559.148
101556.498
101553.788
101551.021
101548.199
101545.326
101542.406
101539.441
101536.437
101533.395
101530.32
101527.215
101524.083
101520.929
101517.754
101514.564
101511.36
101508.147
101504.928
101501.706
101498.484
101495.266
101492.054
101488.852
101485.663
101482.489
101479.334
101476.2
101473.09
101470.007
101466.953
101463.931
101460.942
101457.991
101455.077
101452.205
101449.376
101446.591
101443.853
101441.164
101438.525
101435.937
101433.403
101430.924
101428.501
101426.135
101423.828
101421.58
101419.392
101417.266
101415.203
101413.202
101411.264
101409.39
101407.581
101405.837
101404.158
101402.544
101400.996
101399.514
101398.096
101396.745
101395.459
101394.238
101393.081
101391.99
101390.962
101389.999
101389.098
101388.26
101387.485
101386.771
101386.117
101385.524
101384.99
101384.514
101384.097
101383.735
101383.43
101383.18
101382.983
101382.84
101382.748
101382.707
101382.717
101382.775
101382.88
101383.033
101383.23
101383.472
101383.758
101384.085
101384.454
101384.862
101385.309
101385.793
101386.314
101386.87
101387.46
101388.083
101388.738
101389.423
101390.139
101390.882
101391.653
101392.451
101393.273
101394.12
101394.99
101395.882
101396.795
101397.728
101398.68
101399.651
101400.638
101401.642
101402.661
101403.695
101404.742
101405.802
101406.874
101407.957
101409.05
101410.153
101411.265
101412.384
101413.511
101414.645
101415.785
101416.929
101418.079
101419.233
101420.39
101421.55
101422.713
101423.877
101425.043
101426.21
101427.377
101428.544
101429.711
101430.877
101432.042
101433.205
101434.366
101435.525
101436.681
101437.835
101438.985
101440.132
101441.276
101442.415
101443.551
101444.682
101445.809
101446.931
101448.048
101449.161
101450.268
101451.371
101452.468
101453.559
101454.646
101455.726
101456.802
101457.871
101458.936
101459.994
101461.047
101462.094
101463.136
101464.171
101465.202
101466.226
101467.245
101468.259
101469.267
101470.27
101471.267
101472.259
101473.245
101474.227
101475.203
101476.174
101477.14
101478.102
101479.058
101480.01
101480.957
101481.9
101482.838
101483.772
101484.701
101485.626
101486.547
101487.464
101488.377
101489.287
101490.192
101491.094
101491.992
101492.887
101493.778
101494.666
101495.55
101496.432
101497.31
101498.185
101499.057
101499.926
101500.793
101501.656
101502.517
101503.375
101504.23
101505.082
101505.932
101506.779
101507.624
101508.466
101509.306
101510.143
101510.977
101511.809
101512.639
101513.466
101514.29
101515.112
101515.932
101516.749
101517.563
101518.375
101519.184
101519.99
101520.794
101521.594
101522.392
101523.187
101523.98
101524.769
101525.555
101526.337
101527.117
101527.893
101528.666
101529.436
101530.202
101530.964
101531.722
101532.477
101533.227
101533.974
101534.716
101535.454
101536.188
101536.917
101537.642
101538.362
101539.077
101539.787
101540.491
101541.191
101541.885
101542.574
101543.257
101543.934
101544.605
101545.27
101545.93
101546.582
101547.229
101547.868
101548.501
101549.127
101549.746
101550.358
101550.963
101551.56
101552.15
101552.732
101553.306
101553.872
101554.43
101554.98
101555.522
101556.055
101556.579
101557.095
101557.601
101558.099
101558.588
101559.067
101559.537
101559.998
101560.449
101560.89
101561.321
101561.743
101562.155
101562.556
101562.947
101563.328
101563.699
101564.059
101564.409
101564.748
101565.076
101565.393
101565.7
101565.996
101566.28
101566.554
101566.817
101567.069
101567.309
101567.538
101567.756
101567.963
101568.159
101568.343
101568.517
101568.678
101568.829
101568.969
101569.097
101569.214
101569.32
101569.416
101569.5
101569.573
101569.635
101569.687
101569.728
101569.758
101569.779
101569.788
101569.788
101569.778
101569.759
101569.73
101569.691
101569.64
101569.574
101569.486
101569.373
101569.233
101569.063
101568.858
101568.615
101568.328
101567.992
101567.598
101567.138
101566.605
101565.987
101565.274
101564.455
101563.516
101562.446
101561.231
101559.859
101558.317
101556.596
101554.689
101552.592
101550.309
101547.85
101545.238
101542.506
101539.706
101536.905
101534.19
101531.666
101529.451
101527.668
101526.429
101525.808
101525.814
101526.347
101527.161
101527.829
101527.749
101526.184
101522.391
101515.818
101506.378
101494.69
101482.214
101471.079
101463.553
101461.229
101464.243
101470.966
101478.572
101484.49
101487.892
101490.001
101492.518
101495.289
101496.082
101493.57
101489.562
101485.818
101479.991
101469.531
101458.014
101451.459
101450.651
101451.883
101449.576
101450.967
101469.278
101486.127
101446.644
101368.048
101307.86
101289.951
101300.279
101316.375
)
;

boundaryField
{
    closed
    {
        type            zeroGradient;
    }
    open
    {
        type            waveTransmissive;
        gamma           1.25;
        fieldInf        101325;
        lInf            1;
        value           uniform 101319.169;
    }
    sides
    {
        type            empty;
    }
    procBoundary5to4
    {
        type            processor;
        value           uniform 101877.544;
    }
}


// ************************************************************************* //
