/*--------------------------------*- C++ -*----------------------------------*\
| =========                 |                                                 |
| \\      /  F ield         | OpenFOAM: The Open Source CFD Toolbox           |
|  \\    /   O peration     | Version:  2306                                  |
|   \\  /    A nd           | Website:  www.openfoam.com                      |
|    \\/     M anipulation  |                                                 |
\*---------------------------------------------------------------------------*/
FoamFile
{
    version     2.0;
    format      ascii;
    arch        "LSB;label=32;scalar=64";
    class       volScalarField;
    location    "0.0005";
    object      prefDZ_H2;
}
// * * * * * * * * * * * * * * * * * * * * * * * * * * * * * * * * * * * * * //

dimensions      [1 -1 -1 0 0 0 0];

internalField   nonuniform List<scalar> 
530
(
6.29834476e-05
6.24354741e-05
6.23313499e-05
6.23305469e-05
6.23304612e-05
6.23304598e-05
6.23304597e-05
6.23304597e-05
6.23304597e-05
6.23304597e-05
6.23304597e-05
6.23304597e-05
6.23304597e-05
6.23304597e-05
6.23304597e-05
6.23304597e-05
6.23304597e-05
6.23304597e-05
6.23304597e-05
6.23304597e-05
6.23304597e-05
6.23304597e-05
6.23304597e-05
6.23304597e-05
6.23304597e-05
6.23304597e-05
6.23304597e-05
6.23304597e-05
6.23304597e-05
6.23304597e-05
6.23304597e-05
6.23304597e-05
6.23304597e-05
6.23304597e-05
6.23304597e-05
6.23304597e-05
6.23304597e-05
6.23304597e-05
6.23304597e-05
6.23304597e-05
6.23304597e-05
6.23304597e-05
6.23304597e-05
6.23304597e-05
6.23304597e-05
6.23304597e-05
6.23304597e-05
6.23304597e-05
6.23304597e-05
6.23304597e-05
6.23304597e-05
6.23304597e-05
6.23304597e-05
6.23304597e-05
6.23304597e-05
6.23304597e-05
6.23304597e-05
6.23304597e-05
6.23304597e-05
6.23304597e-05
6.23304597e-05
6.23304597e-05
6.23304597e-05
6.23304597e-05
6.23304597e-05
6.23304597e-05
6.23304597e-05
6.23304597e-05
6.23304597e-05
6.23304597e-05
6.23304597e-05
6.23304597e-05
6.23304598e-05
6.23304598e-05
6.23304598e-05
6.23304599e-05
6.23304603e-05
6.23304606e-05
6.23304639e-05
6.23304643e-05
6.23304813e-05
6.2330495e-05
6.23305332e-05
6.23306248e-05
6.23307539e-05
6.23310709e-05
6.23310139e-05
6.23313291e-05
6.23313388e-05
6.23393186e-05
6.23430907e-05
6.23226584e-05
6.23110851e-05
6.23582518e-05
6.2449927e-05
6.23985897e-05
6.22697408e-05
6.21854333e-05
6.29800082e-05
6.3587821e-05
6.24912148e-05
6.22524596e-05
6.13562661e-05
6.13098076e-05
6.26547872e-05
6.35043895e-05
6.35414791e-05
6.35414012e-05
6.23788308e-05
6.14859697e-05
6.14053419e-05
6.2918563e-05
6.35059864e-05
6.2400344e-05
6.17009609e-05
6.16322961e-05
6.29044455e-05
6.35588251e-05
6.23499382e-05
6.21056294e-05
6.29318519e-05
6.35454488e-05
6.23710361e-05
6.1594973e-05
6.15357985e-05
6.28815055e-05
6.35633146e-05
6.23436354e-05
6.2053493e-05
6.29312563e-05
6.3542095e-05
6.23681897e-05
6.15823013e-05
6.15398203e-05
6.28841175e-05
6.35605145e-05
6.23454132e-05
6.20324917e-05
6.29476277e-05
6.35389902e-05
6.23576814e-05
6.15313518e-05
6.14842642e-05
6.28707836e-05
6.35680351e-05
6.23416832e-05
6.19573423e-05
6.28899829e-05
6.35843617e-05
6.23380506e-05
6.19721437e-05
6.29580766e-05
6.35344557e-05
6.23582422e-05
6.15308608e-05
6.15325421e-05
6.29749466e-05
6.3572632e-05
6.23649243e-05
6.21046268e-05
6.3005375e-05
6.35820888e-05
6.23707746e-05
6.21130265e-05
6.16562812e-05
6.16573185e-05
6.29955398e-05
6.35000547e-05
6.23942016e-05
6.16288165e-05
6.16246088e-05
6.30794557e-05
6.35711972e-05
6.23726408e-05
6.203534e-05
6.29611615e-05
6.35807926e-05
6.23555816e-05
6.19684825e-05
6.30066688e-05
6.35186504e-05
6.23690397e-05
6.14716457e-05
6.14751507e-05
6.31298564e-05
6.3553447e-05
6.23694878e-05
6.18895321e-05
6.29715803e-05
6.35053836e-05
6.23760573e-05
6.14453755e-05
6.14514384e-05
6.30997266e-05
6.35549416e-05
6.23626749e-05
6.17967891e-05
6.27957754e-05
6.35517735e-05
6.23294469e-05
6.17679654e-05
6.27737923e-05
6.35448665e-05
6.23224704e-05
6.17147986e-05
6.27576125e-05
6.3533154e-05
6.23354553e-05
6.17507767e-05
6.28772786e-05
6.3520518e-05
6.23827598e-05
6.17287847e-05
6.30565027e-05
6.35222492e-05
6.22949744e-05
6.12487101e-05
6.23355653e-05
6.34792475e-05
6.22932005e-05
6.17256426e-05
6.26115114e-05
6.35146137e-05
6.23136889e-05
6.18561508e-05
6.27385184e-05
6.35073993e-05
6.25583541e-05
6.17776087e-05
6.1483271e-05
6.23877476e-05
6.35025715e-05
6.2310962e-05
6.179593e-05
6.27103861e-05
6.3538436e-05
6.23188135e-05
6.18672309e-05
6.27847943e-05
6.35195353e-05
6.25542052e-05
6.17795411e-05
6.15218013e-05
6.24040415e-05
6.34990359e-05
6.2313215e-05
6.18693847e-05
6.27918303e-05
6.35221723e-05
6.26264128e-05
6.18581207e-05
6.15981924e-05
6.24329704e-05
6.35193668e-05
6.23323529e-05
6.20517433e-05
6.29245738e-05
6.35789985e-05
6.25248376e-05
6.23197455e-05
6.16932199e-05
6.16088305e-05
6.23345546e-05
6.34700142e-05
6.33349358e-05
6.2125724e-05
6.16890557e-05
6.24641675e-05
6.35087701e-05
6.23615261e-05
6.23016777e-05
6.26656084e-05
6.35614975e-05
6.32269812e-05
6.22774344e-05
6.21131401e-05
6.17562268e-05
6.15569241e-05
6.22370616e-05
6.34254504e-05
6.36054084e-05
6.22683263e-05
6.17663809e-05
6.23033225e-05
6.34300725e-05
6.34146106e-05
6.22694208e-05
6.16394808e-05
6.22934258e-05
6.34290273e-05
6.31650006e-05
6.2157686e-05
6.16223847e-05
6.2281472e-05
6.34392777e-05
6.31213962e-05
6.21609233e-05
6.15780176e-05
6.22451935e-05
6.34413047e-05
6.24496805e-05
6.21570919e-05
6.24148522e-05
6.35124763e-05
6.28944115e-05
6.21356478e-05
6.16028313e-05
6.22230108e-05
6.34374942e-05
6.26610312e-05
6.22977675e-05
6.22538441e-05
6.33840544e-05
6.36190312e-05
6.26325049e-05
6.22777344e-05
6.20521996e-05
6.18485836e-05
6.1676812e-05
6.22529169e-05
6.34123119e-05
6.26200282e-05
6.22756774e-05
6.23257808e-05
6.34895811e-05
6.25182425e-05
6.22114749e-05
6.23112426e-05
6.34829912e-05
6.29664146e-05
6.21327037e-05
6.15050809e-05
6.22164231e-05
6.34168857e-05
6.26225144e-05
6.20595304e-05
6.22425967e-05
6.34509656e-05
6.25642802e-05
6.20860141e-05
6.22651051e-05
6.34326766e-05
6.30507666e-05
6.19860542e-05
6.14616212e-05
6.22930871e-05
6.34268551e-05
6.27980838e-05
6.20254718e-05
6.16686099e-05
6.24660661e-05
6.34902492e-05
6.2519315e-05
6.19885248e-05
6.22717484e-05
6.34327301e-05
6.33295554e-05
6.21219097e-05
6.14311476e-05
6.22445716e-05
6.34005107e-05
6.34365311e-05
6.23082302e-05
6.16985473e-05
6.23632588e-05
6.34428592e-05
6.28231723e-05
6.19810334e-05
6.16519449e-05
6.27157453e-05
6.35160985e-05
6.22901543e-05
6.18162143e-05
6.24957101e-05
6.34878282e-05
6.24214764e-05
6.17763415e-05
6.22508563e-05
6.34200046e-05
6.27559668e-05
6.17700976e-05
6.23287932e-05
6.34140349e-05
6.34695462e-05
6.22215056e-05
6.1620745e-05
6.24494449e-05
6.34736718e-05
6.2481651e-05
6.17796648e-05
6.22792579e-05
6.34249712e-05
6.2842277e-05
6.17866847e-05
6.2299393e-05
6.34292497e-05
6.28178434e-05
6.1871382e-05
6.23039338e-05
6.34825973e-05
6.35344213e-05
6.22718138e-05
6.14096775e-05
6.22941188e-05
6.34120284e-05
6.28730537e-05
6.19006051e-05
6.22708491e-05
6.34706585e-05
6.27573951e-05
6.19164922e-05
6.22494505e-05
6.34849375e-05
6.26367464e-05
6.19734462e-05
6.22704757e-05
6.35269435e-05
6.34956148e-05
6.22581616e-05
6.13972745e-05
6.22453177e-05
6.34675208e-05
6.26622104e-05
6.21230797e-05
6.22908686e-05
6.35400193e-05
6.34102428e-05
6.23162199e-05
6.18111605e-05
6.16365025e-05
6.22811956e-05
6.35151596e-05
6.35790127e-05
6.22758872e-05
6.16038318e-05
6.22674056e-05
6.34960416e-05
6.35731317e-05
6.22835938e-05
6.15586015e-05
6.22675504e-05
6.35067708e-05
6.35770433e-05
6.22798122e-05
6.15437656e-05
6.22669921e-05
6.35198609e-05
6.35809701e-05
6.22573527e-05
6.13904592e-05
6.22109098e-05
6.33744639e-05
6.36591506e-05
6.29920455e-05
6.23103676e-05
6.18266224e-05
6.16215948e-05
6.22920273e-05
6.35402868e-05
6.35913026e-05
6.22783392e-05
6.15538944e-05
6.22637379e-05
6.35021045e-05
6.28609086e-05
6.20367883e-05
6.22972117e-05
6.35832978e-05
6.35728582e-05
6.22653268e-05
6.1292521e-05
6.2258169e-05
6.35009386e-05
6.2824981e-05
6.19078256e-05
6.22680658e-05
6.35412042e-05
6.27134991e-05
6.19520413e-05
6.22988535e-05
6.35786298e-05
6.35293757e-05
6.21514813e-05
6.11810631e-05
6.22593739e-05
6.34919536e-05
6.27687514e-05
6.18527069e-05
6.22704572e-05
6.35313531e-05
6.2679206e-05
6.1916923e-05
6.22986472e-05
6.3570227e-05
6.35340196e-05
6.21378591e-05
6.11937542e-05
6.22576165e-05
6.34896549e-05
6.27752424e-05
6.18362706e-05
6.22909026e-05
6.3525211e-05
6.27812901e-05
6.18894955e-05
6.23069353e-05
6.35748995e-05
6.35713474e-05
6.22291823e-05
6.12394437e-05
6.22617086e-05
6.34938178e-05
6.26007332e-05
6.17560418e-05
6.22899137e-05
6.35435506e-05
6.23742286e-05
6.17618961e-05
6.2328191e-05
6.35262514e-05
6.2570555e-05
6.17863127e-05
6.23341636e-05
6.35843158e-05
6.35967044e-05
6.22722202e-05
6.14132541e-05
6.22667097e-05
6.35021922e-05
6.29471752e-05
)
;

boundaryField
{
    closed
    {
        type            calculated;
        value           uniform 8.13048887e-05;
    }
    open
    {
        type            calculated;
        value           nonuniform List<scalar> 0();
    }
    sides
    {
        type            empty;
    }
    procBoundary0to1
    {
        type            processor;
        value           uniform 6.18177132e-05;
    }
}


// ************************************************************************* //
