/*--------------------------------*- C++ -*----------------------------------*\
| =========                 |                                                 |
| \\      /  F ield         | OpenFOAM: The Open Source CFD Toolbox           |
|  \\    /   O peration     | Version:  2306                                  |
|   \\  /    A nd           | Website:  www.openfoam.com                      |
|    \\/     M anipulation  |                                                 |
\*---------------------------------------------------------------------------*/
FoamFile
{
    version     2.0;
    format      ascii;
    arch        "LSB;label=32;scalar=64";
    class       volScalarField;
    location    "0.00156";
    object      prefDZ_H2;
}
// * * * * * * * * * * * * * * * * * * * * * * * * * * * * * * * * * * * * * //

dimensions      [1 -1 -1 0 0 0 0];

internalField   nonuniform List<scalar> 
531
(
6.35266668e-05
6.23127009e-05
6.13239696e-05
6.1576103e-05
6.35341327e-05
6.3576964e-05
6.3548975e-05
6.23068703e-05
6.17777671e-05
6.19433404e-05
6.15067527e-05
6.15264341e-05
6.34600295e-05
6.35615415e-05
6.208225e-05
6.19436777e-05
6.3475131e-05
6.3553781e-05
6.35073622e-05
6.23311547e-05
6.15024518e-05
6.15522184e-05
6.35038438e-05
6.35315273e-05
6.24599591e-05
6.17138611e-05
6.16639686e-05
6.11256542e-05
6.11481448e-05
6.34675177e-05
6.35661869e-05
6.16192757e-05
6.13221184e-05
6.34371584e-05
6.35694472e-05
6.34756548e-05
6.35794886e-05
6.23093857e-05
6.18429899e-05
6.3519462e-05
6.35698798e-05
6.23400538e-05
6.18877146e-05
6.159049e-05
6.15915276e-05
6.35101402e-05
6.35618057e-05
6.355093e-05
6.23500232e-05
6.17175947e-05
6.35029332e-05
6.3583498e-05
6.21199816e-05
6.20026385e-05
6.34913727e-05
6.23351533e-05
6.16882279e-05
6.35086323e-05
6.35675994e-05
6.35535807e-05
6.23161603e-05
6.17256223e-05
6.15422861e-05
6.15490743e-05
6.35053996e-05
6.35666916e-05
6.3555438e-05
6.23132271e-05
6.15526075e-05
6.15613599e-05
6.34918901e-05
6.35364172e-05
6.23155039e-05
6.1441251e-05
6.18516597e-05
6.35010723e-05
6.23176592e-05
6.14139984e-05
6.34968569e-05
6.35214249e-05
6.2326844e-05
6.13425553e-05
6.13635813e-05
6.34584966e-05
6.35580191e-05
6.35320482e-05
6.35622913e-05
6.23101479e-05
6.12155765e-05
6.14389346e-05
6.35273376e-05
6.35711801e-05
6.35734606e-05
6.23234435e-05
6.15584496e-05
6.156551e-05
6.34828152e-05
6.3542529e-05
6.23281274e-05
6.13615898e-05
6.18211662e-05
6.34964941e-05
6.23213579e-05
6.13822513e-05
6.34876898e-05
6.35132539e-05
6.23340336e-05
6.14627151e-05
6.15734082e-05
6.34903783e-05
6.35568251e-05
6.35378976e-05
6.21395522e-05
6.15644662e-05
6.11227424e-05
6.11336539e-05
6.34104719e-05
6.35231379e-05
6.34634354e-05
6.35342004e-05
6.17739763e-05
6.13790429e-05
6.33989753e-05
6.35213102e-05
6.34368621e-05
6.35276528e-05
6.26118535e-05
6.18537977e-05
6.12994002e-05
6.13180439e-05
6.34284313e-05
6.35105201e-05
6.20422407e-05
6.06795197e-05
6.08290194e-05
6.34359795e-05
6.3499748e-05
6.34965858e-05
6.17920804e-05
6.11665357e-05
6.33840528e-05
6.34890063e-05
6.34549787e-05
6.34955894e-05
6.23536093e-05
6.15531263e-05
6.12687064e-05
6.12712503e-05
6.34102973e-05
6.34941085e-05
6.34944789e-05
6.21114653e-05
6.04367221e-05
6.07392271e-05
6.33955855e-05
6.34883153e-05
6.34480392e-05
6.35090653e-05
6.34932655e-05
6.19813458e-05
6.11961858e-05
6.08827705e-05
6.088705e-05
6.33559693e-05
6.34847019e-05
6.34297638e-05
6.3516594e-05
6.35009116e-05
6.22936006e-05
6.13307626e-05
6.1206739e-05
6.12132014e-05
6.3394272e-05
6.35053737e-05
6.34840548e-05
6.35257918e-05
6.23478027e-05
6.15292141e-05
6.1373718e-05
6.13738233e-05
6.34328477e-05
6.35379206e-05
6.35091465e-05
6.35551311e-05
6.23360053e-05
6.16674451e-05
6.15505901e-05
6.15481153e-05
6.34566928e-05
6.35550798e-05
6.193927e-05
6.16597213e-05
6.34533593e-05
6.35447086e-05
6.20746655e-05
6.16454416e-05
6.34661486e-05
6.35150876e-05
6.2351378e-05
6.1245356e-05
6.14281119e-05
6.34506175e-05
6.35327396e-05
6.3495592e-05
6.35451419e-05
6.35383952e-05
6.22930044e-05
6.1594396e-05
6.13710725e-05
6.13794145e-05
6.34004011e-05
6.35047273e-05
6.16721494e-05
6.15813813e-05
6.34025194e-05
6.35072851e-05
6.34926768e-05
6.22164535e-05
6.11630735e-05
6.10234466e-05
6.10286049e-05
6.33790093e-05
6.34702165e-05
6.34608412e-05
6.34755825e-05
6.21043425e-05
6.07399691e-05
6.09030359e-05
6.34216008e-05
6.35113392e-05
6.34727988e-05
6.35276122e-05
6.18875451e-05
6.16391908e-05
6.34441565e-05
6.2018068e-05
6.13722075e-05
6.34448966e-05
6.35201932e-05
6.35134384e-05
6.23093928e-05
6.1379498e-05
6.1318405e-05
6.13217313e-05
6.34309553e-05
6.35154761e-05
6.34995836e-05
6.35285997e-05
6.23575574e-05
6.16026452e-05
6.14117972e-05
6.14107491e-05
6.34583086e-05
6.35223294e-05
6.35135905e-05
6.20651509e-05
6.14355695e-05
6.34716007e-05
6.35140746e-05
6.35283396e-05
6.35181961e-05
6.23340149e-05
6.15096114e-05
6.17232906e-05
6.12625946e-05
6.1289941e-05
6.34233053e-05
6.35488081e-05
6.18602215e-05
6.15598022e-05
6.34480717e-05
6.3547463e-05
6.16552124e-05
6.16093065e-05
6.34684071e-05
6.35425395e-05
6.3529004e-05
6.19136331e-05
6.14062494e-05
6.35007225e-05
6.35247072e-05
6.3548737e-05
6.35313184e-05
6.23214311e-05
6.15087674e-05
6.17351377e-05
6.13099656e-05
6.13338591e-05
6.34644075e-05
6.35704679e-05
6.19508013e-05
6.18718987e-05
6.3497568e-05
6.3573304e-05
6.35352135e-05
6.23149295e-05
6.15975983e-05
6.18440625e-05
6.13313811e-05
6.13511224e-05
6.34874004e-05
6.35800915e-05
6.3521917e-05
6.35955732e-05
6.21555435e-05
6.20920855e-05
6.35398256e-05
6.23019166e-05
6.15575619e-05
6.35683287e-05
6.35560689e-05
6.23236773e-05
6.17504318e-05
6.15640665e-05
6.15697968e-05
6.35518683e-05
6.35617742e-05
6.35614341e-05
6.20840764e-05
6.17032534e-05
6.35637709e-05
6.2007926e-05
6.14419686e-05
6.35547374e-05
6.35652124e-05
6.35586789e-05
6.22034584e-05
6.14998475e-05
6.35837009e-05
6.3555072e-05
6.22768171e-05
6.15174188e-05
6.15401874e-05
6.35559098e-05
6.35806404e-05
6.21692832e-05
6.17683704e-05
6.35893467e-05
6.35588849e-05
6.23083278e-05
6.16007059e-05
6.1619368e-05
6.35411863e-05
6.35915807e-05
6.19919338e-05
6.17686353e-05
6.35524361e-05
6.35822671e-05
6.17612496e-05
6.17621472e-05
6.3579248e-05
6.35699486e-05
6.35669736e-05
6.23111943e-05
6.135619e-05
6.13796079e-05
6.35618708e-05
6.35380745e-05
6.2099707e-05
6.12219105e-05
6.12724071e-05
6.35150122e-05
6.35679834e-05
6.18177074e-05
6.15458438e-05
6.35325835e-05
6.35660736e-05
6.17599844e-05
6.1684726e-05
6.35503914e-05
6.35627998e-05
6.18018247e-05
6.18664693e-05
6.35815509e-05
6.23207432e-05
6.1396782e-05
6.36036845e-05
6.35527521e-05
6.23201613e-05
6.14566099e-05
6.17581646e-05
6.35624921e-05
6.35696832e-05
6.35658213e-05
6.23365298e-05
6.20755872e-05
6.36124135e-05
6.3564223e-05
6.23156675e-05
6.21308342e-05
6.18916044e-05
6.18859642e-05
6.36068143e-05
6.35652087e-05
6.21941826e-05
6.1529163e-05
6.15482557e-05
6.35896289e-05
6.3579573e-05
6.2101209e-05
6.13219107e-05
6.13525421e-05
6.35999761e-05
6.35695041e-05
6.19977577e-05
6.11280302e-05
6.12627307e-05
6.35690446e-05
6.35899075e-05
6.35676706e-05
6.36028126e-05
6.22969827e-05
6.1916311e-05
6.3623422e-05
6.36028533e-05
6.22348133e-05
6.20896418e-05
6.3642535e-05
6.35998377e-05
6.22917575e-05
6.20575703e-05
6.18398183e-05
6.18388914e-05
6.36249115e-05
6.36142813e-05
6.20802008e-05
6.19140759e-05
6.36368681e-05
6.35997939e-05
6.23166587e-05
6.19255896e-05
6.17282554e-05
6.17290528e-05
6.36003881e-05
6.35836206e-05
6.16680723e-05
6.17825264e-05
6.36028713e-05
6.35760938e-05
6.35573269e-05
6.23288497e-05
6.11446637e-05
6.17366013e-05
6.35708465e-05
6.19945573e-05
6.15850107e-05
6.36016935e-05
6.35435577e-05
6.35520775e-05
6.23371736e-05
6.12270395e-05
6.18278106e-05
6.35677677e-05
6.2044691e-05
6.16051729e-05
6.35939476e-05
6.35421447e-05
6.35463492e-05
6.23495762e-05
6.11843154e-05
6.17720729e-05
6.35495916e-05
6.19845993e-05
6.14753436e-05
6.35906355e-05
6.35160772e-05
6.35605728e-05
6.21303799e-05
6.15338647e-05
6.35715616e-05
6.35364203e-05
6.16750623e-05
6.17624633e-05
6.35770434e-05
6.35394545e-05
6.35426097e-05
6.21350135e-05
6.12979992e-05
6.12716532e-05
6.12614138e-05
6.35719269e-05
6.35390716e-05
6.14256927e-05
6.15637811e-05
6.3587226e-05
6.3547474e-05
6.35665708e-05
6.21752103e-05
6.15741116e-05
6.3609938e-05
6.35579718e-05
6.20609229e-05
6.18744901e-05
6.3612447e-05
6.35673778e-05
6.22390724e-05
6.18715313e-05
6.16859389e-05
6.16860343e-05
6.35982442e-05
6.35855132e-05
6.17611204e-05
6.16616755e-05
6.36083704e-05
6.35953581e-05
6.18178172e-05
6.17590718e-05
6.3617909e-05
6.35943793e-05
6.20373467e-05
6.19600349e-05
6.36308942e-05
6.3584765e-05
6.23083001e-05
6.19669632e-05
6.18191423e-05
6.18124711e-05
6.36233602e-05
6.35791979e-05
6.20031904e-05
6.17995599e-05
6.36396846e-05
6.35633637e-05
6.22867341e-05
6.1632749e-05
6.17166811e-05
6.35624434e-05
6.35881596e-05
6.18890354e-05
6.1714442e-05
6.35949505e-05
)
;

boundaryField
{
    closed
    {
        type            calculated;
        value           nonuniform List<scalar> 0();
    }
    open
    {
        type            calculated;
        value           nonuniform List<scalar> 0();
    }
    sides
    {
        type            empty;
    }
    procBoundary3to2
    {
        type            processor;
        value           uniform 6.35788676e-05;
    }
    procBoundary3to4
    {
        type            processor;
        value           uniform 6.35614624e-05;
    }
}


// ************************************************************************* //
