/*--------------------------------*- C++ -*----------------------------------*\
| =========                 |                                                 |
| \\      /  F ield         | OpenFOAM: The Open Source CFD Toolbox           |
|  \\    /   O peration     | Version:  2306                                  |
|   \\  /    A nd           | Website:  www.openfoam.com                      |
|    \\/     M anipulation  |                                                 |
\*---------------------------------------------------------------------------*/
FoamFile
{
    version     2.0;
    format      ascii;
    arch        "LSB;label=32;scalar=64";
    class       volScalarField;
    location    "0.0019";
    object      Z;
}
// * * * * * * * * * * * * * * * * * * * * * * * * * * * * * * * * * * * * * //

dimensions      [0 0 0 0 0 0 0];

internalField   nonuniform List<scalar> 
530
(
0.0156977107
0.0157024848
0.0157079343
0.0157126575
0.0157179911
0.015722666
0.0157278904
0.0157325194
0.0157376408
0.0157422263
0.0157472506
0.0157517947
0.0157567277
0.0157612326
0.01576608
0.0157705475
0.0157752449
0.0157794958
0.0157839979
0.0157882186
0.0157926551
0.015796842
0.0158012079
0.0158053596
0.0158096577
0.0158137749
0.0158180081
0.0158220913
0.0158262621
0.0158303119
0.0158344228
0.0158384397
0.0158424932
0.0158464776
0.0158504761
0.0158544285
0.0158583742
0.0158622951
0.0158661904
0.01587008
0.015873927
0.0158776307
0.0158812683
0.0158849351
0.0158885271
0.0158921612
0.0158957081
0.0158993087
0.0159028111
0.0159063774
0.0159098356
0.0159133669
0.0159167814
0.0159202769
0.0159236479
0.015927107
0.0159304347
0.0159338566
0.0159371414
0.0159405254
0.0159437673
0.0159471129
0.0159503121
0.0159536186
0.0159567752
0.0159600421
0.0159631562
0.0159663996
0.0159695105
0.0159727504
0.0159758172
0.0159790124
0.0159820354
0.0159851857
0.0159881648
0.0159912701
0.0159942054
0.0159972655
0.016000157
0.0160031718
0.0160060196
0.0160089888
0.0160116844
0.0160144759
0.0160171072
0.0160198494
0.0160224331
0.0160251251
0.0160276604
0.0160303015
0.0160327877
0.0160353769
0.0160378133
0.0160403499
0.0160427356
0.0160452187
0.016047553
0.0160499818
0.0160522638
0.0160546375
0.0160568666
0.0160591843
0.0160613595
0.0160636204
0.0160657411
0.0160679443
0.0160700096
0.0160721544
0.0160741635
0.016076249
0.0160782012
0.0160802265
0.016082121
0.0160840855
0.0160859214
0.0160878243
0.0160896008
0.0160914414
0.0160931578
0.0160949352
0.0160965908
0.0160983044
0.0160998983
0.0161015474
0.0161030789
0.0161046628
0.0161061311
0.0161076492
0.0161090536
0.0161105052
0.016111845
0.0161132294
0.0161145039
0.0161158206
0.0161170292
0.0161182774
0.0161194194
0.0161205986
0.0161216734
0.016122783
0.0161237901
0.0161248295
0.0161257682
0.0161267367
0.0161276067
0.0161285038
0.0161293044
0.0161301295
0.0161308605
0.0161316129
0.0161322738
0.0161329531
0.0161335434
0.0161341492
0.0161346684
0.0161352003
0.0161356479
0.0161361057
0.0161364809
0.0161368648
0.0161371668
0.016137477
0.0161377048
0.0161379414
0.0161380946
0.0161382569
0.0161383362
0.0161384219
0.0161384287
0.0161384362
0.016138371
0.0161382989
0.0161381656
0.0161380135
0.0161378086
0.0161375788
0.0161372998
0.0161369944
0.0161366396
0.0161362598
0.0161358287
0.016135375
0.0161348133
0.0161341879
0.0161335481
0.0161327934
0.0161321243
0.0161312428
0.0161305408
0.0161295366
0.0161287974
0.0161276747
0.0161268939
0.0161256568
0.0161248302
0.0161234823
0.0161226064
0.016121151
0.0161202225
0.0161186624
0.0161176785
0.0161160164
0.0161149745
0.0161132127
0.0161121107
0.0161102512
0.0161090871
0.0161071319
0.016105904
0.0161038548
0.0161025616
0.0161004201
0.0160990601
0.0160968278
0.0160953999
0.0160930783
0.0160915813
0.0160891718
0.0160876048
0.0160851087
0.0160834708
0.0160808893
0.01607918
0.0160765142
0.0160747328
0.0160719838
0.0160701299
0.0160672988
0.0160653721
0.0160624598
0.0160604601
0.0160574675
0.0160553946
0.0160523225
0.0160501764
0.0160470258
0.0160448064
0.0160415782
0.0160392854
0.0160359807
0.0160336142
0.0160302343
0.0160277935
0.0160243404
0.0160218244
0.0160183001
0.0160157079
0.0160121149
0.0160094456
0.0160057853
0.0160030403
0.01599931
0.0159964969
0.0159926853
0.0159899028
0.0159859732
0.0159830406
0.0159791096
0.0159760482
0.0159721006
0.0159689243
0.0159649502
0.0159616687
0.0159576617
0.0159542823
0.0159502379
0.015946766
0.0159426813
0.015939121
0.0159349943
0.0159313488
0.0159271788
0.0159234507
0.0159192367
0.0159154285
0.01591117
0.015907284
0.0159029806
0.0158990189
0.0158946705
0.0158906352
0.0158862416
0.0158821348
0.0158776961
0.0158735199
0.015869036
0.0158647924
0.0158602635
0.0158559546
0.0158513809
0.0158470085
0.0158423904
0.0158379563
0.0158332942
0.0158288004
0.0158240947
0.0158195429
0.0158147942
0.0158101861
0.0158053952
0.0158007325
0.0157958999
0.0157911844
0.0157863108
0.0157815452
0.015776633
0.0157718182
0.0157668669
0.0157620043
0.0157570146
0.0157521057
0.0157470786
0.0157421251
0.0157370616
0.0157320651
0.0157269662
0.0157219281
0.0157167948
0.0157117169
0.0157065502
0.0157014339
0.0156962351
0.0156910819
0.015685852
0.0156806635
0.0156754036
0.0156701814
0.0156648927
0.0156596383
0.015654322
0.0156490368
0.0156436941
0.0156383796
0.0156330118
0.0156276696
0.0156222778
0.0156169094
0.0156114949
0.0156061017
0.0156006658
0.0155952494
0.0155897933
0.0155843551
0.0155788802
0.0155734216
0.0155679292
0.0155624517
0.0155569431
0.0155514481
0.0155459259
0.015540419
0.0155348857
0.015529364
0.0155238179
0.0155182828
0.0155127253
0.0155071782
0.0155016107
0.015496053
0.0154904767
0.0154849099
0.0154793263
0.0154737517
0.015468162
0.0154625812
0.0154569868
0.015451401
0.0154458032
0.0154402139
0.0154346141
0.0154290227
0.0154234221
0.0154178299
0.01541223
0.0154066384
0.0154010403
0.0153954507
0.0153898558
0.0153842695
0.0153786792
0.0153730975
0.0153675129
0.0153619373
0.0153563597
0.0153507913
0.0153452221
0.0153396623
0.0153341027
0.0153285527
0.015323004
0.0153174651
0.0153119284
0.0153064019
0.0153008785
0.0152953657
0.0152898567
0.0152843587
0.0152788655
0.0152733835
0.0152679071
0.0152624424
0.015256984
0.0152515378
0.0152460985
0.0152406719
0.0152352559
0.0152298532
0.015224459
0.0152190781
0.0152137066
0.0152083488
0.015203001
0.0151976673
0.0151923444
0.0151870358
0.0151817387
0.0151764563
0.015171186
0.0151659309
0.0151606884
0.0151554615
0.0151502478
0.01514505
0.0151398661
0.0151346985
0.0151295452
0.0151244087
0.015119287
0.0151141825
0.0151090933
0.0151040216
0.0150989658
0.0150939278
0.0150889062
0.0150839028
0.0150789163
0.0150739482
0.0150689975
0.0150640657
0.0150591516
0.0150542568
0.0150493801
0.0150445229
0.0150396844
0.0150348656
0.0150300659
0.0150252863
0.0150205261
0.0150157864
0.0150110664
0.0150063671
0.0150016879
0.0149970248
0.0149922118
0.0149870813
0.0149816139
0.0149757908
0.0149695912
0.0149629952
0.0149559805
0.0149485268
0.0149406108
0.0149322152
0.0149233167
0.0149138925
0.0149039208
0.0148933833
0.0148822615
0.0148705408
0.014858208
0.0148452549
0.0148316768
0.0148174754
0.014802658
0.0147872409
0.0147712482
0.0147547158
0.0147376903
0.0147202325
0.0147024168
0.0146843338
0.01466609
0.0146478091
0.0146296297
0.0146117059
0.0145942031
0.0145772955
0.0145611604
0.0145459715
0.0145318916
0.0145190626
0.0145075987
0.0144975737
0.0144890194
0.014481914
0.0144761905
0.0144717301
0.0144683843
0.0144659699
0.0144643161
0.0144631684
0.0144625873
0.0144621399
0.0144619373
0.0144618075
0.0144617464
0.0144617258
0.0144617136
0.0144617092
0.0144617076
0.0144617071
0.014461707
0.0144617069
0.0144617069
0.0144617069
0.0144617069
0.0144617069
0.0144617069
0.0144617069
0.0144617069
0.0144617069
0.0144617069
0.0144617069
0.0144617069
0.0144617069
0.0144617069
0.0144617069
0.0144617069
0.0144617069
0.0144617069
)
;

boundaryField
{
    closed
    {
        type            zeroGradient;
    }
    open
    {
        type            zeroGradient;
    }
    sides
    {
        type            empty;
    }
    procBoundary5to4
    {
        type            processor;
        value           uniform 0.0156921388;
    }
}


// ************************************************************************* //
