/*--------------------------------*- C++ -*----------------------------------*\
| =========                 |                                                 |
| \\      /  F ield         | OpenFOAM: The Open Source CFD Toolbox           |
|  \\    /   O peration     | Version:  2306                                  |
|   \\  /    A nd           | Website:  www.openfoam.com                      |
|    \\/     M anipulation  |                                                 |
\*---------------------------------------------------------------------------*/
FoamFile
{
    version     2.0;
    format      ascii;
    arch        "LSB;label=32;scalar=64";
    class       volScalarField;
    location    "0.00056";
    object      prefDZ_T;
}
// * * * * * * * * * * * * * * * * * * * * * * * * * * * * * * * * * * * * * //

dimensions      [1 -1 -1 -1 0 0 0];

internalField   nonuniform List<scalar> 
530
(
-8.51399999e-11
-8.51078389e-11
-9.13001862e-11
-8.97916091e-11
-8.50869295e-11
-8.50586872e-11
-9.07641827e-11
-8.94623998e-11
-8.50283144e-11
-8.50081093e-11
-9.03692512e-11
-8.91631974e-11
-8.49724345e-11
-8.49584725e-11
-9.00475585e-11
-8.89202452e-11
-8.49239014e-11
-8.49144107e-11
-8.97664763e-11
-8.87242418e-11
-8.48842723e-11
-8.48778239e-11
-8.95089584e-11
-8.8557752e-11
-8.48545608e-11
-8.48507652e-11
-8.93015349e-11
-8.84241072e-11
-8.48344399e-11
-8.48338552e-11
-8.91338301e-11
-8.83027018e-11
-8.48267061e-11
-8.48280714e-11
-8.8983209e-11
-8.81957047e-11
-8.48299471e-11
-8.48337621e-11
-8.88721576e-11
-8.80938434e-11
-8.484367e-11
-8.48511602e-11
-8.87967195e-11
-8.79945654e-11
-8.48684826e-11
-8.48793445e-11
-8.87334741e-11
-8.79112866e-11
-8.49037476e-11
-8.49180317e-11
-8.87347136e-11
-8.78360337e-11
-8.49543174e-11
-8.49688043e-11
-8.86543135e-11
-8.7765337e-11
-8.5024855e-11
-8.50316382e-11
-8.8479838e-11
-8.78501386e-11
-8.51091759e-11
-8.51064925e-11
-8.81356681e-11
-8.80276577e-11
-8.52061063e-11
-8.51908623e-11
-8.77456171e-11
-8.81081484e-11
-8.53033168e-11
-8.52661331e-11
-8.74490369e-11
-8.81998577e-11
-8.54225159e-11
-8.5345317e-11
-8.72429479e-11
-8.82703436e-11
-8.55399503e-11
-8.54320504e-11
-8.70971192e-11
-8.82937001e-11
-8.56657389e-11
-8.55272828e-11
-8.69787684e-11
-8.82839607e-11
-8.57990299e-11
-8.56278609e-11
-8.68797521e-11
-8.82578563e-11
-8.5928152e-11
-8.57318877e-11
-8.68260925e-11
-8.82333943e-11
-8.60254842e-11
-8.58434547e-11
-8.68406185e-11
-8.8125081e-11
-8.6080591e-11
-8.59715543e-11
-8.69165699e-11
-8.78475884e-11
-8.6118408e-11
-8.61361486e-11
-8.70280118e-11
-8.7283463e-11
-8.620822e-11
-8.65800758e-11
-8.71525927e-11
-8.65814959e-11
-8.63025248e-11
-8.70485692e-11
-8.72305996e-11
-8.64066539e-11
-8.6400882e-11
-8.75183561e-11
-8.72733501e-11
-8.6482692e-11
-8.64960777e-11
-8.78242634e-11
-8.74001011e-11
-8.65653506e-11
-8.65918825e-11
-8.79546323e-11
-8.75099127e-11
-8.66570652e-11
-8.66860213e-11
-8.80350913e-11
-8.76104738e-11
-8.67511475e-11
-8.67792322e-11
-8.80747765e-11
-8.77008061e-11
-8.68437341e-11
-8.6870389e-11
-8.81261539e-11
-8.77581823e-11
-8.69324157e-11
-8.69577902e-11
-8.82316783e-11
-8.78340612e-11
-8.70116908e-11
-8.70426059e-11
-8.83722002e-11
-8.79266657e-11
-8.70813739e-11
-8.7123101e-11
-8.85556796e-11
-8.80183766e-11
-8.71499639e-11
-8.71976616e-11
-8.86726716e-11
-8.81144875e-11
-8.72185352e-11
-8.72677003e-11
-8.87522106e-11
-8.82061767e-11
-8.72943622e-11
-8.73338507e-11
-8.87360613e-11
-8.83129927e-11
-8.73827386e-11
-8.74011496e-11
-8.85179904e-11
-8.84601777e-11
-8.74740445e-11
-8.74662104e-11
-8.83582496e-11
-8.85195893e-11
-8.75485077e-11
-8.75323953e-11
-8.83369048e-11
-8.85123896e-11
-8.76101473e-11
-8.76048487e-11
-8.83418937e-11
-8.84513674e-11
-8.76623413e-11
-8.76880628e-11
-8.83692349e-11
-8.82516241e-11
-8.7705961e-11
-8.77841376e-11
-8.8437188e-11
-8.79143011e-11
-8.77479224e-11
-8.80853303e-11
-8.84756283e-11
-8.78273133e-11
-8.7793448e-11
-8.82571171e-11
-8.84827829e-11
-8.78587072e-11
-8.78366618e-11
-8.83250945e-11
-8.84843463e-11
-8.78933821e-11
-8.78772394e-11
-8.83606461e-11
-8.84828421e-11
-8.79271365e-11
-8.79151101e-11
-8.83785844e-11
-8.84787956e-11
-8.79596436e-11
-8.79498336e-11
-8.83854752e-11
-8.84733491e-11
-8.79901631e-11
-8.79819452e-11
-8.83871031e-11
-8.84661336e-11
-8.80185047e-11
-8.80115292e-11
-8.8385988e-11
-8.84579587e-11
-8.80446508e-11
-8.80386554e-11
-8.83835706e-11
-8.84494411e-11
-8.80686333e-11
-8.8063427e-11
-8.83805914e-11
-8.84409398e-11
-8.80905145e-11
-8.80859715e-11
-8.83773786e-11
-8.84326326e-11
-8.81103964e-11
-8.81064232e-11
-8.83740634e-11
-8.84245854e-11
-8.81284055e-11
-8.81249242e-11
-8.83706874e-11
-8.84167996e-11
-8.81446821e-11
-8.81416148e-11
-8.83672248e-11
-8.84092624e-11
-8.81593662e-11
-8.81566318e-11
-8.83636452e-11
-8.84019346e-11
-8.81725815e-11
-8.81701151e-11
-8.83599478e-11
-8.83947547e-11
-8.81844452e-11
-8.81821961e-11
-8.83561323e-11
-8.83876903e-11
-8.81950659e-11
-8.81929994e-11
-8.83522147e-11
-8.83807331e-11
-8.82045465e-11
-8.82026402e-11
-8.83482267e-11
-8.83738967e-11
-8.82129854e-11
-8.82112244e-11
-8.83442106e-11
-8.83672092e-11
-8.82204755e-11
-8.82188496e-11
-8.83402135e-11
-8.83607035e-11
-8.82271039e-11
-8.82256066e-11
-8.83362829e-11
-8.83544068e-11
-8.82329519e-11
-8.82315809e-11
-8.83324642e-11
-8.83483338e-11
-8.82380952e-11
-8.82368525e-11
-8.83287986e-11
-8.83424823e-11
-8.8242604e-11
-8.8241496e-11
-8.83253225e-11
-8.83368313e-11
-8.82465437e-11
-8.8245581e-11
-8.83220696e-11
-8.83313418e-11
-8.82499745e-11
-8.82491713e-11
-8.83190724e-11
-8.83259667e-11
-8.82529509e-11
-8.8252324e-11
-8.83164159e-11
-8.83206486e-11
-8.82555028e-11
-8.8255096e-11
-8.83143155e-11
-8.83152375e-11
-8.82576765e-11
-8.82574789e-11
-8.8313261e-11
-8.83100016e-11
-8.82594293e-11
-8.82594048e-11
-8.83125983e-11
-8.830546e-11
-8.82609968e-11
-8.82611747e-11
-8.83102559e-11
-8.83021166e-11
-8.82624607e-11
-8.82627093e-11
-8.83072546e-11
-8.82993568e-11
-8.82637997e-11
-8.82640369e-11
-8.83040671e-11
-8.82969781e-11
-8.82649831e-11
-8.8265179e-11
-8.83010197e-11
-8.82947318e-11
-8.8266011e-11
-8.8266168e-11
-8.82982979e-11
-8.82925472e-11
-8.82668865e-11
-8.82670261e-11
-8.82959389e-11
-8.82904769e-11
-8.82676221e-11
-8.82677663e-11
-8.82938802e-11
-8.82885893e-11
-8.82682396e-11
-8.82683979e-11
-8.82920393e-11
-8.82869206e-11
-8.82687614e-11
-8.8268932e-11
-8.8290351e-11
-8.82854697e-11
-8.82692058e-11
-8.82693815e-11
-8.82887742e-11
-8.82842078e-11
-8.82695871e-11
-8.82697598e-11
-8.82872869e-11
-8.82830928e-11
-8.82699164e-11
-8.82700793e-11
-8.82858779e-11
-8.82820831e-11
-8.82702024e-11
-8.82703513e-11
-8.82845418e-11
-8.82811462e-11
-8.8270452e-11
-8.82705849e-11
-8.82832765e-11
-8.82802601e-11
-8.82706708e-11
-8.82707874e-11
-8.82820817e-11
-8.82794131e-11
-8.8270863e-11
-8.82709642e-11
-8.82809572e-11
-8.8278603e-11
-8.82710322e-11
-8.82711195e-11
-8.8279904e-11
-8.82778324e-11
-8.8271181e-11
-8.8271256e-11
-8.82789222e-11
-8.82771059e-11
-8.82713119e-11
-8.82713762e-11
-8.82780086e-11
-8.82764276e-11
-8.82714271e-11
-8.82714823e-11
-8.82771578e-11
-8.82757971e-11
-8.8271529e-11
-8.82715767e-11
-8.82763643e-11
-8.82752084e-11
-8.82716198e-11
-8.82716614e-11
-8.82756238e-11
-8.82746532e-11
-8.82717015e-11
-8.82717383e-11
-8.82749332e-11
-8.82741235e-11
-8.82717762e-11
-8.82718089e-11
-8.82742886e-11
-8.82736146e-11
-8.8271846e-11
-8.8271874e-11
-8.82736714e-11
-8.82731315e-11
-8.82719125e-11
-8.82719333e-11
-8.82730718e-11
-8.82726851e-11
-8.82719715e-11
-8.82719833e-11
-8.8272544e-11
-8.82723009e-11
-8.82720137e-11
-8.8272017e-11
-8.82721598e-11
-8.82720397e-11
-8.82720316e-11
-8.82720227e-11
-8.82720306e-11
-8.82720199e-11
-8.8272022e-11
-8.82720124e-11
-8.82720142e-11
-8.82720063e-11
-8.82720072e-11
-8.8272e-11
-8.82720003e-11
-8.82719942e-11
-8.82719941e-11
-8.82719888e-11
-8.82719883e-11
-8.82719838e-11
-8.82719831e-11
-8.82719792e-11
-8.82719784e-11
-8.82719749e-11
-8.82719741e-11
-8.82719711e-11
-8.82719701e-11
-8.82719675e-11
-8.82719666e-11
-8.82719643e-11
-8.82719634e-11
-8.82719614e-11
-8.82719605e-11
-8.82719587e-11
-8.82719579e-11
-8.82719563e-11
-8.82719555e-11
-8.82719542e-11
-8.82719534e-11
-8.82719522e-11
-8.82719514e-11
-8.82719502e-11
-8.82719494e-11
-8.82719482e-11
-8.82719474e-11
-8.82719463e-11
-8.82719455e-11
-8.82719445e-11
-8.82719437e-11
-8.82719428e-11
-8.82719421e-11
-8.82719413e-11
-8.82719407e-11
-8.82719401e-11
-8.82719395e-11
-8.82719391e-11
-8.82719387e-11
-8.82719383e-11
-8.8271938e-11
-8.82719378e-11
-8.82719376e-11
-8.82719375e-11
-8.82719373e-11
-8.82719373e-11
-8.82719372e-11
-8.82719372e-11
-8.82719371e-11
-8.82719371e-11
-8.82719371e-11
-8.82719371e-11
-8.82719371e-11
-8.82719371e-11
-8.82719371e-11
-8.82719371e-11
-8.82719371e-11
-8.82719371e-11
-8.82719371e-11
-8.82719371e-11
-8.82719371e-11
-8.82719371e-11
-8.82719371e-11
-8.82719371e-11
-8.82719371e-11
-8.82719371e-11
-8.82719371e-11
-8.82719371e-11
-8.82719371e-11
-8.82719371e-11
-8.82719371e-11
-8.82719371e-11
-8.82719371e-11
-8.82719371e-11
-8.82719371e-11
-8.82719371e-11
-8.82719371e-11
-8.82719371e-11
-8.82719371e-11
-8.82719371e-11
-8.82719371e-11
-8.82719371e-11
-8.82719371e-11
-8.82719371e-11
-8.82719371e-11
-8.82719371e-11
-8.82719371e-11
-8.82719371e-11
-8.82719371e-11
-8.82719371e-11
-8.82719371e-11
-8.82719371e-11
-8.82719371e-11
-8.82719371e-11
-8.82719371e-11
-8.82719371e-11
-8.82719371e-11
-8.82719371e-11
)
;

boundaryField
{
    closed
    {
        type            calculated;
        value           nonuniform List<scalar> 0();
    }
    open
    {
        type            calculated;
        value           uniform -8.82719371e-11;
    }
    sides
    {
        type            empty;
    }
    procBoundary5to4
    {
        type            processor;
        value           uniform -9.01291126e-11;
    }
}


// ************************************************************************* //
