/*--------------------------------*- C++ -*----------------------------------*\
| =========                 |                                                 |
| \\      /  F ield         | OpenFOAM: The Open Source CFD Toolbox           |
|  \\    /   O peration     | Version:  2306                                  |
|   \\  /    A nd           | Website:  www.openfoam.com                      |
|    \\/     M anipulation  |                                                 |
\*---------------------------------------------------------------------------*/
FoamFile
{
    version     2.0;
    format      ascii;
    arch        "LSB;label=32;scalar=64";
    class       volScalarField;
    location    "0.00056";
    object      rho;
}
// * * * * * * * * * * * * * * * * * * * * * * * * * * * * * * * * * * * * * //

dimensions      [1 -3 0 0 0 0 0];

internalField   nonuniform List<scalar> 
530
(
0.225015082
0.225117172
0.225327225
0.225440529
0.224435779
0.22453716
0.224795713
0.224884449
0.223953014
0.224005074
0.224313946
0.2243443
0.223490489
0.223509738
0.223827706
0.223828878
0.223020308
0.223016996
0.223325086
0.223313018
0.222533554
0.222515778
0.222800045
0.222776529
0.222022553
0.221990767
0.222250118
0.222215238
0.221487856
0.221440205
0.221672799
0.22162387
0.220917405
0.220860397
0.221065142
0.221001737
0.220315007
0.220242572
0.220427417
0.220348759
0.219684061
0.219583906
0.219759628
0.219657937
0.21901865
0.218888461
0.219056288
0.218927086
0.218316563
0.218160006
0.218322458
0.218150719
0.217545003
0.217371798
0.217503332
0.217302931
0.216683762
0.216532693
0.216654881
0.216434029
0.215762609
0.215652097
0.21578234
0.215551669
0.214814902
0.214760033
0.214903435
0.21464718
0.213911834
0.213962306
0.214030511
0.213821909
0.213094475
0.213178473
0.213201877
0.212998907
0.212258325
0.212376773
0.212354763
0.212156579
0.21143159
0.211553562
0.211493761
0.211304386
0.210615928
0.21073017
0.21063403
0.210471663
0.209805379
0.209918777
0.209788265
0.209670215
0.208987986
0.209098791
0.208979177
0.208880828
0.208175112
0.208230477
0.208198455
0.208075703
0.207382936
0.207193325
0.207449728
0.207209656
0.206732567
0.206554519
0.206746002
0.206175705
0.206095462
0.206093976
0.206067066
0.205461105
0.205463814
0.205521588
0.205412995
0.204946552
0.204869795
0.204937345
0.204800972
0.204426657
0.204291048
0.204350416
0.204206965
0.203881154
0.203733586
0.203781862
0.203633255
0.203341533
0.203194436
0.203232733
0.203084442
0.202825475
0.202680135
0.202719826
0.202558351
0.202342754
0.20220085
0.20225846
0.202080696
0.20191622
0.20175035
0.201832024
0.20163769
0.201545736
0.201334206
0.201438991
0.201221146
0.201188278
0.200950517
0.201054268
0.200833872
0.200836621
0.200591556
0.200689507
0.200468778
0.200465066
0.200259772
0.200329913
0.200135426
0.200038802
0.199932243
0.1999482
0.199831165
0.199596073
0.199620265
0.199580919
0.19952613
0.199241115
0.199306081
0.199260022
0.199227533
0.198946763
0.198971434
0.198970039
0.198919592
0.198699897
0.19858834
0.198712329
0.198563459
0.198497273
0.198188098
0.198500835
0.198142775
0.198313369
0.198124879
0.198302751
0.197978034
0.198122656
0.198020229
0.198111993
0.197852419
0.197946416
0.197879811
0.197934604
0.197713828
0.197782418
0.197737768
0.197771174
0.19757987
0.19763058
0.197599825
0.197620741
0.197451896
0.19749326
0.197468652
0.197482873
0.197332461
0.197367466
0.197346687
0.197356823
0.197222503
0.197252719
0.197234664
0.197242328
0.197122154
0.197148673
0.197132721
0.197138873
0.197031222
0.197054771
0.197040594
0.197045765
0.196949284
0.196970315
0.196957753
0.196962212
0.196875728
0.19689457
0.196883504
0.196887414
0.196809868
0.196826795
0.196817082
0.196820608
0.196751
0.196766291
0.196757762
0.196761054
0.196698465
0.196712405
0.196704871
0.196708071
0.196651696
0.196664501
0.196657822
0.196661005
0.196610171
0.196622002
0.196616077
0.196619265
0.196573413
0.196584373
0.196579138
0.196582316
0.196540974
0.196551134
0.196546543
0.196549679
0.196512436
0.196521845
0.196517863
0.196520918
0.196487411
0.196496108
0.196492705
0.196495637
0.196465543
0.196473553
0.196470712
0.196473473
0.196446508
0.196453844
0.196451559
0.196454089
0.196430012
0.196436671
0.196434951
0.196437179
0.196415788
0.196421749
0.196420624
0.19642246
0.1964036
0.19640882
0.196408339
0.19640967
0.196393234
0.196397645
0.196397885
0.19639857
0.196384511
0.196388004
0.196389093
0.196388938
0.196377341
0.196379673
0.196381878
0.196380519
0.19637156
0.196372659
0.196376351
0.196373239
0.196367537
0.19636737
0.196372005
0.196367359
0.196364137
0.196362728
0.196367732
0.196362908
0.196360792
0.196359068
0.19636389
0.196359409
0.196357755
0.196356185
0.196360607
0.196356704
0.196355263
0.196353974
0.19635796
0.196354604
0.196353365
0.19635231
0.196355975
0.196353009
0.196352055
0.19635113
0.196354612
0.196351886
0.196351278
0.196350399
0.196353783
0.196351215
0.196350949
0.196350086
0.196353391
0.196350966
0.196350982
0.196350147
0.196353348
0.196351085
0.196351303
0.196350526
0.196353583
0.196351513
0.196351854
0.196351163
0.19635404
0.196352184
0.196352587
0.196352001
0.196354672
0.19635304
0.196353462
0.196352987
0.196355442
0.196354028
0.196354447
0.196354079
0.196356315
0.196355106
0.196355511
0.19635524
0.196357266
0.196356241
0.19635663
0.196356442
0.196358268
0.196357407
0.196357782
0.196357662
0.196359301
0.196358585
0.196358946
0.196358882
0.196360346
0.196359757
0.196360104
0.196360085
0.196361385
0.196360908
0.196361237
0.196361254
0.196362396
0.196362019
0.196362325
0.19636237
0.196363362
0.196363072
0.196363351
0.196363416
0.196364265
0.196364047
0.196364299
0.196364373
0.196365089
0.196364929
0.196365152
0.196365226
0.19636582
0.196365701
0.196365892
0.196365966
0.196366438
0.196366358
0.196366508
0.196366586
0.196366928
0.196366896
0.196367011
0.196367097
0.196367314
0.196367324
0.196367434
0.196367528
0.196367628
0.196367688
0.19636782
0.196367975
0.196368027
0.196368177
0.196368233
0.196368348
0.196368389
0.196368471
0.196368495
0.196368546
0.19636855
0.19636857
0.196368553
0.196368543
0.196368502
0.196368464
0.196368399
0.196368333
0.196368244
0.19636815
0.196368036
0.196367916
0.196367778
0.196367632
0.196367469
0.196367297
0.19636711
0.196366913
0.196366703
0.196366482
0.196366249
0.196366005
0.19636575
0.196365484
0.196365203
0.196364896
0.196364548
0.196364154
0.196363708
0.196363206
0.196362643
0.196362012
0.196361303
0.19636051
0.19635962
0.196358622
0.196357502
0.196356246
0.196354838
0.196353261
0.196351496
0.196349522
0.19634732
0.196344868
0.196342146
0.196339135
0.196335817
0.196332181
0.196328222
0.196323943
0.196319362
0.196314514
0.196309456
0.19630427
0.196299071
0.196294006
0.196289257
0.196285037
0.19628158
0.196279121
0.196277873
0.196277981
0.196279484
0.196282257
0.196285975
0.196290094
0.196293881
0.196296518
0.196297283
0.196295814
0.196292423
0.196288381
0.196286077
0.196288931
0.196301013
0.196326349
0.196367943
0.196426578
0.196499624
0.196580511
0.196659808
0.196727596
0.196775392
0.19679691
0.196789332
0.196756424
0.196710307
0.196666435
0.196633281
0.196608167
0.196585729
0.196565872
0.196547346
0.196522205
0.196482752
0.196440213
0.196418586
0.19642424
0.196440344
0.196471404
0.196492205
0.196497847
)
;

boundaryField
{
    closed
    {
        type            calculated;
        value           nonuniform List<scalar> 0();
    }
    open
    {
        type            calculated;
        value           uniform 0.196499178;
    }
    sides
    {
        type            empty;
    }
    procBoundary5to4
    {
        type            processor;
        value           uniform 0.226032763;
    }
}


// ************************************************************************* //
