/*--------------------------------*- C++ -*----------------------------------*\
| =========                 |                                                 |
| \\      /  F ield         | OpenFOAM: The Open Source CFD Toolbox           |
|  \\    /   O peration     | Version:  2306                                  |
|   \\  /    A nd           | Website:  www.openfoam.com                      |
|    \\/     M anipulation  |                                                 |
\*---------------------------------------------------------------------------*/
FoamFile
{
    version     2.0;
    format      ascii;
    arch        "LSB;label=32;scalar=64";
    class       volScalarField;
    location    "0.00062";
    object      prefDh_T;
}
// * * * * * * * * * * * * * * * * * * * * * * * * * * * * * * * * * * * * * //

dimensions      [1 1 -3 -1 0 0 0];

internalField   nonuniform List<scalar> 
531
(
-0.000733406572
-0.000663391358
-0.000565038348
-0.000504738063
-0.000585381474
-0.000737087751
-0.000609042685
-0.00059133318
-0.00059748163
-0.000740318811
-0.000661217473
-0.000576689195
-0.000521520623
-0.00058928326
-0.000737880776
-0.000616939205
-0.00059754879
-0.000602318571
-0.000742797338
-0.000668724803
-0.000595623517
-0.00058017531
-0.000535800237
-0.000519799254
-0.00058530993
-0.000734882507
-0.000622403888
-0.000603462807
-0.000593069256
-0.000738455737
-0.00066376232
-0.000572315234
-0.00050143436
-0.000581932411
-0.000733677897
-0.000621977009
-0.000573086233
-0.000584628499
-0.00073691116
-0.000620021374
-0.00057027518
-0.000585509537
-0.000734942604
-0.000658184454
-0.000560520977
-0.000491679324
-0.000582934994
-0.00073237267
-0.000619782291
-0.000568934269
-0.000586246638
-0.000734210123
-0.000657075042
-0.000560108262
-0.000491948336
-0.000585350508
-0.000732752853
-0.000612479558
-0.000563528611
-0.000587342139
-0.000734944778
-0.000609216039
-0.000558552323
-0.000586120794
-0.000730386263
-0.000653304438
-0.000516232149
-0.000491434986
-0.000671253767
-0.000724325034
-0.000586718677
-0.000594073148
-0.000728232938
-0.000654413202
-0.000570484146
-0.000590906372
-0.000735298206
-0.000738273916
-0.000590681544
-0.000472500887
-0.000589399002
-0.000727552008
-0.000644799587
-0.000558354637
-0.00058464027
-0.000732673092
-0.000639120516
-0.000570889228
-0.000590559536
-0.000735853885
-0.000738760599
-0.000590128878
-0.000479309293
-0.000588684923
-0.000727033228
-0.000647526457
-0.000573404369
-0.00059016689
-0.000736117583
-0.000740592293
-0.000589000286
-0.000487650519
-0.000588020084
-0.000728203416
-0.00064802197
-0.000579306867
-0.000590194407
-0.000736963335
-0.000741046385
-0.000590234339
-0.000497646878
-0.000594342541
-0.000730987976
-0.000742548265
-0.000590476531
-0.000497417752
-0.000595088281
-0.000731535416
-0.000742617889
-0.00059060797
-0.000497168569
-0.000595192873
-0.000732455541
-0.000743650208
-0.000589529765
-0.000492592088
-0.000590136848
-0.000730461513
-0.000656393951
-0.000580571752
-0.000590002296
-0.000740003537
-0.000743204707
-0.000588756398
-0.000493688187
-0.00058874469
-0.000731583511
-0.000653658432
-0.00058124129
-0.000588805538
-0.000739873016
-0.000745070295
-0.000589038532
-0.000512837152
-0.00059313103
-0.000731941043
-0.000746229717
-0.000595575525
-0.000541015261
-0.000508695694
-0.000599833432
-0.000735731549
-0.00074531853
-0.000589090356
-0.000505549767
-0.000589312517
-0.000731482925
-0.000653743793
-0.000585600784
-0.000589793297
-0.000740951278
-0.00074357514
-0.000588457567
-0.000491307299
-0.000587921453
-0.000731371539
-0.000645445124
-0.000569997124
-0.00058839258
-0.000740562872
-0.000743046528
-0.00058934366
-0.000486635138
-0.000587682751
-0.000730641407
-0.000640853945
-0.000572565654
-0.000588543994
-0.000739130505
-0.000742857182
-0.000590486502
-0.000496578187
-0.000594114224
-0.000731285199
-0.000743068372
-0.000591292608
-0.000491762634
-0.000596003134
-0.000730926257
-0.000743182942
-0.000589782248
-0.000481657292
-0.000589478449
-0.00072876828
-0.000641086546
-0.000560111179
-0.000584940437
-0.00073581145
-0.00062502267
-0.000557419379
-0.000584038514
-0.000735760962
-0.000616693658
-0.000549107163
-0.000588170609
-0.000736555044
-0.000739850563
-0.000586388016
-0.000474602373
-0.000583683603
-0.000728539047
-0.000616654694
-0.000555844817
-0.00058776956
-0.000735167701
-0.000739852714
-0.000589476366
-0.000480161153
-0.000582804465
-0.000728361062
-0.000611361386
-0.000555679768
-0.000587398188
-0.000733216985
-0.000744726328
-0.000586632085
-0.000486488984
-0.000583720209
-0.000728419183
-0.000610166585
-0.000562477152
-0.000587111358
-0.000731412275
-0.000749810267
-0.000586910505
-0.000511154206
-0.000591983843
-0.000724170848
-0.000745581665
-0.00059231654
-0.000517904681
-0.000506909432
-0.000601220705
-0.000721090541
-0.000745678388
-0.000587729339
-0.000495110485
-0.000592886343
-0.000728524739
-0.000598855676
-0.00055020467
-0.000588242594
-0.00073020468
-0.000601463412
-0.000544777128
-0.000584704772
-0.000728785041
-0.000599771128
-0.000546317941
-0.00058788271
-0.000728592774
-0.000595437516
-0.000554452104
-0.000598695993
-0.000727940314
-0.00063526259
-0.000544630617
-0.000505326452
-0.000626453513
-0.000732513853
-0.000623839482
-0.000544820577
-0.000502804842
-0.000615644975
-0.000735715301
-0.000593743096
-0.000567570941
-0.000613042384
-0.000731154588
-0.000631054886
-0.000561217776
-0.000510711507
-0.00060239742
-0.000732041554
-0.000595861545
-0.000576348188
-0.000602226302
-0.000728633691
-0.000643300342
-0.000574488876
-0.000519088729
-0.000596045255
-0.000727030133
-0.000653469795
-0.00057993412
-0.000517809862
-0.000592311512
-0.000725629532
-0.000648358832
-0.000568597988
-0.000499508302
-0.000587528951
-0.000728312246
-0.000600498827
-0.000560280778
-0.000587666384
-0.000729894605
-0.000600275036
-0.000576662227
-0.000592600754
-0.000729042636
-0.000637376653
-0.000565483445
-0.000515552393
-0.000597046067
-0.000730932031
-0.000640726255
-0.000566434233
-0.000511358139
-0.000597755156
-0.000737687815
-0.000598538207
-0.000579417051
-0.000598254492
-0.0007348431
-0.000635857689
-0.000562823166
-0.000523938542
-0.000609783321
-0.000737038472
-0.000630831852
-0.00055980327
-0.000522858622
-0.000616333019
-0.000742232491
-0.000595978546
-0.000571299372
-0.000601634403
-0.000739041238
-0.000628845655
-0.000551348095
-0.000520721668
-0.000619669237
-0.000737473741
-0.000622503119
-0.000538489908
-0.000504435464
-0.000617715412
-0.000741020723
-0.000588792688
-0.000546829729
-0.000603928437
-0.000737816297
-0.000615789829
-0.000525579324
-0.000527572327
-0.000680497246
-0.000737830109
-0.000594759159
-0.000557702636
-0.000629177328
-0.000738658982
-0.000629888036
-0.000540029953
-0.000522869457
-0.000630528723
-0.000737381811
-0.000610897431
-0.0005265414
-0.000546498974
-0.000735425241
-0.000733878363
-0.000596434894
-0.000565166166
-0.000648963723
-0.000740346209
-0.000647935811
-0.000557659441
-0.000532495971
-0.000616579158
-0.000742331208
-0.000631806302
-0.000575080844
-0.00050987203
-0.000519541398
-0.000605950114
-0.000742647765
-0.00074232365
-0.00062947142
-0.000545038088
-0.000523484844
-0.000606578552
-0.000738644908
-0.000644532355
-0.000539684387
-0.000528332709
-0.000609104608
-0.000738241387
-0.000644049372
-0.000531111004
-0.000519767857
-0.000619436371
-0.000736641721
-0.000588856274
-0.000578068869
-0.000606195565
-0.000741685993
-0.000639132247
-0.000522749677
-0.000517436438
-0.000624687827
-0.000736575999
-0.000587828318
-0.00057783548
-0.000614576186
-0.000741457485
-0.000629678965
-0.000520257082
-0.000521245723
-0.000639479907
-0.000736524637
-0.000590109472
-0.000578166087
-0.000628980189
-0.000740306056
-0.000613712847
-0.000521754111
-0.000529998945
-0.000662501373
-0.000737194054
-0.000597785475
-0.000574353914
-0.000649411009
-0.000739565669
-0.000601417703
-0.000522493373
-0.000537300515
-0.000683756244
-0.000740574189
-0.000595780501
-0.00057285105
-0.0006019168
-0.000748629186
-0.000743221339
-0.000593547484
-0.000541919917
-0.000506406612
-0.000496402666
-0.000651626247
-0.00073149277
-0.000610995627
-0.000582912028
-0.000740397822
-0.000740222747
-0.000595905026
-0.000538668754
-0.000591996606
-0.000744951333
-0.000743670797
-0.00058869881
-0.000522327458
-0.000643466309
-0.000735881747
-0.000602411294
-0.000549298848
-0.000734013602
-0.000745721123
-0.000579529888
-0.000558820755
-0.000731447817
-0.000739430673
-0.000597075622
-0.000494714793
-0.000497929919
-0.00071898073
-0.000741274934
-0.000592928163
-0.000546935311
-0.000726680012
-0.000744998298
-0.000591603148
-0.000560770377
-0.000728991086
-0.000738698947
-0.000598412885
-0.000497046663
-0.00049799835
-0.000724994628
-0.000741383622
-0.000599699253
-0.000528922382
-0.000619904081
-0.000735411217
-0.000599604146
-0.000570725641
-0.000706094662
-0.000738626874
-0.000603652253
-0.000513657698
-0.000514085618
-0.000707424176
-0.000737210002
-0.000609227355
-0.000520630745
-0.000521048726
-0.000692882618
-0.00073773846
-0.000609024058
-0.000520111185
-0.000519796486
-0.000685770444
-0.000738261892
-0.000611151499
-0.000523844627
-0.000521664686
-0.000679587944
-0.000738929517
-0.000613867885
-0.000528649193
-0.000524447303
-0.000673560574
-0.000739705001
-0.000615771394
-0.000531351511
-0.000525038755
-0.00066844181
-0.000740523538
-0.000616906709
-0.000532439605
-0.000524044815
-0.000664019289
)
;

boundaryField
{
    closed
    {
        type            calculated;
        value           nonuniform List<scalar> 0();
    }
    open
    {
        type            calculated;
        value           nonuniform List<scalar> 0();
    }
    sides
    {
        type            empty;
    }
    procBoundary1to0
    {
        type            processor;
        value           uniform -0.000588347262;
    }
    procBoundary1to2
    {
        type            processor;
        value           uniform -0.000741343375;
    }
}


// ************************************************************************* //
