/*--------------------------------*- C++ -*----------------------------------*\
| =========                 |                                                 |
| \\      /  F ield         | OpenFOAM: The Open Source CFD Toolbox           |
|  \\    /   O peration     | Version:  2306                                  |
|   \\  /    A nd           | Website:  www.openfoam.com                      |
|    \\/     M anipulation  |                                                 |
\*---------------------------------------------------------------------------*/
FoamFile
{
    version     2.0;
    format      ascii;
    arch        "LSB;label=32;scalar=64";
    class       volScalarField;
    location    "0.00062";
    object      sourcePV;
}
// * * * * * * * * * * * * * * * * * * * * * * * * * * * * * * * * * * * * * //

dimensions      [1 -3 -1 0 0 0 0];

internalField   nonuniform List<scalar> 
531
(
0.00459307735
0.0255205922
0.140462515
0.162251633
0.0827946247
0.00473359992
0.0631325173
0.131808869
0.0701241798
0.00508403907
0.0267438269
0.13619958
0.156752581
0.0795480792
0.00499142331
0.0562976203
0.123385854
0.06677675
0.00547524133
0.0225780069
0.121695795
0.137344992
0.151134004
0.157218281
0.0879029725
0.00480220422
0.0516629606
0.12828043
0.0784780767
0.00502739063
0.0251881214
0.137660458
0.163753611
0.0955484383
0.00447994782
0.0517669737
0.138973627
0.091969611
0.00470446417
0.0531809642
0.140253679
0.0929357417
0.00460169793
0.0284842982
0.142395174
0.166969298
0.0963119135
0.00444651894
0.0534172135
0.141055693
0.0933626052
0.00460903746
0.0290030075
0.142828507
0.166968734
0.0912738919
0.00447783228
0.0594369913
0.143034549
0.0893468168
0.00458416534
0.0620629131
0.144928775
0.0923260872
0.00441941581
0.0312845942
0.159225609
0.16757797
0.0231550899
0.00304778702
0.135008307
0.133033979
0.00377672005
0.0311494262
0.140976482
0.107098404
0.00459467734
0.00460976658
0.125638049
0.173455166
0.123513042
0.00366036463
0.0369487363
0.144767186
0.106863929
0.00437237028
0.0401576373
0.14038524
0.10823633
0.00455754211
0.00464893275
0.124508004
0.171337837
0.121708023
0.00377009404
0.0352236483
0.139816547
0.107927305
0.00461795538
0.00482933965
0.120829433
0.168675678
0.119798693
0.00390520814
0.0348845542
0.137771034
0.105965264
0.00474972595
0.00502442901
0.117825392
0.165607715
0.122317149
0.00405063035
0.00506395801
0.113563329
0.165623475
0.12305708
0.0040630774
0.00509441354
0.113198417
0.165702522
0.123852045
0.00407616378
0.00506196266
0.114595976
0.167041081
0.121194728
0.00404322894
0.0302791775
0.137378709
0.106743424
0.00490042917
0.00509081424
0.118827541
0.166682808
0.120238086
0.00411868864
0.0318256432
0.137031561
0.10590112
0.00496240169
0.00531338108
0.112664055
0.160533966
0.120889332
0.00438477922
0.00520049216
0.0994360643
0.150161551
0.161380768
0.126256703
0.00423865423
0.00523588345
0.111616886
0.16280956
0.116710096
0.00428189071
0.0315939734
0.135451084
0.103015075
0.00506524868
0.00511212693
0.120354074
0.167447069
0.119053064
0.00413805581
0.0364867901
0.140696223
0.104875306
0.00496548623
0.00490058386
0.124039221
0.168952041
0.118262872
0.00414331006
0.0391496757
0.139821775
0.102875982
0.00499318175
0.00502511864
0.121210404
0.16591217
0.120046931
0.00427238091
0.00503714165
0.118563444
0.167399659
0.121860737
0.00419920166
0.0049558639
0.119853573
0.170500262
0.118684124
0.00404207782
0.0390246205
0.143896386
0.0995310914
0.00472209642
0.0494602365
0.144417346
0.0966595554
0.00471833829
0.0556760996
0.147402684
0.105830523
0.00474555351
0.00444664105
0.131329607
0.172700204
0.108888574
0.00421555462
0.0557800934
0.145346467
0.099423717
0.00485450351
0.00450026633
0.129594023
0.170930488
0.102319093
0.00431404304
0.0603278053
0.14533573
0.101357648
0.0047780585
0.00488540949
0.123995221
0.168797748
0.0932674191
0.00446974361
0.0616250536
0.142896313
0.105979943
0.0047012511
0.00566740511
0.110742287
0.160508973
0.114409463
0.00437758276
0.00499366202
0.105832611
0.158238407
0.161799877
0.121583997
0.00386593125
0.00510528705
0.119846086
0.165834206
0.0754876768
0.00450358646
0.0756044918
0.146872376
0.0823067404
0.00443860519
0.0709709821
0.148370993
0.0864445893
0.00422615949
0.073064418
0.147796342
0.0805409357
0.00426179345
0.0808567817
0.145409725
0.0680444124
0.00438219074
0.042182138
0.148550957
0.162223983
0.0483614628
0.00482307402
0.0508701014
0.148729978
0.162811941
0.0557933474
0.00482046899
0.08587807
0.140588556
0.0572576025
0.00462283919
0.0452217062
0.142937923
0.160408382
0.0664801145
0.00449606919
0.0796572087
0.137581796
0.0661858271
0.00443574907
0.036634916
0.137671777
0.157908108
0.0724966786
0.00432246388
0.0302625355
0.135404659
0.158400755
0.076511192
0.00413624952
0.0335692926
0.139863979
0.164261474
0.082368744
0.00398536739
0.0714591511
0.143231948
0.0816367343
0.00402758482
0.0713129615
0.13791611
0.0767260576
0.00423866206
0.0408332484
0.141233527
0.159245285
0.0723420488
0.00451338892
0.0385843863
0.140827087
0.160459722
0.0712959302
0.00459461937
0.073181428
0.136749342
0.0711140606
0.00471597125
0.0419289409
0.142315212
0.156381841
0.0606747686
0.00500966519
0.0454125414
0.143447912
0.156552835
0.0555644853
0.00520568162
0.078287893
0.139648155
0.0674642724
0.00497453986
0.0468417584
0.146649646
0.15758024
0.0531598193
0.00510950703
0.051714388
0.150962571
0.162657512
0.0544666192
0.00497527774
0.0897041027
0.148356078
0.0649999451
0.0048724508
0.0569795716
0.1562348
0.155420842
0.0182397481
0.00440089858
0.114559092
0.145334839
0.0465955197
0.00532517331
0.0460911991
0.150430217
0.156601109
0.0457363602
0.00504901775
0.0611859187
0.155959758
0.148837857
0.00368035206
0.00384140791
0.132290805
0.142836994
0.0341403532
0.0055566037
0.0344001806
0.14431511
0.153603015
0.0557939883
0.00525147312
0.0447806264
0.138416942
0.160592461
0.157129911
0.0644445647
0.00556637839
0.00562060449
0.0463873014
0.148495774
0.156588383
0.0646523384
0.00495782238
0.0368255189
0.150936095
0.155121967
0.0627040225
0.00495903632
0.0371176216
0.153779175
0.15786085
0.0534880783
0.004469889
0.0889972807
0.137856843
0.0651168521
0.00510657718
0.0402137702
0.156474819
0.158484701
0.0496745096
0.0043862587
0.0956163297
0.137905231
0.0574715581
0.00513510728
0.0462578112
0.157377653
0.157104597
0.0400171272
0.0043014349
0.105022501
0.137882147
0.0467255833
0.00511026148
0.0580992602
0.157029042
0.154008256
0.0270950412
0.00422436548
0.115806693
0.139353381
0.0342631975
0.00509331416
0.0705728119
0.157067243
0.151316536
0.0165781065
0.00451857006
0.110699503
0.139716095
0.0703810788
0.00608561865
0.00537940109
0.103651799
0.150295709
0.161689654
0.165600262
0.0327501226
0.00345002971
0.127314807
0.13721197
0.00395277999
0.00541703467
0.0901414722
0.152133165
0.132767185
0.00500878454
0.00508867021
0.13407033
0.157581165
0.0376619153
0.00383473131
0.129572026
0.148596067
0.00345966615
0.00486439174
0.138872072
0.144806401
0.00319633825
0.00535598278
0.0891718694
0.166564064
0.16497086
0.00262916339
0.00448416337
0.134557492
0.149314151
0.0030950508
0.00499794036
0.134811961
0.144318579
0.00294224996
0.00535940655
0.0843610348
0.165813642
0.164915873
0.00275297638
0.00489430636
0.115176268
0.155609531
0.0531292949
0.00396561417
0.117375245
0.141380375
0.0081580235
0.00540290755
0.0725021578
0.160417291
0.15974316
0.00720988721
0.00526582636
0.0653252724
0.158084217
0.157431215
0.0136000826
0.0052605046
0.0652438115
0.158137144
0.157776054
0.0168186896
0.00528081995
0.0626202852
0.156787541
0.157116287
0.01964264
0.00532099744
0.0596534012
0.155063871
0.156130816
0.0224684819
0.00535424549
0.0576921865
0.154010865
0.155858799
0.0249583891
0.00537223699
0.0565134106
0.153484091
0.156085248
0.0271720187
)
;

boundaryField
{
    closed
    {
        type            calculated;
        value           nonuniform List<scalar> 0();
    }
    open
    {
        type            calculated;
        value           nonuniform List<scalar> 0();
    }
    sides
    {
        type            empty;
    }
    procBoundary1to0
    {
        type            processor;
        value           uniform 0;
    }
    procBoundary1to2
    {
        type            processor;
        value           uniform 0;
    }
}


// ************************************************************************* //
