/*--------------------------------*- C++ -*----------------------------------*\
| =========                 |                                                 |
| \\      /  F ield         | OpenFOAM: The Open Source CFD Toolbox           |
|  \\    /   O peration     | Version:  2306                                  |
|   \\  /    A nd           | Website:  www.openfoam.com                      |
|    \\/     M anipulation  |                                                 |
\*---------------------------------------------------------------------------*/
FoamFile
{
    version     2.0;
    format      ascii;
    arch        "LSB;label=32;scalar=64";
    class       volScalarField;
    location    "0.002";
    object      prefDZ_T;
}
// * * * * * * * * * * * * * * * * * * * * * * * * * * * * * * * * * * * * * //

dimensions      [1 -1 -1 -1 0 0 0];

internalField   nonuniform List<scalar> 
530
(
-1.25168558e-09
-1.20935406e-09
-1.20397376e-09
-1.2040236e-09
-1.20403307e-09
-1.20403319e-09
-1.20403318e-09
-1.20403318e-09
-1.20403318e-09
-1.20403318e-09
-1.20403318e-09
-1.20403318e-09
-1.20403318e-09
-1.20403318e-09
-1.20403318e-09
-1.20403318e-09
-1.20403318e-09
-1.20403318e-09
-1.20403318e-09
-1.20403318e-09
-1.20403318e-09
-1.20403318e-09
-1.20403318e-09
-1.20403318e-09
-1.20403318e-09
-1.20403318e-09
-1.20403318e-09
-1.20403318e-09
-1.20403318e-09
-1.20403318e-09
-1.20403318e-09
-1.20403318e-09
-1.20403318e-09
-1.20403318e-09
-1.20403318e-09
-1.20403318e-09
-1.20403318e-09
-1.20403318e-09
-1.20403318e-09
-1.20403318e-09
-1.20403318e-09
-1.20403318e-09
-1.20403318e-09
-1.20403318e-09
-1.20403318e-09
-1.20403318e-09
-1.20403318e-09
-1.20403318e-09
-1.20403318e-09
-1.20403318e-09
-1.20403318e-09
-1.20403318e-09
-1.20403318e-09
-1.20403318e-09
-1.20403318e-09
-1.20403318e-09
-1.20403318e-09
-1.20403318e-09
-1.20403318e-09
-1.20403318e-09
-1.20403318e-09
-1.20403318e-09
-1.20403318e-09
-1.20403318e-09
-1.20403318e-09
-1.20403321e-09
-1.20403325e-09
-1.20403306e-09
-1.20403316e-09
-1.20403452e-09
-1.2040326e-09
-1.20403251e-09
-1.20403565e-09
-1.20404054e-09
-1.20403098e-09
-1.20402455e-09
-1.20403489e-09
-1.20405e-09
-1.20407762e-09
-1.2041364e-09
-1.20410796e-09
-1.20352782e-09
-1.20306693e-09
-1.2041424e-09
-1.20777592e-09
-1.2072772e-09
-1.19649551e-09
-1.19032882e-09
-1.18982695e-09
-1.22795152e-09
-1.22644695e-09
-1.22664047e-09
-1.20568543e-09
-1.18886724e-09
-1.18866913e-09
-1.18873434e-09
-1.18789427e-09
-1.18761857e-09
-1.21084652e-09
-1.22983366e-09
-1.22912094e-09
-1.22790615e-09
-1.22787254e-09
-1.22700058e-09
-1.22677926e-09
-1.21605476e-09
-1.1890222e-09
-1.1876706e-09
-1.18704971e-09
-1.18707245e-09
-1.1873665e-09
-1.18673817e-09
-1.18714594e-09
-1.21934258e-09
-1.22903302e-09
-1.22900978e-09
-1.22795811e-09
-1.22764345e-09
-1.22710678e-09
-1.22019836e-09
-1.18883422e-09
-1.18722068e-09
-1.18738083e-09
-1.1868306e-09
-1.18674131e-09
-1.19738805e-09
-1.23270584e-09
-1.22864722e-09
-1.22858622e-09
-1.22810965e-09
-1.22749443e-09
-1.22688622e-09
-1.21992994e-09
-1.1894832e-09
-1.18773139e-09
-1.18800025e-09
-1.18757212e-09
-1.18773432e-09
-1.20167714e-09
-1.23134705e-09
-1.22177639e-09
-1.18806777e-09
-1.18483064e-09
-1.18935237e-09
-1.23139607e-09
-1.22884261e-09
-1.22907107e-09
-1.22863287e-09
-1.20743027e-09
-1.18762793e-09
-1.19286824e-09
-1.23273028e-09
-1.23203862e-09
-1.1902886e-09
-1.18784581e-09
-1.19549935e-09
-1.23150865e-09
-1.23040121e-09
-1.19203687e-09
-1.18995554e-09
-1.20651831e-09
-1.22925107e-09
-1.2281877e-09
-1.18995722e-09
-1.18851537e-09
-1.21033724e-09
-1.22925697e-09
-1.21716095e-09
-1.18848248e-09
-1.19009316e-09
-1.23155521e-09
-1.22725972e-09
-1.22836225e-09
-1.21343782e-09
-1.18846376e-09
-1.18975863e-09
-1.2337569e-09
-1.22783269e-09
-1.20688622e-09
-1.18802939e-09
-1.18993406e-09
-1.23289546e-09
-1.22742699e-09
-1.20729968e-09
-1.18851379e-09
-1.18772802e-09
-1.18694477e-09
-1.18627682e-09
-1.19160707e-09
-1.23162951e-09
-1.21764525e-09
-1.19010966e-09
-1.19606172e-09
-1.23059759e-09
-1.22623338e-09
-1.21623384e-09
-1.19036358e-09
-1.19831605e-09
-1.23069628e-09
-1.22601182e-09
-1.22608398e-09
-1.19172402e-09
-1.18810381e-09
-1.18709426e-09
-1.19371724e-09
-1.23039747e-09
-1.21809468e-09
-1.18949502e-09
-1.19767082e-09
-1.2292748e-09
-1.21671996e-09
-1.18961476e-09
-1.1986969e-09
-1.22897888e-09
-1.21590599e-09
-1.18979547e-09
-1.19995964e-09
-1.22884545e-09
-1.21450154e-09
-1.18971095e-09
-1.20042165e-09
-1.22889606e-09
-1.2220613e-09
-1.18879543e-09
-1.18693858e-09
-1.19741081e-09
-1.22971854e-09
-1.21410712e-09
-1.18924487e-09
-1.20021283e-09
-1.22908102e-09
-1.2199777e-09
-1.18825817e-09
-1.18641761e-09
-1.19723764e-09
-1.22974687e-09
-1.21312359e-09
-1.18882993e-09
-1.19984188e-09
-1.22899088e-09
-1.21211915e-09
-1.18881452e-09
-1.20064578e-09
-1.22886097e-09
-1.21120136e-09
-1.18889788e-09
-1.20161633e-09
-1.22874756e-09
-1.21030118e-09
-1.18905448e-09
-1.20302827e-09
-1.22869154e-09
-1.20885788e-09
-1.18908078e-09
-1.20418354e-09
-1.22885936e-09
-1.21560203e-09
-1.18809798e-09
-1.18671789e-09
-1.20198675e-09
-1.22912973e-09
-1.20849772e-09
-1.18898255e-09
-1.20478654e-09
-1.22855907e-09
-1.20721527e-09
-1.18912053e-09
-1.20667213e-09
-1.22870563e-09
-1.2146515e-09
-1.18827148e-09
-1.18717303e-09
-1.20585754e-09
-1.22884828e-09
-1.20576938e-09
-1.18918902e-09
-1.2084958e-09
-1.22866306e-09
-1.21319519e-09
-1.18814822e-09
-1.18710327e-09
-1.20682399e-09
-1.2287539e-09
-1.20513289e-09
-1.18893573e-09
-1.20837302e-09
-1.22833024e-09
-1.20434031e-09
-1.18884589e-09
-1.20974883e-09
-1.22831873e-09
-1.20284129e-09
-1.18897521e-09
-1.21033857e-09
-1.22854879e-09
-1.21542517e-09
-1.18880319e-09
-1.18808379e-09
-1.21353944e-09
-1.22787694e-09
-1.22015163e-09
-1.19015291e-09
-1.1894327e-09
-1.18739875e-09
-1.18888754e-09
-1.23208555e-09
-1.2201535e-09
-1.18883788e-09
-1.1903395e-09
-1.23155586e-09
-1.22620861e-09
-1.21574699e-09
-1.18851374e-09
-1.18774205e-09
-1.21125815e-09
-1.22867877e-09
-1.21617611e-09
-1.18918044e-09
-1.18843965e-09
-1.2106161e-09
-1.22852254e-09
-1.22107983e-09
-1.1894168e-09
-1.18850224e-09
-1.21476798e-09
-1.22752612e-09
-1.21300331e-09
-1.19133382e-09
-1.18909015e-09
-1.18878771e-09
-1.2314495e-09
-1.22648999e-09
-1.20337505e-09
-1.18872311e-09
-1.21028767e-09
-1.22881079e-09
-1.210306e-09
-1.18773413e-09
-1.18694982e-09
-1.21077415e-09
-1.22857923e-09
-1.2005832e-09
-1.18878029e-09
-1.20497353e-09
-1.22838039e-09
-1.2272186e-09
-1.21098715e-09
-1.18736494e-09
-1.18690761e-09
-1.22713205e-09
-1.2281957e-09
-1.20689263e-09
-1.18851644e-09
-1.18820514e-09
-1.23249832e-09
-1.22782872e-09
-1.20703896e-09
-1.18860864e-09
-1.18826825e-09
-1.23208133e-09
-1.2278339e-09
-1.20619774e-09
-1.18812903e-09
-1.18783689e-09
-1.23208755e-09
-1.2281811e-09
-1.2026044e-09
-1.18700137e-09
-1.18654486e-09
-1.22667648e-09
-1.22776193e-09
-1.19428019e-09
-1.18886176e-09
-1.23286603e-09
-1.22776329e-09
-1.20273064e-09
-1.18779094e-09
-1.18734212e-09
-1.22837821e-09
-1.22738594e-09
-1.19556317e-09
-1.18955245e-09
-1.23488241e-09
-1.22738758e-09
-1.20343776e-09
-1.18812378e-09
-1.18768675e-09
-1.22791562e-09
-1.22729212e-09
-1.19570127e-09
-1.18951347e-09
-1.23483715e-09
-1.22733979e-09
-1.20326116e-09
-1.18808974e-09
-1.18764284e-09
-1.22722423e-09
-1.22725904e-09
-1.19592106e-09
-1.18954011e-09
-1.23496452e-09
-1.22719031e-09
-1.20417964e-09
-1.1884182e-09
-1.18813285e-09
-1.22902996e-09
-1.22771178e-09
-1.20865945e-09
-1.18869265e-09
-1.18836156e-09
-1.2283904e-09
-1.22781243e-09
-1.20578747e-09
-1.18804184e-09
-1.18772289e-09
-1.22811401e-09
-1.228152e-09
-1.2030947e-09
-1.18727083e-09
-1.18673694e-09
-1.2225341e-09
-1.22775952e-09
-1.19465108e-09
-1.18813558e-09
-1.22903825e-09
-1.22717204e-09
-1.19393459e-09
-1.18852674e-09
-1.22991858e-09
-1.22708944e-09
-1.19406158e-09
-1.18918486e-09
-1.23501688e-09
-1.22757438e-09
-1.20189364e-09
-1.18813762e-09
-1.18759342e-09
-1.22485777e-09
-1.22744782e-09
-1.19616553e-09
-1.18936319e-09
-1.22942356e-09
-1.22702574e-09
-1.1944324e-09
-1.18925133e-09
-1.22131342e-09
-1.22687485e-09
-1.2271658e-09
-1.19915459e-09
-1.18449753e-09
-1.18414635e-09
-1.22189523e-09
-1.22790604e-09
-1.22802014e-09
-1.19665593e-09
-1.18786401e-09
-1.18589946e-09
-1.18578857e-09
-1.22212099e-09
-1.22837491e-09
-1.19395439e-09
-1.18909482e-09
-1.23478061e-09
-1.22788746e-09
-1.20028083e-09
-1.18752337e-09
-1.18682991e-09
-1.23175231e-09
-1.227238e-09
-1.19447869e-09
-1.18896945e-09
-1.23468144e-09
-1.22646168e-09
-1.19420655e-09
-1.18930226e-09
-1.23468154e-09
-1.22633278e-09
-1.19488011e-09
-1.18986733e-09
-1.23426335e-09
-1.22698745e-09
-1.20326641e-09
-1.18838309e-09
-1.18799609e-09
-1.23465322e-09
-1.22760699e-09
-1.20409603e-09
-1.18799294e-09
-1.18756367e-09
-1.23477638e-09
-1.22775613e-09
-1.20268608e-09
-1.1876242e-09
-1.18721302e-09
-1.23469651e-09
-1.22790664e-09
-1.20195663e-09
-1.18746335e-09
-1.1868279e-09
-1.23485308e-09
-1.22716329e-09
-1.19444431e-09
-1.18928539e-09
-1.23404324e-09
-1.227315e-09
-1.20129174e-09
-1.1877074e-09
-1.18711448e-09
-1.23443953e-09
-1.22705514e-09
-1.19507737e-09
-1.18959996e-09
-1.23376946e-09
-1.22720317e-09
-1.20180609e-09
-1.18799911e-09
-1.18771341e-09
-1.23412907e-09
-1.22825059e-09
-1.20122381e-09
-1.18642774e-09
-1.18597638e-09
-1.22680951e-09
-1.22849238e-09
-1.22909397e-09
-1.22796846e-09
-1.20046878e-09
-1.18752564e-09
-1.18534805e-09
-1.18501737e-09
)
;

boundaryField
{
    closed
    {
        type            calculated;
        value           uniform -1.46823509e-09;
    }
    open
    {
        type            calculated;
        value           nonuniform List<scalar> 0();
    }
    sides
    {
        type            empty;
    }
    procBoundary0to1
    {
        type            processor;
        value           uniform -1.23362373e-09;
    }
}


// ************************************************************************* //
