/*--------------------------------*- C++ -*----------------------------------*\
| =========                 |                                                 |
| \\      /  F ield         | OpenFOAM: The Open Source CFD Toolbox           |
|  \\    /   O peration     | Version:  2306                                  |
|   \\  /    A nd           | Website:  www.openfoam.com                      |
|    \\/     M anipulation  |                                                 |
\*---------------------------------------------------------------------------*/
FoamFile
{
    version     2.0;
    format      ascii;
    arch        "LSB;label=32;scalar=64";
    class       volScalarField;
    location    "0.00164";
    object      h;
}
// * * * * * * * * * * * * * * * * * * * * * * * * * * * * * * * * * * * * * //

dimensions      [0 2 -2 0 0 0 0];

internalField   nonuniform List<scalar> 
530
(
-6507.53884
1392.79742
9793.31415
10801.2641
9854.19934
434.879945
-7683.77486
-7242.77693
9679.40535
9826.31144
-5432.76436
-6183.10399
9700.81943
10081.6663
-5427.42293
-5148.48766
9821.48427
10563.2498
10005.709
-1318.87058
-4752.55317
-6776.78309
-6733.85986
9431.0394
9807.80005
10012.6745
9848.35131
1361.34128
-7074.78634
-6445.85572
9803.62225
10059.611
-4907.42614
-4781.94142
9826.35874
10572.8145
9969.23141
-2026.79119
-5016.05454
-7175.78058
-7005.84831
9250.22785
10080.7252
9422.83246
-4231.18011
-6873.17006
9808.42684
10031.5033
10202.2413
10256.6322
1309.64859
-3873.73936
-5156.49923
-5414.70251
10078.7968
9991.78082
-2263.74219
-6271.92882
-6154.42037
10214.6639
9907.22577
-991.458067
-7233.82058
-5690.88484
9555.5469
10474.6755
9827.07707
664.501248
-6378.0126
-5803.04403
9929.56932
10180.3044
-4147.01729
-4124.31683
9890.50391
10584.5788
10207.0973
2449.77251
-3940.53662
-5317.04276
-5477.52392
10011.9207
9930.98474
-2382.67526
-7043.73208
-6577.44918
9794.47201
9982.28607
-4954.02814
-5630.50244
9610.88673
9612.27242
9839.70583
9391.44878
-5239.81043
-6503.95495
-7381.1496
-7120.4508
9491.68149
10126.9183
9786.99152
-3860.46203
-4766.5973
9799.62336
10494.7461
10010.7997
-2693.9008
-3571.95985
9942.8043
-1951.55391
-5702.87991
9967.78934
10459.6297
9969.23145
-847.548261
-5127.29741
-6374.5739
-6297.61721
9456.28342
10276.4986
9676.16426
-2930.3583
-5798.36154
10391.2096
10046.7735
-90.9031922
-6436.44603
-4760.57126
9706.46045
-3518.03687
-5775.42915
9726.08515
10489.4198
9720.59375
-226.91941
-7064.54751
-6070.77521
9853.1549
10145.6592
-4445.44906
-4114.03349
9800.39989
-822.046019
-6689.81728
10173.1203
10052.2986
-4408.6945
-5353.74373
9914.32588
10182.9779
-4578.08968
-4809.65171
9861.04595
10222.6939
-5191.05954
-5241.2241
9674.24666
10048.946
9986.40737
9984.24742
-3825.91552
-6086.75243
-5287.32549
-7016.25988
951.059601
9723.12738
10365.3379
9856.50945
10123.3597
-5963.37194
-5778.23222
9506.87866
-3126.84931
-7696.84521
10043.0884
9934.86146
-5008.19416
-5821.77293
9799.26058
10078.8218
-5653.12579
-5857.58848
9622.70033
9797.37488
9827.77018
9772.64733
-5437.37053
-6743.14375
-8086.5563
-7929.45683
9369.39717
9790.37259
9471.78195
9928.2808
9741.37164
-5678.64416
-7044.46031
10119.9961
9856.80409
-2738.85104
-6867.4698
-5921.43941
9900.20231
10135.2349
-4776.73944
-4539.19765
9874.46351
-3359.41418
-6096.59023
9836.34494
10419.5812
9666.8301
-1315.02046
-7676.41707
-6211.05159
9779.3329
10029.0073
10269.3585
10214.39
-1534.79273
-3876.27451
10556.5059
10449.8253
-1825.18833
-4019.24026
-5922.02327
-5832.92902
9634.88711
10335.5159
9757.78165
2781.48775
-6999.52848
-4671.02137
9633.2407
-867.770958
-6423.83947
10527.1805
10016.0928
-944.879338
-6245.32584
-5339.0526
9889.81862
10231.6418
10241.4754
4503.83309
-3420.81782
-5306.68279
-4151.28581
9876.62146
-289.237925
-5507.35895
10424.759
10301.3323
-2915.21042
-4620.60076
-6851.11469
-6567.30306
9291.54985
9723.03041
9572.97633
9340.4497
10008.4662
8303.18557
-4248.37722
-7192.23166
-6201.08977
9979.1806
10063.6292
-3825.87304
-5015.50902
10142.9858
10174.448
-3479.61138
-5128.78393
-7259.85988
-7175.05902
9429.18221
9891.52973
9822.26936
10103.7532
-4464.52702
-4345.90457
9877.53724
-3484.87782
-6308.15255
9775.34812
10285.0164
9777.4157
-2782.71954
-5956.15223
10254.318
10224.2043
-3829.09879
-4742.28977
10227.9221
10229.391
-3424.84324
-4918.83109
-7355.77068
-7133.82995
9304.27437
9733.78705
9559.04508
9791.82812
9966.35457
9967.09687
-4064.23223
-5855.72716
-5897.91704
-6392.43029
10071.2578
9972.53974
-3073.38148
-6386.68953
-5702.47071
10105.5062
10068.277
-3471.64958
-5380.06924
10494.5088
9983.44609
-1091.20402
-7358.69077
-6196.59737
9578.9588
9733.86287
9725.93902
9599.32041
9967.60889
9648.04927
-4898.32825
-6799.97793
-7315.38842
-7254.51581
9594.47439
9898.65236
-6262.63325
-6144.46144
9820.11092
10126.6309
10328.6349
10315.5971
97.7182547
-4071.35302
-4593.95828
-5463.75512
10169.5539
9933.17081
-3327.58166
-7623.70447
-6001.34442
9678.7713
10203.5475
10004.643
-3876.78715
-3876.91825
9819.02922
952.50455
-7411.35986
10546.3365
9611.49628
-3023.57535
-8743.61064
-6618.62528
9486.25858
10132.0404
9766.75728
10491.0473
10101.2547
-1638.8034
-4502.1906
-5854.38274
-5599.30206
9637.25442
10357.6298
9781.69695
-2800.02516
-5822.24117
10546.2213
10021.7136
-1297.26336
-6451.21541
-4710.06431
9807.04646
10612.3895
10030.1105
77.1530647
-5678.93505
-4427.9758
-7663.45926
-7225.86583
9591.21843
9872.27939
9791.09496
-5922.57183
-6084.33552
9614.4088
10161.4116
9839.14334
-4440.41156
-5274.39748
9773.19782
10535.5019
9768.21825
-1455.38232
-6554.09754
-5830.77463
10198.299
9926.2274
-2807.15198
-6718.25924
-6010.32794
10026.615
9966.2086
-3910.1453
-6094.56596
10345.1943
9845.95432
-2912.39132
-7827.17822
-5921.92608
9554.5539
10272.5155
9787.62597
-3360.44533
-5729.73325
10261.5139
10220.4281
-4106.63114
-4808.39484
10225.1109
10259.7187
-3625.94829
-4649.06353
10491.3519
10229.5024
-1162.26313
-5184.32835
-4953.87301
10403.1615
10101.2017
-1578.66768
-6028.18975
-5279.901
10086.1651
10132.7722
-3886.5525
-4953.78946
10244.663
10247.9667
-3538.8502
-5144.98871
10474.3308
9980.19023
-2275.63226
-7191.19514
-5962.59059
9716.75411
10009.2655
9965.33878
10060.5533
4688.09547
-5910.49738
-5670.38812
-8414.15836
-7799.86175
9508.95587
9994.99705
9710.57412
10413.1761
9957.43914
-2212.28241
-4674.21548
-5553.21524
-5787.79424
9840.72181
10052.6523
-5632.48655
-5750.57883
9831.25798
10086.8038
-5893.29767
-5666.29952
9977.66742
10166.2967
10397.5997
10312.3221
-1068.95944
-4181.64402
-5006.31938
-5198.75446
9953.29726
10215.9013
-5133.34755
-4587.71117
10009.7559
10615.8694
10116.8221
327.036803
-4661.26277
-4881.04132
-5161.56177
10065.4066
10310.7641
-4191.95435
-3519.77502
10229.4268
-1120.14093
-4010.58388
10260.9332
-2997.66924
-5091.64159
10151.8724
10531.1426
10110.7332
103.670206
-5154.06164
-5636.54132
-5945.35421
9791.7821
10056.288
-6118.39377
-5646.95727
9798.10954
10223.0423
9929.18255
-4237.77362
-4911.00636
9908.32131
10580.0084
)
;

boundaryField
{
    closed
    {
        type            lookUpEnthalpy;
        h0              nonuniform List<scalar> 0();
        value           nonuniform List<scalar> 0();
    }
    open
    {
        type            zeroGradient;
    }
    sides
    {
        type            empty;
    }
    procBoundary2to1
    {
        type            processor;
        value           uniform -3127.28887;
    }
    procBoundary2to3
    {
        type            processor;
        value           uniform 9859.87614;
    }
}


// ************************************************************************* //
