/*--------------------------------*- C++ -*----------------------------------*\
| =========                 |                                                 |
| \\      /  F ield         | OpenFOAM: The Open Source CFD Toolbox           |
|  \\    /   O peration     | Version:  2306                                  |
|   \\  /    A nd           | Website:  www.openfoam.com                      |
|    \\/     M anipulation  |                                                 |
\*---------------------------------------------------------------------------*/
FoamFile
{
    version     2.0;
    format      ascii;
    arch        "LSB;label=32;scalar=64";
    class       volScalarField;
    location    "0.00164";
    object      prefDZ_T;
}
// * * * * * * * * * * * * * * * * * * * * * * * * * * * * * * * * * * * * * //

dimensions      [1 -1 -1 -1 0 0 0];

internalField   nonuniform List<scalar> 
530
(
-1.18592245e-09
-1.20068871e-09
-1.22868014e-09
-1.22507677e-09
-1.2285045e-09
-1.19758456e-09
-1.18414294e-09
-1.18420748e-09
-1.22866383e-09
-1.22797257e-09
-1.18702581e-09
-1.18595925e-09
-1.22838982e-09
-1.22764725e-09
-1.18697315e-09
-1.18751455e-09
-1.22809632e-09
-1.22657546e-09
-1.22791975e-09
-1.19312059e-09
-1.18831535e-09
-1.18519556e-09
-1.18554847e-09
-1.22894236e-09
-1.22863913e-09
-1.22750802e-09
-1.22846733e-09
-1.2002135e-09
-1.18500157e-09
-1.18554355e-09
-1.22837566e-09
-1.22763337e-09
-1.18772091e-09
-1.18796642e-09
-1.22801221e-09
-1.22647622e-09
-1.22790582e-09
-1.19147531e-09
-1.18787576e-09
-1.18459865e-09
-1.18505577e-09
-1.22948289e-09
-1.22773651e-09
-1.2291559e-09
-1.18845267e-09
-1.18522057e-09
-1.22777121e-09
-1.22792436e-09
-1.2268461e-09
-1.22731138e-09
-1.20010421e-09
-1.18919518e-09
-1.18723059e-09
-1.18703531e-09
-1.22728789e-09
-1.22767856e-09
-1.19104595e-09
-1.18590283e-09
-1.18604497e-09
-1.22701385e-09
-1.22810905e-09
-1.19377564e-09
-1.18480051e-09
-1.18643844e-09
-1.22905438e-09
-1.22641711e-09
-1.22843049e-09
-1.19815274e-09
-1.18594924e-09
-1.18631975e-09
-1.22804581e-09
-1.22717332e-09
-1.18872966e-09
-1.18870701e-09
-1.22779392e-09
-1.22625253e-09
-1.22723522e-09
-1.20387201e-09
-1.18905861e-09
-1.18697406e-09
-1.18698399e-09
-1.22732573e-09
-1.22791916e-09
-1.19068805e-09
-1.18500047e-09
-1.18532209e-09
-1.22841669e-09
-1.22795209e-09
-1.18772074e-09
-1.1871829e-09
-1.22873874e-09
-1.22950217e-09
-1.22834812e-09
-1.22971077e-09
-1.18736029e-09
-1.18616205e-09
-1.18443885e-09
-1.18507985e-09
-1.22902574e-09
-1.22774414e-09
-1.22829228e-09
-1.18903452e-09
-1.18798226e-09
-1.2278156e-09
-1.22657958e-09
-1.22730579e-09
-1.19041212e-09
-1.18927478e-09
-1.22731956e-09
-1.191482e-09
-1.18642234e-09
-1.22731035e-09
-1.22639519e-09
-1.22751908e-09
-1.19412031e-09
-1.18740383e-09
-1.18554537e-09
-1.18578747e-09
-1.22884249e-09
-1.22699906e-09
-1.22847512e-09
-1.1900119e-09
-1.18666252e-09
-1.22629499e-09
-1.22779562e-09
-1.19606855e-09
-1.18577874e-09
-1.18762995e-09
-1.22835705e-09
-1.18929468e-09
-1.18656645e-09
-1.22809794e-09
-1.22655902e-09
-1.22831542e-09
-1.19571912e-09
-1.18483596e-09
-1.18598993e-09
-1.22807555e-09
-1.22725779e-09
-1.18821144e-09
-1.18866487e-09
-1.2278955e-09
-1.19419476e-09
-1.1852083e-09
-1.22695874e-09
-1.22748701e-09
-1.18814343e-09
-1.18712302e-09
-1.22773247e-09
-1.22738181e-09
-1.18808114e-09
-1.1879695e-09
-1.22804156e-09
-1.2274348e-09
-1.18736064e-09
-1.18747726e-09
-1.22847974e-09
-1.22795533e-09
-1.22776741e-09
-1.22813128e-09
-1.18898122e-09
-1.18658437e-09
-1.18687047e-09
-1.18531243e-09
-1.19914882e-09
-1.22898073e-09
-1.22625687e-09
-1.22853428e-09
-1.22703426e-09
-1.18641226e-09
-1.18642848e-09
-1.22885912e-09
-1.18995889e-09
-1.1840595e-09
-1.22756413e-09
-1.22813906e-09
-1.18752993e-09
-1.18675682e-09
-1.22820214e-09
-1.22804931e-09
-1.18676818e-09
-1.18688208e-09
-1.22884756e-09
-1.22880916e-09
-1.22859664e-09
-1.22879321e-09
-1.18736844e-09
-1.18580816e-09
-1.18370987e-09
-1.18409315e-09
-1.22978325e-09
-1.2289459e-09
-1.22952784e-09
-1.22835647e-09
-1.22892117e-09
-1.18671003e-09
-1.18517499e-09
-1.22733113e-09
-1.22851574e-09
-1.19037748e-09
-1.18538812e-09
-1.18614506e-09
-1.22811384e-09
-1.22723642e-09
-1.18778059e-09
-1.18808422e-09
-1.2276141e-09
-1.18953444e-09
-1.18594265e-09
-1.22771959e-09
-1.22657241e-09
-1.22824098e-09
-1.19300657e-09
-1.18386052e-09
-1.18574893e-09
-1.22800135e-09
-1.22749086e-09
-1.22678736e-09
-1.22701629e-09
-1.19244428e-09
-1.18903709e-09
-1.22588857e-09
-1.22658964e-09
-1.19174432e-09
-1.1889479e-09
-1.18614912e-09
-1.18642684e-09
-1.22842328e-09
-1.22682903e-09
-1.22835302e-09
-1.20520339e-09
-1.18496643e-09
-1.18766055e-09
-1.2286798e-09
-1.19402952e-09
-1.1858303e-09
-1.22593174e-09
-1.22791769e-09
-1.19385282e-09
-1.18612758e-09
-1.18695058e-09
-1.22815284e-09
-1.22723311e-09
-1.22730545e-09
-1.21214115e-09
-1.18965033e-09
-1.18733749e-09
-1.18859699e-09
-1.22804203e-09
-1.19555225e-09
-1.18698047e-09
-1.22645856e-09
-1.22714809e-09
-1.19015025e-09
-1.18841205e-09
-1.18503059e-09
-1.18581223e-09
-1.22949608e-09
-1.22927594e-09
-1.22894472e-09
-1.23070992e-09
-1.22801132e-09
-1.23366464e-09
-1.1886431e-09
-1.18527978e-09
-1.18603257e-09
-1.22814552e-09
-1.22768626e-09
-1.18911593e-09
-1.1876658e-09
-1.22724773e-09
-1.22741589e-09
-1.18936569e-09
-1.18753105e-09
-1.18435283e-09
-1.18460318e-09
-1.22894253e-09
-1.22790856e-09
-1.22797907e-09
-1.22728916e-09
-1.18805569e-09
-1.1882855e-09
-1.22764153e-09
-1.18924292e-09
-1.18565349e-09
-1.22780159e-09
-1.22686253e-09
-1.22778535e-09
-1.19019763e-09
-1.18615279e-09
-1.22682892e-09
-1.22712784e-09
-1.1888662e-09
-1.18805783e-09
-1.22698202e-09
-1.22745668e-09
-1.18948949e-09
-1.18807996e-09
-1.18433664e-09
-1.18496287e-09
-1.22949312e-09
-1.22878391e-09
-1.22890009e-09
-1.22857212e-09
-1.22798839e-09
-1.22813561e-09
-1.18890349e-09
-1.18680854e-09
-1.18643206e-09
-1.18597305e-09
-1.22767469e-09
-1.22804611e-09
-1.19011844e-09
-1.18594195e-09
-1.18664108e-09
-1.22759297e-09
-1.22770851e-09
-1.18950342e-09
-1.187331e-09
-1.22644372e-09
-1.22812083e-09
-1.1936015e-09
-1.18472479e-09
-1.18609835e-09
-1.22919664e-09
-1.22884763e-09
-1.22883183e-09
-1.22919862e-09
-1.2282868e-09
-1.22906266e-09
-1.18798265e-09
-1.1855835e-09
-1.18464575e-09
-1.18483188e-09
-1.22900027e-09
-1.22834611e-09
-1.18579553e-09
-1.18617172e-09
-1.22789414e-09
-1.22755384e-09
-1.22652239e-09
-1.22698885e-09
-1.19658458e-09
-1.18886056e-09
-1.18789821e-09
-1.18690985e-09
-1.22724114e-09
-1.22776773e-09
-1.18969985e-09
-1.1840174e-09
-1.18620518e-09
-1.22837378e-09
-1.22735708e-09
-1.22741643e-09
-1.18914378e-09
-1.18879608e-09
-1.22825956e-09
-1.19904604e-09
-1.18438298e-09
-1.22611164e-09
-1.22878863e-09
-1.18976031e-09
-1.18267521e-09
-1.18503965e-09
-1.22931508e-09
-1.22709477e-09
-1.22854846e-09
-1.22626634e-09
-1.22769876e-09
-1.19220136e-09
-1.18854501e-09
-1.18621734e-09
-1.18691037e-09
-1.22844297e-09
-1.22692475e-09
-1.22816057e-09
-1.19027481e-09
-1.18662495e-09
-1.2262032e-09
-1.22791209e-09
-1.19300053e-09
-1.18594677e-09
-1.18768959e-09
-1.22853288e-09
-1.2261306e-09
-1.22792306e-09
-1.19651641e-09
-1.18694449e-09
-1.18837305e-09
-1.18412514e-09
-1.18463792e-09
-1.22894915e-09
-1.22821995e-09
-1.22838002e-09
-1.18627969e-09
-1.18624296e-09
-1.22857735e-09
-1.22755652e-09
-1.22793292e-09
-1.18831172e-09
-1.18719994e-09
-1.22821814e-09
-1.22655906e-09
-1.22809665e-09
-1.19278115e-09
-1.18547854e-09
-1.18642489e-09
-1.2272983e-09
-1.22785515e-09
-1.19038053e-09
-1.18533451e-09
-1.18615687e-09
-1.22768733e-09
-1.22783782e-09
-1.18882967e-09
-1.18621469e-09
-1.22679645e-09
-1.22818506e-09
-1.19007603e-09
-1.183886e-09
-1.18612037e-09
-1.22888923e-09
-1.2268949e-09
-1.22814968e-09
-1.18944363e-09
-1.18664538e-09
-1.22679627e-09
-1.22718767e-09
-1.18831115e-09
-1.1878808e-09
-1.22669268e-09
-1.22711179e-09
-1.18883263e-09
-1.18805994e-09
-1.2260455e-09
-1.22702162e-09
-1.19328643e-09
-1.18722339e-09
-1.18733203e-09
-1.22646082e-09
-1.22718676e-09
-1.19229943e-09
-1.1861482e-09
-1.18687645e-09
-1.22738784e-09
-1.22715241e-09
-1.18875193e-09
-1.18758347e-09
-1.22683054e-09
-1.22709839e-09
-1.18908473e-09
-1.187508e-09
-1.22628531e-09
-1.22787425e-09
-1.19081046e-09
-1.18481693e-09
-1.18616218e-09
-1.22862242e-09
-1.22783097e-09
-1.22796118e-09
-1.22783295e-09
-1.21293731e-09
-1.1864348e-09
-1.18688063e-09
-1.18291545e-09
-1.18389764e-09
-1.22898566e-09
-1.22793781e-09
-1.22845127e-09
-1.22686074e-09
-1.22791941e-09
-1.19118985e-09
-1.18823442e-09
-1.18679017e-09
-1.18660386e-09
-1.2281036e-09
-1.22767996e-09
-1.18657742e-09
-1.1865831e-09
-1.2280056e-09
-1.22755953e-09
-1.18606875e-09
-1.18666302e-09
-1.22735251e-09
-1.22729262e-09
-1.22628488e-09
-1.22683668e-09
-1.19355185e-09
-1.18864415e-09
-1.18733865e-09
-1.1872181e-09
-1.22761973e-09
-1.22711139e-09
-1.18709959e-09
-1.18805547e-09
-1.22732803e-09
-1.22612427e-09
-1.22713305e-09
-1.19720306e-09
-1.18791035e-09
-1.1874665e-09
-1.18723224e-09
-1.22724382e-09
-1.22681644e-09
-1.18824666e-09
-1.18938332e-09
-1.22661752e-09
-1.19344307e-09
-1.18853591e-09
-1.22658543e-09
-1.18983072e-09
-1.18717627e-09
-1.22692772e-09
-1.22619792e-09
-1.22704636e-09
-1.19659236e-09
-1.18724812e-09
-1.18647151e-09
-1.18623722e-09
-1.22794415e-09
-1.22759729e-09
-1.18569175e-09
-1.18671175e-09
-1.22766511e-09
-1.22720544e-09
-1.2273625e-09
-1.18843044e-09
-1.18746064e-09
-1.22768989e-09
-1.22616215e-09
)
;

boundaryField
{
    closed
    {
        type            calculated;
        value           nonuniform List<scalar> 0();
    }
    open
    {
        type            calculated;
        value           nonuniform List<scalar> 0();
    }
    sides
    {
        type            empty;
    }
    procBoundary2to1
    {
        type            processor;
        value           uniform -1.18944664e-09;
    }
    procBoundary2to3
    {
        type            processor;
        value           uniform -1.22780188e-09;
    }
}


// ************************************************************************* //
