/*--------------------------------*- C++ -*----------------------------------*\
| =========                 |                                                 |
| \\      /  F ield         | OpenFOAM: The Open Source CFD Toolbox           |
|  \\    /   O peration     | Version:  2306                                  |
|   \\  /    A nd           | Website:  www.openfoam.com                      |
|    \\/     M anipulation  |                                                 |
\*---------------------------------------------------------------------------*/
FoamFile
{
    version     2.0;
    format      ascii;
    arch        "LSB;label=32;scalar=64";
    class       volScalarField;
    location    "0.00092";
    object      H2;
}
// * * * * * * * * * * * * * * * * * * * * * * * * * * * * * * * * * * * * * //

dimensions      [0 0 0 0 0 0 0];

internalField   nonuniform List<scalar> 
530
(
8.4800158e-05
1.17745458e-05
3.89079911e-08
6.57035272e-05
8.32751247e-05
5.81517552e-05
4.21532634e-08
8.93980807e-06
8.0739515e-05
6.77260792e-05
4.44512913e-08
4.46203685e-08
7.5306247e-05
6.04496963e-05
4.71430163e-08
4.6812037e-08
7.31296451e-05
5.40893186e-05
4.97818289e-08
4.95221861e-08
6.85792553e-05
5.09469455e-05
5.22356054e-08
5.20354438e-08
6.42582056e-05
4.80986997e-05
5.47278977e-08
5.44147677e-08
6.07430116e-05
4.58642332e-05
5.68755345e-08
5.66580698e-08
5.68912502e-05
4.43040487e-05
5.91424187e-08
5.91099747e-08
5.39994059e-05
4.27779344e-05
6.15003106e-08
6.15420172e-08
5.14719459e-05
4.1096979e-05
6.38467324e-08
6.3765779e-08
4.86471338e-05
4.05173068e-05
6.58993461e-08
6.59514774e-08
4.59441453e-05
3.86676969e-05
6.8166074e-08
6.82991165e-08
4.22210086e-05
3.55994941e-05
7.09208265e-08
7.10212599e-08
3.54203509e-05
2.99674161e-05
6.64009884e-06
4.56721193e-06
2.34674962e-05
2.01464979e-05
3.23445873e-05
2.44346053e-05
4.45648737e-06
3.84657368e-06
4.63683826e-05
3.78276475e-05
7.83021952e-08
7.92481808e-08
4.64171979e-05
3.92496681e-05
8.07665891e-08
8.13806814e-08
4.47677641e-05
3.88582655e-05
8.38187564e-08
8.42340758e-08
4.32168318e-05
3.78956756e-05
8.71973069e-08
8.75382489e-08
4.20258597e-05
3.66652641e-05
9.11778356e-08
9.14733546e-08
4.11316256e-05
3.53284034e-05
9.53270115e-08
9.56099071e-08
4.0189227e-05
3.41116603e-05
9.95752983e-08
9.99174801e-08
3.92501467e-05
3.28418988e-05
1.03927291e-07
1.04366801e-07
3.83103444e-05
3.17688581e-05
1.08389477e-07
1.08955821e-07
3.7360016e-05
3.07728219e-05
1.13763469e-07
1.14538167e-07
3.62752687e-05
2.98395743e-05
1.19542284e-07
1.20353707e-07
3.50953356e-05
2.89981364e-05
1.2548628e-07
1.26230006e-07
3.39994499e-05
2.82934431e-05
1.31615752e-07
1.32204465e-07
3.28934091e-05
2.76676447e-05
1.37931758e-07
1.38411503e-07
3.17635573e-05
2.68866439e-05
1.44923139e-07
1.45356606e-07
3.07165947e-05
2.60571377e-05
1.52637658e-07
1.5309433e-07
2.96951238e-05
2.51983141e-05
1.60539397e-07
1.61007561e-07
2.85624363e-05
2.43550536e-05
1.68186485e-07
1.68853068e-07
2.78136157e-05
2.36024669e-05
1.75691989e-07
1.76479629e-07
2.7361971e-05
2.31882205e-05
1.83213931e-07
1.84135123e-07
2.68670524e-05
2.27422644e-05
1.91484117e-07
1.92627788e-07
2.63302157e-05
2.22740854e-05
2.00339607e-07
2.01510069e-07
2.57636769e-05
2.17962225e-05
2.09232948e-07
2.10372641e-07
2.51772772e-05
2.13200036e-05
2.18189566e-07
2.19223115e-07
2.46823597e-05
2.0895471e-05
2.27356531e-07
2.28262926e-07
2.39520419e-05
2.03584148e-05
2.36566737e-07
2.37319094e-07
2.32226254e-05
1.97398305e-05
2.45756279e-07
2.4639637e-07
2.25432997e-05
1.91799402e-05
2.55860607e-07
2.56470654e-07
2.19112399e-05
1.86728532e-05
2.66164252e-07
2.66633685e-07
2.12950514e-05
1.81855468e-05
2.76211765e-07
2.76687601e-07
2.0631156e-05
1.76442768e-05
2.86196788e-07
2.86671511e-07
1.98248461e-05
1.7007807e-05
2.96185851e-07
2.96631173e-07
1.88667932e-05
1.61486747e-05
3.0597267e-07
3.06630642e-07
1.78194298e-05
1.50430829e-05
3.15589341e-07
3.16511785e-07
1.67460827e-05
1.39987219e-05
3.25088141e-07
3.26040379e-07
1.56291024e-05
1.34218836e-05
3.3584259e-07
3.36459967e-07
1.46737797e-05
1.2868863e-05
3.47579515e-07
3.47520174e-07
1.42925833e-05
1.24004969e-05
3.5827462e-07
3.58349729e-07
1.45947707e-05
1.18112318e-05
3.68023333e-07
3.68841329e-07
1.50286582e-05
1.16388958e-05
3.76993519e-07
3.78832765e-07
1.50596627e-05
1.15086482e-05
3.8603806e-07
3.88447601e-07
1.49149003e-05
1.13350246e-05
3.95136352e-07
3.9773881e-07
1.45357568e-05
1.11611312e-05
4.04147323e-07
4.06524365e-07
1.4075477e-05
1.09248185e-05
4.1292226e-07
4.14985593e-07
1.36010729e-05
1.05598464e-05
4.21385618e-07
4.23135352e-07
1.31356223e-05
1.01433486e-05
4.29524076e-07
4.3095634e-07
1.26462666e-05
9.72426248e-06
4.37374849e-07
4.38459905e-07
1.2097727e-05
9.27317724e-06
4.44901711e-07
4.45561332e-07
1.15498088e-05
8.86352601e-06
4.51645521e-07
4.52235331e-07
1.0996803e-05
8.51913639e-06
4.57997491e-07
4.58516114e-07
1.04665745e-05
8.18040751e-06
4.63976142e-07
4.64429064e-07
9.93144769e-06
7.89387352e-06
4.69558315e-07
4.70003438e-07
9.37481462e-06
7.54109715e-06
4.74752007e-07
4.75244008e-07
8.98090094e-06
7.12844213e-06
4.79629759e-07
4.80205477e-07
8.5335303e-06
6.7516622e-06
4.84460889e-07
4.8511174e-07
8.05969495e-06
6.40879457e-06
4.89164075e-07
4.89734807e-07
7.57450663e-06
6.09381899e-06
4.93548022e-07
4.94019558e-07
7.09798994e-06
5.77902363e-06
4.97599947e-07
4.97991077e-07
6.65979361e-06
5.46319072e-06
5.0132638e-07
5.01658491e-07
6.25003132e-06
5.16297818e-06
5.0475609e-07
5.05030411e-07
5.85054816e-06
4.87784307e-06
5.07919037e-07
5.0814617e-07
5.45301633e-06
4.59482021e-06
5.10825014e-07
5.11018031e-07
5.0936267e-06
4.31685077e-06
5.13431731e-07
5.13623519e-07
4.80219777e-06
4.04270129e-06
5.15765252e-07
5.1598499e-07
4.54192122e-06
3.7988136e-06
5.17884474e-07
5.18133137e-07
4.25899819e-06
3.578302e-06
5.19809927e-07
5.20063056e-07
4.00694408e-06
3.37406345e-06
5.21559847e-07
5.21808288e-07
3.75240216e-06
3.20123664e-06
5.23158937e-07
5.23390654e-07
3.50270293e-06
3.01206214e-06
5.2463592e-07
5.24802257e-07
3.26290212e-06
2.8511501e-06
5.26112267e-07
5.26153808e-07
2.88351948e-06
2.80124415e-06
5.27516361e-07
5.2725875e-07
2.49703395e-06
2.70663804e-06
5.28715746e-07
5.28217746e-07
2.2050432e-06
2.58286289e-06
5.297394e-07
5.29090866e-07
1.97329339e-06
2.45160506e-06
5.3061322e-07
5.29874445e-07
1.78329373e-06
2.32278326e-06
5.31368252e-07
5.30570138e-07
1.61947299e-06
2.2031938e-06
5.32023191e-07
5.31185985e-07
1.48093379e-06
2.08754232e-06
5.32591177e-07
5.31730701e-07
1.35672034e-06
1.98224846e-06
5.33089662e-07
5.32207636e-07
1.24516201e-06
1.88474974e-06
5.33543314e-07
5.32612768e-07
1.13919456e-06
1.79873248e-06
5.33912004e-07
5.32992891e-07
1.05404596e-06
1.70905185e-06
5.34192965e-07
5.33379971e-07
9.98329439e-07
1.59189898e-06
5.34414036e-07
5.33821451e-07
9.64294581e-07
1.40484551e-06
5.34552918e-07
5.34608143e-07
9.57494963e-07
1.00625284e-06
5.3461027e-07
8.18975994e-07
9.65699616e-07
5.34876972e-07
5.34659052e-07
1.05411251e-06
9.87831003e-07
5.34721119e-07
5.3469513e-07
1.14119264e-06
1.01999023e-06
5.34718191e-07
5.34760497e-07
1.13592542e-06
1.01364759e-06
5.3480618e-07
5.3484564e-07
1.10518499e-06
9.90775307e-07
5.34898477e-07
5.34934057e-07
1.06625523e-06
9.60840439e-07
5.34986037e-07
5.3501717e-07
1.02484148e-06
9.29099413e-07
5.35065215e-07
5.35091723e-07
9.83967192e-07
8.97561666e-07
5.35135038e-07
5.35157247e-07
9.44947423e-07
8.67185243e-07
5.3519588e-07
5.35214207e-07
9.0805246e-07
8.38226482e-07
5.35249069e-07
5.35265102e-07
8.72580534e-07
8.09991175e-07
5.35298769e-07
5.3531171e-07
8.38553228e-07
7.82975763e-07
5.35355461e-07
5.35366808e-07
7.90576429e-07
7.43565829e-07
5.35522546e-07
5.35503521e-07
7.36530161e-07
6.90049921e-07
6.21567773e-07
5.95056356e-07
6.44478225e-07
6.18199137e-07
6.2917869e-07
6.08108673e-07
6.21270916e-07
6.0419356e-07
6.12126101e-07
5.98344589e-07
6.02992075e-07
5.91804659e-07
5.93779359e-07
5.84606039e-07
5.84530544e-07
5.76922997e-07
5.75331485e-07
5.68940163e-07
5.66309991e-07
5.6087401e-07
5.57620864e-07
5.52991899e-07
5.49421547e-07
5.45156118e-07
5.4177096e-07
5.38137034e-07
5.35561007e-07
5.35548645e-07
5.35538989e-07
5.35531574e-07
5.35526183e-07
5.35522465e-07
5.35519939e-07
5.3551838e-07
5.35517424e-07
5.35516897e-07
5.35516613e-07
5.35516474e-07
5.35516408e-07
5.35516381e-07
5.3551637e-07
5.35516365e-07
5.35516364e-07
5.35516363e-07
5.35516363e-07
5.35516363e-07
5.35516363e-07
5.35516363e-07
5.35516363e-07
5.35516363e-07
5.35516363e-07
5.35516363e-07
5.35516363e-07
5.35516363e-07
5.35516363e-07
5.35516363e-07
5.35516363e-07
5.35516363e-07
5.35516363e-07
5.35516363e-07
5.35516363e-07
5.35516363e-07
5.35516363e-07
5.35516363e-07
5.35516363e-07
5.35516363e-07
5.35516363e-07
5.35516363e-07
5.35516363e-07
5.35516363e-07
5.35516363e-07
5.35516363e-07
5.35516363e-07
5.35516363e-07
5.35516363e-07
)
;

boundaryField
{
    closed
    {
        type            calculated;
        value           nonuniform List<scalar> 0();
    }
    open
    {
        type            calculated;
        value           uniform 5.35516363e-07;
    }
    sides
    {
        type            empty;
    }
    procBoundary5to4
    {
        type            processor;
        value           uniform 9.8107215e-05;
    }
}


// ************************************************************************* //
