/*--------------------------------*- C++ -*----------------------------------*\
| =========                 |                                                 |
| \\      /  F ield         | OpenFOAM: The Open Source CFD Toolbox           |
|  \\    /   O peration     | Version:  2306                                  |
|   \\  /    A nd           | Website:  www.openfoam.com                      |
|    \\/     M anipulation  |                                                 |
\*---------------------------------------------------------------------------*/
FoamFile
{
    version     2.0;
    format      ascii;
    arch        "LSB;label=32;scalar=64";
    class       volScalarField;
    location    "0.00092";
    object      PV;
}
// * * * * * * * * * * * * * * * * * * * * * * * * * * * * * * * * * * * * * //

dimensions      [0 0 0 0 0 0 0];

internalField   nonuniform List<scalar> 
530
(
0.00681519185
0.00689574818
0.0069217781
0.00683900683
0.00681746738
0.00684536165
0.00691804939
0.00689667393
0.0068191237
0.00683130195
0.00691613831
0.00691848634
0.00682111789
0.00683654675
0.00691028544
0.0069144841
0.00681845047
0.00683876005
0.00690531892
0.00690867863
0.0068181419
0.00683659778
0.00690045386
0.0069027511
0.00681712573
0.00683407513
0.00689441344
0.00689685278
0.00681504583
0.00683090282
0.00688924457
0.00689084831
0.00681367859
0.00682702123
0.00688471921
0.00688518
0.00681169359
0.00682331539
0.00688058337
0.00688047607
0.00681061372
0.00682037778
0.00687648748
0.0068765095
0.00681001372
0.00681739938
0.00687341299
0.00687299436
0.00680940428
0.00681587124
0.00686982022
0.00686937695
0.00680982952
0.0068157152
0.00686538646
0.0068650223
0.00681358411
0.00681868438
0.00684828835
0.00685136782
0.00682492623
0.00682773358
0.00681422159
0.00682204977
0.0068470415
0.0068479546
0.00679548032
0.00680348145
0.00685974993
0.00685880125
0.00679466207
0.0068010778
0.00685910715
0.00685862298
0.00679497328
0.00680023297
0.00685774509
0.00685759525
0.00679548986
0.00680026169
0.00685681474
0.00685684982
0.00679615501
0.0068010732
0.00685646569
0.00685654371
0.00679705378
0.00680252621
0.00685639059
0.00685653718
0.00679825215
0.00680423437
0.00685687034
0.00685696964
0.00679997701
0.00680634856
0.00685789532
0.00685795293
0.00680232114
0.00680883093
0.00685961803
0.00685953845
0.00680527363
0.00681182257
0.00686185127
0.00686169298
0.00680894714
0.00681534678
0.00686465027
0.00686445426
0.0068133
0.00681935166
0.0068680906
0.00686791232
0.0068182995
0.00682391615
0.00687212894
0.00687209288
0.00682380875
0.00682901452
0.0068766565
0.00687669019
0.00682978539
0.00683470339
0.0068814718
0.00688164677
0.00683606608
0.00684084137
0.00688678078
0.00688702629
0.00684268367
0.00684745799
0.0068924181
0.00689272289
0.00684982183
0.00685439401
0.00689918761
0.0068991157
0.0068575439
0.00686194312
0.00690669873
0.0069064345
0.00686540065
0.0068697149
0.00691456888
0.00691409341
0.00687361849
0.00687779214
0.00692261258
0.00692200221
0.00688207771
0.00688613126
0.00693078643
0.006930142
0.00689070627
0.00689467166
0.00693905638
0.00693842778
0.00689946388
0.00690333125
0.00694730601
0.00694681784
0.00690814041
0.00691199938
0.00695523338
0.00695490513
0.00691676988
0.00692052793
0.00696308025
0.006962791
0.0069254573
0.00692912646
0.00697090557
0.00697063841
0.00693411077
0.00693768224
0.00697876573
0.00697852008
0.00694272112
0.00694618654
0.00698662334
0.00698640944
0.00695131086
0.00695465233
0.00699443391
0.00699425508
0.00695990768
0.0069631296
0.00700212021
0.00700198454
0.00696859574
0.006971626
0.0070096116
0.00700953677
0.00697736459
0.00698025263
0.00701704062
0.00701682021
0.00698620642
0.00698904429
0.00702436506
0.00702395649
0.00699499098
0.00699773199
0.00703150064
0.00703111296
0.00700362569
0.00700615317
0.00703842474
0.00703839136
0.00701187063
0.00701446958
0.0070449868
0.00704543455
0.00701952099
0.00702243793
0.00705196061
0.00705232927
0.00702608325
0.00703036636
0.00705909067
0.00705906709
0.00703234564
0.00703742655
0.00706639344
0.00706560959
0.00703906638
0.00704421843
0.00707317126
0.00707201275
0.0070457466
0.00705087758
0.00707941133
0.00707812838
0.00705249796
0.0070573315
0.00708525939
0.00708403053
0.007059079
0.00706365069
0.00709079304
0.0070896163
0.00706542021
0.00706990437
0.00709601572
0.00709489829
0.00707147204
0.00707598327
0.00710098764
0.00709991204
0.00707732207
0.00708181846
0.00710567259
0.00710464412
0.00708300533
0.00708745696
0.00711005468
0.00710914906
0.00708845084
0.00709278753
0.00711428168
0.00711344893
0.00709372238
0.00709777004
0.00711826803
0.00711753687
0.0070987286
0.00710249055
0.00712203507
0.00712139919
0.00710352731
0.00710688878
0.00712561599
0.0071250229
0.00710816297
0.00711116106
0.0071290166
0.00712842923
0.00711231739
0.00711531193
0.00713220538
0.00713156794
0.00711632869
0.00711920067
0.00713514526
0.0071345298
0.00712016999
0.0071228344
0.00713785779
0.00713730993
0.00712382693
0.00712623065
0.00714037418
0.00713990425
0.00712727911
0.00712943437
0.00714271724
0.00714231208
0.00713049195
0.00713245477
0.0071449023
0.00714454553
0.00713348572
0.00713527708
0.00714692563
0.00714661992
0.00713629297
0.00713791082
0.007148784
0.00714852403
0.007138934
0.00714038045
0.00715048817
0.00715027087
0.00714136364
0.00714268633
0.00715209042
0.00715189769
0.00714355002
0.00714484323
0.00715358947
0.0071534046
0.00714555088
0.00714682611
0.00715495553
0.00715478392
0.00714745643
0.00714864837
0.00715619428
0.00715606347
0.00714918731
0.00715032625
0.00715731348
0.00715723917
0.00715079981
0.00715184537
0.00715830551
0.00715831468
0.00715228298
0.00715328383
0.00715918164
0.0071593098
0.00715363365
0.00715457682
0.00715986175
0.00716017172
0.00715507807
0.00715560081
0.007160424
0.00716101213
0.00715649466
0.00715660612
0.00716100751
0.0071617573
0.00715771568
0.00715756661
0.00716158278
0.00716239963
0.00715878005
0.00715846307
0.007162126
0.00716297069
0.00715971548
0.00715928835
0.00716262755
0.00716348201
0.00716054948
0.00716003776
0.00716308699
0.00716393821
0.00716128964
0.00716072249
0.00716350628
0.00716434309
0.00716195508
0.00716133887
0.00716388326
0.00716470344
0.00716255205
0.00716189545
0.00716420775
0.00716503211
0.00716309803
0.0071623881
0.00716451306
0.00716530979
0.00716357726
0.00716283803
0.00716480985
0.00716552207
0.00716397908
0.00716327953
0.00716508534
0.00716564786
0.00716431931
0.00716376867
0.00716535802
0.0071654623
0.00716459404
0.00716454612
0.00716563675
0.00716496977
0.00716481205
0.00716577713
0.00716587911
0.00716485505
0.00716497898
0.00716610823
0.00716609353
0.00716490956
0.00716510464
0.00716631554
0.00716626119
0.00716506751
0.00716526232
0.00716643814
0.00716638768
0.0071652428
0.00716542507
0.00716653381
0.00716648754
0.00716541321
0.00716558153
0.00716661031
0.00716656868
0.00716557264
0.00716572596
0.00716667263
0.00716663554
0.00716571858
0.00716585709
0.00716672396
0.00716669087
0.00716585053
0.00716597522
0.00716676605
0.00716673683
0.00716596911
0.00716608142
0.00716679992
0.00716677382
0.00716607605
0.00716617736
0.00716682506
0.00716680312
0.00716617036
0.00716626129
0.0071668367
0.00716681834
0.00716627221
0.00716634893
0.00716675506
0.00716676605
0.00716634597
0.00716642408
0.00716654385
0.00716658749
0.00716652735
0.00716657373
0.00716657144
0.00716661126
0.00716660419
0.00716663884
0.00716663886
0.0071666689
0.00716667293
0.00716669895
0.00716670596
0.00716672841
0.00716673735
0.00716675655
0.00716676647
0.00716678266
0.0071667928
0.00716680616
0.00716681593
0.00716682656
0.00716683576
0.00716684478
0.0071668524
0.00716685955
0.00716686813
0.00716687826
0.00716688612
0.00716689196
0.00716689608
0.00716689881
0.00716690055
0.00716690157
0.00716690213
0.00716690241
0.00716690254
0.00716690259
0.0071669026
0.00716690261
0.00716690261
0.00716690261
0.00716690261
0.00716690261
0.00716690261
0.00716690261
0.00716690261
0.00716690261
0.00716690261
0.00716690261
0.00716690261
0.00716690261
0.00716690261
0.00716690261
0.00716690261
0.00716690261
0.00716690261
0.00716690261
0.00716690261
0.00716690261
0.00716690261
0.00716690261
0.00716690261
0.00716690261
0.00716690261
0.00716690261
0.00716690261
0.00716690261
0.00716690261
0.00716690261
0.00716690261
0.00716690261
0.00716690261
0.00716690261
0.00716690261
)
;

boundaryField
{
    closed
    {
        type            zeroGradient;
    }
    open
    {
        type            zeroGradient;
    }
    sides
    {
        type            empty;
    }
    procBoundary5to4
    {
        type            processor;
        value           uniform 0.00680634661;
    }
}


// ************************************************************************* //
