/*--------------------------------*- C++ -*----------------------------------*\
| =========                 |                                                 |
| \\      /  F ield         | OpenFOAM: The Open Source CFD Toolbox           |
|  \\    /   O peration     | Version:  2306                                  |
|   \\  /    A nd           | Website:  www.openfoam.com                      |
|    \\/     M anipulation  |                                                 |
\*---------------------------------------------------------------------------*/
FoamFile
{
    version     2.0;
    format      ascii;
    arch        "LSB;label=32;scalar=64";
    class       surfaceScalarField;
    location    "0.00194";
    object      phi;
}
// * * * * * * * * * * * * * * * * * * * * * * * * * * * * * * * * * * * * * //

dimensions      [1 0 -1 0 0 0 0];

oriented        oriented;

internalField   nonuniform List<scalar> 
529
(
1.99051737e-06
1.99584431e-06
2.00113118e-06
2.00637569e-06
2.01157999e-06
2.01674244e-06
2.02186396e-06
2.02694376e-06
2.03198156e-06
2.03697746e-06
2.04192995e-06
2.04684016e-06
2.05170521e-06
2.0565272e-06
2.06130222e-06
2.06603195e-06
2.07071602e-06
2.07535367e-06
2.07994182e-06
2.08448143e-06
2.08897021e-06
2.09340839e-06
2.09779443e-06
2.10212815e-06
2.10641905e-06
2.11065602e-06
2.1148378e-06
2.1189643e-06
2.12303424e-06
2.12704775e-06
2.13100348e-06
2.13490179e-06
2.13874127e-06
2.14252251e-06
2.14624408e-06
2.14990668e-06
2.15350904e-06
2.15705174e-06
2.16053396e-06
2.1639557e-06
2.16732101e-06
2.17062595e-06
2.17387007e-06
2.17705402e-06
2.18017707e-06
2.18323998e-06
2.1862422e-06
2.18918432e-06
2.19206614e-06
2.19488801e-06
2.19765005e-06
2.20035242e-06
2.20299552e-06
2.20557936e-06
2.20810453e-06
2.21057101e-06
2.21297949e-06
2.21532993e-06
2.21762311e-06
2.21985902e-06
2.2220385e-06
2.22416156e-06
2.22622908e-06
2.22824112e-06
2.23019863e-06
2.23210166e-06
2.23395125e-06
2.23574745e-06
2.23749138e-06
2.23918311e-06
2.24082384e-06
2.24240494e-06
2.24393673e-06
2.24541903e-06
2.24685356e-06
2.24824007e-06
2.24958044e-06
2.25087446e-06
2.25212399e-06
2.25332915e-06
2.25449157e-06
2.25561382e-06
2.25669578e-06
2.25773786e-06
2.25874217e-06
2.25970923e-06
2.26064125e-06
2.26153912e-06
2.26240503e-06
2.26324033e-06
2.26404724e-06
2.26482753e-06
2.26558356e-06
2.26631748e-06
2.26703185e-06
2.26772918e-06
2.26841233e-06
2.26908411e-06
2.26974773e-06
2.2704063e-06
2.27106339e-06
2.27172239e-06
2.27238722e-06
2.27306156e-06
2.27374963e-06
2.27445534e-06
2.2751832e-06
2.27593731e-06
2.27672236e-06
2.27754261e-06
2.27840286e-06
2.27930741e-06
2.28026109e-06
2.28126814e-06
2.2823333e-06
2.28346068e-06
2.28465479e-06
2.28591947e-06
2.28725891e-06
2.28867655e-06
2.29017614e-06
2.29176062e-06
2.29343316e-06
2.29519607e-06
2.29705189e-06
2.29900221e-06
2.30104881e-06
2.30319249e-06
2.3054342e-06
2.30777393e-06
2.31021175e-06
2.31274676e-06
2.31537817e-06
2.3181042e-06
2.32092318e-06
2.32383246e-06
2.32682953e-06
2.32991093e-06
2.33307336e-06
2.3363126e-06
2.33962464e-06
2.3430046e-06
2.34644785e-06
2.34994893e-06
2.35350273e-06
2.35710329e-06
2.36074516e-06
2.36442198e-06
2.36812808e-06
2.37185681e-06
2.37560242e-06
2.37935807e-06
2.38311803e-06
2.38687546e-06
2.3906247e-06
2.39435908e-06
2.39807307e-06
2.40176039e-06
2.40541557e-06
2.40903304e-06
2.41260721e-06
2.41613356e-06
2.41960605e-06
2.42302168e-06
2.42637353e-06
2.4296605e-06
2.43287466e-06
2.43601677e-06
2.43907883e-06
2.44206161e-06
2.44496114e-06
2.44777166e-06
2.45050288e-06
2.45312927e-06
2.45568157e-06
2.45811568e-06
2.46045339e-06
2.46269623e-06
2.46483625e-06
2.46688425e-06
2.46882964e-06
2.47067966e-06
2.4724271e-06
2.47407723e-06
2.47562627e-06
2.47707768e-06
2.47843003e-06
2.47968558e-06
2.48084435e-06
2.48190831e-06
2.48287809e-06
2.48375619e-06
2.48454312e-06
2.48524195e-06
2.48585329e-06
2.48638059e-06
2.4868247e-06
2.4871893e-06
2.48747554e-06
2.48768725e-06
2.48782588e-06
2.48789531e-06
2.48789732e-06
2.48783581e-06
2.4877128e-06
2.48753225e-06
2.48729637e-06
2.48700915e-06
2.48667295e-06
2.48629177e-06
2.48586809e-06
2.48540587e-06
2.48490769e-06
2.48437744e-06
2.48381769e-06
2.48323229e-06
2.48262377e-06
2.48199585e-06
2.48135098e-06
2.48069273e-06
2.48002344e-06
2.47934648e-06
2.47866404e-06
2.47797928e-06
2.47729419e-06
2.47661168e-06
2.47593351e-06
2.47526234e-06
2.4745997e-06
2.47394794e-06
2.47330834e-06
2.47268294e-06
2.4720728e-06
2.4714796e-06
2.47090421e-06
2.47034794e-06
2.46981151e-06
2.46929585e-06
2.46880156e-06
2.4683292e-06
2.4678793e-06
2.46745206e-06
2.46704791e-06
2.46666675e-06
2.46630885e-06
2.46597397e-06
2.46566208e-06
2.46537298e-06
2.46510628e-06
2.46486186e-06
2.46463911e-06
2.46443753e-06
2.46425691e-06
2.46409619e-06
2.46395533e-06
2.46383404e-06
2.46372843e-06
2.46366508e-06
2.46365443e-06
2.46349842e-06
2.46353412e-06
2.46352157e-06
2.46354331e-06
2.46356736e-06
2.46361299e-06
2.46366715e-06
2.46373586e-06
2.46381564e-06
2.46390558e-06
2.4640062e-06
2.46411469e-06
2.46423176e-06
2.46435514e-06
2.46448466e-06
2.46461889e-06
2.46475682e-06
2.46489749e-06
2.46503933e-06
2.4651815e-06
2.4653221e-06
2.46546023e-06
2.46559381e-06
2.4657218e-06
2.46584205e-06
2.46595334e-06
2.4660535e-06
2.46614114e-06
2.46621406e-06
2.46627072e-06
2.4663089e-06
2.46632692e-06
2.46632256e-06
2.46629401e-06
2.46623905e-06
2.4661558e-06
2.46604204e-06
2.46589586e-06
2.46571507e-06
2.46549775e-06
2.46524177e-06
2.46494525e-06
2.46460613e-06
2.46422261e-06
2.46379273e-06
2.4633148e-06
2.46278699e-06
2.46220775e-06
2.46157539e-06
2.46088855e-06
2.4601612e-06
2.45937675e-06
2.4585339e-06
2.45763165e-06
2.45666894e-06
2.45564498e-06
2.45455895e-06
2.45341031e-06
2.45219848e-06
2.45092316e-06
2.44958405e-06
2.44818107e-06
2.4467142e-06
2.44518361e-06
2.44358952e-06
2.44193234e-06
2.44021255e-06
2.43843078e-06
2.43658773e-06
2.43468425e-06
2.43272126e-06
2.4306998e-06
2.42862096e-06
2.42648597e-06
2.42429608e-06
2.42205266e-06
2.4197571e-06
2.4174109e-06
2.41501556e-06
2.41257265e-06
2.41008377e-06
2.40755058e-06
2.4049747e-06
2.40235784e-06
2.39970165e-06
2.39700788e-06
2.39427816e-06
2.39151423e-06
2.38871771e-06
2.38589031e-06
2.38303363e-06
2.38014931e-06
2.37723889e-06
2.37430396e-06
2.37134599e-06
2.3683665e-06
2.36537003e-06
2.36235495e-06
2.35932255e-06
2.35627417e-06
2.35321099e-06
2.35013425e-06
2.34704505e-06
2.34394452e-06
2.34083365e-06
2.33771347e-06
2.33458487e-06
2.33144877e-06
2.32830598e-06
2.32515728e-06
2.32200341e-06
2.31884505e-06
2.31568283e-06
2.31251734e-06
2.3093491e-06
2.30617861e-06
2.30300631e-06
2.29983259e-06
2.2966578e-06
2.29348225e-06
2.29030618e-06
2.28712981e-06
2.2839533e-06
2.28077678e-06
2.27760031e-06
2.27442391e-06
2.27124758e-06
2.26807124e-06
2.26489478e-06
2.26171804e-06
2.2585408e-06
2.25536281e-06
2.25218376e-06
2.2490033e-06
2.24582101e-06
2.24263643e-06
2.23944906e-06
2.23625835e-06
2.23306366e-06
2.22986436e-06
2.22665971e-06
2.22344897e-06
2.2202313e-06
2.21700587e-06
2.21377174e-06
2.21052797e-06
2.20727355e-06
2.20400746e-06
2.20072858e-06
2.19743583e-06
2.19412802e-06
2.19080399e-06
2.18748282e-06
2.18414287e-06
2.18078286e-06
2.17740155e-06
2.17399764e-06
2.17056988e-06
2.16711698e-06
2.16363771e-06
2.16013081e-06
2.1565951e-06
2.15302937e-06
2.14943251e-06
2.14580343e-06
2.1421411e-06
2.13844456e-06
2.13471292e-06
2.13094538e-06
2.12714123e-06
2.12329985e-06
2.11942073e-06
2.11550348e-06
2.11154782e-06
2.1075536e-06
2.10352082e-06
2.0994496e-06
2.0953402e-06
2.09119306e-06
2.08700875e-06
2.08278799e-06
2.07853168e-06
2.07424087e-06
2.06991677e-06
2.06556075e-06
2.06117434e-06
2.05675923e-06
2.05231725e-06
2.0478504e-06
2.04336082e-06
2.03885076e-06
2.03432264e-06
2.02977898e-06
2.02521281e-06
2.02031008e-06
2.01504908e-06
2.00940788e-06
2.00336489e-06
1.99689936e-06
1.98999223e-06
1.98262699e-06
1.97479103e-06
1.96647689e-06
1.95768403e-06
1.94842048e-06
1.93870483e-06
1.92857459e-06
1.91806748e-06
1.90724112e-06
1.89616625e-06
1.88492335e-06
1.87359805e-06
1.86227293e-06
1.85101779e-06
1.839878e-06
1.82886402e-06
1.81794432e-06
1.80704546e-06
1.79606133e-06
1.78487055e-06
1.77335594e-06
1.7614124e-06
1.74900843e-06
1.73585936e-06
1.72152426e-06
1.70506718e-06
1.68470607e-06
1.65748513e-06
1.61939324e-06
1.56665369e-06
1.4986252e-06
1.42145074e-06
1.34811426e-06
1.29227739e-06
1.26118217e-06
1.25364217e-06
1.2631366e-06
1.28187118e-06
1.30438678e-06
1.3342663e-06
1.37578261e-06
1.42739624e-06
1.49842151e-06
1.60268257e-06
1.72513825e-06
1.88451419e-06
2.10224417e-06
2.29179769e-06
2.39998196e-06
2.43990015e-06
2.45308512e-06
2.46879083e-06
2.49965418e-06
2.50431615e-06
2.5060079e-06
2.40957083e-06
2.28100784e-06
2.19051076e-06
2.05697195e-06
1.93922957e-06
1.94923668e-06
2.03645052e-06
2.08622425e-06
1.93400483e-06
1.59175711e-06
1.33633646e-06
1.54167629e-06
2.03797735e-06
2.38850214e-06
2.28454631e-06
)
;

boundaryField
{
    closed
    {
        type            calculated;
        value           nonuniform List<scalar> 0();
    }
    open
    {
        type            calculated;
        value           uniform 2.06848163e-06;
    }
    sides
    {
        type            empty;
        value           nonuniform List<scalar> 0();
    }
    procBoundary5to4
    {
        type            processor;
        value           uniform -1.98514738e-06;
    }
}


// ************************************************************************* //
