/*--------------------------------*- C++ -*----------------------------------*\
| =========                 |                                                 |
| \\      /  F ield         | OpenFOAM: The Open Source CFD Toolbox           |
|  \\    /   O peration     | Version:  2306                                  |
|   \\  /    A nd           | Website:  www.openfoam.com                      |
|    \\/     M anipulation  |                                                 |
\*---------------------------------------------------------------------------*/
FoamFile
{
    version     2.0;
    format      ascii;
    arch        "LSB;label=32;scalar=64";
    class       volScalarField;
    location    "0.00194";
    object      prefDh_H;
}
// * * * * * * * * * * * * * * * * * * * * * * * * * * * * * * * * * * * * * //

dimensions      [1 1 -3 0 0 0 0];

internalField   nonuniform List<scalar> 
530
(
92132.1535
92190.6681
92245.6614
92302.1862
92355.221
92409.8649
92461.0721
92513.9418
92563.4429
92614.6436
92662.5518
92712.1876
92758.6088
92806.7838
92851.8171
92898.635
92940.1296
92983.3781
93023.5942
93065.6353
93104.6729
93145.5637
93183.4791
93223.2728
93260.0521
93298.715
93334.4619
93372.1369
93406.9287
93443.6676
93477.5562
93513.41
93546.4452
93581.464
93613.6937
93647.9269
93679.3975
93712.8936
93743.6508
93776.4567
93805.829
93836.652
93864.7556
93894.913
93922.3808
93951.8961
93978.7471
94007.6428
94033.8959
94062.1932
94087.8673
94115.5861
94140.7002
94167.8591
94192.4321
94219.0491
94243.0997
94269.1921
94292.7384
94318.3231
94341.383
94366.4768
94389.0676
94413.6868
94435.8255
94459.9864
94481.6897
94505.4082
94526.6929
94549.9848
94570.8673
94594.1711
94615.1824
94638.407
94659.0173
94681.8397
94702.0687
94724.5053
94744.3725
94766.4402
94785.9645
94807.2551
94825.901
94846.7198
94864.9966
94885.4347
94903.3486
94923.4104
94940.9669
94960.657
94977.8607
94997.1839
95014.0386
95032.9999
95049.509
95068.1134
95084.2796
95102.532
95118.3583
95136.263
95151.7521
95169.3134
95184.468
95201.6895
95216.5122
95233.3976
95247.8907
95264.4433
95278.6093
95294.8321
95308.6732
95324.5689
95338.0873
95353.6585
95366.8563
95382.1054
95394.9844
95409.9138
95422.4758
95437.0875
95449.3343
95463.6304
95475.5635
95489.5459
95501.1667
95514.8372
95526.1471
95539.5074
95550.5077
95563.5595
95574.2514
95586.9962
95597.3809
95609.8202
95619.8987
95632.034
95641.8074
95653.6401
95663.1093
95674.6408
95683.8069
95695.0384
95703.9023
95714.8352
95723.398
95734.0334
95742.2961
95752.6351
95760.5991
95770.6426
95778.3093
95788.0581
95795.4292
95804.8839
95811.9611
95821.1224
95827.9077
95836.7765
95843.2713
95851.849
95858.0543
95866.3436
95872.2591
95880.2645
95885.8877
95893.6169
95898.9424
95906.4069
95911.4263
95918.6408
95923.3474
95930.3235
95934.727
95941.4561
95945.6129
95951.7258
95955.8616
95961.5739
95965.8258
95970.8849
95975.2281
95979.7679
95984.1652
95988.1469
95992.523
95995.9778
96000.3068
96003.2566
96007.3316
96009.8809
96013.8936
96016.0927
96019.8813
96021.7371
96025.2928
96026.8123
96030.1265
96031.3168
96034.3816
96035.249
96038.0577
96038.6078
96041.1544
96041.3922
96043.6713
96043.6012
96045.6083
96045.2341
96046.9652
96046.2901
96047.7418
96046.7688
96047.9382
96046.6698
96047.5545
96045.993
96046.5908
96044.7383
96045.0474
96042.9058
96042.9248
96040.496
96040.2236
96037.5093
96036.9446
96033.9463
96033.0885
96029.8078
96028.6566
96025.0949
96023.6498
96019.8087
96018.0698
96013.9505
96011.918
96007.5219
96005.1963
96000.5244
95997.9067
95992.9599
95990.0513
95984.8304
95981.6326
95976.138
95972.653
95966.8852
95963.115
95957.0744
95953.0208
95946.7082
95942.372
95935.7882
95931.1693
95924.3139
95919.4131
95912.2853
95907.1032
95899.7052
95894.2477
95886.7925
95881.116
95873.2573
95867.1022
95859.1392
95852.6057
95844.4778
95837.6105
95829.2929
95822.1066
95813.5928
95806.0905
95797.3802
95789.5648
95780.6578
95772.5348
95763.4293
95755.0058
95745.6992
95736.9832
95727.4729
95718.4724
95708.7561
95699.4786
95689.5548
95680.0074
95669.875
95660.0644
95649.7231
95639.6554
95629.1053
95618.7864
95608.028
95597.4635
95586.4979
95575.6931
95564.5215
95553.4816
95542.1057
95530.8357
95519.2574
95507.7622
95495.9835
95484.268
95472.2913
95460.3603
95448.1881
95436.0463
95423.6812
95411.3333
95398.7062
95386.0255
95373.1489
95360.2699
95347.2092
95334.1366
95320.8952
95307.6338
95294.2152
95280.7698
95267.1776
95253.553
95239.7909
95225.9917
95212.0637
95198.0946
95184.0046
95169.8704
95155.6225
95141.3278
95126.9262
95112.4757
95097.9246
95083.3231
95068.6269
95053.8791
95039.042
95024.1528
95009.1793
94994.1533
94979.0479
94963.89
94948.6571
94933.3722
94918.0165
94902.6093
94887.1353
94871.6107
94856.0231
94840.3861
94824.6894
94808.9448
94793.1437
94777.2966
94761.3958
94745.4511
94729.4637
94713.4414
94697.3681
94681.2508
94665.0863
94648.8793
94632.6286
94616.3372
94600.0053
94583.6346
94567.2264
94550.7817
94534.3023
94517.7887
94501.2431
94484.6656
94468.059
94451.4228
94434.76
94418.0702
94401.3564
94384.618
94367.8582
94351.0762
94334.2754
94317.4548
94300.618
94283.7638
94266.8959
94250.0131
94233.1191
94216.2126
94199.2974
94182.3721
94165.4405
94148.5013
94131.5582
94114.6098
94097.66
94080.7072
94063.7555
94046.8031
94029.854
94012.9068
93995.9651
93979.0277
93962.0979
93945.1749
93928.2617
93911.3577
93894.4654
93877.5849
93860.7179
93843.8655
93827.0282
93810.2083
93793.3644
93776.4049
93759.4663
93742.5513
93725.6599
93708.7936
93691.9534
93675.1399
93658.3549
93641.5984
93624.8725
93608.1769
93591.5139
93574.8832
93558.2871
93541.7251
93525.1995
93508.7099
93492.2586
93475.8452
93459.4718
93443.1382
93426.8463
93410.5959
93394.389
93378.2253
93362.1068
93346.0333
93330.0065
93314.0264
93298.0947
93282.2112
93266.3777
93250.594
93234.8619
93219.181
93203.5533
93187.9783
93172.4578
93156.9915
93141.5812
93126.2104
93110.3349
93093.3966
93075.3321
93056.073
93035.5503
93013.6911
92990.4209
92965.6636
92939.3405
92911.3748
92881.6845
92850.1966
92816.8393
92781.5745
92744.2832
92704.9101
92663.3993
92619.7123
92573.8234
92525.7257
92475.4362
92422.9974
92368.4851
92312.012
92253.7327
92193.8514
92132.6232
92070.3626
92007.0649
91943.0668
91879.3544
91816.4865
91755.0675
91695.7379
91639.1499
91585.9463
91536.7268
91492.0153
91452.2239
91417.6163
91388.2881
91364.1396
91344.8939
91330.0916
91319.1634
91311.4134
91306.2636
91302.6162
91301.1338
91299.7768
91299.2858
91298.8329
91298.5732
91298.4985
91298.4509
91298.4356
91298.4301
91298.4284
91298.428
91298.4278
91298.4278
91298.4278
91298.4278
91298.4278
91298.4278
91298.4278
91298.4278
91298.4278
91298.4278
91298.4278
91298.4278
91298.4278
91298.4278
91298.4278
91298.4278
91298.4278
91298.4278
)
;

boundaryField
{
    closed
    {
        type            calculated;
        value           nonuniform List<scalar> 0();
    }
    open
    {
        type            calculated;
        value           uniform 91298.4278;
    }
    sides
    {
        type            empty;
    }
    procBoundary5to4
    {
        type            processor;
        value           uniform 92075.0604;
    }
}


// ************************************************************************* //
