/*--------------------------------*- C++ -*----------------------------------*\
| =========                 |                                                 |
| \\      /  F ield         | OpenFOAM: The Open Source CFD Toolbox           |
|  \\    /   O peration     | Version:  2306                                  |
|   \\  /    A nd           | Website:  www.openfoam.com                      |
|    \\/     M anipulation  |                                                 |
\*---------------------------------------------------------------------------*/
FoamFile
{
    version     2.0;
    format      ascii;
    arch        "LSB;label=32;scalar=64";
    class       volScalarField;
    location    "0.00194";
    object      prefDPV_H2;
}
// * * * * * * * * * * * * * * * * * * * * * * * * * * * * * * * * * * * * * //

dimensions      [1 -1 -1 0 0 0 0];

internalField   nonuniform List<scalar> 
530
(
-9.415409e-05
-9.42033698e-05
-9.42496404e-05
-9.42971861e-05
-9.43417782e-05
-9.43876864e-05
-9.44307103e-05
-9.44750753e-05
-9.45166337e-05
-9.45595477e-05
-9.45997361e-05
-9.46412902e-05
-9.46801983e-05
-9.47204828e-05
-9.47581945e-05
-9.47972994e-05
-9.48318781e-05
-9.48678267e-05
-9.49013125e-05
-9.49362249e-05
-9.49687047e-05
-9.50026303e-05
-9.50341517e-05
-9.50671369e-05
-9.50976493e-05
-9.51296169e-05
-9.51592351e-05
-9.51903571e-05
-9.52191594e-05
-9.52494804e-05
-9.52775109e-05
-9.53070745e-05
-9.53343754e-05
-9.53632246e-05
-9.53898364e-05
-9.54180135e-05
-9.54439756e-05
-9.54715218e-05
-9.5496873e-05
-9.55238282e-05
-9.55479754e-05
-9.55732043e-05
-9.55962554e-05
-9.56209212e-05
-9.56434332e-05
-9.56675563e-05
-9.56895457e-05
-9.57131454e-05
-9.57346286e-05
-9.57577233e-05
-9.57787166e-05
-9.58013235e-05
-9.58218434e-05
-9.58439785e-05
-9.58640413e-05
-9.58857201e-05
-9.5905342e-05
-9.59265795e-05
-9.59457761e-05
-9.5966587e-05
-9.59853736e-05
-9.60057722e-05
-9.60241639e-05
-9.60441643e-05
-9.60621757e-05
-9.60817919e-05
-9.60994374e-05
-9.61186831e-05
-9.61359771e-05
-9.61548658e-05
-9.61718224e-05
-9.61907167e-05
-9.62077742e-05
-9.62265998e-05
-9.62433209e-05
-9.62618113e-05
-9.62782126e-05
-9.6296382e-05
-9.63124801e-05
-9.63303427e-05
-9.63461537e-05
-9.63633723e-05
-9.63784563e-05
-9.63952864e-05
-9.64100657e-05
-9.64265831e-05
-9.64410632e-05
-9.6457272e-05
-9.64714579e-05
-9.64873623e-05
-9.65012581e-05
-9.65168624e-05
-9.65304717e-05
-9.65457806e-05
-9.65591064e-05
-9.65741244e-05
-9.65871696e-05
-9.66019009e-05
-9.66146684e-05
-9.66291171e-05
-9.66416094e-05
-9.66557793e-05
-9.6667999e-05
-9.66818936e-05
-9.66938432e-05
-9.67074658e-05
-9.67191478e-05
-9.67325013e-05
-9.67439181e-05
-9.67570054e-05
-9.67681591e-05
-9.67809829e-05
-9.67918757e-05
-9.68044384e-05
-9.68150723e-05
-9.68273762e-05
-9.68377532e-05
-9.68498006e-05
-9.68599224e-05
-9.68717153e-05
-9.68815838e-05
-9.68931242e-05
-9.69027409e-05
-9.69140306e-05
-9.69233971e-05
-9.6934438e-05
-9.69435557e-05
-9.69543495e-05
-9.69632198e-05
-9.69737681e-05
-9.69823923e-05
-9.69926967e-05
-9.7001076e-05
-9.7011138e-05
-9.70192737e-05
-9.70290947e-05
-9.70369879e-05
-9.70465694e-05
-9.70542211e-05
-9.70635645e-05
-9.70709759e-05
-9.70800824e-05
-9.70872547e-05
-9.70961256e-05
-9.71030598e-05
-9.71116963e-05
-9.71183936e-05
-9.71267968e-05
-9.71332585e-05
-9.71414294e-05
-9.7147657e-05
-9.71555963e-05
-9.71615914e-05
-9.71693e-05
-9.71750642e-05
-9.71825429e-05
-9.71880779e-05
-9.71953276e-05
-9.72006348e-05
-9.72076569e-05
-9.72127374e-05
-9.72195342e-05
-9.72243878e-05
-9.72309634e-05
-9.72355882e-05
-9.7241949e-05
-9.72463406e-05
-9.72524963e-05
-9.72566481e-05
-9.72626106e-05
-9.72665175e-05
-9.72722965e-05
-9.72759666e-05
-9.72815548e-05
-9.72850343e-05
-9.72901299e-05
-9.72936036e-05
-9.72983823e-05
-9.73019649e-05
-9.73062187e-05
-9.7309906e-05
-9.73137869e-05
-9.73175605e-05
-9.7320993e-05
-9.73247671e-05
-9.73277766e-05
-9.73315305e-05
-9.73341347e-05
-9.73376901e-05
-9.7339982e-05
-9.73434978e-05
-9.73455286e-05
-9.73488631e-05
-9.73506372e-05
-9.73537844e-05
-9.73553065e-05
-9.73582607e-05
-9.73595354e-05
-9.73622914e-05
-9.7363323e-05
-9.7365876e-05
-9.73666685e-05
-9.73690144e-05
-9.73695712e-05
-9.73717064e-05
-9.73720305e-05
-9.73739518e-05
-9.73740458e-05
-9.73757506e-05
-9.73756168e-05
-9.73771027e-05
-9.73767432e-05
-9.73780082e-05
-9.73774246e-05
-9.73784672e-05
-9.73776611e-05
-9.73784797e-05
-9.73774526e-05
-9.73780462e-05
-9.73767992e-05
-9.73771669e-05
-9.73757013e-05
-9.73758423e-05
-9.73741591e-05
-9.73740729e-05
-9.73721733e-05
-9.73718595e-05
-9.73697445e-05
-9.73692029e-05
-9.73668734e-05
-9.73661039e-05
-9.73635609e-05
-9.73625635e-05
-9.7359808e-05
-9.73585831e-05
-9.73556159e-05
-9.73541639e-05
-9.73509857e-05
-9.73493075e-05
-9.73459189e-05
-9.73440154e-05
-9.7340417e-05
-9.73382896e-05
-9.73344815e-05
-9.73321319e-05
-9.73281142e-05
-9.73255441e-05
-9.73213171e-05
-9.73185279e-05
-9.73140921e-05
-9.73110844e-05
-9.73064405e-05
-9.73032142e-05
-9.72983618e-05
-9.72949175e-05
-9.72898559e-05
-9.7286194e-05
-9.72809252e-05
-9.72770494e-05
-9.72717326e-05
-9.72676854e-05
-9.72620611e-05
-9.72576512e-05
-9.72519412e-05
-9.72472433e-05
-9.72414027e-05
-9.72364501e-05
-9.72304605e-05
-9.72252637e-05
-9.72191205e-05
-9.72136815e-05
-9.72073848e-05
-9.72017057e-05
-9.71952551e-05
-9.71893402e-05
-9.71827342e-05
-9.71765891e-05
-9.71698256e-05
-9.71634564e-05
-9.71565334e-05
-9.7149946e-05
-9.71428619e-05
-9.7136062e-05
-9.71288154e-05
-9.71218084e-05
-9.71143987e-05
-9.71071894e-05
-9.70996164e-05
-9.70922095e-05
-9.70844732e-05
-9.70768731e-05
-9.7068974e-05
-9.70611848e-05
-9.70531236e-05
-9.70451494e-05
-9.70369272e-05
-9.70287717e-05
-9.70203897e-05
-9.70120567e-05
-9.70035164e-05
-9.69950095e-05
-9.69863125e-05
-9.69776354e-05
-9.69687834e-05
-9.69599396e-05
-9.69509347e-05
-9.69419278e-05
-9.69327718e-05
-9.69236053e-05
-9.69142133e-05
-9.69047313e-05
-9.68951168e-05
-9.68854804e-05
-9.68757211e-05
-9.68659338e-05
-9.68560323e-05
-9.68460977e-05
-9.68360567e-05
-9.68259784e-05
-9.68158008e-05
-9.68055823e-05
-9.67952708e-05
-9.67849157e-05
-9.67744734e-05
-9.67639853e-05
-9.67534152e-05
-9.67427976e-05
-9.67321028e-05
-9.67213593e-05
-9.67105431e-05
-9.66996772e-05
-9.66887427e-05
-9.66777582e-05
-9.66667087e-05
-9.6655609e-05
-9.66444479e-05
-9.66332367e-05
-9.66219674e-05
-9.66106482e-05
-9.65992742e-05
-9.65878508e-05
-9.65763754e-05
-9.65648514e-05
-9.65532783e-05
-9.65416573e-05
-9.65299899e-05
-9.65182758e-05
-9.65065175e-05
-9.6494714e-05
-9.64828685e-05
-9.64709793e-05
-9.64590502e-05
-9.64470791e-05
-9.64350698e-05
-9.64230206e-05
-9.64109354e-05
-9.63988109e-05
-9.63866494e-05
-9.63744482e-05
-9.63622126e-05
-9.63499387e-05
-9.6337633e-05
-9.63252905e-05
-9.63129184e-05
-9.63005112e-05
-9.62880766e-05
-9.62756089e-05
-9.62631157e-05
-9.62505913e-05
-9.62380434e-05
-9.62254663e-05
-9.62128675e-05
-9.62002417e-05
-9.6187596e-05
-9.61749253e-05
-9.61622366e-05
-9.61495249e-05
-9.61367972e-05
-9.61240484e-05
-9.61112854e-05
-9.60985034e-05
-9.6085709e-05
-9.60728977e-05
-9.60600758e-05
-9.60472389e-05
-9.60343933e-05
-9.60215347e-05
-9.60086692e-05
-9.59957926e-05
-9.5982911e-05
-9.59700202e-05
-9.59571262e-05
-9.5944225e-05
-9.59313224e-05
-9.59184144e-05
-9.59055068e-05
-9.58925958e-05
-9.58796868e-05
-9.58667765e-05
-9.58538697e-05
-9.58409636e-05
-9.58280627e-05
-9.58151644e-05
-9.58022728e-05
-9.57893859e-05
-9.57765072e-05
-9.57636352e-05
-9.57507726e-05
-9.57379191e-05
-9.57250761e-05
-9.57122444e-05
-9.56993759e-05
-9.56863588e-05
-9.56733569e-05
-9.56603714e-05
-9.56474032e-05
-9.56344526e-05
-9.56215213e-05
-9.56086089e-05
-9.55957176e-05
-9.55828466e-05
-9.55699984e-05
-9.55571719e-05
-9.55443698e-05
-9.55315909e-05
-9.55188378e-05
-9.55061095e-05
-9.54934085e-05
-9.54807337e-05
-9.54680877e-05
-9.54554693e-05
-9.5442881e-05
-9.54303219e-05
-9.54177942e-05
-9.54052971e-05
-9.53928328e-05
-9.53804004e-05
-9.53680021e-05
-9.53556371e-05
-9.53433075e-05
-9.53310125e-05
-9.53187541e-05
-9.53065316e-05
-9.5294347e-05
-9.52821995e-05
-9.5270091e-05
-9.5258021e-05
-9.52459911e-05
-9.52340008e-05
-9.52220519e-05
-9.52101436e-05
-9.51982779e-05
-9.51864415e-05
-9.51742158e-05
-9.51611706e-05
-9.51472571e-05
-9.51324222e-05
-9.51166128e-05
-9.50997721e-05
-9.50818428e-05
-9.50627657e-05
-9.504248e-05
-9.5020926e-05
-9.49980401e-05
-9.49737659e-05
-9.49480409e-05
-9.49208216e-05
-9.48920329e-05
-9.48616326e-05
-9.48295762e-05
-9.47958337e-05
-9.47603847e-05
-9.4723223e-05
-9.46843617e-05
-9.46438328e-05
-9.4601695e-05
-9.4558035e-05
-9.45129727e-05
-9.44666662e-05
-9.44193136e-05
-9.43711588e-05
-9.4322075e-05
-9.42722898e-05
-9.42227288e-05
-9.41738286e-05
-9.41260621e-05
-9.407993e-05
-9.40359421e-05
-9.39946006e-05
-9.39563738e-05
-9.39216696e-05
-9.38908082e-05
-9.3863993e-05
-9.3841295e-05
-9.38226325e-05
-9.38077846e-05
-9.3796389e-05
-9.37879966e-05
-9.37820644e-05
-9.37781355e-05
-9.37753686e-05
-9.3774251e-05
-9.37732368e-05
-9.37728797e-05
-9.37725287e-05
-9.37723274e-05
-9.37722697e-05
-9.3772233e-05
-9.37722212e-05
-9.3772217e-05
-9.37722157e-05
-9.37722154e-05
-9.37722153e-05
-9.37722152e-05
-9.37722152e-05
-9.37722152e-05
-9.37722152e-05
-9.37722152e-05
-9.37722152e-05
-9.37722152e-05
-9.37722152e-05
-9.37722152e-05
-9.37722152e-05
-9.37722152e-05
-9.37722152e-05
-9.37722152e-05
-9.37722152e-05
-9.37722152e-05
-9.37722152e-05
-9.37722152e-05
)
;

boundaryField
{
    closed
    {
        type            calculated;
        value           nonuniform List<scalar> 0();
    }
    open
    {
        type            calculated;
        value           uniform -9.37722152e-05;
    }
    sides
    {
        type            empty;
    }
    procBoundary5to4
    {
        type            processor;
        value           uniform -9.41060219e-05;
    }
}


// ************************************************************************* //
