/*--------------------------------*- C++ -*----------------------------------*\
| =========                 |                                                 |
| \\      /  F ield         | OpenFOAM: The Open Source CFD Toolbox           |
|  \\    /   O peration     | Version:  2306                                  |
|   \\  /    A nd           | Website:  www.openfoam.com                      |
|    \\/     M anipulation  |                                                 |
\*---------------------------------------------------------------------------*/
FoamFile
{
    version     2.0;
    format      ascii;
    arch        "LSB;label=32;scalar=64";
    class       volScalarField;
    location    "0.0019";
    object      prefDZ_T;
}
// * * * * * * * * * * * * * * * * * * * * * * * * * * * * * * * * * * * * * //

dimensions      [1 -1 -1 -1 0 0 0];

internalField   nonuniform List<scalar> 
531
(
-1.22714112e-09
-1.23005073e-09
-1.22644905e-09
-1.22718741e-09
-1.19732693e-09
-1.1898036e-09
-1.18571373e-09
-1.18561257e-09
-1.23136918e-09
-1.22806611e-09
-1.18871697e-09
-1.18673327e-09
-1.23100752e-09
-1.2279242e-09
-1.18929753e-09
-1.18675337e-09
-1.23003092e-09
-1.22870295e-09
-1.1937416e-09
-1.1843645e-09
-1.1840742e-09
-1.23079481e-09
-1.22824391e-09
-1.18865144e-09
-1.1873638e-09
-1.23176355e-09
-1.22740799e-09
-1.22882946e-09
-1.18946094e-09
-1.18811942e-09
-1.23183187e-09
-1.22643384e-09
-1.22928308e-09
-1.19759507e-09
-1.18387937e-09
-1.18408652e-09
-1.23116116e-09
-1.22764627e-09
-1.22893802e-09
-1.19046408e-09
-1.1883542e-09
-1.23115705e-09
-1.22633766e-09
-1.22860699e-09
-1.1988925e-09
-1.18588526e-09
-1.18563225e-09
-1.22949569e-09
-1.22776273e-09
-1.19374279e-09
-1.18848403e-09
-1.18457834e-09
-1.18468957e-09
-1.23207945e-09
-1.22754862e-09
-1.2295081e-09
-1.19113735e-09
-1.18705276e-09
-1.23030544e-09
-1.22749508e-09
-1.18971229e-09
-1.18822796e-09
-1.23056981e-09
-1.22693549e-09
-1.18958026e-09
-1.18940086e-09
-1.23031638e-09
-1.19821847e-09
-1.18539993e-09
-1.22987075e-09
-1.22833538e-09
-1.19013759e-09
-1.1875845e-09
-1.22951404e-09
-1.22832229e-09
-1.19595888e-09
-1.18549941e-09
-1.18543023e-09
-1.23022314e-09
-1.22728537e-09
-1.22780756e-09
-1.19094827e-09
-1.18869417e-09
-1.22919332e-09
-1.22763546e-09
-1.19869479e-09
-1.18803836e-09
-1.18784021e-09
-1.18305428e-09
-1.18268113e-09
-1.23319828e-09
-1.22816894e-09
-1.23075342e-09
-1.22686425e-09
-1.22843043e-09
-1.19741284e-09
-1.18623103e-09
-1.18549931e-09
-1.23030174e-09
-1.22748901e-09
-1.18998589e-09
-1.18784465e-09
-1.23069041e-09
-1.22690473e-09
-1.18939342e-09
-1.18916399e-09
-1.2304324e-09
-1.19585842e-09
-1.18499456e-09
-1.23037617e-09
-1.22811323e-09
-1.18917351e-09
-1.1874458e-09
-1.23098442e-09
-1.22723805e-09
-1.18860119e-09
-1.18831409e-09
-1.23117659e-09
-1.2262599e-09
-1.22877908e-09
-1.20068645e-09
-1.18604611e-09
-1.18585034e-09
-1.22953855e-09
-1.22838933e-09
-1.19671247e-09
-1.1859293e-09
-1.18552837e-09
-1.22988612e-09
-1.22754422e-09
-1.19066705e-09
-1.18817854e-09
-1.23009154e-09
-1.22690518e-09
-1.19079747e-09
-1.18888995e-09
-1.22953486e-09
-1.22674831e-09
-1.19493538e-09
-1.18951694e-09
-1.18638086e-09
-1.18609451e-09
-1.23116498e-09
-1.22763407e-09
-1.18836602e-09
-1.18803794e-09
-1.23182751e-09
-1.22675339e-09
-1.22867302e-09
-1.1911085e-09
-1.18747876e-09
-1.23038402e-09
-1.22739249e-09
-1.18980273e-09
-1.18808411e-09
-1.23082959e-09
-1.22701092e-09
-1.18907995e-09
-1.18886311e-09
-1.2308857e-09
-1.22630806e-09
-1.22796011e-09
-1.20265562e-09
-1.18915303e-09
-1.18618055e-09
-1.18586876e-09
-1.23149811e-09
-1.22781712e-09
-1.18890518e-09
-1.18685318e-09
-1.23173999e-09
-1.22734375e-09
-1.18801358e-09
-1.18745123e-09
-1.23199962e-09
-1.22628739e-09
-1.22947372e-09
-1.19571888e-09
-1.1844971e-09
-1.18385706e-09
-1.23113588e-09
-1.22808926e-09
-1.1891017e-09
-1.1869605e-09
-1.23276172e-09
-1.22735139e-09
-1.22987979e-09
-1.22683229e-09
-1.21305566e-09
-1.19051271e-09
-1.1889388e-09
-1.18805887e-09
-1.18392896e-09
-1.18360452e-09
-1.23291692e-09
-1.22865758e-09
-1.22930547e-09
-1.22803919e-09
-1.19812696e-09
-1.18863844e-09
-1.18526374e-09
-1.18524107e-09
-1.23216151e-09
-1.22753101e-09
-1.22896308e-09
-1.19066746e-09
-1.18827054e-09
-1.23147685e-09
-1.22649044e-09
-1.22857176e-09
-1.19899138e-09
-1.18623287e-09
-1.18602408e-09
-1.23000724e-09
-1.22857432e-09
-1.19568751e-09
-1.18541284e-09
-1.1849451e-09
-1.23085589e-09
-1.22768157e-09
-1.18948633e-09
-1.18821417e-09
-1.23224079e-09
-1.22625003e-09
-1.22906328e-09
-1.19686584e-09
-1.18506304e-09
-1.1846251e-09
-1.23116843e-09
-1.22747202e-09
-1.2279502e-09
-1.18994417e-09
-1.18664152e-09
-1.23020763e-09
-1.22986439e-09
-1.1937814e-09
-1.23119903e-09
-1.22588841e-09
-1.19276155e-09
-1.18959873e-09
-1.18635881e-09
-1.18595639e-09
-1.23163487e-09
-1.22677494e-09
-1.22833556e-09
-1.19776062e-09
-1.18756136e-09
-1.18776213e-09
-1.18328983e-09
-1.18300973e-09
-1.23313802e-09
-1.22858623e-09
-1.22915346e-09
-1.18806369e-09
-1.18543212e-09
-1.23342636e-09
-1.22857712e-09
-1.22954287e-09
-1.22830295e-09
-1.19192177e-09
-1.18749702e-09
-1.23016339e-09
-1.22855157e-09
-1.19504548e-09
-1.18557447e-09
-1.18501671e-09
-1.23149156e-09
-1.22790533e-09
-1.18986993e-09
-1.18816553e-09
-1.23282234e-09
-1.22809354e-09
-1.22958638e-09
-1.22145306e-09
-1.18805023e-09
-1.1871149e-09
-1.18277887e-09
-1.18241091e-09
-1.23379687e-09
-1.2283589e-09
-1.23072617e-09
-1.2270019e-09
-1.22791591e-09
-1.19500331e-09
-1.18626819e-09
-1.1855137e-09
-1.23142875e-09
-1.22749395e-09
-1.18982547e-09
-1.18867457e-09
-1.23234344e-09
-1.22633596e-09
-1.22865742e-09
-1.20225812e-09
-1.18763452e-09
-1.18784657e-09
-1.18338683e-09
-1.18312018e-09
-1.23365201e-09
-1.22864876e-09
-1.22933654e-09
-1.1879954e-09
-1.18475788e-09
-1.23375987e-09
-1.22881245e-09
-1.22945459e-09
-1.22845189e-09
-1.19237996e-09
-1.18693211e-09
-1.20281345e-09
-1.22852214e-09
-1.22689279e-09
-1.22691353e-09
-1.22753495e-09
-1.19443698e-09
-1.18715838e-09
-1.18371395e-09
-1.18357345e-09
-1.23347436e-09
-1.22881837e-09
-1.18674675e-09
-1.1848264e-09
-1.23393852e-09
-1.22847994e-09
-1.22944132e-09
-1.22813098e-09
-1.19424146e-09
-1.18739751e-09
-1.18403539e-09
-1.18394335e-09
-1.23325523e-09
-1.22765806e-09
-1.22939198e-09
-1.18951743e-09
-1.18635755e-09
-1.23221174e-09
-1.22650363e-09
-1.2284247e-09
-1.19268534e-09
-1.18341648e-09
-1.18291275e-09
-1.23169327e-09
-1.22792559e-09
-1.18671725e-09
-1.18332318e-09
-1.23289749e-09
-1.22766202e-09
-1.22839842e-09
-1.22740582e-09
-1.18825268e-09
-1.18209517e-09
-1.17691054e-09
-1.17653543e-09
-1.23506027e-09
-1.22782014e-09
-1.23103383e-09
-1.22644946e-09
-1.22775247e-09
-1.22438204e-09
-1.22469204e-09
-1.18153378e-09
-1.17837809e-09
-1.22607234e-09
-1.22103803e-09
-1.22159173e-09
-1.17745189e-09
-1.17339376e-09
-1.22292761e-09
-1.21650101e-09
-1.21837671e-09
-1.21368434e-09
-1.21412667e-09
-1.21041674e-09
-1.20995029e-09
-1.20675213e-09
-1.20567298e-09
-1.20272252e-09
-1.20121364e-09
-1.1982785e-09
-1.19649322e-09
-1.19359308e-09
-1.19156887e-09
-1.18872214e-09
-1.18653785e-09
-1.18380203e-09
-1.181596e-09
-1.1791166e-09
-1.17700931e-09
-1.17530644e-09
-1.17460963e-09
-1.17419726e-09
-1.17052983e-09
-1.16739141e-09
-1.16334884e-09
-1.15968705e-09
-1.15538168e-09
-1.15120851e-09
-1.14661127e-09
-1.14192043e-09
-1.13702456e-09
-1.13195364e-09
-1.12742839e-09
-1.12330502e-09
-1.12231619e-09
-1.12114937e-09
-1.11614513e-09
-1.11238814e-09
-1.10493353e-09
-1.10073159e-09
-1.0912962e-09
-1.08684453e-09
-1.07531755e-09
-1.06947841e-09
-1.05536309e-09
-1.04986996e-09
-1.03479092e-09
-1.0299879e-09
-1.01352941e-09
-1.00996226e-09
-9.92323334e-10
-1.03119461e-09
-1.00731347e-09
-1.0022664e-09
-9.81785157e-10
-9.7317245e-10
-9.54893884e-10
-9.43572727e-10
-9.265424e-10
-9.12803793e-10
-8.96348837e-10
-8.79157814e-10
-8.65336351e-10
-8.52788668e-10
-8.42494212e-10
-8.28662361e-10
-8.18276471e-10
-8.03212396e-10
-7.93030695e-10
-7.76658207e-10
-7.81269331e-10
-7.63991556e-10
-7.45741897e-10
-7.24926516e-10
-7.08340035e-10
-6.87492749e-10
-6.82544294e-10
-6.74041823e-10
-6.59183007e-10
-6.00429954e-10
-5.86722619e-10
-5.57038393e-10
-5.4257938e-10
-5.14576229e-10
-5.00573222e-10
-4.74087675e-10
-4.60711981e-10
-4.35714802e-10
-4.23205441e-10
-3.99636286e-10
-3.88298467e-10
-3.66508587e-10
-3.56508061e-10
-3.36539864e-10
-3.2779602e-10
-3.09703577e-10
-3.0217937e-10
-2.85966738e-10
-2.79383591e-10
-2.64791955e-10
-2.59007231e-10
-2.45866129e-10
-2.40739015e-10
-2.28891914e-10
-2.24333087e-10
-2.13686639e-10
-2.09636974e-10
-2.00128168e-10
-1.96321759e-10
-1.87818384e-10
-1.84363226e-10
-1.76898784e-10
-1.73381961e-10
-1.66627034e-10
-1.63734017e-10
-1.57959406e-10
-1.54436597e-10
-1.48747401e-10
-1.47607212e-10
-1.4376418e-10
-1.38315987e-10
-1.32878205e-10
-1.37005467e-10
-1.36337647e-10
-1.22475537e-10
-1.16366413e-10
-1.32872778e-10
-1.34573273e-10
-1.06017778e-10
-9.50077583e-11
-1.28950148e-10
-1.29336945e-10
-9.0432489e-11
-8.60948031e-11
-1.16691459e-10
-1.19494763e-10
-8.61296534e-11
-8.62748739e-11
-1.0534792e-10
-1.12578378e-10
-8.65288032e-11
-8.66699245e-11
-9.98632887e-11
-1.06288674e-10
-8.69217351e-11
-8.69441553e-11
-9.6643448e-11
-1.0243138e-10
-8.98474544e-11
-8.71723566e-11
-9.13573019e-11
-9.97403686e-11
-9.48683526e-11
-8.73417318e-11
-8.75505402e-11
-9.74957887e-11
-9.48892334e-11
-8.74873231e-11
-8.7437059e-11
-9.62350458e-11
-9.39765215e-11
-8.76047167e-11
)
;

boundaryField
{
    closed
    {
        type            calculated;
        value           nonuniform List<scalar> 0();
    }
    open
    {
        type            calculated;
        value           nonuniform List<scalar> 0();
    }
    sides
    {
        type            empty;
    }
    procBoundary4to3
    {
        type            processor;
        value           uniform -1.23290452e-09;
    }
    procBoundary4to5
    {
        type            processor;
        value           uniform -8.75756109e-11;
    }
}


// ************************************************************************* //
