/*--------------------------------*- C++ -*----------------------------------*\
| =========                 |                                                 |
| \\      /  F ield         | OpenFOAM: The Open Source CFD Toolbox           |
|  \\    /   O peration     | Version:  2306                                  |
|   \\  /    A nd           | Website:  www.openfoam.com                      |
|    \\/     M anipulation  |                                                 |
\*---------------------------------------------------------------------------*/
FoamFile
{
    version     2.0;
    format      ascii;
    arch        "LSB;label=32;scalar=64";
    class       volScalarField;
    location    "0.00138";
    object      prefDPV_T;
}
// * * * * * * * * * * * * * * * * * * * * * * * * * * * * * * * * * * * * * //

dimensions      [1 -1 -1 -1 0 0 0];

internalField   nonuniform List<scalar> 
530
(
6.12609505e-10
6.08922033e-10
6.09493892e-10
6.01941243e-10
5.91018938e-10
5.88683928e-10
5.88391018e-10
6.11464487e-10
6.09408413e-10
5.90759841e-10
5.89152119e-10
6.11430571e-10
6.09136824e-10
5.9035825e-10
5.89592079e-10
6.10092245e-10
6.08732078e-10
6.09996353e-10
5.9884201e-10
5.8794514e-10
5.87655565e-10
6.0905888e-10
6.09614491e-10
6.09953739e-10
6.09107232e-10
5.98895109e-10
5.90754274e-10
5.88397008e-10
5.88253452e-10
6.12780743e-10
6.08957486e-10
6.09278627e-10
5.91685884e-10
5.89970754e-10
6.11521182e-10
6.0881407e-10
5.94862234e-10
5.90999597e-10
5.88775719e-10
5.88715385e-10
6.12632999e-10
6.08934272e-10
6.09581602e-10
5.91839275e-10
5.90092755e-10
6.12205137e-10
6.09034675e-10
6.09608766e-10
6.03855756e-10
5.90256726e-10
5.9002101e-10
5.87786865e-10
5.87692287e-10
6.12683625e-10
6.09255681e-10
6.09398329e-10
5.91019453e-10
5.89626332e-10
6.11622926e-10
6.09416846e-10
5.96687733e-10
5.88817202e-10
5.88574603e-10
6.12258635e-10
6.0874371e-10
6.09521979e-10
5.96835533e-10
5.88979328e-10
5.88649605e-10
6.11977177e-10
6.08966337e-10
5.91039346e-10
5.90151481e-10
6.11855934e-10
6.08362967e-10
6.08944646e-10
5.96462031e-10
5.90770372e-10
5.88997891e-10
5.88915856e-10
6.11695565e-10
6.09607065e-10
5.93246228e-10
5.87984355e-10
5.8785539e-10
6.1203927e-10
6.0902151e-10
6.09325762e-10
5.9189602e-10
5.90137751e-10
6.11070659e-10
6.08932179e-10
5.93077216e-10
5.90608115e-10
5.87756494e-10
5.87655209e-10
6.12003075e-10
6.09588897e-10
6.10820378e-10
6.09076034e-10
6.0921569e-10
5.91190016e-10
5.89374118e-10
6.11495013e-10
6.09073142e-10
5.90638764e-10
5.89279197e-10
6.11575532e-10
6.08938528e-10
5.90930008e-10
5.89825555e-10
6.11067085e-10
6.08725865e-10
5.93780375e-10
5.9070193e-10
5.88892683e-10
5.88835877e-10
6.11700054e-10
6.08755696e-10
6.09306569e-10
5.92295546e-10
5.89840991e-10
6.10723677e-10
6.09248059e-10
5.96055458e-10
5.88819799e-10
5.88611042e-10
6.11180954e-10
6.09207989e-10
5.91192268e-10
5.89453055e-10
6.10830589e-10
6.09373798e-10
5.94813435e-10
5.88585721e-10
5.88302038e-10
6.11260341e-10
6.09107766e-10
5.90992426e-10
5.89418867e-10
6.11311232e-10
6.0880888e-10
5.90913961e-10
5.89617052e-10
6.11237931e-10
6.08706032e-10
5.90978301e-10
5.8975306e-10
6.11108234e-10
6.08628713e-10
5.91124166e-10
5.89979603e-10
6.10894641e-10
6.08541982e-10
5.91399199e-10
5.90406973e-10
6.10524802e-10
6.08424471e-10
5.94652923e-10
5.90950501e-10
5.88920643e-10
5.88740635e-10
6.11770462e-10
6.09094071e-10
6.09920423e-10
6.08754412e-10
6.00035937e-10
5.90962226e-10
5.89135329e-10
5.89027732e-10
6.10979144e-10
5.92626972e-10
5.88342535e-10
6.11170685e-10
6.09314995e-10
5.90542614e-10
5.89489189e-10
6.11306177e-10
6.08871957e-10
5.90359011e-10
5.90147054e-10
6.11381771e-10
6.0838831e-10
6.09120118e-10
5.93900956e-10
5.90327351e-10
5.88061121e-10
5.8796351e-10
6.12242994e-10
6.09260872e-10
6.1053326e-10
6.08679222e-10
6.09087506e-10
5.94822197e-10
5.89129052e-10
5.88964979e-10
6.10748451e-10
6.09491255e-10
5.93431936e-10
5.88259569e-10
5.88066115e-10
6.1103947e-10
6.09076139e-10
5.90525853e-10
5.90311089e-10
6.11344954e-10
5.91976536e-10
5.88398812e-10
6.11777653e-10
6.09168354e-10
6.10139281e-10
5.91195598e-10
5.88978511e-10
6.11741082e-10
6.09500927e-10
6.09990426e-10
6.09418067e-10
6.00124004e-10
5.89265683e-10
5.89139999e-10
6.10639225e-10
6.08952628e-10
5.93740501e-10
5.90455131e-10
5.88901675e-10
5.88757284e-10
6.11417189e-10
6.0863688e-10
6.09659058e-10
5.93830139e-10
5.8859206e-10
5.88270169e-10
6.10892499e-10
6.09114721e-10
5.9092897e-10
5.89641062e-10
6.1103636e-10
6.08723084e-10
5.90524157e-10
5.90263041e-10
6.11122891e-10
6.08296261e-10
6.09087654e-10
5.947468e-10
5.90434819e-10
5.88979384e-10
5.88918759e-10
6.10987312e-10
6.09232239e-10
5.91026348e-10
5.89776198e-10
6.10487304e-10
6.09486095e-10
5.95911484e-10
5.88585783e-10
5.88392398e-10
6.11492008e-10
6.09223509e-10
6.10213685e-10
6.08755728e-10
6.08955759e-10
5.91624577e-10
5.89925404e-10
5.87778706e-10
5.87897177e-10
6.11883291e-10
6.0927458e-10
6.09821171e-10
5.90900089e-10
5.88870608e-10
6.10760519e-10
6.09995031e-10
5.92452149e-10
5.87154145e-10
5.86942179e-10
6.11965054e-10
6.09712668e-10
6.10318556e-10
6.09267506e-10
5.91151851e-10
5.90418728e-10
6.11542588e-10
5.91446648e-10
5.87374017e-10
6.12166352e-10
6.09859398e-10
6.10460435e-10
6.09382551e-10
5.90967734e-10
5.90259605e-10
6.11465276e-10
5.91386905e-10
5.88170804e-10
6.11875498e-10
6.09088633e-10
6.10187596e-10
5.92496031e-10
5.87017531e-10
5.86891629e-10
6.11802545e-10
6.1005812e-10
6.09985477e-10
6.09848508e-10
5.97172446e-10
5.88781241e-10
5.89023209e-10
6.10850105e-10
5.94358892e-10
5.88694794e-10
6.10468761e-10
6.09703387e-10
5.94910383e-10
5.88509981e-10
5.8838001e-10
6.10905828e-10
6.08902073e-10
6.09468223e-10
5.91460128e-10
5.8987282e-10
6.10766079e-10
6.08818249e-10
5.90617462e-10
5.90152789e-10
6.11263195e-10
6.08804614e-10
6.09419404e-10
6.02420391e-10
5.90895223e-10
5.88979805e-10
5.88974177e-10
6.10722161e-10
5.92194625e-10
5.88341845e-10
6.11170742e-10
6.09433652e-10
5.9013357e-10
5.89068047e-10
6.119271e-10
6.09163946e-10
6.09939752e-10
6.08935427e-10
5.96773757e-10
5.90504283e-10
5.89213048e-10
5.89062816e-10
6.10933953e-10
6.09570423e-10
5.92552777e-10
5.87908011e-10
5.87838765e-10
6.11254104e-10
6.09103335e-10
6.0973665e-10
5.91309418e-10
5.89325066e-10
6.11068308e-10
6.09114493e-10
5.90655774e-10
5.89603923e-10
6.11360457e-10
6.09021087e-10
5.90334733e-10
5.89920927e-10
6.12054991e-10
6.10044019e-10
6.10630572e-10
6.11041457e-10
5.88939997e-10
5.88838658e-10
6.1204121e-10
5.91247213e-10
5.88803179e-10
6.11674119e-10
6.08863251e-10
6.09767956e-10
5.92493872e-10
5.8959047e-10
6.10431047e-10
6.09269525e-10
5.95473276e-10
5.89246729e-10
5.89080815e-10
6.10620024e-10
6.08709043e-10
6.00475876e-10
5.91208921e-10
5.89414722e-10
5.89312228e-10
6.10822881e-10
5.92862129e-10
5.88803613e-10
6.11245534e-10
6.09423041e-10
5.90304548e-10
5.89109158e-10
6.12230798e-10
6.09444063e-10
6.10230902e-10
6.09433107e-10
5.91345424e-10
5.89033079e-10
6.10861807e-10
6.0946896e-10
5.93085703e-10
5.88915709e-10
5.88812774e-10
6.10672711e-10
6.09441102e-10
5.96029297e-10
5.89278116e-10
5.89085689e-10
6.10808287e-10
6.09197048e-10
5.91551092e-10
5.89629337e-10
6.10693492e-10
6.09480068e-10
5.93833973e-10
5.88144151e-10
5.88026038e-10
6.11401252e-10
6.09154143e-10
6.09620213e-10
5.90929739e-10
5.89146024e-10
6.11490457e-10
6.09180854e-10
5.89801041e-10
5.8924616e-10
6.11957549e-10
6.08871061e-10
6.09532048e-10
5.9086426e-10
5.89104409e-10
6.11215125e-10
6.0930826e-10
5.91046968e-10
5.89408828e-10
6.10858658e-10
6.09576525e-10
5.93729491e-10
5.88660989e-10
5.88393295e-10
6.1126961e-10
6.09305567e-10
5.90545992e-10
5.89500523e-10
6.11924893e-10
6.08980876e-10
6.09592601e-10
5.90654014e-10
5.88984603e-10
6.11756949e-10
6.09182374e-10
5.89900286e-10
5.89565964e-10
6.12239927e-10
6.08543846e-10
6.10037672e-10
5.95303414e-10
5.88642516e-10
5.88666063e-10
6.11179607e-10
5.91490081e-10
5.88737319e-10
6.12332366e-10
6.10160014e-10
6.10784335e-10
6.10005733e-10
5.89535831e-10
5.89150264e-10
6.12370524e-10
5.92927855e-10
5.88569847e-10
6.11379655e-10
6.09319715e-10
5.9105595e-10
5.89819645e-10
6.1138887e-10
6.08764575e-10
5.90630795e-10
5.90196013e-10
6.11772516e-10
6.08383925e-10
6.09704834e-10
5.97653672e-10
5.89020379e-10
5.88875744e-10
6.1064187e-10
5.95294973e-10
5.8921851e-10
6.10862281e-10
6.08942151e-10
5.91431151e-10
5.90295684e-10
6.10606791e-10
6.08569622e-10
5.95029578e-10
5.90940259e-10
5.8937761e-10
5.89281841e-10
6.11215237e-10
6.09431291e-10
5.90802736e-10
5.88510189e-10
6.11106652e-10
6.10853085e-10
5.91348654e-10
6.1207781e-10
6.08245374e-10
5.90762036e-10
5.90034343e-10
6.11065661e-10
6.08530365e-10
5.93777364e-10
5.90692631e-10
5.89351003e-10
5.89052579e-10
6.11610979e-10
6.09141593e-10
5.90293576e-10
5.89001342e-10
6.12421949e-10
6.09253013e-10
6.10110086e-10
6.09198373e-10
5.92223729e-10
5.89456749e-10
6.10811716e-10
6.09299532e-10
)
;

boundaryField
{
    closed
    {
        type            calculated;
        value           nonuniform List<scalar> 0();
    }
    open
    {
        type            calculated;
        value           nonuniform List<scalar> 0();
    }
    sides
    {
        type            empty;
    }
    procBoundary2to1
    {
        type            processor;
        value           uniform 5.90219993e-10;
    }
    procBoundary2to3
    {
        type            processor;
        value           uniform 5.93676896e-10;
    }
}


// ************************************************************************* //
