/*--------------------------------*- C++ -*----------------------------------*\
| =========                 |                                                 |
| \\      /  F ield         | OpenFOAM: The Open Source CFD Toolbox           |
|  \\    /   O peration     | Version:  2306                                  |
|   \\  /    A nd           | Website:  www.openfoam.com                      |
|    \\/     M anipulation  |                                                 |
\*---------------------------------------------------------------------------*/
FoamFile
{
    version     2.0;
    format      ascii;
    arch        "LSB;label=32;scalar=64";
    class       volScalarField;
    location    "0.00138";
    object      prefDZ_T;
}
// * * * * * * * * * * * * * * * * * * * * * * * * * * * * * * * * * * * * * //

dimensions      [1 -1 -1 -1 0 0 0];

internalField   nonuniform List<scalar> 
530
(
-1.23489794e-09
-1.227437e-09
-1.22859385e-09
-1.21303848e-09
-1.19056842e-09
-1.18559783e-09
-1.18501504e-09
-1.23255357e-09
-1.22842836e-09
-1.18999292e-09
-1.18663079e-09
-1.23248399e-09
-1.22787912e-09
-1.18914836e-09
-1.18756133e-09
-1.22974297e-09
-1.22705764e-09
-1.22961043e-09
-1.20668039e-09
-1.18404261e-09
-1.18346672e-09
-1.22762663e-09
-1.22884404e-09
-1.2295257e-09
-1.22781715e-09
-1.20678838e-09
-1.19001357e-09
-1.1850093e-09
-1.18472716e-09
-1.23524802e-09
-1.22751449e-09
-1.22816474e-09
-1.19197262e-09
-1.18834979e-09
-1.23269969e-09
-1.22722249e-09
-1.19850518e-09
-1.19052081e-09
-1.18581323e-09
-1.18569463e-09
-1.23494952e-09
-1.22746505e-09
-1.22877595e-09
-1.19228608e-09
-1.18860004e-09
-1.2340813e-09
-1.2276652e-09
-1.22882556e-09
-1.21696485e-09
-1.1889474e-09
-1.18844611e-09
-1.18371874e-09
-1.18353305e-09
-1.23504953e-09
-1.2281161e-09
-1.22840305e-09
-1.19056865e-09
-1.18761334e-09
-1.23290414e-09
-1.22844037e-09
-1.20225658e-09
-1.18589e-09
-1.18541012e-09
-1.23418718e-09
-1.22708268e-09
-1.22865046e-09
-1.20256192e-09
-1.18623056e-09
-1.1855785e-09
-1.23361706e-09
-1.2275362e-09
-1.19059712e-09
-1.18875107e-09
-1.23337727e-09
-1.22631268e-09
-1.22748609e-09
-1.20179423e-09
-1.19004164e-09
-1.18629076e-09
-1.18612372e-09
-1.23305359e-09
-1.2288287e-09
-1.1951832e-09
-1.18413724e-09
-1.1838842e-09
-1.23374653e-09
-1.22764197e-09
-1.22825766e-09
-1.19240326e-09
-1.1886954e-09
-1.23178658e-09
-1.22745984e-09
-1.19483295e-09
-1.18968313e-09
-1.18365504e-09
-1.18345293e-09
-1.23365557e-09
-1.22879141e-09
-1.2312816e-09
-1.2277545e-09
-1.22803704e-09
-1.19093561e-09
-1.18709576e-09
-1.23264825e-09
-1.2277513e-09
-1.18976167e-09
-1.18690624e-09
-1.23281115e-09
-1.22747975e-09
-1.19037915e-09
-1.18805804e-09
-1.23178266e-09
-1.22704675e-09
-1.19628153e-09
-1.18989856e-09
-1.186068e-09
-1.18595526e-09
-1.23306486e-09
-1.22710521e-09
-1.22822012e-09
-1.19322773e-09
-1.18807341e-09
-1.23108842e-09
-1.2281009e-09
-1.20095903e-09
-1.18590843e-09
-1.18549205e-09
-1.23201259e-09
-1.22802404e-09
-1.19093984e-09
-1.18725908e-09
-1.23130557e-09
-1.22835607e-09
-1.19840764e-09
-1.18540905e-09
-1.18484545e-09
-1.23217107e-09
-1.22782384e-09
-1.19050056e-09
-1.1872076e-09
-1.23227475e-09
-1.22721915e-09
-1.19033403e-09
-1.1876304e-09
-1.23212675e-09
-1.22701153e-09
-1.19047189e-09
-1.18791944e-09
-1.2318649e-09
-1.22685503e-09
-1.19078388e-09
-1.18839692e-09
-1.23143347e-09
-1.22667856e-09
-1.19137082e-09
-1.18929346e-09
-1.23068581e-09
-1.22643769e-09
-1.19807462e-09
-1.19043251e-09
-1.1861191e-09
-1.1857595e-09
-1.23320638e-09
-1.22779215e-09
-1.22945973e-09
-1.22710455e-09
-1.2091302e-09
-1.19045976e-09
-1.18657558e-09
-1.18636443e-09
-1.23160629e-09
-1.19391145e-09
-1.18490643e-09
-1.23199432e-09
-1.22823858e-09
-1.18955699e-09
-1.1873406e-09
-1.23226663e-09
-1.22734267e-09
-1.18916349e-09
-1.18873379e-09
-1.23242124e-09
-1.22636177e-09
-1.22784146e-09
-1.19652911e-09
-1.18909581e-09
-1.18430438e-09
-1.18410961e-09
-1.23416293e-09
-1.22812915e-09
-1.23069913e-09
-1.22695276e-09
-1.22777277e-09
-1.19842478e-09
-1.18655786e-09
-1.18623317e-09
-1.23113902e-09
-1.22859423e-09
-1.19556658e-09
-1.18472004e-09
-1.18433942e-09
-1.23172527e-09
-1.22775675e-09
-1.18951249e-09
-1.18908105e-09
-1.23234499e-09
-1.19257406e-09
-1.18500989e-09
-1.23322465e-09
-1.22793626e-09
-1.22990497e-09
-1.19093448e-09
-1.18623828e-09
-1.23314697e-09
-1.22860983e-09
-1.22960077e-09
-1.22844231e-09
-1.20931088e-09
-1.18684795e-09
-1.18659759e-09
-1.2309167e-09
-1.22750457e-09
-1.19619771e-09
-1.18937579e-09
-1.1860782e-09
-1.18579257e-09
-1.23249148e-09
-1.22686628e-09
-1.22892919e-09
-1.19638648e-09
-1.18541049e-09
-1.18477457e-09
-1.23142663e-09
-1.22783639e-09
-1.19036163e-09
-1.18767024e-09
-1.23172027e-09
-1.22704286e-09
-1.18951113e-09
-1.18898424e-09
-1.23189835e-09
-1.22617675e-09
-1.22777593e-09
-1.1982691e-09
-1.18932783e-09
-1.18625142e-09
-1.18612823e-09
-1.23162335e-09
-1.2280694e-09
-1.19057822e-09
-1.18792633e-09
-1.23060948e-09
-1.22857843e-09
-1.20066107e-09
-1.18539436e-09
-1.18501324e-09
-1.23264099e-09
-1.22805205e-09
-1.23005233e-09
-1.22710632e-09
-1.2275065e-09
-1.19184744e-09
-1.18823377e-09
-1.18371438e-09
-1.1839565e-09
-1.23343644e-09
-1.22815154e-09
-1.2292585e-09
-1.19031048e-09
-1.1860044e-09
-1.23116308e-09
-1.22960886e-09
-1.19354902e-09
-1.18236517e-09
-1.18195483e-09
-1.23359474e-09
-1.22904237e-09
-1.23026026e-09
-1.22814197e-09
-1.19081994e-09
-1.18929725e-09
-1.23274378e-09
-1.19147938e-09
-1.18283877e-09
-1.23400886e-09
-1.22933548e-09
-1.23055009e-09
-1.22837347e-09
-1.19043628e-09
-1.18896084e-09
-1.23258812e-09
-1.19135745e-09
-1.18452257e-09
-1.23342228e-09
-1.22777354e-09
-1.22999938e-09
-1.19363594e-09
-1.18207894e-09
-1.18183394e-09
-1.23326849e-09
-1.2297368e-09
-1.22958909e-09
-1.22931153e-09
-1.20325068e-09
-1.18580944e-09
-1.18634481e-09
-1.23134098e-09
-1.19747138e-09
-1.18563164e-09
-1.23057459e-09
-1.22901937e-09
-1.19860485e-09
-1.18524514e-09
-1.18499008e-09
-1.2314588e-09
-1.22740027e-09
-1.22854698e-09
-1.19150294e-09
-1.18814554e-09
-1.23117561e-09
-1.22723344e-09
-1.18970952e-09
-1.18874268e-09
-1.2321815e-09
-1.22720294e-09
-1.22844487e-09
-1.214022e-09
-1.19030128e-09
-1.18624573e-09
-1.18623939e-09
-1.23108766e-09
-1.19301963e-09
-1.18490111e-09
-1.23199402e-09
-1.22847734e-09
-1.18867997e-09
-1.18644645e-09
-1.23352371e-09
-1.2279326e-09
-1.22949759e-09
-1.22747035e-09
-1.20243164e-09
-1.1894837e-09
-1.18673573e-09
-1.18643457e-09
-1.23151535e-09
-1.22875403e-09
-1.19375566e-09
-1.18397634e-09
-1.18384324e-09
-1.23216325e-09
-1.22780661e-09
-1.22908976e-09
-1.19117785e-09
-1.18698245e-09
-1.23178521e-09
-1.22783218e-09
-1.18978006e-09
-1.18757924e-09
-1.23237389e-09
-1.22764159e-09
-1.18908792e-09
-1.18822906e-09
-1.233777e-09
-1.22970046e-09
-1.230888e-09
-1.23172272e-09
-1.18614362e-09
-1.18593534e-09
-1.23374971e-09
-1.19105585e-09
-1.18585884e-09
-1.23301579e-09
-1.22731998e-09
-1.22915328e-09
-1.19363543e-09
-1.18753983e-09
-1.23049944e-09
-1.2281435e-09
-1.19976272e-09
-1.18680654e-09
-1.18647876e-09
-1.23087878e-09
-1.22701142e-09
-1.21003294e-09
-1.19097756e-09
-1.18715786e-09
-1.18695778e-09
-1.23128832e-09
-1.19439209e-09
-1.18586856e-09
-1.23214295e-09
-1.22845367e-09
-1.18903258e-09
-1.18652613e-09
-1.23413632e-09
-1.22849839e-09
-1.23008627e-09
-1.22847788e-09
-1.19125449e-09
-1.18636546e-09
-1.23136993e-09
-1.22854729e-09
-1.19485247e-09
-1.18610056e-09
-1.18589835e-09
-1.23098391e-09
-1.22848859e-09
-1.2009033e-09
-1.18686269e-09
-1.18648177e-09
-1.23125687e-09
-1.22799904e-09
-1.19168111e-09
-1.18762245e-09
-1.23102681e-09
-1.22856903e-09
-1.19639063e-09
-1.18447161e-09
-1.18423924e-09
-1.23246053e-09
-1.22790982e-09
-1.22885414e-09
-1.19037432e-09
-1.18660664e-09
-1.23264061e-09
-1.22796709e-09
-1.18798116e-09
-1.18682842e-09
-1.2335885e-09
-1.22733891e-09
-1.22867613e-09
-1.19024068e-09
-1.18651743e-09
-1.23208365e-09
-1.2282234e-09
-1.19062036e-09
-1.18715196e-09
-1.23136181e-09
-1.22876228e-09
-1.1961765e-09
-1.18554889e-09
-1.18501939e-09
-1.23218798e-09
-1.22821857e-09
-1.18954051e-09
-1.18735659e-09
-1.23351875e-09
-1.22755875e-09
-1.22879687e-09
-1.1897859e-09
-1.18626467e-09
-1.23317803e-09
-1.22796971e-09
-1.18817829e-09
-1.18750302e-09
-1.23415483e-09
-1.2266766e-09
-1.22969243e-09
-1.19941249e-09
-1.18550897e-09
-1.18558826e-09
-1.23200482e-09
-1.19155624e-09
-1.18570025e-09
-1.23433819e-09
-1.22993835e-09
-1.23120082e-09
-1.22963099e-09
-1.18740334e-09
-1.18660101e-09
-1.23441607e-09
-1.19452604e-09
-1.18536152e-09
-1.23241324e-09
-1.22824515e-09
-1.19062512e-09
-1.18803731e-09
-1.23243205e-09
-1.22712612e-09
-1.18972676e-09
-1.18884346e-09
-1.23321016e-09
-1.22635515e-09
-1.22902154e-09
-1.20424185e-09
-1.18632944e-09
-1.18604713e-09
-1.2309237e-09
-1.19939701e-09
-1.18676435e-09
-1.23137197e-09
-1.22748532e-09
-1.19144315e-09
-1.18904662e-09
-1.2308537e-09
-1.22672983e-09
-1.19884941e-09
-1.19040504e-09
-1.18708847e-09
-1.18689586e-09
-1.23208477e-09
-1.22847188e-09
-1.1901167e-09
-1.18524549e-09
-1.23186765e-09
-1.23134511e-09
-1.19128811e-09
-1.23382425e-09
-1.22608074e-09
-1.18999788e-09
-1.18851398e-09
-1.23177769e-09
-1.22665373e-09
-1.19627145e-09
-1.18988978e-09
-1.18701479e-09
-1.186421e-09
-1.23288016e-09
-1.22788937e-09
-1.18900714e-09
-1.18631693e-09
-1.23452297e-09
-1.22811555e-09
-1.22984241e-09
-1.22800549e-09
-1.19307828e-09
-1.18727053e-09
-1.23126856e-09
-1.22820612e-09
)
;

boundaryField
{
    closed
    {
        type            calculated;
        value           nonuniform List<scalar> 0();
    }
    open
    {
        type            calculated;
        value           nonuniform List<scalar> 0();
    }
    sides
    {
        type            empty;
    }
    procBoundary2to1
    {
        type            processor;
        value           uniform -1.1888668e-09;
    }
    procBoundary2to3
    {
        type            processor;
        value           uniform -1.19607005e-09;
    }
}


// ************************************************************************* //
