/*--------------------------------*- C++ -*----------------------------------*\
| =========                 |                                                 |
| \\      /  F ield         | OpenFOAM: The Open Source CFD Toolbox           |
|  \\    /   O peration     | Version:  2306                                  |
|   \\  /    A nd           | Website:  www.openfoam.com                      |
|    \\/     M anipulation  |                                                 |
\*---------------------------------------------------------------------------*/
FoamFile
{
    version     2.0;
    format      ascii;
    arch        "LSB;label=32;scalar=64";
    class       volScalarField;
    location    "0.00082";
    object      H;
}
// * * * * * * * * * * * * * * * * * * * * * * * * * * * * * * * * * * * * * //

dimensions      [0 0 0 0 0 0 0];

internalField   nonuniform List<scalar> 
531
(
1.28348481e-09
3.30142903e-08
4.45012855e-08
3.31727005e-08
1.12947628e-09
1.26674642e-09
3.40207351e-08
4.71436711e-08
3.66723228e-08
1.0329351e-09
1.27445801e-09
3.59116192e-08
3.9180666e-08
9.1635663e-10
1.22009053e-09
3.24975068e-08
4.60286337e-08
3.65209191e-08
1.03720143e-09
1.35781767e-09
3.34855368e-08
3.69490169e-08
8.48266754e-10
1.29359634e-09
2.83865989e-08
4.27132467e-08
3.50050323e-08
1.02489339e-09
1.32579294e-09
3.08519521e-08
4.27434002e-08
4.47707149e-08
4.21741738e-08
8.99717658e-10
1.22635108e-09
2.71670724e-08
4.57407008e-08
4.17447733e-08
7.69417636e-10
1.26777035e-09
3.25301875e-08
4.05255799e-08
2.23614402e-09
1.20830248e-09
3.26442199e-08
4.01613541e-08
3.20419293e-09
1.13853116e-09
2.58588543e-08
4.62927828e-08
4.62361868e-08
8.47423506e-10
1.18269403e-09
2.84570194e-08
3.97383858e-08
9.12903096e-09
1.03776285e-09
2.29876551e-08
4.71741181e-08
4.81121746e-08
6.7360227e-09
1.05001266e-09
2.62673697e-08
4.21378796e-08
1.82383284e-08
8.4849198e-10
2.43407642e-08
4.24662081e-08
2.07705382e-08
7.92676812e-10
2.17406766e-08
4.12269663e-08
2.2743764e-08
7.45145625e-10
1.92890005e-08
4.01170996e-08
2.47370536e-08
7.03499091e-10
1.63231853e-08
3.81960673e-08
2.60271168e-08
6.35467111e-10
1.10087335e-08
4.12576946e-08
4.73656913e-08
2.35566371e-08
7.5933973e-10
1.22227231e-08
3.69367154e-08
2.99751977e-08
5.33374721e-10
9.4363445e-09
3.58760339e-08
3.01599933e-08
4.9192856e-10
6.53935268e-09
3.76455107e-08
4.61587427e-08
2.77794244e-08
6.70481143e-10
6.70972425e-09
3.37634132e-08
3.05643299e-08
4.9019967e-10
4.10216464e-09
3.57543077e-08
4.59183827e-08
2.99563415e-08
6.07713752e-10
4.13353208e-09
3.30849726e-08
3.14730385e-08
4.83732322e-10
1.36279957e-09
3.40796017e-08
4.38114516e-08
2.87293144e-08
6.67120527e-10
5.51891242e-10
3.29483097e-08
4.32158916e-08
2.95074394e-08
6.52394054e-10
6.19265304e-10
3.29003177e-08
4.38599706e-08
3.09098052e-08
6.16355062e-10
6.35620768e-10
3.26509867e-08
4.44501942e-08
3.19572089e-08
5.94987184e-10
6.3362266e-10
3.23971466e-08
4.49527474e-08
3.33809136e-08
5.62859556e-10
6.2326473e-10
3.23569859e-08
3.32187114e-08
8.58331397e-10
5.75261083e-10
3.21729172e-08
4.50589087e-08
3.3331823e-08
6.02745008e-10
6.9269035e-10
3.17985609e-08
3.27860056e-08
4.84274926e-10
6.8190726e-10
3.12926099e-08
4.31992305e-08
3.1323704e-08
7.10865201e-10
7.28415159e-10
3.10254489e-08
4.13496576e-08
4.37120391e-08
3.23703339e-08
6.92950633e-10
7.91380278e-10
3.14694813e-08
4.45173964e-08
3.33180188e-08
6.51243387e-10
6.85955362e-10
3.34584171e-08
3.40830756e-08
5.61610265e-10
6.75516014e-10
3.27267274e-08
4.50609611e-08
3.2441539e-08
6.86551581e-10
5.8788228e-10
3.49699969e-08
3.4816903e-08
6.17344498e-10
6.47984149e-10
3.44092729e-08
4.41118823e-08
2.48540656e-08
7.72504637e-10
9.72383076e-09
3.80787573e-08
3.36984897e-08
6.72731737e-10
7.62772382e-10
3.24589681e-08
4.5224693e-08
3.19805404e-08
7.34806541e-10
7.81702231e-10
3.34194521e-08
4.61867048e-08
3.17533365e-08
7.21908131e-10
5.60282624e-10
3.75197183e-08
4.25337084e-08
1.56539244e-08
1.11596244e-09
5.67989732e-09
3.18128997e-08
3.53389063e-08
3.81075981e-08
3.77804453e-08
7.17066776e-09
1.27684871e-09
7.75620519e-10
3.24752015e-08
4.44350664e-08
2.79756122e-08
9.08420184e-10
7.16887821e-10
3.55233673e-08
4.58393651e-08
2.46618299e-08
9.22697437e-10
1.24169225e-08
3.98923074e-08
3.01956769e-08
8.84874958e-10
2.11217583e-09
3.92177465e-08
4.59515091e-08
1.85834442e-08
1.01218276e-09
1.81536842e-08
4.09478201e-08
2.92978546e-08
9.84700117e-10
5.73798689e-10
3.69884903e-08
4.61059693e-08
2.65738617e-08
1.02022021e-09
5.86672651e-10
3.69794981e-08
4.57195671e-08
2.38048479e-08
1.04176674e-09
8.657135e-09
3.93727908e-08
3.19222143e-08
1.06059992e-09
7.56745884e-10
3.83696471e-08
5.13906872e-08
4.09842686e-08
8.10958501e-10
7.15671591e-10
4.32397098e-08
3.92237398e-08
9.51457089e-10
3.82432582e-09
4.28745127e-08
3.33119586e-08
1.00657773e-09
8.89430637e-09
4.21942987e-08
3.0081442e-08
1.03910411e-09
1.18661761e-08
4.08754571e-08
2.92606593e-08
1.16139788e-09
9.22695949e-10
4.0369638e-08
4.32590208e-08
2.27439466e-08
1.13361848e-09
7.10008103e-10
4.36131523e-08
4.69401651e-08
2.19514389e-08
9.50269141e-10
1.61645886e-08
4.27924669e-08
2.8808558e-08
1.12176121e-09
5.07595273e-10
4.37020142e-08
4.4283927e-08
1.85573719e-08
9.42587722e-10
1.71925402e-08
4.16198584e-08
2.78497728e-08
1.15029185e-09
4.78475802e-10
4.20331696e-08
4.22016629e-08
1.90545727e-08
1.11046307e-09
3.81346947e-09
4.34145109e-08
4.29382308e-08
1.92097865e-08
1.08083133e-09
5.30970863e-09
4.45307174e-08
4.39437367e-08
1.83750365e-08
8.8343053e-10
1.68977956e-08
4.39796473e-08
2.95509636e-08
1.02599117e-09
3.65174141e-09
4.39695104e-08
4.35713934e-08
1.78942511e-08
8.89274236e-10
1.74693631e-08
4.03454536e-08
2.47015909e-08
1.08854518e-09
7.8894724e-09
4.34260665e-08
4.17685617e-08
1.37899362e-08
8.38656743e-10
2.11891762e-08
4.20770616e-08
2.53538964e-08
1.09270231e-09
4.76624904e-09
4.64953263e-08
4.61038767e-08
2.15837782e-08
9.33892771e-10
1.43708432e-08
3.86550621e-08
2.41429182e-08
1.17009584e-09
2.97384553e-09
4.55996852e-08
4.55300272e-08
2.22395769e-08
9.9454158e-10
1.2184386e-08
3.79535621e-08
2.43658089e-08
1.18791112e-09
3.36012591e-09
4.5195347e-08
4.49717694e-08
2.19665932e-08
1.10269791e-09
2.67076553e-09
4.65550203e-08
4.63418564e-08
2.26159986e-08
1.0036352e-09
1.23748462e-08
3.88876283e-08
2.55020118e-08
1.19279795e-09
2.10909262e-09
4.7101332e-08
4.71443767e-08
2.27084424e-08
1.01783303e-09
1.21893397e-08
3.8431263e-08
2.50146921e-08
1.238174e-09
4.67618779e-10
4.56981677e-08
4.56880413e-08
2.24947405e-08
1.169101e-09
5.65565435e-10
4.50080838e-08
4.49217186e-08
2.25480653e-08
1.22696292e-09
7.48163618e-10
4.14001415e-08
4.1601699e-08
1.98789146e-08
1.26452159e-09
7.89668605e-10
4.15678994e-08
4.40594892e-08
2.35209112e-08
1.21766885e-09
8.67005268e-10
4.21677782e-08
4.51576512e-08
4.43553033e-08
2.77033581e-08
1.22010982e-09
1.3843258e-09
6.31609619e-10
4.18301385e-08
4.87617207e-08
2.54884487e-08
1.14768017e-09
9.38296169e-10
4.53838165e-08
4.84119633e-08
2.49919163e-08
1.11212082e-09
1.27273552e-08
4.0918833e-08
2.71831601e-08
1.25824628e-09
9.45451017e-10
4.59539198e-08
5.04648302e-08
2.36490897e-08
1.08361937e-09
1.78627768e-08
4.17036895e-08
1.83011296e-08
1.18667084e-09
2.26695287e-08
4.08876822e-08
2.37535205e-08
1.24903487e-09
1.02257873e-09
4.64797224e-08
4.9866636e-08
1.98209527e-08
1.1091543e-09
2.16261591e-08
4.07581257e-08
2.20217679e-08
1.23822882e-09
1.05436172e-09
4.665731e-08
4.94373949e-08
1.75821833e-08
1.12052139e-09
2.3992086e-08
4.03029027e-08
1.97218004e-08
1.24842546e-09
1.09058946e-09
4.4882259e-08
4.70966501e-08
2.29121604e-08
1.183752e-09
1.15390067e-09
4.26366949e-08
4.47610882e-08
2.1869804e-08
1.2019415e-09
1.13577286e-09
4.21137715e-08
4.70881969e-08
4.37436345e-08
1.70190145e-08
1.16774775e-09
2.6819838e-08
4.13841003e-08
2.08245506e-08
1.20157022e-09
8.92204608e-10
4.79472518e-08
5.12239387e-08
1.39206233e-08
1.07390061e-09
2.91048697e-08
4.27280391e-08
8.51589127e-09
1.17559921e-09
3.03529897e-08
4.2413145e-08
9.30826092e-09
1.19113244e-09
2.8910242e-08
4.19379631e-08
2.29801593e-08
1.18973162e-09
7.69045663e-10
4.79028956e-08
5.08949851e-08
1.03947605e-08
1.07763936e-09
3.05067584e-08
4.31016716e-08
9.10760258e-09
1.17033453e-09
2.91543022e-08
4.20056372e-08
2.17395567e-08
1.181279e-09
2.04596743e-09
4.74848471e-08
4.87357781e-08
7.14414015e-09
1.09709464e-09
3.14744077e-08
4.25069863e-08
1.09820293e-08
1.1411422e-09
2.36887918e-08
4.53557827e-08
3.3378409e-08
1.21906371e-09
1.23354764e-09
3.5890613e-08
4.36349559e-08
2.46753462e-08
1.17322679e-09
1.0754097e-09
4.42099843e-08
4.70510847e-08
2.24746389e-08
1.13380808e-09
1.0396128e-09
4.44771581e-08
4.69857426e-08
2.19556852e-08
1.14265116e-09
1.05526996e-09
4.45889389e-08
4.67658374e-08
2.21733335e-08
1.15647691e-09
1.07309237e-09
4.46643165e-08
4.66287954e-08
2.23804615e-08
1.17787196e-09
1.06692892e-09
)
;

boundaryField
{
    closed
    {
        type            calculated;
        value           nonuniform List<scalar> 0();
    }
    open
    {
        type            calculated;
        value           nonuniform List<scalar> 0();
    }
    sides
    {
        type            empty;
    }
    procBoundary1to0
    {
        type            processor;
        value           uniform 1.16656537e-09;
    }
    procBoundary1to2
    {
        type            processor;
        value           uniform 4.37859087e-08;
    }
}


// ************************************************************************* //
