/*--------------------------------*- C++ -*----------------------------------*\
| =========                 |                                                 |
| \\      /  F ield         | OpenFOAM: The Open Source CFD Toolbox           |
|  \\    /   O peration     | Version:  2306                                  |
|   \\  /    A nd           | Website:  www.openfoam.com                      |
|    \\/     M anipulation  |                                                 |
\*---------------------------------------------------------------------------*/
FoamFile
{
    version     2.0;
    format      ascii;
    arch        "LSB;label=32;scalar=64";
    class       volScalarField;
    location    "0.00082";
    object      p;
}
// * * * * * * * * * * * * * * * * * * * * * * * * * * * * * * * * * * * * * //

dimensions      [1 -1 -2 0 0 0 0];

internalField   nonuniform List<scalar> 
531
(
101015.982
101013.994
101011.724
101009.113
101006.151
101002.782
100999.079
100994.635
100989.262
100983.488
100976.884
100969.437
100960.42
100950.43
100939.679
100927.767
100914.498
100899.678
100884.555
100868.379
100851.106
100832.887
100813.82
100794.793
100775.169
100754.78
100733.687
100712.159
100690.405
100668.182
100645.286
100621.421
100597.061
100574.032
100550.837
100527.553
100503.898
100479.845
100457.449
100434.693
100411.657
100388.476
100364.675
100342.868
100320.469
100297.85
100274.387
100252.832
100230.7
100208.884
100191.856
100142.332
100134.063
100117.404
100098.084
100077.937
100059.721
100041.963
100024.343
100007.329
99991.8397
99979.4034
99968.6175
99958.8936
99951.0355
99945.3321
99941.9969
99940.065
99940.3542
99942.5805
99947.5398
99954.5269
99964.3634
99975.8655
99989.5127
100004.505
100021.39
100038.707
100057.213
100076.53
100097.33
100118.049
100139.377
100161.473
100184.939
100209.012
100231.705
100254.671
100277.57
100301.117
100323.899
100346.536
100369.39
100393.179
100416.505
100440.012
100464.476
100490.748
100517.96
100544.764
100572.175
100600.36
100629.243
100657.534
100685.511
100713.862
100743.247
100772.506
100800.257
100827.266
100853.867
100880.439
100905.848
100930.102
100953.544
100976.117
100996.968
101014.569
101030.884
101049.411
101067.989
101085.422
101100.915
101115.303
101129.714
101144.286
101159.1
101173.431
101187.554
101201.844
101216.378
101231.195
101245.5
101259.46
101273.529
101287.858
101302.409
101316.24
101329.199
101341.551
101353.633
101364.953
101374.927
101385.042
101395.641
101406.889
101417.969
101428.759
101439.38
101449.997
101459.685
101467.963
101475.619
101483.147
101490.798
101497.988
101504.816
101511.696
101518.867
101526.289
101534.311
101542.555
101550.658
101558.829
101567.01
101574.986
101582.18
101588.591
101594.566
101600.474
101605.901
101610.941
101616.366
101622.719
101629.991
101637.421
101644.794
101651.952
101662.204
101671.76
101681.238
101691.221
101701.455
101711.446
101720.322
101728.596
101736.53
101745.244
101754.035
101762.81
101771.875
101780.955
101789.775
101797.801
101805.138
101812.255
101819.242
101826.135
101832.544
101839.093
101845.055
101852.372
101860.164
101867.742
101875.397
101882.974
101891.213
101899.678
101906.696
101919.702
101926.598
101935.176
101944.352
101953.605
101962.745
101971.27
101979.544
101988.527
101997.88
102007.761
102016.946
102025.59
102033.724
102042.062
102049.877
102057.432
102064.152
102071.24
102077.933
102083.275
102087.621
102091.064
102094.289
102096.982
102098.78
102100.066
102101.496
102103.643
102106.056
102108.163
102109.868
102111.141
102112.073
102112.871
102113.608
102113.425
102112.927
102111.781
102110.155
102108.229
102106.025
102103.648
102101.876
102100.284
102097.486
102094.931
102091.697
102087.779
102082.422
102077.017
102071.345
102065.862
102059.387
102052.56
102045.322
102038.027
102029.555
102020.467
102011.03
102001.698
101992.136
101981.895
101971.341
101960.584
101949.795
101938.347
101925.83
101913.018
101900.774
101889.224
101877.269
101865.238
101852.883
101840.894
101828.186
101813.161
101801.146
101787.399
101772.946
101757.033
101741.377
101725.43
101709.274
101689.944
101671.01
101652.173
101633.33
101614.029
101592.531
101570.296
101548.483
101527.062
101505.797
101483.163
101460.524
101438.998
101418.305
101398.017
101376.908
101356.252
101336.219
101317.164
101297.543
101278.395
101260.644
101244.17
101228.986
101214.68
101202.113
101190.873
101180.914
101171.33
101162.432
101154.567
101147.42
101141.001
101135.122
101130.015
101125.357
101121.323
101117.969
101115.111
101113.232
101112.293
101112.309
101113.012
101113.91
101115.051
101116.832
101119.685
101122.403
101124.901
101127.494
101130.71
101134.809
101138.912
101142.636
101146.064
101149.925
101153.303
101156.221
101158.44
101160.004
101161.554
101162.362
101163.016
101163.74
101164.645
101165.574
101165.874
101165.619
101165.16
101164.692
101163.235
101161.118
101158.9
101157.126
101155.87
101155.05
101155.271
101156.445
101154.459
101155.086
101154.934
101154.641
101154.396
101152.502
101153.103
101153.607
101152.306
101151.078
101161.853
101159.434
101159.206
101160.957
101164.16
101167.929
101172.918
101178.42
101184.33
101191.041
101198.16
101206.677
101215.827
101225.32
101235.347
101245.839
101256.817
101267.977
101280.52
101292.983
101305.308
101317.742
101329.994
101343.365
101356.285
101368.78
101380.886
101393.516
101405.681
101417.398
101428.769
101439.667
101451.183
101461.975
101472.077
101481.621
101491.189
101500.145
101508.272
101515.865
101523.25
101530.039
101536.207
101541.951
101547.224
101552.573
101557.345
101561.598
101565.506
101569.29
101572.751
101575.902
101578.933
101581.792
101584.857
101587.715
101590.386
101593.022
101595.745
101598.413
101600.992
101603.638
101606.305
101609.29
101612.221
101615.148
101618.169
101621.265
101624.7
101628.061
101631.365
101634.701
101638.065
101641.683
101645.208
101648.554
101651.663
101654.688
101657.668
101660.46
101663.01
101665.442
101667.62
101669.933
101671.948
101673.585
101675.052
101676.392
101677.886
101678.686
101679.767
101680.564
101681.712
101681.972
101682.71
101682.63
101684.003
101684.115
101684.9
101685.52
101686.386
101687.292
101687.934
101688.744
101689.636
101690.836
101691.654
101692.668
101693.779
101694.969
101696.176
101697.854
101698.457
101699.625
101700.992
101702.05
101703.11
101704.154
101705.191
101706.014
101706.737
101707.37
101707.912
101708.308
101708.47
101708.524
101708.354
101708.048
101707.575
101706.879
101706.096
101704.91
101703.561
101702.04
101700.262
101698.359
101695.876
101693.197
101690.364
101687.304
101684.171
101680.358
101676.432
101672.48
101668.439
101664.474
101659.85
101655.241
101650.741
101646.307
)
;

boundaryField
{
    closed
    {
        type            zeroGradient;
    }
    open
    {
        type            waveTransmissive;
        gamma           1.25;
        fieldInf        101325;
        lInf            1;
        value           nonuniform List<scalar> 0();
    }
    sides
    {
        type            empty;
    }
    procBoundary1to0
    {
        type            processor;
        value           uniform 101018.154;
    }
    procBoundary1to2
    {
        type            processor;
        value           uniform 101642.104;
    }
}


// ************************************************************************* //
