/*--------------------------------*- C++ -*----------------------------------*\
| =========                 |                                                 |
| \\      /  F ield         | OpenFOAM: The Open Source CFD Toolbox           |
|  \\    /   O peration     | Version:  2306                                  |
|   \\  /    A nd           | Website:  www.openfoam.com                      |
|    \\/     M anipulation  |                                                 |
\*---------------------------------------------------------------------------*/
FoamFile
{
    version     2.0;
    format      ascii;
    arch        "LSB;label=32;scalar=64";
    class       volScalarField;
    location    "0.00082";
    object      sourcePV;
}
// * * * * * * * * * * * * * * * * * * * * * * * * * * * * * * * * * * * * * //

dimensions      [1 -3 -1 0 0 0 0];

internalField   nonuniform List<scalar> 
531
(
0.00598588017
0.12021407
0.157488093
0.120780131
0.00533985699
0.0059091471
0.123814282
0.165842122
0.132760126
0.00492182929
0.00591019521
0.130339577
0.140662842
0.00438445729
0.00572151296
0.118365225
0.162286127
0.132313237
0.00495201702
0.00628682294
0.121895888
0.133635848
0.00409632639
0.00606356077
0.103638353
0.151777268
0.127328765
0.00490019339
0.00617076487
0.11247571
0.151922935
0.158307697
0.149986936
0.00432830544
0.00578860648
0.0992613006
0.161325283
0.14871956
0.00380995302
0.00591451291
0.11847876
0.144907952
0.00887403303
0.00566710913
0.118884702
0.143689238
0.0123515855
0.00540236459
0.0945778663
0.162999244
0.162848122
0.0039184452
0.00557274844
0.10390331
0.142328924
0.0339190566
0.00497437949
0.0842523744
0.165782038
0.168806873
0.0252846526
0.00499913195
0.0960368167
0.149893593
0.0670097271
0.00413518237
0.0890877489
0.150924386
0.076162297
0.00390335351
0.0797166673
0.147003203
0.0832920016
0.00370444868
0.0708657546
0.143495699
0.090484946
0.00353488608
0.0601447799
0.137408203
0.0951338052
0.00326830751
0.0409336741
0.147153198
0.166471007
0.0862184679
0.00377251816
0.0453165618
0.133477396
0.109327765
0.00280254399
0.0351584211
0.130099715
0.109989939
0.00264328959
0.02468123
0.135786176
0.162621794
0.10143424
0.00339976264
0.0252952035
0.122886618
0.111443701
0.00262350212
0.0158103593
0.129859119
0.161836236
0.1092557
0.00312389496
0.0159038868
0.120462417
0.114699148
0.00258600662
0.00582055957
0.124021998
0.155095374
0.104857017
0.00338463585
0.00292341414
0.11997779
0.153177419
0.107651529
0.00331617068
0.00319370297
0.119806263
0.15521216
0.11267991
0.00315301737
0.0032504143
0.118914361
0.157080404
0.11643135
0.00305403023
0.00323328068
0.118005996
0.158675437
0.121524347
0.00291308419
0.0031512439
0.117859981
0.120938837
0.0039048095
0.0029716232
0.117203518
0.159012294
0.121348282
0.00308777369
0.00344704208
0.115863692
0.119392453
0.00257145357
0.00342168973
0.114052651
0.153112849
0.114164446
0.00355378068
0.00362097715
0.113096977
0.147415466
0.154850112
0.117909465
0.00347181198
0.00389416074
0.114685224
0.157293792
0.121298474
0.00329089934
0.0034084071
0.121795212
0.12402367
0.00288668523
0.00339138267
0.119185108
0.159024474
0.118164422
0.00344476254
0.00299857985
0.1271855
0.126643356
0.00312309863
0.00327451586
0.12520041
0.156023649
0.0909304101
0.00380595069
0.0361930576
0.136970421
0.122655354
0.0033821021
0.00377384967
0.118227245
0.159560773
0.116514872
0.00365509527
0.00384815744
0.121664265
0.162640722
0.115700339
0.00359706867
0.00284631261
0.135377256
0.151178679
0.0576706942
0.00526499576
0.0215271781
0.1159153
0.128410259
0.137029336
0.136133779
0.0269174408
0.0059915965
0.00387659958
0.118285201
0.157076986
0.102149498
0.00440773426
0.00356953495
0.129185963
0.161563933
0.0902173889
0.00446415531
0.0459747518
0.142820308
0.110120281
0.00429703021
0.00853314828
0.140774743
0.161948204
0.0682749609
0.00485078008
0.0667706451
0.146141257
0.106905849
0.00473961021
0.0029719693
0.133774353
0.162383628
0.097127967
0.00491282462
0.00302599519
0.133735304
0.16115456
0.087154758
0.00500313134
0.0323362563
0.141198359
0.116305789
0.00504313029
0.00372356816
0.138095104
0.179105749
0.146194823
0.00397012526
0.00350357307
0.153321655
0.140510845
0.00456554699
0.0147051073
0.152210152
0.121274694
0.00480251939
0.0331401175
0.150077145
0.109714145
0.00494050485
0.0439395504
0.145935478
0.106775107
0.00547136293
0.00440741732
0.144304666
0.15336966
0.083377394
0.00538666772
0.00350032079
0.154590002
0.164992241
0.0804843498
0.00458214364
0.0595065636
0.15197899
0.105151639
0.00527981732
0.00263634542
0.154826901
0.156551054
0.0682565144
0.00456441492
0.0632390419
0.148263613
0.101710934
0.00539666105
0.00253329373
0.149526384
0.150000518
0.0700760934
0.00528211691
0.0146742688
0.153901852
0.152346536
0.0706306184
0.00514915001
0.0201033942
0.157443117
0.155511769
0.0675948979
0.00430513557
0.0621351942
0.155718607
0.107809496
0.0048496855
0.0140844918
0.155615415
0.15431739
0.065862433
0.00432979638
0.0642175785
0.144238641
0.0904033038
0.00515351077
0.0294847512
0.153958323
0.148634531
0.0510122311
0.00412300343
0.0776789665
0.14972561
0.0927444366
0.00516744549
0.0181218329
0.163671374
0.162366309
0.0791787521
0.00451253898
0.0529879633
0.138895567
0.0884083823
0.00551591863
0.0116271648
0.160850955
0.160562786
0.0815415702
0.00476761728
0.045044079
0.136690384
0.08921639
0.00559848736
0.0130350264
0.159595843
0.158820565
0.0805691622
0.00523985983
0.0104979501
0.163876581
0.16316161
0.082898461
0.00480694244
0.0457315685
0.139667356
0.0932974711
0.00561251249
0.00843690163
0.165656126
0.165709539
0.0832295597
0.00487403054
0.0450637845
0.138237253
0.0915465543
0.00581505964
0.00250043633
0.161212828
0.161135898
0.0824655676
0.00552943546
0.00291684549
0.159008699
0.158750443
0.0826565601
0.00578089415
0.00370348021
0.147557311
0.148247977
0.0730408257
0.00595177136
0.00388754087
0.148119147
0.15600989
0.0861552303
0.00575964522
0.0041777822
0.149896523
0.159591345
0.156917926
0.101178386
0.00576952123
0.00646649799
0.00317656245
0.149039828
0.170808151
0.0932298256
0.00545940392
0.00449082946
0.160238598
0.169826939
0.0914466134
0.00528512177
0.0470604871
0.14611998
0.0993261228
0.00590746121
0.0044925992
0.162134705
0.176329075
0.0866010131
0.00516403273
0.0656723166
0.148588364
0.0672850393
0.00559919806
0.0830594331
0.14604266
0.0869851193
0.00587069593
0.00480764362
0.163793405
0.174435434
0.0727983126
0.00527936567
0.0793033778
0.14556621
0.0807464891
0.00584155734
0.00494525114
0.164337348
0.173078557
0.0647074938
0.00532634518
0.087838177
0.144118169
0.0724451863
0.00589730771
0.00511062996
0.158687855
0.165644257
0.0839671957
0.00563287604
0.00540887852
0.151510116
0.158237303
0.0802158015
0.00571889255
0.00532009934
0.149813624
0.16566233
0.155025073
0.0626809023
0.00550692509
0.0980152914
0.147556963
0.0764404001
0.00568927011
0.00422059726
0.168425269
0.17870191
0.0514436347
0.00512770346
0.106215547
0.151773893
0.031771651
0.00555264669
0.11068895
0.150822721
0.0346577365
0.00561197228
0.105518162
0.149306346
0.0842146887
0.00563864348
0.00369009823
0.168267648
0.177639254
0.0386447155
0.00514392797
0.111240794
0.152947099
0.0339308626
0.00552934804
0.106393002
0.149513823
0.0797390982
0.00560690908
0.0081797032
0.16690465
0.170798617
0.0268226205
0.00522185267
0.114704634
0.15103976
0.0407510055
0.00542530647
0.0867404972
0.160151994
0.121516319
0.00573203552
0.00575242366
0.130239345
0.154689671
0.0903132128
0.00557362005
0.00502571125
0.156547165
0.165478014
0.0824050222
0.00542391452
0.00488203248
0.157368058
0.165264585
0.0805330239
0.00545930566
0.00495500563
0.157733581
0.164595223
0.0813124815
0.0055086029
0.00503039351
0.157987685
0.16418751
0.0820544672
0.00559165861
0.00499243862
)
;

boundaryField
{
    closed
    {
        type            calculated;
        value           nonuniform List<scalar> 0();
    }
    open
    {
        type            calculated;
        value           nonuniform List<scalar> 0();
    }
    sides
    {
        type            empty;
    }
    procBoundary1to0
    {
        type            processor;
        value           uniform 0;
    }
    procBoundary1to2
    {
        type            processor;
        value           uniform 0;
    }
}


// ************************************************************************* //
