/*--------------------------------*- C++ -*----------------------------------*\
| =========                 |                                                 |
| \\      /  F ield         | OpenFOAM: The Open Source CFD Toolbox           |
|  \\    /   O peration     | Version:  2306                                  |
|   \\  /    A nd           | Website:  www.openfoam.com                      |
|    \\/     M anipulation  |                                                 |
\*---------------------------------------------------------------------------*/
FoamFile
{
    version     2.0;
    format      ascii;
    arch        "LSB;label=32;scalar=64";
    class       volScalarField;
    location    "0.00082";
    object      Z;
}
// * * * * * * * * * * * * * * * * * * * * * * * * * * * * * * * * * * * * * //

dimensions      [0 0 0 0 0 0 0];

internalField   nonuniform List<scalar> 
531
(
0.0140696115
0.0146512761
0.0148066502
0.0146553079
0.0140854841
0.0140709065
0.0146683071
0.0148394897
0.01471126
0.0140945801
0.0140681348
0.014702649
0.014742055
0.0141030994
0.0140762241
0.0146408127
0.0148267416
0.0147085748
0.0140950311
0.0140613621
0.0146647848
0.0147145261
0.0141099535
0.014070847
0.014570415
0.0147866919
0.0146892178
0.0140963025
0.0140657503
0.0146153252
0.0147853422
0.0148111521
0.0147830011
0.0141058473
0.0140783211
0.0145490712
0.0148250814
0.0147746948
0.0141217225
0.0140708706
0.0146515872
0.0147584881
0.0141744609
0.014077108
0.0146558683
0.0147561982
0.0141868902
0.0140862617
0.014530234
0.014834845
0.0148330229
0.0141562926
0.0140806336
0.0145774985
0.0147517867
0.0142644249
0.0140964435
0.0144808589
0.0148462258
0.0148557541
0.0142329273
0.0140932141
0.0145352689
0.0147818243
0.0143961677
0.0141128732
0.0144983296
0.0147861197
0.0144350345
0.0141189287
0.0144552661
0.014770981
0.0144668746
0.0141239884
0.0144160641
0.0147573603
0.014500258
0.0141288307
0.0143704869
0.0147344498
0.0145224573
0.0141377018
0.0142935357
0.0147696188
0.0148452381
0.0144793263
0.0141231854
0.0143106086
0.0147177811
0.0145940199
0.0141453467
0.0142702084
0.0147057487
0.0145969489
0.0141510943
0.0142309053
0.0147243213
0.0148313149
0.0145517738
0.0141326304
0.0142331881
0.0146720117
0.0146078597
0.0141501504
0.0141982687
0.0147003195
0.0148292869
0.0145910212
0.0141382447
0.0141986894
0.0146599882
0.0146267291
0.0141499129
0.0141627099
0.0146723778
0.0148057791
0.0145718074
0.0141329011
0.0141472068
0.0146507527
0.0147995808
0.0145865852
0.0141339003
0.0141388623
0.014649476
0.0148077393
0.0146123483
0.0141367107
0.0141360827
0.014644429
0.014815113
0.0146319154
0.0141381773
0.0141355446
0.0146400135
0.0148212489
0.0146596506
0.014141055
0.0141333653
0.0146480326
0.0146640637
0.0141567819
0.0141403026
0.014636385
0.0148225503
0.0146595848
0.0141374568
0.0141264471
0.0146382758
0.0146568246
0.0141483551
0.0141292279
0.0146217889
0.0147998019
0.0146234585
0.0141270488
0.0141246647
0.0146186042
0.0147716801
0.0148020241
0.0146434757
0.014128377
0.0141187633
0.0146234003
0.0148159289
0.0146600034
0.0141322894
0.0141263018
0.0146682986
0.0146814607
0.0141393607
0.0141296114
0.0146468371
0.0148223562
0.0146436384
0.0141290364
0.014136734
0.0146962669
0.0146946318
0.0141337098
0.0141324056
0.0146781635
0.0148103562
0.0145061098
0.0141200231
0.0142740685
0.0147350394
0.0146701971
0.014130106
0.0141217547
0.014640952
0.0148237123
0.0146323412
0.0141245901
0.0141193474
0.0146567343
0.0148344207
0.0146253235
0.0141256302
0.0141528369
0.0147231398
0.0147855471
0.0143582649
0.0140856171
0.014219202
0.0146322612
0.0146990817
0.0147363674
0.0147282522
0.0142390908
0.0140724718
0.0141244088
0.0146367154
0.0148132486
0.0145582803
0.014108225
0.0141256268
0.0146949374
0.0148291685
0.0144995414
0.0141064564
0.0143122711
0.0147535075
0.0145993048
0.0141097743
0.0141724139
0.0147426627
0.014829422
0.014402437
0.0140979206
0.0143988334
0.014766887
0.0145861927
0.0141011114
0.0141410215
0.0147146088
0.0148334672
0.0145380667
0.0140991902
0.0141396523
0.0147148017
0.014828852
0.0144889153
0.0140969089
0.0142595314
0.0147465694
0.0146403748
0.014092083
0.014120367
0.0147324266
0.014901726
0.0147693559
0.014116212
0.0141208305
0.0147974023
0.0147515086
0.0141019893
0.0141946971
0.0147913443
0.0146626801
0.014096682
0.01426212
0.0147823427
0.0145998478
0.0140934181
0.0143035494
0.0147652556
0.0145870589
0.0140820137
0.0141021756
0.0147601042
0.0147981097
0.0144770811
0.0140871233
0.0141230604
0.0147989143
0.0148453028
0.0144594914
0.0141037406
0.0143652483
0.0147893474
0.014577727
0.0140843634
0.0141430046
0.0148015936
0.0148131482
0.0144068732
0.0141056558
0.0143810959
0.0147751951
0.014560576
0.0140812434
0.0141477468
0.0147817642
0.0147858647
0.0144164636
0.0140890195
0.0141945479
0.0147985943
0.0147944267
0.0144185217
0.0140914971
0.0142140824
0.0148120709
0.0148075081
0.0144038138
0.014111032
0.0143749111
0.0148045438
0.0145884054
0.0140922087
0.0141924514
0.0148070154
0.0148034614
0.0143965765
0.0141104271
0.0143840628
0.0147594754
0.0145072718
0.0140886966
0.0142484406
0.0147980265
0.0147803755
0.0143340471
0.0141162187
0.0144419888
0.0147802529
0.0145174656
0.0140880199
0.0142069547
0.0148361454
0.0148338673
0.0144555952
0.0141053898
0.0143383327
0.0147389131
0.0145002804
0.0140816664
0.0141836675
0.0148244073
0.0148261573
0.0144663012
0.0140990863
0.0143069031
0.0147300645
0.0145052185
0.0140803556
0.0141886547
0.0148184564
0.0148182399
0.0144630769
0.0140891397
0.0141798489
0.0148362432
0.01483518
0.0144726209
0.0140982233
0.0143094884
0.0147406171
0.0145243635
0.0140794094
0.0141727422
0.0148410463
0.0148449573
0.014473918
0.0140972955
0.0143070119
0.0147347316
0.0145159507
0.0140755334
0.0141500251
0.0148237055
0.0148253019
0.0144710892
0.0140829892
0.0141401109
0.0148159344
0.0148143069
0.0144718404
0.01407756
0.0141225554
0.0147728869
0.0147735845
0.0144289009
0.0140745415
0.0141189887
0.0147738992
0.0148041293
0.0144874521
0.0140797402
0.0141082295
0.014785335
0.0148137194
0.0148087957
0.0145557099
0.0140794593
0.0140628645
0.0141316765
0.0147740692
0.0148663915
0.0145200839
0.014086624
0.0141018994
0.0148190416
0.0148565182
0.0145120468
0.0140885644
0.0143157005
0.0147642536
0.0145515264
0.0140739985
0.0140990817
0.0148225874
0.0148822942
0.0144873498
0.0140914354
0.0143916639
0.0147742365
0.0143999823
0.0140808887
0.0144696607
0.0147631953
0.0144902524
0.0140750786
0.0140906055
0.0148292373
0.0148746935
0.0144253085
0.0140893525
0.0144533881
0.0147637706
0.0144615748
0.0140772921
0.0140876763
0.0148321205
0.0148691788
0.014390163
0.014088112
0.0144933757
0.0147585088
0.0144241117
0.0140771051
0.014084917
0.0148115237
0.0148408692
0.0144778065
0.0140843926
0.014080677
0.0147866136
0.0148125045
0.0144609601
0.0140831542
0.0140816697
0.0147816548
0.0148389697
0.0147997255
0.014382029
0.0140819684
0.0145433125
0.014771027
0.0144431495
0.0140812321
0.0141009695
0.0148478513
0.0148934439
0.0143346167
0.0140927756
0.0145836747
0.0147886012
0.014257033
0.0140820326
0.0146064945
0.0147832064
0.0142679636
0.0140800196
0.0145804618
0.0147778571
0.0144792883
0.0140824068
0.0141124455
0.0148480037
0.0148902206
0.0142836924
0.0140924227
0.0146106295
0.0147934979
0.014265232
0.0140824966
0.0145846807
0.0147789038
0.0144580225
0.0140835548
0.0141720596
0.0148444252
0.0148628812
0.0142387435
0.0140901185
0.0146299866
0.0147870908
0.014291493
0.0140868368
0.0144875164
0.0148186167
0.0146581046
0.014077321
0.014073169
0.0147033297
0.0147980926
0.0145075943
0.014084436
0.0140850105
0.0148037775
0.014841188
0.0144722243
0.014089721
0.0140890799
0.0148079383
0.014840638
0.0144632573
0.0140886598
0.0140879943
0.0148088804
0.0148368274
0.0144663256
0.014086573
0.0140862268
0.014809237
0.0148340964
0.0144692616
0.0140838457
0.0140860242
)
;

boundaryField
{
    closed
    {
        type            zeroGradient;
    }
    open
    {
        type            zeroGradient;
    }
    sides
    {
        type            empty;
    }
    procBoundary1to0
    {
        type            processor;
        value           uniform 0.0140831846;
    }
    procBoundary1to2
    {
        type            processor;
        value           uniform 0.0147980611;
    }
}


// ************************************************************************* //
