/*--------------------------------*- C++ -*----------------------------------*\
| =========                 |                                                 |
| \\      /  F ield         | OpenFOAM: The Open Source CFD Toolbox           |
|  \\    /   O peration     | Version:  2306                                  |
|   \\  /    A nd           | Website:  www.openfoam.com                      |
|    \\/     M anipulation  |                                                 |
\*---------------------------------------------------------------------------*/
FoamFile
{
    version     2.0;
    format      ascii;
    arch        "LSB;label=32;scalar=64";
    class       volScalarField;
    location    "0.00154";
    object      mu;
}
// * * * * * * * * * * * * * * * * * * * * * * * * * * * * * * * * * * * * * //

dimensions      [1 -1 -1 0 0 0 0];

internalField   nonuniform List<scalar> 
530
(
2.10750579e-05
1.99835819e-05
1.98030442e-05
1.97989242e-05
1.9798554e-05
1.97985371e-05
1.97985359e-05
1.97985358e-05
1.97985358e-05
1.97985358e-05
1.97985358e-05
1.97985358e-05
1.97985358e-05
1.97985358e-05
1.97985358e-05
1.97985358e-05
1.97985358e-05
1.97985358e-05
1.97985358e-05
1.97985358e-05
1.97985358e-05
1.97985358e-05
1.97985358e-05
1.97985358e-05
1.97985358e-05
1.97985358e-05
1.97985358e-05
1.97985358e-05
1.97985358e-05
1.97985358e-05
1.97985358e-05
1.97985358e-05
1.97985358e-05
1.97985358e-05
1.97985358e-05
1.97985358e-05
1.97985358e-05
1.97985358e-05
1.97985358e-05
1.97985358e-05
1.97985358e-05
1.97985358e-05
1.97985358e-05
1.97985358e-05
1.97985358e-05
1.97985358e-05
1.97985358e-05
1.97985358e-05
1.97985358e-05
1.97985358e-05
1.97985358e-05
1.97985358e-05
1.97985358e-05
1.97985358e-05
1.97985358e-05
1.97985358e-05
1.97985358e-05
1.97985358e-05
1.97985358e-05
1.97985358e-05
1.97985358e-05
1.97985359e-05
1.97985359e-05
1.97985362e-05
1.97985363e-05
1.97985383e-05
1.97985385e-05
1.97985475e-05
1.97985505e-05
1.97985763e-05
1.97985947e-05
1.97986561e-05
1.97988074e-05
1.97988371e-05
1.97987258e-05
1.97988372e-05
1.98018079e-05
1.98035725e-05
1.97925995e-05
1.97853911e-05
1.98117928e-05
1.98577412e-05
1.98023913e-05
1.97714717e-05
1.97946254e-05
1.98148341e-05
1.98059627e-05
1.96825965e-05
1.95973283e-05
1.97749331e-05
2.02541614e-05
2.0334379e-05
2.02183065e-05
1.96414856e-05
1.927308e-05
1.97062335e-05
2.02599524e-05
2.03304028e-05
2.02517928e-05
1.96362747e-05
1.93081574e-05
1.94922706e-05
1.98815538e-05
2.03167737e-05
2.02994045e-05
2.031159e-05
2.03048902e-05
1.97210177e-05
1.94359734e-05
1.94560651e-05
1.97426308e-05
2.03330895e-05
2.03137495e-05
1.97474143e-05
1.95736312e-05
1.9826248e-05
2.03077075e-05
2.03166819e-05
2.02906395e-05
1.9750866e-05
1.95715575e-05
1.96248488e-05
1.951612e-05
1.95178674e-05
1.93207147e-05
1.95726093e-05
2.02964174e-05
2.02970978e-05
2.02799119e-05
1.97753753e-05
1.96174259e-05
2.03010137e-05
2.02716564e-05
2.02641613e-05
2.02861129e-05
1.95823525e-05
1.94255919e-05
1.94670427e-05
1.97684332e-05
2.02928379e-05
1.97944791e-05
1.94731892e-05
1.97718394e-05
2.03022509e-05
2.03002613e-05
1.9472527e-05
1.9294846e-05
1.97482543e-05
2.03077996e-05
2.0307734e-05
2.03011084e-05
2.03016101e-05
1.97433784e-05
1.95188104e-05
1.95292099e-05
1.97628694e-05
2.03056348e-05
2.02885876e-05
1.94869528e-05
1.93395607e-05
1.97618537e-05
2.02837093e-05
1.97928092e-05
1.95173183e-05
1.99678877e-05
2.02859034e-05
1.97723565e-05
1.95953177e-05
2.03138667e-05
2.02934927e-05
1.97196435e-05
1.96204069e-05
1.99541674e-05
2.02970079e-05
2.02924996e-05
1.9779302e-05
1.96240317e-05
2.02798994e-05
2.02873279e-05
1.98147727e-05
1.96023581e-05
1.95415648e-05
1.94429602e-05
1.97624877e-05
2.02957243e-05
1.97618646e-05
1.94773445e-05
2.02913123e-05
2.02888494e-05
1.97688516e-05
1.95358796e-05
1.97927072e-05
2.02997382e-05
2.0306757e-05
1.95430381e-05
1.93250588e-05
1.97759092e-05
2.02902438e-05
1.97543351e-05
1.95408363e-05
1.99466118e-05
2.02837256e-05
2.03010271e-05
1.97404765e-05
1.96427925e-05
2.03367401e-05
2.02950295e-05
1.97727866e-05
1.96802901e-05
1.96182161e-05
1.96264955e-05
1.97757288e-05
1.97763866e-05
1.95585099e-05
1.99280475e-05
2.03028237e-05
1.96747959e-05
1.95559817e-05
2.03522824e-05
2.02762174e-05
1.97341611e-05
1.94942433e-05
1.97379813e-05
2.02681728e-05
2.03253529e-05
2.02631331e-05
1.96499533e-05
1.92100384e-05
1.97220129e-05
2.02655089e-05
2.03321042e-05
2.02679188e-05
1.96111659e-05
1.92017698e-05
1.97479382e-05
2.02716177e-05
1.97545483e-05
1.94731132e-05
2.03265856e-05
2.02821757e-05
1.97610507e-05
1.95567023e-05
1.97921679e-05
2.02979323e-05
2.03096188e-05
1.96028297e-05
1.9375408e-05
1.9782106e-05
2.02969867e-05
1.97399707e-05
1.95417115e-05
2.03484275e-05
2.02933545e-05
1.97376649e-05
1.95742752e-05
1.98091662e-05
2.03018216e-05
2.03063079e-05
1.95953692e-05
1.93759716e-05
1.97871652e-05
2.02923837e-05
1.97777674e-05
1.95315422e-05
1.98104332e-05
2.02936822e-05
2.03113521e-05
1.96207227e-05
1.94354475e-05
1.98161736e-05
2.02965686e-05
1.97588402e-05
1.96363069e-05
2.03313673e-05
2.02811756e-05
1.9874807e-05
1.9705846e-05
1.95866401e-05
1.95494304e-05
1.97758444e-05
2.03131754e-05
2.02742258e-05
1.95582176e-05
1.92441465e-05
1.97459072e-05
2.02655508e-05
2.03027697e-05
2.026713e-05
1.96386443e-05
1.91409402e-05
1.94749937e-05
2.02867126e-05
2.02878614e-05
2.029758e-05
2.02834932e-05
1.97636812e-05
1.93159412e-05
1.96444429e-05
2.02824466e-05
2.02361676e-05
1.94087115e-05
1.97675821e-05
2.02905089e-05
1.98305015e-05
1.94952105e-05
1.97501148e-05
2.03020685e-05
2.03123476e-05
1.96166865e-05
1.9343229e-05
1.97485488e-05
2.02912562e-05
2.00615748e-05
1.95100124e-05
1.97633739e-05
2.02964678e-05
2.03100018e-05
1.96924068e-05
1.94754602e-05
1.97540841e-05
2.03043462e-05
2.0309601e-05
1.97524913e-05
1.95414179e-05
1.97556867e-05
2.03022366e-05
2.03029508e-05
1.97345913e-05
1.95572604e-05
1.96198898e-05
1.94012596e-05
1.96214053e-05
2.02968839e-05
2.03072166e-05
2.03078893e-05
1.97776642e-05
1.95750615e-05
2.03147561e-05
2.03019266e-05
1.9549949e-05
1.96062988e-05
2.02975065e-05
2.03045125e-05
1.95660783e-05
1.96897598e-05
2.03088114e-05
2.03014594e-05
1.97021636e-05
1.94273126e-05
1.96284053e-05
2.02979973e-05
2.03368817e-05
1.96246671e-05
1.97169529e-05
2.02989358e-05
2.03154849e-05
1.97624262e-05
1.95974303e-05
1.9589391e-05
1.970674e-05
2.02950111e-05
2.01965055e-05
1.95830285e-05
1.97722339e-05
2.02989552e-05
2.03083156e-05
2.0303663e-05
1.97676758e-05
1.96008515e-05
1.96014457e-05
1.95690689e-05
1.94231733e-05
1.94982256e-05
2.02826673e-05
2.03077316e-05
1.95418522e-05
1.9524598e-05
2.0264467e-05
2.02935778e-05
2.02581336e-05
2.02980831e-05
2.00735677e-05
1.96538665e-05
1.95119633e-05
1.96233138e-05
1.95786202e-05
1.97530865e-05
1.97757099e-05
1.96777969e-05
1.97395503e-05
2.02778545e-05
2.03236724e-05
2.00470128e-05
1.96699834e-05
1.98178744e-05
2.0312282e-05
1.97995316e-05
1.96554034e-05
1.97574873e-05
2.0298203e-05
2.03301995e-05
1.97556365e-05
1.95356384e-05
1.95235644e-05
1.96450129e-05
2.02942347e-05
1.9896729e-05
1.9513569e-05
1.9901365e-05
2.02956923e-05
1.97907173e-05
1.95658135e-05
1.9753748e-05
2.02932739e-05
2.03068841e-05
1.97294596e-05
1.92343393e-05
1.94463948e-05
2.0271863e-05
2.02841109e-05
2.02787702e-05
2.028844e-05
2.02897808e-05
2.02900866e-05
1.97046767e-05
1.93981926e-05
1.95767388e-05
1.94150607e-05
1.95143792e-05
2.02681601e-05
2.02708283e-05
1.96252954e-05
1.97728174e-05
2.02839866e-05
2.03123832e-05
1.97630474e-05
1.95954413e-05
1.95969192e-05
1.96229405e-05
2.03060321e-05
2.02966278e-05
1.97384862e-05
1.94841179e-05
1.97076583e-05
2.02796165e-05
2.03208788e-05
1.98904973e-05
1.97042585e-05
1.97586659e-05
2.0311085e-05
2.03119736e-05
1.97449664e-05
1.94895939e-05
1.96098534e-05
2.02973807e-05
2.03113808e-05
1.97503952e-05
1.9455821e-05
1.95854916e-05
2.03004569e-05
2.03024353e-05
1.97435503e-05
1.94667116e-05
1.95760147e-05
2.028648e-05
2.03191099e-05
1.9758503e-05
1.95368595e-05
1.95082355e-05
1.95658659e-05
2.02867048e-05
2.03036703e-05
1.99095353e-05
1.96559751e-05
1.97623879e-05
2.03044808e-05
2.0312666e-05
2.03129335e-05
1.97811943e-05
1.96626521e-05
1.96446139e-05
1.96526614e-05
1.95202346e-05
1.96599917e-05
2.02906613e-05
1.9822829e-05
1.95735316e-05
2.03068429e-05
2.03066804e-05
1.97614757e-05
1.96254911e-05
1.97540504e-05
2.02979781e-05
2.03109192e-05
1.97579229e-05
1.94206885e-05
1.95297833e-05
2.02867342e-05
2.02287069e-05
1.95227543e-05
1.98254741e-05
2.0294481e-05
1.97762317e-05
1.95825914e-05
1.9754755e-05
2.02974706e-05
2.03167112e-05
1.9751417e-05
1.9378252e-05
1.9633201e-05
2.02859151e-05
1.9808587e-05
1.94912082e-05
2.02858768e-05
2.02985304e-05
1.95968123e-05
1.95714318e-05
2.02690823e-05
2.02951652e-05
1.99345953e-05
1.97149902e-05
1.94124058e-05
1.94905595e-05
2.02759755e-05
2.02503821e-05
1.95136427e-05
1.97894715e-05
2.02919219e-05
1.97556279e-05
1.95625099e-05
)
;

boundaryField
{
    closed
    {
        type            calculated;
        value           uniform 2.72179517e-05;
    }
    open
    {
        type            calculated;
        value           nonuniform List<scalar> 0();
    }
    sides
    {
        type            empty;
    }
    procBoundary0to1
    {
        type            processor;
        value           uniform 2.02905872e-05;
    }
}


// ************************************************************************* //
