/*--------------------------------*- C++ -*----------------------------------*\
| =========                 |                                                 |
| \\      /  F ield         | OpenFOAM: The Open Source CFD Toolbox           |
|  \\    /   O peration     | Version:  2306                                  |
|   \\  /    A nd           | Website:  www.openfoam.com                      |
|    \\/     M anipulation  |                                                 |
\*---------------------------------------------------------------------------*/
FoamFile
{
    version     2.0;
    format      ascii;
    arch        "LSB;label=32;scalar=64";
    class       volScalarField;
    location    "0.00186";
    object      H;
}
// * * * * * * * * * * * * * * * * * * * * * * * * * * * * * * * * * * * * * //

dimensions      [0 0 0 0 0 0 0];

internalField   nonuniform List<scalar> 
530
(
5.20940093e-08
5.13921986e-08
6.28952539e-10
1.25966186e-09
1.09109011e-09
2.93117793e-08
5.12592379e-08
5.05717431e-08
6.70046743e-10
1.17939641e-09
3.88629506e-08
4.48307864e-08
6.38001568e-10
1.23714821e-09
4.0912627e-08
4.26503514e-08
6.1480856e-10
1.3120967e-09
1.1635572e-09
3.17734284e-08
4.34166756e-08
5.44104207e-08
5.44508982e-08
4.49671577e-10
1.02431344e-09
9.58225927e-10
1.04200175e-09
2.43256753e-08
5.16488776e-08
5.1048467e-08
6.7715446e-10
1.176641e-09
3.92986458e-08
4.29188685e-08
6.56050576e-10
1.30727868e-09
1.18298274e-09
3.22570323e-08
4.32885548e-08
5.39447914e-08
5.38292054e-08
5.22615683e-10
1.15547914e-09
9.84614878e-10
3.7737004e-08
4.81259656e-08
5.5591349e-10
1.16287752e-09
9.94947452e-10
1.22441982e-09
2.12574882e-08
3.85396606e-08
4.69443236e-08
4.68235864e-08
7.80858135e-10
1.12407447e-09
3.05400009e-08
5.05171714e-08
5.01937823e-08
7.80812206e-10
1.08146395e-09
2.99490546e-08
5.22019176e-08
5.18609534e-08
7.33567488e-10
1.24048453e-09
1.11494265e-09
3.04437191e-08
5.0217198e-08
4.96474217e-08
7.09190092e-10
1.12811803e-09
4.05253425e-08
4.6883353e-08
5.58161586e-10
1.07294523e-09
9.90522238e-10
1.03692295e-09
3.13144979e-08
5.4633795e-08
5.44275789e-08
7.54767592e-10
9.9954164e-10
3.22238031e-08
5.56408481e-08
5.51777477e-08
6.92983725e-10
1.08929806e-09
4.3789493e-08
4.95656822e-08
5.37113931e-10
1.12836171e-09
9.9473462e-10
1.15585067e-09
2.97416041e-08
4.46228674e-08
5.32850915e-08
5.329837e-08
6.27083041e-10
1.15906441e-09
1.04849142e-09
3.9943726e-08
4.61805554e-08
6.84637222e-10
1.23485472e-09
1.1122982e-09
3.66565332e-08
4.05162759e-08
7.79990867e-10
3.20313912e-08
4.90505634e-08
7.40376617e-10
1.24886857e-09
1.12034857e-09
2.91542064e-08
4.31890582e-08
5.01922669e-08
5.01014235e-08
7.05078494e-10
1.23086486e-09
1.09498746e-09
3.45492586e-08
4.63134074e-08
9.22321835e-10
1.12949731e-09
2.87258117e-08
5.01313619e-08
4.85277251e-08
8.87669956e-10
3.46121244e-08
4.77688029e-08
7.57275686e-10
1.26447075e-09
1.10660073e-09
3.10423983e-08
5.10190832e-08
5.06356534e-08
8.52944896e-10
1.20057717e-09
4.0217729e-08
4.00404218e-08
7.56243267e-10
3.09823022e-08
5.29818286e-08
8.06518494e-10
1.10256172e-09
4.11960341e-08
4.70516587e-08
7.37770682e-10
1.16882513e-09
4.32422978e-08
4.69660837e-08
6.81533993e-10
1.1848624e-09
4.76478803e-08
4.74546266e-08
5.42768158e-10
1.23117192e-09
8.9868191e-10
1.30892787e-09
1.20046527e-09
2.98009287e-08
4.45462917e-08
4.32799976e-08
5.26314794e-08
5.23923801e-08
7.66743949e-10
1.1703554e-09
1.13364871e-09
3.86396165e-08
3.8903466e-08
8.02571905e-10
3.08977695e-08
5.26698109e-08
8.34103769e-10
1.10135353e-09
4.27611104e-08
4.86311778e-08
7.31474018e-10
1.14087154e-09
4.72156661e-08
5.0050024e-08
6.11101949e-10
1.13035728e-09
9.856709e-10
1.15344441e-09
1.93885888e-08
4.48127376e-08
4.46117849e-08
5.55669952e-08
5.53476331e-08
6.62687038e-10
1.07463193e-09
1.02571313e-09
1.12085739e-09
3.43190582e-08
4.62379142e-08
9.96943252e-10
1.11525166e-09
3.16660298e-08
5.1263014e-08
5.07487621e-08
8.94524463e-10
1.21097529e-09
4.13107847e-08
4.11119726e-08
7.98153531e-10
3.47698766e-08
5.17941451e-08
8.03535018e-10
1.21760254e-09
1.0794163e-09
3.41120595e-08
5.46964225e-08
5.44250488e-08
8.49184252e-10
1.12746452e-09
1.11612936e-09
1.19752172e-09
3.22818472e-08
4.14671243e-08
1.05549521e-09
1.26616099e-09
2.56180911e-08
4.00412758e-08
3.89571514e-08
4.61445661e-08
4.60866098e-08
9.3668391e-10
1.25472147e-09
1.1676505e-09
3.59617051e-08
3.78019226e-08
8.79360899e-10
2.85660923e-08
5.40646706e-08
1.0035568e-09
1.02181382e-09
3.40144813e-08
5.61563187e-08
5.57806332e-08
8.39625744e-10
1.06330464e-09
1.09235537e-09
1.09422141e-09
2.07246996e-08
4.91628247e-08
4.61874895e-08
9.35682543e-10
3.03950084e-08
5.02786332e-08
1.05028015e-09
1.12560572e-09
2.89458645e-08
4.59330943e-08
4.26171798e-08
5.23572213e-08
5.18846535e-08
7.98719872e-10
1.20920124e-09
1.01958786e-09
1.31423016e-09
1.21485822e-09
2.68458674e-08
4.62032909e-08
4.5683408e-08
1.00977062e-09
1.25990557e-09
3.74657603e-08
4.36103728e-08
1.06732462e-09
1.25868453e-09
2.95529168e-08
4.32304322e-08
4.1162135e-08
4.8990107e-08
4.88150272e-08
9.43077567e-10
1.25376843e-09
1.18242589e-09
3.67742219e-08
3.9215437e-08
9.53965691e-10
3.39858936e-08
4.89177816e-08
8.91331783e-10
1.25459746e-09
1.06534918e-09
3.48634276e-08
4.62954126e-08
1.03196442e-09
1.19729411e-09
3.76509698e-08
4.44168949e-08
1.06086897e-09
1.18267656e-09
3.06556749e-08
4.53680975e-08
4.30478972e-08
5.39524791e-08
5.36068821e-08
7.30160168e-10
1.06260665e-09
9.5218812e-10
1.06481369e-09
1.17662907e-09
1.07704122e-09
2.95663419e-08
5.2808335e-08
5.26193803e-08
9.94772096e-10
1.06258457e-09
3.53486063e-08
5.38750021e-08
5.34270216e-08
9.56085011e-10
1.14717758e-09
3.97236351e-08
4.64952754e-08
9.81938989e-10
1.20400585e-09
3.46204154e-08
4.31872993e-08
4.93009905e-08
4.92195617e-08
8.36670267e-10
1.20866878e-09
1.03898959e-09
1.29855535e-09
1.24397735e-09
2.6086294e-08
4.07226601e-08
4.78477232e-08
4.76695972e-08
8.75767351e-10
1.18733043e-09
4.51677604e-08
4.79048416e-08
7.8841799e-10
1.18854544e-09
1.09088032e-09
1.21258402e-09
2.98024348e-08
4.31858222e-08
4.72129276e-08
4.71182819e-08
9.22538219e-10
1.12124277e-09
3.58239979e-08
5.29703128e-08
5.24369142e-08
9.1356018e-10
1.18353946e-09
1.11546953e-09
3.85197324e-08
4.02657731e-08
8.62977936e-10
2.96327391e-08
5.47975008e-08
1.03644512e-09
1.00916065e-09
3.42832592e-08
5.66211879e-08
5.43973438e-08
8.30295748e-10
1.17627782e-09
1.0440435e-09
1.28468797e-09
1.25407279e-09
3.25175645e-08
4.17436152e-08
4.83053009e-08
4.81588413e-08
8.8204665e-10
1.2580211e-09
1.10175282e-09
3.38965109e-08
4.69212727e-08
1.05839756e-09
1.13530301e-09
3.09522586e-08
4.93625063e-08
4.77190875e-08
9.91565512e-10
1.28985845e-09
1.21180558e-09
2.99245514e-08
4.53208967e-08
4.35437447e-08
5.37112694e-08
5.35331928e-08
8.22079772e-10
1.13034233e-09
1.09176445e-09
4.51807206e-08
4.76580002e-08
7.66704378e-10
1.21954039e-09
1.04646886e-09
3.97967092e-08
4.60596915e-08
8.62385309e-10
1.27961193e-09
1.13282176e-09
3.4157896e-08
4.96795313e-08
4.94135982e-08
1.00441649e-09
1.10962337e-09
3.42794556e-08
5.13473266e-08
5.09711145e-08
9.59877499e-10
1.14108006e-09
3.91598721e-08
4.89496215e-08
9.73911856e-10
1.09315803e-09
3.48226931e-08
5.40836341e-08
5.22313683e-08
8.81890734e-10
1.21876336e-09
1.09407948e-09
3.59991815e-08
4.64864569e-08
9.63095572e-10
1.19946609e-09
3.89847109e-08
4.42318554e-08
9.56245844e-10
1.21887101e-09
3.77639738e-08
4.36597116e-08
1.01844771e-09
1.17994283e-09
3.26240875e-08
4.6926117e-08
4.6730433e-08
1.03264234e-09
1.14451578e-09
3.27800508e-08
4.87575878e-08
4.82977991e-08
9.60095632e-10
1.18391883e-09
3.87291393e-08
4.5566512e-08
9.22341876e-10
1.17517865e-09
3.95481045e-08
4.77156656e-08
9.57909448e-10
1.07500713e-09
3.58559707e-08
5.56020116e-08
5.49747752e-08
7.94460298e-10
1.14365263e-09
1.00806943e-09
1.24173336e-09
1.22041164e-09
3.63145617e-08
4.6174788e-08
5.46349871e-08
5.45864217e-08
7.00040572e-10
1.14758395e-09
9.46902827e-10
1.25841386e-09
1.18477931e-09
3.25833084e-08
4.48576169e-08
4.94878683e-08
4.93665307e-08
8.08553137e-10
1.15586043e-09
4.45525075e-08
4.80242141e-08
7.83958077e-10
1.17197556e-09
4.53789912e-08
4.75576603e-08
7.31797976e-10
1.17558927e-09
1.06199933e-09
1.1987257e-09
3.13647074e-08
4.27279491e-08
4.75807403e-08
4.73351018e-08
8.20284981e-10
1.15855457e-09
4.46183159e-08
4.81658434e-08
7.49438373e-10
1.11542608e-09
1.08027268e-09
1.09678583e-09
3.31375857e-08
5.12309167e-08
5.07523028e-08
9.41938489e-10
1.21411126e-09
4.02699626e-08
4.04199942e-08
8.71195331e-10
3.38331997e-08
4.60326786e-08
9.11645144e-10
3.62237614e-08
4.70340489e-08
8.46799012e-10
1.27290268e-09
1.12034194e-09
2.93913177e-08
4.43147447e-08
4.78446622e-08
4.7761815e-08
8.4124577e-10
1.18495602e-09
4.53992217e-08
4.62976122e-08
7.64842132e-10
1.22942362e-09
1.09968444e-09
4.02851148e-08
4.53353617e-08
8.33766022e-10
1.27484884e-09
)
;

boundaryField
{
    closed
    {
        type            calculated;
        value           nonuniform List<scalar> 0();
    }
    open
    {
        type            calculated;
        value           nonuniform List<scalar> 0();
    }
    sides
    {
        type            empty;
    }
    procBoundary2to1
    {
        type            processor;
        value           uniform 2.97498652e-08;
    }
    procBoundary2to3
    {
        type            processor;
        value           uniform 1.10946518e-09;
    }
}


// ************************************************************************* //
