/*--------------------------------*- C++ -*----------------------------------*\
| =========                 |                                                 |
| \\      /  F ield         | OpenFOAM: The Open Source CFD Toolbox           |
|  \\    /   O peration     | Version:  2306                                  |
|   \\  /    A nd           | Website:  www.openfoam.com                      |
|    \\/     M anipulation  |                                                 |
\*---------------------------------------------------------------------------*/
FoamFile
{
    version     2.0;
    format      ascii;
    arch        "LSB;label=32;scalar=64";
    class       volScalarField;
    location    "0.00186";
    object      mu;
}
// * * * * * * * * * * * * * * * * * * * * * * * * * * * * * * * * * * * * * //

dimensions      [1 -1 -1 0 0 0 0];

internalField   nonuniform List<scalar> 
530
(
1.93125914e-05
1.93282426e-05
2.02440326e-05
2.02878434e-05
2.02538076e-05
1.97724729e-05
1.93378222e-05
1.9350918e-05
2.02427556e-05
2.02914361e-05
1.96893721e-05
1.95109744e-05
2.02470119e-05
2.02922022e-05
1.96308745e-05
1.95703566e-05
2.0255608e-05
2.02879028e-05
2.02683407e-05
1.97765294e-05
1.95597861e-05
1.92427207e-05
1.92415168e-05
2.02482204e-05
2.02634069e-05
2.02598222e-05
2.02618185e-05
1.98034843e-05
1.93254075e-05
1.93385759e-05
2.0244716e-05
2.02862171e-05
1.96742569e-05
1.95649216e-05
2.02582692e-05
2.02865058e-05
2.02711996e-05
1.97744145e-05
1.95624081e-05
1.92561239e-05
1.92596831e-05
2.02581337e-05
2.02694237e-05
2.02680759e-05
1.97118902e-05
1.94242949e-05
2.02512728e-05
2.02767178e-05
2.0257883e-05
2.02809002e-05
1.98301204e-05
1.96857671e-05
1.94601564e-05
1.94597413e-05
2.02638739e-05
2.02733015e-05
1.9781768e-05
1.93574282e-05
1.93642142e-05
2.02589423e-05
2.02701264e-05
1.97819333e-05
1.93087371e-05
1.93160472e-05
2.02515925e-05
2.02786464e-05
2.02549437e-05
1.97799511e-05
1.93691548e-05
1.93800158e-05
2.02358962e-05
2.0270647e-05
1.9646914e-05
1.94612228e-05
2.0238402e-05
2.02632494e-05
2.02529325e-05
2.02635725e-05
1.97891556e-05
1.92364716e-05
1.92421864e-05
2.02503307e-05
2.02587238e-05
1.97863871e-05
1.9205888e-05
1.92197015e-05
2.02404835e-05
2.02769017e-05
1.95524473e-05
1.93816009e-05
2.02474843e-05
2.02797456e-05
2.0260862e-05
2.02816544e-05
1.9786699e-05
1.95223777e-05
1.92756754e-05
1.92748339e-05
2.02647723e-05
2.02740552e-05
2.02709633e-05
1.96490038e-05
1.94787038e-05
2.02681091e-05
2.02752266e-05
2.02779029e-05
1.97380434e-05
1.9633615e-05
2.02672216e-05
1.97727199e-05
1.93986476e-05
2.02722179e-05
2.02741635e-05
2.02741703e-05
1.97839775e-05
1.95637934e-05
1.93650055e-05
1.93673727e-05
2.02670126e-05
2.02766671e-05
2.027562e-05
1.97786569e-05
1.94758253e-05
2.02752026e-05
2.02734851e-05
1.97799743e-05
1.93676863e-05
1.94103775e-05
2.02718936e-05
1.97737707e-05
1.94344437e-05
2.0271746e-05
2.02781769e-05
2.02710335e-05
1.97764524e-05
1.93432686e-05
1.93504686e-05
2.02585357e-05
2.02823007e-05
1.96476386e-05
1.96462407e-05
2.02605153e-05
1.97786339e-05
1.9285124e-05
2.0262465e-05
2.02698989e-05
1.96214277e-05
1.94541338e-05
2.02503071e-05
2.02789029e-05
1.95679211e-05
1.94541801e-05
2.02464449e-05
2.02843612e-05
1.94421956e-05
1.94385583e-05
2.02495269e-05
2.02911637e-05
2.02563595e-05
2.0294681e-05
2.02657641e-05
1.97716212e-05
1.95284802e-05
1.9555614e-05
1.9295506e-05
1.93009599e-05
2.02618762e-05
2.02690951e-05
2.02675012e-05
1.96885224e-05
1.96806978e-05
2.02651691e-05
1.97815428e-05
1.92940488e-05
2.02658441e-05
2.02720018e-05
1.95759059e-05
1.94088803e-05
2.02580402e-05
2.02790015e-05
1.9452287e-05
1.93673304e-05
2.02582884e-05
2.02780481e-05
2.02647413e-05
2.02752614e-05
1.98451811e-05
1.95181443e-05
1.95223939e-05
1.92083496e-05
1.92146602e-05
2.02585029e-05
2.02761586e-05
2.02675014e-05
2.02796727e-05
1.97816434e-05
1.94779472e-05
2.0279485e-05
2.02710021e-05
1.97707918e-05
1.93358134e-05
1.93461529e-05
2.02618239e-05
2.02894317e-05
1.96157126e-05
1.96127387e-05
2.02701419e-05
1.97654178e-05
1.93194789e-05
2.02809358e-05
2.02734908e-05
2.02774083e-05
1.97788766e-05
1.92343277e-05
1.9241512e-05
2.02694673e-05
2.02815754e-05
2.02755602e-05
2.02860144e-05
1.97776426e-05
1.96063553e-05
2.02853086e-05
2.02810584e-05
1.97908104e-05
1.96478059e-05
1.96737142e-05
1.94805984e-05
1.94802873e-05
2.02754749e-05
2.02748032e-05
2.02771465e-05
1.9756445e-05
1.97056242e-05
2.02745759e-05
1.97755994e-05
1.92527629e-05
2.0286562e-05
2.02698452e-05
1.9770242e-05
1.9190638e-05
1.92018765e-05
2.02654626e-05
2.02702074e-05
2.02708469e-05
2.02674823e-05
1.98312467e-05
1.93956388e-05
1.94762793e-05
2.02721619e-05
1.97717995e-05
1.9363279e-05
2.02899591e-05
2.0270301e-05
1.97723701e-05
1.9488968e-05
1.95715875e-05
1.93036857e-05
1.93141138e-05
2.02616665e-05
2.02877417e-05
2.02640975e-05
2.0293983e-05
2.02687627e-05
1.97770192e-05
1.94784553e-05
1.94837069e-05
2.02837346e-05
2.03025945e-05
1.97077856e-05
1.95420012e-05
2.02971635e-05
2.02943653e-05
1.97668836e-05
1.95564344e-05
1.96090729e-05
1.9397176e-05
1.9400693e-05
2.02850166e-05
2.02856473e-05
2.02869952e-05
1.97285364e-05
1.96645167e-05
2.02893933e-05
1.97650867e-05
1.93994659e-05
2.02890461e-05
2.02853787e-05
2.0284911e-05
1.97686521e-05
1.9473832e-05
2.02899432e-05
2.02833321e-05
1.97039379e-05
1.95269712e-05
2.0289621e-05
2.02749396e-05
1.97721133e-05
1.95052288e-05
1.95626624e-05
1.92566845e-05
1.92656204e-05
2.02581549e-05
2.02717629e-05
2.02632527e-05
2.02737443e-05
2.02708367e-05
2.02741804e-05
1.97818001e-05
1.92892591e-05
1.92938348e-05
2.02806984e-05
2.02775675e-05
1.97641335e-05
1.92586298e-05
1.92697197e-05
2.0269027e-05
2.02876338e-05
1.96564311e-05
1.94670664e-05
2.02763074e-05
2.02828997e-05
1.97851154e-05
1.95625779e-05
1.93914995e-05
1.93923688e-05
2.02709452e-05
2.02766855e-05
2.02705901e-05
2.02808952e-05
2.02759255e-05
1.9793979e-05
1.96269691e-05
1.94319379e-05
1.94334268e-05
2.02724469e-05
2.0288416e-05
1.95073861e-05
1.9425948e-05
2.02734685e-05
2.02885271e-05
2.02742848e-05
2.0289577e-05
1.97842246e-05
1.95588197e-05
1.94495458e-05
1.94496182e-05
2.02772659e-05
2.02801756e-05
1.97573028e-05
1.92849364e-05
1.92995805e-05
2.0274843e-05
2.02730451e-05
2.02771099e-05
1.96889316e-05
1.96392062e-05
2.02736912e-05
1.97735048e-05
1.92312578e-05
2.02881961e-05
2.02666968e-05
1.97674185e-05
1.91765295e-05
1.92417753e-05
2.02638905e-05
2.02859697e-05
2.02701528e-05
2.02885363e-05
2.02781628e-05
1.97715848e-05
1.96024022e-05
1.94167463e-05
1.94221344e-05
2.02813446e-05
2.02778566e-05
2.02798909e-05
1.97771198e-05
1.94582279e-05
2.02834751e-05
2.0274142e-05
1.97744615e-05
1.93898678e-05
1.94326418e-05
2.02743602e-05
2.02829693e-05
2.02752511e-05
1.97769669e-05
1.95043687e-05
1.95484849e-05
1.92632347e-05
1.92674872e-05
2.02720355e-05
2.02751669e-05
2.02723058e-05
1.95053187e-05
1.94356394e-05
2.02764905e-05
2.02793192e-05
2.0276269e-05
1.96502509e-05
1.94806984e-05
2.02805326e-05
2.02816079e-05
2.02778342e-05
1.9774374e-05
1.93804558e-05
1.9385347e-05
2.02776028e-05
2.02773784e-05
1.97722538e-05
1.93328091e-05
1.93402681e-05
2.02710594e-05
2.02852536e-05
1.96702849e-05
1.93991212e-05
2.02791204e-05
2.02784866e-05
1.97753768e-05
1.92523051e-05
1.93049527e-05
2.02734942e-05
2.02784464e-05
2.02785985e-05
1.97529128e-05
1.9469003e-05
2.02768142e-05
2.02825286e-05
1.96758236e-05
1.95307176e-05
2.02752785e-05
2.02822194e-05
1.97080864e-05
1.95481464e-05
2.02794908e-05
2.02756461e-05
1.97757379e-05
1.9459679e-05
1.94616851e-05
2.02768166e-05
2.0273798e-05
1.97748769e-05
1.94085862e-05
1.94161972e-05
2.02641495e-05
2.02842359e-05
1.9686524e-05
1.94939913e-05
2.02689494e-05
2.02795389e-05
1.9661702e-05
1.94354654e-05
2.02747861e-05
2.02715796e-05
1.97548362e-05
1.92072885e-05
1.92253568e-05
2.02598749e-05
2.02816262e-05
2.02661045e-05
2.02851012e-05
2.02776885e-05
1.97421563e-05
1.94795317e-05
1.92356419e-05
1.92369949e-05
2.02685458e-05
2.02785751e-05
2.02689154e-05
2.02828413e-05
2.02782391e-05
1.97785976e-05
1.95155474e-05
1.93857193e-05
1.93871518e-05
2.02633279e-05
2.02812814e-05
1.95277029e-05
1.94243612e-05
2.0258147e-05
2.02824141e-05
1.95054839e-05
1.94375021e-05
2.02577709e-05
2.02801114e-05
2.02613493e-05
2.02814613e-05
1.97901452e-05
1.95747239e-05
1.94421267e-05
1.94453502e-05
2.02590025e-05
2.02760024e-05
1.95253764e-05
1.94221689e-05
2.02648788e-05
2.02726634e-05
2.02729738e-05
2.02723932e-05
1.97716995e-05
1.93368942e-05
1.93461247e-05
2.02626667e-05
2.02878881e-05
1.96456279e-05
1.96332932e-05
2.02676763e-05
1.97727888e-05
1.94857169e-05
2.0278275e-05
1.97510397e-05
1.94553886e-05
2.027074e-05
2.02738266e-05
2.02739053e-05
1.97850234e-05
1.95310622e-05
1.94326961e-05
1.94325586e-05
2.02677998e-05
2.02823269e-05
1.95017239e-05
1.94723486e-05
2.02703007e-05
2.02804415e-05
2.02769909e-05
1.96387522e-05
1.9501307e-05
2.02736954e-05
2.0279497e-05
)
;

boundaryField
{
    closed
    {
        type            calculated;
        value           nonuniform List<scalar> 0();
    }
    open
    {
        type            calculated;
        value           nonuniform List<scalar> 0();
    }
    sides
    {
        type            empty;
    }
    procBoundary2to1
    {
        type            processor;
        value           uniform 1.97742235e-05;
    }
    procBoundary2to3
    {
        type            processor;
        value           uniform 2.02717657e-05;
    }
}


// ************************************************************************* //
