/*--------------------------------*- C++ -*----------------------------------*\
| =========                 |                                                 |
| \\      /  F ield         | OpenFOAM: The Open Source CFD Toolbox           |
|  \\    /   O peration     | Version:  2306                                  |
|   \\  /    A nd           | Website:  www.openfoam.com                      |
|    \\/     M anipulation  |                                                 |
\*---------------------------------------------------------------------------*/
FoamFile
{
    version     2.0;
    format      ascii;
    arch        "LSB;label=32;scalar=64";
    class       volScalarField;
    location    "0.00186";
    object      prefDPV_T;
}
// * * * * * * * * * * * * * * * * * * * * * * * * * * * * * * * * * * * * * //

dimensions      [1 -1 -1 -1 0 0 0];

internalField   nonuniform List<scalar> 
530
(
5.88782476e-10
5.8848283e-10
6.11565364e-10
6.08629522e-10
6.09379e-10
5.93906946e-10
5.88982433e-10
5.88589283e-10
6.11371603e-10
6.09028652e-10
5.91095166e-10
5.89608804e-10
6.1152638e-10
6.08750043e-10
5.90682924e-10
5.89981596e-10
6.11644635e-10
6.08372717e-10
6.09054444e-10
5.92808286e-10
5.901986e-10
5.88170686e-10
5.88161919e-10
6.12401086e-10
6.09718989e-10
6.10029974e-10
6.09630912e-10
5.96499641e-10
5.88823941e-10
5.88582749e-10
6.11340479e-10
6.09029847e-10
5.90931432e-10
5.89995312e-10
6.11455732e-10
6.08392871e-10
6.08965774e-10
5.92570959e-10
5.90187888e-10
5.88188755e-10
5.88238159e-10
6.12075138e-10
6.09096001e-10
6.09917977e-10
5.9106952e-10
5.89252094e-10
6.1191328e-10
6.09075459e-10
6.0985056e-10
6.08785148e-10
5.98185042e-10
5.90813561e-10
5.89570789e-10
5.89420563e-10
6.10878457e-10
6.09256463e-10
5.93413882e-10
5.8893349e-10
5.88818307e-10
6.10871418e-10
6.09456152e-10
5.93686254e-10
5.88686442e-10
5.88494376e-10
6.11083873e-10
6.08701444e-10
6.09265082e-10
5.93443246e-10
5.89212089e-10
5.88928307e-10
6.11180137e-10
6.09231415e-10
5.90911596e-10
5.8955104e-10
6.11889714e-10
6.09484129e-10
6.09863622e-10
6.09658575e-10
5.9312217e-10
5.88286568e-10
5.88160691e-10
6.10982397e-10
6.09829908e-10
5.92687678e-10
5.88174845e-10
5.87919536e-10
6.11261392e-10
6.09431978e-10
5.90245301e-10
5.8889944e-10
6.11996407e-10
6.0924929e-10
6.09856685e-10
6.09120357e-10
5.93819548e-10
5.89851846e-10
5.88340349e-10
5.88277811e-10
6.11599245e-10
6.09088273e-10
6.09616736e-10
5.90603678e-10
5.89572906e-10
6.11335772e-10
6.08721192e-10
6.09323029e-10
5.91181275e-10
5.90509442e-10
6.10887633e-10
5.92659092e-10
5.89126292e-10
6.11081329e-10
6.08650128e-10
6.09276302e-10
5.94069018e-10
5.90157898e-10
5.88866875e-10
5.88867789e-10
6.11238686e-10
6.08743973e-10
6.09401892e-10
5.91576136e-10
5.89585466e-10
6.10228024e-10
6.09230567e-10
5.94237354e-10
5.88939089e-10
5.89052138e-10
6.10386668e-10
5.9150463e-10
5.89316128e-10
6.11001382e-10
6.08582849e-10
6.09336442e-10
5.9314076e-10
5.8887982e-10
5.88665385e-10
6.1052967e-10
6.08904576e-10
5.90732045e-10
5.90583016e-10
6.1098937e-10
5.9318612e-10
5.88468705e-10
6.10755347e-10
6.09353715e-10
5.90584274e-10
5.89415998e-10
6.11062437e-10
6.09051336e-10
5.90343366e-10
5.89327212e-10
6.1132194e-10
6.08985693e-10
5.89552049e-10
5.89153708e-10
6.11972341e-10
6.08776597e-10
6.10308835e-10
6.08405673e-10
6.08868932e-10
5.93673093e-10
5.90013675e-10
5.89951375e-10
5.88541286e-10
5.88421287e-10
6.10941938e-10
6.09022891e-10
6.09198205e-10
5.90942692e-10
5.90879286e-10
6.10778103e-10
5.93248587e-10
5.88494889e-10
6.10630269e-10
6.09363775e-10
5.90240835e-10
5.89107115e-10
6.11102309e-10
6.09187137e-10
5.89515997e-10
5.8878289e-10
6.11665179e-10
6.09236001e-10
6.09906958e-10
6.09118141e-10
5.99243706e-10
5.89858359e-10
5.89842979e-10
5.87981071e-10
5.87872152e-10
6.11425053e-10
6.09501151e-10
6.09719747e-10
6.09285418e-10
5.91705565e-10
5.8959865e-10
6.09880511e-10
6.09294496e-10
5.92809304e-10
5.8880833e-10
5.88573118e-10
6.10337278e-10
6.08870667e-10
5.90485929e-10
5.90268549e-10
6.10806735e-10
5.91359871e-10
5.88637774e-10
6.1079942e-10
6.08801716e-10
6.09480652e-10
5.91773752e-10
5.88148034e-10
5.87999857e-10
6.1056483e-10
6.09257579e-10
6.09299605e-10
6.08928005e-10
5.92587071e-10
5.90304171e-10
6.09612074e-10
6.08581355e-10
5.95790045e-10
5.90628086e-10
5.90719914e-10
5.89616145e-10
5.89546216e-10
6.10160226e-10
6.08622876e-10
6.090532e-10
5.91296015e-10
5.90941218e-10
6.1043071e-10
5.94279105e-10
5.88196578e-10
6.09863143e-10
6.09742859e-10
5.91741653e-10
5.87902868e-10
5.877703e-10
6.10603548e-10
6.09543924e-10
6.09404961e-10
6.09389307e-10
5.9847443e-10
5.89118298e-10
5.89479796e-10
6.10158984e-10
5.9340002e-10
5.88901869e-10
6.09646988e-10
6.09242895e-10
5.94076935e-10
5.89754392e-10
5.89997763e-10
5.88604444e-10
5.88387691e-10
6.10790953e-10
6.08875277e-10
6.09742968e-10
6.08377859e-10
6.08804844e-10
5.95105796e-10
5.89585181e-10
5.89316304e-10
6.09827699e-10
6.08665655e-10
5.90825572e-10
5.89741672e-10
6.09581348e-10
6.08650482e-10
5.93751491e-10
5.89942221e-10
5.90192154e-10
5.88961793e-10
5.88919867e-10
6.10147923e-10
6.08652995e-10
6.09003581e-10
5.91003537e-10
5.9061461e-10
6.10104934e-10
5.9170943e-10
5.8898773e-10
6.10400794e-10
6.08648296e-10
6.0956395e-10
5.91346626e-10
5.89483962e-10
6.09734561e-10
6.08922913e-10
5.90820875e-10
5.89846512e-10
6.09595539e-10
6.08975308e-10
5.93282614e-10
5.89865721e-10
5.90014419e-10
5.88344674e-10
5.88191851e-10
6.11108637e-10
6.0955032e-10
6.10064649e-10
6.09543597e-10
6.08995974e-10
6.09485547e-10
5.93861514e-10
5.88384667e-10
5.88325046e-10
6.0989327e-10
6.09562001e-10
5.91196631e-10
5.88283682e-10
5.88088349e-10
6.10056097e-10
6.09175738e-10
5.90682659e-10
5.89399472e-10
6.09946049e-10
6.08889261e-10
5.91601857e-10
5.90115304e-10
5.89083342e-10
5.89013784e-10
6.10626416e-10
6.08852448e-10
6.09661731e-10
6.08421911e-10
6.08678106e-10
5.95584522e-10
5.90443607e-10
5.89289049e-10
5.89154579e-10
6.10444034e-10
6.08983094e-10
5.89764067e-10
5.89071282e-10
6.10857903e-10
6.08977459e-10
6.09418994e-10
6.08863194e-10
5.93771915e-10
5.89988437e-10
5.8938561e-10
5.89286932e-10
6.10230762e-10
6.09284632e-10
5.91251737e-10
5.88402964e-10
5.88404419e-10
6.10269e-10
6.08967009e-10
6.09306035e-10
5.90886996e-10
5.90517807e-10
6.1050671e-10
5.93765802e-10
5.88105183e-10
6.09709424e-10
6.09797787e-10
5.91596052e-10
5.87841095e-10
5.87913431e-10
6.10645198e-10
6.0903104e-10
6.09636583e-10
6.0850878e-10
6.08633793e-10
5.92428859e-10
5.9036713e-10
5.89096734e-10
5.89184822e-10
6.10430139e-10
6.0861373e-10
6.09378135e-10
5.91854943e-10
5.89457752e-10
6.09594295e-10
6.09203793e-10
5.93165679e-10
5.89080294e-10
5.89173355e-10
6.09896342e-10
6.08469695e-10
6.08833941e-10
5.93658071e-10
5.89786698e-10
5.89908957e-10
5.88273731e-10
5.88168635e-10
6.10697072e-10
6.09229981e-10
6.09410731e-10
5.89696403e-10
5.89243716e-10
6.10964777e-10
6.08805336e-10
6.09636862e-10
5.90552406e-10
5.89537045e-10
6.10521557e-10
6.08516699e-10
6.09223615e-10
5.91713534e-10
5.89004968e-10
5.88894304e-10
6.09841098e-10
6.09334853e-10
5.91640322e-10
5.88746671e-10
5.88561431e-10
6.10041642e-10
6.09199856e-10
5.90740386e-10
5.89011633e-10
6.09989746e-10
6.09416645e-10
5.91424698e-10
5.88213199e-10
5.88389922e-10
6.10416839e-10
6.08807143e-10
6.09412434e-10
5.91228259e-10
5.89471814e-10
6.10036925e-10
6.08910505e-10
5.90792436e-10
5.89829604e-10
6.10066704e-10
6.08815268e-10
5.90985026e-10
5.89986209e-10
6.09777666e-10
6.08990153e-10
5.92416024e-10
5.89528426e-10
5.89408125e-10
6.09704329e-10
6.09158384e-10
5.92338166e-10
5.89265404e-10
5.89060778e-10
6.10028377e-10
6.08989988e-10
5.90939041e-10
5.89605701e-10
6.10216831e-10
6.09021874e-10
5.90727042e-10
5.89302239e-10
6.1005786e-10
6.09490178e-10
5.91207458e-10
5.88031241e-10
5.8787257e-10
6.10808399e-10
6.09179382e-10
6.09801949e-10
6.08710482e-10
6.08797376e-10
5.91116787e-10
5.89601737e-10
5.88016493e-10
5.88009604e-10
6.11264474e-10
6.09153689e-10
6.10099723e-10
6.08623545e-10
6.08972311e-10
5.92458891e-10
5.89799799e-10
5.89024891e-10
5.88929074e-10
6.10747055e-10
6.09119485e-10
5.89989769e-10
5.89132448e-10
6.1085544e-10
6.09043843e-10
5.89886599e-10
5.89217374e-10
6.11100419e-10
6.0902115e-10
6.09533523e-10
6.08911673e-10
5.93107704e-10
5.90177308e-10
5.89463551e-10
5.89329653e-10
6.10685095e-10
6.09094912e-10
5.89960097e-10
5.89195142e-10
6.11027696e-10
6.09297032e-10
6.09467545e-10
6.09386645e-10
5.92149379e-10
5.88826373e-10
5.88577159e-10
6.10112635e-10
6.08851742e-10
5.90706118e-10
5.90441482e-10
6.10457642e-10
5.91845445e-10
5.89718521e-10
6.10284325e-10
5.91290219e-10
5.89453274e-10
6.10578218e-10
6.08531347e-10
6.09275786e-10
5.93967592e-10
5.89909854e-10
5.89322482e-10
5.89217835e-10
6.10599641e-10
6.08980608e-10
5.89755243e-10
5.89425174e-10
6.1096361e-10
6.08759657e-10
6.09382046e-10
5.90516482e-10
5.89680476e-10
6.10644716e-10
6.08535034e-10
)
;

boundaryField
{
    closed
    {
        type            calculated;
        value           nonuniform List<scalar> 0();
    }
    open
    {
        type            calculated;
        value           nonuniform List<scalar> 0();
    }
    sides
    {
        type            empty;
    }
    procBoundary2to1
    {
        type            processor;
        value           uniform 5.93717162e-10;
    }
    procBoundary2to3
    {
        type            processor;
        value           uniform 6.09324058e-10;
    }
}


// ************************************************************************* //
