/*--------------------------------*- C++ -*----------------------------------*\
| =========                 |                                                 |
| \\      /  F ield         | OpenFOAM: The Open Source CFD Toolbox           |
|  \\    /   O peration     | Version:  2306                                  |
|   \\  /    A nd           | Website:  www.openfoam.com                      |
|    \\/     M anipulation  |                                                 |
\*---------------------------------------------------------------------------*/
FoamFile
{
    version     2.0;
    format      ascii;
    arch        "LSB;label=32;scalar=64";
    class       volScalarField;
    location    "0.00186";
    object      prefDZ_H;
}
// * * * * * * * * * * * * * * * * * * * * * * * * * * * * * * * * * * * * * //

dimensions      [1 -1 -1 0 0 0 0];

internalField   nonuniform List<scalar> 
530
(
0.000105373644
0.000105470482
0.000109932395
0.000110276838
0.000110057879
0.000107811099
0.000105510444
0.000105595464
0.000109931232
0.000110284776
0.000107435162
0.000106470029
0.000109950716
0.000110298011
0.000107116617
0.000106794612
0.000109996241
0.000110285325
0.000110151515
0.000107870849
0.000106729045
0.000104996474
0.000104989925
0.000109929834
0.000110102131
0.000110071703
0.000110095819
0.000107903004
0.000105444835
0.00010552599
0.000109943461
0.000110254809
0.00010735441
0.000106763594
0.000110017504
0.000110276675
0.000110170722
0.000107866605
0.000106744128
0.000105071652
0.000105090345
0.000109997035
0.000110156406
0.000110122586
0.000107562769
0.000105990967
0.000109962846
0.000110198886
0.00011006628
0.000110232083
0.000107999968
0.000107422479
0.000106184423
0.000106186265
0.000110067984
0.000110173551
0.000107880776
0.00010562252
0.000105664068
0.000110039932
0.000110149006
0.000107872678
0.000105354605
0.000105401315
0.00010999104
0.000110221813
0.000110068009
0.000107869379
0.000105680859
0.000105750159
0.000109897989
0.000110159124
0.000107200799
0.000106190991
0.000109889804
0.000110108683
0.000110037479
0.000110104999
0.000107932848
0.000104957867
0.000104993742
0.00010998703
0.000110071757
0.000107931412
0.000104788297
0.000104873638
0.000109921707
0.000110188626
0.000106686364
0.000105759915
0.000109938482
0.000110210733
0.000110083167
0.000110225771
0.000107895585
0.000106527632
0.000105177744
0.00010517477
0.000110050228
0.000110183211
0.000110148708
0.000107220978
0.000106289006
0.000110077735
0.000110201575
0.000110197825
0.00010770712
0.000107136802
0.000110086888
0.000107853953
0.000105849756
0.000110109381
0.000110197733
0.000110177903
0.000107871695
0.000106752766
0.000105667168
0.000105680503
0.000110074534
0.000110209114
0.000110182231
0.000107924036
0.000106272419
0.000110153606
0.000110175426
0.000107843153
0.000105680267
0.000105918025
0.000110129592
0.000107898376
0.000106046445
0.000110109216
0.000110222883
0.000110158007
0.000107859359
0.000105544099
0.000105590788
0.000110048457
0.000110236325
0.000107209788
0.000107205966
0.000110045203
0.000107870366
0.000105227451
0.000110063818
0.000110150953
0.000107066053
0.000106154756
0.000109984351
0.000110212182
0.000106770936
0.000106157488
0.000109953962
0.000110245567
0.000106083595
0.000106074186
0.000109950958
0.000110291213
0.000110042993
0.000110323153
0.000110142625
0.000107813973
0.000106557578
0.00010671232
0.000105284014
0.00010531821
0.000110054513
0.000110156842
0.000110142139
0.00010743451
0.00010739213
0.000110078599
0.000107884976
0.000105277102
0.000110087166
0.000110162692
0.00010681879
0.000105908039
0.000110027423
0.000110208438
0.000106141549
0.00010568265
0.000110010956
0.00011020142
0.000110103815
0.00011018918
0.000108051396
0.000106503574
0.000106527968
0.00010480776
0.00010484652
0.000110019819
0.000110182168
0.000110125585
0.000110209167
0.000107936866
0.000106284023
0.000110189199
0.000110159158
0.0001078379
0.00010550403
0.000105569026
0.000110073422
0.000110278295
0.000107036521
0.00010702569
0.000110106203
0.000107855261
0.000105416634
0.000110168328
0.000110189067
0.000110189986
0.00010791872
0.000104949718
0.000104994518
0.000110110021
0.000110220962
0.000110185134
0.000110256878
0.000107884589
0.000106988735
0.000110231117
0.000110239455
0.00010785384
0.000107213563
0.00010735709
0.000106298494
0.00010629868
0.000110157321
0.000110202266
0.000110202051
0.000107807708
0.000107530924
0.000110143574
0.000107816683
0.000105052449
0.000110230333
0.000110138292
0.000107870242
0.00010470995
0.000104777231
0.000110085828
0.000110146684
0.000110154762
0.000110135965
0.000107996909
0.000105832999
0.000106277914
0.000110138363
0.00010782406
0.000105656438
0.000110256677
0.000110156776
0.00010780487
0.00010634187
0.000106801109
0.000105328408
0.000105393415
0.000110058108
0.000110268457
0.00011010533
0.000110320032
0.000110161854
0.000107797438
0.000106287264
0.000106324331
0.000110215244
0.000110360289
0.000107546216
0.000106641324
0.000110300076
0.000110313576
0.000107784203
0.000106717197
0.000107007108
0.00010584606
0.000105867078
0.000110212426
0.000110263499
0.000110260104
0.000107658335
0.00010730811
0.000110238889
0.000107841733
0.000105858255
0.0001102275
0.000110262108
0.000110230365
0.000107874261
0.000106263993
0.000110253805
0.000110241657
0.000107524665
0.000106553686
0.000110256372
0.000110191867
0.000107829758
0.000106430515
0.000106750332
0.000105070375
0.000105125188
0.000110027879
0.000110155401
0.000110090272
0.000110166976
0.000110167683
0.00011017132
0.000107866095
0.000105253185
0.000105280709
0.000110195752
0.000110188316
0.000107853675
0.0001050831
0.000105151272
0.000110123654
0.000110258303
0.000107260695
0.000106228174
0.000110168896
0.000110240245
0.000107960242
0.000106747083
0.000105810619
0.000105817476
0.000110116539
0.000110205777
0.000110145139
0.000110243577
0.00011020695
0.000107878798
0.000107101133
0.000106033062
0.000106045212
0.000110130943
0.000110268903
0.000106445501
0.00010600534
0.000110123652
0.000110269718
0.000110174031
0.000110279366
0.000107882975
0.000106729378
0.000106129717
0.000106132873
0.00011016535
0.000110212076
0.000107813727
0.000105228259
0.000105310899
0.000110150242
0.000110181266
0.000110193817
0.000107438325
0.00010716809
0.000110136087
0.000107821699
0.000104933603
0.000110244584
0.000110118495
0.000107858885
0.000104632019
0.000104998465
0.000110075491
0.000110253352
0.000110143429
0.000110284642
0.000110221186
0.000107855094
0.000106964727
0.000105952715
0.000105980656
0.000110182405
0.000110220067
0.000110207476
0.000107905938
0.000106176692
0.000110221167
0.000110180042
0.000107847111
0.000105801495
0.000106040261
0.000110159309
0.000110253956
0.000110198139
0.00010784513
0.000106427854
0.000106673288
0.000105109388
0.000105136389
0.000110120545
0.000110185089
0.000110162945
0.000106435713
0.000106055212
0.000110137584
0.000110222376
0.000110178493
0.0001072294
0.000106301253
0.000110174844
0.000110244658
0.000110200586
0.000107894887
0.000105750489
0.000105781199
0.000110179657
0.000110194442
0.000107885157
0.000105488812
0.000105536142
0.000110135767
0.000110243887
0.00010733721
0.000105855641
0.000110183639
0.0001101982
0.000107910253
0.00010504939
0.000105341638
0.000110137812
0.000110217313
0.000110198976
0.000107789627
0.00010623709
0.000110168916
0.000110237444
0.000107367014
0.000106575281
0.000110159164
0.000110238692
0.000107543615
0.000106669254
0.000110192497
0.000110195448
0.000107879348
0.000106182911
0.000106197577
0.000110179491
0.000110179511
0.000107876997
0.000105901945
0.000105950621
0.000110096566
0.000110244712
0.000107423347
0.000106374332
0.000110118104
0.000110216764
0.000107289198
0.000106052598
0.000110156622
0.000110156259
0.000107801018
0.000104800329
0.000104906917
0.000110047281
0.000110223736
0.000110114966
0.000110258543
0.000110213276
0.000107732022
0.000106292876
0.000104960895
0.000104968732
0.000110082505
0.000110207054
0.000110121629
0.000110248341
0.000110210883
0.000107894329
0.000106490546
0.000105779637
0.00010579041
0.000110069029
0.000110223659
0.000106553855
0.000105994683
0.000110035879
0.000110232555
0.000106431375
0.000106066455
0.000110025939
0.000110220071
0.00011009622
0.000110231286
0.000107939006
0.00010681387
0.00010608568
0.000106107605
0.000110046196
0.000110194166
0.000106541553
0.000105980563
0.000110069004
0.000110168604
0.000110164972
0.000110164211
0.000107865044
0.000105509622
0.000105568754
0.000110085389
0.000110270044
0.000107199161
0.000107136838
0.000110103156
0.000107881403
0.000106324526
0.000110169435
0.000107777413
0.000106160798
0.000110116893
0.000110199569
0.0001101764
0.00010788106
0.000106575011
0.000106036406
0.000106038551
0.000110099353
0.000110234062
0.000106413807
0.000106257257
0.000110102129
0.000110230261
0.000110190722
0.000107165567
0.000106413526
0.000110131727
0.00011023197
)
;

boundaryField
{
    closed
    {
        type            calculated;
        value           nonuniform List<scalar> 0();
    }
    open
    {
        type            calculated;
        value           nonuniform List<scalar> 0();
    }
    sides
    {
        type            empty;
    }
    procBoundary2to1
    {
        type            processor;
        value           uniform 0.000107827435;
    }
    procBoundary2to3
    {
        type            processor;
        value           uniform 0.000110162599;
    }
}


// ************************************************************************* //
