/*--------------------------------*- C++ -*----------------------------------*\
| =========                 |                                                 |
| \\      /  F ield         | OpenFOAM: The Open Source CFD Toolbox           |
|  \\    /   O peration     | Version:  2306                                  |
|   \\  /    A nd           | Website:  www.openfoam.com                      |
|    \\/     M anipulation  |                                                 |
\*---------------------------------------------------------------------------*/
FoamFile
{
    version     2.0;
    format      ascii;
    arch        "LSB;label=32;scalar=64";
    class       volScalarField;
    location    "0.00186";
    object      T;
}
// * * * * * * * * * * * * * * * * * * * * * * * * * * * * * * * * * * * * * //

dimensions      [0 0 0 1 0 0 0];

internalField   nonuniform List<scalar> 
530
(
319.402459
319.745123
338.764353
339.823403
339.046723
329.256188
319.955283
320.241425
338.741956
339.89118
327.651594
323.743955
338.83153
339.91646
326.371064
325.04281
339.018339
339.832329
339.378462
329.437303
324.815004
317.871884
317.84551
338.831582
339.249294
339.16054
339.216729
329.77579
319.683293
319.971421
338.786324
339.775446
327.319808
324.92457
339.083043
339.800761
339.444463
329.406448
324.872085
318.165707
318.243616
339.061136
339.401229
339.346801
328.141159
321.848541
338.914117
339.563516
339.12295
339.664859
330.264091
327.568244
322.634184
322.624106
339.224736
339.4824
329.512294
320.384678
320.532937
339.115687
339.406069
329.494781
319.318079
319.47821
338.946428
339.61738
339.07529
329.467526
320.641825
320.878937
338.595829
339.424312
326.723818
322.657364
338.629771
339.252825
339.012864
339.254772
329.70774
317.734368
317.8602
338.921548
339.142199
329.676975
317.063564
317.367924
338.694973
339.556958
324.65534
320.913499
338.827665
339.625449
339.188779
339.671606
329.595722
323.995207
318.593947
318.575598
339.222735
339.504116
339.419817
326.76471
323.039378
339.304687
339.540985
339.582403
328.71194
326.428197
339.29863
329.359973
321.287176
339.403458
339.519526
339.501064
329.512468
324.901958
320.55038
320.602176
339.283346
339.572243
339.529448
329.582976
322.976612
339.495411
339.487241
329.405554
320.60922
321.543294
339.417299
329.474483
322.070718
339.395428
339.610486
339.429746
329.409479
320.07457
320.231811
339.117003
339.692357
326.737012
326.70423
339.146964
329.456903
318.800832
339.197246
339.404085
326.163826
322.501586
338.918602
339.612669
324.994056
322.501971
338.82518
339.73562
322.241432
322.15957
338.873641
339.892648
339.075438
339.98164
339.326862
329.254716
324.12995
324.72116
319.028269
319.147821
339.178552
339.396119
339.355577
327.630507
327.459134
339.25647
329.519985
318.996384
339.275896
339.450391
325.167073
321.510846
339.088707
339.610809
322.461864
320.600993
339.077088
339.588218
339.273234
339.529962
330.53049
323.902885
323.995472
317.118631
317.257541
339.089153
339.538417
339.340009
339.622753
329.642632
323.023056
339.600774
339.430302
329.303175
319.911246
320.137158
339.195657
339.851451
326.037922
325.969949
339.365787
329.290765
319.553427
339.60519
339.500121
339.566731
329.57275
317.687879
317.845864
339.358157
339.665759
339.531176
339.773985
329.480589
325.831484
339.737904
339.67441
329.535708
326.739029
327.304382
323.08109
323.073739
339.503488
339.534514
339.573681
329.114196
328.00245
339.47541
329.299899
318.092006
339.75815
339.391259
329.373675
316.730297
316.977571
339.268251
339.405241
339.423566
339.349463
330.266564
321.221333
322.985689
339.430105
329.28038
320.512684
339.83994
339.416301
329.240347
323.264951
325.069844
319.207454
319.435785
339.178478
339.813846
339.263882
339.966988
339.395225
329.267372
323.034048
323.14625
339.696546
340.149389
328.04711
324.421872
340.001613
339.967378
329.137737
324.738928
325.888959
321.254295
321.330953
339.715324
339.774019
339.793477
328.501645
327.102436
339.813624
329.255825
321.304473
339.796997
339.768205
339.730535
329.367288
322.932293
339.836959
339.714674
327.963409
324.095375
339.83399
339.52708
329.29694
323.620983
324.875574
318.177585
318.373832
339.091056
339.439523
339.235515
339.483639
339.435522
339.495039
329.477887
318.891537
318.991787
339.627283
339.567826
329.278903
318.220413
318.463753
339.36373
339.8025
326.927674
322.783902
339.52838
339.70609
329.731719
324.874956
321.130665
321.149417
339.389044
339.56943
339.410199
339.675511
339.557755
329.62642
326.282474
322.015799
322.047503
339.427829
339.825585
323.667198
321.883601
339.437946
339.828215
339.499343
339.854894
329.541617
324.791493
322.401149
322.402051
339.541053
339.633924
329.131857
318.796809
319.117611
339.486206
339.485333
339.565333
327.638416
326.550051
339.45351
329.291456
317.6207
339.798987
339.319843
329.319093
316.420904
317.851823
339.23216
339.769925
339.401258
339.842346
339.608666
329.351451
325.746251
321.682721
321.800958
339.625425
339.602471
339.624821
329.525427
322.591307
339.697797
339.502599
329.361
321.094959
322.030479
339.486718
339.720081
339.538184
329.38089
323.601532
324.565242
318.321391
318.41477
339.411064
339.524536
339.455728
323.621449
322.096414
339.501667
339.629213
339.536804
326.790995
323.082639
339.604667
339.688507
339.583847
329.472326
320.888812
320.995392
339.56024
339.570424
329.428525
319.845413
320.008397
339.409202
339.749016
327.230142
321.29705
339.58941
339.592543
329.51818
318.081926
319.235247
339.451859
339.60981
339.595149
329.035993
322.826755
339.536878
339.697233
327.351561
324.176916
339.501948
339.693208
328.056829
324.55876
339.603988
339.542299
329.449452
322.623482
322.666467
339.546918
339.496328
329.435417
321.505096
321.670519
339.256476
339.732714
327.586958
323.373401
339.357174
339.627644
327.043135
322.092967
339.491303
339.437259
329.077305
317.095098
317.492082
339.138256
339.66922
339.30659
339.760206
339.5933
328.799927
323.057683
317.717137
317.74682
339.31653
339.602353
339.359944
339.712685
339.600307
329.512894
323.845652
321.004023
321.034996
339.216616
339.663363
324.112759
321.849321
339.09855
339.690724
323.626725
322.136938
339.082799
339.640357
339.209241
339.673538
329.731988
325.140524
322.239472
322.309122
339.122655
339.547078
324.061696
321.80177
339.242477
339.467047
339.468836
339.458384
329.37594
319.934928
320.136553
339.221089
339.817793
326.692825
326.420113
339.321706
329.425053
323.193668
339.561802
328.996634
322.529248
339.385952
339.515572
339.495206
329.544908
324.185281
322.032556
322.028942
339.320156
339.690675
323.543517
322.899427
339.364552
339.655447
339.560426
326.540146
323.533749
339.449431
339.641167
)
;

boundaryField
{
    closed
    {
        type            fixedValue;
        value           nonuniform List<scalar> 0();
    }
    open
    {
        type            zeroGradient;
    }
    sides
    {
        type            empty;
    }
    procBoundary2to1
    {
        type            processor;
        value           uniform 329.312094;
    }
    procBoundary2to3
    {
        type            processor;
        value           uniform 339.446345;
    }
}


// ************************************************************************* //
