/*--------------------------------*- C++ -*----------------------------------*\
| =========                 |                                                 |
| \\      /  F ield         | OpenFOAM: The Open Source CFD Toolbox           |
|  \\    /   O peration     | Version:  2306                                  |
|   \\  /    A nd           | Website:  www.openfoam.com                      |
|    \\/     M anipulation  |                                                 |
\*---------------------------------------------------------------------------*/
FoamFile
{
    version     2.0;
    format      ascii;
    arch        "LSB;label=32;scalar=64";
    class       volScalarField;
    location    "0.00058";
    object      alpha;
}
// * * * * * * * * * * * * * * * * * * * * * * * * * * * * * * * * * * * * * //

dimensions      [1 -1 -1 0 0 0 0];

internalField   nonuniform List<scalar> 
531
(
3.68212211e-05
3.57611669e-05
3.53291907e-05
3.62815136e-05
3.683266e-05
3.57461382e-05
3.53500329e-05
3.63742563e-05
3.6837296e-05
3.57433573e-05
3.53239388e-05
3.62685133e-05
3.68372619e-05
3.57396349e-05
3.53060129e-05
3.61353323e-05
3.68386037e-05
3.57362327e-05
3.53210524e-05
3.64213004e-05
3.68380596e-05
3.5744016e-05
3.54060615e-05
3.58686674e-05
3.68359113e-05
3.6829478e-05
3.56606395e-05
3.50390924e-05
3.56825429e-05
3.67623665e-05
3.684588e-05
3.62841709e-05
3.57155974e-05
3.5382518e-05
3.51930296e-05
3.56419741e-05
3.68346364e-05
3.68359744e-05
3.57025935e-05
3.50781534e-05
3.56794038e-05
3.6769268e-05
3.68616408e-05
3.62552646e-05
3.56440125e-05
3.49928518e-05
3.56380565e-05
3.68039473e-05
3.64446989e-05
3.52842225e-05
3.57145861e-05
3.68154994e-05
3.61479699e-05
3.53553998e-05
3.57639096e-05
3.68254778e-05
3.59029768e-05
3.54302493e-05
3.58139782e-05
3.68292291e-05
3.67654192e-05
3.55703856e-05
3.50107159e-05
3.57531657e-05
3.68116641e-05
3.58627406e-05
3.54370444e-05
3.58525387e-05
3.68304214e-05
3.67839513e-05
3.56438125e-05
3.51155711e-05
3.57008866e-05
3.68176976e-05
3.68583587e-05
3.57092082e-05
3.5231414e-05
3.56907605e-05
3.68142434e-05
3.68732778e-05
3.58895824e-05
3.56576565e-05
3.56710752e-05
3.57168639e-05
3.55739309e-05
3.54872679e-05
3.58577503e-05
3.68369647e-05
3.68463625e-05
3.59761852e-05
3.539379e-05
3.57026839e-05
3.68331704e-05
3.63105107e-05
3.52419534e-05
3.56929174e-05
3.68239548e-05
3.62880728e-05
3.52803955e-05
3.57050469e-05
3.68192366e-05
3.59860219e-05
3.5334381e-05
3.5867607e-05
3.68345719e-05
3.57635977e-05
3.54519334e-05
3.60642746e-05
3.68263332e-05
3.66015569e-05
3.56854923e-05
3.52047139e-05
3.57174077e-05
3.68026697e-05
3.68527884e-05
3.57603243e-05
3.53101564e-05
3.51724221e-05
3.57768779e-05
3.68087441e-05
3.57824719e-05
3.53191115e-05
3.62651724e-05
3.68295471e-05
3.57248571e-05
3.55773548e-05
3.68125535e-05
3.68287321e-05
3.58677848e-05
3.53622094e-05
3.52531936e-05
3.5834323e-05
3.68137823e-05
3.68228099e-05
3.56633536e-05
3.51480223e-05
3.5761586e-05
3.6773284e-05
3.68006729e-05
3.54491521e-05
3.51455875e-05
3.61417678e-05
3.67814253e-05
3.6180119e-05
3.52666957e-05
3.5128291e-05
3.64995966e-05
3.68302362e-05
3.56658569e-05
3.55450687e-05
3.67703265e-05
3.68315329e-05
3.58753944e-05
3.54290607e-05
3.52512551e-05
3.57338966e-05
3.67901672e-05
3.68430863e-05
3.55881078e-05
3.51924021e-05
3.64541953e-05
3.68287651e-05
3.574432e-05
3.53555023e-05
3.57615044e-05
3.68025224e-05
3.6823234e-05
3.57632957e-05
3.50230458e-05
3.51602029e-05
3.67890025e-05
3.68126916e-05
3.58854388e-05
3.5226228e-05
3.53134953e-05
3.67989303e-05
3.68073547e-05
3.58938354e-05
3.51664396e-05
3.53502837e-05
3.66218937e-05
3.68487026e-05
3.68103646e-05
3.57159838e-05
3.54393633e-05
3.53449588e-05
3.5070972e-05
3.56497602e-05
3.67584394e-05
3.68486532e-05
3.67915674e-05
3.68166097e-05
3.59147285e-05
3.5598824e-05
3.5428902e-05
3.49490592e-05
3.5171238e-05
3.67086227e-05
3.6833074e-05
3.67629761e-05
3.59509322e-05
3.53068124e-05
3.53050308e-05
3.67838689e-05
3.68169516e-05
3.5807031e-05
3.51593856e-05
3.53085335e-05
3.67795209e-05
3.68220267e-05
3.5834846e-05
3.51751348e-05
3.53040626e-05
3.67605786e-05
3.68217335e-05
3.5682611e-05
3.5580686e-05
3.67493736e-05
3.68197211e-05
3.58067797e-05
3.5180782e-05
3.53400649e-05
3.67711555e-05
3.68190181e-05
3.58380885e-05
3.52153855e-05
3.53688105e-05
3.67804563e-05
3.68133923e-05
3.58119476e-05
3.51018737e-05
3.53262889e-05
3.65933147e-05
3.68436775e-05
3.6645751e-05
3.57093317e-05
3.56839472e-05
3.67520727e-05
3.68348597e-05
3.58555894e-05
3.54598074e-05
3.53522183e-05
3.57159417e-05
3.58896375e-05
3.57001486e-05
3.56519991e-05
3.67456647e-05
3.67351266e-05
3.54811723e-05
3.54909216e-05
3.67179365e-05
3.68373569e-05
3.64358221e-05
3.55434661e-05
3.56061905e-05
3.67761304e-05
3.68037364e-05
3.56960407e-05
3.49208326e-05
3.5262828e-05
3.65236353e-05
3.68450669e-05
3.63703312e-05
3.5590058e-05
3.56921644e-05
3.67762122e-05
3.68408401e-05
3.58313462e-05
3.56824218e-05
3.57355847e-05
3.57030004e-05
3.54216414e-05
3.5699548e-05
3.67416185e-05
3.68123699e-05
3.67813243e-05
3.68098709e-05
3.5770845e-05
3.5347233e-05
3.50113234e-05
3.53779834e-05
3.67143438e-05
3.63796592e-05
3.54773002e-05
3.56711167e-05
3.66041491e-05
3.6858388e-05
3.67865089e-05
3.56731612e-05
3.5072783e-05
3.55375273e-05
3.64816869e-05
3.68431031e-05
3.66600207e-05
3.57526896e-05
3.52873845e-05
3.49915756e-05
3.54980739e-05
3.65037069e-05
3.68567708e-05
3.67364262e-05
3.56674001e-05
3.51481124e-05
3.56674644e-05
3.66510077e-05
3.68303136e-05
3.68050492e-05
3.57940164e-05
3.56487594e-05
3.53081127e-05
3.50344039e-05
3.56510021e-05
3.672338e-05
3.6194828e-05
3.54681942e-05
3.5677487e-05
3.67190523e-05
3.68148668e-05
3.67844401e-05
3.6797989e-05
3.57304251e-05
3.55384554e-05
3.52098857e-05
3.49602105e-05
3.56234905e-05
3.66895555e-05
3.68471358e-05
3.6119868e-05
3.55731856e-05
3.57314299e-05
3.67556823e-05
3.66262342e-05
3.56885494e-05
3.51932398e-05
3.56827845e-05
3.67240814e-05
3.68287622e-05
3.5739389e-05
3.51727394e-05
3.56434563e-05
3.66484608e-05
3.6840561e-05
3.65852685e-05
3.57024127e-05
3.55092496e-05
3.52771497e-05
3.50796519e-05
3.56652021e-05
3.67135958e-05
3.67996127e-05
3.67846017e-05
3.65871117e-05
3.57311815e-05
3.5243828e-05
3.50659859e-05
3.56537867e-05
3.66677473e-05
3.6840653e-05
3.66850425e-05
3.56525886e-05
3.50912775e-05
3.56964748e-05
3.67396318e-05
3.59398148e-05
3.5506095e-05
3.57261091e-05
3.67369234e-05
3.68356483e-05
3.5944621e-05
3.5240083e-05
3.49028349e-05
3.56884556e-05
3.67389272e-05
3.68298384e-05
3.57365885e-05
3.492827e-05
3.56369158e-05
3.6726724e-05
3.68652305e-05
3.6810957e-05
3.60233731e-05
3.49204275e-05
3.47705987e-05
3.60951518e-05
3.57242735e-05
3.48578145e-05
3.56901855e-05
3.68616998e-05
3.69586729e-05
3.56141263e-05
3.45656692e-05
3.58863864e-05
3.70286588e-05
3.70999085e-05
3.71043314e-05
3.5322183e-05
3.4551732e-05
3.63236645e-05
3.69539571e-05
3.68917927e-05
3.6898675e-05
3.6891405e-05
3.61681164e-05
3.44983194e-05
3.61638607e-05
3.67048769e-05
3.66166996e-05
3.66660067e-05
3.66355676e-05
3.66523028e-05
3.66468475e-05
3.66655067e-05
3.67097592e-05
3.67498099e-05
3.69591003e-05
3.72141815e-05
3.70381115e-05
3.68321968e-05
3.65482237e-05
3.63555556e-05
3.61267055e-05
3.59714268e-05
3.58284955e-05
3.56155591e-05
3.55101464e-05
3.5492661e-05
3.52621599e-05
3.51438486e-05
3.4974023e-05
3.48929278e-05
3.46061915e-05
3.43047213e-05
3.38531117e-05
3.36256293e-05
3.31559182e-05
3.47558927e-05
3.53299174e-05
3.48653932e-05
3.55512479e-05
3.31030056e-05
3.38675103e-05
3.45438942e-05
3.50975692e-05
3.57850088e-05
3.54802809e-05
3.9324377e-05
4.29018876e-05
4.40214964e-05
4.51972554e-05
4.64249004e-05
4.92291978e-05
4.9036014e-05
4.98414958e-05
5.1606757e-05
5.16125037e-05
5.36123771e-05
5.36432767e-05
5.57379044e-05
5.57483689e-05
5.77505187e-05
5.77313361e-05
5.94087294e-05
5.97852946e-05
6.11784146e-05
6.16132073e-05
6.28849282e-05
6.32491639e-05
6.44049666e-05
6.46939749e-05
6.58517296e-05
6.61646848e-05
6.69363259e-05
6.72609689e-05
6.81320756e-05
6.82611151e-05
6.90265697e-05
6.92762775e-05
6.98862025e-05
7.00607344e-05
7.05734034e-05
7.02445131e-05
7.14076589e-05
7.07292239e-05
7.14366537e-05
7.07678707e-05
7.17831291e-05
7.14684468e-05
7.19589397e-05
7.18436065e-05
7.24829753e-05
7.26875926e-05
7.29469711e-05
7.29068277e-05
7.34433724e-05
7.41453744e-05
7.36443897e-05
7.36226419e-05
7.42419368e-05
7.44429235e-05
7.43417011e-05
7.38941975e-05
7.4829841e-05
7.47853884e-05
7.48587142e-05
7.44761634e-05
7.53184353e-05
7.51097301e-05
7.52603372e-05
7.48976874e-05
7.57015527e-05
7.54135114e-05
7.55482289e-05
7.53209502e-05
7.59297629e-05
7.56738767e-05
7.57642745e-05
7.56506458e-05
7.60936366e-05
7.58840078e-05
7.5967403e-05
7.58925522e-05
7.62191491e-05
7.60580178e-05
7.61328212e-05
7.60836104e-05
7.63321909e-05
7.62101771e-05
7.62861447e-05
7.62504321e-05
7.64407763e-05
7.63442695e-05
)
;

boundaryField
{
    closed
    {
        type            calculated;
        value           nonuniform List<scalar> 0();
    }
    open
    {
        type            calculated;
        value           nonuniform List<scalar> 0();
    }
    sides
    {
        type            empty;
    }
    procBoundary4to3
    {
        type            processor;
        value           uniform 3.58714578e-05;
    }
    procBoundary4to5
    {
        type            processor;
        value           uniform 7.63948967e-05;
    }
}


// ************************************************************************* //
