/*--------------------------------*- C++ -*----------------------------------*\
| =========                 |                                                 |
| \\      /  F ield         | OpenFOAM: The Open Source CFD Toolbox           |
|  \\    /   O peration     | Version:  2306                                  |
|   \\  /    A nd           | Website:  www.openfoam.com                      |
|    \\/     M anipulation  |                                                 |
\*---------------------------------------------------------------------------*/
FoamFile
{
    version     2.0;
    format      ascii;
    arch        "LSB;label=32;scalar=64";
    class       volScalarField;
    location    "0.00058";
    object      prefDPV_H2O;
}
// * * * * * * * * * * * * * * * * * * * * * * * * * * * * * * * * * * * * * //

dimensions      [1 -1 -1 0 0 0 0];

internalField   nonuniform List<scalar> 
531
(
-3.8462111e-07
-3.70341611e-07
-3.65034125e-07
-3.8094454e-07
-3.84266939e-07
-3.68820559e-07
-3.65101621e-07
-3.82265346e-07
-3.84214999e-07
-3.68861318e-07
-3.64984101e-07
-3.80754444e-07
-3.84261623e-07
-3.6939923e-07
-3.64908269e-07
-3.7873441e-07
-3.84306925e-07
-3.68904926e-07
-3.64971029e-07
-3.82908108e-07
-3.84163984e-07
-3.69422002e-07
-3.65345544e-07
-3.73692083e-07
-3.83993404e-07
-3.85037455e-07
-3.6639266e-07
-3.64140571e-07
-3.6771521e-07
-3.85420408e-07
-3.83330446e-07
-3.8102768e-07
-3.66992781e-07
-3.65335596e-07
-3.64531711e-07
-3.66369524e-07
-3.84645261e-07
-3.8418549e-07
-3.68024295e-07
-3.64202989e-07
-3.66797073e-07
-3.8544649e-07
-3.83331231e-07
-3.80592261e-07
-3.66181442e-07
-3.63886848e-07
-3.66285558e-07
-3.85160323e-07
-3.83277507e-07
-3.64956791e-07
-3.67816602e-07
-3.84788583e-07
-3.78909519e-07
-3.65203956e-07
-3.7113469e-07
-3.84509656e-07
-3.74489555e-07
-3.65496731e-07
-3.72237906e-07
-3.84156661e-07
-3.86204569e-07
-3.65918974e-07
-3.63962849e-07
-3.70895052e-07
-3.84764307e-07
-3.73596383e-07
-3.65537787e-07
-3.73277728e-07
-3.84050041e-07
-3.85880409e-07
-3.66233053e-07
-3.64409645e-07
-3.68339849e-07
-3.84549782e-07
-3.84026199e-07
-3.68371849e-07
-3.64730167e-07
-3.68278934e-07
-3.84646689e-07
-3.83463317e-07
-3.73906254e-07
-3.66346041e-07
-3.66469591e-07
-3.6683741e-07
-3.66007583e-07
-3.65677342e-07
-3.73705118e-07
-3.84162154e-07
-3.83806496e-07
-3.75929601e-07
-3.65300139e-07
-3.68696652e-07
-3.84701088e-07
-3.8137021e-07
-3.6472866e-07
-3.6708566e-07
-3.84961772e-07
-3.81046404e-07
-3.64908923e-07
-3.68802741e-07
-3.84868035e-07
-3.7615922e-07
-3.65128602e-07
-3.73859926e-07
-3.84601087e-07
-3.70798723e-07
-3.65590232e-07
-3.77532779e-07
-3.83962109e-07
-3.85500467e-07
-3.66474101e-07
-3.64766335e-07
-3.68620353e-07
-3.84603284e-07
-3.84090371e-07
-3.69504086e-07
-3.64968871e-07
-3.64442524e-07
-3.71315377e-07
-3.84927911e-07
-3.71275221e-07
-3.65168798e-07
-3.80710426e-07
-3.85172763e-07
-3.66851173e-07
-3.66179173e-07
-3.85514706e-07
-3.83977864e-07
-3.73222743e-07
-3.65156892e-07
-3.64761944e-07
-3.72818914e-07
-3.84391079e-07
-3.84880063e-07
-3.6634552e-07
-3.64549698e-07
-3.70660167e-07
-3.84934843e-07
-3.85478529e-07
-3.65576471e-07
-3.64487799e-07
-3.78832746e-07
-3.84656868e-07
-3.79385077e-07
-3.6495022e-07
-3.64363691e-07
-3.84012276e-07
-3.85014208e-07
-3.66559535e-07
-3.66039338e-07
-3.86075522e-07
-3.83986445e-07
-3.73351793e-07
-3.65392944e-07
-3.6477899e-07
-3.69826038e-07
-3.84929107e-07
-3.84647179e-07
-3.66145392e-07
-3.64590178e-07
-3.8335676e-07
-3.84698569e-07
-3.69557823e-07
-3.65240242e-07
-3.70638443e-07
-3.84674639e-07
-3.84148048e-07
-3.70404504e-07
-3.63972766e-07
-3.64409989e-07
-3.8620827e-07
-3.84354215e-07
-3.73636571e-07
-3.64755457e-07
-3.65093377e-07
-3.85990611e-07
-3.84311906e-07
-3.74021062e-07
-3.64566743e-07
-3.65110699e-07
-3.85648401e-07
-3.83706408e-07
-3.84142499e-07
-3.69415427e-07
-3.65662572e-07
-3.64971257e-07
-3.64160191e-07
-3.66280753e-07
-3.86181381e-07
-3.8395767e-07
-3.8451973e-07
-3.84062318e-07
-3.74558535e-07
-3.66310294e-07
-3.65367393e-07
-3.63740505e-07
-3.64417362e-07
-3.86727019e-07
-3.83995997e-07
-3.84401331e-07
-3.75296672e-07
-3.65126405e-07
-3.65063563e-07
-3.86147269e-07
-3.84476913e-07
-3.71619265e-07
-3.64528392e-07
-3.65051681e-07
-3.86267976e-07
-3.84375782e-07
-3.72471059e-07
-3.64566978e-07
-3.65070814e-07
-3.86249552e-07
-3.8542563e-07
-3.66586186e-07
-3.66226591e-07
-3.8647255e-07
-3.84392294e-07
-3.71722216e-07
-3.64621322e-07
-3.65177427e-07
-3.86337925e-07
-3.84436546e-07
-3.7246513e-07
-3.64759228e-07
-3.65329738e-07
-3.86294771e-07
-3.84521052e-07
-3.7206295e-07
-3.64331711e-07
-3.6499399e-07
-3.85304585e-07
-3.83835182e-07
-3.86165501e-07
-3.66608095e-07
-3.6667702e-07
-3.86167965e-07
-3.84609215e-07
-3.72872662e-07
-3.65600822e-07
-3.65116604e-07
-3.69179485e-07
-3.74171259e-07
-3.66564533e-07
-3.66385636e-07
-3.86525718e-07
-3.86994335e-07
-3.65874712e-07
-3.65789415e-07
-3.86944719e-07
-3.83937839e-07
-3.83291223e-07
-3.65950339e-07
-3.66349266e-07
-3.86345045e-07
-3.8512976e-07
-3.68574638e-07
-3.63612542e-07
-3.64704502e-07
-3.84362373e-07
-3.84066947e-07
-3.82319726e-07
-3.66106765e-07
-3.66559537e-07
-3.85969805e-07
-3.84643906e-07
-3.72494919e-07
-3.66587145e-07
-3.6687118e-07
-3.66594435e-07
-3.65581842e-07
-3.66944154e-07
-3.86718442e-07
-3.84549163e-07
-3.84615595e-07
-3.84702047e-07
-3.70514411e-07
-3.65129401e-07
-3.63845314e-07
-3.65236503e-07
-3.86878033e-07
-3.82370038e-07
-3.65876488e-07
-3.66703607e-07
-3.8553398e-07
-3.83832376e-07
-3.84290988e-07
-3.68467559e-07
-3.64230907e-07
-3.65727753e-07
-3.83865337e-07
-3.83882656e-07
-3.86415881e-07
-3.695975e-07
-3.64891176e-07
-3.63757318e-07
-3.65561749e-07
-3.84136726e-07
-3.83961043e-07
-3.85553598e-07
-3.67686133e-07
-3.64619519e-07
-3.67694205e-07
-3.86162748e-07
-3.8394989e-07
-3.84087038e-07
-3.71354268e-07
-3.66517583e-07
-3.64878174e-07
-3.63986635e-07
-3.66763719e-07
-3.86668016e-07
-3.79642675e-07
-3.65778971e-07
-3.67851468e-07
-3.8672099e-07
-3.84665491e-07
-3.8458889e-07
-3.84623662e-07
-3.69533374e-07
-3.66105379e-07
-3.64399341e-07
-3.63674747e-07
-3.66084423e-07
-3.86635954e-07
-3.84011024e-07
-3.78360712e-07
-3.66070291e-07
-3.70286131e-07
-3.85717475e-07
-3.85906564e-07
-3.66745896e-07
-3.64703366e-07
-3.67645744e-07
-3.8645744e-07
-3.84595196e-07
-3.70525305e-07
-3.64557159e-07
-3.68046613e-07
-3.86190601e-07
-3.83921264e-07
-3.85430085e-07
-3.67713544e-07
-3.6595626e-07
-3.64747964e-07
-3.64124526e-07
-3.67727794e-07
-3.86756753e-07
-3.8451971e-07
-3.8443223e-07
-3.85435354e-07
-3.68582173e-07
-3.6472463e-07
-3.64026298e-07
-3.68256133e-07
-3.86440984e-07
-3.84029808e-07
-3.86398371e-07
-3.66337807e-07
-3.64224962e-07
-3.69742288e-07
-3.85973841e-07
-3.75165432e-07
-3.65872266e-07
-3.7040377e-07
-3.85560895e-07
-3.84223578e-07
-3.74992356e-07
-3.64644894e-07
-3.63369149e-07
-3.67691232e-07
-3.86304875e-07
-3.84424267e-07
-3.70527071e-07
-3.6350827e-07
-3.68394495e-07
-3.86697223e-07
-3.83980808e-07
-3.84283141e-07
-3.76642783e-07
-3.63351742e-07
-3.62627498e-07
-3.78195409e-07
-3.70869992e-07
-3.6297115e-07
-3.71491592e-07
-3.85094019e-07
-3.84469418e-07
-3.68834494e-07
-3.61200069e-07
-3.75590493e-07
-3.84992349e-07
-3.84137437e-07
-3.83688381e-07
-3.6469348e-07
-3.60142519e-07
-3.8113184e-07
-3.82496356e-07
-3.8230677e-07
-3.82249143e-07
-3.79499499e-07
-3.7893817e-07
-3.58155193e-07
-3.77716147e-07
-3.74732707e-07
-3.75698058e-07
-3.72402103e-07
-3.71779883e-07
-3.69646342e-07
-3.68393796e-07
-3.66853329e-07
-3.65108824e-07
-3.64226667e-07
-3.62843399e-07
-3.62709905e-07
-3.60977745e-07
-3.59441544e-07
-3.56949628e-07
-3.54912883e-07
-3.51920591e-07
-3.49315194e-07
-3.46088793e-07
-3.43021604e-07
-3.41124355e-07
-3.40687904e-07
-3.37172047e-07
-3.34588462e-07
-3.29412475e-07
-3.25269451e-07
-3.18688597e-07
-3.13351344e-07
-3.05478621e-07
-3.01217749e-07
-2.92571599e-07
-3.00226013e-07
-2.95679384e-07
-2.62192195e-07
-2.85293483e-07
-2.54168593e-07
-2.65366368e-07
-2.38862003e-07
-2.59044612e-07
-2.33711086e-07
-2.25968416e-07
-1.45858857e-07
-1.04149245e-07
-8.07081459e-08
-6.14288748e-08
-3.30956284e-08
1.12132203e-08
1.775993e-08
3.74445202e-08
7.64513152e-08
8.39325732e-08
1.31613976e-07
1.39804453e-07
1.94690327e-07
2.02783705e-07
2.60683965e-07
2.68523265e-07
3.21398305e-07
3.4004954e-07
3.86087406e-07
4.07186378e-07
4.47837097e-07
4.66748426e-07
5.01339406e-07
5.19913593e-07
5.51482868e-07
5.68049755e-07
5.97065866e-07
6.22365886e-07
6.29965868e-07
6.38747183e-07
6.93502726e-07
7.17432809e-07
6.97768964e-07
7.30635652e-07
7.65448388e-07
7.60014673e-07
7.82523635e-07
7.85124783e-07
8.05174418e-07
8.05220794e-07
8.25793128e-07
8.21149414e-07
8.47634638e-07
8.65490094e-07
8.58079076e-07
8.49167644e-07
9.01972092e-07
9.3591858e-07
8.82715614e-07
8.79128612e-07
9.59561736e-07
9.93757121e-07
9.15258018e-07
9.0694538e-07
1.00091397e-06
9.97648722e-07
9.45238428e-07
9.33532571e-07
1.01135605e-06
1.00593787e-06
9.59618431e-07
9.63739901e-07
1.01702415e-06
1.01191048e-06
9.71143773e-07
9.82567443e-07
1.02108019e-06
1.01789364e-06
9.80690101e-07
9.94158362e-07
1.02411064e-06
1.02252272e-06
9.883175e-07
1.00137915e-06
1.02696407e-06
1.02591974e-06
9.95194458e-07
1.00582825e-06
1.0292851e-06
1.02860268e-06
1.00057318e-06
1.00967809e-06
1.03142512e-06
1.03093054e-06
1.00496598e-06
1.01280722e-06
)
;

boundaryField
{
    closed
    {
        type            calculated;
        value           nonuniform List<scalar> 0();
    }
    open
    {
        type            calculated;
        value           nonuniform List<scalar> 0();
    }
    sides
    {
        type            empty;
    }
    procBoundary4to3
    {
        type            processor;
        value           uniform -3.73793126e-07;
    }
    procBoundary4to5
    {
        type            processor;
        value           uniform 1.03294816e-06;
    }
}


// ************************************************************************* //
