/*--------------------------------*- C++ -*----------------------------------*\
| =========                 |                                                 |
| \\      /  F ield         | OpenFOAM: The Open Source CFD Toolbox           |
|  \\    /   O peration     | Version:  2306                                  |
|   \\  /    A nd           | Website:  www.openfoam.com                      |
|    \\/     M anipulation  |                                                 |
\*---------------------------------------------------------------------------*/
FoamFile
{
    version     2.0;
    format      ascii;
    arch        "LSB;label=32;scalar=64";
    class       surfaceScalarField;
    location    "0.00048";
    object      phi;
}
// * * * * * * * * * * * * * * * * * * * * * * * * * * * * * * * * * * * * * //

dimensions      [1 0 -1 0 0 0 0];

oriented        oriented;

internalField   nonuniform List<scalar> 
529
(
2.01286186e-06
3.28239106e-06
4.81987996e-06
6.77732899e-06
7.9054955e-06
7.56471186e-06
6.87128137e-06
7.15917644e-06
7.98782948e-06
7.59818989e-06
5.9766811e-06
5.01084278e-06
5.47286588e-06
6.31141222e-06
5.8516141e-06
4.58881337e-06
4.59173128e-06
5.93040542e-06
6.30454475e-06
4.47010072e-06
1.68838073e-06
-8.3060097e-08
-4.59863926e-07
7.81779497e-07
2.67204979e-06
4.77234295e-06
7.15094359e-06
8.55573914e-06
8.13669481e-06
6.08758249e-06
3.64542879e-06
2.00779778e-06
1.29628934e-06
1.3561347e-06
1.86020479e-06
2.51693688e-06
3.25857824e-06
4.12409652e-06
5.18969299e-06
6.48472613e-06
7.92839015e-06
9.31637392e-06
1.03745008e-05
1.08635451e-05
1.06720628e-05
9.84796824e-06
8.56106454e-06
7.02798848e-06
5.44402357e-06
3.94832245e-06
2.62121616e-06
1.49752122e-06
5.83122999e-07
-1.32828237e-07
-6.75606536e-07
-1.06346091e-06
-1.31978871e-06
-1.46892743e-06
-1.53340904e-06
-1.53149815e-06
-1.47881839e-06
-1.38817271e-06
-1.26940686e-06
-1.12983189e-06
-9.7472083e-07
-8.07721902e-07
-6.31206361e-07
-4.46579229e-07
-2.54560328e-07
-5.54243554e-08
1.5080503e-07
3.64215878e-07
5.849064e-07
8.12950441e-07
1.04840972e-06
1.29133804e-06
1.54181817e-06
1.79998845e-06
2.06605858e-06
2.3403071e-06
2.62306789e-06
2.91469552e-06
3.21553165e-06
3.52585942e-06
3.84587257e-06
4.17564789e-06
4.51499205e-06
4.86362167e-06
5.22068233e-06
5.58703942e-06
5.96353773e-06
6.34130658e-06
6.71093766e-06
7.09581428e-06
7.49103088e-06
7.88682732e-06
8.28041434e-06
8.35153367e-06
8.65072448e-06
9.35543618e-06
1.00292235e-05
1.04298549e-05
1.02168424e-05
1.03474938e-05
1.06800249e-05
1.10140718e-05
1.13578617e-05
1.17317402e-05
1.22098181e-05
1.18201457e-05
1.19585901e-05
1.22507361e-05
1.26983689e-05
1.31770632e-05
1.28517923e-05
1.29612793e-05
1.32351373e-05
1.3660689e-05
1.40047225e-05
1.36605623e-05
1.39278017e-05
1.44054261e-05
1.48877434e-05
1.44727965e-05
1.45228155e-05
1.47435975e-05
1.51346546e-05
1.54523132e-05
1.48562742e-05
1.50536102e-05
1.55063788e-05
1.59620271e-05
1.54821712e-05
1.53713414e-05
1.55260059e-05
1.58738519e-05
1.61464434e-05
1.54686168e-05
1.55878529e-05
1.60024736e-05
1.64267597e-05
1.58873959e-05
1.55309252e-05
1.56057577e-05
1.58865337e-05
1.61101412e-05
1.53995402e-05
1.54339359e-05
1.56859252e-05
1.58557451e-05
1.5138086e-05
1.51371751e-05
1.54819276e-05
1.58068726e-05
1.51982506e-05
1.46919015e-05
1.46584104e-05
1.48582877e-05
1.49565307e-05
1.42813269e-05
1.42137826e-05
1.44793875e-05
1.47362512e-05
1.47312684e-05
1.4698068e-05
1.36422082e-05
1.35151303e-05
1.37555032e-05
1.39616551e-05
1.38982991e-05
1.29139715e-05
1.27626565e-05
1.28586937e-05
1.28209452e-05
1.22176842e-05
1.20813253e-05
1.21611556e-05
1.2102423e-05
1.1487942e-05
1.1326922e-05
1.15151397e-05
1.1650055e-05
1.15147346e-05
1.06846746e-05
1.05353467e-05
1.05346889e-05
1.04123262e-05
9.87448563e-06
9.70619679e-06
9.85969186e-06
9.94972726e-06
9.78596215e-06
9.08707727e-06
8.95095651e-06
8.91328383e-06
8.73658642e-06
8.28565564e-06
8.16418502e-06
8.13416358e-06
7.94931835e-06
7.52848912e-06
7.42223949e-06
7.37928389e-06
7.17867623e-06
6.79192044e-06
6.70143608e-06
6.64140483e-06
6.39557276e-06
6.05202212e-06
6.02685347e-06
5.92935965e-06
5.6787782e-06
5.36949842e-06
5.2695753e-06
5.24915615e-06
5.11495317e-06
4.90842709e-06
4.85389013e-06
5.29366876e-06
5.13347853e-06
4.79489397e-06
4.5987524e-06
4.82411644e-06
4.80733448e-06
4.78623768e-06
4.7806208e-06
4.76131481e-06
4.70041564e-06
4.54260176e-06
4.48223861e-06
4.44878586e-06
4.83122033e-06
4.67156646e-06
4.67641095e-06
4.67814402e-06
5.0704207e-06
4.93079194e-06
4.91579486e-06
4.93699545e-06
4.99661551e-06
4.97520831e-06
4.84230718e-06
4.82853531e-06
4.84201736e-06
5.26558779e-06
5.16344324e-06
5.187476e-06
5.24072161e-06
5.31628407e-06
5.34425186e-06
5.26129554e-06
5.29154993e-06
5.33436542e-06
5.88324501e-06
5.86484765e-06
5.90799223e-06
5.96374721e-06
6.06669529e-06
6.12923548e-06
6.20044266e-06
6.17291468e-06
5.81436456e-06
5.89466576e-06
5.96415777e-06
6.05972257e-06
6.04431465e-06
6.09079345e-06
6.13389885e-06
6.83007748e-06
6.86392652e-06
6.88305246e-06
6.91764688e-06
6.97211339e-06
7.08117197e-06
7.13480369e-06
7.23221332e-06
7.20875026e-06
6.8596147e-06
6.88104815e-06
6.88504803e-06
7.00950497e-06
7.01190308e-06
6.98897475e-06
6.97319344e-06
6.98845835e-06
7.03984084e-06
6.99566499e-06
6.94701977e-06
6.88916485e-06
6.89210044e-06
6.89312009e-06
6.80829093e-06
6.73354676e-06
6.64945737e-06
6.63209133e-06
6.60679303e-06
6.51100674e-06
6.47058919e-06
6.35958499e-06
6.88541193e-06
6.81005086e-06
6.75917251e-06
6.65010455e-06
6.60890167e-06
6.54462742e-06
6.42165421e-06
6.36413917e-06
6.22794866e-06
6.75883037e-06
6.6541358e-06
6.57027322e-06
6.43563781e-06
6.32602954e-06
6.37911422e-06
6.24909402e-06
6.1323437e-06
6.07565114e-06
5.94349111e-06
5.85824169e-06
5.73420775e-06
6.01429094e-06
5.91167285e-06
5.85673071e-06
5.72902928e-06
6.27392496e-06
6.20395242e-06
6.14967375e-06
6.03273631e-06
5.98370251e-06
5.89323972e-06
5.75959673e-06
5.69367602e-06
5.56244834e-06
6.10739013e-06
6.03101432e-06
6.00923541e-06
5.88472969e-06
6.3515073e-06
6.2948165e-06
6.25368084e-06
6.1540296e-06
6.14096458e-06
6.0706844e-06
5.95841483e-06
5.89363494e-06
5.80107811e-06
6.27440306e-06
6.33389696e-06
6.15286805e-06
5.78845541e-06
5.69732073e-06
5.83382478e-06
5.81836196e-06
5.77890483e-06
5.72106204e-06
5.70837445e-06
5.69314634e-06
5.6411253e-06
5.24689859e-06
5.19852537e-06
5.17912164e-06
5.16888053e-06
5.1051002e-06
4.94687259e-06
4.89902175e-06
5.32931984e-06
5.41705043e-06
5.29745916e-06
5.00492773e-06
4.96663135e-06
4.95772624e-06
4.90500114e-06
4.69643835e-06
4.65981832e-06
4.72866093e-06
4.70801993e-06
4.64705904e-06
4.5986845e-06
5.05912424e-06
5.07431861e-06
4.94243192e-06
4.75053352e-06
4.71946749e-06
4.69266795e-06
4.64040155e-06
4.43287497e-06
4.39276673e-06
4.45767668e-06
4.43815852e-06
4.36329779e-06
4.30866738e-06
4.63653499e-06
4.66628709e-06
4.27598177e-06
4.2215603e-06
4.2355755e-06
4.36225606e-06
4.25882885e-06
4.18422641e-06
4.13703936e-06
4.13984388e-06
4.12936006e-06
3.81827059e-06
3.75885333e-06
3.75517705e-06
3.84569215e-06
3.74006806e-06
3.66190758e-06
3.61021059e-06
3.63123948e-06
3.50484579e-06
3.42128466e-06
3.42788615e-06
3.49546776e-06
3.18302127e-06
3.12318598e-06
3.05664335e-06
3.0298035e-06
2.98609137e-06
2.66788139e-06
2.60797423e-06
2.79336823e-06
2.72777222e-06
2.65304718e-06
2.5992374e-06
2.54602086e-06
2.50569154e-06
2.48319513e-06
2.43380841e-06
2.21972369e-06
2.18768859e-06
2.13086353e-06
2.09989636e-06
2.05459598e-06
2.00229539e-06
1.97689526e-06
1.92940251e-06
1.89525392e-06
1.84662721e-06
1.67384018e-06
1.65185951e-06
1.60156647e-06
1.56250914e-06
1.50873759e-06
1.3554944e-06
1.33786518e-06
1.27947567e-06
1.23390559e-06
1.16044321e-06
1.04619746e-06
1.02218763e-06
9.62276267e-07
9.58039593e-07
8.9508978e-07
8.22652485e-07
7.65306922e-07
7.08824251e-07
6.84799652e-07
6.19612283e-07
5.52928182e-07
4.77502338e-07
3.54647347e-07
3.30513903e-07
2.92693306e-07
1.51940697e-07
6.33471274e-09
-2.51959464e-09
-7.51754505e-08
-1.4698799e-07
-2.286515e-07
-3.06872992e-07
-3.26997565e-07
-3.78452531e-07
-5.59547832e-07
-6.65763412e-07
-6.88912521e-07
-7.62741884e-07
-9.12577772e-07
-9.72729154e-07
-9.89888915e-07
-1.07209386e-06
-1.14504762e-06
-1.20981642e-06
-1.18852813e-06
-1.21413371e-06
-1.2953224e-06
-1.43619298e-06
-1.48094522e-06
-1.50396605e-06
-1.58258634e-06
-1.70024039e-06
-1.69075197e-06
-1.70288358e-06
-1.77472723e-06
-1.83427595e-06
-1.87643321e-06
-1.80511453e-06
-1.81886199e-06
-1.87088655e-06
-1.97021568e-06
-2.01609039e-06
-2.02603596e-06
-2.04631425e-06
-2.1272457e-06
-2.08458411e-06
-2.08805077e-06
-2.14537352e-06
-2.19158651e-06
-2.20395233e-06
-2.11722017e-06
-2.11844378e-06
-2.06117691e-06
-2.11406811e-06
-2.11143098e-06
-2.12352485e-06
-2.18696656e-06
-2.2019479e-06
-2.16354671e-06
-2.1687507e-06
-2.22657708e-06
-2.24414639e-06
-2.12851411e-06
-2.11542818e-06
-2.13661801e-06
-2.15541107e-06
-2.13065618e-06
-2.11269365e-06
-2.09439143e-06
-2.00560478e-06
)
;

boundaryField
{
    closed
    {
        type            calculated;
        value           uniform 0;
    }
    open
    {
        type            calculated;
        value           nonuniform List<scalar> 0();
    }
    sides
    {
        type            empty;
        value           nonuniform List<scalar> 0();
    }
    procBoundary0to1
    {
        type            processor;
        value           uniform -2.02345465e-06;
    }
}


// ************************************************************************* //
