/*--------------------------------*- C++ -*----------------------------------*\
| =========                 |                                                 |
| \\      /  F ield         | OpenFOAM: The Open Source CFD Toolbox           |
|  \\    /   O peration     | Version:  2306                                  |
|   \\  /    A nd           | Website:  www.openfoam.com                      |
|    \\/     M anipulation  |                                                 |
\*---------------------------------------------------------------------------*/
FoamFile
{
    version     2.0;
    format      ascii;
    arch        "LSB;label=32;scalar=64";
    class       volScalarField;
    location    "0.00048";
    object      prefDh_T;
}
// * * * * * * * * * * * * * * * * * * * * * * * * * * * * * * * * * * * * * //

dimensions      [1 1 -3 -1 0 0 0];

internalField   nonuniform List<scalar> 
530
(
-0.000684644252
-0.00060637858
-0.000591263607
-0.000591206478
-0.000591194628
-0.00059119451
-0.000591194501
-0.000591194501
-0.000591194501
-0.000591194501
-0.000591194501
-0.000591194501
-0.000591194501
-0.000591194501
-0.000591194501
-0.000591194501
-0.000591194501
-0.000591194501
-0.000591194501
-0.000591194501
-0.000591194501
-0.000591194501
-0.000591194501
-0.000591194501
-0.000591194501
-0.000591194501
-0.000591194501
-0.000591194501
-0.000591194501
-0.000591194501
-0.000591194501
-0.000591194501
-0.000591194501
-0.000591194501
-0.000591194501
-0.000591194501
-0.000591194501
-0.000591194501
-0.000591194501
-0.000591194501
-0.000591194501
-0.000591194501
-0.000591194501
-0.000591194501
-0.000591194501
-0.000591194501
-0.000591194501
-0.000591194501
-0.000591194501
-0.000591194501
-0.000591194501
-0.000591194501
-0.000591194501
-0.000591194501
-0.000591194501
-0.000591194501
-0.000591194501
-0.000591194501
-0.000591194501
-0.000591194501
-0.000591194501
-0.000591194501
-0.000591194501
-0.000591194501
-0.000591194501
-0.000591194501
-0.000591194501
-0.000591194501
-0.000591194501
-0.000591194501
-0.000591194501
-0.000591194501
-0.000591194501
-0.000591194502
-0.000591194506
-0.000591194511
-0.000591194552
-0.000591194595
-0.000591194919
-0.000591195001
-0.000591197172
-0.000591198067
-0.000591205812
-0.000591212167
-0.000591238231
-0.00059125993
-0.000591281004
-0.00059136774
-0.000591545642
-0.000592157595
-0.000591471819
-0.000590785693
-0.000591617288
-0.000601139564
-0.00060122813
-0.000594879127
-0.000598307434
-0.000615931023
-0.000747266028
-0.000622422005
-0.000561000442
-0.000466488696
-0.000500372341
-0.000726867445
-0.0007343101
-0.000738732391
-0.000739802054
-0.000590901821
-0.000462620487
-0.000578428863
-0.000721708103
-0.000747868038
-0.000590913646
-0.000503920186
-0.000562017318
-0.000723290591
-0.000755099876
-0.000592202782
-0.000580194964
-0.000702541104
-0.000745528353
-0.000587597424
-0.000489248177
-0.000528394377
-0.000715475982
-0.000753331123
-0.00059181488
-0.0005770795
-0.00068558412
-0.000743350693
-0.000588390437
-0.000493709502
-0.000515015386
-0.000707888603
-0.000751436808
-0.000591076188
-0.000577869952
-0.000667820636
-0.000741523212
-0.000588895915
-0.0004902347
-0.000491582691
-0.000697649941
-0.000748440351
-0.000590495843
-0.000564972215
-0.000645970468
-0.000745466915
-0.000587963466
-0.000573835481
-0.000645204432
-0.000738728812
-0.000590914791
-0.000502438404
-0.000490843872
-0.000686646109
-0.000747836843
-0.000592417075
-0.000589667698
-0.000637565582
-0.000741071178
-0.000596177957
-0.000562187838
-0.000523020543
-0.000518703245
-0.000668207235
-0.000738442425
-0.000599770335
-0.000527813473
-0.000516568486
-0.000662907218
-0.000743809827
-0.000592474435
-0.000585951777
-0.000622083713
-0.000737524158
-0.000589280833
-0.000577016342
-0.000619188706
-0.00073400404
-0.000602695018
-0.000510919766
-0.000498215528
-0.000649634126
-0.000738235939
-0.00058938347
-0.000577181376
-0.000615044569
-0.000733396466
-0.000607579122
-0.000511703923
-0.000494765156
-0.000642075616
-0.000735240665
-0.0005882371
-0.000567463823
-0.000616403531
-0.000732069939
-0.000586416503
-0.00055874821
-0.000614880744
-0.000731229825
-0.000585090745
-0.000551790351
-0.000613921955
-0.000730870933
-0.000585248813
-0.00056447583
-0.000621211287
-0.000724237905
-0.000588702534
-0.000571538055
-0.000632884878
-0.00073308243
-0.00058493384
-0.000482745527
-0.000588760625
-0.000718110539
-0.000700358223
-0.00058676683
-0.000580268821
-0.000702448459
-0.000708072065
-0.000596479893
-0.000608465345
-0.000723241381
-0.000733399101
-0.00058857985
-0.000484606122
-0.000591032735
-0.00071924305
-0.000681229166
-0.00058176556
-0.000603327599
-0.000719648487
-0.000681755288
-0.000587102067
-0.000597786551
-0.000725034007
-0.000729808996
-0.000588605312
-0.000493868156
-0.00059316783
-0.000717767949
-0.000677482745
-0.000585367196
-0.000599851952
-0.000724194364
-0.000733179555
-0.000587897111
-0.000508305062
-0.000596143501
-0.000719338926
-0.000694216214
-0.000608070214
-0.000600585158
-0.000724965704
-0.000737780857
-0.000592378462
-0.000551988393
-0.000511606867
-0.000589602468
-0.000718579879
-0.000740369939
-0.000590420098
-0.000544584344
-0.000594971928
-0.000722986382
-0.000713774043
-0.000601284717
-0.000596700725
-0.000726297735
-0.000744177247
-0.000591819821
-0.000591434687
-0.000552890514
-0.000504170659
-0.000590308243
-0.00071893544
-0.00074730802
-0.000598517516
-0.00056633256
-0.000596339651
-0.000725381549
-0.000740954731
-0.000588179985
-0.000526607593
-0.000596495568
-0.000725805061
-0.000740167841
-0.000587524978
-0.000516906166
-0.000596153922
-0.000726790123
-0.000740349603
-0.000588159038
-0.000501439314
-0.000598813394
-0.000727297849
-0.000720164395
-0.000606355271
-0.000606242207
-0.000733502817
-0.000739135996
-0.000588409907
-0.000495531024
-0.000600037974
-0.000728647425
-0.000720122753
-0.000606713321
-0.000599750098
-0.000728656862
-0.000750357482
-0.00061497239
-0.000600844459
-0.000577442311
-0.000568328872
-0.000527513212
-0.000601894037
-0.000730586458
-0.000724719432
-0.000605164922
-0.000605285124
-0.000734930447
-0.000709276993
-0.000594534786
-0.000608186153
-0.000735270133
-0.000738626697
-0.000590599597
-0.000483585848
-0.000599296477
-0.000727711841
-0.000705984274
-0.000575947299
-0.000604852773
-0.000732165164
-0.000688648106
-0.00057551728
-0.000606957211
-0.000732583239
-0.000737044928
-0.00059207327
-0.000496093287
-0.000595686703
-0.00072480064
-0.000715888278
-0.000575745166
-0.000525973883
-0.000620822976
-0.00073779543
-0.000610809974
-0.000542427259
-0.000603034371
-0.000731821048
-0.000741827222
-0.00059049902
-0.00048624501
-0.00058347816
-0.000727184907
-0.000745802355
-0.000591766232
-0.000544096265
-0.000589815931
-0.00073020339
-0.000682241201
-0.000541131269
-0.00049827671
-0.000639381927
-0.000739650678
-0.000592547354
-0.00054767865
-0.000626439816
-0.000737613145
-0.000593448787
-0.000539783724
-0.000589460505
-0.000729012504
-0.000685473195
-0.000513716302
-0.000497094881
-0.000712482906
-0.000742145857
-0.000601548315
-0.000533120556
-0.000622540834
-0.000735510855
-0.000594790326
-0.00053295017
-0.000588320384
-0.000731630462
-0.000655020233
-0.000509279309
-0.000556127
-0.000728939796
-0.00074158927
-0.000563970091
-0.000524641935
-0.000723796152
-0.000738020702
-0.000593964941
-0.00048739179
-0.000573472084
-0.000729304917
-0.000744797974
-0.000567701839
-0.000523229224
-0.000720793637
-0.000741955201
-0.000591819751
-0.000537506178
-0.000724118078
-0.000740790804
-0.000563773863
-0.000582591186
-0.000742719471
-0.000746648506
-0.000589932309
-0.000476223162
-0.000581821972
-0.000736245862
-0.000734949895
-0.000577684099
-0.000609053485
-0.000741111499
-0.000750444939
-0.000593525953
-0.000548005891
-0.000520838883
-0.000589033523
-0.000742704602
-0.000747110163
-0.000589832034
-0.000511751037
-0.000598512846
-0.000741319671
-0.00074930614
-0.00059043903
-0.000506402048
-0.000595435626
-0.000742379318
-0.000749420805
-0.000589682222
-0.000504660894
-0.000591501504
-0.000744400096
-0.0007487799
-0.000587602185
-0.000493980993
-0.000591649803
-0.000734069389
-0.000753087933
-0.000637800109
-0.000595873795
-0.000569950014
-0.000536179138
-0.000600799539
-0.000746064421
-0.000747810697
-0.000591130585
-0.000506488397
-0.000570297067
-0.000743560286
-0.0007527772
-0.00057995211
-0.000575801629
-0.00074933764
-0.000743760883
-0.000592952103
-0.000472296022
-0.000549294595
-0.000741409365
-0.000749482082
-0.000560466715
-0.00055812001
-0.000743965306
-0.000744607258
-0.000559686585
-0.000564930824
-0.000749404569
-0.000739223471
-0.000595906277
-0.000459638923
-0.000545194403
-0.000740520376
-0.000743949078
-0.000549873942
-0.000561455555
-0.000743309546
-0.000738880168
-0.000550069935
-0.00056477427
-0.000749639001
-0.000736479621
-0.000595457038
-0.000464379624
-0.000553165644
-0.000740368323
-0.00073788004
-0.000536632343
-0.000583439056
-0.00074261067
-0.000729307448
-0.00054267556
-0.000562879488
-0.000751707548
-0.000734993526
-0.000590845601
-0.000462870851
-0.000580077131
-0.000741139317
-0.000672556295
-0.000522798713
-0.000590768732
-0.000741576644
-0.000601939266
-0.000536682714
-0.000592472414
-0.000741684047
-0.000617831954
-0.000529476451
-0.000591313872
-0.000753605822
-0.000741736476
-0.000588934906
-0.000486990532
-0.000599221308
-0.000744432887
-0.000678816074
-0.000524084793
)
;

boundaryField
{
    closed
    {
        type            calculated;
        value           uniform -0.00446648474;
    }
    open
    {
        type            calculated;
        value           nonuniform List<scalar> 0();
    }
    sides
    {
        type            empty;
    }
    procBoundary0to1
    {
        type            processor;
        value           uniform -0.000579132968;
    }
}


// ************************************************************************* //
