/*--------------------------------*- C++ -*----------------------------------*\
| =========                 |                                                 |
| \\      /  F ield         | OpenFOAM: The Open Source CFD Toolbox           |
|  \\    /   O peration     | Version:  2306                                  |
|   \\  /    A nd           | Website:  www.openfoam.com                      |
|    \\/     M anipulation  |                                                 |
\*---------------------------------------------------------------------------*/
FoamFile
{
    version     2.0;
    format      ascii;
    arch        "LSB;label=32;scalar=64";
    class       surfaceScalarField;
    location    "0.0008";
    object      phi;
}
// * * * * * * * * * * * * * * * * * * * * * * * * * * * * * * * * * * * * * //

dimensions      [1 0 -1 0 0 0 0];

oriented        oriented;

internalField   nonuniform List<scalar> 
530
(
3.18966874e-06
3.50970295e-06
3.62061371e-06
3.50922449e-06
3.53788504e-06
3.61719919e-06
3.88131078e-06
3.927289e-06
3.90962382e-06
3.97420395e-06
4.18650775e-06
4.17993104e-06
4.11426647e-06
4.11804654e-06
4.13126976e-06
4.1129032e-06
3.87388858e-06
3.77857224e-06
3.70192871e-06
3.64315689e-06
3.50236487e-06
3.36940113e-06
3.24795363e-06
3.1354715e-06
2.98280578e-06
2.69465842e-06
2.53843343e-06
2.36888531e-06
2.22782485e-06
2.00813601e-06
1.89339818e-06
1.71640906e-06
1.54326122e-06
1.33364628e-06
1.09042105e-06
9.54930298e-07
7.72475122e-07
5.92610421e-07
4.14537272e-07
2.34224202e-07
8.48618146e-08
9.8505817e-09
-1.08878547e-07
-2.53359278e-07
-3.30011914e-07
-3.01956743e-07
-3.93605442e-07
-4.88586876e-07
-4.99281786e-07
-5.16492707e-07
-4.54310913e-07
-3.40218038e-07
-2.90180364e-07
-2.71299668e-07
-1.89313892e-07
-9.86175251e-08
2.23578405e-08
1.92550675e-07
3.14701508e-07
4.51344158e-07
5.95398387e-07
7.20658458e-07
8.84380415e-07
1.03059099e-06
1.18634726e-06
1.35251003e-06
1.50199513e-06
1.57414049e-06
1.67550823e-06
1.79968344e-06
1.92088852e-06
2.03158462e-06
2.29803226e-06
2.4653798e-06
2.49071089e-06
2.56190457e-06
2.48668531e-06
2.49945937e-06
2.54209668e-06
2.60017055e-06
2.6611844e-06
2.55321299e-06
2.52296829e-06
2.53275766e-06
2.5591829e-06
2.58776799e-06
2.4556841e-06
2.40822075e-06
2.39838044e-06
2.40793642e-06
2.41782002e-06
2.28736691e-06
2.2293064e-06
2.20914162e-06
2.20887607e-06
2.21341393e-06
2.1958066e-06
2.0530505e-06
1.99336049e-06
1.9666455e-06
2.03092523e-06
1.95490008e-06
1.86976099e-06
1.84547386e-06
1.88502585e-06
1.79721572e-06
1.70892179e-06
1.67068916e-06
1.62727335e-06
1.58339548e-06
1.43137004e-06
1.36076795e-06
1.32255346e-06
1.30320213e-06
1.23909989e-06
1.12143012e-06
1.07055415e-06
1.28426256e-06
1.26549897e-06
1.13364107e-06
1.0351473e-06
9.68893548e-07
9.31265786e-07
9.1519613e-07
8.92874864e-07
8.73013592e-07
8.00462703e-07
7.60025316e-07
7.45299276e-07
7.0836232e-07
6.94680368e-07
7.60936815e-07
7.61268102e-07
7.47155757e-07
7.23625487e-07
7.07196124e-07
7.29218631e-07
7.8599231e-07
7.86436778e-07
7.87472142e-07
8.26088391e-07
9.20187146e-07
9.3833418e-07
9.39189801e-07
1.016055e-06
1.07068426e-06
1.1480717e-06
1.15568966e-06
1.1993487e-06
1.27974746e-06
1.44935897e-06
1.50178255e-06
1.50589996e-06
1.59429207e-06
1.70252879e-06
1.84166433e-06
1.84471413e-06
1.89276365e-06
1.99360643e-06
2.11094205e-06
2.24634563e-06
2.23686245e-06
2.28590806e-06
2.38564329e-06
2.65125349e-06
2.71651403e-06
2.67842225e-06
2.77385458e-06
2.92136037e-06
3.07589449e-06
2.99823813e-06
3.00069858e-06
3.07793797e-06
3.21034155e-06
3.33667664e-06
3.23672198e-06
3.21739405e-06
3.262959e-06
3.37932803e-06
3.48629863e-06
3.53299662e-06
3.39205992e-06
3.35217397e-06
3.38649587e-06
3.60554442e-06
3.74075469e-06
3.57491119e-06
3.54928187e-06
3.59731926e-06
3.72137478e-06
3.88376574e-06
3.97548219e-06
4.01617345e-06
4.05516902e-06
4.13173744e-06
4.25672651e-06
4.39609379e-06
4.56507789e-06
4.6952628e-06
4.79324818e-06
4.69318621e-06
4.74302454e-06
4.99362693e-06
5.17644187e-06
4.96414131e-06
4.90207384e-06
4.90618578e-06
5.20766829e-06
5.14489935e-06
4.9243741e-06
4.82423867e-06
4.97735966e-06
4.79144281e-06
4.48203063e-06
4.25719856e-06
4.23016059e-06
3.92948258e-06
3.53019911e-06
3.20640922e-06
2.92519952e-06
2.64754389e-06
2.24264224e-06
1.75998651e-06
1.40364985e-06
1.22089447e-06
8.84962007e-07
4.27299136e-07
2.07109324e-08
-2.79942376e-07
-4.46890769e-07
-8.06810944e-07
-1.14368543e-06
-1.38605937e-06
-1.59400527e-06
-1.7153184e-06
-2.05856734e-06
-2.16972783e-06
-2.11715762e-06
-2.30453232e-06
-2.6999083e-06
-2.7269339e-06
-2.54585031e-06
-2.61789558e-06
-2.86117575e-06
-2.97286166e-06
-2.89064957e-06
-2.73131227e-06
-2.8002066e-06
-3.05502534e-06
-2.94362793e-06
-2.73292233e-06
-2.6962692e-06
-2.78746412e-06
-2.57314765e-06
-2.31960857e-06
-2.08644124e-06
-1.76467743e-06
-1.48741668e-06
-1.09805901e-06
-6.54223835e-07
-2.24715067e-07
1.21015118e-07
5.34133043e-07
9.36924082e-07
1.38238044e-06
1.91746107e-06
2.44674887e-06
2.86093909e-06
3.1844956e-06
3.50682081e-06
3.89405887e-06
4.47821369e-06
4.78543966e-06
5.01705456e-06
5.18018825e-06
5.24926674e-06
5.38099671e-06
5.53151472e-06
5.61861666e-06
5.83671549e-06
6.13198941e-06
6.2172268e-06
6.27930146e-06
6.31396178e-06
6.10740491e-06
6.07174227e-06
6.42160013e-06
6.36500829e-06
6.09200695e-06
6.00502177e-06
6.22619864e-06
6.03906938e-06
5.56226347e-06
5.27500296e-06
5.24441414e-06
4.9609037e-06
4.51872855e-06
3.91982036e-06
3.5242245e-06
3.20268908e-06
2.67510873e-06
2.27574066e-06
1.83606054e-06
1.39774819e-06
9.37948339e-07
4.66160039e-07
2.12694181e-07
-5.5867346e-08
-4.70746107e-07
-7.39536857e-07
-6.91196524e-07
-7.9327015e-07
-8.55644088e-07
-8.601724e-07
-7.44849604e-07
-5.09498985e-07
-3.29015412e-07
-1.02866545e-07
1.53579594e-07
4.3590625e-07
8.14261428e-07
1.15139098e-06
1.51586344e-06
1.88787866e-06
2.13036865e-06
2.47959744e-06
2.83062021e-06
3.21599642e-06
3.60819817e-06
3.74684512e-06
4.02782696e-06
4.34602828e-06
4.71006597e-06
5.0690929e-06
5.06607426e-06
5.22738856e-06
5.43466802e-06
5.68083789e-06
5.88895471e-06
5.66669746e-06
5.61360826e-06
5.59406909e-06
5.59906093e-06
5.54597707e-06
5.10509753e-06
4.85291431e-06
4.62844098e-06
4.44140061e-06
4.21620914e-06
3.70719762e-06
3.46125231e-06
3.27278549e-06
3.14902846e-06
2.85313162e-06
2.67871108e-06
2.51685634e-06
2.41137265e-06
2.28528241e-06
2.07314264e-06
2.02625726e-06
1.94897353e-06
1.89773627e-06
1.81809392e-06
1.66540337e-06
1.6474709e-06
1.56618685e-06
1.48791996e-06
1.34546173e-06
1.16268054e-06
1.07130899e-06
8.62353069e-07
5.71178142e-07
2.68619022e-07
-1.33459886e-07
-5.43473383e-07
-8.87219043e-07
-1.45154867e-06
-2.08644476e-06
-2.79158085e-06
-3.19299361e-06
-3.77015684e-06
-4.50551809e-06
-5.24765954e-06
-5.85294576e-06
-6.02746218e-06
-6.08454321e-06
-6.33660555e-06
-6.42053859e-06
-6.42135921e-06
-6.52663518e-06
-6.72319488e-06
-6.31791691e-06
-5.48383973e-06
-4.96424247e-06
-4.54021533e-06
-4.08555231e-06
-3.52979637e-06
-2.92856897e-06
-2.45658183e-06
-2.02570752e-06
-1.63206309e-06
-1.2844655e-06
-9.71459252e-07
-6.97634417e-07
-4.57626031e-07
-2.53518844e-07
-8.1607086e-08
5.82652707e-08
1.71656008e-07
2.60081642e-07
3.28978724e-07
3.92947084e-07
4.50358348e-07
4.27951942e-07
4.02011005e-07
3.58259634e-07
3.32791649e-07
3.02133846e-07
2.79771205e-07
2.65612512e-07
2.43392004e-07
2.36019784e-07
1.90100842e-07
1.6636723e-07
1.58442793e-07
1.49320627e-07
1.53556885e-07
1.42429711e-07
9.6596947e-08
3.69997024e-08
-4.54796825e-08
-4.35822313e-08
-1.85137847e-07
-3.32178876e-07
-4.99466172e-07
-6.58251836e-07
-7.57757692e-07
-9.19587984e-07
-9.69914328e-07
-1.14363455e-06
-4.2369296e-07
-1.98691624e-07
-9.78631473e-08
4.9280553e-07
3.70557817e-08
5.59144374e-07
7.75406488e-07
6.4099431e-07
6.41107988e-07
9.39737866e-07
1.09655644e-06
1.26141183e-06
1.36308475e-06
1.45178071e-06
1.54589931e-06
1.56415952e-06
1.56947914e-06
1.56810075e-06
1.56856469e-06
1.56560074e-06
1.56130351e-06
1.55899217e-06
1.55618927e-06
1.55522336e-06
1.55341874e-06
1.5540956e-06
1.55322776e-06
1.55423546e-06
1.55355836e-06
1.552292e-06
1.55037069e-06
1.54933703e-06
1.54731945e-06
1.54590868e-06
1.54345006e-06
1.54088665e-06
1.53801561e-06
1.53439645e-06
1.53054571e-06
1.52605615e-06
1.52125276e-06
1.51649278e-06
1.51050289e-06
1.50511949e-06
1.49812906e-06
1.4918029e-06
1.48588754e-06
1.48021653e-06
1.47210738e-06
1.4644119e-06
1.45632987e-06
1.44892771e-06
1.44126782e-06
1.43407678e-06
1.42700297e-06
1.42052569e-06
1.41444444e-06
1.40886604e-06
1.40389502e-06
1.39972325e-06
1.39634485e-06
1.394374e-06
1.39330359e-06
1.39321263e-06
1.39420987e-06
1.3961761e-06
1.39946081e-06
1.40414733e-06
1.41029463e-06
1.41813652e-06
1.4276274e-06
1.4388974e-06
1.45196813e-06
1.46694739e-06
1.48361999e-06
1.50247079e-06
1.5234004e-06
1.54649452e-06
1.57177719e-06
1.59941675e-06
1.62933018e-06
1.66162995e-06
1.69634576e-06
1.73354168e-06
1.77325295e-06
1.81552342e-06
1.86038369e-06
1.90781036e-06
1.95787626e-06
2.01059102e-06
)
;

boundaryField
{
    closed
    {
        type            calculated;
        value           nonuniform List<scalar> 0();
    }
    open
    {
        type            calculated;
        value           nonuniform List<scalar> 0();
    }
    sides
    {
        type            empty;
        value           nonuniform List<scalar> 0();
    }
    procBoundary4to3
    {
        type            processor;
        value           uniform -3.11776797e-06;
    }
    procBoundary4to5
    {
        type            processor;
        value           uniform 2.06590988e-06;
    }
}


// ************************************************************************* //
