/*--------------------------------*- C++ -*----------------------------------*\
| =========                 |                                                 |
| \\      /  F ield         | OpenFOAM: The Open Source CFD Toolbox           |
|  \\    /   O peration     | Version:  2306                                  |
|   \\  /    A nd           | Website:  www.openfoam.com                      |
|    \\/     M anipulation  |                                                 |
\*---------------------------------------------------------------------------*/
FoamFile
{
    version     2.0;
    format      ascii;
    arch        "LSB;label=32;scalar=64";
    class       volScalarField;
    location    "0.0008";
    object      PV;
}
// * * * * * * * * * * * * * * * * * * * * * * * * * * * * * * * * * * * * * //

dimensions      [0 0 0 0 0 0 0];

internalField   nonuniform List<scalar> 
531
(
-0.00698265917
-0.00718844548
-0.00724933925
-0.00722907446
-0.00698913814
-0.00698088684
-0.00720499224
-0.00721787509
-0.00699268196
-0.00698094811
-0.00719600212
-0.00720750121
-0.00699095861
-0.00698276149
-0.00716789664
-0.0072230421
-0.0072057544
-0.00698707792
-0.00697770001
-0.0071806856
-0.00719579575
-0.00698994403
-0.00698055458
-0.00716324292
-0.00722302017
-0.00721024128
-0.0069863135
-0.00697677398
-0.00718020018
-0.00719573822
-0.00698879423
-0.00697973998
-0.00714719784
-0.00721090114
-0.00719637237
-0.00698560501
-0.00697769848
-0.00714087925
-0.00720140419
-0.00721565912
-0.00721138288
-0.0069880485
-0.00697999302
-0.00698844632
-0.00697887082
-0.00702754949
-0.00719252424
-0.00722012856
-0.00720282705
-0.00722399438
-0.00720564206
-0.00698350905
-0.00697672124
-0.00697873114
-0.00714503995
-0.00721371228
-0.00719856615
-0.00697954387
-0.00697719273
-0.00715107048
-0.00721507116
-0.00719868036
-0.00698007002
-0.00697667787
-0.00715160277
-0.00720472204
-0.00721723741
-0.00720859337
-0.00698709174
-0.00698059569
-0.00699311774
-0.00698059208
-0.00699361086
-0.00719454851
-0.00722632289
-0.00721347009
-0.00721012653
-0.0069787118
-0.0069808882
-0.00714920871
-0.00721694512
-0.00719694586
-0.00697938565
-0.00697851954
-0.00714285467
-0.00721389261
-0.00719582636
-0.00697913802
-0.00697920257
-0.00713566662
-0.00721220885
-0.00719576188
-0.00698064058
-0.00697884178
-0.00711795842
-0.0072019121
-0.00721419311
-0.00721016075
-0.00698199123
-0.00697842409
-0.00720333703
-0.00720928362
-0.00698340008
-0.00697994558
-0.00720209644
-0.00720663139
-0.00698088262
-0.00698308722
-0.00716446158
-0.00722553043
-0.0071917643
-0.00698546236
-0.00697683467
-0.00721216822
-0.00720812036
-0.00699223586
-0.00698019212
-0.00700112887
-0.00718631245
-0.00724201011
-0.0071983985
-0.00698740157
-0.00697993821
-0.00707100492
-0.00719583479
-0.00722544735
-0.00721004509
-0.00698156449
-0.00697957093
-0.00720183484
-0.00722888556
-0.00703267912
-0.00698080567
-0.00720772778
-0.00721297788
-0.00698121266
-0.00698045343
-0.00721304754
-0.00721412855
-0.00698020574
-0.00698041975
-0.00721030594
-0.00721143138
-0.00697646865
-0.00698338142
-0.00712792842
-0.00722520503
-0.00720668619
-0.00698078832
-0.00697861808
-0.00720958221
-0.00721111585
-0.00697698245
-0.00698214221
-0.00712805489
-0.00722609491
-0.00720590281
-0.00697747877
-0.00698117907
-0.00713634911
-0.00722536177
-0.00720775447
-0.00698196632
-0.00697866536
-0.00720400954
-0.00720692797
-0.00697988401
-0.00698252923
-0.00710611411
-0.00722270344
-0.00720809625
-0.00697798876
-0.00698173152
-0.00711252434
-0.0072224836
-0.00720261628
-0.00698128263
-0.00697879157
-0.00709285187
-0.00719156805
-0.00721936537
-0.00720263211
-0.00698619453
-0.00698299671
-0.00704797899
-0.00721796463
-0.00721780308
-0.00698083722
-0.00698004089
-0.00710025893
-0.00719901786
-0.00721878345
-0.00715376317
-0.00698489909
-0.00697544688
-0.00697871577
-0.00712727126
-0.00720974654
-0.00720767515
-0.0072206229
-0.00708503077
-0.00698741698
-0.00707523772
-0.00723444473
-0.00723153651
-0.00698785485
-0.00698065001
-0.00720181666
-0.00721409738
-0.00699427873
-0.00698042004
-0.00719834126
-0.00720964421
-0.00699620106
-0.00698123782
-0.00720381441
-0.00721322802
-0.0069924989
-0.00698323708
-0.00706543728
-0.00720790197
-0.00721734287
-0.00710664729
-0.00698642593
-0.00699055522
-0.00720513266
-0.00723090673
-0.0071066985
-0.00698770488
-0.00699241964
-0.00720760818
-0.0072328079
-0.00708734682
-0.00698905133
-0.00702857973
-0.00722712269
-0.00722885332
-0.00699084673
-0.00698296705
-0.00720404569
-0.00721429488
-0.00702554989
-0.00698686177
-0.00705183804
-0.00723181091
-0.00723029359
-0.00698670841
-0.00698304815
-0.00720983251
-0.00721049359
-0.00698570203
-0.00698406113
-0.00720380343
-0.00721384911
-0.00706040744
-0.00698652659
-0.00701279069
-0.00722875273
-0.00722825897
-0.00698395196
-0.0069851222
-0.00720077581
-0.00721137777
-0.00707649234
-0.00698248443
-0.00698289545
-0.0071932654
-0.00723103689
-0.00713057984
-0.00698579722
-0.00697975772
-0.00719263604
-0.00722121563
-0.00722209616
-0.00715446067
-0.00698881148
-0.00697822321
-0.00698912283
-0.00697862593
-0.00698289788
-0.00718579588
-0.00722812775
-0.00721547155
-0.0072337633
-0.00709593325
-0.00698658227
-0.00718456771
-0.00722243629
-0.0069909333
-0.00698360634
-0.0071855078
-0.00721981648
-0.00708121594
-0.00698851599
-0.00704746001
-0.0072129314
-0.00721328818
-0.00699030826
-0.00698177033
-0.00719608988
-0.00721056237
-0.0069947618
-0.00698485608
-0.00711944248
-0.00722249992
-0.00720619507
-0.00698875253
-0.00698086801
-0.00719709665
-0.00720702059
-0.00698929797
-0.00698272066
-0.00713192128
-0.00721879642
-0.00719581109
-0.00698269952
-0.0069796893
-0.00714018306
-0.0072190658
-0.00719171665
-0.00698181749
-0.00697947124
-0.007143273
-0.00721938084
-0.00719003219
-0.00698123354
-0.00697899566
-0.00714648895
-0.00722037316
-0.00718955714
-0.00698148274
-0.00697860413
-0.00714394157
-0.0072193965
-0.00718989202
-0.00698215114
-0.00697850748
-0.00714118018
-0.00721935604
-0.00719276951
-0.00698311588
-0.006978658
-0.00713915784
-0.00721942533
-0.0071958354
-0.00698393032
-0.00697910988
-0.00714164755
-0.00722478457
-0.0072004013
-0.00698806756
-0.00697977126
-0.0071891729
-0.0071984414
-0.006989068
-0.00698063369
-0.00714504102
-0.00722490279
-0.00720185816
-0.0069855111
-0.00697980935
-0.00712459433
-0.00721972887
-0.00720346882
-0.0069828009
-0.00698068713
-0.00711996972
-0.00723122113
-0.00719987139
-0.0069862291
-0.0069730476
-0.0069812829
-0.00713927129
-0.0072265897
-0.00720809226
-0.00697807016
-0.00697414464
-0.00714889822
-0.00723114586
-0.0072064177
-0.00696955271
-0.00696999076
-0.00713949116
-0.00724794517
-0.00720651937
-0.00696703789
-0.0069513083
-0.00696121358
-0.00694299841
-0.00695136374
-0.00716755512
-0.00722965225
-0.00717838814
-0.00693137024
-0.00693261848
-0.00717139687
-0.00716001163
-0.00690904746
-0.00689981961
-0.00689929414
-0.00688632104
-0.00688082088
-0.00686729248
-0.00685709827
-0.00684136453
-0.00682792626
-0.00680759622
-0.00679187188
-0.00676468977
-0.00674619877
-0.00671113122
-0.00668272845
-0.00662824098
-0.00657643761
-0.00653428135
-0.00650239598
-0.00645408491
-0.00641403633
-0.00636169819
-0.00631139117
-0.00625406091
-0.00617941062
-0.0060788306
-0.00598485708
-0.00588544178
-0.00580260229
-0.0056775357
-0.00559285451
-0.00546997224
-0.00538991342
-0.00525386621
-0.00510852696
-0.00476095555
-0.00464565232
-0.0044855004
-0.00431557235
-0.0041225476
-0.00390064036
-0.00365345982
-0.00337341935
-0.00306673693
-0.00256310703
-0.00224676028
-0.0018750011
-0.00164673076
-0.0011914261
-0.00091522863
-0.000660016741
-0.000279232053
0.000146315532
0.000446103341
0.000767618609
0.00113277982
0.00147595852
0.00170345215
0.00200153054
0.0023378148
0.00268124624
0.00301259132
0.00329061452
0.00357471409
0.00383710546
0.00408890627
0.00432078564
0.00455808497
0.00476354799
0.0049737897
0.0051598983
0.00534949044
0.00551754051
0.00570635715
0.00587239878
0.00603101543
0.00617294207
0.00629995794
0.006416106
0.00651239076
0.00660840393
0.00668079192
0.00675892805
0.00681836618
0.00687968612
0.00692732047
0.0069743111
0.00701437597
0.00705299368
0.00708421188
0.00711093698
0.00714211483
0.00717292357
0.00720421993
0.007231314
0.00725893901
0.0072830089
0.00730795249
0.00733003936
0.00735258478
0.00737243801
0.00739305767
0.00741147928
0.00743011554
0.00744558028
0.00746120866
0.00747593896
0.00749100104
0.00750537252
0.00751998201
0.00753370808
0.00754762469
0.00756011809
0.00757261551
0.00758425967
0.00759600019
0.0076068907
0.00761828099
0.00762878558
0.00763894625
0.0076483719
0.00765806628
0.00766690686
0.00767564031
0.00768370628
0.00769213334
0.00769986344
0.0077080103
0.00771542871
0.00772335042
0.00773056823
0.00773830592
0.00774519531
0.00775261098
)
;

boundaryField
{
    closed
    {
        type            zeroGradient;
    }
    open
    {
        type            zeroGradient;
    }
    sides
    {
        type            empty;
    }
    procBoundary4to3
    {
        type            processor;
        value           uniform -0.00698273321;
    }
    procBoundary4to5
    {
        type            processor;
        value           uniform 0.00775915533;
    }
}


// ************************************************************************* //
