/*--------------------------------*- C++ -*----------------------------------*\
| =========                 |                                                 |
| \\      /  F ield         | OpenFOAM: The Open Source CFD Toolbox           |
|  \\    /   O peration     | Version:  2306                                  |
|   \\  /    A nd           | Website:  www.openfoam.com                      |
|    \\/     M anipulation  |                                                 |
\*---------------------------------------------------------------------------*/
FoamFile
{
    version     2.0;
    format      ascii;
    arch        "LSB;label=32;scalar=64";
    class       volScalarField;
    location    "0.0008";
    object      rho;
}
// * * * * * * * * * * * * * * * * * * * * * * * * * * * * * * * * * * * * * //

dimensions      [1 -3 0 0 0 0 0];

internalField   nonuniform List<scalar> 
531
(
0.902810647
0.942013817
0.969063263
0.960743098
0.904397389
0.902425824
0.947951673
0.955025505
0.905032165
0.902266962
0.94386209
0.949289498
0.904635188
0.902771783
0.93846554
0.956064496
0.949614896
0.903871811
0.901649606
0.93899795
0.945058843
0.904683848
0.902590874
0.93922772
0.95737168
0.952957526
0.904282427
0.90205534
0.940158452
0.946217348
0.905201294
0.903296492
0.939415503
0.952548524
0.947191873
0.905214786
0.903431042
0.938946573
0.950247652
0.955786348
0.954749013
0.906177166
0.904435924
0.906590916
0.904311154
0.918973437
0.947807706
0.957143611
0.952347284
0.960133025
0.95353752
0.905591723
0.904168146
0.90453883
0.940821384
0.956053969
0.950111967
0.904421026
0.903842266
0.940683093
0.956588508
0.949946541
0.904315955
0.903489341
0.939694639
0.951896515
0.956360253
0.953252514
0.905575226
0.904080828
0.907021774
0.904030873
0.906771377
0.946465359
0.957552802
0.955037996
0.951610389
0.903382024
0.904025484
0.939301927
0.955942451
0.947533406
0.903490444
0.903320779
0.938756509
0.954867817
0.946757102
0.903389025
0.903522982
0.938343398
0.953676937
0.946888347
0.903896529
0.903590424
0.936261409
0.94933742
0.954651968
0.953415023
0.904203859
0.903328078
0.949783257
0.952691607
0.904411991
0.903648311
0.949604572
0.950566809
0.903841174
0.904523547
0.9400305
0.958384851
0.945216704
0.905079532
0.902798665
0.952143396
0.952752825
0.906664446
0.903932805
0.908707409
0.94259822
0.964204779
0.948003031
0.905773256
0.903954897
0.929007532
0.946507709
0.959165388
0.953494787
0.904046303
0.903475427
0.947547412
0.961967401
0.919602356
0.903655883
0.950120137
0.953432684
0.903533776
0.903342946
0.953846944
0.953812741
0.903024655
0.903085432
0.95309096
0.951766114
0.901918289
0.903696512
0.937117082
0.958192892
0.951212151
0.902688482
0.902130786
0.952364587
0.951518181
0.901600125
0.902886456
0.93662886
0.959200067
0.949931065
0.901444069
0.902413521
0.937092717
0.957848202
0.951000444
0.902351904
0.901492057
0.948888254
0.948713248
0.901660871
0.902393142
0.93354539
0.957238996
0.949857908
0.900943256
0.902049029
0.934606093
0.956500446
0.948341266
0.901749673
0.901382796
0.931104992
0.942263602
0.954155289
0.946719253
0.903028657
0.902452054
0.921900286
0.95439903
0.953551204
0.901518163
0.901593003
0.932065515
0.946891525
0.954373768
0.937860321
0.902724703
0.900493388
0.901297881
0.935628514
0.949272252
0.95051815
0.954292813
0.930190676
0.903376412
0.927703172
0.960899529
0.960538061
0.903066012
0.901305046
0.945939305
0.951539707
0.904641167
0.901237691
0.943859693
0.949393257
0.905323491
0.901707094
0.946648571
0.951242674
0.904527463
0.902779706
0.926180351
0.950243771
0.953649989
0.934040128
0.904385399
0.905031739
0.950240521
0.959405667
0.934804719
0.905484751
0.906272652
0.95187558
0.960695624
0.932967773
0.906364435
0.918742148
0.959849121
0.961515846
0.906595668
0.904959928
0.948182473
0.954357431
0.918247892
0.906151936
0.925403212
0.962421874
0.962869952
0.905565814
0.904954896
0.951472059
0.953595168
0.905390099
0.905117324
0.948698465
0.953998443
0.927336101
0.905405592
0.912982726
0.959942143
0.959786244
0.903590405
0.904019313
0.94589916
0.951366231
0.929029485
0.902565421
0.902012926
0.943075028
0.958109471
0.935253918
0.902402296
0.900106118
0.940511896
0.954106649
0.953527365
0.935876648
0.90210446
0.899480323
0.902002594
0.899484734
0.900392191
0.938676414
0.954910289
0.952281993
0.958758695
0.930368091
0.901495581
0.937353943
0.953914387
0.902151034
0.900809275
0.937663875
0.951990577
0.928245184
0.902490342
0.92029722
0.949238492
0.948642632
0.903177819
0.901086784
0.943759221
0.949044025
0.90496258
0.903147718
0.934687269
0.955653401
0.948038983
0.904550715
0.902518701
0.946106482
0.94886321
0.905179263
0.903913175
0.937562796
0.955942247
0.945870276
0.903554043
0.902974565
0.938105046
0.95587587
0.943611074
0.90278984
0.902288376
0.937560985
0.955209563
0.942140428
0.901790147
0.901283999
0.936911952
0.954788831
0.94113571
0.900999704
0.900341418
0.935859222
0.953488863
0.94036887
0.900447658
0.899642068
0.934989148
0.952841623
0.940978612
0.90033526
0.899438602
0.934683288
0.95278071
0.942285819
0.900743282
0.89987183
0.935253724
0.955107337
0.943866106
0.902412989
0.900251177
0.94012405
0.942760218
0.903077702
0.901318118
0.936665725
0.956250579
0.946402705
0.902603155
0.901537061
0.935101027
0.954701811
0.947216599
0.902101843
0.902060328
0.935608992
0.959809587
0.948199345
0.903259163
0.90051584
0.902936478
0.938588652
0.95960731
0.952932671
0.902415651
0.901939433
0.940356802
0.965857164
0.955622089
0.901775509
0.902615633
0.943734636
0.978058769
0.963964097
0.902559692
0.898952722
0.901747425
0.897111515
0.899860411
0.957150696
0.98345852
0.966302957
0.899081234
0.901228739
0.971775378
0.971554777
0.903282182
0.902054152
0.904824826
0.905146101
0.906282807
0.907044412
0.907709166
0.908109088
0.908274505
0.908190571
0.907848936
0.907105745
0.906091196
0.903478221
0.900660173
0.891108523
0.882909447
0.893368258
0.900473998
0.909104431
0.915024743
0.920466961
0.924537955
0.929564716
0.935370675
0.93462535
0.943325198
0.948893048
0.952819081
0.954943044
0.95525827
0.966547493
0.977188207
0.98924056
0.985339283
0.917348703
0.931344742
0.950704001
0.968524088
0.989580522
1.0086787
1.03061612
1.05333085
1.04341549
0.934000699
0.901348244
0.845188208
0.809507632
0.828955582
0.789519981
0.67608011
0.662854982
0.62104866
0.532995072
0.483125307
0.449331353
0.414596514
0.376023002
0.355055892
0.340696533
0.328801057
0.317345671
0.305582395
0.295456229
0.286475891
0.278158434
0.271017187
0.264596846
0.258870234
0.253677669
0.249156941
0.244987692
0.241378727
0.238664331
0.236164062
0.23374688
0.231460476
0.22930022
0.227158743
0.225268988
0.223278289
0.22168814
0.219894225
0.218465358
0.216867044
0.21543791
0.213927836
0.212584849
0.211307383
0.209821099
0.208334484
0.207190807
0.206393182
0.205596985
0.204875665
0.204115142
0.203437572
0.202751648
0.202123846
0.201469235
0.200869364
0.200278776
0.199736051
0.199170125
0.198528762
0.19787769
0.197307771
0.19674238
0.196274359
0.195812594
0.195391644
0.194961239
0.194553463
0.194125781
0.193730938
0.193313039
0.192928528
0.192578056
0.19225889
0.191873548
0.191534495
0.191171968
0.190853679
0.19050533
0.190206875
0.189884532
0.189610559
0.189312113
0.189060519
0.188787899
0.188580693
0.18835861
0.188173598
0.187962803
)
;

boundaryField
{
    closed
    {
        type            calculated;
        value           nonuniform List<scalar> 0();
    }
    open
    {
        type            calculated;
        value           nonuniform List<scalar> 0();
    }
    sides
    {
        type            empty;
    }
    procBoundary4to3
    {
        type            processor;
        value           uniform 0.90294066;
    }
    procBoundary4to5
    {
        type            processor;
        value           uniform 0.187789278;
    }
}


// ************************************************************************* //
