/*--------------------------------*- C++ -*----------------------------------*\
| =========                 |                                                 |
| \\      /  F ield         | OpenFOAM: The Open Source CFD Toolbox           |
|  \\    /   O peration     | Version:  2306                                  |
|   \\  /    A nd           | Website:  www.openfoam.com                      |
|    \\/     M anipulation  |                                                 |
\*---------------------------------------------------------------------------*/
FoamFile
{
    version     2.0;
    format      ascii;
    arch        "LSB;label=32;scalar=64";
    class       volScalarField;
    location    "0.0008";
    object      sourcePV;
}
// * * * * * * * * * * * * * * * * * * * * * * * * * * * * * * * * * * * * * //

dimensions      [1 -3 -1 0 0 0 0];

internalField   nonuniform List<scalar> 
531
(
0.0053221588
0.134407087
0.18428081
0.169592051
0.00444838352
0.0054209035
0.146603144
0.159356464
0.00356317615
0.00548635973
0.13892202
0.149043613
0.0038911508
0.00558604887
0.119527303
0.161457736
0.149047934
0.00485806411
0.00598859398
0.126963385
0.139882686
0.003983485
0.00577115855
0.117115199
0.162435476
0.153743429
0.00479381221
0.00596152025
0.127197394
0.140252662
0.00407053541
0.0059478071
0.107048402
0.151833086
0.141121324
0.00517459646
0.00622937308
0.101926666
0.146031439
0.156685931
0.154351904
0.00446034074
0.00607604716
0.00496533351
0.0061477794
0.0236557368
0.139931788
0.158875543
0.148791352
0.163897448
0.151087225
0.00497023438
0.00655776489
0.00611741307
0.107047291
0.156289804
0.144842292
0.00560432747
0.00609002586
0.110405481
0.157717452
0.14506364
0.00567635298
0.00619054821
0.109276708
0.149447437
0.158328581
0.152375872
0.00468259199
0.0060756173
0.0042623606
0.00612226566
0.0031974469
0.140083902
0.162073897
0.156489538
0.151020333
0.00571394265
0.00580365724
0.108967058
0.158596369
0.142659783
0.00572875281
0.00600661663
0.104746359
0.156569877
0.141360897
0.00572535213
0.00599011339
0.100365269
0.154507649
0.14151854
0.005721094
0.00611658009
0.0877852675
0.146280866
0.156256096
0.153825526
0.00534362485
0.00568569858
0.147050111
0.152421209
0.00492123445
0.00557389292
0.146434116
0.148712586
0.00535063754
0.0055831802
0.118188255
0.163234835
0.137894655
0.00526973711
0.00584371803
0.151956526
0.152096759
0.00403111669
0.00628485692
0.00305411424
0.132895055
0.173831993
0.143454148
0.00532589611
0.00626638777
0.0554616794
0.140885736
0.16471045
0.153994971
0.00558859665
0.00567182283
0.143829781
0.16971998
0.0291034562
0.00551789985
0.148834996
0.154690544
0.00552571987
0.0056672711
0.155426466
0.155630532
0.0056029006
0.00567543696
0.154057692
0.152367786
0.00605376505
0.00570546409
0.0953976484
0.164349594
0.15111753
0.00557519476
0.00570590005
0.153489673
0.15259832
0.00595977885
0.0057368873
0.0953765313
0.16674799
0.149746737
0.00591062107
0.00576645323
0.100712415
0.164940061
0.152040769
0.00552849817
0.00578920603
0.148300261
0.148693571
0.00562615245
0.00581324105
0.0809253271
0.164235223
0.150922714
0.00573045277
0.0057978602
0.0861047583
0.163293429
0.147820498
0.00546903117
0.00627550235
0.0712743671
0.136750865
0.159460102
0.145627397
0.00489364817
0.00592440033
0.0401670469
0.159634402
0.158414598
0.00519248149
0.00598891376
0.0762334754
0.145144371
0.159914113
0.112597625
0.00523140708
0.00681748183
0.00622991321
0.0955142538
0.151233433
0.152733303
0.16059341
0.0683741721
0.00504956121
0.0598810466
0.17254166
0.171807865
0.00448162081
0.00547240416
0.145176603
0.155617902
0.00388586322
0.00565790614
0.141220486
0.151353581
0.00387883102
0.0057029267
0.145828636
0.154075072
0.00353196848
0.00583249403
0.0515223614
0.150780071
0.157230816
0.0807221443
0.00536506122
0.00351964428
0.149105979
0.166480133
0.0807476641
0.00527791579
0.00337781606
0.1509344
0.167615688
0.0688552834
0.00514799415
0.0251969374
0.165179605
0.167917557
0.00391198843
0.00551080986
0.144010071
0.154719879
0.0239522114
0.00544248792
0.0417316357
0.169144432
0.169750797
0.0041012234
0.00522935856
0.149632037
0.152882605
0.00475882395
0.00542660926
0.144788116
0.15442583
0.0490975026
0.00544752029
0.01277728
0.166372218
0.166432498
0.00456994948
0.00519150851
0.1422685
0.152497475
0.0603673088
0.00586434712
0.004714964
0.138197826
0.167302613
0.096236232
0.00542513231
0.00486007203
0.135969111
0.161403555
0.160859864
0.111248825
0.00479502975
0.0064322036
0.00480042902
0.0063142877
0.00524693669
0.132857378
0.164667394
0.15899505
0.171347752
0.0753110423
0.00451398447
0.130942909
0.162537575
0.0031873016
0.00517363913
0.131363443
0.158801858
0.0651444776
0.00503078522
0.0387409132
0.152714329
0.151678591
0.00420051446
0.00483481454
0.140254185
0.150515042
0.0033729588
0.00554898307
0.0877434217
0.16080957
0.146621447
0.00429147248
0.00471628145
0.141151659
0.147032526
0.00423507883
0.00572636062
0.0968633828
0.159146739
0.140200665
0.00504794024
0.00588500785
0.102531317
0.159708398
0.13680618
0.00518003542
0.00591349746
0.104555191
0.160030672
0.135586229
0.00523342422
0.00592266601
0.106787236
0.160989454
0.135375672
0.00520750859
0.00595922496
0.105144244
0.160174384
0.135523328
0.00513097928
0.00596490848
0.103309017
0.160052141
0.137733836
0.00497851098
0.00593219498
0.10195692
0.159968908
0.140120591
0.00483436105
0.00580725373
0.103388571
0.163444636
0.142517492
0.00432540077
0.00486969491
0.134032145
0.13978974
0.004148548
0.00566899735
0.105791691
0.163596934
0.145064258
0.0045045303
0.00580341236
0.0921612842
0.160055694
0.146173345
0.0045744218
0.00567431847
0.0907460803
0.168942297
0.146387173
0.00378363287
0.00661846241
0.00580121726
0.104902034
0.167187042
0.154093693
0.00465719673
0.00555548151
0.111921911
0.175790817
0.15608192
0.00494684762
0.00549616557
0.111648729
0.194662966
0.167038283
0.00366648423
0.00653778422
0.00474420604
0.00711036181
0.00591016875
0.147949032
0.203934037
0.166528891
0.0103066903
0.0117423983
0.17628529
0.17323581
0.0212688321
0.0230414381
0.0253286763
0.0294944542
0.0316967053
0.0358501945
0.0386224269
0.0423504012
0.0451072267
0.0486031095
0.0509183785
0.0540429629
0.0555033863
0.056645596
0.0560532425
0.0487273031
0.0377049633
0.0400196126
0.042116292
0.0454944198
0.0486858176
0.0529710364
0.057649589
0.0638202276
0.0671209739
0.0550445155
0.0515726798
0.0518651939
0.0554575327
0.0632528631
0.0718791512
0.0756773857
0.0773510213
0.077234932
0.0618020649
0.0126585268
0.0128412334
0.0136094667
0.014210713
0.0146875892
0.0148606783
0.0147943547
0.0143629594
0.00902495495
0.00623799476
0.00647021317
0.013918363
0.0150404423
0.00581183195
0.0131321335
0.0567898912
0.0738097623
0.163244001
0.834281825
1.73268616
2.65657908
4.14060868
6.43995567
8.26103538
9.60031612
11.0716252
12.5701111
14.7630411
16.6840891
18.7511384
20.5631833
22.1712602
23.2189699
24.015107
24.208774
24.121448
23.5598858
22.8467531
21.9436824
21.0275354
19.9777199
18.9043466
17.7151474
16.4320311
15.1530577
13.7820029
12.5955472
11.2940219
10.230853
9.1095042
8.15763648
7.17781476
6.37158729
5.61913944
4.86249105
4.11584085
3.64895427
3.30710615
3.02444549
2.74760218
2.51984998
2.30555834
2.11229551
1.96921393
1.82283886
1.68404588
1.58575709
1.49266549
1.39733243
1.29848583
1.21119988
1.1360517
1.06247128
1.01357458
0.969141401
0.928826753
0.886781394
0.855581488
0.823481126
0.794417125
0.76349183
0.735539639
0.712731313
0.692236526
0.667825533
0.646538742
0.623934089
0.604507309
0.584776408
0.567735654
0.549550643
0.533871549
0.517081106
0.502621717
0.4872248
0.475407018
0.463273334
0.452677008
0.441070559
)
;

boundaryField
{
    closed
    {
        type            calculated;
        value           nonuniform List<scalar> 0();
    }
    open
    {
        type            calculated;
        value           nonuniform List<scalar> 0();
    }
    sides
    {
        type            empty;
    }
    procBoundary4to3
    {
        type            processor;
        value           uniform 0;
    }
    procBoundary4to5
    {
        type            processor;
        value           uniform 0;
    }
}


// ************************************************************************* //
