/*--------------------------------*- C++ -*----------------------------------*\
| =========                 |                                                 |
| \\      /  F ield         | OpenFOAM: The Open Source CFD Toolbox           |
|  \\    /   O peration     | Version:  2306                                  |
|   \\  /    A nd           | Website:  www.openfoam.com                      |
|    \\/     M anipulation  |                                                 |
\*---------------------------------------------------------------------------*/
FoamFile
{
    version     2.0;
    format      ascii;
    arch        "LSB;label=32;scalar=64";
    class       volScalarField;
    location    "0.0004";
    object      h;
}
// * * * * * * * * * * * * * * * * * * * * * * * * * * * * * * * * * * * * * //

dimensions      [0 2 -2 0 0 0 0];

internalField   nonuniform List<scalar> 
531
(
-4565.38207
-4862.02891
6246.95188
10093.4158
6553.41698
740.443747
729.463423
1553.56173
-1752.36865
-4382.98679
3659.60958
8783.55733
491.340948
-394.300212
8339.18168
5349.23235
-3479.51283
1234.07356
9286.48709
5481.84572
-154.091933
300.867567
-1163.88882
-2564.60124
3234.43036
9637.21821
7078.45846
-3389.52207
-4724.91003
4358.85584
9567.7747
3961.57492
-3971.15236
-1783.14268
8621.32781
7587.96977
-1336.78154
-1663.44471
2413.26232
3439.02606
2136.35865
1489.80164
2261.36765
2701.1131
2393.89935
2137.13921
2232.13856
2340.10429
2312.41318
2263.54128
2267.02653
2281.31754
2280.15107
2274.03188
2273.5243
2274.61421
2274.65146
2274.12738
2273.94289
2273.9756
2273.97904
2273.93983
2273.91088
2273.90668
2273.9046
2273.90038
2273.89748
2273.8964
2273.89588
2273.89535
2273.89498
2273.89484
2273.89476
2273.89469
2273.89466
2273.89464
2273.89463
2273.89462
2273.89462
2273.89461
2273.89461
2273.89461
2273.89461
2273.89461
2273.89461
2273.89461
2273.89461
2273.89461
2273.89461
2273.89461
2273.89461
2273.89461
2273.89461
2273.89461
2273.89461
2273.89461
2273.89461
2273.89461
2273.89461
2273.89461
2273.89461
2273.89461
2273.89461
2273.89461
2273.89461
2273.89461
2273.89461
2273.89461
2273.89461
2273.89461
2273.89461
2273.89461
2273.89461
2273.89461
2273.89461
2273.89461
2273.89461
2273.89461
2273.89461
2273.89461
2273.89461
2273.89461
2273.89461
2273.89461
2273.89461
2273.89461
2273.89461
2273.89461
2273.89461
2273.89461
2273.89461
2273.89461
2273.89461
2273.89461
2273.89461
2273.89461
2273.89461
2273.89461
2273.89461
2273.89461
2273.89461
2273.89461
2273.89461
2273.89461
2273.89461
2273.89461
2273.89461
2273.89461
2273.89461
2273.89461
2273.89461
2273.89461
2273.89461
2273.89461
2273.89461
2273.89461
2273.89461
2273.89461
2273.89461
2273.89461
2273.89461
2273.89461
2273.89461
2273.89461
2273.89461
2273.89461
2273.89461
2273.89461
2273.89461
2273.89461
2273.89461
2273.89461
2273.89461
2273.89461
2273.89461
2273.89461
2273.89461
2273.89461
2273.89461
2273.89461
2273.89461
2273.89461
2273.89461
2273.89461
2273.89461
2273.89461
2273.89461
2273.89461
2273.89461
2273.89461
2273.89461
2273.89461
2273.89461
2273.89461
2273.89461
2273.89461
2273.89461
2273.89461
2273.89461
2273.89461
2273.89461
2273.89461
2273.89461
2273.89461
2273.89461
2273.89461
2273.89461
2273.89461
2273.89461
2273.89461
2273.89461
2273.89461
2273.89461
2273.89461
2273.89461
2273.89461
2273.89461
2273.89461
2273.89461
2273.89461
2273.89461
2273.89461
2273.89461
2273.89461
2273.89461
2273.89461
2273.89461
2273.89461
2273.89461
2273.89461
2273.89461
2273.89461
2273.89461
2273.89461
2273.89461
2273.89461
2273.89461
2273.89461
2273.89461
2273.89461
2273.89461
2273.89461
2273.89461
2273.89461
2273.89461
2273.89461
2273.89461
2273.89461
2273.89461
2273.89461
2273.89461
2273.89461
2273.89461
2273.89461
2273.89461
2273.89461
2273.89461
2273.89461
2273.89461
2273.89461
2273.89461
2273.89461
2273.89461
2273.89461
2273.89461
2273.89461
2273.89461
2273.89461
2273.89461
2273.89461
2273.89461
2273.89461
2273.89461
2273.89461
2273.89461
2273.89461
2273.89461
2273.89461
2273.89461
2273.89461
2273.89461
2273.89461
2273.89461
2273.89461
2273.89461
2273.89461
2273.89461
2273.89461
2273.89461
2273.89461
2273.89461
2273.89461
2273.89461
2273.89461
2273.89461
2273.89461
2273.89461
2273.89461
2273.89461
2273.89461
2273.89461
2273.89461
2273.89461
2273.89461
2273.89461
2273.89461
2273.89461
2273.89461
2273.89461
2273.89461
2273.89461
2273.89461
2273.89461
2273.89461
2273.89461
2273.89461
2273.89461
2273.89461
2273.89461
2273.89461
2273.89461
2273.89461
2273.89461
2273.89461
2273.89461
2273.89461
2273.89461
2273.89461
2273.89461
2273.89461
2273.89461
2273.89461
2273.89461
2273.89461
2273.89461
2273.89461
2273.89461
2273.89461
2273.89461
2273.89461
2273.89461
2273.89461
2273.89461
2273.89461
2273.89461
2273.89461
2273.89461
2273.89461
2273.89461
2273.89461
2273.89461
2273.89461
2273.89461
2273.89461
2273.89461
2273.89461
2273.89461
2273.89461
2273.89461
2273.89461
2273.89461
2273.89461
2273.89461
2273.89461
2273.89461
2273.89461
2273.89461
2273.89461
2273.89461
2273.89461
2273.89461
2273.89461
2273.89461
2273.89461
2273.89461
2273.89461
2273.89461
2273.89461
2273.89461
2273.89461
2273.89461
2273.89461
2273.89461
2273.89461
2273.89461
2273.89461
2273.89461
2273.89462
2273.89462
2273.89459
2273.89459
2273.89465
2273.89466
2273.89455
2273.89449
2273.89469
2273.89484
2273.89456
2273.89426
2273.89455
2273.89505
2273.89482
2273.89416
2273.89425
2273.89498
2273.89501
2273.8944
2273.8943
2273.89468
2273.89481
2273.89462
2273.8945
2273.89458
2273.89466
2273.89463
2273.89459
2273.8946
2273.89462
2273.89461
2273.89461
2273.89461
2273.89461
2273.89461
2273.89462
2273.89463
2273.89461
2273.89457
2273.89462
2273.89487
2273.8948
2273.89401
2273.89394
2273.89688
2273.89799
2273.89084
2273.88475
2273.90138
2273.93176
2273.90485
2273.80078
2273.81674
2274.16541
2274.20648
2273.45294
2273.1021
2274.4607
2276.21164
2274.70933
2268.98887
2269.1912
2283.68555
2290.20544
2269.21568
2236.95585
2247.42392
2375.82751
2395.89611
2147.15649
1956.55788
2394.83488
3082.07291
2581.95071
628.095301
1250.1404
4597.59811
3831.99951
-2738.19387
-2697.33715
8744.55457
9077.28657
-2498.94589
-4073.91088
7139.14138
9695.01053
1770.39296
-4567.18265
-3776.15594
8562.54421
9788.95785
2084.90139
-3273.30728
-4281.64778
-2581.64707
8753.15337
9321.50789
-2041.94766
-4192.70862
5288.5083
10029.2694
8812.08868
-2849.11216
-3623.77171
7229.76946
9315.97884
-477.675857
-6230.50862
-4331.76439
7167.47323
10333.3224
8930.87813
-6.0327332
-4608.57443
-5852.79288
-3018.38719
7793.24545
10263.2949
9372.07046
-2309.88597
-2951.59228
7832.65565
8487.37432
-2717.71862
-3175.59696
8091.6921
9231.21394
-674.809822
-5608.35382
-2157.85041
8590.93285
8367.86245
-2775.30407
-2858.22522
8205.68677
9148.83025
-937.651005
-5229.97298
-689.051325
8899.08098
9634.77422
1318.53064
-4585.32431
)
;

boundaryField
{
    closed
    {
        type            lookUpEnthalpy;
        h0              nonuniform List<scalar> 0();
        value           nonuniform List<scalar> 0();
    }
    open
    {
        type            zeroGradient;
    }
    sides
    {
        type            empty;
    }
    procBoundary3to2
    {
        type            processor;
        value           uniform 6399.77183;
    }
    procBoundary3to4
    {
        type            processor;
        value           uniform -3003.90854;
    }
}


// ************************************************************************* //
