/*--------------------------------*- C++ -*----------------------------------*\
| =========                 |                                                 |
| \\      /  F ield         | OpenFOAM: The Open Source CFD Toolbox           |
|  \\    /   O peration     | Version:  2306                                  |
|   \\  /    A nd           | Website:  www.openfoam.com                      |
|    \\/     M anipulation  |                                                 |
\*---------------------------------------------------------------------------*/
FoamFile
{
    version     2.0;
    format      ascii;
    arch        "LSB;label=32;scalar=64";
    class       surfaceScalarField;
    location    "0.0004";
    object      phi;
}
// * * * * * * * * * * * * * * * * * * * * * * * * * * * * * * * * * * * * * //

dimensions      [1 0 -1 0 0 0 0];

oriented        oriented;

internalField   nonuniform List<scalar> 
530
(
6.98160639e-06
6.91734454e-06
6.45022132e-06
6.42084532e-06
6.72037152e-06
6.743837e-06
6.74828558e-06
6.74288214e-06
6.75792646e-06
6.78073077e-06
6.54746855e-06
6.59811268e-06
6.66351632e-06
6.6744707e-06
6.63916992e-06
7.03365364e-06
7.07891445e-06
6.93978516e-06
6.93021438e-06
7.32209592e-06
7.33073425e-06
7.32981541e-06
7.31953549e-06
7.30648412e-06
7.03763349e-06
7.01706954e-06
7.50803295e-06
7.68311994e-06
7.60640307e-06
7.2073867e-06
7.15818057e-06
7.37256975e-06
7.40942514e-06
7.44580802e-06
7.40751932e-06
8.06592543e-06
8.0378796e-06
8.045287e-06
7.94151483e-06
7.92949843e-06
7.94155162e-06
7.92523471e-06
7.89583575e-06
7.890684e-06
7.89560812e-06
7.89226711e-06
7.88827089e-06
7.89092725e-06
7.89768654e-06
7.90544994e-06
7.91522893e-06
7.92808282e-06
7.9438615e-06
7.96254846e-06
7.98417135e-06
8.00888181e-06
8.03663403e-06
8.06724474e-06
8.10048384e-06
8.13613266e-06
8.17397158e-06
8.21379877e-06
8.25542879e-06
8.29868622e-06
8.34339151e-06
8.38935441e-06
8.43637154e-06
8.48422735e-06
8.53269772e-06
8.58155418e-06
8.63056793e-06
8.67951297e-06
8.72816825e-06
8.77631911e-06
8.82375829e-06
8.87028699e-06
8.9157162e-06
8.95986825e-06
9.00257893e-06
9.04369972e-06
9.08310019e-06
9.12067034e-06
9.15632261e-06
9.18999338e-06
9.22164372e-06
9.25125928e-06
9.27884897e-06
9.30444256e-06
9.32808697e-06
9.3498416e-06
9.36977264e-06
9.38794706e-06
9.40442649e-06
9.41926171e-06
9.43248832e-06
9.44412387e-06
9.45416719e-06
9.46259977e-06
9.46938944e-06
9.47449597e-06
9.47787817e-06
9.47950197e-06
9.47934855e-06
9.477422e-06
9.47375551e-06
9.46841569e-06
9.46150439e-06
9.45315798e-06
9.44354401e-06
9.43285554e-06
9.42130389e-06
9.40911018e-06
9.3964968e-06
9.38367935e-06
9.37085988e-06
9.35822198e-06
9.34592788e-06
9.3341178e-06
9.32291105e-06
9.31240879e-06
9.30269752e-06
9.29385296e-06
9.2859435e-06
9.27903285e-06
9.2731814e-06
9.2684463e-06
9.26488024e-06
9.26252911e-06
9.261429e-06
9.261603e-06
9.26305812e-06
9.26578298e-06
9.26974643e-06
9.27489741e-06
9.28116611e-06
9.28846639e-06
9.29669927e-06
9.3057572e-06
9.31552882e-06
9.3259039e-06
9.33677794e-06
9.34805631e-06
9.35965759e-06
9.37151595e-06
9.38358242e-06
9.39582521e-06
9.40822895e-06
9.42079304e-06
9.43352938e-06
9.44645952e-06
9.45961154e-06
9.47301688e-06
9.48670721e-06
9.50071165e-06
9.51505432e-06
9.52975244e-06
9.54481495e-06
9.56024166e-06
9.57602304e-06
9.59214042e-06
9.60856668e-06
9.62526726e-06
9.64220151e-06
9.65932414e-06
9.67658684e-06
9.69393986e-06
9.71133361e-06
9.72872003e-06
9.74605392e-06
9.763294e-06
9.78040374e-06
9.79735192e-06
9.81411301e-06
9.83066715e-06
9.84699992e-06
9.86310186e-06
9.87896768e-06
9.89459523e-06
9.90998431e-06
9.92513517e-06
9.94004702e-06
9.95471625e-06
9.96913474e-06
9.98328808e-06
9.99715389e-06
1.00107002e-05
1.00238843e-05
1.00366511e-05
1.00489328e-05
1.00606482e-05
1.00717028e-05
1.00819888e-05
1.00913863e-05
1.00997644e-05
1.01069829e-05
1.01128947e-05
1.01173479e-05
1.01201893e-05
1.01212671e-05
1.01204343e-05
1.01175525e-05
1.0112495e-05
1.01051508e-05
1.00954272e-05
1.00832531e-05
1.00685819e-05
1.00513931e-05
1.00316947e-05
1.00095237e-05
9.98494732e-06
9.9580626e-06
9.92899602e-06
9.89790235e-06
9.86496313e-06
9.83038453e-06
9.79439504e-06
9.75724267e-06
9.71919212e-06
9.68052159e-06
9.64151976e-06
9.60248252e-06
9.56370996e-06
9.52550334e-06
9.48816218e-06
9.45198161e-06
9.41724979e-06
9.38424551e-06
9.35323604e-06
9.32447511e-06
9.29820097e-06
9.27463479e-06
9.253979e-06
9.23641598e-06
9.2221067e-06
9.21118968e-06
9.20377996e-06
9.1999683e-06
9.19982055e-06
9.20337709e-06
9.21065258e-06
9.22163571e-06
9.23628932e-06
9.2545505e-06
9.27633098e-06
9.3015176e-06
9.32997301e-06
9.36153642e-06
9.39602451e-06
9.4332325e-06
9.47293526e-06
9.51488858e-06
9.55883049e-06
9.60448276e-06
9.65155242e-06
9.69973342e-06
9.74870848e-06
9.79815092e-06
9.84772682e-06
9.89709712e-06
9.94592003e-06
9.99385353e-06
1.0040558e-05
1.00856989e-05
1.012895e-05
1.01699959e-05
1.02085355e-05
1.02442847e-05
1.02769798e-05
1.03063804e-05
1.03322721e-05
1.03544695e-05
1.03728186e-05
1.03871987e-05
1.03975248e-05
1.04037489e-05
1.04058608e-05
1.04038892e-05
1.03979017e-05
1.03880045e-05
1.03743413e-05
1.03570926e-05
1.03364731e-05
1.03127303e-05
1.02861409e-05
1.02570084e-05
1.0225659e-05
1.01924384e-05
1.01577071e-05
1.01218368e-05
1.00852053e-05
1.00481925e-05
1.00111758e-05
9.9745256e-06
9.93860089e-06
9.90374538e-06
9.87028346e-06
9.83851669e-06
9.80872058e-06
9.78114182e-06
9.75599599e-06
9.7334657e-06
9.71369932e-06
9.69681028e-06
9.68287686e-06
9.67194263e-06
9.66401745e-06
9.65907895e-06
9.65707467e-06
9.65792449e-06
9.66152368e-06
9.66774621e-06
9.67644834e-06
9.68747247e-06
9.70065105e-06
9.71581054e-06
9.7327752e-06
9.75137072e-06
9.77142756e-06
9.79278377e-06
9.81528743e-06
9.83879839e-06
9.86318944e-06
9.88834678e-06
9.91416983e-06
9.94057036e-06
9.96747102e-06
9.99480338e-06
1.00225055e-05
1.00505195e-05
1.00787882e-05
1.01072532e-05
1.01358516e-05
1.01645144e-05
1.01931644e-05
1.02217151e-05
1.02500704e-05
1.02781245e-05
1.03057631e-05
1.03328641e-05
1.03593002e-05
1.03849403e-05
1.04096527e-05
1.04333069e-05
1.0455776e-05
1.0476939e-05
1.04966818e-05
1.05148989e-05
1.05314935e-05
1.05463774e-05
1.05594701e-05
1.05706977e-05
1.05799903e-05
1.05872798e-05
1.05924971e-05
1.05955686e-05
1.05964128e-05
1.05949369e-05
1.05910335e-05
1.05845778e-05
1.05754245e-05
1.05634065e-05
1.05483332e-05
1.05299911e-05
1.05081443e-05
1.04825374e-05
1.04528997e-05
1.04189506e-05
1.03804073e-05
1.03369935e-05
1.02884503e-05
1.02345481e-05
1.01750985e-05
1.0109968e-05
1.00390899e-05
9.96247597e-06
9.88022643e-06
9.792537e-06
9.69970348e-06
9.60212279e-06
9.50029056e-06
9.39479531e-06
9.28630943e-06
9.17557756e-06
9.0634029e-06
8.95063222e-06
8.83814031e-06
8.72681449e-06
8.61753982e-06
8.51118546e-06
8.40859227e-06
8.31056207e-06
8.21784813e-06
8.13114723e-06
8.05109272e-06
7.97824859e-06
7.91310419e-06
7.85606958e-06
7.80747106e-06
7.767547e-06
7.73644405e-06
7.71421362e-06
7.70080906e-06
7.69608397e-06
7.69979237e-06
7.71159117e-06
7.73104571e-06
7.75763923e-06
7.79078632e-06
7.82985067e-06
7.87416631e-06
7.92306119e-06
7.97588143e-06
8.03201348e-06
8.09090157e-06
8.15205752e-06
8.21506078e-06
8.27954743e-06
8.34518865e-06
8.41166114e-06
8.47861381e-06
8.54563691e-06
8.61224001e-06
8.67784501e-06
8.74179799e-06
8.80340039e-06
8.86195581e-06
8.91682473e-06
8.96747681e-06
9.01352986e-06
9.05476651e-06
9.09112483e-06
9.122665e-06
9.14952034e-06
9.17184592e-06
9.18977788e-06
9.2034152e-06
9.21282986e-06
9.21810265e-06
9.2193686e-06
9.21686039e-06
9.21094968e-06
9.20216651e-06
9.19115079e-06
9.17862524e-06
9.16530167e-06
9.15189769e-06
9.13916798e-06
9.12764147e-06
9.11729079e-06
9.10802597e-06
9.09897146e-06
9.08933345e-06
9.07692347e-06
9.05710667e-06
9.02689351e-06
8.98932881e-06
8.94499501e-06
8.89623519e-06
8.83325252e-06
8.75447904e-06
8.70008522e-06
8.68012487e-06
8.6215037e-06
8.52905567e-06
8.46859052e-06
8.5727362e-06
8.59742845e-06
8.17049772e-06
8.09927201e-06
8.14066353e-06
8.54374084e-06
8.46535005e-06
8.01841257e-06
7.96224577e-06
8.04153561e-06
8.05587804e-06
7.64751951e-06
7.57898335e-06
7.57015996e-06
7.67558896e-06
7.8147817e-06
7.80219525e-06
7.35905367e-06
7.30352643e-06
7.31546515e-06
7.2857443e-06
7.25181188e-06
6.80178804e-06
6.79291132e-06
7.17955989e-06
7.36517365e-06
7.29531143e-06
7.06656705e-06
7.12919566e-06
7.27387043e-06
7.41827946e-06
7.16497128e-06
6.99826822e-06
7.06888415e-06
7.45700338e-06
7.60982728e-06
7.8299503e-06
7.95365943e-06
7.63959637e-06
7.6091513e-06
7.68996175e-06
8.00695034e-06
8.26639672e-06
8.20808275e-06
7.98380581e-06
8.22902702e-06
8.7068942e-06
8.68929644e-06
8.63723315e-06
8.83805623e-06
9.12901866e-06
9.3586716e-06
9.58369286e-06
9.64898971e-06
9.92245548e-06
1.05374487e-05
1.03193667e-05
9.94899079e-06
9.89203027e-06
9.84165495e-06
9.72848047e-06
9.51501397e-06
9.30865482e-06
9.18174697e-06
9.14121104e-06
)
;

boundaryField
{
    closed
    {
        type            calculated;
        value           nonuniform List<scalar> 0();
    }
    open
    {
        type            calculated;
        value           nonuniform List<scalar> 0();
    }
    sides
    {
        type            empty;
        value           nonuniform List<scalar> 0();
    }
    procBoundary3to2
    {
        type            processor;
        value           uniform -6.89546393e-06;
    }
    procBoundary3to4
    {
        type            processor;
        value           uniform 8.95735169e-06;
    }
}


// ************************************************************************* //
