/*--------------------------------*- C++ -*----------------------------------*\
| =========                 |                                                 |
| \\      /  F ield         | OpenFOAM: The Open Source CFD Toolbox           |
|  \\    /   O peration     | Version:  2306                                  |
|   \\  /    A nd           | Website:  www.openfoam.com                      |
|    \\/     M anipulation  |                                                 |
\*---------------------------------------------------------------------------*/
FoamFile
{
    version     2.0;
    format      ascii;
    arch        "LSB;label=32;scalar=64";
    class       volScalarField;
    location    "0.00118";
    object      prefDZ_H;
}
// * * * * * * * * * * * * * * * * * * * * * * * * * * * * * * * * * * * * * //

dimensions      [1 -1 -1 0 0 0 0];

internalField   nonuniform List<scalar> 
531
(
0.000106591593
0.000105356531
0.000108158327
0.00011013494
0.000108870858
0.000106959309
0.000106080092
0.000107840457
0.000110108275
0.000107848763
0.000106912749
0.00010998585
0.000110104431
0.000108877682
0.000106285984
0.000106265331
0.000109983698
0.000110190908
0.000107986231
0.000107963389
0.000105804683
0.000105866166
0.000110039181
0.000110299579
0.000107993575
0.000107156818
0.000106222604
0.000107757667
0.00011006173
0.000108551988
0.00010609043
0.000107349125
0.000110068479
0.000110326766
0.000110228361
0.00011029669
0.000107638114
0.000105566575
0.00010774542
0.000110174256
0.000109556362
0.000107588226
0.000106292121
0.000107802989
0.000110063013
0.000110319267
0.000108118821
0.000105886845
0.000105658494
0.000108403018
0.000110258581
0.000107927871
0.000106671358
0.000110032472
0.000110332091
0.000107880881
0.000106895444
0.000110026709
0.000110392769
0.000108198193
0.000107731016
0.000106587009
0.000107658215
0.000110039066
0.000110413804
0.00010836143
0.000106583323
0.000105701879
0.000107754595
0.000110074983
0.000109044833
0.000105847125
0.000105579691
0.000108524255
0.000110051797
0.000109254555
0.000106215879
0.000106156743
0.000109906146
0.000110289396
0.000108075376
0.0001076208
0.000109986674
0.00011037083
0.00010833116
0.000107779823
0.000106997147
0.000106658698
0.00010771521
0.000110189829
0.00011043176
0.000108234244
0.000106554547
0.000105986707
0.000107781068
0.000110250505
0.000108412495
0.000107831952
0.000105675621
0.000105730686
0.000109423889
0.000110316223
0.000108022633
0.000106929438
0.000110014305
0.000110371254
0.000108020385
0.000107301875
0.000109952921
0.000110337935
0.000108716648
0.000107867119
0.00010736859
0.000105711547
0.000105718181
0.000110078994
0.000110222613
0.000110172172
0.000107826623
0.000107050535
0.000108243725
0.000110202017
0.00011033666
0.000110255563
0.000108122437
0.00010703065
0.000106311186
0.000105464547
0.000107687102
0.000110208795
0.000108492962
0.000106613554
0.000105436899
0.000107491626
0.000110273145
0.000110438349
0.000110422136
0.000107868806
0.000106997779
0.000110025617
0.000110377342
0.000108800867
0.000107776912
0.000107227389
0.000107010455
0.000106446871
0.000107716634
0.000110101197
0.000110455711
0.000108029447
0.000106667584
0.000105912984
0.000107727726
0.000110124729
0.000110170829
0.000110213078
0.000110096122
0.000107853659
0.000106231248
0.000105842495
0.000107845247
0.00011009086
0.000110337737
0.000110246827
0.000110277601
0.000107734541
0.000106520393
0.00010650882
0.00010551577
0.000107389985
0.000109984507
0.000110308438
0.000110173657
0.000110257548
0.000107760685
0.00010661523
0.000106553264
0.000105541695
0.000107505264
0.00011005199
0.000110316286
0.00011017627
0.000108771037
0.000107584325
0.000106231197
0.000105442454
0.000107263502
0.000110173854
0.000110500818
0.000107794313
0.000106789225
0.000107866622
0.000110227052
0.000110423863
0.000107900408
0.000106835037
0.000109990834
0.000110325275
0.000108079269
0.000107098903
0.000109973817
0.00011030868
0.000107967836
0.000107908884
0.000106565813
0.000106175076
0.000107913159
0.000110189327
0.000107791531
0.000106515711
0.000109014222
0.000110231924
0.000107982842
0.000106443479
0.000109919797
0.000110258413
0.000107996468
0.000106423702
0.000106043639
0.000107734205
0.000110063484
0.000110410339
0.000108369262
0.000107879705
0.000106331571
0.000106007041
0.000107714045
0.000110052169
0.000110387989
0.000108608731
0.000106616899
0.000105955747
0.000107976064
0.000110219479
0.000107830189
0.000106924703
0.000110067127
0.000110320012
0.000107920966
0.000107866231
0.000106720306
0.000106141717
0.000107698321
0.000110137175
0.000110293462
0.00011021932
0.000109032933
0.000107857602
0.000106414635
0.000105766359
0.000107674779
0.00011014117
0.000110534617
0.00011035365
0.000107718622
0.000105799729
0.000108443021
0.000110087083
0.000108005656
0.000105659903
0.000105636048
0.000108507189
0.00011018447
0.000107996963
0.000106807547
0.000109868692
0.00010922028
0.000106158911
0.000108196996
0.000109984655
0.000109358841
0.000106338853
0.000106193763
0.000109832332
0.000110056882
0.000108176147
0.000106018917
0.000106019137
0.000109938487
0.000110116296
0.000108108836
0.000106223705
0.000106091607
0.0001084164
0.000110171624
0.000107957889
0.000106595467
0.000109870721
0.000110109159
0.000108536947
0.000106075355
0.000106016823
0.000109480178
0.000110198108
0.00010792164
0.000106190792
0.000105775753
0.000107717752
0.000110138354
0.000110199988
0.000110233089
0.000109347535
0.000107842944
0.000105038451
0.00010517617
0.000109948203
0.000110279465
0.000107558479
0.000106560143
0.000109934982
0.000110311943
0.000107744544
0.000107144877
0.000108891628
0.00011025186
0.000110130995
0.000107967348
0.000105436132
0.000105503698
0.000109941747
0.000107858928
0.000106013119
0.000109985416
0.000110161316
0.000110010422
0.000107998135
0.000105360677
0.000105435892
0.000109993631
0.000107872579
0.000105982131
0.000109986972
0.00011014482
0.000109992247
0.000108062522
0.000105511251
0.000105576288
0.000109998328
0.000107890141
0.000106019718
0.00010998408
0.000110124105
0.000109978938
0.000108127668
0.000105638568
0.000105691147
0.000110025016
0.000107885653
0.000106112778
0.000110015946
0.000110171431
0.000110013246
0.000107929587
0.000105373945
0.000105424604
0.000110061984
0.000110110253
0.000107960964
0.000105746584
0.000105767785
0.000110078293
0.000110112252
0.00010807551
0.000106001723
0.000106010412
0.000110135565
0.000107910747
0.000105955509
0.000110100497
0.000110271055
0.000107522879
0.000106621248
0.000110053355
0.000110340597
0.000107457366
0.00010679563
0.000110042027
0.000110345894
0.000107098469
0.000107089524
0.000110002326
0.000110325574
0.00010999505
0.000107881819
0.000105361692
0.000105457955
0.000110109186
0.00011028533
0.000107967932
0.000107659792
0.000105697581
0.00010576013
0.000110045538
0.000110303917
0.000107168222
0.000106748762
0.000109038624
0.000110300407
0.000110101135
0.000107804132
0.000104950305
0.00010513089
0.000109960246
0.000110207401
0.00010730562
0.000106386351
0.000109910154
0.000110142449
0.000109878629
0.000110099896
0.000108778507
0.00010547685
0.000105462293
0.000110047893
0.000110149736
0.000107122231
0.000105805218
0.000110120479
0.000110070096
0.000107917261
0.000105035531
0.000105116006
0.000109327655
0.000110067878
0.000110036799
0.000106128218
0.000105047475
0.000110060263
0.000109956014
0.000108004677
0.000104873931
0.000104964378
0.000110011879
0.000110056653
0.000110030222
0.000106282508
0.000105034082
0.000110159213
0.00011007433
0.000107778092
0.000106121133
0.000107762573
0.000110065645
0.000110360137
0.000107605364
0.00010568146
0.00011019286
0.000110161319
0.000107489668
0.000106083133
0.000107903381
0.000110079107
0.000110312332
0.000107336913
0.000105424872
0.000110028498
0.000110111428
0.000106774256
0.000106070773
0.000109118398
0.000110049538
0.000110028495
0.000106097732
0.000105153555
0.00011003558
0.00011000458
0.000108313421
0.000105513217
0.000105564085
0.000110077538
0.000110217182
0.000107335878
0.000106773683
0.000110148635
0.000110211315
0.000107896665
0.000107544752
0.000105594695
0.000105599116
0.000110098975
0.00011011187
0.000110091516
0.000107393981
0.000106156198
0.000110026013
0.00011010715
0.000110075512
0.000106211761
0.000105038154
0.000110040719
0.000110108168
0.000106849629
0.000106035215
0.000110078831
0.00011009577
0.000108109934
0.000105531977
0.000105574801
0.000110067197
0.00011023085
0.000107172026
0.000106397727
0.000110016252
0.000110207926
0.000107141246
0.000106601582
0.000109796723
0.000110125955
0.000109602893
0.000106130893
0.000105385089
0.000110065767
0.000110018965
0.000107921766
0.000105234074
0.000105320294
0.000109822212
0.000110068684
0.000109608454
0.000105565035
0.000105165294
0.000109956692
0.000110110506
0.000106938683
0.000106293724
0.000109981362
0.000110129865
0.000108523874
0.000106007732
0.000106008669
0.000110085154
)
;

boundaryField
{
    closed
    {
        type            calculated;
        value           nonuniform List<scalar> 0();
    }
    open
    {
        type            calculated;
        value           nonuniform List<scalar> 0();
    }
    sides
    {
        type            empty;
    }
    procBoundary3to2
    {
        type            processor;
        value           uniform 0.000110277709;
    }
    procBoundary3to4
    {
        type            processor;
        value           uniform 0.000110193611;
    }
}


// ************************************************************************* //
