/*--------------------------------*- C++ -*----------------------------------*\
| =========                 |                                                 |
| \\      /  F ield         | OpenFOAM: The Open Source CFD Toolbox           |
|  \\    /   O peration     | Version:  2306                                  |
|   \\  /    A nd           | Website:  www.openfoam.com                      |
|    \\/     M anipulation  |                                                 |
\*---------------------------------------------------------------------------*/
FoamFile
{
    version     2.0;
    format      ascii;
    arch        "LSB;label=32;scalar=64";
    class       volScalarField;
    location    "0.0015";
    object      prefDh_H2O;
}
// * * * * * * * * * * * * * * * * * * * * * * * * * * * * * * * * * * * * * //

dimensions      [1 1 -3 0 0 0 0];

internalField   nonuniform List<scalar> 
531
(
92.2279106
88.2532706
88.0105233
87.9861946
88.3568632
92.206246
92.2610062
88.4516594
87.9032743
88.5709902
92.2138916
92.2382059
88.3911327
87.8778976
88.5216031
92.2140695
92.2314534
88.317893
87.8585745
88.4910178
92.215937
92.2193864
88.3223386
87.8699736
88.5516282
92.210405
92.2062711
88.4385888
87.8930798
88.613528
92.2108089
92.234263
88.3125423
87.8169466
88.9241439
92.3725523
92.1015973
92.3474279
88.5814989
87.957666
88.0878063
87.9079661
88.3486482
92.2529691
92.2257967
88.3341883
87.8430024
88.3955617
92.2439666
92.2295417
88.2125381
87.8076368
88.2626266
92.2811414
92.1583923
88.1187079
88.114163
92.1960951
92.2060463
88.2640711
88.0003452
89.5187441
92.3090384
92.4062111
87.8128348
87.7228522
92.301812
92.3354811
88.3020205
87.9043682
87.7858417
88.0751699
92.520403
92.1785371
92.5125508
88.2065062
87.6387737
88.0464433
92.3358698
92.2240995
89.5846794
87.9929072
88.4421369
92.2141436
92.1823702
88.4107474
87.9598555
87.9230414
88.1944027
92.2406449
92.1690134
89.3901761
88.0543387
88.0376625
89.379715
92.2931993
92.2011745
87.9901972
87.884952
91.3972526
92.2207724
92.350866
88.8546054
87.9589399
87.9999109
87.9679342
90.6613196
92.2726684
92.3582124
88.1249475
87.7912802
89.3076715
92.3458861
92.2535981
88.1369984
87.7875579
88.7357193
92.3578425
92.1693503
88.211559
88.1152175
92.4096893
92.291501
88.0823378
87.7415448
88.6784259
92.4197014
92.2488609
88.1101827
87.7454011
88.691121
92.4295846
92.2549357
88.1292452
87.7523963
88.7003672
92.4522123
92.2576405
88.1557046
87.7603719
88.6754074
92.4818834
92.2687979
88.1810898
87.7606989
88.6318928
92.5666745
92.2651425
88.0010002
87.7588792
92.87213
92.3926661
89.1346431
87.8589257
88.0456527
92.6094966
92.2183009
88.3572007
88.0825691
92.8671059
92.2872379
88.6863782
87.9887171
88.6246975
92.6408553
92.2624756
88.1815388
87.823509
92.6283595
92.3938032
89.4545237
87.9863434
88.044654
87.9315655
87.9853643
92.9818271
92.2902904
88.7868307
88.0378626
92.0043305
92.4148921
90.3673605
88.017001
87.9669503
92.3170124
92.3303335
89.1114897
88.0678097
91.5368408
92.4493069
89.8781393
87.9774738
87.9420055
92.2703696
92.3464709
89.3564518
88.0644697
91.0878511
92.5118844
90.0152955
87.9811534
87.9288273
91.9153696
92.3891103
89.47674
88.0297977
90.7738814
92.5504852
90.2062525
87.973304
87.9125719
91.8195252
92.4046011
90.1769765
88.0205524
87.9693605
91.9721389
92.3446992
90.1844726
88.150307
87.998125
87.987707
91.8600002
92.3905067
90.1140331
88.0475347
88.0303407
92.5720275
92.349805
89.9432572
88.026347
88.099643
92.9892563
92.3455392
89.8977324
87.970929
88.034883
92.9292548
92.376709
89.8095392
87.9327113
87.9435876
92.579279
92.3552537
89.6476194
88.180227
91.0005749
92.491753
89.6984058
87.9136939
88.0106606
92.974352
92.4202287
89.4872966
87.9270453
88.0888999
92.8353641
92.4165009
89.4922588
87.9668166
88.1847352
92.7044713
92.3982507
89.3244317
87.9798105
88.0063976
87.9456762
88.023016
92.7465065
92.3915701
89.3358223
88.1987679
91.5522337
92.4165757
89.2723946
88.2265579
91.992644
92.4960828
89.1142694
87.844852
88.0914684
92.5820043
92.4856172
88.858279
87.7835026
87.9730071
92.5497125
92.4392182
88.7445942
88.1029846
92.2768599
92.4290837
88.7318741
88.1591806
92.8329623
92.4939228
88.7194415
87.810309
88.1842365
92.4676985
92.4580561
88.6940434
87.8374044
88.220731
92.4494841
92.471302
88.6489681
87.8038167
88.1738945
92.4587141
92.4938826
88.5400311
87.7615391
88.0770869
92.4466244
92.4456683
88.392654
88.1445858
92.8904172
92.5244349
88.4838196
87.7177775
88.0876337
92.4567275
92.449573
88.2982929
88.1291423
92.7416791
92.5296485
88.4304135
87.6823849
88.0425583
92.4588501
92.4346353
88.3162397
88.1095616
92.7066566
92.4663906
88.2375697
88.1480233
92.5924297
92.4947943
88.4696373
87.7246614
88.1418442
92.410185
92.4601754
88.4810551
87.7435291
88.2194514
92.4448945
92.5402687
88.1315561
88.2200138
92.4599833
92.6680717
87.9855011
88.0861882
92.4480018
92.5245669
88.3620361
87.649409
88.8724613
92.5330363
90.5391656
88.0099725
90.1039501
92.4237571
90.5275158
88.057201
88.7418461
92.3867075
92.4903675
87.8922692
87.7484317
91.0494021
92.4736866
89.9647199
88.0600464
88.5350173
92.2992479
92.4041339
88.6501837
87.7730894
88.2215688
92.3823292
92.3990301
88.6837846
87.7930333
88.2312722
92.3765612
92.3955993
88.7428074
87.8174522
88.2485349
92.367983
92.379084
88.804059
87.8217598
88.2184488
92.365241
92.3272786
88.6673826
87.8864662
87.8802275
88.4584469
92.4352536
92.2332408
91.1727255
88.0393526
87.9029
89.421225
92.4401616
92.5089862
87.8269046
87.6829638
92.2488116
92.439274
88.3912821
88.0373058
92.765058
92.4024736
89.2516463
87.7233121
87.8245863
92.6957166
92.3237521
88.268149
87.9723955
92.7488672
92.2749898
88.273114
88.0192234
92.6119961
92.2680605
88.2433244
88.0784674
92.5037831
92.3581566
88.8196935
87.7380352
87.8284177
92.4621736
92.3041417
88.2649285
88.0741779
92.4868366
92.3295791
88.9481115
87.8218773
87.912626
92.399567
92.3662158
89.1315877
87.8108651
87.913217
92.4117956
92.3732236
88.9933707
87.7750868
87.8879183
92.4322736
92.3894169
88.8915249
87.7471733
87.8412193
92.4914338
92.2985734
88.3128233
88.1197762
92.5431161
92.3562611
88.877291
87.7632938
87.9028313
92.6104029
92.2366032
92.3494112
89.2447421
87.9858905
87.8620045
87.9107873
92.5517068
92.4060563
88.8079696
87.7623043
87.8096426
92.5470852
92.3047179
88.3751234
88.1272363
92.6309252
92.3397484
88.7426237
87.8136299
87.8434494
92.5487708
92.3011922
88.374877
88.0768418
92.6856852
92.272424
88.3140249
88.1334026
92.6487367
92.3154002
88.8958817
87.8692413
87.9482074
92.5010685
92.3242203
89.1130329
87.8551186
87.9390846
92.4885156
92.3184826
89.0939439
87.8533044
87.9461693
92.4756127
92.3105164
89.111127
87.8641247
87.9608446
92.4583302
92.3024761
89.1287528
87.8732516
87.9717139
92.4397509
92.2966182
)
;

boundaryField
{
    closed
    {
        type            calculated;
        value           nonuniform List<scalar> 0();
    }
    open
    {
        type            calculated;
        value           nonuniform List<scalar> 0();
    }
    sides
    {
        type            empty;
    }
    procBoundary1to0
    {
        type            processor;
        value           uniform 92.2907236;
    }
    procBoundary1to2
    {
        type            processor;
        value           uniform 89.1280871;
    }
}


// ************************************************************************* //
