/*--------------------------------*- C++ -*----------------------------------*\
| =========                 |                                                 |
| \\      /  F ield         | OpenFOAM: The Open Source CFD Toolbox           |
|  \\    /   O peration     | Version:  2306                                  |
|   \\  /    A nd           | Website:  www.openfoam.com                      |
|    \\/     M anipulation  |                                                 |
\*---------------------------------------------------------------------------*/
FoamFile
{
    version     2.0;
    format      ascii;
    arch        "LSB;label=32;scalar=64";
    class       volScalarField;
    location    "0.00104";
    object      prefDZ_H2O;
}
// * * * * * * * * * * * * * * * * * * * * * * * * * * * * * * * * * * * * * //

dimensions      [1 -1 -1 0 0 0 0];

internalField   nonuniform List<scalar> 
530
(
-7.68830256e-07
-7.36336189e-07
-7.37065622e-07
-7.60117854e-07
-7.75042882e-07
-7.66869321e-07
-7.35686523e-07
-7.36571855e-07
-7.59061337e-07
-7.74705785e-07
-7.70530051e-07
-7.3675863e-07
-7.37513212e-07
-7.59904782e-07
-7.75045384e-07
-7.66494142e-07
-7.35100147e-07
-7.35376145e-07
-7.39904533e-07
-7.7139546e-07
-7.74353658e-07
-7.7575623e-07
-7.75931794e-07
-7.59171019e-07
-7.34490804e-07
-7.35520671e-07
-7.55369337e-07
-7.75218989e-07
-7.70495349e-07
-7.35025398e-07
-7.35243629e-07
-7.38058079e-07
-7.54126805e-07
-7.74524281e-07
-7.71693161e-07
-7.35637007e-07
-7.36300473e-07
-7.58130931e-07
-7.75029278e-07
-7.70970906e-07
-7.3531696e-07
-7.36007549e-07
-7.6247018e-07
-7.74910692e-07
-7.7550943e-07
-7.75710738e-07
-7.63940612e-07
-7.34374951e-07
-7.34605743e-07
-7.37755263e-07
-7.51060083e-07
-7.74651045e-07
-7.79306304e-07
-7.34375799e-07
-7.34467576e-07
-7.36493603e-07
-7.42810628e-07
-7.74680591e-07
-7.75013229e-07
-7.5229728e-07
-7.34850648e-07
-7.38897097e-07
-7.74543377e-07
-7.74814717e-07
-7.47514227e-07
-7.36947066e-07
-7.63747857e-07
-7.75958218e-07
-7.4078979e-07
-7.34090434e-07
-7.3978183e-07
-7.74986291e-07
-7.73973173e-07
-7.52337517e-07
-7.36363079e-07
-7.57923485e-07
-7.77604044e-07
-7.39336175e-07
-7.39943003e-07
-7.74556015e-07
-7.78010983e-07
-7.34541109e-07
-7.33918881e-07
-7.5649377e-07
-7.74968487e-07
-7.6685453e-07
-7.36168557e-07
-7.41205699e-07
-7.7491325e-07
-7.79725439e-07
-7.35082757e-07
-7.34408819e-07
-7.55181426e-07
-7.74854541e-07
-7.6861759e-07
-7.36623173e-07
-7.4253694e-07
-7.74759788e-07
-7.75957601e-07
-7.36741584e-07
-7.39983939e-07
-7.75070489e-07
-7.76341951e-07
-7.35958006e-07
-7.34500891e-07
-7.53414955e-07
-7.7533219e-07
-7.678129e-07
-7.35364864e-07
-7.34991618e-07
-7.61304709e-07
-7.74952299e-07
-7.63309052e-07
-7.35387458e-07
-7.3528609e-07
-7.66537256e-07
-7.7458327e-07
-7.62997877e-07
-7.36783407e-07
-7.39850496e-07
-7.75010719e-07
-7.74288547e-07
-7.38184835e-07
-7.34602395e-07
-7.43804106e-07
-7.75413327e-07
-7.75193798e-07
-7.37531135e-07
-7.34504869e-07
-7.45422393e-07
-7.75428216e-07
-7.75294345e-07
-7.37747999e-07
-7.34619194e-07
-7.45761878e-07
-7.75635274e-07
-7.75997475e-07
-7.37352099e-07
-7.35014906e-07
-7.5114954e-07
-7.7539837e-07
-7.77963438e-07
-7.37837659e-07
-7.38313913e-07
-7.76321495e-07
-7.75217305e-07
-7.39294513e-07
-7.34874872e-07
-7.45641428e-07
-7.76451279e-07
-7.77697264e-07
-7.36431572e-07
-7.34637559e-07
-7.65946858e-07
-7.7528055e-07
-7.57409989e-07
-7.37765657e-07
-7.40847243e-07
-7.76660901e-07
-7.75845024e-07
-7.38190099e-07
-7.34542916e-07
-7.55095199e-07
-7.7640876e-07
-7.63818127e-07
-7.36082284e-07
-7.35566845e-07
-7.77611057e-07
-7.74770495e-07
-7.51000099e-07
-7.37072921e-07
-7.40821013e-07
-7.76980614e-07
-7.74555714e-07
-7.43102867e-07
-7.35101159e-07
-7.43226283e-07
-7.77030168e-07
-7.75778071e-07
-7.4004925e-07
-7.35702852e-07
-7.59663924e-07
-7.75562944e-07
-7.6870786e-07
-7.37673991e-07
-7.36126378e-07
-7.36910592e-07
-7.36815822e-07
-7.4506425e-07
-7.76125966e-07
-7.74766631e-07
-7.4235136e-07
-7.38149085e-07
-7.7663673e-07
-7.74401191e-07
-7.4117894e-07
-7.36528185e-07
-7.75233679e-07
-7.75164933e-07
-7.4526122e-07
-7.34596602e-07
-7.45723086e-07
-7.76668029e-07
-7.5921866e-07
-7.36424011e-07
-7.5039063e-07
-7.75838166e-07
-7.53966761e-07
-7.3686518e-07
-7.56472387e-07
-7.75904396e-07
-7.55001294e-07
-7.33622547e-07
-7.33838465e-07
-7.79692777e-07
-7.74632821e-07
-7.42877921e-07
-7.36634704e-07
-7.70294767e-07
-7.74623783e-07
-7.43190541e-07
-7.36649565e-07
-7.72237775e-07
-7.75208386e-07
-7.4750581e-07
-7.3321376e-07
-7.34835127e-07
-7.77317398e-07
-7.7415528e-07
-7.40512905e-07
-7.36582965e-07
-7.79180341e-07
-7.74194939e-07
-7.40416242e-07
-7.36734678e-07
-7.80074878e-07
-7.74941414e-07
-7.45737433e-07
-7.33492259e-07
-7.35853748e-07
-7.75972666e-07
-7.74364151e-07
-7.40506366e-07
-7.37425419e-07
-7.80101046e-07
-7.75046371e-07
-7.46976934e-07
-7.33968218e-07
-7.36740658e-07
-7.75699702e-07
-7.75158414e-07
-7.45616936e-07
-7.34103633e-07
-7.36929985e-07
-7.75435771e-07
-7.7462393e-07
-7.41055782e-07
-7.37971949e-07
-7.75745916e-07
-7.75039213e-07
-7.50397626e-07
-7.34821321e-07
-7.36393984e-07
-7.78114466e-07
-7.74614492e-07
-7.56553145e-07
-7.36094217e-07
-7.36140732e-07
-7.53230643e-07
-7.74507151e-07
-7.75844381e-07
-7.36198691e-07
-7.34597428e-07
-7.47837607e-07
-7.74763222e-07
-7.75520588e-07
-7.36975918e-07
-7.34537646e-07
-7.46082436e-07
-7.75221082e-07
-7.765255e-07
-7.35296035e-07
-7.3500359e-07
-7.77131978e-07
-7.75531031e-07
-7.44276173e-07
-7.37348025e-07
-7.48729965e-07
-7.74223272e-07
-7.75349188e-07
-7.36494531e-07
-7.34758352e-07
-7.490037e-07
-7.74639266e-07
-7.75449336e-07
-7.36404639e-07
-7.34650341e-07
-7.48673412e-07
-7.74622625e-07
-7.75266444e-07
-7.36439439e-07
-7.3472333e-07
-7.4803449e-07
-7.74541944e-07
-7.74981843e-07
-7.36815828e-07
-7.3478706e-07
-7.47212029e-07
-7.74496805e-07
-7.74658036e-07
-7.371878e-07
-7.34726636e-07
-7.46102843e-07
-7.7456374e-07
-7.74326442e-07
-7.37503685e-07
-7.34569972e-07
-7.44103883e-07
-7.74762149e-07
-7.7418964e-07
-7.38018298e-07
-7.34348005e-07
-7.39669386e-07
-7.7687756e-07
-7.73290914e-07
-7.74521759e-07
-7.36674825e-07
-7.34894712e-07
-7.40143322e-07
-7.76075389e-07
-7.73941769e-07
-7.39950406e-07
-7.34239506e-07
-7.38434798e-07
-7.76800506e-07
-7.74088291e-07
-7.41016477e-07
-7.34660353e-07
-7.38619843e-07
-7.76907113e-07
-7.74028936e-07
-7.41665569e-07
-7.38453821e-07
-7.79323599e-07
-7.74779988e-07
-7.41134276e-07
-7.35242902e-07
-7.38737847e-07
-7.76402273e-07
-7.7493771e-07
-7.42718687e-07
-7.39781717e-07
-7.78808505e-07
-7.75856863e-07
-7.39642545e-07
-7.35640127e-07
-7.36860048e-07
-7.36864251e-07
-7.39699542e-07
-7.75971338e-07
-7.76419533e-07
-7.41256019e-07
-7.3985419e-07
-7.7815685e-07
-7.77189421e-07
-7.38628304e-07
-7.3431844e-07
-7.38928568e-07
-7.76786123e-07
-7.77868188e-07
-7.39007582e-07
-7.38725033e-07
-7.78351844e-07
-7.79317589e-07
-7.38173345e-07
-7.3868021e-07
-7.78172833e-07
-7.80021711e-07
-7.37760413e-07
-7.38695933e-07
-7.7790734e-07
-7.79330913e-07
-7.37601345e-07
-7.38882868e-07
-7.77489939e-07
-7.79103409e-07
-7.37602874e-07
-7.39147103e-07
-7.77132663e-07
-7.79190864e-07
-7.37351943e-07
-7.39042172e-07
-7.76258852e-07
-7.77887872e-07
-7.3571967e-07
-7.33216268e-07
-7.4048102e-07
-7.76486095e-07
-7.79765658e-07
-7.38007301e-07
-7.39532149e-07
-7.76225073e-07
-7.80098685e-07
-7.37474678e-07
-7.39602867e-07
-7.75921459e-07
-7.80174081e-07
-7.37089379e-07
-7.39574647e-07
-7.75417549e-07
-7.77654704e-07
-7.3464783e-07
-7.3325708e-07
-7.41582235e-07
-7.75636237e-07
-7.79840717e-07
-7.37560912e-07
-7.40075911e-07
-7.75276653e-07
-7.78518481e-07
-7.37390395e-07
-7.41144761e-07
-7.75260518e-07
-7.760821e-07
-7.37324408e-07
-7.42269024e-07
-7.75042855e-07
-7.77648699e-07
-7.35581966e-07
-7.34562789e-07
-7.45988045e-07
-7.75005025e-07
-7.74071399e-07
-7.69761238e-07
-7.35044632e-07
-7.35058151e-07
-7.36307073e-07
-7.36350751e-07
-7.50022963e-07
-7.74867093e-07
-7.74311794e-07
-7.61609085e-07
-7.37738007e-07
-7.46866359e-07
-7.74767373e-07
-7.79046608e-07
-7.36438196e-07
-7.35034223e-07
-7.48219074e-07
-7.74744688e-07
-7.7968811e-07
-7.38545751e-07
-7.39272876e-07
-7.77320493e-07
-7.7752257e-07
-7.39481641e-07
-7.352189e-07
-7.47750428e-07
-7.74820153e-07
-7.78557772e-07
-7.37231719e-07
-7.35417129e-07
-7.48991683e-07
-7.74783394e-07
-7.78745186e-07
-7.37249296e-07
-7.35625116e-07
-7.4966406e-07
-7.74901816e-07
-7.79010808e-07
-7.36945251e-07
-7.35495649e-07
-7.49611494e-07
-7.75069436e-07
-7.79214984e-07
-7.36525609e-07
-7.35157549e-07
-7.49111664e-07
-7.75259635e-07
-7.79376441e-07
-7.36172564e-07
-7.35613318e-07
-7.52582568e-07
-7.75976392e-07
-7.60814049e-07
-7.37303515e-07
-7.46337727e-07
-7.7525379e-07
-7.79721141e-07
-7.35600061e-07
-7.35261475e-07
-7.50993033e-07
-7.75805153e-07
-7.63562157e-07
-7.38139156e-07
-7.48474379e-07
-7.75786729e-07
-7.62466431e-07
-7.3751665e-07
-7.4692648e-07
-7.75068091e-07
-7.79799801e-07
-7.35638993e-07
-7.35691163e-07
-7.5031361e-07
-7.75122063e-07
-7.76773944e-07
-7.35730367e-07
-7.36012424e-07
-7.53343989e-07
-7.7496751e-07
-7.75799109e-07
-7.35908923e-07
-7.36216417e-07
-7.54196227e-07
-7.74861358e-07
-7.76505588e-07
-7.358928e-07
-7.36169954e-07
-7.53927289e-07
-7.7476024e-07
-7.77733657e-07
-7.35953017e-07
-7.36177697e-07
-7.536124e-07
-7.74686343e-07
-7.78905934e-07
-7.35758594e-07
-7.35932356e-07
-7.52533895e-07
)
;

boundaryField
{
    closed
    {
        type            calculated;
        value           nonuniform List<scalar> 0();
    }
    open
    {
        type            calculated;
        value           nonuniform List<scalar> 0();
    }
    sides
    {
        type            empty;
    }
    procBoundary2to1
    {
        type            processor;
        value           uniform -7.74948042e-07;
    }
    procBoundary2to3
    {
        type            processor;
        value           uniform -7.74698098e-07;
    }
}


// ************************************************************************* //
