/*--------------------------------*- C++ -*----------------------------------*\
| =========                 |                                                 |
| \\      /  F ield         | OpenFOAM: The Open Source CFD Toolbox           |
|  \\    /   O peration     | Version:  2306                                  |
|   \\  /    A nd           | Website:  www.openfoam.com                      |
|    \\/     M anipulation  |                                                 |
\*---------------------------------------------------------------------------*/
FoamFile
{
    version     2.0;
    format      ascii;
    arch        "LSB;label=32;scalar=64";
    class       volVectorField;
    location    "0.00104";
    object      U;
}
// * * * * * * * * * * * * * * * * * * * * * * * * * * * * * * * * * * * * * //

dimensions      [0 1 -1 0 0 0 0];

internalField   nonuniform List<vector> 
530
(
(-0.846015712 0 0)
(-0.88470866 0 0)
(-0.901051185 0 0)
(-0.921918716 0 0)
(-0.947965348 0 0)
(-1.00414882 0 0)
(-1.04147482 0 0)
(-1.05504217 0 0)
(-1.07543672 0 0)
(-1.1050106 0 0)
(-1.15980406 0 0)
(-1.19717989 0 0)
(-1.21294981 0 0)
(-1.23022204 0 0)
(-1.25441756 0 0)
(-1.30952542 0 0)
(-1.33795532 0 0)
(-1.35418493 0 0)
(-1.39524968 0 0)
(-1.40259267 0 0)
(-1.39883117 0 0)
(-1.41351383 0 0)
(-1.41865135 0 0)
(-1.44579183 0 0)
(-1.45871957 0 0)
(-1.44809687 0 0)
(-1.45018151 0 0)
(-1.46677803 0 0)
(-1.50081841 0 0)
(-1.50477277 0 0)
(-1.49735284 0 0)
(-1.49263199 0 0)
(-1.48447096 0 0)
(-1.4965865 0 0)
(-1.52026116 0 0)
(-1.51180333 0 0)
(-1.49439678 0 0)
(-1.48577841 0 0)
(-1.48625112 0 0)
(-1.50348483 0 0)
(-1.49257349 0 0)
(-1.4731093 0 0)
(-1.45305958 0 0)
(-1.43853559 0 0)
(-1.42320249 0 0)
(-1.40105348 0 0)
(-1.40545401 0 0)
(-1.39429897 0 0)
(-1.37448651 0 0)
(-1.36062269 0 0)
(-1.34948555 0 0)
(-1.38004109 0 0)
(-1.36918347 0 0)
(-1.33571572 0 0)
(-1.3608327 0 0)
(-1.34938405 0 0)
(-1.34727821 0 0)
(-1.36148588 0 0)
(-1.32213712 0 0)
(-1.27673988 0 0)
(-1.24861089 0 0)
(-1.250242 0 0)
(-1.26792912 0 0)
(-1.21900693 0 0)
(-1.15264781 0 0)
(-1.1145278 0 0)
(-1.06148038 0 0)
(-0.99990917 0 0)
(-0.922004822 0 0)
(-0.865241679 0 0)
(-0.841291023 0 0)
(-0.816329384 0 0)
(-0.755169732 0 0)
(-0.689343131 0 0)
(-0.640003445 0 0)
(-0.60001073 0 0)
(-0.528608791 0 0)
(-0.436591636 0 0)
(-0.398611373 0 0)
(-0.368845407 0 0)
(-0.28988908 0 0)
(-0.211827746 0 0)
(-0.185300901 0 0)
(-0.142197505 0 0)
(-0.0962664548 0 0)
(-0.0301859881 0 0)
(0.0226630431 0 0)
(0.056563909 0 0)
(0.0879448387 0 0)
(0.159752254 0 0)
(0.226579751 0 0)
(0.231315063 0 0)
(0.243207826 0 0)
(0.26100901 0 0)
(0.304392975 0 0)
(0.344830486 0 0)
(0.366202792 0 0)
(0.383972933 0 0)
(0.440303467 0 0)
(0.488709653 0 0)
(0.500654866 0 0)
(0.515241134 0 0)
(0.52478936 0 0)
(0.542162758 0 0)
(0.549762963 0 0)
(0.552350396 0 0)
(0.549009364 0 0)
(0.559683427 0 0)
(0.575311392 0 0)
(0.575652323 0 0)
(0.569745283 0 0)
(0.556923217 0 0)
(0.550528642 0 0)
(0.551622415 0 0)
(0.551526116 0 0)
(0.547444716 0 0)
(0.534079723 0 0)
(0.527737165 0 0)
(0.529334714 0 0)
(0.5333734 0 0)
(0.546396781 0 0)
(0.539980675 0 0)
(0.536446367 0 0)
(0.549287412 0 0)
(0.553989554 0 0)
(0.564104738 0 0)
(0.564598733 0 0)
(0.565203504 0 0)
(0.574309321 0 0)
(0.576549632 0 0)
(0.585707999 0 0)
(0.586808206 0 0)
(0.585988276 0 0)
(0.591724193 0 0)
(0.592039783 0 0)
(0.5977687 0 0)
(0.603962053 0 0)
(0.607990692 0 0)
(0.609671657 0 0)
(0.603039575 0 0)
(0.595286548 0 0)
(0.645949986 0 0)
(0.681152747 0 0)
(0.646044485 0 0)
(0.634271327 0 0)
(0.627490772 0 0)
(0.60418786 0 0)
(0.583612497 0 0)
(0.57286075 0 0)
(0.572617069 0 0)
(0.594132855 0 0)
(0.603958534 0 0)
(0.585129421 0 0)
(0.565038209 0 0)
(0.551807268 0 0)
(0.544708588 0 0)
(0.525393363 0 0)
(0.502607986 0 0)
(0.496593981 0 0)
(0.497215981 0 0)
(0.487486805 0 0)
(0.457607281 0 0)
(0.413754908 0 0)
(0.380181989 0 0)
(0.369117585 0 0)
(0.337596334 0 0)
(0.291773413 0 0)
(0.264665 0 0)
(0.250266924 0 0)
(0.219792006 0 0)
(0.179706829 0 0)
(0.139660542 0 0)
(0.118889237 0 0)
(0.104460679 0 0)
(0.0868964576 0 0)
(0.062606423 0 0)
(0.024676044 0 0)
(0.00471502336 0 0)
(0.00439419835 0 0)
(0.00818941098 0 0)
(-0.0109300753 0 0)
(-0.0381627586 0 0)
(-0.0583469443 0 0)
(-0.0504905967 0 0)
(-0.049131241 0 0)
(-0.0690935528 0 0)
(-0.0769646633 0 0)
(-0.0778585527 0 0)
(-0.0872441032 0 0)
(-0.0823607172 0 0)
(-0.0693868284 0 0)
(-0.0464647882 0 0)
(-0.057601206 0 0)
(-0.0258476183 0 0)
(0.020852465 0 0)
(0.0338668932 0 0)
(0.0507435539 0 0)
(0.0835555729 0 0)
(0.122644394 0 0)
(0.13506866 0 0)
(0.155841615 0 0)
(0.180180087 0 0)
(0.195194498 0 0)
(0.230588726 0 0)
(0.258902011 0 0)
(0.281118695 0 0)
(0.291515899 0 0)
(0.314652981 0 0)
(0.338959731 0 0)
(0.36115365 0 0)
(0.369300141 0 0)
(0.38282333 0 0)
(0.401759558 0 0)
(0.403962834 0 0)
(0.438478256 0 0)
(0.471125467 0 0)
(0.470984304 0 0)
(0.489728628 0 0)
(0.520587071 0 0)
(0.536254459 0 0)
(0.538503409 0 0)
(0.556277538 0 0)
(0.591332688 0 0)
(0.611431836 0 0)
(0.611477543 0 0)
(0.628848662 0 0)
(0.639648878 0 0)
(0.66874054 0 0)
(0.684952213 0 0)
(0.683856095 0 0)
(0.674904463 0 0)
(0.721842134 0 0)
(0.750068224 0 0)
(0.739527743 0 0)
(0.732516572 0 0)
(0.778350476 0 0)
(0.809540704 0 0)
(0.787098856 0 0)
(0.80030052 0 0)
(0.80784494 0 0)
(0.827798531 0 0)
(0.829847392 0 0)
(0.818522645 0 0)
(0.802178128 0 0)
(0.844414389 0 0)
(0.869143418 0 0)
(0.843147297 0 0)
(0.846647684 0 0)
(0.847092161 0 0)
(0.854820338 0 0)
(0.847960864 0 0)
(0.824557093 0 0)
(0.817326545 0 0)
(0.815403707 0 0)
(0.813439637 0 0)
(0.79829783 0 0)
(0.772964345 0 0)
(0.746756106 0 0)
(0.760389485 0 0)
(0.764492906 0 0)
(0.730333631 0 0)
(0.715704962 0 0)
(0.689722001 0 0)
(0.699238538 0 0)
(0.69474191 0 0)
(0.662155608 0 0)
(0.651696883 0 0)
(0.652472041 0 0)
(0.638308128 0 0)
(0.620200646 0 0)
(0.601952595 0 0)
(0.590442147 0 0)
(0.597307613 0 0)
(0.585445798 0 0)
(0.575261731 0 0)
(0.558242945 0 0)
(0.545285575 0 0)
(0.546716899 0 0)
(0.536351604 0 0)
(0.521984558 0 0)
(0.515429847 0 0)
(0.507067549 0 0)
(0.48933988 0 0)
(0.495911911 0 0)
(0.48751099 0 0)
(0.458849368 0 0)
(0.443042143 0 0)
(0.43324847 0 0)
(0.434168108 0 0)
(0.440303313 0 0)
(0.43893526 0 0)
(0.444036241 0 0)
(0.444913058 0 0)
(0.453443392 0 0)
(0.465196906 0 0)
(0.47604963 0 0)
(0.501263001 0 0)
(0.513467322 0 0)
(0.535416694 0 0)
(0.56083707 0 0)
(0.584029268 0 0)
(0.623964105 0 0)
(0.649764761 0 0)
(0.688352301 0 0)
(0.725345118 0 0)
(0.75939667 0 0)
(0.816485708 0 0)
(0.857254914 0 0)
(0.914091128 0 0)
(0.962731348 0 0)
(1.00843495 0 0)
(1.0830084 0 0)
(1.13933459 0 0)
(1.21671914 0 0)
(1.27474332 0 0)
(1.32954218 0 0)
(1.41873368 0 0)
(1.48353931 0 0)
(1.56936683 0 0)
(1.61776633 0 0)
(1.66324669 0 0)
(1.73392061 0 0)
(1.78363291 0 0)
(1.83973747 0 0)
(1.83207983 0 0)
(1.85242784 0 0)
(1.84792775 0 0)
(1.77785708 0 0)
(1.69548254 0 0)
(1.62068091 0 0)
(1.47504525 0 0)
(1.26895547 0 0)
(1.07429375 0 0)
(0.857853255 0 0)
(0.637670485 0 0)
(0.41306918 0 0)
(0.181767599 0 0)
(-0.0457121795 0 0)
(-0.283563981 0 0)
(-0.500132874 0 0)
(-0.723144143 0 0)
(-0.90896285 0 0)
(-1.09954445 0 0)
(-1.29614471 0 0)
(-1.49928408 0 0)
(-1.6613711 0 0)
(-1.79616933 0 0)
(-1.94472196 0 0)
(-2.10145199 0 0)
(-2.25717309 0 0)
(-2.31701224 0 0)
(-2.42417893 0 0)
(-2.53476038 0 0)
(-2.61287509 0 0)
(-2.59687519 0 0)
(-2.55139309 0 0)
(-2.5524284 0 0)
(-2.52107798 0 0)
(-2.51569885 0 0)
(-2.57070062 0 0)
(-2.54448494 0 0)
(-2.41107702 0 0)
(-2.35788902 0 0)
(-2.3087534 0 0)
(-2.25172226 0 0)
(-2.23419088 0 0)
(-2.21228001 0 0)
(-2.12383315 0 0)
(-2.05509155 0 0)
(-2.00190313 0 0)
(-1.92283174 0 0)
(-1.84891516 0 0)
(-1.77103389 0 0)
(-1.72930598 0 0)
(-1.67396559 0 0)
(-1.60189816 0 0)
(-1.53540705 0 0)
(-1.4808479 0 0)
(-1.42046347 0 0)
(-1.35945019 0 0)
(-1.30498955 0 0)
(-1.26345774 0 0)
(-1.22651864 0 0)
(-1.18798003 0 0)
(-1.14691181 0 0)
(-1.10462085 0 0)
(-1.06825053 0 0)
(-1.03743687 0 0)
(-0.996657097 0 0)
(-0.941610711 0 0)
(-0.895571768 0 0)
(-0.861599988 0 0)
(-0.81709381 0 0)
(-0.753440099 0 0)
(-0.712090709 0 0)
(-0.685507537 0 0)
(-0.654957032 0 0)
(-0.619820648 0 0)
(-0.560288286 0 0)
(-0.515165926 0 0)
(-0.498745958 0 0)
(-0.468868108 0 0)
(-0.409497362 0 0)
(-0.370224788 0 0)
(-0.36187301 0 0)
(-0.34006435 0 0)
(-0.281977024 0 0)
(-0.244570204 0 0)
(-0.238829017 0 0)
(-0.220322415 0 0)
(-0.171148852 0 0)
(-0.142407288 0 0)
(-0.128774081 0 0)
(-0.0989827381 0 0)
(-0.0923200894 0 0)
(-0.0137300154 0 0)
(0.029770389 0 0)
(0.0353444413 0 0)
(0.0790831674 0 0)
(0.160650375 0 0)
(0.233568427 0 0)
(0.249499127 0 0)
(0.294068462 0 0)
(0.368557612 0 0)
(0.427305725 0 0)
(0.442494309 0 0)
(0.472103451 0 0)
(0.508166216 0 0)
(0.53133013 0 0)
(0.537929716 0 0)
(0.545589025 0 0)
(0.55261906 0 0)
(0.535556481 0 0)
(0.549526144 0 0)
(0.548647887 0 0)
(0.551143189 0 0)
(0.536153862 0 0)
(0.520490115 0 0)
(0.50603661 0 0)
(0.498447826 0 0)
(0.479780635 0 0)
(0.466256108 0 0)
(0.45340475 0 0)
(0.434622038 0 0)
(0.411106425 0 0)
(0.423951149 0 0)
(0.434537324 0 0)
(0.392684398 0 0)
(0.379233351 0 0)
(0.344157114 0 0)
(0.380579347 0 0)
(0.41273703 0 0)
(0.329616034 0 0)
(0.315711298 0 0)
(0.327622551 0 0)
(0.303806239 0 0)
(0.268696601 0 0)
(0.251301484 0 0)
(0.224290117 0 0)
(0.224490468 0 0)
(0.223349626 0 0)
(0.17962436 0 0)
(0.15416268 0 0)
(0.121162509 0 0)
(0.121626849 0 0)
(0.123027468 0 0)
(0.0785737717 0 0)
(0.0500573359 0 0)
(0.0207201332 0 0)
(0.0211921257 0 0)
(0.017528764 0 0)
(-0.0239899791 0 0)
(-0.0510915649 0 0)
(-0.0760758788 0 0)
(-0.0827846291 0 0)
(-0.0983666716 0 0)
(-0.136875503 0 0)
(-0.165818166 0 0)
(-0.194229081 0 0)
(-0.205283656 0 0)
(-0.227050332 0 0)
(-0.266588818 0 0)
(-0.294184572 0 0)
(-0.312431859 0 0)
(-0.351549116 0 0)
(-0.378119924 0 0)
(-0.406356549 0 0)
(-0.428190891 0 0)
(-0.434572756 0 0)
(-0.454608676 0 0)
(-0.490969168 0 0)
(-0.517071638 0 0)
(-0.538664624 0 0)
(-0.57755644 0 0)
(-0.605841326 0 0)
(-0.635443518 0 0)
(-0.653775759 0 0)
(-0.690769284 0 0)
(-0.71882851 0 0)
(-0.749228579 0 0)
(-0.779553137 0 0)
(-0.78793565 0 0)
(-0.806111304 0 0)
(-0.842727352 0 0)
(-0.87337635 0 0)
(-0.908027603 0 0)
(-0.945697744 0 0)
(-0.965683957 0 0)
(-0.980569433 0 0)
(-1.01145615 0 0)
(-1.04899603 0 0)
(-1.09400485 0 0)
(-1.11813043 0 0)
(-1.13227943 0 0)
(-1.16219526 0 0)
(-1.20004825 0 0)
(-1.24443151 0 0)
(-1.26173274 0 0)
(-1.26701685 0 0)
(-1.28636857 0 0)
(-1.31391253 0 0)
(-1.34419837 0 0)
(-1.34314897 0 0)
(-1.33247844 0 0)
(-1.33394867 0 0)
(-1.34326451 0 0)
(-1.35090391 0 0)
(-1.32515892 0 0)
(-1.29446646 0 0)
(-1.27748955 0 0)
)
;

boundaryField
{
    closed
    {
        type            noSlip;
    }
    open
    {
        type            inletOutlet;
        inletValue      nonuniform List<vector> 0();
        value           nonuniform List<vector> 0();
    }
    sides
    {
        type            empty;
    }
    procBoundary2to1
    {
        type            processor;
        value           uniform (-0.791762556 0 0);
    }
    procBoundary2to3
    {
        type            processor;
        value           uniform (-1.27085534 0 0);
    }
}


// ************************************************************************* //
