/*--------------------------------*- C++ -*----------------------------------*\
| =========                 |                                                 |
| \\      /  F ield         | OpenFOAM: The Open Source CFD Toolbox           |
|  \\    /   O peration     | Version:  2306                                  |
|   \\  /    A nd           | Website:  www.openfoam.com                      |
|    \\/     M anipulation  |                                                 |
\*---------------------------------------------------------------------------*/
FoamFile
{
    version     2.0;
    format      ascii;
    arch        "LSB;label=32;scalar=64";
    class       volScalarField;
    location    "0.00104";
    object      Z;
}
// * * * * * * * * * * * * * * * * * * * * * * * * * * * * * * * * * * * * * //

dimensions      [0 0 0 0 0 0 0];

internalField   nonuniform List<scalar> 
530
(
0.0142609186
0.0147845719
0.0147630753
0.0143581469
0.0140873771
0.0142813166
0.014800034
0.0147736221
0.0143716444
0.0140828087
0.0142436514
0.0147703559
0.0147523874
0.0143608382
0.0140884636
0.0142853427
0.0148139311
0.0148233922
0.0146709849
0.0142296902
0.0140785397
0.0140982766
0.0140983135
0.0143667399
0.0148320108
0.0148078209
0.0144221857
0.0140916657
0.0142448793
0.0148192748
0.0148237481
0.0147240465
0.0144405406
0.0140804811
0.0142336894
0.0147989864
0.0147952161
0.0143843011
0.0140893525
0.0142406242
0.014812568
0.0148014196
0.0143292263
0.0140879241
0.0140938729
0.0140969647
0.0143127339
0.0148395521
0.014838273
0.0147455148
0.0144890975
0.0140845175
0.0141633273
0.0148482217
0.0148505306
0.0147906329
0.0146250518
0.0140781232
0.0140895978
0.0144570644
0.0148266772
0.014688039
0.0140744771
0.0140844884
0.0145323473
0.0147677796
0.0143144887
0.0140980682
0.0146554568
0.0148566802
0.0146715749
0.0140809053
0.0140737683
0.0144594745
0.0147911579
0.0143845268
0.014110864
0.0146898996
0.0147097474
0.0140798945
0.0141170364
0.0148181581
0.0148648769
0.0144032807
0.0140884826
0.0142807851
0.0147856615
0.0146638089
0.0140858545
0.0141413724
0.0148051424
0.014849456
0.0144209155
0.0140869945
0.0142623986
0.0147701362
0.0146332625
0.0140843526
0.0141902045
0.014762857
0.014696143
0.0140869003
0.014095573
0.0147769543
0.0148497497
0.0144457072
0.0140940735
0.0142701554
0.0148114688
0.0148220293
0.0143428383
0.0140878114
0.0143193641
0.014814791
0.0148135571
0.0142834537
0.0140830391
0.0143229476
0.0147706098
0.0146833724
0.0140838993
0.0140731637
0.014712396
0.0148365117
0.0146037983
0.0140915314
0.0140813146
0.0147363432
0.0148443677
0.0145756555
0.0140923957
0.0140830817
0.0147289905
0.014842824
0.0145695967
0.0140953146
0.0140915289
0.0147435712
0.0148341892
0.0144803893
0.014094217
0.0141705616
0.0147462738
0.0147472961
0.0140998515
0.0140844938
0.0146814613
0.0148380774
0.0145700644
0.0141071852
0.0141145823
0.0147835459
0.0148456812
0.0142907116
0.0140912822
0.0143926129
0.0147531724
0.0146669311
0.0141066673
0.0140900014
0.0147032359
0.0148462212
0.0144192376
0.0141071998
0.0143134107
0.0148091783
0.0148090336
0.0141761938
0.0140827296
0.0144852045
0.0147692636
0.0146607075
0.0141115587
0.0140746686
0.0146075326
0.0148253987
0.01461105
0.0141154168
0.0140895716
0.0146714599
0.0148141798
0.0143617861
0.0140970077
0.0142588738
0.0147411359
0.0147950594
0.0147657591
0.0147782631
0.0145822163
0.0141039324
0.0140774316
0.0146328419
0.0147347901
0.0141824698
0.014079057
0.014663312
0.014776499
0.0142008135
0.0140867007
0.0145744102
0.0148372689
0.0145597219
0.0141067831
0.014367638
0.0147825176
0.0144851222
0.0140965758
0.0144369109
0.0147717369
0.0144012391
0.0140992992
0.0144237753
0.0148782704
0.0148476601
0.0141402098
0.0140793448
0.0146359202
0.0147695046
0.0142457555
0.0140806498
0.0146232603
0.0147751399
0.0142273199
0.0140903715
0.0145403991
0.0148839193
0.0148150705
0.0141107135
0.0140730403
0.0146882452
0.0147664523
0.0141621879
0.0140752158
0.0146925397
0.0147697689
0.0141441474
0.0140870096
0.0145733722
0.0148692221
0.0147857018
0.014094484
0.0140764953
0.0146827623
0.0147499562
0.0141545625
0.0140885889
0.0145516797
0.0148545689
0.0147648428
0.0140889633
0.0140885175
0.0145700889
0.0148508211
0.014752159
0.0140876307
0.0140797479
0.0146669915
0.0147349793
0.0141924417
0.0140892044
0.0144928125
0.0148426764
0.0147718839
0.0141205118
0.0140820768
0.0144036406
0.0147852645
0.0147854438
0.0144499567
0.0140800907
0.0140906946
0.0147777368
0.0148371355
0.0145326023
0.0140835685
0.0140885608
0.0147581178
0.014838016
0.0145630133
0.0140898343
0.0140995302
0.0148224223
0.0148185473
0.0141060028
0.0140938229
0.0145997786
0.014760325
0.0145185731
0.0140763331
0.014086094
0.014769009
0.0148268957
0.0145127102
0.0140816068
0.0140873606
0.01477552
0.0148293396
0.0145190735
0.0140817536
0.0140859682
0.0147742174
0.0148262084
0.0145295075
0.0140808643
0.0140828141
0.0147613299
0.0148225624
0.0145424597
0.0140803552
0.0140788199
0.0147471373
0.0148218734
0.0145602155
0.0140813239
0.0140744879
0.0147347036
0.0148237286
0.0145963157
0.0140839333
0.014074534
0.0147143727
0.0148434888
0.0146817812
0.0141156898
0.0140662352
0.0142013491
0.0147468607
0.0148345349
0.0146713928
0.0141028682
0.0140700535
0.0146669026
0.014837661
0.0147131524
0.0141105168
0.0140718274
0.0146481479
0.014830438
0.0147082563
0.0141131954
0.0140695334
0.0146465683
0.0147152724
0.014142585
0.0140830768
0.0146508051
0.0148227179
0.0147058762
0.0141061797
0.0140827486
0.014631375
0.0146834332
0.0141351843
0.0140981066
0.0146834207
0.0148077078
0.0147657563
0.0147837177
0.0146867181
0.0140993043
0.0141030432
0.0146598213
0.0146832043
0.0141238639
0.0141159388
0.0147115033
0.0148559474
0.0146956713
0.0141080521
0.0141199087
0.0147169617
0.0147183397
0.0141269462
0.0141408014
0.0147445274
0.0147237025
0.0141240932
0.0141522531
0.0147568771
0.0147247704
0.0141201726
0.0141590362
0.0147617025
0.0147210262
0.0141145051
0.0141612776
0.0147621285
0.0147154386
0.0141096455
0.0141607501
0.0147654697
0.0147142155
0.0140968333
0.014122596
0.0148045028
0.014891357
0.0146714266
0.0141044224
0.0141433096
0.0147497986
0.0147076431
0.0140980041
0.0141488067
0.0147622737
0.0147109625
0.0140941641
0.0141492138
0.0147670026
0.0147045648
0.0140871562
0.0141180048
0.0148328489
0.0148865175
0.0146515657
0.0140934141
0.0141413341
0.0147535396
0.0146909333
0.0140859959
0.0141679322
0.0147537734
0.014666947
0.0140860382
0.014189826
0.0147491392
0.014644428
0.0140832886
0.0141171547
0.0147991361
0.0148499229
0.0145609207
0.0140895368
0.0140756284
0.0142501166
0.0148168678
0.0148328565
0.0147802836
0.0147906083
0.0144970711
0.0140852674
0.0140786071
0.0143388806
0.0147355173
0.0145519067
0.0140792394
0.014136748
0.014772358
0.0148330332
0.0145262533
0.0140830832
0.0141554133
0.014732865
0.0147199176
0.0141114606
0.0141172226
0.0146883297
0.0148251354
0.0145338116
0.0140823262
0.0141274205
0.0147573914
0.0148249313
0.0145160184
0.0140827863
0.014130579
0.0147596986
0.0148213287
0.0145055642
0.0140842361
0.014134209
0.0147707708
0.014826159
0.0145060647
0.0140859059
0.0141361753
0.0147841957
0.0148354725
0.0145136812
0.0140879484
0.0141380755
0.0147971533
0.0148259333
0.0144577605
0.014097906
0.014348045
0.0147589991
0.0145597297
0.0140856271
0.0141436019
0.014814296
0.0148359273
0.0144815207
0.0140961202
0.0143167589
0.0147369859
0.0145208803
0.0140931094
0.0143290244
0.0147520328
0.0145512752
0.0140837255
0.0141459992
0.0148141093
0.0148201373
0.0144954946
0.0140876652
0.0141845013
0.0148058201
0.0148064177
0.014450672
0.0140861426
0.0141931365
0.0147989341
0.0147996637
0.0144384763
0.0140849851
0.0141864195
0.0147991002
0.0148007402
0.0144423975
0.0140838621
0.0141748966
0.0147975413
0.014799865
0.0144469019
0.0140828832
0.0141639907
0.0148028555
0.0148057018
0.0144625384
)
;

boundaryField
{
    closed
    {
        type            zeroGradient;
    }
    open
    {
        type            zeroGradient;
    }
    sides
    {
        type            empty;
    }
    procBoundary2to1
    {
        type            processor;
        value           uniform 0.0140857112;
    }
    procBoundary2to3
    {
        type            processor;
        value           uniform 0.0140826805;
    }
}


// ************************************************************************* //
