/*--------------------------------*- C++ -*----------------------------------*\
| =========                 |                                                 |
| \\      /  F ield         | OpenFOAM: The Open Source CFD Toolbox           |
|  \\    /   O peration     | Version:  2306                                  |
|   \\  /    A nd           | Website:  www.openfoam.com                      |
|    \\/     M anipulation  |                                                 |
\*---------------------------------------------------------------------------*/
FoamFile
{
    version     2.0;
    format      ascii;
    arch        "LSB;label=32;scalar=64";
    class       volScalarField;
    location    "0.00046";
    object      prefDPV_H2O;
}
// * * * * * * * * * * * * * * * * * * * * * * * * * * * * * * * * * * * * * //

dimensions      [1 -1 -1 0 0 0 0];

internalField   nonuniform List<scalar> 
530
(
1.0172695e-06
1.00934523e-06
1.00529346e-06
1.03155235e-06
1.03276933e-06
1.01124955e-06
1.00729385e-06
1.0316891e-06
1.03343356e-06
1.01337012e-06
1.01207022e-06
1.0339084e-06
1.03568879e-06
1.01516789e-06
1.01746075e-06
1.03760584e-06
1.03774543e-06
1.01721441e-06
1.02336973e-06
1.04012994e-06
1.04033478e-06
1.02081791e-06
1.02802854e-06
1.03806283e-06
1.04086301e-06
1.0292344e-06
1.03401016e-06
1.03141317e-06
1.03586104e-06
1.04213343e-06
1.04427276e-06
1.0271904e-06
1.03448373e-06
1.04844237e-06
1.04923057e-06
1.02969337e-06
1.03755953e-06
1.05090562e-06
1.05189193e-06
1.03354722e-06
1.04120246e-06
1.05417433e-06
1.05500846e-06
1.03768842e-06
1.04504227e-06
1.05792505e-06
1.05843821e-06
1.04167912e-06
1.04825539e-06
1.06157979e-06
1.06192137e-06
1.04628618e-06
1.0511098e-06
1.06514182e-06
1.06531368e-06
1.05197921e-06
1.05425828e-06
1.06750907e-06
1.0686565e-06
1.05753722e-06
1.05724983e-06
1.0702172e-06
1.07176304e-06
1.06299559e-06
1.06070885e-06
1.07183182e-06
1.07500451e-06
1.06979805e-06
1.06469317e-06
1.07069896e-06
1.07841078e-06
1.07793508e-06
1.06908878e-06
1.06977444e-06
1.08195855e-06
1.08229776e-06
1.07435846e-06
1.07160484e-06
1.08443505e-06
1.08473441e-06
1.07947149e-06
1.0744581e-06
1.08490813e-06
1.08749194e-06
1.08543717e-06
1.07758102e-06
1.08495636e-06
1.09023237e-06
1.09102937e-06
1.08116414e-06
1.08560773e-06
1.09318761e-06
1.09472047e-06
1.08493231e-06
1.08757781e-06
1.09598613e-06
1.09707278e-06
1.08846456e-06
1.09025246e-06
1.09853313e-06
1.09944641e-06
1.09154822e-06
1.09319265e-06
1.10085314e-06
1.10183707e-06
1.09418881e-06
1.09625994e-06
1.10299058e-06
1.10413129e-06
1.09631793e-06
1.09955103e-06
1.10489259e-06
1.10491337e-06
1.09835207e-06
1.10357116e-06
1.10679092e-06
1.10513304e-06
1.10038456e-06
1.10723643e-06
1.10856305e-06
1.10554006e-06
1.10247779e-06
1.11024844e-06
1.1102962e-06
1.10659125e-06
1.10487836e-06
1.11195983e-06
1.11199359e-06
1.10762098e-06
1.10762217e-06
1.11316935e-06
1.11369791e-06
1.10836865e-06
1.11102468e-06
1.11412863e-06
1.11310777e-06
1.10897221e-06
1.11491643e-06
1.11518305e-06
1.11289107e-06
1.10994638e-06
1.11671365e-06
1.11626569e-06
1.11368763e-06
1.11129918e-06
1.11762457e-06
1.11735534e-06
1.11445232e-06
1.11315397e-06
1.1183974e-06
1.11845712e-06
1.11483988e-06
1.11540518e-06
1.11903273e-06
1.11910358e-06
1.11502677e-06
1.11901946e-06
1.11965365e-06
1.11797675e-06
1.11559559e-06
1.12062253e-06
1.1202851e-06
1.11826195e-06
1.11635163e-06
1.12120212e-06
1.12088518e-06
1.11893532e-06
1.11715616e-06
1.12174503e-06
1.12143293e-06
1.11960394e-06
1.11792873e-06
1.12222606e-06
1.12192414e-06
1.12021662e-06
1.11865576e-06
1.12265103e-06
1.12236118e-06
1.12076823e-06
1.11933618e-06
1.12302446e-06
1.12275045e-06
1.12126338e-06
1.11996626e-06
1.12335143e-06
1.12309536e-06
1.12170952e-06
1.12053933e-06
1.12363711e-06
1.12339891e-06
1.12212707e-06
1.12103452e-06
1.12389434e-06
1.12365676e-06
1.12250603e-06
1.12146182e-06
1.12410888e-06
1.12388839e-06
1.12281432e-06
1.12185256e-06
1.12428457e-06
1.12409862e-06
1.12307366e-06
1.12220694e-06
1.12443197e-06
1.12429169e-06
1.12324785e-06
1.1226395e-06
1.12453766e-06
1.12449935e-06
1.12332504e-06
1.12326331e-06
1.12460448e-06
1.12474978e-06
1.12328405e-06
1.12422175e-06
1.1246625e-06
1.12442317e-06
1.12335089e-06
1.12492165e-06
1.12474185e-06
1.12419381e-06
1.12351363e-06
1.1249596e-06
1.12482366e-06
1.12423233e-06
1.1237055e-06
1.12501076e-06
1.12489739e-06
1.12432205e-06
1.12388158e-06
1.12505855e-06
1.12496004e-06
1.12441606e-06
1.12403969e-06
1.12509982e-06
1.12501311e-06
1.12450598e-06
1.12417756e-06
1.12513516e-06
1.12505759e-06
1.12459095e-06
1.12429609e-06
1.12516547e-06
1.12509461e-06
1.12467077e-06
1.12439813e-06
1.12519187e-06
1.125125e-06
1.12474887e-06
1.12448365e-06
1.12521438e-06
1.12515034e-06
1.1248176e-06
1.12456205e-06
1.1252331e-06
1.12517176e-06
1.12488162e-06
1.12463133e-06
1.12524911e-06
1.12518967e-06
1.12494458e-06
1.12469127e-06
1.1252639e-06
1.12520455e-06
1.12501581e-06
1.12474358e-06
1.12528184e-06
1.12521741e-06
1.12513996e-06
1.12479414e-06
1.12518826e-06
1.12522987e-06
1.12529513e-06
1.12484557e-06
1.12502837e-06
1.12524174e-06
1.12526211e-06
1.12489528e-06
1.1250115e-06
1.12525217e-06
1.12526061e-06
1.12494426e-06
1.12503947e-06
1.12526034e-06
1.1252663e-06
1.12498796e-06
1.12508526e-06
1.12526676e-06
1.12527385e-06
1.12502484e-06
1.1251319e-06
1.12527154e-06
1.12528057e-06
1.12505221e-06
1.12516607e-06
1.12527501e-06
1.12528526e-06
1.12507237e-06
1.12518667e-06
1.12527767e-06
1.1252881e-06
1.12508947e-06
1.12519884e-06
1.12528004e-06
1.1252899e-06
1.12510639e-06
1.12520758e-06
1.12528237e-06
1.12529132e-06
1.12512406e-06
1.12521567e-06
1.12528473e-06
1.12529267e-06
1.12514219e-06
1.125224e-06
1.12528706e-06
1.12529401e-06
1.12516013e-06
1.12523247e-06
1.1252893e-06
1.12529532e-06
1.12517731e-06
1.12524075e-06
1.12529138e-06
1.12529656e-06
1.12519338e-06
1.12524858e-06
1.1252933e-06
1.12529772e-06
1.1252082e-06
1.12525586e-06
1.12529505e-06
1.12529877e-06
1.12522173e-06
1.12526253e-06
1.12529662e-06
1.12529973e-06
1.12523403e-06
1.12526859e-06
1.12529805e-06
1.12530061e-06
1.12524521e-06
1.12527412e-06
1.12529934e-06
1.12530141e-06
1.12525535e-06
1.12527919e-06
1.1253005e-06
1.12530215e-06
1.12526458e-06
1.12528384e-06
1.12530157e-06
1.12530284e-06
1.12527302e-06
1.12528815e-06
1.12530255e-06
1.1253035e-06
1.12528077e-06
1.1252922e-06
1.12530345e-06
1.12530413e-06
1.12528789e-06
1.12529611e-06
1.12530427e-06
1.12530476e-06
1.12529437e-06
1.12529998e-06
1.125305e-06
1.12530536e-06
1.12530012e-06
1.12530376e-06
1.12530558e-06
1.12530575e-06
1.1253049e-06
1.12530581e-06
1.12530565e-06
1.12530533e-06
1.12530533e-06
1.12530504e-06
1.12530495e-06
1.12530477e-06
1.12530469e-06
1.12530453e-06
1.12530445e-06
1.12530433e-06
1.12530426e-06
1.12530415e-06
1.12530409e-06
1.12530401e-06
1.12530396e-06
1.12530388e-06
1.12530384e-06
1.12530378e-06
1.12530374e-06
1.12530369e-06
1.12530366e-06
1.12530362e-06
1.12530359e-06
1.12530355e-06
1.12530353e-06
1.1253035e-06
1.12530348e-06
1.12530345e-06
1.12530344e-06
1.12530342e-06
1.1253034e-06
1.12530339e-06
1.12530337e-06
1.12530336e-06
1.12530335e-06
1.12530334e-06
1.12530333e-06
1.12530332e-06
1.12530331e-06
1.1253033e-06
1.12530329e-06
1.12530329e-06
1.12530328e-06
1.12530328e-06
1.12530327e-06
1.12530327e-06
1.12530326e-06
1.12530326e-06
1.12530326e-06
1.12530325e-06
1.12530325e-06
1.12530325e-06
1.12530325e-06
1.12530324e-06
1.12530324e-06
1.12530324e-06
1.12530324e-06
1.12530324e-06
1.12530323e-06
1.12530323e-06
1.12530323e-06
1.12530323e-06
1.12530323e-06
1.12530323e-06
1.12530323e-06
1.12530323e-06
1.12530323e-06
1.12530323e-06
1.12530323e-06
1.12530323e-06
1.12530323e-06
1.12530322e-06
1.12530322e-06
1.12530322e-06
1.12530322e-06
1.12530322e-06
1.12530322e-06
1.12530322e-06
1.12530322e-06
1.12530322e-06
1.12530322e-06
1.12530322e-06
1.12530322e-06
1.12530322e-06
1.12530322e-06
1.12530322e-06
1.12530322e-06
1.12530322e-06
1.12530322e-06
1.12530322e-06
1.12530322e-06
1.12530322e-06
1.12530322e-06
1.12530322e-06
1.12530322e-06
1.12530322e-06
1.12530322e-06
1.12530322e-06
1.12530322e-06
1.12530322e-06
1.12530322e-06
1.12530322e-06
1.12530322e-06
1.12530322e-06
1.12530322e-06
1.12530322e-06
1.12530322e-06
1.12530322e-06
1.12530322e-06
1.12530322e-06
1.12530322e-06
1.12530322e-06
1.12530322e-06
1.12530322e-06
1.12530322e-06
1.12530322e-06
1.12530322e-06
1.12530322e-06
1.12530322e-06
1.12530322e-06
1.12530322e-06
1.12530322e-06
1.12530322e-06
1.12530322e-06
1.12530322e-06
1.12530322e-06
1.12530322e-06
1.12530322e-06
1.12530322e-06
1.12530322e-06
1.12530322e-06
1.12530322e-06
1.12530322e-06
1.12530322e-06
1.12530322e-06
1.12530322e-06
1.12530322e-06
1.12530322e-06
1.12530322e-06
1.12530322e-06
1.12530322e-06
1.12530322e-06
1.12530322e-06
1.12530322e-06
1.12530322e-06
1.12530322e-06
1.12530322e-06
1.12530322e-06
1.12530322e-06
1.12530322e-06
1.12530322e-06
1.12530322e-06
1.12530322e-06
1.12530322e-06
)
;

boundaryField
{
    closed
    {
        type            calculated;
        value           nonuniform List<scalar> 0();
    }
    open
    {
        type            calculated;
        value           uniform 1.12530322e-06;
    }
    sides
    {
        type            empty;
    }
    procBoundary5to4
    {
        type            processor;
        value           uniform 1.03086641e-06;
    }
}


// ************************************************************************* //
