/*--------------------------------*- C++ -*----------------------------------*\
| =========                 |                                                 |
| \\      /  F ield         | OpenFOAM: The Open Source CFD Toolbox           |
|  \\    /   O peration     | Version:  2306                                  |
|   \\  /    A nd           | Website:  www.openfoam.com                      |
|    \\/     M anipulation  |                                                 |
\*---------------------------------------------------------------------------*/
FoamFile
{
    version     2.0;
    format      ascii;
    arch        "LSB;label=32;scalar=64";
    class       volScalarField;
    location    "0.00046";
    object      prefDZ_H2O;
}
// * * * * * * * * * * * * * * * * * * * * * * * * * * * * * * * * * * * * * //

dimensions      [1 -1 -1 0 0 0 0];

internalField   nonuniform List<scalar> 
530
(
2.05075428e-06
2.03477942e-06
2.02661129e-06
2.07954765e-06
2.082001e-06
2.03861842e-06
2.03064397e-06
2.07982332e-06
2.08334005e-06
2.04289336e-06
2.04027283e-06
2.0842973e-06
2.08788647e-06
2.04651756e-06
2.05113983e-06
2.09175111e-06
2.09203252e-06
2.05064321e-06
2.06305197e-06
2.09683956e-06
2.09725249e-06
2.05790765e-06
2.07244385e-06
2.09267237e-06
2.09831738e-06
2.0748748e-06
2.08450245e-06
2.07926706e-06
2.08823371e-06
2.10087846e-06
2.10519123e-06
2.07075422e-06
2.08545713e-06
2.11359691e-06
2.11518587e-06
2.07580005e-06
2.09165776e-06
2.11856267e-06
2.12055102e-06
2.08356918e-06
2.09900169e-06
2.12515219e-06
2.12683375e-06
2.09191758e-06
2.10674251e-06
2.13271343e-06
2.13374793e-06
2.09996261e-06
2.11321996e-06
2.14008116e-06
2.14076976e-06
2.10925016e-06
2.11897429e-06
2.14726201e-06
2.14760847e-06
2.12072697e-06
2.12532144e-06
2.15203424e-06
2.15434739e-06
2.13193158e-06
2.13135223e-06
2.15749366e-06
2.16060999e-06
2.14293533e-06
2.13832541e-06
2.16074863e-06
2.16714459e-06
2.15664868e-06
2.14635755e-06
2.15846487e-06
2.17401142e-06
2.17305244e-06
2.15521883e-06
2.15660109e-06
2.18116351e-06
2.18184735e-06
2.1658422e-06
2.16029106e-06
2.186156e-06
2.18675948e-06
2.17614976e-06
2.16604306e-06
2.1871097e-06
2.19231851e-06
2.1881762e-06
2.17233867e-06
2.18720692e-06
2.19784304e-06
2.19944975e-06
2.17956204e-06
2.18852004e-06
2.20380063e-06
2.20689079e-06
2.18715844e-06
2.19249161e-06
2.20944227e-06
2.2116329e-06
2.19427925e-06
2.19788355e-06
2.21457688e-06
2.21641801e-06
2.20049572e-06
2.2038108e-06
2.21925387e-06
2.22123742e-06
2.20581898e-06
2.20999427e-06
2.22356283e-06
2.22586244e-06
2.21011117e-06
2.21662891e-06
2.22739718e-06
2.22743905e-06
2.21421187e-06
2.22473325e-06
2.23122409e-06
2.2278819e-06
2.21830926e-06
2.2321222e-06
2.23479659e-06
2.22870243e-06
2.22252907e-06
2.23819424e-06
2.23829052e-06
2.23082155e-06
2.22736847e-06
2.24164429e-06
2.24171236e-06
2.23289743e-06
2.23289983e-06
2.24408263e-06
2.24514817e-06
2.23440469e-06
2.2397591e-06
2.24601646e-06
2.24395847e-06
2.23562143e-06
2.24760462e-06
2.24814212e-06
2.24352162e-06
2.2375853e-06
2.25122771e-06
2.25032466e-06
2.24512744e-06
2.24031248e-06
2.25306408e-06
2.25252133e-06
2.24666902e-06
2.24405162e-06
2.25462206e-06
2.25474244e-06
2.24745031e-06
2.24858991e-06
2.25590284e-06
2.25604567e-06
2.24782706e-06
2.25587609e-06
2.25715458e-06
2.25377406e-06
2.24897377e-06
2.25910777e-06
2.25842754e-06
2.25434899e-06
2.2504979e-06
2.2602762e-06
2.25963726e-06
2.25570646e-06
2.2521198e-06
2.26137067e-06
2.2607415e-06
2.25705437e-06
2.25367724e-06
2.2623404e-06
2.26173176e-06
2.25828949e-06
2.25514288e-06
2.26319713e-06
2.26261279e-06
2.2594015e-06
2.25651458e-06
2.26394993e-06
2.26339753e-06
2.2603997e-06
2.25778479e-06
2.26460908e-06
2.26409287e-06
2.26129908e-06
2.25894006e-06
2.26518499e-06
2.26470479e-06
2.26214084e-06
2.25993833e-06
2.26570356e-06
2.26522461e-06
2.2629048e-06
2.26079973e-06
2.26613606e-06
2.26569157e-06
2.2635263e-06
2.26158746e-06
2.26649023e-06
2.26611538e-06
2.26404912e-06
2.26230185e-06
2.26678739e-06
2.26650458e-06
2.26440028e-06
2.26317387e-06
2.26700044e-06
2.26692322e-06
2.26455587e-06
2.26443145e-06
2.26713515e-06
2.26742807e-06
2.26447326e-06
2.2663636e-06
2.26725212e-06
2.26676965e-06
2.264608e-06
2.26777456e-06
2.26741208e-06
2.26630728e-06
2.26493607e-06
2.26785106e-06
2.267577e-06
2.26638493e-06
2.26532286e-06
2.26795419e-06
2.26772565e-06
2.26656579e-06
2.26567782e-06
2.26805054e-06
2.26785194e-06
2.26675531e-06
2.26599656e-06
2.26813372e-06
2.26795893e-06
2.26693659e-06
2.26627451e-06
2.26820497e-06
2.26804859e-06
2.26710788e-06
2.26651345e-06
2.26826608e-06
2.26812323e-06
2.26726879e-06
2.26671917e-06
2.2683193e-06
2.26818449e-06
2.26742624e-06
2.26689157e-06
2.26836468e-06
2.26823558e-06
2.26756479e-06
2.26704961e-06
2.26840242e-06
2.26827875e-06
2.26769386e-06
2.26718928e-06
2.26843468e-06
2.26831486e-06
2.26782079e-06
2.26731012e-06
2.26846451e-06
2.26834486e-06
2.26796438e-06
2.26741558e-06
2.26850068e-06
2.26837078e-06
2.26821466e-06
2.26751749e-06
2.26831202e-06
2.2683959e-06
2.26852746e-06
2.26762119e-06
2.26798969e-06
2.26841984e-06
2.26846089e-06
2.26772139e-06
2.26795569e-06
2.26844086e-06
2.26845788e-06
2.26782013e-06
2.26801208e-06
2.26845733e-06
2.26846934e-06
2.26790822e-06
2.26810439e-06
2.26847027e-06
2.26848457e-06
2.26798257e-06
2.2681984e-06
2.26847992e-06
2.26849812e-06
2.26803775e-06
2.26826728e-06
2.2684869e-06
2.26850757e-06
2.26807839e-06
2.26830882e-06
2.26849227e-06
2.26851328e-06
2.26811287e-06
2.26833335e-06
2.26849704e-06
2.26851693e-06
2.26814697e-06
2.26835097e-06
2.26850174e-06
2.26851979e-06
2.26818259e-06
2.26836728e-06
2.2685065e-06
2.2685225e-06
2.26821915e-06
2.26838407e-06
2.2685112e-06
2.2685252e-06
2.26825531e-06
2.26840115e-06
2.2685157e-06
2.26852785e-06
2.26828994e-06
2.26841783e-06
2.26851991e-06
2.26853035e-06
2.26832235e-06
2.26843362e-06
2.26852378e-06
2.26853268e-06
2.26835223e-06
2.2684483e-06
2.2685273e-06
2.26853481e-06
2.2683795e-06
2.26846174e-06
2.26853048e-06
2.26853674e-06
2.2684043e-06
2.26847397e-06
2.26853335e-06
2.26853851e-06
2.26842682e-06
2.26848511e-06
2.26853594e-06
2.26854012e-06
2.26844727e-06
2.26849532e-06
2.2685383e-06
2.26854161e-06
2.26846589e-06
2.2685047e-06
2.26854044e-06
2.26854301e-06
2.2684829e-06
2.26851339e-06
2.26854241e-06
2.26854433e-06
2.26849851e-06
2.26852156e-06
2.26854423e-06
2.26854561e-06
2.26851286e-06
2.26852944e-06
2.26854589e-06
2.26854687e-06
2.26852594e-06
2.26853725e-06
2.26854736e-06
2.26854808e-06
2.26853753e-06
2.26854486e-06
2.26854854e-06
2.26854887e-06
2.26854715e-06
2.268549e-06
2.26854868e-06
2.26854802e-06
2.26854803e-06
2.26854744e-06
2.26854726e-06
2.2685469e-06
2.26854673e-06
2.26854641e-06
2.26854626e-06
2.268546e-06
2.26854587e-06
2.26854565e-06
2.26854554e-06
2.26854536e-06
2.26854526e-06
2.26854511e-06
2.26854502e-06
2.2685449e-06
2.26854482e-06
2.26854472e-06
2.26854465e-06
2.26854457e-06
2.26854451e-06
2.26854444e-06
2.26854439e-06
2.26854434e-06
2.26854429e-06
2.26854425e-06
2.26854421e-06
2.26854417e-06
2.26854414e-06
2.26854411e-06
2.26854408e-06
2.26854405e-06
2.26854403e-06
2.26854401e-06
2.26854399e-06
2.26854397e-06
2.26854395e-06
2.26854394e-06
2.26854392e-06
2.26854391e-06
2.2685439e-06
2.26854389e-06
2.26854388e-06
2.26854387e-06
2.26854386e-06
2.26854385e-06
2.26854385e-06
2.26854384e-06
2.26854383e-06
2.26854383e-06
2.26854382e-06
2.26854382e-06
2.26854382e-06
2.26854381e-06
2.26854381e-06
2.26854381e-06
2.2685438e-06
2.2685438e-06
2.2685438e-06
2.2685438e-06
2.26854379e-06
2.26854379e-06
2.26854379e-06
2.26854379e-06
2.26854379e-06
2.26854379e-06
2.26854379e-06
2.26854378e-06
2.26854378e-06
2.26854378e-06
2.26854378e-06
2.26854378e-06
2.26854378e-06
2.26854378e-06
2.26854378e-06
2.26854378e-06
2.26854378e-06
2.26854378e-06
2.26854378e-06
2.26854378e-06
2.26854378e-06
2.26854378e-06
2.26854378e-06
2.26854378e-06
2.26854378e-06
2.26854378e-06
2.26854378e-06
2.26854378e-06
2.26854378e-06
2.26854378e-06
2.26854378e-06
2.26854378e-06
2.26854378e-06
2.26854378e-06
2.26854378e-06
2.26854378e-06
2.26854378e-06
2.26854378e-06
2.26854378e-06
2.26854378e-06
2.26854378e-06
2.26854378e-06
2.26854378e-06
2.26854378e-06
2.26854378e-06
2.26854378e-06
2.26854378e-06
2.26854378e-06
2.26854378e-06
2.26854378e-06
2.26854378e-06
2.26854378e-06
2.26854378e-06
2.26854378e-06
2.26854378e-06
2.26854378e-06
2.26854378e-06
2.26854378e-06
2.26854378e-06
2.26854378e-06
2.26854378e-06
2.26854378e-06
2.26854378e-06
2.26854378e-06
2.26854378e-06
2.26854378e-06
2.26854378e-06
2.26854378e-06
2.26854378e-06
2.26854378e-06
2.26854378e-06
2.26854378e-06
2.26854378e-06
2.26854378e-06
2.26854378e-06
2.26854378e-06
2.26854378e-06
2.26854378e-06
2.26854378e-06
2.26854378e-06
2.26854378e-06
2.26854378e-06
2.26854378e-06
2.26854378e-06
2.26854378e-06
2.26854378e-06
2.26854378e-06
2.26854378e-06
2.26854378e-06
2.26854378e-06
2.26854378e-06
2.26854378e-06
)
;

boundaryField
{
    closed
    {
        type            calculated;
        value           nonuniform List<scalar> 0();
    }
    open
    {
        type            calculated;
        value           uniform 2.26854378e-06;
    }
    sides
    {
        type            empty;
    }
    procBoundary5to4
    {
        type            processor;
        value           uniform 2.07816482e-06;
    }
}


// ************************************************************************* //
