/*--------------------------------*- C++ -*----------------------------------*\
| =========                 |                                                 |
| \\      /  F ield         | OpenFOAM: The Open Source CFD Toolbox           |
|  \\    /   O peration     | Version:  2306                                  |
|   \\  /    A nd           | Website:  www.openfoam.com                      |
|    \\/     M anipulation  |                                                 |
\*---------------------------------------------------------------------------*/
FoamFile
{
    version     2.0;
    format      ascii;
    arch        "LSB;label=32;scalar=64";
    class       volScalarField;
    location    "0.00104";
    object      mu;
}
// * * * * * * * * * * * * * * * * * * * * * * * * * * * * * * * * * * * * * //

dimensions      [1 -1 -1 0 0 0 0];

internalField   nonuniform List<scalar> 
531
(
2.00973836e-05
1.97391455e-05
1.9609767e-05
1.97815923e-05
2.02407702e-05
2.01124266e-05
1.97401358e-05
1.95859158e-05
1.97758562e-05
2.02434934e-05
2.01227717e-05
1.97428938e-05
1.95734594e-05
1.97698591e-05
2.02427345e-05
2.01504727e-05
1.97751766e-05
1.97748586e-05
2.02305306e-05
2.01079878e-05
1.97381905e-05
1.9542544e-05
1.9771563e-05
2.02493075e-05
2.01549453e-05
1.97811293e-05
1.97771312e-05
2.02395833e-05
2.00982087e-05
1.96799843e-05
1.94829609e-05
1.97675235e-05
2.02582074e-05
2.01291578e-05
1.96884742e-05
1.94815147e-05
1.97691992e-05
2.02639772e-05
2.01588275e-05
1.97093731e-05
1.95117142e-05
1.9773822e-05
2.027583e-05
2.00710069e-05
1.97741583e-05
1.98543318e-05
2.00200624e-05
1.97677755e-05
1.96797821e-05
1.97826543e-05
2.02964113e-05
2.02248907e-05
1.96711465e-05
1.95758575e-05
1.98350831e-05
2.02976556e-05
2.0247551e-05
1.97612813e-05
1.96943237e-05
1.97313394e-05
1.96963997e-05
1.98197239e-05
2.02922515e-05
2.02403726e-05
1.96791342e-05
1.96667514e-05
2.0180373e-05
2.02679332e-05
1.97600637e-05
1.95733479e-05
1.97627971e-05
2.0303975e-05
2.02738673e-05
1.97584555e-05
1.9772921e-05
1.97844255e-05
1.9775197e-05
1.97581559e-05
2.02913917e-05
2.02881077e-05
1.97710907e-05
1.96899432e-05
2.0147282e-05
2.02494492e-05
1.97561172e-05
1.94061509e-05
1.97554391e-05
2.0277356e-05
2.02917261e-05
1.97184092e-05
1.97542613e-05
2.03076447e-05
2.02748527e-05
1.97624066e-05
1.94701846e-05
1.97706693e-05
2.02834417e-05
2.02658523e-05
1.96558835e-05
1.97224649e-05
2.03095714e-05
2.02829501e-05
1.97479139e-05
1.945813e-05
1.97713824e-05
2.0281723e-05
2.02772848e-05
1.96753088e-05
1.97312167e-05
2.03100459e-05
2.02959723e-05
1.97606625e-05
1.95103512e-05
1.97721482e-05
2.0293749e-05
2.02954242e-05
1.97564423e-05
1.94926035e-05
1.97681717e-05
2.02909867e-05
2.02975714e-05
1.97546005e-05
1.94901282e-05
1.9769313e-05
2.02888776e-05
2.02971467e-05
1.97425137e-05
1.94820307e-05
1.97697127e-05
2.02872461e-05
2.02969041e-05
1.97313175e-05
1.9471041e-05
1.97703323e-05
2.02847251e-05
2.02965658e-05
1.97353247e-05
1.94897007e-05
1.97725024e-05
2.02803159e-05
2.03028198e-05
1.97535754e-05
1.97841386e-05
2.02931461e-05
2.02761963e-05
1.96933124e-05
1.94780525e-05
1.97764051e-05
2.0281127e-05
2.02996372e-05
1.97489832e-05
1.97945796e-05
2.02971831e-05
2.02804544e-05
1.96713951e-05
1.94539997e-05
1.97750547e-05
2.02815348e-05
2.02987944e-05
1.96873815e-05
1.94976377e-05
1.95271718e-05
1.97846499e-05
2.02974408e-05
2.03076821e-05
1.9710808e-05
1.95043205e-05
1.97905772e-05
2.02844557e-05
2.02482218e-05
1.96672883e-05
1.9755957e-05
2.03093351e-05
2.03000881e-05
1.96459282e-05
1.94698589e-05
1.97963732e-05
2.02847643e-05
2.00648902e-05
1.96245491e-05
1.97819407e-05
2.03042421e-05
2.0307866e-05
1.95588122e-05
1.95215235e-05
2.00421795e-05
2.02820588e-05
1.98119337e-05
1.95745307e-05
1.97620134e-05
2.03114435e-05
2.03035542e-05
1.96142924e-05
1.94432382e-05
1.97705182e-05
2.03004501e-05
2.03002593e-05
1.96212912e-05
1.94754735e-05
1.97773554e-05
2.03021826e-05
2.02987268e-05
1.96294473e-05
1.95233851e-05
1.97934702e-05
2.02996786e-05
2.02876754e-05
1.96076251e-05
1.94825528e-05
1.96670431e-05
1.99302243e-05
2.03065002e-05
2.02598898e-05
1.96381897e-05
1.94917948e-05
1.97910361e-05
2.02929183e-05
2.02904391e-05
1.96155744e-05
1.95856775e-05
1.98941759e-05
2.02861865e-05
1.99470835e-05
1.95772899e-05
1.97633207e-05
2.03160468e-05
2.02832522e-05
1.95892758e-05
1.95114348e-05
1.97916793e-05
2.0298451e-05
2.02875577e-05
1.95826295e-05
1.94896001e-05
1.97910399e-05
2.02961831e-05
2.02865017e-05
1.95746295e-05
1.94606528e-05
1.97850957e-05
2.02913026e-05
2.02807589e-05
1.95885436e-05
1.97321859e-05
2.03238228e-05
2.02751051e-05
1.96896284e-05
1.94540189e-05
1.97544321e-05
2.03050772e-05
2.03028783e-05
1.98298189e-05
1.95707727e-05
1.95738249e-05
1.94983104e-05
1.96506258e-05
2.02074002e-05
2.02937557e-05
2.00086304e-05
1.96466811e-05
1.97798368e-05
2.03201419e-05
2.02961536e-05
1.9756895e-05
1.95911819e-05
1.97902487e-05
2.0288246e-05
2.02629618e-05
1.94837134e-05
1.95414415e-05
2.03236893e-05
2.02891417e-05
1.97538021e-05
1.9467555e-05
1.97543309e-05
2.03036606e-05
2.03133665e-05
1.9662104e-05
1.9482239e-05
1.97838078e-05
2.02825148e-05
2.01142692e-05
1.95846791e-05
1.97529278e-05
2.02838466e-05
2.02657225e-05
1.9507432e-05
1.95136234e-05
2.03037822e-05
2.02876016e-05
1.97699455e-05
1.95600835e-05
1.97594644e-05
2.03000316e-05
2.03129985e-05
1.97239223e-05
1.94599617e-05
1.97586589e-05
2.02927684e-05
2.03113896e-05
1.97193762e-05
1.94476849e-05
1.97599273e-05
2.02903748e-05
2.0312408e-05
1.96974059e-05
1.94542449e-05
1.97721078e-05
2.02816004e-05
2.02992828e-05
1.96424335e-05
1.96981581e-05
2.03005758e-05
2.02978129e-05
1.96355201e-05
1.94114603e-05
1.97708004e-05
2.02795895e-05
2.02880045e-05
1.96474418e-05
1.97241977e-05
2.03019412e-05
2.02919224e-05
1.96353627e-05
1.9413263e-05
1.97706493e-05
2.02785474e-05
2.02581106e-05
1.96496459e-05
1.97779984e-05
2.0297425e-05
2.0257623e-05
1.95840022e-05
1.94429571e-05
1.97795125e-05
2.02771108e-05
2.009967e-05
1.96585109e-05
1.97820824e-05
2.03009652e-05
2.02835145e-05
1.96572184e-05
1.94615266e-05
1.97789762e-05
2.02754012e-05
2.01011819e-05
1.96753078e-05
1.97837094e-05
2.02951766e-05
2.02650528e-05
1.95936169e-05
1.9442053e-05
1.97681972e-05
2.02818687e-05
2.02759355e-05
1.95998804e-05
1.94728939e-05
1.98333693e-05
2.02718346e-05
1.99069815e-05
1.96747606e-05
1.97793054e-05
2.02764085e-05
1.99207399e-05
1.94980658e-05
1.95371289e-05
2.01463981e-05
2.02804919e-05
1.9784805e-05
1.96607741e-05
1.98394542e-05
2.02769041e-05
1.98290662e-05
1.95125737e-05
1.96713345e-05
2.03084625e-05
2.02875076e-05
1.97645049e-05
1.95159654e-05
1.97538258e-05
2.03100534e-05
2.02982629e-05
1.9760048e-05
1.95309533e-05
1.9756252e-05
2.03080677e-05
2.03008792e-05
1.9755166e-05
1.94998678e-05
1.97506383e-05
2.03016067e-05
2.03135639e-05
1.97737066e-05
1.95348082e-05
1.95374692e-05
1.97595821e-05
2.02804802e-05
2.0303835e-05
2.02903757e-05
1.96206676e-05
1.93859735e-05
1.97601043e-05
2.02748733e-05
2.03179294e-05
1.95966789e-05
1.94687625e-05
1.97731296e-05
2.02911026e-05
2.03275354e-05
1.96281912e-05
1.96964195e-05
2.02956355e-05
2.03017958e-05
1.95135607e-05
1.93968688e-05
1.97949356e-05
2.02774835e-05
2.00534495e-05
1.96275565e-05
1.97774012e-05
2.02895235e-05
1.98527486e-05
1.96285321e-05
1.97780963e-05
2.02772998e-05
2.0013663e-05
1.94307449e-05
1.94484913e-05
2.02662805e-05
2.02856221e-05
1.97752395e-05
1.96365016e-05
1.97983855e-05
2.02682125e-05
2.02171753e-05
1.94715788e-05
1.94619348e-05
2.02351117e-05
2.02785833e-05
1.97820147e-05
1.96320222e-05
1.97765679e-05
2.02709696e-05
2.03022574e-05
1.96363348e-05
1.94949841e-05
1.97739393e-05
2.02682802e-05
2.03013032e-05
1.96691815e-05
1.95355948e-05
1.97881837e-05
2.02629777e-05
2.01735214e-05
1.94701384e-05
1.93640403e-05
1.97704073e-05
2.02591108e-05
2.02790929e-05
1.97143613e-05
1.9674791e-05
2.02166798e-05
2.02720023e-05
1.97731265e-05
1.95291104e-05
1.97336598e-05
2.02429525e-05
2.02935434e-05
1.99289888e-05
1.9585418e-05
1.95699472e-05
1.96910004e-05
1.98299101e-05
2.02973374e-05
2.028309e-05
1.96693323e-05
1.95321032e-05
1.9791107e-05
2.02856596e-05
2.00196748e-05
1.96846102e-05
1.97756324e-05
2.03000028e-05
2.0183938e-05
1.94909897e-05
1.94609087e-05
1.97949783e-05
2.02805438e-05
1.99339678e-05
1.96622287e-05
1.97813439e-05
2.02966772e-05
1.98937188e-05
1.9652296e-05
1.97932176e-05
2.0297105e-05
2.00004708e-05
1.95212904e-05
1.95640773e-05
1.9850166e-05
2.02829023e-05
2.00394211e-05
1.95578273e-05
1.95880292e-05
1.98642554e-05
2.02851287e-05
2.00333548e-05
1.95616355e-05
1.95985282e-05
1.98722651e-05
2.02848683e-05
2.00253013e-05
1.95610154e-05
1.96004722e-05
1.98753216e-05
2.02846573e-05
2.00146533e-05
1.95558531e-05
1.95974597e-05
1.98765081e-05
2.02846084e-05
2.00113435e-05
1.95484088e-05
1.95939575e-05
1.98772694e-05
2.02850668e-05
2.00067233e-05
1.95480429e-05
1.95959642e-05
1.98814604e-05
2.02867456e-05
)
;

boundaryField
{
    closed
    {
        type            calculated;
        value           nonuniform List<scalar> 0();
    }
    open
    {
        type            calculated;
        value           nonuniform List<scalar> 0();
    }
    sides
    {
        type            empty;
    }
    procBoundary1to0
    {
        type            processor;
        value           uniform 2.02355097e-05;
    }
    procBoundary1to2
    {
        type            processor;
        value           uniform 2.0017941e-05;
    }
}


// ************************************************************************* //
