/*--------------------------------*- C++ -*----------------------------------*\
| =========                 |                                                 |
| \\      /  F ield         | OpenFOAM: The Open Source CFD Toolbox           |
|  \\    /   O peration     | Version:  2306                                  |
|   \\  /    A nd           | Website:  www.openfoam.com                      |
|    \\/     M anipulation  |                                                 |
\*---------------------------------------------------------------------------*/
FoamFile
{
    version     2.0;
    format      ascii;
    arch        "LSB;label=32;scalar=64";
    class       volVectorField;
    location    "0.00104";
    object      U;
}
// * * * * * * * * * * * * * * * * * * * * * * * * * * * * * * * * * * * * * //

dimensions      [0 1 -1 0 0 0 0];

internalField   nonuniform List<vector> 
531
(
(0.647136757 0 0)
(0.525663122 0 0)
(0.379042784 0 0)
(0.267845241 0 0)
(0.0770379382 0 0)
(-0.0190250184 0 0)
(-0.0785421763 0 0)
(-0.191400876 0 0)
(-0.271563804 0 0)
(-0.376111516 0 0)
(-0.397546418 0 0)
(-0.413079542 0 0)
(-0.487464178 0 0)
(-0.535338243 0 0)
(-0.620178942 0 0)
(-0.625096095 0 0)
(-0.612612978 0 0)
(-0.623267595 0 0)
(-0.66973075 0 0)
(-0.629333156 0 0)
(-0.63961935 0 0)
(-0.677479129 0 0)
(-0.685626424 0 0)
(-0.721256148 0 0)
(-0.680379676 0 0)
(-0.631206428 0 0)
(-0.6132832 0 0)
(-0.61294956 0 0)
(-0.535616785 0 0)
(-0.523774782 0 0)
(-0.53520307 0 0)
(-0.52214299 0 0)
(-0.519003359 0 0)
(-0.452830984 0 0)
(-0.421002242 0 0)
(-0.431968359 0 0)
(-0.416950888 0 0)
(-0.406742934 0 0)
(-0.337452482 0 0)
(-0.296844792 0 0)
(-0.31023877 0 0)
(-0.295745369 0 0)
(-0.288761548 0 0)
(-0.24194739 0 0)
(-0.218685441 0 0)
(-0.20382665 0 0)
(-0.201027216 0 0)
(-0.17148544 0 0)
(-0.188452997 0 0)
(-0.182865142 0 0)
(-0.197578924 0 0)
(-0.135505608 0 0)
(-0.100675226 0 0)
(-0.141251473 0 0)
(-0.152158035 0 0)
(-0.16348479 0 0)
(-0.138420383 0 0)
(-0.111420175 0 0)
(-0.138021536 0 0)
(-0.146216439 0 0)
(-0.150928858 0 0)
(-0.146609833 0 0)
(-0.159374524 0 0)
(-0.122289703 0 0)
(-0.113091119 0 0)
(-0.171234919 0 0)
(-0.140512975 0 0)
(-0.0737645234 0 0)
(-0.0617267979 0 0)
(-0.0892477895 0 0)
(-0.0906295533 0 0)
(-0.0953943985 0 0)
(-0.0617402628 0 0)
(-0.0426954264 0 0)
(-0.0623582548 0 0)
(-0.0649781957 0 0)
(-0.0747358253 0 0)
(-0.0852722358 0 0)
(-0.0860894833 0 0)
(-0.0562847809 0 0)
(-0.0673389976 0 0)
(-0.128487959 0 0)
(-0.105028798 0 0)
(-0.0450453929 0 0)
(-0.0325618615 0 0)
(-0.0445714049 0 0)
(-0.0465871486 0 0)
(-0.0441729344 0 0)
(-0.00298226923 0 0)
(-0.00509413896 0 0)
(-0.0486297361 0 0)
(-0.0529978833 0 0)
(-0.038845638 0 0)
(-0.0334675647 0 0)
(-0.0621319379 0 0)
(-0.0664699906 0 0)
(-0.0894157676 0 0)
(-0.0665423048 0 0)
(-0.054772919 0 0)
(-0.111672717 0 0)
(-0.122340635 0 0)
(-0.102847105 0 0)
(-0.104658727 0 0)
(-0.124794975 0 0)
(-0.119084012 0 0)
(-0.126419553 0 0)
(-0.0905171304 0 0)
(-0.0682991862 0 0)
(-0.101610205 0 0)
(-0.0975380877 0 0)
(-0.0717876622 0 0)
(-0.0542114718 0 0)
(-0.0511317237 0 0)
(-0.0438497715 0 0)
(-0.0335913604 0 0)
(-0.00355658674 0 0)
(0.0228512756 0 0)
(0.0217826053 0 0)
(0.0292925217 0 0)
(0.0413312015 0 0)
(0.0735422119 0 0)
(0.0946650218 0 0)
(0.088421525 0 0)
(0.0953387815 0 0)
(0.105071569 0 0)
(0.132463863 0 0)
(0.150329464 0 0)
(0.142202341 0 0)
(0.146254494 0 0)
(0.153429128 0 0)
(0.178153589 0 0)
(0.195702889 0 0)
(0.188325529 0 0)
(0.192562349 0 0)
(0.1998577 0 0)
(0.223943638 0 0)
(0.243614397 0 0)
(0.239720174 0 0)
(0.249480879 0 0)
(0.257113768 0 0)
(0.285250892 0 0)
(0.304765471 0 0)
(0.292728842 0 0)
(0.290313251 0 0)
(0.318615791 0 0)
(0.342250464 0 0)
(0.337630962 0 0)
(0.347795941 0 0)
(0.349676688 0 0)
(0.36679804 0 0)
(0.378432702 0 0)
(0.360095991 0 0)
(0.345512071 0 0)
(0.35679339 0 0)
(0.367857064 0 0)
(0.355885297 0 0)
(0.362530478 0 0)
(0.360904181 0 0)
(0.366874375 0 0)
(0.37382572 0 0)
(0.363907566 0 0)
(0.357505061 0 0)
(0.35070604 0 0)
(0.338143325 0 0)
(0.320597003 0 0)
(0.308520719 0 0)
(0.294826521 0 0)
(0.281428167 0 0)
(0.248078233 0 0)
(0.264606989 0 0)
(0.276323434 0 0)
(0.220909815 0 0)
(0.187376559 0 0)
(0.180122934 0 0)
(0.171988525 0 0)
(0.157392761 0 0)
(0.149795469 0 0)
(0.135491751 0 0)
(0.162035053 0 0)
(0.183281506 0 0)
(0.178946709 0 0)
(0.186069569 0 0)
(0.196083723 0 0)
(0.203485387 0 0)
(0.193517025 0 0)
(0.21284443 0 0)
(0.233273983 0 0)
(0.229825631 0 0)
(0.233920654 0 0)
(0.243843305 0 0)
(0.250153306 0 0)
(0.257793854 0 0)
(0.261327623 0 0)
(0.257274361 0 0)
(0.256580218 0 0)
(0.247921791 0 0)
(0.240854825 0 0)
(0.227313555 0 0)
(0.208032423 0 0)
(0.189216776 0 0)
(0.16571328 0 0)
(0.150838502 0 0)
(0.131534656 0 0)
(0.103540465 0 0)
(0.0742672868 0 0)
(0.0459495946 0 0)
(0.0265921569 0 0)
(0.000115854335 0 0)
(-0.0294294339 0 0)
(-0.0559780933 0 0)
(-0.0831112366 0 0)
(-0.111952657 0 0)
(-0.125878566 0 0)
(-0.147112784 0 0)
(-0.177309798 0 0)
(-0.200431934 0 0)
(-0.22609656 0 0)
(-0.241572482 0 0)
(-0.261656743 0 0)
(-0.288310374 0 0)
(-0.303946949 0 0)
(-0.310247121 0 0)
(-0.318632346 0 0)
(-0.329332464 0 0)
(-0.340723954 0 0)
(-0.35253847 0 0)
(-0.34643163 0 0)
(-0.342302731 0 0)
(-0.349497382 0 0)
(-0.348843859 0 0)
(-0.347630947 0 0)
(-0.326042697 0 0)
(-0.308705246 0 0)
(-0.30574106 0 0)
(-0.29426724 0 0)
(-0.281135837 0 0)
(-0.247756708 0 0)
(-0.220987999 0 0)
(-0.210059643 0 0)
(-0.192412674 0 0)
(-0.174207095 0 0)
(-0.124144888 0 0)
(-0.0872219247 0 0)
(-0.0876515791 0 0)
(-0.0746780442 0 0)
(-0.0371267464 0 0)
(-0.00917827037 0 0)
(0.00461412844 0 0)
(0.0270320655 0 0)
(0.0510105465 0 0)
(0.0756994455 0 0)
(0.0976331933 0 0)
(0.112500452 0 0)
(0.138068952 0 0)
(0.153390552 0 0)
(0.141575444 0 0)
(0.187633278 0 0)
(0.236900363 0 0)
(0.245301608 0 0)
(0.257707952 0 0)
(0.272461761 0 0)
(0.291981928 0 0)
(0.307593809 0 0)
(0.312800542 0 0)
(0.309126707 0 0)
(0.318805867 0 0)
(0.306669208 0 0)
(0.342537795 0 0)
(0.374326539 0 0)
(0.327919181 0 0)
(0.311397863 0 0)
(0.302874293 0 0)
(0.28129197 0 0)
(0.260320509 0 0)
(0.249364171 0 0)
(0.238500976 0 0)
(0.223737184 0 0)
(0.21021906 0 0)
(0.194248309 0 0)
(0.17395423 0 0)
(0.149157406 0 0)
(0.167238833 0 0)
(0.179470956 0 0)
(0.127764623 0 0)
(0.0783608316 0 0)
(0.0847959217 0 0)
(0.085688418 0 0)
(0.0333833259 0 0)
(0.00874981311 0 0)
(-0.00280720111 0 0)
(-0.0238552469 0 0)
(-0.0468194159 0 0)
(-0.0713757249 0 0)
(-0.0909573956 0 0)
(-0.105230339 0 0)
(-0.125024566 0 0)
(-0.14540745 0 0)
(-0.167606601 0 0)
(-0.185486599 0 0)
(-0.195605088 0 0)
(-0.211585038 0 0)
(-0.225952021 0 0)
(-0.244515233 0 0)
(-0.259154758 0 0)
(-0.267018295 0 0)
(-0.279691127 0 0)
(-0.292999202 0 0)
(-0.30750781 0 0)
(-0.33571901 0 0)
(-0.343696129 0 0)
(-0.338081093 0 0)
(-0.366032871 0 0)
(-0.382955987 0 0)
(-0.397800729 0 0)
(-0.414087268 0 0)
(-0.427894882 0 0)
(-0.447421168 0 0)
(-0.483930762 0 0)
(-0.501520527 0 0)
(-0.49784425 0 0)
(-0.520804529 0 0)
(-0.540342434 0 0)
(-0.560742112 0 0)
(-0.578284566 0 0)
(-0.590504758 0 0)
(-0.608436804 0 0)
(-0.647724496 0 0)
(-0.658937653 0 0)
(-0.646528917 0 0)
(-0.671041064 0 0)
(-0.698962463 0 0)
(-0.703360321 0 0)
(-0.70437716 0 0)
(-0.730116816 0 0)
(-0.746360728 0 0)
(-0.781788042 0 0)
(-0.787113101 0 0)
(-0.783569976 0 0)
(-0.812910306 0 0)
(-0.844260335 0 0)
(-0.855422466 0 0)
(-0.862730329 0 0)
(-0.873758975 0 0)
(-0.88067741 0 0)
(-0.906693704 0 0)
(-0.90294077 0 0)
(-0.893363158 0 0)
(-0.910277856 0 0)
(-0.929955643 0 0)
(-0.917673329 0 0)
(-0.90073534 0 0)
(-0.906317791 0 0)
(-0.904926524 0 0)
(-0.913675788 0 0)
(-0.893295551 0 0)
(-0.872204252 0 0)
(-0.874338839 0 0)
(-0.85429106 0 0)
(-0.842369437 0 0)
(-0.818053766 0 0)
(-0.805097608 0 0)
(-0.792166128 0 0)
(-0.784468881 0 0)
(-0.762168048 0 0)
(-0.752717829 0 0)
(-0.749988987 0 0)
(-0.692841842 0 0)
(-0.623523588 0 0)
(-0.599347559 0 0)
(-0.591038653 0 0)
(-0.573524365 0 0)
(-0.553122345 0 0)
(-0.530048093 0 0)
(-0.523265167 0 0)
(-0.508140701 0 0)
(-0.488785682 0 0)
(-0.467665776 0 0)
(-0.449008826 0 0)
(-0.439992927 0 0)
(-0.444685692 0 0)
(-0.44332585 0 0)
(-0.424120239 0 0)
(-0.40329379 0 0)
(-0.392106585 0 0)
(-0.392139131 0 0)
(-0.386638682 0 0)
(-0.363777425 0 0)
(-0.337180196 0 0)
(-0.320026259 0 0)
(-0.314929837 0 0)
(-0.305741087 0 0)
(-0.282177634 0 0)
(-0.257139847 0 0)
(-0.237580776 0 0)
(-0.217870907 0 0)
(-0.207600887 0 0)
(-0.191522943 0 0)
(-0.165071751 0 0)
(-0.151033741 0 0)
(-0.131792298 0 0)
(-0.118959359 0 0)
(-0.113194584 0 0)
(-0.100399251 0 0)
(-0.080272066 0 0)
(-0.0665494524 0 0)
(-0.0605930526 0 0)
(-0.056807003 0 0)
(-0.0530830142 0 0)
(-0.0364357626 0 0)
(-0.0266852415 0 0)
(-0.0459164378 0 0)
(-0.0498920722 0 0)
(-0.0375748168 0 0)
(-0.0327364425 0 0)
(-0.0358531469 0 0)
(-0.0427269532 0 0)
(-0.0551416702 0 0)
(-0.0145634426 0 0)
(0.000549452612 0 0)
(-0.0272201914 0 0)
(-0.0181434318 0 0)
(-0.00380666125 0 0)
(-0.00726921441 0 0)
(-0.015666783 0 0)
(-0.0100468276 0 0)
(0.024930667 0 0)
(0.0484638796 0 0)
(0.0270445774 0 0)
(0.0428631894 0 0)
(0.0880599738 0 0)
(0.106988476 0 0)
(0.118845784 0 0)
(0.130994428 0 0)
(0.146052707 0 0)
(0.231137849 0 0)
(0.3080951 0 0)
(0.290518584 0 0)
(0.318544567 0 0)
(0.372339363 0 0)
(0.396300874 0 0)
(0.423506779 0 0)
(0.452834314 0 0)
(0.488341655 0 0)
(0.528641339 0 0)
(0.575139482 0 0)
(0.617689444 0 0)
(0.646319497 0 0)
(0.681207723 0 0)
(0.71314495 0 0)
(0.754053344 0 0)
(0.796414961 0 0)
(0.816441117 0 0)
(0.842659535 0 0)
(0.908201515 0 0)
(0.972774646 0 0)
(0.993301719 0 0)
(1.02568271 0 0)
(1.06190267 0 0)
(1.08808528 0 0)
(1.11805138 0 0)
(1.12115106 0 0)
(1.15797382 0 0)
(1.1657378 0 0)
(1.13581631 0 0)
(1.14274897 0 0)
(1.12924552 0 0)
(1.13378421 0 0)
(1.12553197 0 0)
(1.10407807 0 0)
(1.10777942 0 0)
(1.12211414 0 0)
(1.10296257 0 0)
(1.06884341 0 0)
(1.05339735 0 0)
(1.03757246 0 0)
(1.01556708 0 0)
(0.992795803 0 0)
(0.964193152 0 0)
(0.935720975 0 0)
(0.909084024 0 0)
(0.898881215 0 0)
(0.863682161 0 0)
(0.833050447 0 0)
(0.831210393 0 0)
(0.830226919 0 0)
(0.789093766 0 0)
(0.7377226 0 0)
(0.70121935 0 0)
(0.653096198 0 0)
(0.622531827 0 0)
(0.569255954 0 0)
(0.540750459 0 0)
(0.48814281 0 0)
(0.456784907 0 0)
(0.405803666 0 0)
(0.376164392 0 0)
(0.339665987 0 0)
(0.311906243 0 0)
(0.26954431 0 0)
(0.216322579 0 0)
(0.180479843 0 0)
(0.158473759 0 0)
(0.134708382 0 0)
(0.0919188316 0 0)
(0.0429906726 0 0)
(0.0149784182 0 0)
(-0.018703513 0 0)
(-0.0519203875 0 0)
(-0.0808739189 0 0)
(-0.117861374 0 0)
(-0.147085384 0 0)
(-0.192817981 0 0)
(-0.230022651 0 0)
(-0.253054681 0 0)
(-0.285679365 0 0)
(-0.315204533 0 0)
(-0.366861321 0 0)
(-0.405579144 0 0)
(-0.424696535 0 0)
(-0.452946041 0 0)
(-0.481433899 0 0)
(-0.534598814 0 0)
(-0.572713457 0 0)
(-0.58781497 0 0)
(-0.611703405 0 0)
(-0.63832992 0 0)
(-0.691571551 0 0)
(-0.72872062 0 0)
(-0.742453637 0 0)
(-0.7644639 0 0)
(-0.791762556 0 0)
)
;

boundaryField
{
    closed
    {
        type            noSlip;
    }
    open
    {
        type            inletOutlet;
        inletValue      nonuniform List<vector> 0();
        value           nonuniform List<vector> 0();
    }
    sides
    {
        type            empty;
    }
    procBoundary1to0
    {
        type            processor;
        value           uniform (0.813679525 0 0);
    }
    procBoundary1to2
    {
        type            processor;
        value           uniform (-0.846015712 0 0);
    }
}


// ************************************************************************* //
