/*--------------------------------*- C++ -*----------------------------------*\
| =========                 |                                                 |
| \\      /  F ield         | OpenFOAM: The Open Source CFD Toolbox           |
|  \\    /   O peration     | Version:  2306                                  |
|   \\  /    A nd           | Website:  www.openfoam.com                      |
|    \\/     M anipulation  |                                                 |
\*---------------------------------------------------------------------------*/
FoamFile
{
    version     2.0;
    format      ascii;
    arch        "LSB;label=32;scalar=64";
    class       volScalarField;
    location    "0.00088";
    object      PV;
}
// * * * * * * * * * * * * * * * * * * * * * * * * * * * * * * * * * * * * * //

dimensions      [0 0 0 0 0 0 0];

internalField   nonuniform List<scalar> 
531
(
-0.00721217311
-0.0069760666
-0.0069750043
-0.00714000589
-0.00721491929
-0.00720951736
-0.00697731006
-0.00697204298
-0.00717050352
-0.00719518057
-0.00697517838
-0.00697439927
-0.0071325482
-0.00720684892
-0.00720143701
-0.0069769605
-0.00697124468
-0.00710457071
-0.00717988205
-0.00720298467
-0.00719973971
-0.00697544867
-0.00697344221
-0.00713638397
-0.00720680304
-0.00720400237
-0.00697551234
-0.00697428505
-0.00712366427
-0.00721107894
-0.00720715274
-0.00697680384
-0.00697217207
-0.00697471759
-0.00714751894
-0.00721168503
-0.00720795699
-0.00697538685
-0.0069742199
-0.0071518851
-0.00722275712
-0.00721669548
-0.0069778755
-0.00697109194
-0.00697612638
-0.00716122768
-0.00722395034
-0.00721539381
-0.00697880304
-0.00697092415
-0.00718957623
-0.00720793489
-0.00697719704
-0.00697258405
-0.0071872453
-0.00721137547
-0.00697507641
-0.00697507967
-0.00716147211
-0.00722673444
-0.00722036989
-0.00697806494
-0.0069723646
-0.00697581568
-0.00715727434
-0.00721456733
-0.00720984233
-0.00697642829
-0.00697443469
-0.00715106076
-0.00721484573
-0.00721207301
-0.00697599285
-0.00697518816
-0.00715295937
-0.00722286328
-0.00721909847
-0.00697652285
-0.00697412642
-0.00697419757
-0.00717695006
-0.00720799237
-0.00697371797
-0.00697507233
-0.00715854232
-0.00722346987
-0.00721820217
-0.00697568539
-0.00697230956
-0.0069732577
-0.00715961254
-0.00719491726
-0.00720995238
-0.00721010532
-0.00697389959
-0.00697577614
-0.00716419871
-0.0072247418
-0.00721640904
-0.00697931233
-0.00697184621
-0.00718957853
-0.00720167161
-0.00697809302
-0.00697283143
-0.00719933838
-0.00719763511
-0.00697630149
-0.00697409585
-0.00697491038
-0.00716495227
-0.00721040391
-0.00722866216
-0.00722854413
-0.00697751083
-0.00697702113
-0.0069769626
-0.00719016995
-0.00722276262
-0.0069772293
-0.00697786384
-0.0069757674
-0.006977245
-0.00712578879
-0.00720548581
-0.00719563621
-0.00722350503
-0.00722070577
-0.00697660625
-0.00697613349
-0.00717071297
-0.00723432129
-0.00722651703
-0.00697749931
-0.00697633061
-0.00697629629
-0.00718516873
-0.00720502346
-0.00697590289
-0.00697560075
-0.00697546389
-0.00715667718
-0.007213931
-0.00722785074
-0.00722618397
-0.00697754997
-0.00697509596
-0.00697750823
-0.00717918405
-0.0072441675
-0.00723641123
-0.00697810876
-0.00697622694
-0.0069767905
-0.00697581593
-0.00715541951
-0.00721114186
-0.00722776336
-0.00722700846
-0.00697700967
-0.00697740546
-0.00697564153
-0.00697734576
-0.00712130976
-0.00720863139
-0.00719818506
-0.00723116197
-0.00722860993
-0.00697658846
-0.00697714747
-0.00697569712
-0.00697725703
-0.00711838366
-0.00720587727
-0.00719653757
-0.00722839438
-0.00722603428
-0.00697640311
-0.00697722741
-0.00697553554
-0.00697710467
-0.00712417923
-0.00721033905
-0.00720011316
-0.00723444322
-0.00723274112
-0.0069757948
-0.00697657822
-0.00697621232
-0.0072008052
-0.00721569328
-0.00697459473
-0.00697601488
-0.00697560167
-0.00718501917
-0.00722524989
-0.00697213187
-0.00697570608
-0.0071930008
-0.00721910608
-0.00696996571
-0.00697651859
-0.00717233003
-0.00722613179
-0.00721800935
-0.00697464418
-0.00697300265
-0.00718271324
-0.00720461133
-0.00697084687
-0.0069752003
-0.00715430089
-0.00721224528
-0.00720939588
-0.00697177276
-0.00697437308
-0.00715403739
-0.00722150276
-0.00721063032
-0.00697334669
-0.00697363756
-0.00697370049
-0.00715168615
-0.00720156496
-0.00721484821
-0.00721361825
-0.00697327482
-0.00697343611
-0.00697581504
-0.00717015672
-0.00722287797
-0.00721537071
-0.00697428214
-0.0069743105
-0.00718649913
-0.00721350117
-0.00697057145
-0.0069773049
-0.00717506195
-0.00723760189
-0.00722611859
-0.00697580622
-0.00697548209
-0.00697598402
-0.00697522399
-0.00716561811
-0.00721464814
-0.00723165278
-0.00723158211
-0.00697274481
-0.00697672013
-0.00697391763
-0.00697577926
-0.00716716192
-0.00722647708
-0.00722221317
-0.00697124071
-0.00697579052
-0.00717267393
-0.00723057012
-0.0072187278
-0.00697524388
-0.00697179576
-0.00719553625
-0.00720689793
-0.00697217571
-0.00697260571
-0.00719634383
-0.00720296553
-0.00697060615
-0.00697343939
-0.00718973449
-0.00720281473
-0.00696845073
-0.00697475549
-0.00716306685
-0.0072118852
-0.00720742994
-0.00697005534
-0.00697477569
-0.00715150976
-0.00721393085
-0.00720529648
-0.00697201281
-0.00697302216
-0.00718142463
-0.00720038879
-0.00696857858
-0.00697564048
-0.00715737938
-0.00721066101
-0.00720630515
-0.00697134003
-0.00697651996
-0.00715732409
-0.00722603351
-0.00721442467
-0.00697397188
-0.00697498464
-0.00697487767
-0.0069744133
-0.00717116842
-0.00721592525
-0.00722605265
-0.00722486612
-0.00697189491
-0.00697440546
-0.00721597019
-0.00721025662
-0.00697097063
-0.00697536327
-0.00697454556
-0.00719054981
-0.00721746078
-0.00696769569
-0.00697668717
-0.00717668533
-0.00722687935
-0.00721432932
-0.00697277763
-0.00697281899
-0.00718853516
-0.00720844329
-0.00696777841
-0.00697580057
-0.00716826491
-0.00721887523
-0.00720748223
-0.00697226572
-0.00697279925
-0.00718537488
-0.00720441448
-0.00696751884
-0.00697554569
-0.00716411909
-0.00721681959
-0.00720560528
-0.00697182498
-0.00697238647
-0.00718472374
-0.00720318173
-0.00696718277
-0.00697521022
-0.00716189143
-0.00721522683
-0.00720391098
-0.00697175831
-0.00697200165
-0.00718349842
-0.00719977563
-0.00696757291
-0.00697467933
-0.00715601759
-0.00720909425
-0.00720107465
-0.00697030575
-0.00697299088
-0.00715371488
-0.00720921528
-0.00720424339
-0.00696889968
-0.00697466809
-0.00716085106
-0.00721914717
-0.00720625887
-0.00697345222
-0.00697088146
-0.00719381373
-0.00719927782
-0.00697082681
-0.00697262394
-0.00720038146
-0.00719276425
-0.00696929133
-0.00718408938
-0.00721946235
-0.00696950941
-0.00697495875
-0.00697249526
-0.00718303784
-0.00721996465
-0.00696794858
-0.00697703223
-0.00717542554
-0.0072273857
-0.00721130555
-0.00697533045
-0.00697185346
-0.00719976173
-0.00718890843
-0.00697161579
-0.00715546392
-0.00722729121
-0.00696902614
-0.00697597188
-0.00718718015
-0.00721844396
-0.00696875031
-0.00697702552
-0.00717904879
-0.00723534243
-0.00721820532
-0.00697430583
-0.00697466342
-0.00697417606
-0.00719588288
-0.00720411322
-0.00697082693
-0.0069743771
-0.00697307332
-0.00717406401
-0.00722161983
-0.0072142039
-0.00697096946
-0.0069727467
-0.00717006901
-0.00721468118
-0.00720832659
-0.00697089562
-0.00697275095
-0.00714947925
-0.00720769141
-0.00720271537
-0.00697054327
-0.00697265334
-0.00714470264
-0.00720568553
-0.00720130155
-0.0069703842
-0.00697204463
-0.00714408538
-0.00720550597
-0.00720244156
-0.00696953356
-0.00697202386
-0.00715251861
-0.00721034843
-0.00720452723
-0.00697117269
-0.00697101802
-0.00717929754
-0.00720171509
-0.00696837856
-0.00697291193
-0.00715966384
-0.00721205279
-0.00720583319
-0.00697159338
-0.00697081811
-0.00718014442
-0.00720249758
-0.00696874773
-0.0069732759
-0.00715978187
-0.00721183614
-0.00720575804
-0.0069722792
-0.0069705979
-0.00717956345
-0.00719997959
-0.00696994985
-0.00697265157
-0.00715664892
-0.00720674862
-0.00720402806
-0.006970636
-0.00697243276
-0.00715241992
-0.00720958799
-0.00720441721
-0.00697257943
-0.00697063708
-0.00717793945
-0.00719455578
-0.00697083415
-0.00697235625
-0.00716579877
-0.00719567596
-0.00720870145
-0.00720862613
-0.00697198856
-0.00697264431
-0.00697256023
-0.00717226153
-0.00721174004
-0.00697030731
-0.00697400744
-0.00717138246
-0.00721936528
-0.00721321116
-0.00697354142
-0.00697122683
-0.00718390524
-0.0072098217
-0.00697063733
-0.00697397909
-0.00717317927
-0.00721951752
-0.00721224752
-0.00697469339
-0.00697049538
-0.00718689831
-0.00720216606
-0.00697273571
-0.00697245986
-0.00718316276
-0.0072003002
-0.00697119568
-0.00697378631
-0.00715915064
-0.00720724986
-0.00720220342
-0.00697318602
-0.00697155274
-0.0071526007
-0.00720545904
-0.00720367211
-0.00697138757
-0.00697256534
-0.00715466236
-0.00720949593
-0.00720467927
-0.00697312429
-0.00697043902
-0.00717767672
-0.00719893594
-0.00697136439
-0.00697242089
-0.00715744552
-0.00720576763
-0.00720226079
)
;

boundaryField
{
    closed
    {
        type            zeroGradient;
    }
    open
    {
        type            zeroGradient;
    }
    sides
    {
        type            empty;
    }
    procBoundary3to2
    {
        type            processor;
        value           uniform -0.00721512428;
    }
    procBoundary3to4
    {
        type            processor;
        value           uniform -0.00697213896;
    }
}


// ************************************************************************* //
