/*--------------------------------*- C++ -*----------------------------------*\
| =========                 |                                                 |
| \\      /  F ield         | OpenFOAM: The Open Source CFD Toolbox           |
|  \\    /   O peration     | Version:  2306                                  |
|   \\  /    A nd           | Website:  www.openfoam.com                      |
|    \\/     M anipulation  |                                                 |
\*---------------------------------------------------------------------------*/
FoamFile
{
    version     2.0;
    format      ascii;
    arch        "LSB;label=32;scalar=64";
    class       volScalarField;
    location    "0.00034";
    object      alpha;
}
// * * * * * * * * * * * * * * * * * * * * * * * * * * * * * * * * * * * * * //

dimensions      [1 -1 -1 0 0 0 0];

internalField   nonuniform List<scalar> 
530
(
3.61037524e-05
3.58775397e-05
3.5834094e-05
3.58339121e-05
3.58338872e-05
3.5833887e-05
3.5833887e-05
3.5833887e-05
3.5833887e-05
3.5833887e-05
3.5833887e-05
3.5833887e-05
3.5833887e-05
3.5833887e-05
3.5833887e-05
3.5833887e-05
3.5833887e-05
3.5833887e-05
3.5833887e-05
3.5833887e-05
3.5833887e-05
3.5833887e-05
3.5833887e-05
3.5833887e-05
3.5833887e-05
3.5833887e-05
3.5833887e-05
3.5833887e-05
3.5833887e-05
3.5833887e-05
3.5833887e-05
3.5833887e-05
3.5833887e-05
3.5833887e-05
3.5833887e-05
3.5833887e-05
3.5833887e-05
3.5833887e-05
3.5833887e-05
3.5833887e-05
3.5833887e-05
3.5833887e-05
3.5833887e-05
3.5833887e-05
3.5833887e-05
3.5833887e-05
3.5833887e-05
3.5833887e-05
3.5833887e-05
3.5833887e-05
3.5833887e-05
3.5833887e-05
3.5833887e-05
3.5833887e-05
3.5833887e-05
3.5833887e-05
3.5833887e-05
3.5833887e-05
3.5833887e-05
3.5833887e-05
3.5833887e-05
3.5833887e-05
3.5833887e-05
3.5833887e-05
3.5833887e-05
3.5833887e-05
3.5833887e-05
3.5833887e-05
3.5833887e-05
3.5833887e-05
3.5833887e-05
3.5833887e-05
3.5833887e-05
3.5833887e-05
3.5833887e-05
3.5833887e-05
3.5833887e-05
3.5833887e-05
3.5833887e-05
3.5833887e-05
3.5833887e-05
3.5833887e-05
3.5833887e-05
3.58338871e-05
3.58338873e-05
3.58338877e-05
3.58338883e-05
3.58338928e-05
3.58339113e-05
3.583391e-05
3.58338326e-05
3.58340963e-05
3.58351919e-05
3.58341248e-05
3.58286377e-05
3.58367618e-05
3.58678454e-05
3.58349379e-05
3.5750988e-05
3.57922438e-05
3.62103072e-05
3.59460385e-05
3.5441423e-05
3.56894356e-05
3.68764951e-05
3.68141361e-05
3.57166749e-05
3.53025149e-05
3.57551542e-05
3.68116053e-05
3.68114043e-05
3.50706131e-05
3.53432294e-05
3.68630692e-05
3.67694387e-05
3.57173011e-05
3.52652197e-05
3.57680402e-05
3.67972109e-05
3.67995493e-05
3.51593688e-05
3.51625988e-05
3.60765414e-05
3.67862575e-05
3.6538836e-05
3.52218921e-05
3.57232124e-05
3.6807366e-05
3.67617021e-05
3.51685028e-05
3.51704262e-05
3.61127653e-05
3.67774688e-05
3.62690539e-05
3.52361595e-05
3.57551597e-05
3.67970428e-05
3.64782502e-05
3.51049461e-05
3.52512091e-05
3.67459337e-05
3.67756381e-05
3.58512934e-05
3.52515808e-05
3.57971258e-05
3.68020502e-05
3.58638383e-05
3.52404107e-05
3.57408056e-05
3.68328147e-05
3.68014964e-05
3.52383519e-05
3.56137558e-05
3.68484854e-05
3.67654113e-05
3.55929463e-05
3.56691199e-05
3.57821995e-05
3.57889698e-05
3.5984489e-05
3.6322497e-05
3.57524539e-05
3.5464506e-05
3.57782077e-05
3.6813015e-05
3.67890684e-05
3.51568454e-05
3.55133465e-05
3.68571531e-05
3.67841459e-05
3.54820368e-05
3.53341751e-05
3.63448213e-05
3.67891158e-05
3.57361666e-05
3.52304544e-05
3.57684223e-05
3.68060082e-05
3.67758904e-05
3.51365437e-05
3.53728639e-05
3.68382467e-05
3.67717105e-05
3.57282916e-05
3.52180904e-05
3.57713627e-05
3.68038957e-05
3.67844834e-05
3.5168221e-05
3.55509873e-05
3.68030287e-05
3.67014358e-05
3.51730344e-05
3.54493595e-05
3.68055306e-05
3.67222595e-05
3.51861192e-05
3.56318953e-05
3.67956803e-05
3.65252538e-05
3.5150136e-05
3.5688109e-05
3.68246788e-05
3.67539835e-05
3.53108046e-05
3.5358454e-05
3.67302894e-05
3.67758928e-05
3.57314554e-05
3.52265656e-05
3.57757975e-05
3.68104468e-05
3.68074023e-05
3.51658559e-05
3.5582779e-05
3.68385485e-05
3.67807121e-05
3.53072181e-05
3.52855746e-05
3.61348756e-05
3.67804888e-05
3.58639284e-05
3.52247565e-05
3.5742731e-05
3.68165656e-05
3.67949103e-05
3.51667536e-05
3.5633539e-05
3.68139712e-05
3.67358999e-05
3.51852882e-05
3.54782699e-05
3.68463776e-05
3.67688732e-05
3.55983408e-05
3.52311923e-05
3.58084188e-05
3.68003943e-05
3.67960545e-05
3.51565115e-05
3.5565862e-05
3.6856261e-05
3.67820969e-05
3.55141892e-05
3.52285834e-05
3.58097348e-05
3.68112493e-05
3.67840486e-05
3.53112286e-05
3.55721727e-05
3.68584354e-05
3.67684082e-05
3.56398763e-05
3.5681893e-05
3.57519199e-05
3.57388775e-05
3.58557798e-05
3.68329903e-05
3.68100919e-05
3.52142253e-05
3.56188142e-05
3.6882615e-05
3.67780517e-05
3.56900126e-05
3.52698183e-05
3.62630288e-05
3.6802023e-05
3.57347154e-05
3.57341515e-05
3.58969974e-05
3.57546369e-05
3.56588305e-05
3.58321563e-05
3.68402129e-05
3.6796556e-05
3.52591994e-05
3.55754691e-05
3.68785237e-05
3.6797863e-05
3.56081546e-05
3.52779321e-05
3.58214024e-05
3.68170073e-05
3.67865961e-05
3.52480654e-05
3.5248895e-05
3.59450674e-05
3.67978843e-05
3.67754713e-05
3.51915918e-05
3.51907926e-05
3.5878448e-05
3.67875567e-05
3.67684629e-05
3.51624755e-05
3.54412326e-05
3.6845966e-05
3.67717353e-05
3.572286e-05
3.52346539e-05
3.57751403e-05
3.68113992e-05
3.67931932e-05
3.52806439e-05
3.56882037e-05
3.68036844e-05
3.65558522e-05
3.51445832e-05
3.57691903e-05
3.67845989e-05
3.57562324e-05
3.525876e-05
3.58164138e-05
3.67908854e-05
3.65713677e-05
3.52326554e-05
3.57690956e-05
3.68082764e-05
3.64540948e-05
3.51767688e-05
3.57145428e-05
3.68342273e-05
3.67711159e-05
3.53806921e-05
3.52896395e-05
3.58556929e-05
3.68041847e-05
3.66758934e-05
3.52327641e-05
3.57774572e-05
3.68069807e-05
3.6463061e-05
3.51465456e-05
3.54773941e-05
3.68374986e-05
3.67642388e-05
3.5719884e-05
3.52749389e-05
3.58159976e-05
3.68078969e-05
3.67678102e-05
3.52327289e-05
3.5239787e-05
3.60193378e-05
3.67813664e-05
3.63850434e-05
3.52403286e-05
3.5308294e-05
3.62805536e-05
3.67755024e-05
3.60338459e-05
3.52067432e-05
3.53776278e-05
3.62988043e-05
3.67935443e-05
3.61055356e-05
3.53399199e-05
3.57671685e-05
3.67921299e-05
3.59031117e-05
3.515482e-05
3.54834943e-05
3.65557833e-05
3.67901475e-05
3.58744593e-05
3.53152785e-05
3.58276948e-05
3.67908556e-05
3.5790144e-05
3.52975678e-05
3.59000983e-05
3.6786465e-05
3.57936209e-05
3.52183809e-05
3.57727773e-05
3.68049808e-05
3.64257521e-05
3.52243421e-05
3.54055139e-05
3.66823625e-05
3.67655111e-05
3.5721492e-05
3.53304956e-05
3.59683917e-05
3.67739919e-05
3.5810855e-05
3.51350083e-05
3.56639159e-05
3.68234384e-05
3.67860492e-05
3.57119211e-05
3.53469404e-05
3.60909484e-05
3.67793871e-05
3.57094613e-05
3.52344493e-05
3.58340335e-05
3.6795256e-05
3.61985061e-05
3.51974019e-05
3.56536265e-05
3.68278584e-05
3.67739818e-05
3.55134626e-05
3.54030036e-05
3.67135294e-05
3.67761704e-05
3.55891443e-05
3.53641137e-05
3.64166289e-05
3.67804993e-05
3.57068423e-05
3.52138467e-05
3.57844254e-05
3.68189815e-05
3.67585525e-05
3.53184361e-05
3.5405813e-05
3.65296453e-05
3.67788794e-05
3.58418494e-05
3.52471912e-05
3.53814273e-05
3.59189747e-05
3.68393567e-05
3.67743947e-05
3.55204189e-05
3.51719985e-05
3.57147793e-05
3.68395358e-05
3.67978922e-05
3.57196247e-05
3.51661102e-05
3.56825297e-05
3.68413769e-05
3.6795422e-05
3.57199816e-05
3.52157212e-05
3.57247762e-05
3.68393706e-05
3.67975193e-05
3.54223682e-05
3.52402479e-05
3.58499737e-05
3.6801073e-05
3.67025945e-05
3.53645265e-05
3.5719209e-05
3.68045154e-05
3.58461138e-05
3.52723515e-05
3.5959044e-05
3.67654302e-05
3.5712081e-05
3.52160858e-05
3.57917154e-05
3.6813543e-05
3.67460786e-05
3.52903846e-05
3.53934043e-05
3.67352047e-05
3.67717897e-05
3.57257735e-05
3.53196432e-05
3.58525552e-05
3.6795148e-05
3.59721149e-05
3.51189688e-05
3.56953935e-05
3.6845114e-05
3.67824812e-05
3.57150222e-05
3.53627026e-05
3.61633827e-05
3.67784268e-05
3.57143591e-05
3.5202167e-05
3.57701782e-05
3.68115543e-05
3.67173147e-05
3.52421693e-05
3.54987287e-05
3.68301464e-05
3.67677108e-05
3.56341884e-05
3.53425503e-05
3.61555629e-05
3.67775112e-05
3.57484394e-05
3.51758792e-05
3.57395364e-05
3.68153088e-05
3.67602072e-05
3.526329e-05
3.53754077e-05
3.68016199e-05
3.67702586e-05
3.57378686e-05
3.53354764e-05
3.62012592e-05
3.67815067e-05
3.57229478e-05
3.5240361e-05
3.57933219e-05
3.67998413e-05
3.64727069e-05
3.51194588e-05
3.54760144e-05
3.68401068e-05
3.67795167e-05
3.5725453e-05
3.53906924e-05
3.62947662e-05
3.67972203e-05
3.57116683e-05
3.52939399e-05
3.60467617e-05
3.67898865e-05
3.58897575e-05
3.51103017e-05
3.56769282e-05
3.68518576e-05
3.68139749e-05
3.57160971e-05
3.53732852e-05
3.62002829e-05
3.67964185e-05
3.57154379e-05
3.50998277e-05
3.56899631e-05
)
;

boundaryField
{
    closed
    {
        type            calculated;
        value           uniform 5.12182849e-05;
    }
    open
    {
        type            calculated;
        value           nonuniform List<scalar> 0();
    }
    sides
    {
        type            empty;
    }
    procBoundary0to1
    {
        type            processor;
        value           uniform 3.68504808e-05;
    }
}


// ************************************************************************* //
