/*--------------------------------*- C++ -*----------------------------------*\
| =========                 |                                                 |
| \\      /  F ield         | OpenFOAM: The Open Source CFD Toolbox           |
|  \\    /   O peration     | Version:  2306                                  |
|   \\  /    A nd           | Website:  www.openfoam.com                      |
|    \\/     M anipulation  |                                                 |
\*---------------------------------------------------------------------------*/
FoamFile
{
    version     2.0;
    format      ascii;
    arch        "LSB;label=32;scalar=64";
    class       volScalarField;
    location    "0.00034";
    object      H2;
}
// * * * * * * * * * * * * * * * * * * * * * * * * * * * * * * * * * * * * * //

dimensions      [0 0 0 0 0 0 0];

internalField   nonuniform List<scalar> 
530
(
0.0108309921
0.0108062906
0.0108034671
0.0108034615
0.0108034603
0.0108034603
0.0108034603
0.0108034603
0.0108034603
0.0108034603
0.0108034603
0.0108034603
0.0108034603
0.0108034603
0.0108034603
0.0108034603
0.0108034603
0.0108034603
0.0108034603
0.0108034603
0.0108034603
0.0108034603
0.0108034603
0.0108034603
0.0108034603
0.0108034603
0.0108034603
0.0108034603
0.0108034603
0.0108034603
0.0108034603
0.0108034603
0.0108034603
0.0108034603
0.0108034603
0.0108034603
0.0108034603
0.0108034603
0.0108034603
0.0108034603
0.0108034603
0.0108034603
0.0108034603
0.0108034603
0.0108034603
0.0108034603
0.0108034603
0.0108034603
0.0108034603
0.0108034603
0.0108034603
0.0108034603
0.0108034603
0.0108034603
0.0108034603
0.0108034603
0.0108034603
0.0108034603
0.0108034603
0.0108034603
0.0108034603
0.0108034603
0.0108034603
0.0108034603
0.0108034603
0.0108034603
0.0108034603
0.0108034603
0.0108034603
0.0108034603
0.0108034603
0.0108034603
0.0108034603
0.0108034603
0.0108034603
0.0108034603
0.0108034603
0.0108034603
0.0108034603
0.0108034603
0.0108034603
0.0108034603
0.0108034603
0.0108034603
0.0108034603
0.0108034603
0.0108034601
0.0108034609
0.010803466
0.0108034588
0.0108034103
0.0108034954
0.010803922
0.0108033366
0.0108006555
0.0108040376
0.0108166866
0.0108024619
0.010750728
0.0107813243
0.010934766
0.0108478088
0.0106790837
0.0107008142
0.0110142856
0.0110204428
0.0107157519
0.010667926
0.0107412045
0.0110155968
0.011065846
0.0106507275
0.0106713322
0.0110133153
0.0110325965
0.0107175535
0.010668812
0.0107537353
0.0110165125
0.0110604911
0.0106593489
0.010660303
0.0108903675
0.0110194209
0.0110279695
0.0106635662
0.0107004416
0.0110160728
0.0110675858
0.0106591252
0.0106627697
0.0109030829
0.0110220366
0.0109523342
0.010665306
0.0107137753
0.0110199298
0.0110117214
0.0106580152
0.0106666416
0.0110696568
0.0110252971
0.0108114086
0.0106653629
0.0107832699
0.0110250826
0.010816963
0.0106625336
0.0107349855
0.0110127737
0.0110662981
0.0106596591
0.0106916975
0.0110060529
0.0110620852
0.0106840872
0.010696999
0.0107669088
0.0107515319
0.0108599533
0.0109686617
0.010751425
0.0106809069
0.0107598472
0.0110123715
0.0110698172
0.0106564289
0.0106819895
0.0110166091
0.0110375814
0.0106813264
0.0106712298
0.0109749843
0.0110296182
0.0107500351
0.0106632864
0.0107556945
0.0110159621
0.0110714632
0.010658477
0.0106740863
0.0110333332
0.0110344521
0.010717249
0.0106647714
0.0107520167
0.0110173278
0.0110708959
0.010659465
0.0106918921
0.011019581
0.0110742037
0.0106616287
0.0106874668
0.0110233936
0.0110787189
0.0106630432
0.0106983326
0.0110213803
0.0110250747
0.0106572711
0.0106976704
0.0110135139
0.0110491283
0.010672432
0.010674552
0.0110749863
0.0110339328
0.0107170873
0.0106648765
0.0107579961
0.0110165164
0.0110684413
0.0106570609
0.0106889071
0.0110136582
0.0110418295
0.0106693406
0.0106702065
0.0109107533
0.0110270806
0.0108160502
0.0106640963
0.0107247795
0.0110172619
0.0110743688
0.0106578881
0.0106973502
0.0110173551
0.011076178
0.0106607949
0.0106842236
0.0110220036
0.011040765
0.0106888055
0.010666885
0.0107732327
0.0110177429
0.0110733162
0.0106569104
0.0106875083
0.0110128017
0.0110407381
0.0106808701
0.0106650927
0.0107778143
0.0110133423
0.0110663292
0.0106666617
0.0106883563
0.0110110603
0.011063465
0.010689199
0.0106982097
0.0107319087
0.0107141027
0.0108012997
0.0110055933
0.0110762814
0.0106572279
0.0106898628
0.0110072854
0.0110360371
0.0106906908
0.0106678213
0.0109507973
0.0110441059
0.0107088421
0.0107128067
0.0108252991
0.0107456636
0.0106883096
0.0107905334
0.0110047841
0.0110686933
0.0106610336
0.0106860966
0.011012148
0.0110359082
0.010686079
0.0106667789
0.0107858188
0.0110126756
0.0110652533
0.0106633535
0.0106665246
0.0108404534
0.0110148379
0.0110678113
0.0106611152
0.010664091
0.0108078284
0.0110181223
0.0110798591
0.0106604801
0.0106798199
0.0110251803
0.0110369155
0.0107104777
0.0106659033
0.0107526648
0.0110159983
0.0110743972
0.01066685
0.0106986772
0.0110208185
0.011032579
0.0106606376
0.0107503211
0.0110451215
0.0107365547
0.0106701246
0.0107793994
0.0110207187
0.0110362194
0.0106641331
0.0107128753
0.0110203972
0.0110052333
0.0106592279
0.0106975729
0.0110169459
0.0110468323
0.0106757218
0.010671252
0.0107985379
0.0110188085
0.0110634174
0.0106630779
0.0107119131
0.0110200472
0.0110078251
0.0106593795
0.0106820331
0.0110302418
0.011040372
0.0107100046
0.0106684722
0.0107795862
0.0110160706
0.0110819957
0.0106641673
0.0106691161
0.0108692733
0.011021065
0.0109854805
0.0106662701
0.0106708986
0.0109564935
0.0110254897
0.0108794652
0.0106645426
0.0106717113
0.0109620312
0.011021961
0.0109029056
0.0106715458
0.0107608816
0.0110292869
0.0108331201
0.0106616672
0.010677325
0.011035578
0.0110262697
0.0108230321
0.0106703488
0.0107984343
0.0110333384
0.0107875043
0.0106690864
0.010828519
0.0110348717
0.0107875959
0.0106637259
0.0107590476
0.0110221997
0.0109973927
0.0106671202
0.0106791523
0.0110695956
0.0110389626
0.0107368884
0.0106728874
0.0108542525
0.0110345494
0.0107957531
0.0106615815
0.0106871993
0.0110334224
0.0110355463
0.0107244872
0.0106741309
0.0108970244
0.0110400205
0.0107372314
0.010665719
0.0107975333
0.0110254586
0.010931327
0.0106641617
0.0106909511
0.0110299396
0.0110467708
0.0106868428
0.0106782293
0.0110769715
0.0110464529
0.0106907513
0.0106752879
0.0109955996
0.0110391653
0.010728239
0.0106635301
0.0107666126
0.0110175448
0.0110806847
0.0106724073
0.0106801367
0.011028348
0.0110275797
0.0108067136
0.0106650755
0.0106703389
0.0108296327
0.0110082449
0.0110484235
0.0106809063
0.0106650122
0.0107263149
0.0110206991
0.0110292954
0.0107393876
0.0106622731
0.0106972328
0.0110243021
0.0110310378
0.0107384169
0.0106638147
0.0107329181
0.011016436
0.0110470521
0.0106767962
0.0106670208
0.010797798
0.0110185686
0.0110712726
0.0106756727
0.0107196345
0.0110440634
0.0108084579
0.0106710728
0.0108508449
0.0110440071
0.0107325873
0.0106649018
0.0107709666
0.0110179583
0.0110776602
0.010671585
0.0106784754
0.011069812
0.0110372981
0.010734004
0.0106718475
0.0108083599
0.0110295624
0.0108591684
0.0106576296
0.0106954009
0.0110209958
0.011039914
0.0106982188
0.0106761
0.01092019
0.0110397164
0.0107353676
0.0106637654
0.0107571422
0.0110202573
0.0110760871
0.0106667382
0.0106847464
0.0110318518
0.0110446757
0.010691702
0.0106752784
0.0109176263
0.0110360907
0.0107612359
0.0106619399
0.0107369488
0.011019603
0.0110690213
0.0106697358
0.0106770407
0.0110465605
0.0110414434
0.0106979252
0.0106744313
0.0109319828
0.0110370996
0.010734156
0.0106670639
0.0107730143
0.0110230837
0.0110098456
0.0106579917
0.0106810081
0.0110257268
0.011035552
0.0107044045
0.0106772178
0.0109602033
0.0110362976
0.0107028638
0.0106698903
0.0108820336
0.0110275653
0.0108281858
0.0106570928
0.0106875703
0.0110181639
0.0110275227
0.0107021212
0.0106750003
0.010931724
0.0110315884
0.0107379645
0.0106557451
0.0107112873
)
;

boundaryField
{
    closed
    {
        type            calculated;
        value           uniform 0.0144518327;
    }
    open
    {
        type            calculated;
        value           nonuniform List<scalar> 0();
    }
    sides
    {
        type            empty;
    }
    procBoundary0to1
    {
        type            processor;
        value           uniform 0.0110120596;
    }
}


// ************************************************************************* //
