/*--------------------------------*- C++ -*----------------------------------*\
| =========                 |                                                 |
| \\      /  F ield         | OpenFOAM: The Open Source CFD Toolbox           |
|  \\    /   O peration     | Version:  2306                                  |
|   \\  /    A nd           | Website:  www.openfoam.com                      |
|    \\/     M anipulation  |                                                 |
\*---------------------------------------------------------------------------*/
FoamFile
{
    version     2.0;
    format      ascii;
    arch        "LSB;label=32;scalar=64";
    class       volScalarField;
    location    "0.00034";
    object      rho;
}
// * * * * * * * * * * * * * * * * * * * * * * * * * * * * * * * * * * * * * //

dimensions      [1 -3 0 0 0 0 0];

internalField   nonuniform List<scalar> 
530
(
0.9298714
0.936602935
0.937869244
0.937885987
0.937890335
0.937903701
0.937944309
0.938007908
0.938070206
0.938079167
0.938066172
0.938099748
0.938185254
0.938273639
0.938355103
0.938489156
0.938686151
0.938916781
0.939145642
0.939340903
0.939489584
0.939616027
0.939768357
0.939967184
0.94021063
0.940471137
0.940698238
0.940855658
0.940951417
0.94100298
0.940992928
0.940898182
0.940738673
0.940564423
0.940417892
0.940314
0.940251607
0.940229482
0.940250563
0.940318763
0.940433954
0.940588968
0.940770013
0.940960777
0.941145924
0.941311364
0.941444257
0.941534679
0.941578017
0.941576533
0.941538921
0.941477864
0.941406699
0.94133651
0.941274516
0.941223913
0.941184807
0.94115552
0.941133747
0.941117337
0.941104665
0.941094719
0.941087013
0.94108144
0.941078116
0.941077248
0.941079027
0.941083566
0.941090855
0.941100756
0.94111301
0.941127264
0.94114311
0.941160121
0.941177897
0.941196086
0.94121441
0.941232662
0.941250702
0.941268444
0.941285835
0.941302842
0.941319439
0.941335601
0.941351294
0.94136649
0.941381157
0.941395152
0.941408146
0.9414212
0.941436124
0.941439771
0.941416666
0.941461815
0.941647072
0.941400998
0.940431704
0.941481096
0.944178877
0.942853438
0.929688056
0.937994956
0.954972539
0.946168901
0.907574705
0.909806732
0.945337793
0.95972516
0.944138939
0.909864395
0.910403911
0.967675308
0.958372057
0.908076078
0.911528478
0.945362274
0.961168058
0.943766698
0.910415025
0.910799704
0.964750678
0.964667196
0.93404952
0.910844767
0.919423014
0.962619835
0.945451769
0.910092472
0.912219087
0.964443266
0.964493087
0.93292877
0.911204554
0.927943698
0.962178828
0.944284958
0.91050776
0.921365076
0.966739571
0.96166851
0.912794218
0.911309266
0.941135421
0.961638011
0.942884432
0.910420433
0.940761877
0.961976476
0.944733195
0.909241486
0.910892177
0.961969971
0.949261086
0.908638216
0.912107681
0.94976084
0.947414574
0.943430335
0.943270931
0.937017469
0.926382144
0.944368655
0.954395861
0.943574928
0.909944234
0.911377328
0.96486666
0.95263284
0.908456638
0.911207272
0.953761824
0.958852908
0.925666076
0.910948549
0.944852156
0.962385574
0.943866568
0.910210201
0.911834445
0.965654645
0.957507724
0.909263173
0.911579485
0.945137097
0.962862656
0.943764521
0.910275013
0.911508224
0.964505167
0.951548229
0.910319388
0.91440655
0.964389469
0.95512052
0.910263617
0.913726094
0.963947249
0.948775923
0.910574755
0.919900708
0.965066154
0.946667047
0.90947702
0.912297877
0.959667734
0.957987042
0.913380351
0.911368843
0.944981213
0.962496558
0.943559517
0.909986462
0.910636315
0.964460253
0.950220398
0.908978365
0.911277572
0.959680545
0.960501882
0.932193529
0.91112648
0.940695362
0.962522861
0.944611084
0.909767273
0.911116455
0.964438023
0.948632152
0.909853545
0.9131759
0.963849904
0.953886018
0.908774677
0.911657247
0.949618937
0.962363563
0.942512538
0.91032001
0.91105334
0.964768471
0.95076662
0.908328646
0.911191838
0.952435258
0.962393656
0.942451264
0.909891711
0.911390104
0.959413099
0.950558546
0.908230293
0.911900593
0.948086456
0.946860828
0.944298672
0.944721646
0.940996093
0.909056906
0.91059341
0.962660511
0.948894437
0.907358045
0.911285854
0.946245515
0.960981807
0.928127599
0.910546035
0.944869616
0.944882435
0.939675755
0.944206135
0.947370528
0.94175771
0.908817991
0.911003385
0.961159505
0.95038335
0.907573265
0.910620744
0.949179718
0.960674346
0.942110812
0.909721658
0.911329608
0.961664403
0.961740585
0.938227543
0.910417509
0.911752883
0.963680841
0.963806744
0.940367817
0.910827106
0.912139779
0.964734562
0.955160658
0.908887367
0.91158756
0.945300677
0.962288879
0.943651729
0.910009305
0.911257943
0.960652634
0.94675864
0.910344067
0.918978117
0.965447155
0.943870633
0.911277035
0.944299262
0.961596634
0.942391902
0.910817754
0.918507643
0.962369854
0.943963265
0.910223381
0.922235246
0.964267242
0.945800603
0.909297086
0.911800241
0.957345636
0.960536833
0.941187146
0.910362965
0.915231626
0.962351918
0.94372616
0.910276863
0.921964454
0.965381621
0.954000397
0.909317918
0.911961502
0.945465522
0.960965443
0.942411375
0.910179822
0.9122576
0.962341968
0.962241858
0.935963375
0.911123517
0.924344159
0.962113432
0.959771081
0.927700172
0.911347882
0.935378306
0.963252507
0.957215461
0.927087117
0.910645593
0.933067094
0.958557056
0.94379315
0.910730763
0.939418571
0.964964674
0.953415425
0.91889482
0.910712178
0.940254188
0.959311922
0.941739436
0.910707194
0.942864106
0.959860971
0.939399336
0.910819331
0.94270398
0.962524906
0.943403608
0.909987598
0.922738283
0.962356784
0.95610519
0.914669575
0.911461395
0.944895506
0.958584395
0.937056217
0.911059381
0.941960467
0.96530003
0.946715855
0.909275134
0.910580241
0.945075196
0.957888739
0.933061126
0.910808524
0.945069102
0.96167985
0.941131102
0.910059885
0.929577513
0.962936748
0.947075258
0.908934589
0.910968162
0.952068815
0.955822516
0.913350608
0.910852464
0.949379316
0.957108505
0.922642169
0.910585541
0.944988938
0.962178752
0.942541647
0.908983654
0.911729419
0.958600585
0.955647643
0.919023257
0.910431543
0.940603666
0.960917602
0.956158794
0.938210379
0.908087224
0.910749319
0.951372946
0.963606117
0.944587556
0.90816805
0.909692305
0.944385722
0.963687946
0.945566142
0.908097281
0.909750063
0.944328501
0.961874165
0.944175476
0.908033575
0.909792958
0.954688355
0.961022911
0.940186803
0.909322997
0.913245492
0.956705518
0.944252053
0.90941187
0.94014824
0.959857914
0.936571338
0.910694463
0.944331751
0.961632805
0.941801614
0.908674052
0.911613007
0.959041391
0.955471558
0.91183023
0.910209179
0.943719166
0.957876328
0.939656337
0.909252701
0.935803001
0.964667432
0.944586091
0.90735335
0.909698274
0.943921084
0.956252825
0.929683543
0.909751184
0.943789272
0.961627126
0.94201795
0.908316988
0.912128946
0.960172886
0.951354939
0.907706351
0.909979783
0.946547744
0.956669051
0.929649309
0.909464241
0.942403662
0.962228929
0.942691694
0.907895604
0.910296997
0.959196635
0.955313655
0.908559264
0.909568962
0.942646072
0.956597897
0.92791931
0.909054368
0.942952496
0.959748893
0.940702433
0.908196061
0.919235303
0.963782474
0.951483455
0.90675052
0.908929484
0.942743061
0.954402916
0.92471963
0.908249504
0.943084319
0.957618127
0.932433701
0.90833576
0.937297042
0.963822381
0.944051068
0.906018696
0.907408107
0.942774389
0.954707592
0.927432088
0.907983069
0.942651322
0.963981286
0.943432486
)
;

boundaryField
{
    closed
    {
        type            calculated;
        value           uniform 0.582716595;
    }
    open
    {
        type            calculated;
        value           nonuniform List<scalar> 0();
    }
    sides
    {
        type            empty;
    }
    procBoundary0to1
    {
        type            processor;
        value           uniform 0.90583187;
    }
}


// ************************************************************************* //
