/*--------------------------------*- C++ -*----------------------------------*\
| =========                 |                                                 |
| \\      /  F ield         | OpenFOAM: The Open Source CFD Toolbox           |
|  \\    /   O peration     | Version:  2306                                  |
|   \\  /    A nd           | Website:  www.openfoam.com                      |
|    \\/     M anipulation  |                                                 |
\*---------------------------------------------------------------------------*/
FoamFile
{
    version     2.0;
    format      ascii;
    arch        "LSB;label=32;scalar=64";
    class       volScalarField;
    location    "0.00034";
    object      sourcePV;
}
// * * * * * * * * * * * * * * * * * * * * * * * * * * * * * * * * * * * * * //

dimensions      [1 -3 -1 0 0 0 0];

internalField   nonuniform List<scalar> 
530
(
0.0800158667
0.0818016712
0.0815341037
0.0815307372
0.0815304443
0.0815304429
0.0815304428
0.0815304428
0.0815304428
0.0815304428
0.0815304428
0.0815304428
0.0815304428
0.0815304428
0.0815304428
0.0815304428
0.0815304428
0.0815304428
0.0815304428
0.0815304428
0.0815304428
0.0815304428
0.0815304428
0.0815304428
0.0815304428
0.0815304428
0.0815304428
0.0815304428
0.0815304428
0.0815304428
0.0815304428
0.0815304428
0.0815304428
0.0815304428
0.0815304428
0.0815304428
0.0815304428
0.0815304428
0.0815304428
0.0815304428
0.0815304428
0.0815304428
0.0815304428
0.0815304428
0.0815304428
0.0815304428
0.0815304428
0.0815304428
0.0815304428
0.0815304428
0.0815304428
0.0815304428
0.0815304428
0.0815304428
0.0815304428
0.0815304428
0.0815304428
0.0815304428
0.0815304428
0.0815304428
0.0815304428
0.0815304428
0.0815304428
0.0815304428
0.0815304428
0.0815304428
0.0815304428
0.0815304428
0.0815304428
0.0815304428
0.0815304428
0.0815304428
0.0815304428
0.0815304428
0.0815304428
0.0815304428
0.0815304428
0.0815304428
0.0815304428
0.0815304428
0.0815304428
0.0815304429
0.0815304435
0.0815304431
0.0815304368
0.0815304565
0.0815305861
0.0815303752
0.0815287991
0.0815317881
0.0815496805
0.0815223167
0.0813780638
0.0815898442
0.082543515
0.0813789843
0.0770765887
0.0819845085
0.101986176
0.0896503487
0.0405847656
0.0668285304
0.146873068
0.123125733
0.00565182559
0.00534324964
0.117214234
0.155169341
0.10677157
0.00558523005
0.00302923081
0.169218862
0.152768068
0.00569869277
0.00475053092
0.116358472
0.158139201
0.101379964
0.00554227583
0.00331413772
0.164200773
0.164121492
0.0533079796
0.00540073596
0.016530434
0.160372583
0.129620071
0.00556220358
0.00297686533
0.163504635
0.16394907
0.0495053497
0.00527374998
0.036320438
0.159636756
0.120321571
0.00537249148
0.0205027589
0.167833951
0.158772093
0.00288480767
0.00511228206
0.0787644588
0.158505532
0.0889744704
0.00511391047
0.0768636292
0.158798056
0.109056421
0.00572415634
0.00301228322
0.158375108
0.136215626
0.00605939053
0.00325688483
0.13566114
0.133148494
0.0958221172
0.103480467
0.0629785437
0.0309515675
0.101725577
0.145486159
0.0989602913
0.00574521726
0.00283867436
0.1638989
0.14180074
0.0055328036
0.00449251461
0.144184015
0.153443203
0.0294489838
0.00489095176
0.101604368
0.159687989
0.100464648
0.00556792586
0.0027639649
0.165692567
0.151083736
0.00468900129
0.00465631309
0.117105291
0.160862576
0.102365834
0.00550042554
0.00278628243
0.163581531
0.1413756
0.0053884566
0.00336322177
0.163586312
0.148167286
0.00519752242
0.00275877738
0.162877717
0.136601437
0.0053006062
0.0167521208
0.164529566
0.131746297
0.00568757961
0.00392716516
0.155453948
0.152295782
0.00262628627
0.0046802639
0.117358109
0.160263402
0.0997242337
0.00553965863
0.00289690089
0.163345728
0.137990561
0.00568003002
0.0042795683
0.155104722
0.156898553
0.0473713761
0.00502136338
0.0772300159
0.160257122
0.114163246
0.00550165621
0.00259721668
0.16342286
0.136197915
0.00549737264
0.00255855787
0.162566192
0.145213365
0.0052613061
0.00434015779
0.136655637
0.160276296
0.0940543982
0.00548049459
0.00265121523
0.164005511
0.138997032
0.00572371765
0.00433405685
0.141417164
0.160154124
0.0919804594
0.00569725481
0.00302332169
0.154223724
0.138714243
0.00581108482
0.00318348249
0.133210653
0.132439736
0.111142896
0.119250661
0.0832101358
0.00608063577
0.00248569271
0.159734386
0.135237675
0.00600470218
0.00457338933
0.12821581
0.157614879
0.0361241552
0.00415307629
0.121645899
0.11963486
0.0743626766
0.104589659
0.131239692
0.0871077638
0.0061213206
0.00289141478
0.157049855
0.137782452
0.00575974108
0.00457081731
0.134972003
0.156803834
0.0888055717
0.00572977104
0.00307704277
0.158380837
0.158921179
0.0694553634
0.00562516487
0.00295346854
0.162161724
0.16271188
0.0811548065
0.00546478943
0.00233396843
0.164158266
0.147066892
0.0051010445
0.00453249639
0.120169688
0.159853996
0.102241138
0.00556528996
0.00259709546
0.156613061
0.132049841
0.0053266126
0.0153511648
0.165447321
0.103073294
0.00411043138
0.109092659
0.158843027
0.091538467
0.00533489325
0.0147706525
0.159681428
0.121558415
0.00534664303
0.022049254
0.162919925
0.129436414
0.00551583106
0.00403169444
0.150843333
0.156794983
0.0844347374
0.00542668863
0.00827998795
0.159476839
0.12251827
0.00536437046
0.0212987212
0.165120822
0.144739
0.00484601147
0.00436278364
0.120240519
0.157358142
0.0914339768
0.00556222625
0.00222307497
0.159682272
0.160034748
0.0599288249
0.00532064756
0.0276066186
0.159504271
0.155339543
0.0338468068
0.00510274406
0.0571202428
0.161644014
0.150157731
0.0322957708
0.00527226713
0.0503248422
0.153069818
0.0979542967
0.00490642597
0.0715023755
0.164881232
0.142982541
0.012772397
0.00505825664
0.0747448275
0.154700359
0.0834592752
0.0047033264
0.0868484179
0.155783881
0.0731717452
0.00462803329
0.0869347799
0.160658879
0.099081459
0.00525734895
0.0240527006
0.160808595
0.149693496
0.00427219826
0.00443300689
0.107151112
0.154069915
0.0647912425
0.00465024972
0.0840329666
0.166246036
0.130396597
0.0046879336
0.00459423488
0.112668851
0.153082916
0.0516636936
0.00437178845
0.106387992
0.159836237
0.0840721038
0.00509712106
0.0421012781
0.162251686
0.132579509
0.00486315616
0.00403298886
0.143076765
0.149680901
0.00290088545
0.00404777273
0.137988413
0.152021158
0.0239275027
0.00441440477
0.110580726
0.160956093
0.0960619949
0.0054872375
0.00230074368
0.154879595
0.149886722
0.0146492244
0.00499709368
0.0804193889
0.158778147
0.149518409
0.0731578178
0.00594961747
0.00394872929
0.140905708
0.164171558
0.11192693
0.00532733467
0.00490394289
0.105860067
0.164177917
0.124524091
0.0051457805
0.00481726874
0.106342232
0.160869007
0.109234681
0.00554116966
0.00400511217
0.147828476
0.159643289
0.0845461444
0.00543928626
0.00584254275
0.152071744
0.115435428
0.00415407875
0.0798249074
0.158025659
0.0658813649
0.00417850704
0.108747
0.161030229
0.0943599485
0.00546736737
0.00247088999
0.156802204
0.150472436
0.00288763458
0.0045132106
0.108759681
0.154676578
0.0800602254
0.00489149848
0.0632944195
0.166805664
0.126160529
0.00531211356
0.00437552961
0.125858818
0.152300308
0.0448347795
0.00438767338
0.107524031
0.161844095
0.0998609222
0.00535298836
0.00412307171
0.159453191
0.143720504
0.00476587682
0.00414320865
0.13449163
0.153648501
0.0454995628
0.00457096396
0.0969384351
0.163432695
0.108037066
0.0053850085
0.00290412282
0.158446643
0.151535099
0.00402811347
0.0043050877
0.12750327
0.154007936
0.0414184788
0.00451812663
0.10854193
0.15964262
0.0934813982
0.00521449165
0.0212419501
0.166823258
0.144588099
0.00507401266
0.00459707085
0.12334701
0.150404406
0.0336071895
0.00455140545
0.123343797
0.156215841
0.0561340575
0.00499352732
0.0730978758
0.167335482
0.129345368
0.0054544675
0.00498826518
0.123963738
0.151254992
0.0416160241
0.00478919887
0.106333236
0.167877409
0.117971421
)
;

boundaryField
{
    closed
    {
        type            calculated;
        value           uniform 0;
    }
    open
    {
        type            calculated;
        value           nonuniform List<scalar> 0();
    }
    sides
    {
        type            empty;
    }
    procBoundary0to1
    {
        type            processor;
        value           uniform 0;
    }
}


// ************************************************************************* //
