/*--------------------------------*- C++ -*----------------------------------*\
| =========                 |                                                 |
| \\      /  F ield         | OpenFOAM: The Open Source CFD Toolbox           |
|  \\    /   O peration     | Version:  2306                                  |
|   \\  /    A nd           | Website:  www.openfoam.com                      |
|    \\/     M anipulation  |                                                 |
\*---------------------------------------------------------------------------*/
FoamFile
{
    version     2.0;
    format      ascii;
    arch        "LSB;label=32;scalar=64";
    class       surfaceScalarField;
    location    "0.00036";
    object      phi;
}
// * * * * * * * * * * * * * * * * * * * * * * * * * * * * * * * * * * * * * //

dimensions      [1 0 -1 0 0 0 0];

oriented        oriented;

internalField   nonuniform List<scalar> 
530
(
3.05082478e-06
3.08785729e-06
3.07506819e-06
3.0806836e-06
3.07274575e-06
3.10185574e-06
3.08774841e-06
3.09474338e-06
3.08586576e-06
3.10836327e-06
3.09257093e-06
3.1015401e-06
3.0924027e-06
3.11058862e-06
3.09398065e-06
3.10332307e-06
3.09207461e-06
3.11201226e-06
3.09265841e-06
3.10118724e-06
3.08524268e-06
3.09869987e-06
3.08427968e-06
3.06585024e-06
3.03872803e-06
3.01524618e-06
2.98651907e-06
2.96168441e-06
2.98407637e-06
2.98428949e-06
2.94760106e-06
2.94066747e-06
2.92093747e-06
2.93599025e-06
2.91559695e-06
2.88448166e-06
2.8348729e-06
2.8071231e-06
2.80962324e-06
2.77619166e-06
2.84847779e-06
2.77049891e-06
2.70654711e-06
2.92707459e-06
2.91623807e-06
2.68103606e-06
2.67619565e-06
2.64774798e-06
2.72174208e-06
2.70936088e-06
2.72773455e-06
2.72134255e-06
2.72862954e-06
2.72693567e-06
2.66249277e-06
2.65307721e-06
2.82272918e-06
2.83198801e-06
2.83335029e-06
2.84534242e-06
2.83664181e-06
2.9698975e-06
2.99820991e-06
2.89291177e-06
2.89393591e-06
3.11348976e-06
3.14514033e-06
2.95701318e-06
2.9619408e-06
2.95515783e-06
2.99301074e-06
3.01527516e-06
3.03367893e-06
3.03308567e-06
3.00263563e-06
3.00380233e-06
3.10844589e-06
3.27511995e-06
3.19692537e-06
3.15591406e-06
3.14956783e-06
3.19002346e-06
3.22613952e-06
3.15064058e-06
3.15437274e-06
3.36969898e-06
3.42061023e-06
3.21413199e-06
3.21405392e-06
3.2230241e-06
3.38980364e-06
3.37863922e-06
3.35873911e-06
3.37788672e-06
3.53440983e-06
3.51880409e-06
3.48357262e-06
3.51548888e-06
3.69577386e-06
3.69034394e-06
3.64649024e-06
3.66403223e-06
3.85312794e-06
3.88294661e-06
3.83433217e-06
3.86210213e-06
3.93355108e-06
4.02652368e-06
4.06222064e-06
3.87694837e-06
3.86675268e-06
3.88151352e-06
3.94054314e-06
4.00719101e-06
3.81010588e-06
3.80066762e-06
3.81282213e-06
4.04941582e-06
4.0638091e-06
4.00306728e-06
4.01849399e-06
4.23755144e-06
4.23844966e-06
4.15835867e-06
4.1719049e-06
4.23425832e-06
4.29677547e-06
4.09128995e-06
4.05831925e-06
4.05782688e-06
4.10579746e-06
4.16305812e-06
3.94339758e-06
3.92486149e-06
3.92356781e-06
4.16669184e-06
4.21932043e-06
4.09504782e-06
4.074932e-06
4.54223414e-06
4.62837726e-06
4.54060758e-06
4.41164251e-06
4.3969999e-06
4.45636426e-06
4.50994543e-06
4.29090587e-06
4.23174827e-06
4.21376002e-06
4.25292524e-06
4.29779024e-06
4.07710078e-06
4.02729946e-06
4.00392618e-06
4.22018014e-06
4.19450821e-06
4.09002745e-06
4.07639507e-06
4.1164561e-06
4.155439e-06
3.9392518e-06
3.87678645e-06
3.85459945e-06
3.88588403e-06
3.91984497e-06
3.71314279e-06
3.65402454e-06
3.63214059e-06
3.66129611e-06
3.69338377e-06
3.49598389e-06
3.43958638e-06
3.4165266e-06
3.43830739e-06
3.46226218e-06
3.26572339e-06
3.22130846e-06
3.19925924e-06
3.35624832e-06
3.31408895e-06
3.22610976e-06
3.21036114e-06
3.22894922e-06
3.25005631e-06
3.0645537e-06
3.02039622e-06
3.00042843e-06
3.14304871e-06
3.09316111e-06
3.00575874e-06
2.99371752e-06
3.01449163e-06
3.04027327e-06
2.87469376e-06
2.82256092e-06
2.80404248e-06
2.81976197e-06
2.84233782e-06
2.68378086e-06
2.63487192e-06
2.61546493e-06
2.6277932e-06
2.64823343e-06
2.49567803e-06
2.44764951e-06
2.42683987e-06
2.43250709e-06
2.44995305e-06
2.30879417e-06
2.26042831e-06
2.2371179e-06
2.23966644e-06
2.25111092e-06
2.10848871e-06
2.06404637e-06
2.03259473e-06
2.00750543e-06
1.99341098e-06
1.874569e-06
1.84133118e-06
2.1026424e-06
2.10580389e-06
1.92005294e-06
1.86428004e-06
1.81758645e-06
1.82925331e-06
1.81152939e-06
1.77673556e-06
1.73058263e-06
1.71789973e-06
1.69759753e-06
1.66542631e-06
1.63381784e-06
1.59182551e-06
1.54295793e-06
1.50030033e-06
1.47849754e-06
1.45541691e-06
1.39541544e-06
1.35868379e-06
1.32808297e-06
1.33910439e-06
1.29153724e-06
1.2438544e-06
1.20460939e-06
1.15325913e-06
1.09471278e-06
9.7483554e-07
9.28176868e-07
1.18240093e-06
1.11064127e-06
9.82396407e-07
9.74546202e-07
9.25561218e-07
8.6617659e-07
8.16080174e-07
7.67062378e-07
7.37219675e-07
6.93297975e-07
6.61977623e-07
6.1781698e-07
5.34452823e-07
5.05902627e-07
5.99552748e-07
5.40410831e-07
4.23712589e-07
4.06975512e-07
3.6285723e-07
3.20946776e-07
2.76422071e-07
2.31933281e-07
2.12522291e-07
2.53241914e-07
1.90699706e-07
1.65204633e-07
1.54916313e-07
2.68368902e-07
2.11869116e-07
2.10217454e-07
2.10936498e-07
3.81784046e-07
3.35486938e-07
1.99618573e-07
2.24095599e-07
2.25135433e-07
1.67304463e-07
1.5979804e-07
2.28741517e-07
2.46414292e-07
2.46204573e-07
2.28992928e-07
2.45777578e-07
2.73370143e-07
3.15151406e-07
3.06396528e-07
3.1135207e-07
3.58169401e-07
4.60380708e-07
4.78442669e-07
4.78856543e-07
5.57907378e-07
5.94996669e-07
6.38322555e-07
6.56081218e-07
6.96793183e-07
7.47738066e-07
9.74707526e-07
1.00022446e-06
8.94326302e-07
9.62146028e-07
1.01580988e-06
1.07096438e-06
1.11268499e-06
1.15621009e-06
1.20336793e-06
1.25809074e-06
1.28355376e-06
1.25538219e-06
1.2967584e-06
1.7122754e-06
1.74594892e-06
1.6830017e-06
1.69370781e-06
1.70804655e-06
1.75174463e-06
1.7621511e-06
1.77314269e-06
1.80074792e-06
1.8135562e-06
1.82314309e-06
1.82874798e-06
1.79159664e-06
1.805881e-06
1.82811657e-06
1.91227151e-06
1.8694953e-06
1.77121861e-06
1.74369958e-06
2.15368182e-06
2.09029075e-06
1.92531637e-06
1.87631083e-06
1.81002812e-06
1.75458506e-06
1.66828501e-06
1.54572362e-06
1.48585285e-06
1.65701974e-06
1.49906493e-06
1.33268123e-06
1.35241685e-06
1.27510535e-06
1.21233395e-06
1.10143846e-06
1.12447187e-06
1.05226873e-06
9.6494298e-07
8.39352527e-07
7.5813353e-07
7.14970593e-07
6.67787203e-07
5.97873142e-07
5.346575e-07
4.81646311e-07
4.23403347e-07
5.42912911e-07
6.51839305e-07
4.49626744e-07
3.11038625e-07
4.81702133e-07
4.6307615e-07
4.36468298e-07
4.19194401e-07
4.17161228e-07
4.17306413e-07
3.97976166e-07
3.94256501e-07
4.53255381e-07
6.33515832e-07
5.87889772e-07
6.11826617e-07
6.9072797e-07
8.85844693e-07
8.42679503e-07
8.64427276e-07
9.58924565e-07
1.00441637e-06
1.03878563e-06
1.02785696e-06
9.46081764e-07
1.04567123e-06
1.06854811e-06
1.06611152e-06
1.04114205e-06
1.01918533e-06
1.0431971e-06
9.8612292e-07
8.56596974e-07
1.05427611e-06
1.02292016e-06
9.91217133e-07
1.2699641e-06
1.17509441e-06
1.00332883e-06
1.00537017e-06
9.86530551e-07
9.72971065e-07
9.57001833e-07
9.50654915e-07
9.48577624e-07
9.57341513e-07
9.73934896e-07
1.00631995e-06
1.05404254e-06
1.12048811e-06
1.21026037e-06
1.24647774e-06
1.31113973e-06
1.39765361e-06
1.50838223e-06
1.66342354e-06
1.86175245e-06
2.12081622e-06
2.44146735e-06
2.85367703e-06
3.31483633e-06
3.63225327e-06
5.31593144e-06
8.1106241e-06
1.01427031e-05
1.21830762e-05
6.92889567e-07
2.21039913e-05
2.28733174e-05
2.087706e-05
2.08023607e-05
3.27705953e-05
3.6391719e-05
4.54089873e-05
6.33701992e-06
-2.14322609e-05
-1.8857312e-05
-1.60731768e-05
-1.39819091e-05
-1.19006248e-05
-1.01346496e-05
-8.479764e-06
-6.85865879e-06
-5.49748781e-06
-4.29051543e-06
-3.20625757e-06
-2.27429436e-06
-1.45911089e-06
-7.56266409e-07
-1.55040159e-07
3.80012191e-07
8.62876412e-07
1.26740788e-06
1.6152619e-06
1.96054552e-06
2.22365248e-06
2.53263483e-06
2.83659388e-06
3.14562355e-06
3.37521053e-06
3.29499424e-06
3.24132672e-06
4.06810103e-06
4.92899884e-06
4.08120526e-06
2.95892055e-06
3.36606692e-06
3.44995866e-06
3.62793211e-06
3.32621645e-06
3.7853701e-06
4.13768403e-06
3.76360371e-06
4.93394138e-06
3.93004407e-06
2.55953943e-06
3.99652532e-06
5.75171427e-06
3.50778531e-06
2.16842631e-06
3.97306653e-06
5.0630399e-06
4.53820093e-06
4.15204871e-06
4.70312619e-06
4.41222039e-06
4.21274756e-06
4.55805516e-06
4.47765254e-06
3.77856949e-06
4.18306269e-06
4.66639466e-06
4.31621944e-06
3.67218419e-06
3.90722754e-06
4.39328398e-06
4.33183311e-06
3.82380481e-06
3.78239057e-06
4.26444839e-06
4.21199285e-06
3.81371945e-06
3.78926148e-06
4.12785998e-06
4.11444657e-06
3.78783884e-06
3.70470636e-06
3.95547165e-06
3.97555225e-06
3.67650607e-06
3.54607624e-06
3.76836391e-06
3.83047097e-06
3.52754345e-06
3.36177727e-06
3.60102549e-06
3.6968616e-06
3.38639479e-06
3.19893639e-06
3.45190282e-06
3.5786101e-06
3.25331163e-06
3.06335451e-06
3.33280661e-06
3.53177915e-06
)
;

boundaryField
{
    closed
    {
        type            calculated;
        value           nonuniform List<scalar> 0();
    }
    open
    {
        type            calculated;
        value           nonuniform List<scalar> 0();
    }
    sides
    {
        type            empty;
        value           nonuniform List<scalar> 0();
    }
    procBoundary4to3
    {
        type            processor;
        value           uniform -3.05820276e-06;
    }
    procBoundary4to5
    {
        type            processor;
        value           uniform 3.24544216e-06;
    }
}


// ************************************************************************* //
