/*--------------------------------*- C++ -*----------------------------------*\
| =========                 |                                                 |
| \\      /  F ield         | OpenFOAM: The Open Source CFD Toolbox           |
|  \\    /   O peration     | Version:  2306                                  |
|   \\  /    A nd           | Website:  www.openfoam.com                      |
|    \\/     M anipulation  |                                                 |
\*---------------------------------------------------------------------------*/
FoamFile
{
    version     2.0;
    format      ascii;
    arch        "LSB;label=32;scalar=64";
    class       volScalarField;
    location    "0.00098";
    object      H;
}
// * * * * * * * * * * * * * * * * * * * * * * * * * * * * * * * * * * * * * //

dimensions      [0 0 0 0 0 0 0];

internalField   nonuniform List<scalar> 
531
(
4.06777749e-08
1.34059445e-09
1.28202082e-09
3.90506277e-08
4.24018571e-08
3.99242215e-08
1.34375325e-09
1.32049134e-09
3.86761134e-08
3.84733844e-08
1.40322063e-09
1.32406534e-09
3.692073e-08
3.9485886e-08
3.77139515e-08
1.3936504e-09
1.36694228e-09
3.44824201e-08
3.8386761e-08
3.81907634e-08
3.76620887e-08
1.38980643e-09
1.3323993e-09
3.79220603e-08
4.06263127e-08
3.91184562e-08
1.36939204e-09
1.30952367e-09
3.68877997e-08
4.26709015e-08
3.85121854e-08
1.32765251e-09
1.38283819e-09
1.27305462e-09
3.83164714e-08
4.29197517e-08
4.12889979e-08
1.33366745e-09
1.25583909e-09
3.95153147e-08
4.53614838e-08
4.1687742e-08
1.28235133e-09
1.33958247e-09
1.21919142e-09
4.07760122e-08
4.58087254e-08
4.34414169e-08
1.26949548e-09
1.24605558e-09
4.25963433e-08
4.28491857e-08
1.27768763e-09
1.25971301e-09
4.29345176e-08
4.33638735e-08
1.30164707e-09
1.21244007e-09
4.07530033e-08
4.64227485e-08
4.25057216e-08
1.26700142e-09
1.32557013e-09
1.2161083e-09
3.99009232e-08
4.40655909e-08
4.23592422e-08
1.29443783e-09
1.2379016e-09
3.96660231e-08
4.39382212e-08
4.22045121e-08
1.28599356e-09
1.22479972e-09
3.938456e-08
4.59427461e-08
4.13548908e-08
1.22154576e-09
1.31797016e-09
1.20939875e-09
3.95387756e-08
4.32703645e-08
1.32556653e-09
1.20842393e-09
3.90471049e-08
4.53837352e-08
4.16943764e-08
1.2765418e-09
1.32871711e-09
1.23183897e-09
3.91897855e-08
4.26808921e-08
4.31351664e-08
4.22973204e-08
1.26751247e-09
1.20237825e-09
4.12001036e-08
4.58869871e-08
4.41665926e-08
1.23389341e-09
1.20800547e-09
4.22633893e-08
4.25001702e-08
1.22741331e-09
1.20969216e-09
4.34203001e-08
4.15183519e-08
1.177297e-09
1.32046421e-09
1.1505577e-09
3.95393199e-08
4.58114092e-08
4.59313994e-08
4.457822e-08
1.16717728e-09
1.27323633e-09
1.15528122e-09
4.17107353e-08
4.50239531e-08
1.218559e-09
1.23247588e-09
1.26892783e-09
1.20015317e-09
3.63697188e-08
4.45089122e-08
4.10699044e-08
4.59286165e-08
4.44325629e-08
1.20713987e-09
1.18580069e-09
4.06485172e-08
4.85819323e-08
4.45142902e-08
1.16382901e-09
1.25106513e-09
1.18102803e-09
4.22688647e-08
4.27287272e-08
1.14482736e-09
1.30163536e-09
1.12883e-09
3.92768761e-08
4.60763968e-08
4.63737063e-08
4.56602276e-08
1.15561352e-09
1.2541666e-09
1.11978008e-09
4.22340603e-08
4.99590605e-08
4.79314492e-08
1.17411045e-09
1.19694159e-09
1.22881824e-09
1.18807632e-09
3.91775461e-08
4.55753077e-08
4.49539561e-08
4.48093271e-08
1.13228208e-09
1.23268609e-09
1.22245592e-09
1.21194902e-09
3.67034958e-08
4.46195191e-08
4.13499186e-08
4.58252793e-08
4.47692966e-08
1.17637319e-09
1.24607227e-09
1.25592624e-09
1.22800016e-09
3.50112827e-08
4.42367036e-08
4.06301758e-08
4.55305697e-08
4.46523757e-08
1.16313401e-09
1.23696111e-09
1.25175474e-09
1.21892928e-09
3.59484608e-08
4.60329394e-08
4.18963704e-08
4.79422224e-08
4.67293932e-08
1.15726384e-09
1.23943796e-09
1.2157915e-09
4.39842631e-08
4.47038621e-08
1.08248239e-09
1.28795058e-09
1.13956081e-09
3.97062037e-08
4.69093549e-08
1.17752761e-09
1.22840878e-09
4.13469456e-08
4.53972525e-08
1.18150781e-09
1.22133688e-09
4.00917934e-08
4.5819618e-08
4.50253758e-08
1.16383043e-09
1.28361231e-09
3.96623965e-08
4.29705043e-08
1.18479006e-09
1.27013565e-09
3.81209796e-08
4.33003303e-08
4.27794863e-08
1.1922236e-09
1.26053192e-09
3.65476095e-08
4.55299357e-08
4.15032998e-08
1.15318484e-09
1.34960861e-09
1.24195405e-09
3.58526935e-08
4.34976753e-08
4.32304769e-08
4.31662335e-08
1.11638226e-09
1.30421975e-09
1.24447596e-09
3.88980782e-08
4.58731507e-08
4.5389426e-08
1.16483166e-09
1.24823418e-09
4.08390601e-08
4.49878722e-08
1.1008141e-09
1.21766612e-09
4.10654804e-08
4.74729381e-08
4.70959378e-08
1.06382676e-09
1.22715527e-09
1.21274496e-09
1.23417672e-09
3.91059504e-08
4.63064771e-08
4.60199314e-08
4.64820858e-08
9.88683743e-10
1.22981142e-09
1.18631183e-09
1.23367776e-09
4.02762699e-08
4.64079273e-08
4.62259504e-08
1.10889662e-09
1.23052396e-09
4.0442755e-08
4.64040989e-08
4.61585882e-08
1.12442474e-09
1.27362274e-09
4.08795727e-08
4.38280887e-08
1.05891542e-09
1.28972088e-09
4.01958836e-08
4.2783426e-08
1.08020321e-09
1.29604791e-09
3.90794178e-08
4.21525792e-08
1.10694967e-09
1.28974586e-09
3.78263301e-08
4.23889819e-08
4.20674727e-08
1.11087609e-09
1.30748117e-09
3.70850967e-08
4.21911713e-08
4.20524568e-08
1.14610953e-09
1.31550582e-09
3.72799628e-08
4.12328036e-08
1.1065401e-09
1.29582294e-09
3.74023351e-08
4.24238685e-08
4.20774233e-08
1.06730315e-09
1.28216525e-09
3.86305226e-08
4.46622191e-08
4.45511707e-08
1.1139778e-09
1.26064389e-09
1.2690658e-09
1.2588786e-09
3.88237407e-08
4.50155093e-08
4.50817488e-08
4.51522149e-08
9.98477567e-10
1.2424534e-09
4.45426675e-08
4.53022706e-08
9.85225618e-10
1.27606802e-09
1.19683271e-09
3.91735331e-08
4.60759571e-08
1.04485092e-09
1.23843037e-09
4.01318852e-08
4.57568153e-08
4.50593502e-08
1.13732536e-09
1.27950598e-09
3.98766319e-08
4.34379677e-08
1.06432492e-09
1.26771588e-09
3.91909713e-08
4.38782972e-08
4.35199002e-08
1.1711571e-09
1.30110627e-09
3.88538746e-08
4.21576757e-08
1.09963165e-09
1.28720364e-09
3.85854671e-08
4.30262187e-08
4.25667845e-08
1.19120667e-09
1.31935691e-09
3.85161855e-08
4.15063944e-08
1.12539967e-09
1.30345904e-09
3.82789684e-08
4.2423472e-08
4.17813439e-08
1.21087149e-09
1.33494693e-09
3.79830624e-08
4.0652237e-08
1.15596892e-09
1.31255736e-09
3.7549425e-08
4.15095258e-08
4.09283134e-08
1.22944289e-09
1.32614114e-09
3.77886782e-08
4.19465499e-08
4.13513347e-08
1.23838972e-09
1.3032706e-09
3.90485064e-08
4.33200615e-08
4.23130445e-08
1.20797742e-09
1.31054846e-09
4.02500153e-08
4.17219577e-08
1.14997682e-09
1.30607512e-09
4.16346482e-08
4.14543617e-08
1.19588489e-09
4.07399076e-08
4.27318668e-08
1.12112657e-09
1.32379099e-09
1.24476208e-09
3.94101039e-08
4.44860107e-08
1.18663878e-09
1.25911337e-09
4.04517042e-08
4.56674127e-08
4.3011026e-08
1.19365098e-09
1.30992933e-09
4.20881745e-08
4.10005968e-08
1.2279271e-09
3.88448434e-08
4.43562553e-08
1.20230679e-09
1.26235911e-09
4.08433722e-08
4.44917394e-08
1.19718754e-09
1.24063747e-09
4.18485755e-08
4.77159958e-08
4.40847247e-08
1.17290735e-09
1.28723763e-09
1.26044239e-09
4.27411735e-08
4.24847485e-08
1.20767917e-09
1.31373424e-09
1.24886889e-09
3.92048827e-08
4.55182414e-08
4.21620152e-08
1.2543173e-09
1.29773749e-09
4.01599248e-08
4.31034461e-08
4.15456246e-08
1.28818632e-09
1.31837628e-09
3.87215566e-08
4.15969006e-08
4.00817587e-08
1.31638708e-09
1.33716071e-09
3.77820779e-08
4.07501349e-08
3.93060772e-08
1.32767331e-09
1.34944585e-09
3.77940045e-08
4.09643316e-08
3.95428361e-08
1.33182068e-09
1.34224722e-09
3.87409261e-08
4.19118626e-08
4.01639863e-08
1.3167357e-09
1.35825647e-09
3.94668045e-08
4.09760645e-08
1.33940285e-09
1.33508812e-09
3.94502554e-08
4.27349151e-08
4.07221745e-08
1.31007466e-09
1.35814247e-09
3.98496421e-08
4.12954847e-08
1.34679728e-09
1.32901095e-09
3.94743112e-08
4.27140307e-08
4.05849673e-08
1.31309431e-09
1.36655969e-09
3.95185475e-08
4.08307443e-08
1.35238691e-09
1.33776974e-09
3.88542521e-08
4.18116949e-08
4.01278868e-08
1.33952892e-09
1.33715026e-09
3.90924726e-08
4.20832693e-08
4.00429372e-08
1.32307449e-09
1.3638467e-09
3.95221067e-08
4.0392431e-08
1.34903573e-09
1.33243829e-09
4.00569136e-08
4.176602e-08
4.31705073e-08
4.08723795e-08
1.29376018e-09
1.34981429e-09
1.28731629e-09
3.83816847e-08
4.42253917e-08
1.37212921e-09
1.26356471e-09
4.04589026e-08
4.50411659e-08
4.23650066e-08
1.28246181e-09
1.31811194e-09
4.18409487e-08
4.34624282e-08
1.33798958e-09
1.27051131e-09
4.12284472e-08
4.5057129e-08
4.24645152e-08
1.28245103e-09
1.33384775e-09
4.14694592e-08
4.20319081e-08
1.33943896e-09
1.32265676e-09
4.02320267e-08
4.13837727e-08
1.37663572e-09
1.30358258e-09
3.91251254e-08
4.20583516e-08
4.02396845e-08
1.32828108e-09
1.34435341e-09
3.89629116e-08
4.17287734e-08
4.02048662e-08
1.35131963e-09
1.31894918e-09
3.91501803e-08
4.22604613e-08
4.02465606e-08
1.32547466e-09
1.34535922e-09
3.93887142e-08
4.10124374e-08
1.36936491e-09
1.30000858e-09
3.9054875e-08
4.2596924e-08
4.10181357e-08
)
;

boundaryField
{
    closed
    {
        type            calculated;
        value           nonuniform List<scalar> 0();
    }
    open
    {
        type            calculated;
        value           nonuniform List<scalar> 0();
    }
    sides
    {
        type            empty;
    }
    procBoundary3to2
    {
        type            processor;
        value           uniform 4.28680626e-08;
    }
    procBoundary3to4
    {
        type            processor;
        value           uniform 1.30432458e-09;
    }
}


// ************************************************************************* //
