/*--------------------------------*- C++ -*----------------------------------*\
| =========                 |                                                 |
| \\      /  F ield         | OpenFOAM: The Open Source CFD Toolbox           |
|  \\    /   O peration     | Version:  2306                                  |
|   \\  /    A nd           | Website:  www.openfoam.com                      |
|    \\/     M anipulation  |                                                 |
\*---------------------------------------------------------------------------*/
FoamFile
{
    version     2.0;
    format      ascii;
    arch        "LSB;label=32;scalar=64";
    class       surfaceScalarField;
    location    "0.00098";
    object      phi;
}
// * * * * * * * * * * * * * * * * * * * * * * * * * * * * * * * * * * * * * //

dimensions      [1 0 -1 0 0 0 0];

oriented        oriented;

internalField   nonuniform List<scalar> 
530
(
-3.9685264e-07
-4.0012995e-07
-3.9943318e-07
-4.30821104e-07
-4.29048227e-07
-3.98439159e-07
-4.01086988e-07
-4.08148477e-07
-4.17797247e-07
-4.02794354e-07
-4.06812625e-07
-4.0804576e-07
-4.39185694e-07
-4.37532554e-07
-4.08761947e-07
-4.12079898e-07
-4.12713878e-07
-4.18168025e-07
-4.20145875e-07
-4.15892341e-07
-3.9644041e-07
-3.99839911e-07
-4.01134507e-07
-4.33215829e-07
-4.32409979e-07
-4.06572803e-07
-4.10817721e-07
-4.12219933e-07
-4.51694402e-07
-4.50353764e-07
-4.26894693e-07
-4.29035408e-07
-4.3126001e-07
-4.30747678e-07
-4.6444325e-07
-4.67994838e-07
-4.33265853e-07
-4.38565922e-07
-4.40590471e-07
-4.82748073e-07
-4.81582697e-07
-4.5358028e-07
-4.57610575e-07
-4.60241947e-07
-4.60784376e-07
-4.98191846e-07
-5.00850209e-07
-4.59725431e-07
-4.6658308e-07
-4.77295259e-07
-4.95968704e-07
-4.72708527e-07
-4.7634646e-07
-4.8185163e-07
-5.20856829e-07
-4.93916199e-07
-4.98982979e-07
-5.04046629e-07
-5.52841515e-07
-5.52164922e-07
-5.19825448e-07
-5.23846299e-07
-5.27989178e-07
-5.29099913e-07
-5.71923879e-07
-5.78750735e-07
-5.32821702e-07
-5.39291073e-07
-5.43902143e-07
-5.95893017e-07
-6.01864995e-07
-5.57379805e-07
-5.62877844e-07
-5.69037757e-07
-6.2581608e-07
-6.31980496e-07
-5.73072469e-07
-5.80740274e-07
-5.82287929e-07
-5.87699203e-07
-6.36435813e-07
-6.02834343e-07
-6.08462148e-07
-6.16469522e-07
-6.75573322e-07
-6.76535008e-07
-6.36644555e-07
-6.38429078e-07
-6.43265074e-07
-6.4708482e-07
-6.99398767e-07
-7.08631208e-07
-7.10023611e-07
-6.64038853e-07
-6.65684236e-07
-6.73941004e-07
-7.40471131e-07
-7.4428241e-07
-6.81270394e-07
-6.88138241e-07
-7.07095459e-07
-7.37973816e-07
-7.02213569e-07
-7.04170902e-07
-7.21013433e-07
-7.57691302e-07
-7.09081459e-07
-7.10949394e-07
-7.16637096e-07
-7.19739284e-07
-7.81150671e-07
-7.97450396e-07
-7.980856e-07
-7.2887703e-07
-7.30172407e-07
-7.34061304e-07
-7.36116861e-07
-8.03883919e-07
-7.48423406e-07
-7.40853684e-07
-7.47149318e-07
-7.37420022e-07
-7.5029565e-07
-8.3002635e-07
-8.34666782e-07
-8.38304356e-07
-8.40673076e-07
-7.68271185e-07
-7.65240991e-07
-7.74824865e-07
-8.56704958e-07
-8.60419014e-07
-7.67850301e-07
-7.67938119e-07
-7.68286971e-07
-7.73107856e-07
-8.43839644e-07
-7.8253966e-07
-7.76692717e-07
-7.78691038e-07
-7.79491092e-07
-8.44259261e-07
-8.59338547e-07
-8.54659625e-07
-7.71820933e-07
-7.76092137e-07
-7.75684843e-07
-7.77298361e-07
-8.44442782e-07
-8.47416263e-07
-7.44937285e-07
-7.41040298e-07
-7.36832275e-07
-7.25615753e-07
-7.32594618e-07
-8.0436688e-07
-7.99905069e-07
-7.98191234e-07
-7.23995522e-07
-6.97220299e-07
-6.92017172e-07
-6.71549083e-07
-6.76368019e-07
-7.44817266e-07
-7.3634654e-07
-7.28406084e-07
-7.25005109e-07
-6.71985945e-07
-6.31710179e-07
-6.23298644e-07
-6.00450118e-07
-6.02329191e-07
-5.87851785e-07
-5.77506548e-07
-5.65659858e-07
-5.63151313e-07
-5.15730101e-07
-4.73754513e-07
-4.62427914e-07
-4.40553364e-07
-4.37821497e-07
-4.90595071e-07
-4.77473437e-07
-4.6519312e-07
-4.57083708e-07
-3.84385946e-07
-3.6229105e-07
-3.51392468e-07
-3.44434528e-07
-3.89069174e-07
-3.41456568e-07
-3.01236893e-07
-2.89916124e-07
-2.72703813e-07
-3.15977632e-07
-2.81268215e-07
-2.37498839e-07
-2.28903e-07
-2.82242252e-07
-2.44515281e-07
-1.97822576e-07
-1.87333723e-07
-2.27768356e-07
-2.19481118e-07
-1.75049027e-07
-1.32371253e-07
-1.17577356e-07
-1.63155766e-07
-1.34538845e-07
-8.20228437e-08
-6.62290551e-08
-9.80336026e-08
-9.05031427e-08
-5.85640381e-08
-9.93843236e-09
8.32091784e-09
-2.14612817e-08
-9.4060064e-09
3.33807749e-08
7.2553823e-08
9.17896977e-08
1.0878023e-07
1.04810586e-07
1.25959493e-07
1.40218663e-07
1.58940901e-07
2.10366871e-07
2.31070411e-07
2.42528926e-07
2.49759561e-07
2.66864684e-07
2.95358589e-07
3.30027038e-07
3.5097565e-07
3.42653656e-07
3.63176612e-07
4.15931988e-07
4.34088125e-07
4.42862369e-07
4.49611194e-07
4.66591665e-07
5.10089197e-07
5.30084625e-07
5.49996041e-07
5.7047818e-07
6.05472906e-07
6.31840483e-07
6.34876259e-07
6.57240784e-07
6.97139521e-07
7.16242246e-07
7.33202199e-07
7.51493898e-07
8.04681495e-07
8.12306184e-07
8.10967535e-07
8.5749463e-07
8.76302043e-07
9.26734178e-07
9.38276072e-07
9.32313326e-07
9.61055752e-07
9.7846624e-07
1.01953441e-06
1.03906501e-06
1.06340536e-06
1.08053742e-06
1.11943246e-06
1.13797156e-06
1.15690137e-06
1.17336947e-06
1.21795389e-06
1.23709051e-06
1.25703957e-06
1.26990143e-06
1.34454094e-06
1.34303273e-06
1.30958068e-06
1.35594763e-06
1.36807383e-06
1.44676224e-06
1.4494217e-06
1.41148646e-06
1.44047809e-06
1.45144473e-06
1.51800376e-06
1.53209239e-06
1.53496223e-06
1.53991862e-06
1.63182462e-06
1.62440658e-06
1.64109207e-06
1.62270406e-06
1.62516836e-06
1.72340259e-06
1.72225688e-06
1.74339146e-06
1.68436975e-06
1.68645069e-06
1.6835761e-06
1.68768976e-06
1.81286905e-06
1.82909663e-06
1.81195943e-06
1.72641886e-06
1.75806875e-06
1.75999496e-06
1.84957523e-06
1.85343074e-06
1.81233312e-06
1.81341823e-06
1.78728827e-06
1.89272981e-06
1.89394418e-06
1.86678163e-06
1.85838495e-06
1.97244043e-06
1.96445863e-06
1.88101256e-06
1.85869378e-06
1.84927009e-06
1.94616044e-06
1.9391583e-06
1.90239835e-06
1.89159396e-06
2.00170115e-06
1.98874509e-06
1.90119067e-06
1.87307735e-06
1.85975019e-06
1.95408999e-06
1.94184181e-06
1.89823752e-06
1.88315928e-06
1.98983582e-06
1.97380794e-06
1.88285451e-06
1.85005308e-06
1.83295832e-06
1.9237895e-06
1.90729872e-06
1.8582018e-06
1.83891565e-06
1.94032348e-06
1.92173684e-06
1.82894767e-06
1.79259618e-06
1.77211328e-06
1.856752e-06
1.83529635e-06
1.7826198e-06
1.76175047e-06
1.85342157e-06
1.83123494e-06
1.73769428e-06
1.70173211e-06
1.67768858e-06
1.7725782e-06
1.74960156e-06
1.65741741e-06
1.62031937e-06
1.59435734e-06
1.68744326e-06
1.66535676e-06
1.57381762e-06
1.53409253e-06
1.51132669e-06
1.58046123e-06
1.55112307e-06
1.49400612e-06
1.47071459e-06
1.53732526e-06
1.51113997e-06
1.43630106e-06
1.50812899e-06
1.47083403e-06
1.41368287e-06
1.3904498e-06
1.34637682e-06
1.41780297e-06
1.39419057e-06
1.33902532e-06
1.31079684e-06
1.37992279e-06
1.35845282e-06
1.27602445e-06
1.23891885e-06
1.21257804e-06
1.27066386e-06
1.19153882e-06
1.15466716e-06
1.20624642e-06
1.17773935e-06
1.12555531e-06
1.10330332e-06
1.14818035e-06
1.12238433e-06
1.07132553e-06
1.04497705e-06
1.10127634e-06
1.08406349e-06
1.01470194e-06
9.82763524e-07
9.62297214e-07
9.31597236e-07
9.76514359e-07
9.48554207e-07
8.92473558e-07
8.7461626e-07
8.4652374e-07
8.88722853e-07
8.72133405e-07
8.1424491e-07
7.86456463e-07
7.65981187e-07
7.98517455e-07
7.82912202e-07
7.30366435e-07
7.04773569e-07
6.85860478e-07
7.12514247e-07
6.97675312e-07
6.50242862e-07
6.27033064e-07
6.09535116e-07
6.30473942e-07
6.17474238e-07
5.74591967e-07
5.53630838e-07
5.37365053e-07
5.54612199e-07
5.43643099e-07
5.05544721e-07
4.86660695e-07
4.71362817e-07
4.8757416e-07
4.79129144e-07
4.45983385e-07
4.28284054e-07
4.15280479e-07
4.26981053e-07
4.13225245e-07
3.90556085e-07
3.85329982e-07
3.8230194e-07
3.77745451e-07
3.51187469e-07
3.37024086e-07
3.2629313e-07
3.34516465e-07
3.22567643e-07
3.04090379e-07
2.99926748e-07
2.96394587e-07
2.93857461e-07
2.73136941e-07
2.61775444e-07
2.53110859e-07
2.58552409e-07
2.47774279e-07
2.3295302e-07
2.24190766e-07
2.28780663e-07
2.27116079e-07
2.09593522e-07
2.01188441e-07
1.93869501e-07
1.96222547e-07
1.96011566e-07
1.82108203e-07
1.74378075e-07
1.68421033e-07
1.70766646e-07
1.61829562e-07
1.51218642e-07
1.47086364e-07
1.4553913e-07
1.45480111e-07
1.44762195e-07
1.35662636e-07
1.30334066e-07
1.26545493e-07
1.23318593e-07
1.22287643e-07
1.14727402e-07
1.06131868e-07
1.06502821e-07
1.06074207e-07
1.08109434e-07
1.02849421e-07
9.87358759e-08
9.60067667e-08
9.75829496e-08
9.20486403e-08
8.54020959e-08
8.61794155e-08
8.3667595e-08
8.77658574e-08
8.42916135e-08
8.14219269e-08
7.99383012e-08
8.13345364e-08
7.71860513e-08
7.17327965e-08
7.10261527e-08
7.53113869e-08
6.93268053e-08
6.45705237e-08
6.53842648e-08
6.16070422e-08
6.57531299e-08
6.03497125e-08
5.81469195e-08
5.74301935e-08
5.27343755e-08
5.75475366e-08
5.24953973e-08
5.09499063e-08
5.13129181e-08
4.49671416e-08
5.06395031e-08
4.75216603e-08
4.57103457e-08
4.49476404e-08
4.41342907e-08
3.89548314e-08
3.56416974e-08
3.65242966e-08
3.07387375e-08
3.39599892e-08
)
;

boundaryField
{
    closed
    {
        type            calculated;
        value           nonuniform List<scalar> 0();
    }
    open
    {
        type            calculated;
        value           nonuniform List<scalar> 0();
    }
    sides
    {
        type            empty;
        value           nonuniform List<scalar> 0();
    }
    procBoundary3to2
    {
        type            processor;
        value           uniform 4.25170906e-07;
    }
    procBoundary3to4
    {
        type            processor;
        value           uniform 2.85281836e-08;
    }
}


// ************************************************************************* //
