/*--------------------------------*- C++ -*----------------------------------*\
| =========                 |                                                 |
| \\      /  F ield         | OpenFOAM: The Open Source CFD Toolbox           |
|  \\    /   O peration     | Version:  2306                                  |
|   \\  /    A nd           | Website:  www.openfoam.com                      |
|    \\/     M anipulation  |                                                 |
\*---------------------------------------------------------------------------*/
FoamFile
{
    version     2.0;
    format      ascii;
    arch        "LSB;label=32;scalar=64";
    class       volScalarField;
    location    "0.00098";
    object      prefDh_H;
}
// * * * * * * * * * * * * * * * * * * * * * * * * * * * * * * * * * * * * * //

dimensions      [1 1 -3 0 0 0 0];

internalField   nonuniform List<scalar> 
531
(
23214.2912
23974.4829
23963.447
23266.6594
23163.1751
23236.2002
23971.2263
23971.1071
23279.9376
23287.3801
23989.6997
23965.0578
23331.6702
23259.1121
23305.3631
23975.4657
23977.955
23383.0804
23289.1904
23296.1422
23310.6987
23988.6482
23968.249
23300.6592
23220.4835
23261.8324
23978.9056
23971.1028
23337.1264
23152.343
23283.4859
23978.699
23971.6548
23965.0075
23291.9227
23144.8879
23194.2307
23976.0173
23961.1705
23252.2603
23064.3441
23180.1295
23970.0518
23970.8402
23953.2768
23211.1313
23050.6048
23122.209
23961.6971
23962.3006
23156.5902
23144.5623
23969.2857
23960.6757
23144.5136
23129.8635
23975.2898
23949.8146
23214.4779
23030.3157
23155.8406
23963.9309
23963.1162
23946.1808
23243.2322
23110.8249
23161.6694
23964.295
23949.7885
23252.0346
23115.2802
23167.1257
23964.0861
23950.7631
23262.5164
23047.0158
23195.7862
23960.386
23954.2648
23951.5823
23258.3542
23135.2145
23976.3447
23944.3777
23271.3993
23066.9038
23183.7436
23964.3881
23959.2645
23946.0431
23269.3273
23157.1388
23138.9354
23167.8645
23974.2155
23938.3564
23200.5728
23051.5818
23100.967
23949.9721
23948.8415
23172.5055
23159.0209
23959.8343
23943.1005
23132.6388
23191.6697
23959.8709
23956.6377
23943.0679
23258.6369
23050.999
23046.0452
23089.4384
23960.6798
23950.7231
23942.4861
23189.3623
23076.3811
23962.6013
23948.2389
23951.5969
23941.5869
23360.8462
23099.181
23204.9202
23050.6131
23092.9784
23952.1821
23946.0885
23226.0775
22957.2549
23094.3107
23952.2905
23941.14
23940.9938
23173.4526
23153.7898
23953.7969
23950.5743
23932.1755
23269.2682
23044.5929
23032.5112
23055.9285
23958.8847
23947.4427
23930.4293
23170.5833
22910.0798
22977.5145
23953.4834
23943.7283
23947.4109
23942.5579
23272.7189
23060.3105
23082.1077
23084.1399
23948.1109
23944.6187
23939.6825
23941.0583
23351.7112
23095.5185
23197.1856
23055.1023
23083.4197
23944.4337
23950.2749
23939.7251
23947.5155
23399.7573
23107.6485
23222.0971
23064.8505
23088.3372
23943.102
23948.5028
23940.9741
23948.7282
23375.3057
23045.4054
23179.7057
22979.6559
23018.0744
23950.2104
23949.4256
23946.9803
23112.6275
23086.6983
23952.1666
23952.9298
23943.2165
23254.4475
23012.8885
23954.7637
23953.0921
23202.1772
23064.4562
23960.4494
23943.9332
23236.5868
23054.7416
23072.2232
23938.9709
23964.3218
23261.3596
23143.9619
23951.7312
23950.484
23304.1742
23140.1727
23149.7256
23948.1623
23954.9251
23357.1533
23062.6891
23193.8857
23948.4523
23957.4179
23953.0929
23375.4298
23129.7735
23138.2972
23139.5892
23947.4156
23953.0291
23948.8688
23277.6628
23050.812
23063.707
23940.1138
23952.1196
23219.4579
23078.7695
23937.7372
23943.6062
23207.2454
22997.5255
23005.09
23923.4503
23953.7648
23938.4833
23957.1857
23271.2765
23033.1581
23045.2794
23026.2574
23917.7751
23951.5261
23938.1183
23952.3569
23230.2533
23031.9093
23034.5847
23934.3358
23950.534
23224.3597
23032.5814
23035.5988
23930.9489
23963.0398
23216.9427
23113.8129
23922.1873
23962.1954
23239.1626
23149.5739
23925.9744
23959.7724
23273.4902
23171.8953
23932.1323
23953.9027
23306.7951
23169.3515
23170.2671
23924.9556
23963.4327
23333.8272
23173.7494
23172.7465
23927.7508
23963.2534
23332.1586
23202.2197
23924.3435
23953.6598
23321.8831
23168.7871
23171.0167
23912.9892
23960.2366
23284.989
23090.5837
23091.4898
23926.2288
23956.2291
23950.2764
23959.6725
23275.845
23076.7751
23075.063
23071.5917
23916.755
23954.9268
23090.2684
23067.0618
23919.4052
23952.8054
23955.3733
23268.1287
23039.5672
23913.0925
23955.0097
23233.4325
23054.1917
23072.5292
23928.2458
23965.366
23247.2417
23127.9816
23916.1449
23956.5736
23263.7432
23117.6587
23123.7515
23932.7001
23967.307
23279.4209
23170.3104
23922.5698
23958.9549
23281.7228
23145.882
23154.0827
23936.2879
23971.4466
23289.4578
23190.7948
23927.5608
23962.3553
23290.6825
23165.4707
23179.1155
23939.3166
23973.8598
23306.4928
23218.6628
23931.4465
23962.5988
23314.3291
23196.2248
23207.5781
23941.6254
23970.9873
23309.8949
23178.5714
23196.9269
23949.9918
23963.0057
23265.9433
23135.0185
23162.3878
23942.3373
23971.9388
23232.223
23183.823
23937.2758
23965.4872
23183.3923
23195.2139
23958.6508
23216.5086
23148.3989
23936.8692
23965.5602
23962.4414
23257.3387
23092.6085
23939.3186
23960.0152
23221.9716
23056.3913
23139.4615
23941.9113
23969.4201
23171.6351
23210.6206
23961.9124
23280.3778
23096.6321
23936.2792
23961.8573
23213.5486
23093.9845
23942.4275
23956.412
23177.3797
22986.268
23104.7015
23944.9795
23961.5423
23963.6012
23148.5474
23160.9935
23958.6194
23955.6389
23968.6118
23265.3184
23059.0656
23168.8458
23954.9926
23965.9769
23232.8418
23140.6511
23187.9778
23956.5523
23968.8883
23279.6573
23190.2977
23235.7607
23960.5835
23970.0975
23308.9012
23218.1803
23259.6395
23962.3087
23974.0112
23308.5213
23209.4133
23251.9486
23967.5449
23973.3694
23275.5303
23178.2964
23229.0402
23965.6501
23980.3005
23254.4041
23205.5082
23972.4663
23973.3954
23250.3754
23151.5504
23208.8539
23964.7562
23983.2075
23242.29
23194.4736
23974.091
23972.7034
23249.3316
23152.5593
23212.7055
23963.4827
23985.1293
23254.641
23208.7806
23970.6893
23974.3776
23272.493
23181.2259
23231.4248
23969.5848
23973.6917
23264.8716
23173.1211
23232.8655
23964.2216
23979.8983
23255.3053
23224.7608
23969.3566
23970.6883
23235.0594
23182.5584
23133.0987
23211.2734
23979.506
23964.0828
23979.1131
23291.1312
23100.2016
23973.4504
23962.0342
23219.2159
23076.2002
23156.7547
23959.7875
23976.2551
23179.0435
23125.1246
23972.124
23962.7323
23194.2831
23075.6364
23152.9097
23958.2325
23979.8459
23192.5386
23170.4735
23969.3044
23970.1489
23229.1527
23195.4698
23978.1653
23962.2033
23261.8509
23176.4954
23225.8665
23960.9206
23977.535
23273.9823
23182.9281
23232.3897
23971.5566
23966.7257
23263.5765
23168.7132
23227.2532
23962.5206
23974.4523
23260.2187
23207.134
23970.0656
23961.2999
23267.7044
23159.2206
23203.8906
)
;

boundaryField
{
    closed
    {
        type            calculated;
        value           nonuniform List<scalar> 0();
    }
    open
    {
        type            calculated;
        value           nonuniform List<scalar> 0();
    }
    sides
    {
        type            empty;
    }
    procBoundary3to2
    {
        type            processor;
        value           uniform 23147.1695;
    }
    procBoundary3to4
    {
        type            processor;
        value           uniform 23957.6223;
    }
}


// ************************************************************************* //
