/*--------------------------------*- C++ -*----------------------------------*\
| =========                 |                                                 |
| \\      /  F ield         | OpenFOAM: The Open Source CFD Toolbox           |
|  \\    /   O peration     | Version:  2306                                  |
|   \\  /    A nd           | Website:  www.openfoam.com                      |
|    \\/     M anipulation  |                                                 |
\*---------------------------------------------------------------------------*/
FoamFile
{
    version     2.0;
    format      ascii;
    arch        "LSB;label=32;scalar=64";
    class       volScalarField;
    location    "0.00172";
    object      alpha;
}
// * * * * * * * * * * * * * * * * * * * * * * * * * * * * * * * * * * * * * //

dimensions      [1 -1 -1 0 0 0 0];

internalField   nonuniform List<scalar> 
530
(
3.49776355e-05
3.51636294e-05
3.68011742e-05
3.68193239e-05
3.67981492e-05
3.57282536e-05
3.49909363e-05
3.50011051e-05
3.68034685e-05
3.68304751e-05
3.53581811e-05
3.51365359e-05
3.68178655e-05
3.68186782e-05
3.52369434e-05
3.52381862e-05
3.68205126e-05
3.68036995e-05
3.68063618e-05
3.5706914e-05
3.52106116e-05
3.49251593e-05
3.49376136e-05
3.68199537e-05
3.67978649e-05
3.68124879e-05
3.68003682e-05
3.5740957e-05
3.4980893e-05
3.50144725e-05
3.67978239e-05
3.68151367e-05
3.53907385e-05
3.53246154e-05
3.68177128e-05
3.67994911e-05
3.68046644e-05
3.56679273e-05
3.51993218e-05
3.48667114e-05
3.48765491e-05
3.68191113e-05
3.68010268e-05
3.68130307e-05
3.54975549e-05
3.49399535e-05
3.68277271e-05
3.67982628e-05
3.68176784e-05
3.68009371e-05
3.5781618e-05
3.54156111e-05
3.52618194e-05
3.52260926e-05
3.68189834e-05
3.68121891e-05
3.56746462e-05
3.50403572e-05
3.50448365e-05
3.68127993e-05
3.68124788e-05
3.57273202e-05
3.4908503e-05
3.50828774e-05
3.68063864e-05
3.68131355e-05
3.68008837e-05
3.57280399e-05
3.50943046e-05
3.51115723e-05
3.68018791e-05
3.68188856e-05
3.54694272e-05
3.54435608e-05
3.68199971e-05
3.68027399e-05
3.68052484e-05
3.58156066e-05
3.5421815e-05
3.52341153e-05
3.51958187e-05
3.68158528e-05
3.68016202e-05
3.5603933e-05
3.48468088e-05
3.48604798e-05
3.67962124e-05
3.68098102e-05
3.52119037e-05
3.49738199e-05
3.68177912e-05
3.68045882e-05
3.68078704e-05
3.68084754e-05
3.5671446e-05
3.50854871e-05
3.48050123e-05
3.48109165e-05
3.68180935e-05
3.67969035e-05
3.68071451e-05
3.54113475e-05
3.51136237e-05
3.68209571e-05
3.67947655e-05
3.68140944e-05
3.56515721e-05
3.54451014e-05
3.68307573e-05
3.57380561e-05
3.51380315e-05
3.68231952e-05
3.68039246e-05
3.6813959e-05
3.57427651e-05
3.52187691e-05
3.50444141e-05
3.50509432e-05
3.68289989e-05
3.68095654e-05
3.68202093e-05
3.56933258e-05
3.50851422e-05
3.68318474e-05
3.68074795e-05
3.57240476e-05
3.49815799e-05
3.52343149e-05
3.68194097e-05
3.55666334e-05
3.51240091e-05
3.6832151e-05
3.68037066e-05
3.68198921e-05
3.57324461e-05
3.49894595e-05
3.50435706e-05
3.68085964e-05
3.68148007e-05
3.54089879e-05
3.5424105e-05
3.68281168e-05
3.57360602e-05
3.48970613e-05
3.6816853e-05
3.68054232e-05
3.54197913e-05
3.51449419e-05
3.68140377e-05
3.67990363e-05
3.53244188e-05
3.51874772e-05
3.68127102e-05
3.679746e-05
3.52131463e-05
3.51311381e-05
3.68218034e-05
3.67945438e-05
3.68122902e-05
3.67928936e-05
3.57685243e-05
3.51699467e-05
3.53402777e-05
3.48192612e-05
3.48316578e-05
3.67938759e-05
3.68049863e-05
3.67888783e-05
3.68063588e-05
3.54104688e-05
3.54100906e-05
3.68142093e-05
3.57000723e-05
3.47411898e-05
3.68072727e-05
3.67865286e-05
3.52471978e-05
3.49564055e-05
3.68081078e-05
3.67843192e-05
3.50526179e-05
3.49299954e-05
3.68226756e-05
3.67950755e-05
3.68234173e-05
3.6800993e-05
3.56630555e-05
3.50098402e-05
3.53079354e-05
3.48491004e-05
3.56758777e-05
3.68086346e-05
3.68535301e-05
3.68089098e-05
3.68481153e-05
3.5638661e-05
3.50608051e-05
3.68273862e-05
3.68134048e-05
3.56185629e-05
3.48463185e-05
3.48913396e-05
3.67935945e-05
3.6817151e-05
3.5341762e-05
3.53415621e-05
3.68194357e-05
3.5604152e-05
3.49723531e-05
3.68239716e-05
3.67952878e-05
3.681724e-05
3.56848342e-05
3.48263534e-05
3.4905317e-05
3.68116983e-05
3.68107129e-05
3.68082938e-05
3.681215e-05
3.57385448e-05
3.5390506e-05
3.6816083e-05
3.6794107e-05
3.57407538e-05
3.54007206e-05
3.50616188e-05
3.50566854e-05
3.67909394e-05
3.67724488e-05
3.6779156e-05
3.67954271e-05
3.49646678e-05
3.49785083e-05
3.67979564e-05
3.57626657e-05
3.48624228e-05
3.67981768e-05
3.67908201e-05
3.56715815e-05
3.4863484e-05
3.48942538e-05
3.67970381e-05
3.68000148e-05
3.67954228e-05
3.67983503e-05
3.57558245e-05
3.49392547e-05
3.53002712e-05
3.67988222e-05
3.57402445e-05
3.49447098e-05
3.68067701e-05
3.67751605e-05
3.56213978e-05
3.51437501e-05
3.47724164e-05
3.47944018e-05
3.68088901e-05
3.67882731e-05
3.68023219e-05
3.67960848e-05
3.67963598e-05
3.68011266e-05
3.56652882e-05
3.49416435e-05
3.49478409e-05
3.68005079e-05
3.68125728e-05
3.54453233e-05
3.51154638e-05
3.68089502e-05
3.6803119e-05
3.55496634e-05
3.51346708e-05
3.48019232e-05
3.4804272e-05
3.68123427e-05
3.68089204e-05
3.68031448e-05
3.68143513e-05
3.53846347e-05
3.53848434e-05
3.68258088e-05
3.55610646e-05
3.4960266e-05
3.68280227e-05
3.68011184e-05
3.68217321e-05
3.57095894e-05
3.50460703e-05
3.68176998e-05
3.67971334e-05
3.55070905e-05
3.52048549e-05
3.68150706e-05
3.67909444e-05
3.55402926e-05
3.51465666e-05
3.47428527e-05
3.47544858e-05
3.68152801e-05
3.67965364e-05
3.68100291e-05
3.68004349e-05
3.68004887e-05
3.68014931e-05
3.57482974e-05
3.52128645e-05
3.51221133e-05
3.50238321e-05
3.68106651e-05
3.67928623e-05
3.55279593e-05
3.48850147e-05
3.489268e-05
3.67843576e-05
3.67937539e-05
3.55222678e-05
3.50514216e-05
3.67917618e-05
3.67848101e-05
3.56025312e-05
3.46901022e-05
3.47844345e-05
3.67876201e-05
3.67923707e-05
3.67912432e-05
3.67957101e-05
3.67890025e-05
3.67988851e-05
3.57549585e-05
3.51050379e-05
3.49064307e-05
3.49059337e-05
3.68058709e-05
3.68019895e-05
3.49977664e-05
3.4967164e-05
3.68128626e-05
3.68021632e-05
3.68027032e-05
3.68039215e-05
3.57572967e-05
3.53296024e-05
3.52634127e-05
3.51586872e-05
3.68089833e-05
3.68061326e-05
3.55995585e-05
3.48250721e-05
3.49707106e-05
3.68130325e-05
3.67978947e-05
3.68152814e-05
3.55327694e-05
3.54742155e-05
3.68211897e-05
3.57490087e-05
3.48298437e-05
3.68217665e-05
3.68110271e-05
3.55335663e-05
3.46733575e-05
3.48591885e-05
3.68063336e-05
3.68197331e-05
3.68052675e-05
3.68146316e-05
3.68036357e-05
3.57121386e-05
3.53752524e-05
3.50944835e-05
3.51088406e-05
3.68234611e-05
3.6803635e-05
3.681637e-05
3.57266105e-05
3.51104482e-05
3.68204599e-05
3.67983025e-05
3.57240351e-05
3.50293808e-05
3.51916524e-05
3.67976526e-05
3.68047385e-05
3.67936922e-05
3.57488591e-05
3.51825652e-05
3.5315851e-05
3.47892295e-05
3.47981697e-05
3.68010061e-05
3.67986298e-05
3.68014125e-05
3.51857011e-05
3.50594102e-05
3.68157285e-05
3.6799744e-05
3.68109757e-05
3.54802611e-05
3.51522883e-05
3.68208448e-05
3.67950033e-05
3.68132475e-05
3.57379046e-05
3.50017164e-05
3.50089414e-05
3.68026566e-05
3.68090391e-05
3.56636021e-05
3.4957384e-05
3.49637652e-05
3.68007027e-05
3.68136206e-05
3.55113901e-05
3.50313732e-05
3.6812679e-05
3.68054764e-05
3.56369378e-05
3.47652732e-05
3.49657263e-05
3.68113044e-05
3.68080192e-05
3.68142577e-05
3.55998759e-05
3.51395613e-05
3.68180379e-05
3.68083313e-05
3.54965644e-05
3.52582703e-05
3.68215578e-05
3.68090804e-05
3.55640669e-05
3.52903055e-05
3.68230669e-05
3.68057476e-05
3.57227094e-05
3.51979337e-05
3.52020038e-05
3.68077596e-05
3.68117415e-05
3.57281072e-05
3.51137755e-05
3.51172494e-05
3.68016575e-05
3.68144073e-05
3.55565245e-05
3.5233721e-05
3.68086167e-05
3.68003695e-05
3.5542776e-05
3.51496927e-05
3.68092399e-05
3.67900085e-05
3.56305101e-05
3.47145973e-05
3.48464912e-05
3.67911413e-05
3.68034973e-05
3.67936337e-05
3.68014576e-05
3.67928937e-05
3.54050995e-05
3.49836299e-05
3.4558908e-05
3.45644527e-05
3.680775e-05
3.67956026e-05
3.67997786e-05
3.67956295e-05
3.67983234e-05
3.5749822e-05
3.52007751e-05
3.50841246e-05
3.50829381e-05
3.67986494e-05
3.68024993e-05
3.52100618e-05
3.51013587e-05
3.68009619e-05
3.68086322e-05
3.51868506e-05
3.51230118e-05
3.68094247e-05
3.6811011e-05
3.68017028e-05
3.68148014e-05
3.57483482e-05
3.53679561e-05
3.52183688e-05
3.52187582e-05
3.68107715e-05
3.68131402e-05
3.53335979e-05
3.53326764e-05
3.68198195e-05
3.68053627e-05
3.68104255e-05
3.58011553e-05
3.53221197e-05
3.52547721e-05
3.52534506e-05
3.68181127e-05
3.68174574e-05
3.54679022e-05
3.54694672e-05
3.68240013e-05
3.57306036e-05
3.53301488e-05
3.68268402e-05
3.5645702e-05
3.52198483e-05
3.68207358e-05
3.68048285e-05
3.68114809e-05
3.5766369e-05
3.52381374e-05
3.51241724e-05
3.5124448e-05
3.68169761e-05
3.68177185e-05
3.51538557e-05
3.51552763e-05
3.68242272e-05
3.68146438e-05
3.68164055e-05
3.55362543e-05
3.52454941e-05
3.68285405e-05
3.68096444e-05
)
;

boundaryField
{
    closed
    {
        type            calculated;
        value           nonuniform List<scalar> 0();
    }
    open
    {
        type            calculated;
        value           nonuniform List<scalar> 0();
    }
    sides
    {
        type            empty;
    }
    procBoundary2to1
    {
        type            processor;
        value           uniform 3.57259622e-05;
    }
    procBoundary2to3
    {
        type            processor;
        value           uniform 3.6813432e-05;
    }
}


// ************************************************************************* //
