/*--------------------------------*- C++ -*----------------------------------*\
| =========                 |                                                 |
| \\      /  F ield         | OpenFOAM: The Open Source CFD Toolbox           |
|  \\    /   O peration     | Version:  2306                                  |
|   \\  /    A nd           | Website:  www.openfoam.com                      |
|    \\/     M anipulation  |                                                 |
\*---------------------------------------------------------------------------*/
FoamFile
{
    version     2.0;
    format      ascii;
    arch        "LSB;label=32;scalar=64";
    class       volScalarField;
    location    "0.00172";
    object      H2O;
}
// * * * * * * * * * * * * * * * * * * * * * * * * * * * * * * * * * * * * * //

dimensions      [0 0 0 0 0 0 0];

internalField   nonuniform List<scalar> 
530
(
0.00763515484
0.00734883814
0.000967382155
0.00111083904
0.0010410159
0.00594124647
0.00761528427
0.00760225444
0.000991026298
0.00103437156
0.0070456578
0.00739127846
0.000945690773
0.00105787326
0.0072349768
0.00723286174
0.00093917872
0.00110821151
0.00103400948
0.00649296985
0.00727666374
0.00771795941
0.00769751377
0.000899934408
0.00101933132
0.00103389837
0.00103406003
0.00598657626
0.00763045452
0.00758091494
0.000997048293
0.00105231258
0.00699513856
0.00709796625
0.00094210067
0.00111417813
0.0010383519
0.006555497
0.00729411592
0.00780766306
0.00779146814
0.0008859469
0.0010587755
0.000949422725
0.0068244083
0.00769393944
0.000951731963
0.00104166632
0.00105705592
0.00106956044
0.00529777894
0.00695606702
0.00719617946
0.0072519695
0.000989636774
0.00103950296
0.00654343135
0.00753992915
0.00753366393
0.00101699748
0.00102069175
0.00629401996
0.00774162138
0.00747486086
0.000967206431
0.00110201631
0.0010472613
0.00617626866
0.007456328
0.00743019138
0.00101328833
0.00106964212
0.00687119718
0.00691058466
0.000967909749
0.00113602268
0.00106925555
0.00495571933
0.00694645057
0.00723958606
0.00729932905
0.00098204091
0.00102518402
0.00665652848
0.00783485862
0.0078178625
0.000974253808
0.00101647134
0.00727436577
0.0076428244
0.000919273522
0.00102279451
0.00102963214
0.00102855443
0.00655037976
0.00746992205
0.00790198287
0.00789155963
0.000884786932
0.00104626296
0.000964558659
0.00696194897
0.00742669843
0.00093526731
0.00109317116
0.00101106636
0.00658136399
0.0069099742
0.000977000542
0.00642928214
0.00738904606
0.00097022908
0.00110902184
0.00102221249
0.00594867248
0.00726370638
0.00753439701
0.00752407787
0.00091986337
0.00109054354
0.000990987898
0.00651088192
0.00747082301
0.001042201
0.00104261629
0.00599437225
0.00763018638
0.0072380751
0.000971032589
0.00671297105
0.00741078445
0.00095638707
0.00110223977
0.00101719024
0.00628024662
0.00761832018
0.00753583086
0.00100333769
0.00106324969
0.00696547976
0.00694171655
0.000959658774
0.00616527021
0.00776069635
0.00100969126
0.00102820683
0.006948136
0.00737830332
0.00097528735
0.00105602996
0.00709864779
0.007312355
0.000960164179
0.00105665233
0.00727222109
0.00739966393
0.000942135089
0.00104836526
0.00105545289
0.00105674474
0.00551611764
0.00733952038
0.00707336333
0.00787628995
0.00786158892
0.000937086722
0.00103118127
0.00101591054
0.00106120737
0.00696518123
0.00696483643
0.000952565906
0.00650480824
0.00799531952
0.000992813985
0.00100864937
0.00721923642
0.0076674818
0.000942706303
0.00102750456
0.00752133309
0.00770865611
0.000915932213
0.00101853861
0.00102683056
0.00102831439
0.00655533298
0.0075857129
0.0071191757
0.00783161038
0.00639593581
0.000981872464
0.00109833908
0.00106284265
0.00105376935
0.0065994699
0.00750907463
0.00101698814
0.00101896645
0.00663019761
0.00783586095
0.00777170071
0.000987232343
0.00104530533
0.00707209014
0.00707131635
0.000947395026
0.00665556268
0.00764453469
0.000943657391
0.00108403539
0.000994706812
0.00652938898
0.00786790477
0.00774882604
0.000972664985
0.0010336721
0.00106640478
0.00105823724
0.00616979397
0.00699551338
0.00105682471
0.00108994383
0.00624715147
0.00698201053
0.00750680307
0.00751315456
0.00089627587
0.000982950004
0.000967126239
0.000962584816
0.00765532777
0.00763345797
0.000905599513
0.00628654696
0.00780994204
0.00103447077
0.00103333413
0.00655153594
0.00780889503
0.00776512366
0.000980180858
0.00102963178
0.00107492287
0.00105399392
0.00596530581
0.00769351076
0.00713611135
0.000953755508
0.00623405195
0.00768442426
0.00102819885
0.00103596569
0.0066308031
0.00737946356
0.00795020046
0.00791382685
0.000867284365
0.00100630266
0.000955613877
0.00102073629
0.00105184905
0.00104474022
0.00656098733
0.0076905485
0.00768339664
0.000996477177
0.00102919872
0.00690926364
0.00742401796
0.000996225274
0.00104497575
0.00674421992
0.00739414597
0.00790605825
0.00790285866
0.000895485595
0.00102291881
0.000992928415
0.00105295049
0.00700450379
0.00700343914
0.000950480238
0.00672388027
0.00766358092
0.000928000945
0.00108440885
0.000970947219
0.00648774506
0.00753093934
0.00102040991
0.00104621882
0.00680983509
0.00728552521
0.00101173694
0.00105448126
0.00675817772
0.00737558333
0.00799666326
0.00797661594
0.000878644053
0.001001146
0.000966504628
0.0010194402
0.00106701342
0.0010491083
0.00613022066
0.00727317733
0.00741373157
0.00756498014
0.00097098214
0.0010166514
0.00677851858
0.00777577826
0.00776701351
0.00100940672
0.00102327652
0.00679004558
0.00752185414
0.00102069253
0.00102215363
0.00666301533
0.00806928321
0.00793150809
0.00094055954
0.00100591805
0.00100642588
0.00101433797
0.00108602172
0.00102604385
0.00619329552
0.00743977461
0.00774560946
0.00774675867
0.000904572931
0.0010230804
0.0076055936
0.0076530992
0.000915552044
0.00103950594
0.001043071
0.00105695681
0.00593845073
0.0070912777
0.00719417679
0.00735699354
0.000991765211
0.00102121164
0.00666450071
0.00786933987
0.00764777743
0.000954828117
0.0010718002
0.00102654534
0.00677092964
0.00686250924
0.000949998965
0.00571661557
0.00786367235
0.00102744401
0.00102434007
0.00676629719
0.00809941272
0.00782141203
0.000934682341
0.00104862245
0.00101111266
0.00109912259
0.0010905126
0.00648266538
0.00702011814
0.00745672052
0.007434279
0.000939844748
0.00109876089
0.000996083438
0.00637714642
0.00743160629
0.00104534602
0.00104833863
0.0062707582
0.00755580808
0.00730534423
0.000989363361
0.00111642282
0.00106528819
0.00594995928
0.00732005666
0.00711185988
0.00792329698
0.00791225224
0.000920513205
0.00102814967
0.0010002744
0.00731500196
0.00751063121
0.000892459078
0.00107145738
0.000972155413
0.00685253269
0.007366921
0.000933388467
0.00110613499
0.00100073117
0.00638198442
0.00759911531
0.00758901832
0.00102117351
0.00102315731
0.006561604
0.00766695549
0.00765906139
0.00100115005
0.00102298379
0.00680396526
0.00755391479
0.00100425707
0.00100681177
0.00660284207
0.00795984801
0.00765621108
0.000937234558
0.00107656363
0.00101223554
0.0066624314
0.00738666411
0.000998241371
0.00105606891
0.00682588022
0.00720193849
0.000997507956
0.00106683344
0.00671820676
0.00715207183
0.00102409082
0.00106108896
0.00624830926
0.00729616098
0.00728918676
0.00102762265
0.00104645406
0.00631299429
0.00742644321
0.00742135351
0.00101486183
0.0010518407
0.00673338353
0.00724033082
0.000997321672
0.00105588964
0.00675440828
0.00737087623
0.00100459963
0.00101669393
0.0066142035
0.00803324966
0.00783906926
0.000923004415
0.0010330151
0.000992737521
0.00106289594
0.00106093262
0.00697188237
0.00762637985
0.00827529853
0.0082647428
0.00085162711
0.00102432449
0.000940255461
0.00108932039
0.00102242106
0.00626419024
0.00729189128
0.00747216647
0.00747421948
0.000923203868
0.00104520566
0.00727741959
0.0074459306
0.000923085038
0.00104811123
0.00731334261
0.00741238244
0.000913151482
0.0010554069
0.00104684249
0.00106626144
0.00602930554
0.00703019211
0.00726426857
0.00726319896
0.000948441787
0.00107211147
0.00708419161
0.00708504622
0.000936057185
0.00112698918
0.00103125909
0.00508151679
0.00710161302
0.0072073031
0.00720868299
0.000960394373
0.00108428355
0.00687226923
0.00686953687
0.000977039985
0.00624235472
0.00708948673
0.000968664925
0.00659031513
0.00726172316
0.000936768322
0.00111906261
0.00102598352
0.00552711188
0.00723319427
0.0074105478
0.00741015258
0.000908832102
0.0010508868
0.007364473
0.00736210875
0.000880811414
0.00108271111
0.000992553745
0.00676226906
0.00722157994
0.0009277318
0.00111425606
)
;

boundaryField
{
    closed
    {
        type            calculated;
        value           nonuniform List<scalar> 0();
    }
    open
    {
        type            calculated;
        value           nonuniform List<scalar> 0();
    }
    sides
    {
        type            empty;
    }
    procBoundary2to1
    {
        type            processor;
        value           uniform 0.00606051706;
    }
    procBoundary2to3
    {
        type            processor;
        value           uniform 0.00104004085;
    }
}


// ************************************************************************* //
