/*--------------------------------*- C++ -*----------------------------------*\
| =========                 |                                                 |
| \\      /  F ield         | OpenFOAM: The Open Source CFD Toolbox           |
|  \\    /   O peration     | Version:  2306                                  |
|   \\  /    A nd           | Website:  www.openfoam.com                      |
|    \\/     M anipulation  |                                                 |
\*---------------------------------------------------------------------------*/
FoamFile
{
    version     2.0;
    format      ascii;
    arch        "LSB;label=32;scalar=64";
    class       volScalarField;
    location    "0.0012";
    object      prefDPV_H2;
}
// * * * * * * * * * * * * * * * * * * * * * * * * * * * * * * * * * * * * * //

dimensions      [1 -1 -1 0 0 0 0];

internalField   nonuniform List<scalar> 
530
(
-9.46219462e-05
-9.46794424e-05
-9.47329044e-05
-9.47882623e-05
-9.48396819e-05
-9.48930422e-05
-9.49425433e-05
-9.49940453e-05
-9.5041746e-05
-9.50915213e-05
-9.51375384e-05
-9.51850362e-05
-9.52270012e-05
-9.52709653e-05
-9.53113765e-05
-9.53538495e-05
-9.5392778e-05
-9.54338367e-05
-9.54727782e-05
-9.5515098e-05
-9.55533937e-05
-9.55943307e-05
-9.5631236e-05
-9.56708706e-05
-9.57064533e-05
-9.57448632e-05
-9.57791894e-05
-9.58164498e-05
-9.58495863e-05
-9.58852097e-05
-9.59159121e-05
-9.59495769e-05
-9.59791252e-05
-9.60117046e-05
-9.60401371e-05
-9.60716756e-05
-9.60990272e-05
-9.61295668e-05
-9.61558722e-05
-9.61854519e-05
-9.6210746e-05
-9.62394025e-05
-9.626372e-05
-9.62914885e-05
-9.63148633e-05
-9.63417782e-05
-9.63642435e-05
-9.63903384e-05
-9.64119265e-05
-9.64372349e-05
-9.6457977e-05
-9.64825323e-05
-9.65024585e-05
-9.65262947e-05
-9.65454335e-05
-9.65685852e-05
-9.65869645e-05
-9.66085281e-05
-9.66252129e-05
-9.66458959e-05
-9.66618381e-05
-9.66818338e-05
-9.66970471e-05
-9.67163687e-05
-9.67308717e-05
-9.67495261e-05
-9.67633437e-05
-9.67813291e-05
-9.67944949e-05
-9.6811796e-05
-9.6824356e-05
-9.68409382e-05
-9.68529526e-05
-9.68683516e-05
-9.68801649e-05
-9.68946404e-05
-9.69060664e-05
-9.69198208e-05
-9.69311782e-05
-9.69438228e-05
-9.69551111e-05
-9.69666709e-05
-9.69778692e-05
-9.69883898e-05
-9.69994709e-05
-9.70090035e-05
-9.70199394e-05
-9.70285352e-05
-9.70392996e-05
-9.70470071e-05
-9.70575761e-05
-9.70644423e-05
-9.70747924e-05
-9.70808678e-05
-9.70909692e-05
-9.70963218e-05
-9.71061165e-05
-9.71108595e-05
-9.71201022e-05
-9.71243459e-05
-9.7133261e-05
-9.71370491e-05
-9.71454566e-05
-9.7148848e-05
-9.71564763e-05
-9.71591767e-05
-9.71660925e-05
-9.71683902e-05
-9.71747718e-05
-9.71766643e-05
-9.71825227e-05
-9.71840077e-05
-9.71893527e-05
-9.71904289e-05
-9.71952696e-05
-9.7195936e-05
-9.72002808e-05
-9.72005372e-05
-9.72043937e-05
-9.72042406e-05
-9.72076161e-05
-9.72070543e-05
-9.72099557e-05
-9.72089865e-05
-9.72114203e-05
-9.72100452e-05
-9.72120178e-05
-9.72102388e-05
-9.72117565e-05
-9.72095756e-05
-9.72106443e-05
-9.7208064e-05
-9.72086896e-05
-9.72057126e-05
-9.72059009e-05
-9.72025299e-05
-9.72022866e-05
-9.71985248e-05
-9.71978555e-05
-9.71937059e-05
-9.71926163e-05
-9.71880823e-05
-9.71865782e-05
-9.71816631e-05
-9.71797502e-05
-9.71744574e-05
-9.71721415e-05
-9.71664747e-05
-9.71637618e-05
-9.71577248e-05
-9.71546205e-05
-9.71482176e-05
-9.71447276e-05
-9.71379636e-05
-9.71340933e-05
-9.71269734e-05
-9.71227284e-05
-9.71152582e-05
-9.71106441e-05
-9.71028293e-05
-9.70978526e-05
-9.70896975e-05
-9.70843663e-05
-9.70758726e-05
-9.70701987e-05
-9.70613622e-05
-9.70553544e-05
-9.70461888e-05
-9.70400357e-05
-9.70304595e-05
-9.70237835e-05
-9.70140809e-05
-9.70068986e-05
-9.69970521e-05
-9.69893951e-05
-9.69793879e-05
-9.69712825e-05
-9.69611025e-05
-9.69525731e-05
-9.69422101e-05
-9.69332803e-05
-9.69227257e-05
-9.69134181e-05
-9.69026649e-05
-9.68930002e-05
-9.68820435e-05
-9.68720406e-05
-9.68608775e-05
-9.68505533e-05
-9.6839183e-05
-9.68285527e-05
-9.68169762e-05
-9.68060538e-05
-9.67942732e-05
-9.67830717e-05
-9.67710906e-05
-9.67596225e-05
-9.67474452e-05
-9.67357225e-05
-9.67233541e-05
-9.67113885e-05
-9.66988349e-05
-9.6686638e-05
-9.66739058e-05
-9.66614892e-05
-9.66484238e-05
-9.66356439e-05
-9.66224154e-05
-9.66094412e-05
-9.65960619e-05
-9.65829049e-05
-9.65695176e-05
-9.65563098e-05
-9.65427797e-05
-9.6529402e-05
-9.65157294e-05
-9.65021888e-05
-9.64883801e-05
-9.64746841e-05
-9.64607453e-05
-9.64469017e-05
-9.64328387e-05
-9.64188552e-05
-9.64046741e-05
-9.63905585e-05
-9.63762651e-05
-9.63620252e-05
-9.63476255e-05
-9.63332692e-05
-9.63187693e-05
-9.63043042e-05
-9.62897102e-05
-9.62751439e-05
-9.62604622e-05
-9.62458022e-05
-9.6231039e-05
-9.62162928e-05
-9.62014545e-05
-9.61866295e-05
-9.61717225e-05
-9.6156826e-05
-9.61418606e-05
-9.61269216e-05
-9.61119079e-05
-9.60968885e-05
-9.60818043e-05
-9.60667124e-05
-9.60515649e-05
-9.60364087e-05
-9.60212051e-05
-9.60059923e-05
-9.59907398e-05
-9.59754783e-05
-9.59601842e-05
-9.59448815e-05
-9.59295529e-05
-9.59142168e-05
-9.58988607e-05
-9.58834986e-05
-9.58681222e-05
-9.58527413e-05
-9.58373516e-05
-9.58219593e-05
-9.58065632e-05
-9.57911666e-05
-9.5775771e-05
-9.5760377e-05
-9.57449886e-05
-9.57296043e-05
-9.57142298e-05
-9.56988619e-05
-9.56835078e-05
-9.56681631e-05
-9.56528357e-05
-9.56375209e-05
-9.56222263e-05
-9.56069479e-05
-9.55916924e-05
-9.55764567e-05
-9.55611233e-05
-9.55457395e-05
-9.55303919e-05
-9.5515078e-05
-9.54998038e-05
-9.54845652e-05
-9.54693693e-05
-9.54542111e-05
-9.54390983e-05
-9.54240256e-05
-9.54090007e-05
-9.53940183e-05
-9.53790858e-05
-9.53641985e-05
-9.5349363e-05
-9.53345751e-05
-9.53198411e-05
-9.53051572e-05
-9.52905288e-05
-9.52759531e-05
-9.52614347e-05
-9.52469712e-05
-9.52325668e-05
-9.52182196e-05
-9.52039331e-05
-9.5189706e-05
-9.51755412e-05
-9.51614379e-05
-9.51473985e-05
-9.51334225e-05
-9.5119512e-05
-9.51056668e-05
-9.50918885e-05
-9.50781775e-05
-9.50645345e-05
-9.50509608e-05
-9.50374564e-05
-9.5024023e-05
-9.50106601e-05
-9.49973698e-05
-9.49841511e-05
-9.49710068e-05
-9.49579351e-05
-9.49449393e-05
-9.4932017e-05
-9.49191721e-05
-9.49064018e-05
-9.48937101e-05
-9.48810939e-05
-9.48685576e-05
-9.48560978e-05
-9.48437187e-05
-9.48314174e-05
-9.48191973e-05
-9.48070564e-05
-9.4794997e-05
-9.47830183e-05
-9.47711211e-05
-9.47593062e-05
-9.47475904e-05
-9.47359952e-05
-9.47244785e-05
-9.4713041e-05
-9.4701684e-05
-9.46904061e-05
-9.46792106e-05
-9.46680943e-05
-9.46570618e-05
-9.46461088e-05
-9.46352408e-05
-9.46244525e-05
-9.46137502e-05
-9.46031281e-05
-9.45925926e-05
-9.45821378e-05
-9.45717701e-05
-9.45614836e-05
-9.45512847e-05
-9.45411673e-05
-9.45311378e-05
-9.45211902e-05
-9.45113308e-05
-9.45015535e-05
-9.44918646e-05
-9.4482258e-05
-9.44727399e-05
-9.44633042e-05
-9.44539572e-05
-9.44446925e-05
-9.44355165e-05
-9.44264229e-05
-9.44174179e-05
-9.44084952e-05
-9.43996609e-05
-9.43909089e-05
-9.4382245e-05
-9.43736633e-05
-9.43651694e-05
-9.43567574e-05
-9.4348433e-05
-9.434019e-05
-9.43320345e-05
-9.43239598e-05
-9.43158612e-05
-9.43077688e-05
-9.42997662e-05
-9.42918466e-05
-9.42840159e-05
-9.42762677e-05
-9.42686075e-05
-9.42610293e-05
-9.42535384e-05
-9.42461288e-05
-9.42388058e-05
-9.42315633e-05
-9.42244065e-05
-9.42173295e-05
-9.42103375e-05
-9.42034244e-05
-9.41965954e-05
-9.41898445e-05
-9.41831768e-05
-9.41765863e-05
-9.41700781e-05
-9.41636463e-05
-9.41572957e-05
-9.41510206e-05
-9.41448258e-05
-9.41387056e-05
-9.41326646e-05
-9.41266972e-05
-9.4120808e-05
-9.41149914e-05
-9.41092519e-05
-9.41035842e-05
-9.40979924e-05
-9.40924713e-05
-9.4087025e-05
-9.40816485e-05
-9.40763456e-05
-9.40711114e-05
-9.40659498e-05
-9.40608558e-05
-9.40558331e-05
-9.40508771e-05
-9.40459912e-05
-9.40411709e-05
-9.40364195e-05
-9.40317326e-05
-9.40271134e-05
-9.40225577e-05
-9.40180684e-05
-9.40136415e-05
-9.40092799e-05
-9.40049795e-05
-9.40007432e-05
-9.3996567e-05
-9.39924536e-05
-9.39883993e-05
-9.39844066e-05
-9.39804718e-05
-9.39765974e-05
-9.39727798e-05
-9.39690213e-05
-9.39653186e-05
-9.39616737e-05
-9.39580835e-05
-9.39545498e-05
-9.39510698e-05
-9.3947645e-05
-9.39442728e-05
-9.39409547e-05
-9.3937688e-05
-9.39344707e-05
-9.39311877e-05
-9.39277324e-05
-9.39240986e-05
-9.39202845e-05
-9.39162854e-05
-9.39121017e-05
-9.39077306e-05
-9.39031751e-05
-9.38984356e-05
-9.38935182e-05
-9.38884276e-05
-9.38831739e-05
-9.38777671e-05
-9.38722223e-05
-9.38665556e-05
-9.38607879e-05
-9.38549427e-05
-9.38490468e-05
-9.38431313e-05
-9.3837229e-05
-9.38313785e-05
-9.38256171e-05
-9.38199895e-05
-9.38145355e-05
-9.38093027e-05
-9.38043294e-05
-9.37996613e-05
-9.37953301e-05
-9.37913733e-05
-9.37878099e-05
-9.37846623e-05
-9.37819312e-05
-9.37796187e-05
-9.37777047e-05
-9.3776169e-05
-9.37749735e-05
-9.37740797e-05
-9.377344e-05
-9.37730077e-05
-9.37727363e-05
-9.37725872e-05
-9.37725177e-05
-9.37725148e-05
-9.37725016e-05
-9.37723647e-05
-9.37722794e-05
-9.37722411e-05
-9.37722242e-05
-9.37722193e-05
-9.37722164e-05
-9.37722157e-05
-9.37722153e-05
-9.37722153e-05
-9.37722152e-05
-9.37722152e-05
-9.37722152e-05
-9.37722152e-05
-9.37722152e-05
-9.37722152e-05
-9.37722152e-05
-9.37722152e-05
-9.37722152e-05
-9.37722152e-05
-9.37722152e-05
-9.37722152e-05
-9.37722152e-05
-9.37722152e-05
-9.37722152e-05
-9.37722152e-05
-9.37722152e-05
-9.37722152e-05
-9.37722152e-05
-9.37722152e-05
-9.37722152e-05
-9.37722152e-05
-9.37722152e-05
-9.37722152e-05
)
;

boundaryField
{
    closed
    {
        type            calculated;
        value           nonuniform List<scalar> 0();
    }
    open
    {
        type            calculated;
        value           uniform -9.37722152e-05;
    }
    sides
    {
        type            empty;
    }
    procBoundary5to4
    {
        type            processor;
        value           uniform -9.45663059e-05;
    }
}


// ************************************************************************* //
