/*--------------------------------*- C++ -*----------------------------------*\
| =========                 |                                                 |
| \\      /  F ield         | OpenFOAM: The Open Source CFD Toolbox           |
|  \\    /   O peration     | Version:  2306                                  |
|   \\  /    A nd           | Website:  www.openfoam.com                      |
|    \\/     M anipulation  |                                                 |
\*---------------------------------------------------------------------------*/
FoamFile
{
    version     2.0;
    format      ascii;
    arch        "LSB;label=32;scalar=64";
    class       volScalarField;
    location    "0.0012";
    object      prefDh_H2O;
}
// * * * * * * * * * * * * * * * * * * * * * * * * * * * * * * * * * * * * * //

dimensions      [1 1 -3 0 0 0 0];

internalField   nonuniform List<scalar> 
530
(
-201.381595
-201.543377
-201.694435
-201.849456
-201.994312
-202.142978
-202.281953
-202.424648
-202.558046
-202.695135
-202.823247
-202.953363
-203.070161
-203.190316
-203.302314
-203.417747
-203.525156
-203.636131
-203.742926
-203.856563
-203.961192
-204.070665
-204.171202
-204.27676
-204.373401
-204.475279
-204.568217
-204.666632
-204.756054
-204.850913
-204.936279
-205.027523
-205.109616
-205.197826
-205.276774
-205.362093
-205.43802
-205.520582
-205.593609
-205.67354
-205.743784
-205.821206
-205.888781
-205.963809
-206.028825
-206.101571
-206.164133
-206.234704
-206.294915
-206.363414
-206.421374
-206.487901
-206.543708
-206.608356
-206.662105
-206.724966
-206.776751
-206.836003
-206.884073
-206.941416
-206.987778
-207.043616
-207.088343
-207.142711
-207.18588
-207.238803
-207.280498
-207.331987
-207.372305
-207.422351
-207.461401
-207.509979
-207.547881
-207.594223
-207.631657
-207.676117
-207.712867
-207.755734
-207.792435
-207.833031
-207.869733
-207.908095
-207.944819
-207.981012
-208.017757
-208.051861
-208.088616
-208.12072
-208.157469
-208.187668
-208.224384
-208.252785
-208.289428
-208.316158
-208.352657
-208.377885
-208.41411
-208.438062
-208.4734
-208.496508
-208.531278
-208.553902
-208.58759
-208.609839
-208.64214
-208.663765
-208.694864
-208.716222
-208.746319
-208.767421
-208.796539
-208.817392
-208.845555
-208.866159
-208.893394
-208.913748
-208.940083
-208.960184
-208.985647
-209.00549
-209.03011
-209.049689
-209.073496
-209.092804
-209.115826
-209.134858
-209.157121
-209.175872
-209.197402
-209.215867
-209.236689
-209.254864
-209.275
-209.292882
-209.312355
-209.329941
-209.348771
-209.36606
-209.384265
-209.401257
-209.418855
-209.435549
-209.452557
-209.468953
-209.485387
-209.501486
-209.51736
-209.533163
-209.548491
-209.563999
-209.578796
-209.59401
-209.608289
-209.62321
-209.636983
-209.651614
-209.664893
-209.679234
-209.692031
-209.706086
-209.71841
-209.732184
-209.744044
-209.75754
-209.768944
-209.782168
-209.793138
-209.806052
-209.816563
-209.829222
-209.839387
-209.851671
-209.861537
-209.87344
-209.883012
-209.894538
-209.903822
-209.914978
-209.92398
-209.93477
-209.943497
-209.953926
-209.962384
-209.972457
-209.980652
-209.990376
-209.998312
-210.007694
-210.015375
-210.024422
-210.031851
-210.040571
-210.047751
-210.056152
-210.063087
-210.071177
-210.07787
-210.085657
-210.09211
-210.099603
-210.105822
-210.113027
-210.119016
-210.125941
-210.131709
-210.137306
-210.141842
-210.147155
-210.151486
-210.156544
-210.160676
-210.166186
-210.170823
-210.176189
-210.180674
-210.185867
-210.190203
-210.195225
-210.199415
-210.204267
-210.208313
-210.212997
-210.216904
-210.221421
-210.225191
-210.229544
-210.233179
-210.237369
-210.240872
-210.244903
-210.248276
-210.25215
-210.255395
-210.259114
-210.262234
-210.2658
-210.268797
-210.272215
-210.275091
-210.278361
-210.28112
-210.284226
-210.286714
-210.289518
-210.291827
-210.294441
-210.296576
-210.299004
-210.30097
-210.303217
-210.30502
-210.30709
-210.308735
-210.310633
-210.312124
-210.313856
-210.315199
-210.316769
-210.317967
-210.319381
-210.320439
-210.321701
-210.322624
-210.32374
-210.324531
-210.325505
-210.32617
-210.327007
-210.327549
-210.328255
-210.328678
-210.329256
-210.329565
-210.330019
-210.330219
-210.330554
-210.33065
-210.330867
-210.330864
-210.330168
-210.328761
-210.327478
-210.32602
-210.324684
-210.323178
-210.321791
-210.320241
-210.318804
-210.317213
-210.315729
-210.314099
-210.312571
-210.310905
-210.309335
-210.307635
-210.306025
-210.304294
-210.302647
-210.300887
-210.299206
-210.297418
-210.295706
-210.293893
-210.292152
-210.290316
-210.288548
-210.286692
-210.2849
-210.283025
-210.281212
-210.27932
-210.277487
-210.275581
-210.273732
-210.271814
-210.269949
-210.268021
-210.266143
-210.264207
-210.262319
-210.260377
-210.25848
-210.256534
-210.254631
-210.252682
-210.250775
-210.248826
-210.246917
-210.244968
-210.243059
-210.241113
-210.239207
-210.237263
-210.235363
-210.233423
-210.23153
-210.229596
-210.227713
-210.225776
-210.223872
-210.221918
-210.220002
-210.218046
-210.216123
-210.214169
-210.212243
-210.210293
-210.208369
-210.206424
-210.204506
-210.20257
-210.20066
-210.198735
-210.196837
-210.194926
-210.193042
-210.191148
-210.18928
-210.187405
-210.185556
-210.183702
-210.181875
-210.180043
-210.17824
-210.176433
-210.174655
-210.172876
-210.171125
-210.169374
-210.167653
-210.165932
-210.164241
-210.162552
-210.160893
-210.159237
-210.157612
-210.15599
-210.154399
-210.152814
-210.151258
-210.14971
-210.148189
-210.146182
-210.143868
-210.141577
-210.139324
-210.137094
-210.134902
-210.132732
-210.130601
-210.128492
-210.126422
-210.124374
-210.122363
-210.120376
-210.118426
-210.116499
-210.114608
-210.112741
-210.110911
-210.109103
-210.107331
-210.105583
-210.10387
-210.102181
-210.100526
-210.098894
-210.097297
-210.095723
-210.094183
-210.092666
-210.091183
-210.089722
-210.088294
-210.086889
-210.085516
-210.084165
-210.082846
-210.08155
-210.080285
-210.079041
-210.077828
-210.076638
-210.075476
-210.074337
-210.073227
-210.072138
-210.071077
-210.070038
-210.069027
-210.068036
-210.067073
-210.06613
-210.065213
-210.064317
-210.063447
-210.062596
-210.061771
-210.060965
-210.060184
-210.059421
-210.058683
-210.057963
-210.057267
-210.056589
-210.055934
-210.055296
-210.054681
-210.054082
-210.053506
-210.052946
-210.052407
-210.051884
-210.051363
-210.050823
-210.050273
-210.049707
-210.049135
-210.048553
-210.047972
-210.047389
-210.046817
-210.046254
-210.045714
-210.045197
-210.04472
-210.044285
-210.04391
-210.043598
-210.04337
-210.043231
-210.043202
-210.043289
-210.043512
-210.043879
-210.044406
-210.045099
-210.045969
-210.047017
-210.048246
-210.049649
-210.051216
-210.052931
-210.054767
-210.056698
-210.058685
-210.060689
-210.062665
-210.064569
-210.06636
-210.068
-210.069466
-210.070727
-210.071813
-210.072659
-210.07341
-210.073834
-210.073737
-210.073676
-210.073649
-210.073638
-210.073634
-210.073632
-210.073632
-210.073632
-210.073632
-210.073632
-210.073632
-210.073632
-210.073632
-210.073632
-210.073632
-210.073632
-210.073632
-210.073632
-210.073632
-210.073632
-210.073632
-210.073632
-210.073632
-210.073632
-210.073632
-210.073632
-210.073632
-210.073632
-210.073632
-210.073632
-210.073632
-210.073632
-210.073632
)
;

boundaryField
{
    closed
    {
        type            calculated;
        value           nonuniform List<scalar> 0();
    }
    open
    {
        type            calculated;
        value           uniform -210.073632;
    }
    sides
    {
        type            empty;
    }
    procBoundary5to4
    {
        type            processor;
        value           uniform -201.223993;
    }
}


// ************************************************************************* //
