/*--------------------------------*- C++ -*----------------------------------*\
| =========                 |                                                 |
| \\      /  F ield         | OpenFOAM: The Open Source CFD Toolbox           |
|  \\    /   O peration     | Version:  2306                                  |
|   \\  /    A nd           | Website:  www.openfoam.com                      |
|    \\/     M anipulation  |                                                 |
\*---------------------------------------------------------------------------*/
FoamFile
{
    version     2.0;
    format      ascii;
    arch        "LSB;label=32;scalar=64";
    class       volScalarField;
    location    "0.0012";
    object      prefDh_H;
}
// * * * * * * * * * * * * * * * * * * * * * * * * * * * * * * * * * * * * * //

dimensions      [1 1 -3 0 0 0 0];

internalField   nonuniform List<scalar> 
530
(
92832.5893
92900.7335
92964.1527
93029.7965
93090.8172
93154.1245
93212.892
93274.0255
93330.6787
93389.7923
93444.4684
93500.953
93551.0111
93603.4539
93651.6762
93702.3614
93748.8312
93797.8476
93844.3523
93894.9005
93940.6505
93989.5657
94033.6683
94081.0439
94123.5783
94169.5048
94210.5481
94255.1134
94294.7439
94337.3999
94374.2091
94414.5772
94450.0037
94489.071
94523.1591
94560.9775
94593.7673
94630.3856
94661.9173
94697.3808
94727.6949
94762.0463
94791.1828
94824.4631
94852.4617
94884.7107
94911.61
94942.8671
94968.7047
94999.0088
95023.8212
95053.2116
95077.0338
95105.5504
95128.4156
95156.0995
95178.0401
95203.859
95223.8001
95248.5513
95267.5799
95291.485
95309.6163
95332.6909
95349.9462
95372.1979
95388.6063
95410.0326
95425.6337
95446.2152
95461.0642
95480.7576
95494.9272
95513.1668
95527.0731
95544.179
95557.5905
95573.8129
95587.1122
95601.9791
95615.1646
95628.7061
95641.7517
95654.0228
95666.8945
95677.9573
95690.6206
95700.5364
95712.9593
95721.7864
95733.9397
95741.7341
95753.5901
95760.411
95771.9349
95777.8624
95788.9863
95794.1541
95804.5948
95809.1251
95819.1534
95823.0861
95832.4967
95835.9034
95844.3646
95846.8858
95854.474
95856.4607
95863.3926
95864.8423
95871.1302
95872.0409
95877.6958
95878.0666
95883.0985
95882.9292
95887.3472
95886.6387
95890.451
95889.2049
95892.4192
95890.6374
95893.2613
95890.9464
95892.987
95890.1417
95891.606
95888.2336
95889.1284
95885.2323
95885.5644
95881.1484
95880.9244
95875.9924
95875.2189
95869.7752
95868.4587
95862.5076
95860.6548
95854.2009
95851.8185
95844.8662
95841.9612
95834.5153
95831.0944
95823.1597
95819.2302
95810.8116
95806.3807
95797.4835
95792.5581
95783.1882
95777.7752
95767.939
95762.0453
95751.75
95745.3823
95734.6354
95727.8008
95716.6096
95709.3165
95697.6869
95689.9457
95677.8797
95669.7058
95657.1977
95648.6017
95635.6722
95626.9058
95613.4435
95604.0003
95590.3891
95580.2884
95566.5056
95555.7891
95541.8127
95530.5149
95516.3287
95504.4818
95490.0722
95477.7071
95463.0627
95450.2091
95435.3205
95422.0058
95406.8662
95393.1152
95377.7207
95363.5558
95347.905
95333.3464
95317.44
95302.5063
95286.3469
95271.0553
95254.6472
95239.0142
95222.3628
95206.4042
95189.5159
95173.2472
95156.1295
95139.5658
95122.2269
95105.3835
95087.7278
95070.5201
95052.6653
95035.2111
95017.1706
94999.485
94981.3784
94963.5699
94945.2835
94927.2596
94908.7965
94890.5667
94871.9352
94853.5093
94834.7174
94816.1055
94797.161
94778.3734
94759.2841
94740.331
94721.1045
94701.9963
94682.6405
94663.3873
94643.9102
94624.5221
94604.9316
94585.4186
94565.723
94546.095
94526.3024
94506.5692
94486.6879
94466.8592
94446.8976
94426.983
94406.9572
94387.0141
94366.9526
94346.915
94326.7731
94306.6514
94286.4383
94266.2427
94245.9679
94225.7085
94205.3811
94185.0681
94164.6973
94144.3405
94123.9357
94103.5449
94083.1149
94062.6998
94042.2539
94021.8239
94001.371
93980.9354
93960.4845
93940.0525
93919.6123
93899.193
93878.7721
93858.3744
93837.9813
93817.614
93797.2571
93776.9288
93756.6162
93736.3355
93716.0752
93695.8505
93675.6502
93655.4896
93635.269
93615.0419
93594.8568
93574.7267
93554.6435
93534.6173
93514.6423
93494.7265
93474.8658
93455.0671
93435.3268
93415.6512
93396.0372
93376.4908
93357.0089
93337.5975
93318.2535
93298.9827
93279.782
93260.6573
93241.6052
93222.6319
93203.7336
93184.9167
93166.1772
93147.5216
93128.9458
93110.4563
93092.0487
93073.7298
93055.495
93037.3511
93019.2932
93001.3285
92983.4517
92965.6702
92947.9783
92930.3838
92912.8807
92895.4769
92878.1659
92860.9562
92843.8408
92826.8285
92809.9119
92793.1
92776.3851
92759.7766
92743.2664
92726.8637
92710.5609
92694.3666
92678.2738
92662.2901
92646.4095
92630.6386
92614.9725
92599.4162
92583.9665
92568.6525
92553.502
92538.4575
92523.5161
92508.6831
92493.9534
92479.334
92464.8182
92450.4142
92436.1142
92421.9274
92407.845
92393.8768
92380.0135
92366.2652
92352.6225
92339.0952
92325.674
92312.3689
92299.1702
92286.0878
92273.1123
92260.2534
92247.5016
92234.8665
92222.3388
92209.9279
92197.6245
92185.4378
92173.3587
92161.3961
92149.5411
92137.8025
92126.1713
92114.6562
92103.2483
92091.9562
92080.7711
92069.7013
92058.7381
92047.8898
92037.1476
92026.5199
92015.9975
92005.4848
91995.0072
91984.6463
91974.3925
91964.2541
91954.2223
91944.3048
91934.4931
91924.7948
91915.2013
91905.7203
91896.343
91887.0771
91877.9141
91868.8612
91859.9102
91851.0682
91842.327
91833.6936
91825.1599
91816.7327
91808.404
91800.1807
91792.0547
91784.0326
91776.1067
91768.2834
91760.555
91752.9279
91745.3944
91737.9607
91730.6194
91723.3765
91716.2247
91709.1697
91702.2046
91695.3349
91688.5537
91681.8662
91675.266
91668.7581
91662.336
91656.0046
91649.7578
91643.6
91637.5254
91631.5384
91625.6331
91619.8137
91614.0747
91608.4201
91602.8444
91597.3515
91591.9361
91586.6019
91581.3438
91576.1653
91571.0615
91566.0356
91561.083
91556.2067
91551.4023
91546.6726
91542.0135
91537.4273
91532.9103
91528.4648
91524.0869
91519.7789
91515.5372
91511.3593
91507.0956
91502.6077
91497.8871
91492.9319
91487.7356
91482.2984
91476.6168
91470.6943
91464.5312
91458.1353
91451.5123
91444.6753
91437.6364
91430.4156
91423.0328
91415.5154
91407.8927
91400.1997
91392.4761
91384.7642
91377.1134
91369.5723
91362.1983
91355.0431
91348.1681
91341.6235
91335.4688
91329.7456
91324.5034
91319.7678
91315.5693
91311.9103
91308.7954
91306.2001
91304.1005
91302.4489
91301.197
91300.2845
91299.6513
91299.2383
91298.9933
91298.8635
91298.8254
91298.7895
91298.617
91298.5093
91298.4608
91298.4393
91298.433
91298.4293
91298.4284
91298.4279
91298.4278
91298.4278
91298.4278
91298.4278
91298.4278
91298.4278
91298.4278
91298.4278
91298.4278
91298.4278
91298.4278
91298.4278
91298.4278
91298.4278
91298.4278
91298.4278
91298.4278
91298.4278
91298.4278
91298.4278
91298.4278
91298.4278
91298.4278
91298.4278
91298.4278
)
;

boundaryField
{
    closed
    {
        type            calculated;
        value           nonuniform List<scalar> 0();
    }
    open
    {
        type            calculated;
        value           uniform 91298.4278;
    }
    sides
    {
        type            empty;
    }
    procBoundary5to4
    {
        type            processor;
        value           uniform 92766.6117;
    }
}


// ************************************************************************* //
