/*--------------------------------*- C++ -*----------------------------------*\
| =========                 |                                                 |
| \\      /  F ield         | OpenFOAM: The Open Source CFD Toolbox           |
|  \\    /   O peration     | Version:  2306                                  |
|   \\  /    A nd           | Website:  www.openfoam.com                      |
|    \\/     M anipulation  |                                                 |
\*---------------------------------------------------------------------------*/
FoamFile
{
    version     2.0;
    format      ascii;
    arch        "LSB;label=32;scalar=64";
    class       volScalarField;
    location    "0.0012";
    object      T;
}
// * * * * * * * * * * * * * * * * * * * * * * * * * * * * * * * * * * * * * //

dimensions      [0 0 0 1 0 0 0];

internalField   nonuniform List<scalar> 
530
(
1700.45608
1701.97107
1703.38354
1704.84369
1706.2032
1707.61211
1708.92191
1710.28317
1711.54635
1712.86336
1714.08297
1715.34252
1716.4613
1717.6328
1718.71138
1719.8446
1720.88477
1721.98157
1723.023
1724.15422
1725.17874
1726.27357
1727.26124
1728.3217
1729.27426
1730.30233
1731.22145
1732.21904
1733.10646
1734.06038
1734.8825
1735.78372
1736.5747
1737.44659
1738.20738
1739.05107
1739.78255
1740.59908
1741.3021
1742.09246
1742.76788
1743.53299
1744.18169
1744.92243
1745.54525
1746.26248
1746.86027
1747.55483
1748.1284
1748.80115
1749.35128
1750.00307
1750.53052
1751.16223
1751.66771
1752.28024
1752.76445
1753.33335
1753.77082
1754.31486
1754.73122
1755.25561
1755.65116
1756.15625
1756.53142
1757.01737
1757.37279
1757.83952
1758.17605
1758.62312
1758.94197
1759.36837
1759.67117
1760.0641
1760.36015
1760.72701
1761.01088
1761.35749
1761.6376
1761.95336
1762.22967
1762.51524
1762.78712
1763.04374
1763.31042
1763.53947
1763.80015
1764.00299
1764.25695
1764.43487
1764.68148
1764.83569
1765.07434
1765.20611
1765.43608
1765.5471
1765.76699
1765.86013
1766.06415
1766.14168
1766.33586
1766.39815
1766.57841
1766.6271
1766.78361
1766.80798
1766.94326
1766.95385
1767.07422
1767.07098
1767.17667
1767.1596
1767.25082
1767.21994
1767.29685
1767.2522
1767.31498
1767.25662
1767.30539
1767.2334
1767.26831
1767.18277
1767.20394
1767.10496
1767.11251
1767.00019
1766.99424
1766.86869
1766.84938
1766.7107
1766.67815
1766.52647
1766.4808
1766.31625
1766.25759
1766.08027
1766.00876
1765.81881
1765.73458
1765.53213
1765.43533
1765.2205
1765.11126
1764.88419
1764.76268
1764.52349
1764.38986
1764.13868
1763.9931
1763.73008
1763.57269
1763.298
1763.12897
1762.84276
1762.66224
1762.36471
1762.17285
1761.86419
1761.66117
1761.34157
1761.12758
1760.79718
1760.57248
1760.23134
1759.99632
1759.64428
1759.39917
1759.03685
1758.78819
1758.4126
1758.14713
1757.76842
1757.48652
1757.10415
1756.80689
1756.42027
1756.10854
1755.71725
1755.39186
1754.99555
1754.65729
1754.25566
1753.90527
1753.49807
1753.13627
1752.72332
1752.35072
1751.93191
1751.54911
1751.12437
1750.73188
1750.30123
1749.89952
1749.46302
1749.05254
1748.61026
1748.19143
1747.74351
1747.31674
1746.86332
1746.42899
1745.97026
1745.52877
1745.06492
1744.61663
1744.14696
1743.6914
1743.21716
1742.75564
1742.27711
1741.80999
1741.32666
1740.85332
1740.36563
1739.88709
1739.39529
1738.91178
1738.41608
1737.92786
1737.42846
1736.93578
1736.43287
1735.93599
1735.42977
1734.92896
1734.41962
1733.91514
1733.40288
1732.89499
1732.38001
1731.86896
1731.35146
1730.83751
1730.31769
1729.80109
1729.27916
1728.76017
1728.23633
1727.71518
1727.18966
1726.6666
1726.13979
1725.61636
1725.0891
1724.56365
1724.03478
1723.50758
1722.97733
1722.44862
1721.91722
1721.38726
1720.85494
1720.32398
1719.79097
1719.25925
1718.72577
1718.19355
1717.65982
1717.12732
1716.59358
1716.06105
1715.5275
1714.99516
1714.46204
1713.93013
1713.39763
1712.86637
1712.33473
1711.80434
1711.27375
1710.74445
1710.21512
1709.68712
1709.15925
1708.63277
1708.10656
1707.5818
1707.05744
1706.5346
1706.01125
1705.48895
1704.96751
1704.44788
1703.92924
1703.41244
1702.89676
1702.38297
1701.87041
1701.35978
1700.85048
1700.34317
1699.83729
1699.33345
1698.83112
1698.33089
1697.83226
1697.33579
1696.841
1696.34842
1695.85759
1695.36904
1694.88231
1694.3979
1693.91539
1693.43525
1692.95708
1692.48133
1692.00761
1691.53636
1691.0672
1690.60056
1690.13607
1689.67415
1689.21442
1688.75731
1688.30245
1687.85024
1687.40033
1686.95312
1686.50826
1686.06613
1685.62638
1685.18941
1684.75487
1684.32313
1683.89386
1683.46743
1683.0435
1682.62244
1682.20392
1681.78828
1681.37523
1680.96508
1680.55755
1680.15293
1679.75097
1679.35194
1678.9556
1678.56277
1678.17388
1677.78784
1677.40444
1677.02392
1676.64605
1676.2711
1675.8988
1675.52947
1675.1628
1674.79911
1674.4381
1674.08009
1673.72477
1673.37246
1673.02287
1672.67629
1672.33244
1671.99162
1671.65352
1671.31846
1670.98614
1670.65685
1670.33031
1670.0068
1669.68604
1669.36832
1669.05334
1668.7414
1668.4322
1668.12603
1667.82261
1667.5222
1667.22453
1666.92987
1666.63795
1666.34901
1666.06281
1665.77959
1665.49909
1665.22155
1664.94672
1664.67485
1664.40566
1664.13756
1663.87092
1663.60726
1663.34632
1663.08832
1662.83302
1662.58064
1662.33093
1662.08412
1661.83997
1661.59868
1661.36002
1661.1242
1660.89098
1660.66057
1660.43274
1660.20768
1659.98518
1659.76542
1659.54818
1659.33366
1659.12163
1658.91228
1658.70539
1658.50115
1658.29934
1658.10014
1657.90334
1657.70911
1657.51726
1657.32794
1657.14096
1656.95648
1656.7743
1656.59458
1656.41714
1656.24212
1656.06934
1655.89894
1655.73075
1655.5649
1655.40122
1655.23984
1655.0806
1654.92363
1654.76875
1654.6161
1654.46552
1654.31712
1654.17075
1654.02652
1653.88429
1653.74415
1653.60598
1653.46987
1653.33568
1653.20351
1653.07323
1652.94493
1652.81848
1652.69397
1652.57128
1652.45048
1652.33146
1652.2143
1652.09888
1651.98528
1651.87339
1651.76327
1651.65483
1651.548
1651.43897
1651.32418
1651.20342
1651.07663
1650.94365
1650.80447
1650.65899
1650.5073
1650.3494
1650.18548
1650.01567
1649.84031
1649.65968
1649.47429
1649.28462
1649.09137
1648.89527
1648.6972
1648.49816
1648.29922
1648.10161
1647.90658
1647.71558
1647.52993
1647.35119
1647.18065
1647.01984
1646.86985
1646.73196
1646.60688
1646.49542
1646.3977
1646.31391
1646.2435
1646.18592
1646.14003
1646.10465
1646.07829
1646.05946
1646.04666
1646.0385
1646.03372
1646.03148
1646.02987
1646.02566
1646.02302
1646.02183
1646.02129
1646.02114
1646.02104
1646.02102
1646.02101
1646.02101
1646.021
1646.021
1646.021
1646.021
1646.021
1646.021
1646.021
1646.021
1646.021
1646.021
1646.021
1646.021
1646.021
1646.021
1646.021
1646.021
1646.021
1646.021
1646.021
1646.021
1646.021
1646.021
1646.021
1646.021
)
;

boundaryField
{
    closed
    {
        type            fixedValue;
        value           nonuniform List<scalar> 0();
    }
    open
    {
        type            zeroGradient;
    }
    sides
    {
        type            empty;
    }
    procBoundary5to4
    {
        type            processor;
        value           uniform 1698.98707;
    }
}


// ************************************************************************* //
