/*--------------------------------*- C++ -*----------------------------------*\
| =========                 |                                                 |
| \\      /  F ield         | OpenFOAM: The Open Source CFD Toolbox           |
|  \\    /   O peration     | Version:  2306                                  |
|   \\  /    A nd           | Website:  www.openfoam.com                      |
|    \\/     M anipulation  |                                                 |
\*---------------------------------------------------------------------------*/
FoamFile
{
    version     2.0;
    format      ascii;
    arch        "LSB;label=32;scalar=64";
    class       volVectorField;
    location    "0.0012";
    object      U;
}
// * * * * * * * * * * * * * * * * * * * * * * * * * * * * * * * * * * * * * //

dimensions      [0 1 -1 0 0 0 0];

internalField   nonuniform List<vector> 
530
(
(1.73540299 0 0)
(1.74382548 0 0)
(1.75220613 0 0)
(1.7605244 0 0)
(1.76877105 0 0)
(1.77693096 0 0)
(1.7849968 0 0)
(1.79295306 0 0)
(1.80079257 0 0)
(1.80849905 0 0)
(1.81605606 0 0)
(1.82342643 0 0)
(1.83059058 0 0)
(1.83754767 0 0)
(1.84430228 0 0)
(1.85083684 0 0)
(1.8571364 0 0)
(1.86318825 0 0)
(1.86898025 0 0)
(1.87448479 0 0)
(1.87967434 0 0)
(1.88451716 0 0)
(1.88898863 0 0)
(1.89305976 0 0)
(1.89670186 0 0)
(1.8998823 0 0)
(1.90256813 0 0)
(1.90472281 0 0)
(1.90630162 0 0)
(1.90725166 0 0)
(1.90752645 0 0)
(1.90709696 0 0)
(1.90592416 0 0)
(1.90396586 0 0)
(1.90117115 0 0)
(1.89749747 0 0)
(1.89289425 0 0)
(1.88732234 0 0)
(1.88073291 0 0)
(1.8730928 0 0)
(1.86435773 0 0)
(1.85450369 0 0)
(1.84349411 0 0)
(1.83131739 0 0)
(1.81794785 0 0)
(1.80338934 0 0)
(1.78763004 0 0)
(1.77069193 0 0)
(1.75257947 0 0)
(1.73333468 0 0)
(1.71297998 0 0)
(1.69157833 0 0)
(1.66917082 0 0)
(1.64584135 0 0)
(1.62165003 0 0)
(1.59669945 0 0)
(1.57105847 0 0)
(1.5448331 0 0)
(1.51811937 0 0)
(1.49106039 0 0)
(1.46376038 0 0)
(1.43635762 0 0)
(1.40895919 0 0)
(1.38170625 0 0)
(1.35470772 0 0)
(1.32810179 0 0)
(1.30199386 0 0)
(1.27651345 0 0)
(1.25175797 0 0)
(1.22784324 0 0)
(1.20485476 0 0)
(1.18289459 0 0)
(1.1620291 0 0)
(1.1423351 0 0)
(1.12387111 0 0)
(1.10669301 0 0)
(1.09083391 0 0)
(1.07632818 0 0)
(1.06318903 0 0)
(1.05142638 0 0)
(1.04103749 0 0)
(1.03201393 0 0)
(1.02433609 0 0)
(1.01797715 0 0)
(1.01290219 0 0)
(1.00906998 0 0)
(1.00643255 0 0)
(1.00493801 0 0)
(1.00452805 0 0)
(1.00514368 0 0)
(1.00671909 0 0)
(1.00919165 0 0)
(1.01249065 0 0)
(1.01655319 0 0)
(1.02130577 0 0)
(1.02668822 0 0)
(1.03262551 0 0)
(1.03905967 0 0)
(1.04592248 0 0)
(1.05315848 0 0)
(1.06070377 0 0)
(1.06850863 0 0)
(1.07651721 0 0)
(1.08468244 0 0)
(1.09294623 0 0)
(1.10127223 0 0)
(1.10962086 0 0)
(1.1179651 0 0)
(1.12626549 0 0)
(1.13449866 0 0)
(1.14263156 0 0)
(1.15064697 0 0)
(1.15851794 0 0)
(1.16623259 0 0)
(1.17376942 0 0)
(1.18112123 0 0)
(1.18827143 0 0)
(1.19521683 0 0)
(1.20194508 0 0)
(1.20845638 0 0)
(1.21474201 0 0)
(1.22080488 0 0)
(1.22663932 0 0)
(1.23225041 0 0)
(1.23763493 0 0)
(1.2427996 0 0)
(1.24774319 0 0)
(1.2524736 0 0)
(1.25699112 0 0)
(1.26130446 0 0)
(1.26541505 0 0)
(1.26933207 0 0)
(1.27305778 0 0)
(1.27660156 0 0)
(1.27996623 0 0)
(1.28316114 0 0)
(1.28618947 0 0)
(1.28906039 0 0)
(1.29177722 0 0)
(1.29434885 0 0)
(1.29677862 0 0)
(1.29907503 0 0)
(1.30124134 0 0)
(1.30328561 0 0)
(1.30521094 0 0)
(1.30702491 0 0)
(1.30873041 0 0)
(1.31033453 0 0)
(1.31183993 0 0)
(1.31325318 0 0)
(1.31457672 0 0)
(1.31581663 0 0)
(1.31697511 0 0)
(1.31805775 0 0)
(1.31906652 0 0)
(1.32000657 0 0)
(1.32087964 0 0)
(1.32169041 0 0)
(1.3224404 0 0)
(1.32313376 0 0)
(1.32377178 0 0)
(1.32435804 0 0)
(1.32489371 0 0)
(1.32538186 0 0)
(1.3258259 0 0)
(1.32623619 0 0)
(1.32654595 0 0)
(1.32689133 0 0)
(1.32720905 0 0)
(1.32741062 0 0)
(1.32762236 0 0)
(1.32779471 0 0)
(1.32793159 0 0)
(1.32803695 0 0)
(1.32811069 0 0)
(1.32815474 0 0)
(1.32816909 0 0)
(1.32815517 0 0)
(1.32811295 0 0)
(1.32804352 0 0)
(1.3279468 0 0)
(1.32782364 0 0)
(1.32767385 0 0)
(1.32749806 0 0)
(1.32729596 0 0)
(1.32706798 0 0)
(1.32681369 0 0)
(1.32653331 0 0)
(1.32622632 0 0)
(1.3258927 0 0)
(1.32553183 0 0)
(1.32514348 0 0)
(1.32472691 0 0)
(1.32428168 0 0)
(1.32380695 0 0)
(1.32330206 0 0)
(1.32276609 0 0)
(1.32219821 0 0)
(1.32159738 0 0)
(1.32096263 0 0)
(1.32029279 0 0)
(1.31958675 0 0)
(1.31884334 0 0)
(1.31806073 0 0)
(1.31723486 0 0)
(1.31636649 0 0)
(1.31545692 0 0)
(1.31450256 0 0)
(1.31350145 0 0)
(1.3124518 0 0)
(1.31135087 0 0)
(1.31019518 0 0)
(1.30898331 0 0)
(1.30771467 0 0)
(1.30638755 0 0)
(1.30499962 0 0)
(1.30354873 0 0)
(1.30203253 0 0)
(1.30044889 0 0)
(1.29879546 0 0)
(1.2970701 0 0)
(1.29527049 0 0)
(1.29339455 0 0)
(1.29144004 0 0)
(1.28940497 0 0)
(1.28728722 0 0)
(1.28508498 0 0)
(1.2827963 0 0)
(1.28041957 0 0)
(1.27795312 0 0)
(1.27539562 0 0)
(1.27274568 0 0)
(1.27000235 0 0)
(1.26716464 0 0)
(1.26423201 0 0)
(1.26120391 0 0)
(1.25808031 0 0)
(1.2548612 0 0)
(1.25154706 0 0)
(1.24813848 0 0)
(1.24463657 0 0)
(1.24104279 0 0)
(1.23735863 0 0)
(1.23358572 0 0)
(1.22972671 0 0)
(1.22578426 0 0)
(1.22176148 0 0)
(1.21766163 0 0)
(1.21348851 0 0)
(1.20924606 0 0)
(1.20493872 0 0)
(1.20057107 0 0)
(1.19614812 0 0)
(1.19167502 0 0)
(1.18715731 0 0)
(1.1826006 0 0)
(1.17801084 0 0)
(1.17339403 0 0)
(1.16875641 0 0)
(1.16410421 0 0)
(1.15944386 0 0)
(1.15478169 0 0)
(1.15012415 0 0)
(1.14547753 0 0)
(1.14084816 0 0)
(1.13624215 0 0)
(1.13166555 0 0)
(1.12712413 0 0)
(1.12262353 0 0)
(1.11816906 0 0)
(1.11376582 0 0)
(1.10941853 0 0)
(1.10513162 0 0)
(1.10090914 0 0)
(1.0967548 0 0)
(1.09267191 0 0)
(1.08866336 0 0)
(1.0847312 0 0)
(1.08087676 0 0)
(1.0771049 0 0)
(1.07341752 0 0)
(1.06981239 0 0)
(1.06629026 0 0)
(1.06285159 0 0)
(1.05949633 0 0)
(1.05622402 0 0)
(1.05303393 0 0)
(1.0499251 0 0)
(1.0468964 0 0)
(1.04394649 0 0)
(1.04107393 0 0)
(1.03827717 0 0)
(1.03555464 0 0)
(1.03290473 0 0)
(1.03032589 0 0)
(1.02781663 0 0)
(1.02537557 0 0)
(1.02300146 0 0)
(1.02069325 0 0)
(1.01845009 0 0)
(1.01627134 0 0)
(1.01415666 0 0)
(1.01210595 0 0)
(1.01011943 0 0)
(1.00819762 0 0)
(1.00634132 0 0)
(1.00455169 0 0)
(1.00283016 0 0)
(1.0011785 0 0)
(0.999598724 0 0)
(0.998093165 0 0)
(0.996664386 0 0)
(0.995315187 0 0)
(0.994048567 0 0)
(0.992867695 0 0)
(0.991775877 0 0)
(0.990776514 0 0)
(0.989873069 0 0)
(0.989069021 0 0)
(0.988367825 0 0)
(0.987772871 0 0)
(0.987287436 0 0)
(0.986914646 0 0)
(0.986657432 0 0)
(0.986518489 0 0)
(0.986500241 0 0)
(0.986604795 0 0)
(0.986833919 0 0)
(0.987188999 0 0)
(0.987671022 0 0)
(0.98828054 0 0)
(0.989017663 0 0)
(0.989882026 0 0)
(0.990872796 0 0)
(0.991988644 0 0)
(0.993227753 0 0)
(0.994587796 0 0)
(0.996065984 0 0)
(0.997659281 0 0)
(0.999363903 0 0)
(1.00117543 0 0)
(1.00308934 0 0)
(1.00510068 0 0)
(1.00720409 0 0)
(1.00939386 0 0)
(1.01166401 0 0)
(1.01400823 0 0)
(1.01642005 0 0)
(1.01889277 0 0)
(1.02141954 0 0)
(1.02399342 0 0)
(1.02660739 0 0)
(1.02925442 0 0)
(1.03192751 0 0)
(1.0346197 0 0)
(1.03732415 0 0)
(1.04003415 0 0)
(1.04274319 0 0)
(1.04544498 0 0)
(1.04813346 0 0)
(1.05080287 0 0)
(1.05344776 0 0)
(1.05606304 0 0)
(1.05864394 0 0)
(1.06118612 0 0)
(1.06368562 0 0)
(1.0661389 0 0)
(1.06854284 0 0)
(1.07089479 0 0)
(1.07319249 0 0)
(1.07543417 0 0)
(1.07761846 0 0)
(1.07974447 0 0)
(1.08181171 0 0)
(1.08382011 0 0)
(1.08577003 0 0)
(1.0876622 0 0)
(1.08949776 0 0)
(1.0912782 0 0)
(1.09300526 0 0)
(1.09468074 0 0)
(1.09630681 0 0)
(1.09788937 0 0)
(1.09943162 0 0)
(1.10093355 0 0)
(1.10239843 0 0)
(1.10383 0 0)
(1.10523197 0 0)
(1.10660807 0 0)
(1.10796211 0 0)
(1.10929794 0 0)
(1.11061949 0 0)
(1.11193065 0 0)
(1.11323531 0 0)
(1.11453733 0 0)
(1.1158405 0 0)
(1.11714852 0 0)
(1.118465 0 0)
(1.11979346 0 0)
(1.12113724 0 0)
(1.12249957 0 0)
(1.12388352 0 0)
(1.12529199 0 0)
(1.1267277 0 0)
(1.1281932 0 0)
(1.12969082 0 0)
(1.13122275 0 0)
(1.13279092 0 0)
(1.13439713 0 0)
(1.13604292 0 0)
(1.13772969 0 0)
(1.13945861 0 0)
(1.14123066 0 0)
(1.14304667 0 0)
(1.14490726 0 0)
(1.14681288 0 0)
(1.14876384 0 0)
(1.15076027 0 0)
(1.15280215 0 0)
(1.15488935 0 0)
(1.15702159 0 0)
(1.15919849 0 0)
(1.16141954 0 0)
(1.16368416 0 0)
(1.16599168 0 0)
(1.16834136 0 0)
(1.1707324 0 0)
(1.17316394 0 0)
(1.17563511 0 0)
(1.178145 0 0)
(1.1806927 0 0)
(1.18327729 0 0)
(1.18589787 0 0)
(1.18855356 0 0)
(1.19124351 0 0)
(1.19396693 0 0)
(1.19672308 0 0)
(1.19951128 0 0)
(1.20233094 0 0)
(1.20518155 0 0)
(1.2080627 0 0)
(1.21097408 0 0)
(1.2139155 0 0)
(1.21688688 0 0)
(1.21988829 0 0)
(1.22291991 0 0)
(1.22598207 0 0)
(1.22907525 0 0)
(1.23220009 0 0)
(1.23535741 0 0)
(1.2385481 0 0)
(1.24177293 0 0)
(1.24503578 0 0)
(1.24845584 0 0)
(1.25216644 0 0)
(1.25619809 0 0)
(1.26058548 0 0)
(1.26536926 0 0)
(1.27059703 0 0)
(1.27632461 0 0)
(1.28261791 0 0)
(1.28955534 0 0)
(1.29723068 0 0)
(1.30575671 0 0)
(1.31526935 0 0)
(1.32593249 0 0)
(1.337943 0 0)
(1.35153579 0 0)
(1.36698775 0 0)
(1.38461962 0 0)
(1.40479378 0 0)
(1.42790543 0 0)
(1.45436418 0 0)
(1.48456281 0 0)
(1.51883064 0 0)
(1.55737087 0 0)
(1.60018496 0 0)
(1.64699172 0 0)
(1.69715378 0 0)
(1.74962609 0 0)
(1.80293944 0 0)
(1.85521777 0 0)
(1.90421126 0 0)
(1.94732088 0 0)
(1.98162242 0 0)
(2.00399054 0 0)
(2.01154454 0 0)
(2.00263353 0 0)
(1.97821279 0 0)
(1.94283213 0 0)
(1.90403036 0 0)
(1.86997521 0 0)
(1.84718009 0 0)
(1.84078754 0 0)
(1.85794594 0 0)
(1.91218728 0 0)
(2.01905382 0 0)
(2.17278543 0 0)
(2.31055381 0 0)
(2.34907422 0 0)
(2.26267642 0 0)
(2.1220878 0 0)
(2.01882994 0 0)
(1.99763619 0 0)
(2.0438681 0 0)
(2.13303573 0 0)
(2.21338189 0 0)
(2.21936122 0 0)
(2.10157333 0 0)
(1.97266405 0 0)
(1.95487944 0 0)
(2.00419909 0 0)
(1.99210544 0 0)
(1.97846867 0 0)
(1.96535672 0 0)
(1.86335315 0 0)
(1.63526087 0 0)
(1.4882369 0 0)
(1.50573863 0 0)
(1.6086993 0 0)
(1.68319073 0 0)
(1.8317979 0 0)
(1.97967761 0 0)
(1.94348986 0 0)
(1.72630558 0 0)
(1.570367 0 0)
(1.59815684 0 0)
(1.76643013 0 0)
(1.84483011 0 0)
(1.79449654 0 0)
)
;

boundaryField
{
    closed
    {
        type            noSlip;
    }
    open
    {
        type            inletOutlet;
        inletValue      uniform (0 0 0);
        value           uniform (1.79449654 0 0);
    }
    sides
    {
        type            empty;
    }
    procBoundary5to4
    {
        type            processor;
        value           uniform (1.72692515 0 0);
    }
}


// ************************************************************************* //
