/*--------------------------------*- C++ -*----------------------------------*\
| =========                 |                                                 |
| \\      /  F ield         | OpenFOAM: The Open Source CFD Toolbox           |
|  \\    /   O peration     | Version:  2306                                  |
|   \\  /    A nd           | Website:  www.openfoam.com                      |
|    \\/     M anipulation  |                                                 |
\*---------------------------------------------------------------------------*/
FoamFile
{
    version     2.0;
    format      ascii;
    arch        "LSB;label=32;scalar=64";
    class       volScalarField;
    location    "0.00146";
    object      T;
}
// * * * * * * * * * * * * * * * * * * * * * * * * * * * * * * * * * * * * * //

dimensions      [0 0 0 1 0 0 0];

internalField   nonuniform List<scalar> 
530
(
1439.88272
1442.03852
1450.42458
1450.3904
1444.63982
1446.5222
1454.22071
1454.24986
1448.77831
1450.58588
1457.8736
1458.12952
1452.62251
1454.03133
1461.28466
1461.52957
1456.31862
1457.27208
1464.75774
1464.67465
1459.73134
1460.42741
1468.04244
1467.78925
1463.02141
1463.4816
1471.09303
1470.82263
1466.10439
1466.48443
1474.02552
1473.76797
1469.07838
1469.50456
1476.90094
1476.67145
1471.96606
1472.43189
1479.70577
1479.54876
1474.75885
1475.26954
1482.2924
1482.36592
1477.5068
1478.03892
1484.61086
1485.01146
1480.21416
1480.71065
1487.03408
1487.5954
1482.92773
1483.22342
1489.69729
1489.95334
1485.22304
1485.76531
1491.95687
1492.13929
1487.45492
1487.90785
1494.04539
1494.16962
1489.60788
1489.97904
1496.04532
1496.14516
1491.71389
1492.07065
1498.00402
1498.11961
1493.73786
1494.20881
1499.88129
1500.10308
1495.69126
1496.31117
1501.72461
1502.03694
1497.67859
1498.35597
1503.60554
1503.93523
1499.62282
1500.4186
1505.61701
1505.90709
1501.73448
1502.43519
1507.68853
1507.98523
1503.92198
1504.6618
1509.80937
1510.12629
1506.09937
1506.89368
1511.95576
1512.29625
1508.27822
1509.10654
1514.09571
1514.46859
1510.47324
1511.31511
1516.2318
1516.63881
1512.68826
1513.53375
1518.38167
1518.81004
1514.92457
1515.75445
1520.56111
1520.98116
1517.19219
1517.97363
1522.77701
1523.15845
1519.48808
1520.213
1525.03659
1525.35025
1521.80916
1522.46035
1527.34198
1527.56624
1524.16547
1524.73663
1529.68425
1529.83461
1526.54203
1527.14867
1532.16237
1532.18928
1528.90768
1529.56028
1534.47651
1534.57859
1531.1919
1531.9573
1536.6769
1536.9905
1533.55528
1534.39544
1539.02222
1539.39855
1535.94741
1536.8533
1541.5237
1541.86595
1538.48896
1539.35571
1544.06879
1544.44421
1541.07664
1542.01018
1546.62802
1547.05741
1543.748
1544.65198
1549.21405
1549.70575
1546.4194
1547.33709
1551.9057
1552.3865
1549.16203
1549.99493
1554.63441
1555.06822
1551.9261
1552.69458
1557.3909
1557.76866
1554.68423
1555.40478
1560.05408
1560.45912
1557.43954
1558.08928
1562.54143
1562.98177
1559.93618
1560.60654
1564.98596
1565.36105
1562.43404
1563.01408
1567.37533
1567.70524
1564.89156
1565.45753
1569.70894
1570.05081
1567.2935
1567.91147
1571.97316
1572.39589
1569.64127
1570.35177
1574.19506
1574.70558
1571.96239
1572.76118
1576.40286
1576.97967
1574.26122
1575.13101
1578.63054
1579.19476
1576.55311
1577.44522
1580.90971
1581.39145
1578.90219
1579.69253
1583.23595
1583.62914
1581.30545
1582.01752
1585.59128
1585.86076
1583.66603
1584.31995
1587.91089
1588.08521
1585.97409
1586.58809
1590.17772
1590.28194
1588.23722
1588.82352
1592.37417
1592.45495
1590.4519
1591.02844
1594.49767
1594.60593
1592.61314
1593.19803
1596.56965
1596.72789
1594.72295
1595.32101
1598.59743
1598.7887
1596.77247
1597.39343
1600.55042
1600.80516
1598.764
1599.40683
1602.43143
1602.77223
1600.69098
1601.38162
1604.21282
1604.70492
1602.55119
1603.31691
1605.88737
1606.46774
1604.30171
1605.22647
1607.53287
1608.27748
1606.08448
1607.05527
1609.24237
1610.05066
1607.87513
1608.91087
1611.03312
1611.77832
1609.67573
1610.66528
1612.90363
1613.57552
1611.49895
1612.40242
1614.74675
1615.21954
1613.23159
1614.05561
1616.49726
1616.79714
1614.8861
1615.65321
1618.09962
1618.3156
1616.47963
1617.1965
1619.59136
1619.7804
1618.01059
1618.68737
1621.02128
1621.20854
1619.48626
1620.13075
1622.40258
1622.57497
1620.90794
1621.53432
1623.73808
1623.86115
1622.27735
1622.89821
1625.03298
1625.1244
1623.60059
1624.26377
1626.28424
1626.34732
1624.78642
1625.6498
1627.49453
1627.52911
1625.94305
1626.85907
1628.53701
1628.6461
1627.05425
1628.02972
1629.55619
1629.70464
1628.19576
1629.10791
1630.53871
1630.70846
1629.29682
1630.16617
1631.50951
1631.67563
1630.37204
1631.17466
1632.4497
1632.59964
1631.41492
1632.13374
1633.35864
1633.48141
1632.41976
1633.04949
1634.22593
1634.32448
1633.36822
1633.9315
1635.04791
1635.13021
1634.25672
1634.77098
1635.82646
1635.89501
1635.09984
1635.56296
1636.56576
1636.62358
1635.90415
1636.32049
1637.2674
1637.31591
1636.66069
1637.0368
1637.92593
1637.96789
1637.366
1637.71129
1638.54437
1638.58106
1638.0304
1638.34658
1639.12546
1639.15862
1638.65269
1638.94921
1639.66723
1639.70662
1639.22256
1639.5374
1640.17122
1640.22289
1639.73342
1640.08551
1640.64031
1640.70251
1640.23036
1640.57204
1641.08148
1641.14265
1640.71431
1641.01557
1641.49306
1641.55109
1641.15514
1641.43792
1641.87789
1641.93425
1641.5653
1641.83027
1642.23555
1642.28927
1641.94719
1642.19153
1642.56611
1642.61748
1642.30159
1642.5276
1642.87441
1642.9194
1642.63134
1642.83146
1643.16324
1643.19764
1642.94929
1643.11006
1643.43275
1643.45567
1643.24081
1643.37498
1643.67992
1643.69683
1643.50297
1643.6236
1643.90573
1643.9198
1643.74321
1643.85119
1644.11213
1644.12337
1643.96331
1644.06689
1644.30691
1644.31061
1644.16439
1644.25858
1644.47894
1644.48279
1644.34742
1644.42987
1644.63114
1644.6407
1644.51445
1644.59317
1644.78191
1644.79319
1644.68045
1644.7519
1644.95591
1644.9627
1644.84854
1644.92269
1645.10335
1645.15007
1645.08884
1645.14742
1645.18139
1645.23837
1645.25338
1645.30766
1645.33273
1645.38419
1645.4142
1645.46239
1645.49702
1645.54573
1645.5797
1645.62832
1645.66037
1645.70773
1645.737
1645.78157
1645.80741
1645.84753
1645.86953
1645.90368
1645.92162
1645.94868
1645.96258
1645.98213
1645.99224
1646.00475
1646.01148
1646.01828
1646.02221
1646.02516
1646.02707
1646.02808
1646.02881
1646.02928
1646.02677
1646.02466
1646.02328
1646.02233
1646.02173
1646.02135
1646.02116
1646.02107
1646.02103
1646.02101
1646.02101
1646.02101
1646.021
1646.021
1646.021
1646.021
1646.021
1646.021
1646.021
1646.021
1646.021
1646.021
1646.021
1646.021
1646.021
1646.021
1646.021
1646.021
1646.021
1646.021
1646.021
1646.021
1646.021
1646.021
1646.021
1646.021
1646.021
1646.021
)
;

boundaryField
{
    closed
    {
        type            fixedValue;
        value           nonuniform List<scalar> 0();
    }
    open
    {
        type            zeroGradient;
    }
    sides
    {
        type            empty;
    }
    procBoundary5to4
    {
        type            processor;
        value           uniform 1445.69104;
    }
}


// ************************************************************************* //
