/*--------------------------------*- C++ -*----------------------------------*\
| =========                 |                                                 |
| \\      /  F ield         | OpenFOAM: The Open Source CFD Toolbox           |
|  \\    /   O peration     | Version:  2306                                  |
|   \\  /    A nd           | Website:  www.openfoam.com                      |
|    \\/     M anipulation  |                                                 |
\*---------------------------------------------------------------------------*/
FoamFile
{
    version     2.0;
    format      ascii;
    arch        "LSB;label=32;scalar=64";
    class       volScalarField;
    location    "0.00146";
    object      Z;
}
// * * * * * * * * * * * * * * * * * * * * * * * * * * * * * * * * * * * * * //

dimensions      [0 0 0 0 0 0 0];

internalField   nonuniform List<scalar> 
530
(
0.0142699103
0.0143018475
0.0140825806
0.0140769338
0.0142891331
0.0142794486
0.0140940058
0.0140886984
0.0143030684
0.014264525
0.0141034591
0.0141005704
0.0143078722
0.0142605709
0.0141107718
0.0141095029
0.0143040525
0.0142592672
0.0141182044
0.0141159189
0.0142999371
0.014257241
0.0141242744
0.0141211392
0.0142964929
0.0142543756
0.0141284566
0.014125081
0.0142940182
0.0142504032
0.0141313017
0.0141278854
0.0142910011
0.0142467268
0.0141330792
0.0141297991
0.0142875018
0.0142426218
0.0141338274
0.0141309172
0.0142837248
0.0142383554
0.0141339137
0.0141311974
0.014279148
0.0142340822
0.0141333097
0.0141301424
0.0142728886
0.0142304153
0.0141315772
0.014128591
0.0142643679
0.0142302799
0.0141265197
0.0141259561
0.0142537867
0.0142286259
0.0141211583
0.0141211687
0.0142440596
0.0142246737
0.0141156608
0.0141155661
0.0142355412
0.0142195727
0.0141096487
0.0141095336
0.0142276496
0.0142132803
0.0141033467
0.0141034094
0.0142209836
0.0142058263
0.0140966434
0.0140972649
0.0142150181
0.0141984933
0.0140898251
0.0140909436
0.0142080903
0.0141917568
0.0140832603
0.0140844792
0.0142013791
0.0141846012
0.0140774947
0.0140785317
0.0141950997
0.0141777982
0.0140721682
0.0140732819
0.0141888832
0.014170982
0.0140673144
0.0140685479
0.0141827463
0.0141643584
0.0140627646
0.0140641707
0.0141767491
0.014158109
0.0140583553
0.0140600004
0.0141708252
0.0141522358
0.0140541256
0.0140560092
0.0141650733
0.0141467981
0.0140501893
0.0140522197
0.014159499
0.0141418874
0.014046636
0.0140486339
0.0141540098
0.0141375347
0.0140435318
0.0140452779
0.014148748
0.0141336691
0.0140409692
0.0140422103
0.0141437975
0.0141302969
0.014038928
0.0140395709
0.0141392199
0.0141271951
0.014037373
0.0140375616
0.0141350674
0.014123232
0.0140371307
0.0140363775
0.0141319277
0.0141197124
0.0140360234
0.0140356345
0.0141306769
0.0141170855
0.0140343412
0.0140353771
0.0141294129
0.0141149308
0.014033885
0.0140353623
0.0141286045
0.0141135112
0.0140344219
0.0140358979
0.0141287932
0.0141125485
0.0140355086
0.0140372515
0.01412985
0.0141123375
0.0140369882
0.014039212
0.0141308228
0.0141129671
0.0140389351
0.0140416508
0.0141322744
0.0141138498
0.0140420532
0.0140447446
0.0141333063
0.0141157287
0.0140457586
0.0140481974
0.0141346075
0.0141179113
0.0140500357
0.0140521395
0.014136761
0.0141206084
0.0140542301
0.0140564394
0.0141388526
0.0141242516
0.0140578597
0.0140603838
0.014140853
0.0141281586
0.0140617036
0.0140639256
0.0141433369
0.0141324286
0.0140657252
0.0140676362
0.0141467092
0.0141367141
0.0140698709
0.0140718259
0.0141511231
0.0141410288
0.0140740639
0.0140765412
0.0141562436
0.0141455138
0.0140784664
0.0140815733
0.0141617073
0.0141503821
0.0140833061
0.0140868593
0.0141672951
0.0141557019
0.014088847
0.0140922416
0.0141727795
0.0141615582
0.0140951076
0.0140980135
0.0141782241
0.0141679085
0.0141021115
0.0141044505
0.0141836466
0.0141744588
0.0141098107
0.0141112758
0.01418917
0.014181089
0.0141177569
0.0141185056
0.0141949849
0.0141877848
0.0141257907
0.0141260474
0.0142012553
0.0141945136
0.0141337567
0.0141339027
0.0142078215
0.0142012519
0.0141416639
0.0141420352
0.014214635
0.0142080193
0.014149617
0.0141503788
0.0142216662
0.0142149102
0.0141576666
0.0141587302
0.0142290087
0.0142219636
0.0141655465
0.014167143
0.0142366437
0.0142292463
0.0141732308
0.0141755747
0.0142446096
0.0142365101
0.0141805383
0.0141841083
0.0142527644
0.0142437994
0.0141874253
0.0141917802
0.0142613723
0.0142508018
0.0141945361
0.0142001052
0.0142691145
0.014258072
0.0142025263
0.0142085793
0.0142760102
0.0142646933
0.0142116065
0.0142171368
0.0142820098
0.0142716322
0.0142216659
0.0142265208
0.0142871445
0.014278236
0.0142318913
0.01423512
0.0142926029
0.0142850998
0.0142416836
0.0142435114
0.0142984979
0.0142919452
0.0142505828
0.0142517344
0.0143047374
0.0142987785
0.0142588909
0.0142598177
0.0143110727
0.0143055399
0.0142669823
0.0142678686
0.0143173211
0.014312189
0.0142749636
0.0142757055
0.0143234397
0.0143186198
0.014282852
0.0142831788
0.0143294103
0.0143249825
0.0142906788
0.0142907133
0.0143351949
0.0143308593
0.014298433
0.0142981285
0.0143414655
0.0143361494
0.0143060854
0.014305486
0.0143476714
0.0143420436
0.0143126072
0.0143125501
0.014353671
0.0143477178
0.0143191097
0.0143194188
0.0143590563
0.0143534681
0.0143254893
0.014326035
0.0143641489
0.0143588636
0.0143319737
0.0143325417
0.0143689324
0.0143640894
0.0143383955
0.0143388866
0.014373442
0.0143691636
0.0143447334
0.0143450731
0.0143777482
0.0143740567
0.0143508986
0.0143510959
0.0143819652
0.0143787074
0.0143568702
0.0143569555
0.0143861176
0.0143831801
0.0143626304
0.014362644
0.0143901218
0.0143875156
0.0143681881
0.0143681724
0.014393945
0.0143916399
0.0143735731
0.0143735118
0.0143976551
0.0143955917
0.0143787337
0.0143786362
0.0144012761
0.0143993927
0.0143836727
0.0143835631
0.0144047555
0.0144030477
0.0143883981
0.0143882943
0.0144081079
0.0144065155
0.014392895
0.0143928563
0.0144114068
0.0144096917
0.0143971828
0.0143972184
0.0144146916
0.0144127434
0.0144012543
0.0144013671
0.0144177269
0.0144158247
0.0144051262
0.0144052768
0.0144205193
0.0144188283
0.0144088029
0.0144089718
0.0144232249
0.0144216332
0.0144123169
0.0144125
0.0144257989
0.0144243049
0.0144156478
0.0144158365
0.01442824
0.0144268615
0.0144187918
0.0144189842
0.0144305563
0.0144292808
0.0144217849
0.0144219435
0.0144327312
0.0144316146
0.0144246371
0.0144247417
0.0144347043
0.0144338314
0.0144273481
0.0144273841
0.0144365767
0.0144358714
0.0144298991
0.0144298945
0.0144383871
0.0144377638
0.0144322847
0.014432268
0.0144400993
0.0144395519
0.0144345154
0.0144344908
0.0144417114
0.0144411942
0.014436649
0.0144365803
0.0144432279
0.0144427725
0.0144386008
0.0144385463
0.0144446528
0.0144442773
0.0144403938
0.0144403988
0.0144459684
0.0144456373
0.0144421661
0.0144422104
0.0144470412
0.0144467889
0.0144441195
0.0144441796
0.0144476763
0.0144474934
0.0144469819
0.0144470079
0.014448208
0.0144482915
0.0144488621
0.014449058
0.0144497406
0.0144500215
0.0144506727
0.0144510094
0.0144516819
0.014452033
0.0144527654
0.0144531363
0.0144538854
0.0144542718
0.0144550191
0.0144554164
0.0144561399
0.0144565428
0.0144572189
0.0144576196
0.0144582256
0.0144586128
0.0144591305
0.0144594892
0.0144599076
0.0144602215
0.0144605389
0.0144607934
0.0144610169
0.0144612042
0.014461348
0.0144614696
0.0144615519
0.0144616191
0.0144616594
0.0144616881
0.0144617004
0.0144617072
0.0144617093
0.0144617097
0.0144617091
0.0144617084
0.0144617078
0.0144617073
0.0144617071
0.014461707
0.0144617069
0.0144617069
0.0144617069
0.0144617069
0.0144617069
0.0144617069
0.0144617069
0.0144617069
0.0144617069
0.0144617069
0.0144617069
0.0144617069
0.0144617069
0.0144617069
0.0144617069
0.0144617069
0.0144617069
0.0144617069
0.0144617069
0.0144617069
0.0144617069
0.0144617069
0.0144617069
0.0144617069
0.0144617069
0.0144617069
0.0144617069
0.0144617069
)
;

boundaryField
{
    closed
    {
        type            zeroGradient;
    }
    open
    {
        type            zeroGradient;
    }
    sides
    {
        type            empty;
    }
    procBoundary5to4
    {
        type            processor;
        value           uniform 0.0140602609;
    }
}


// ************************************************************************* //
