/*--------------------------------*- C++ -*----------------------------------*\
| =========                 |                                                 |
| \\      /  F ield         | OpenFOAM: The Open Source CFD Toolbox           |
|  \\    /   O peration     | Version:  2306                                  |
|   \\  /    A nd           | Website:  www.openfoam.com                      |
|    \\/     M anipulation  |                                                 |
\*---------------------------------------------------------------------------*/
FoamFile
{
    version     2.0;
    format      ascii;
    arch        "LSB;label=32;scalar=64";
    class       surfaceScalarField;
    location    "0.00182";
    object      phi;
}
// * * * * * * * * * * * * * * * * * * * * * * * * * * * * * * * * * * * * * //

dimensions      [1 0 -1 0 0 0 0];

oriented        oriented;

internalField   nonuniform List<scalar> 
529
(
1.2988076e-06
1.83635002e-06
2.0322453e-06
1.93833082e-06
1.63991874e-06
1.20832801e-06
7.28386658e-07
2.95886607e-07
-5.69610733e-08
-3.40827959e-07
-5.39560485e-07
-6.94392102e-07
-8.16373758e-07
-9.21965754e-07
-9.94658412e-07
-9.85921609e-07
-8.69869702e-07
-6.65474248e-07
-4.19634271e-07
-1.47859318e-07
1.66006825e-07
5.30776712e-07
9.33574454e-07
1.35151936e-06
1.758704e-06
2.13245874e-06
2.46641478e-06
2.76312503e-06
3.02594788e-06
3.26283189e-06
3.4891842e-06
3.71769858e-06
3.9479361e-06
4.16874837e-06
4.36910296e-06
4.54715477e-06
4.71021482e-06
4.86586336e-06
5.01308448e-06
5.14130497e-06
5.23565449e-06
5.28267635e-06
5.27402713e-06
5.20813221e-06
5.0897781e-06
4.92816813e-06
4.73478848e-06
4.52187036e-06
4.30118711e-06
4.08284986e-06
3.87432998e-06
3.68011102e-06
3.50203073e-06
3.34003058e-06
3.19295285e-06
3.05917958e-06
2.93705554e-06
2.82511622e-06
2.72216866e-06
2.62727878e-06
2.53971526e-06
2.45888757e-06
2.38429855e-06
2.31551667e-06
2.2521617e-06
2.1939006e-06
2.14044102e-06
2.09152919e-06
2.04693406e-06
2.00644123e-06
1.96982836e-06
1.93683919e-06
1.90713966e-06
1.88079566e-06
1.85732478e-06
1.83598033e-06
1.81558461e-06
1.79651828e-06
1.78375641e-06
1.77513472e-06
1.76384401e-06
1.71364335e-06
1.71374643e-06
1.93355066e-06
1.92523212e-06
1.93079017e-06
1.90537505e-06
1.89516449e-06
1.89709258e-06
1.90172605e-06
1.89187428e-06
1.79958596e-06
1.77288045e-06
1.79154941e-06
1.97653262e-06
2.03076533e-06
1.99028989e-06
1.89983377e-06
1.88788209e-06
1.89652937e-06
1.95551923e-06
1.95887479e-06
2.00142463e-06
1.99650424e-06
1.83992361e-06
1.82370835e-06
1.80859823e-06
1.77660505e-06
1.77261008e-06
2.00639614e-06
1.98943608e-06
1.92177817e-06
2.03055894e-06
2.02439169e-06
2.01710534e-06
2.05678756e-06
2.07233502e-06
1.92629092e-06
1.92165986e-06
1.9103396e-06
1.89767854e-06
1.89848021e-06
1.96449171e-06
2.00082933e-06
1.98536533e-06
2.02576733e-06
2.04961237e-06
1.89143917e-06
1.89410275e-06
1.87688712e-06
1.89278709e-06
1.90418204e-06
1.86262018e-06
1.862029e-06
1.84314477e-06
1.83549699e-06
1.98247259e-06
1.97804889e-06
1.94740472e-06
1.9747315e-06
1.96945903e-06
1.92453594e-06
1.91392503e-06
1.91595206e-06
1.90961487e-06
1.90203686e-06
1.892928e-06
1.95804876e-06
1.96166609e-06
1.9348359e-06
1.92811341e-06
1.88814629e-06
1.87206131e-06
2.19152946e-06
2.19745081e-06
2.11171917e-06
2.10856809e-06
2.09788019e-06
2.08805429e-06
2.0762081e-06
2.06765539e-06
2.06207709e-06
2.05565691e-06
2.04504828e-06
2.0411706e-06
2.03666603e-06
2.02212269e-06
2.01360977e-06
2.01148872e-06
2.00824851e-06
1.99150883e-06
1.98937577e-06
1.98756568e-06
1.98847144e-06
1.98630323e-06
1.97902433e-06
1.97342588e-06
1.90163483e-06
1.89737481e-06
1.89818489e-06
1.89119238e-06
1.90800352e-06
1.92432558e-06
1.92216217e-06
1.93265422e-06
1.92805285e-06
1.90672968e-06
1.90334445e-06
1.90117284e-06
1.89809832e-06
1.88341152e-06
1.86468566e-06
1.86664676e-06
1.86720925e-06
1.90800668e-06
1.85602193e-06
1.85138693e-06
1.85214883e-06
1.8523786e-06
1.85140606e-06
1.84644811e-06
1.84649301e-06
1.87794951e-06
1.84401996e-06
1.82558313e-06
1.79228058e-06
1.78919497e-06
1.78713251e-06
1.78296992e-06
1.80234745e-06
1.80698251e-06
1.79677251e-06
1.79312337e-06
1.8228974e-06
1.79216499e-06
1.78560941e-06
1.77873595e-06
1.75928335e-06
1.7491581e-06
1.7425222e-06
1.73651683e-06
1.7219642e-06
1.78543006e-06
1.72652763e-06
1.72433298e-06
1.71989273e-06
1.71109796e-06
1.71419649e-06
1.71029966e-06
1.69579649e-06
1.69977276e-06
1.69700538e-06
1.68964093e-06
1.68677681e-06
1.6754117e-06
1.66986419e-06
1.6723056e-06
1.66410778e-06
1.65531831e-06
1.65316844e-06
1.65149219e-06
1.64856304e-06
1.63132268e-06
1.6273873e-06
1.62515548e-06
1.62369751e-06
1.61451566e-06
1.61648927e-06
1.60949105e-06
1.60367493e-06
1.60527086e-06
1.59805622e-06
1.59595146e-06
1.59927681e-06
1.60266118e-06
1.58791267e-06
1.58408127e-06
1.58241828e-06
1.57114145e-06
1.58855144e-06
1.58051598e-06
1.57169101e-06
1.56773313e-06
1.57187523e-06
1.5684065e-06
1.55976342e-06
1.55841672e-06
1.55243251e-06
1.58414961e-06
1.57604697e-06
1.57066412e-06
1.5670541e-06
1.56437136e-06
1.52857375e-06
1.52669883e-06
1.52527865e-06
1.53101414e-06
1.52604375e-06
1.53679967e-06
1.49350505e-06
1.52715189e-06
1.52809663e-06
1.53005403e-06
1.52958832e-06
1.5199738e-06
1.52091641e-06
1.52192026e-06
1.49961222e-06
1.49435586e-06
1.55642065e-06
1.59139539e-06
1.57389413e-06
1.57147729e-06
1.56603627e-06
1.56317735e-06
1.5630004e-06
1.59051975e-06
1.60862163e-06
1.60119573e-06
1.60059912e-06
1.62163978e-06
1.62022304e-06
1.61116703e-06
1.60833851e-06
1.62580631e-06
1.617e-06
1.6058143e-06
1.600778e-06
1.59752345e-06
1.59263021e-06
1.63953166e-06
1.59390133e-06
1.59011097e-06
1.605252e-06
1.59564351e-06
1.58286427e-06
1.57581614e-06
1.57333843e-06
1.56911521e-06
1.59876113e-06
1.56316672e-06
1.55945265e-06
1.55907164e-06
1.56016111e-06
1.53940475e-06
1.53043444e-06
1.52776823e-06
1.53764897e-06
1.53674327e-06
1.53996218e-06
1.53984135e-06
1.49843681e-06
1.51954236e-06
1.51961713e-06
1.50332957e-06
1.50410951e-06
1.49922108e-06
1.4888892e-06
1.48539586e-06
1.50540875e-06
1.50022041e-06
1.48780856e-06
1.48334442e-06
1.50364166e-06
1.49681168e-06
1.48264127e-06
1.47739063e-06
1.47706391e-06
1.47460731e-06
1.50844979e-06
1.4689961e-06
1.4650268e-06
1.48473942e-06
1.47910655e-06
1.46459542e-06
1.45990423e-06
1.45952201e-06
1.45725623e-06
1.44993395e-06
1.45907963e-06
1.43001368e-06
1.42494297e-06
1.39938632e-06
1.39356217e-06
1.4268021e-06
1.42326607e-06
1.42157277e-06
1.41897168e-06
1.411809e-06
1.41412561e-06
1.42445922e-06
1.43552633e-06
1.44817289e-06
1.43181919e-06
1.4290581e-06
1.48145568e-06
1.48068006e-06
1.468394e-06
1.46009766e-06
1.45265378e-06
1.44531633e-06
1.43972899e-06
1.43502369e-06
1.431668e-06
1.43288e-06
1.44327933e-06
1.44546187e-06
1.4482902e-06
1.44082894e-06
1.48735381e-06
1.42977805e-06
1.42659648e-06
1.41736625e-06
1.41450408e-06
1.40619409e-06
1.39159679e-06
1.38740914e-06
1.41321648e-06
1.40719454e-06
1.39148974e-06
1.38614882e-06
1.38444543e-06
1.38123663e-06
1.37574903e-06
1.38049068e-06
1.35680275e-06
1.35193682e-06
1.37467881e-06
1.36816695e-06
1.35057399e-06
1.34591544e-06
1.37702257e-06
1.37125698e-06
1.35313297e-06
1.34837445e-06
1.37976899e-06
1.38098116e-06
1.34868933e-06
1.33528463e-06
1.32947134e-06
1.3211807e-06
1.31551419e-06
1.31153504e-06
1.30545495e-06
1.30943956e-06
1.30209713e-06
1.30606983e-06
1.30326158e-06
1.30873893e-06
1.2868709e-06
1.28127554e-06
1.30317472e-06
1.29747676e-06
1.27976898e-06
1.27458509e-06
1.27309364e-06
1.26880237e-06
1.26633511e-06
1.26317928e-06
1.24582143e-06
1.24098546e-06
1.25725426e-06
1.25680623e-06
1.23245064e-06
1.21994464e-06
1.2149631e-06
1.22212723e-06
1.2206454e-06
1.2158593e-06
1.19795271e-06
1.19157349e-06
1.18959252e-06
1.18707424e-06
1.20689099e-06
1.17191156e-06
1.16543827e-06
1.16195012e-06
1.15918261e-06
1.18150271e-06
1.14908945e-06
1.14448172e-06
1.14353537e-06
1.14318727e-06
1.11888914e-06
1.12337972e-06
1.11990781e-06
1.13534142e-06
1.13349501e-06
1.12978045e-06
1.08645674e-06
1.09698782e-06
1.09474433e-06
1.08383276e-06
1.11043956e-06
1.10485119e-06
1.08968583e-06
1.08467833e-06
1.07756922e-06
1.07309204e-06
1.04074057e-06
1.08933191e-06
1.09108427e-06
1.08964979e-06
1.08979702e-06
1.07356226e-06
1.06313971e-06
1.07854619e-06
1.0632526e-06
1.05724988e-06
1.07240872e-06
1.06650659e-06
1.07586652e-06
1.0487047e-06
1.04417614e-06
1.0547768e-06
1.0549151e-06
1.03255985e-06
1.02397438e-06
1.01885979e-06
1.03776076e-06
1.03400331e-06
1.02157513e-06
1.01744024e-06
1.03448228e-06
1.03056917e-06
1.01810026e-06
1.01390599e-06
1.01408734e-06
1.01329231e-06
9.98577796e-07
9.9071747e-07
1.00498335e-06
1.00391033e-06
9.92732887e-07
9.88828842e-07
1.00484527e-06
1.00351049e-06
9.9386783e-07
9.90697073e-07
9.8896436e-07
9.85625179e-07
9.87804791e-07
9.72248374e-07
9.65241349e-07
9.61830923e-07
9.74811833e-07
9.81169217e-07
9.68618036e-07
9.66252308e-07
)
;

boundaryField
{
    closed
    {
        type            calculated;
        value           uniform 0;
    }
    open
    {
        type            calculated;
        value           nonuniform List<scalar> 0();
    }
    sides
    {
        type            empty;
        value           nonuniform List<scalar> 0();
    }
    procBoundary0to1
    {
        type            processor;
        value           uniform 9.62201999e-07;
    }
}


// ************************************************************************* //
