/*--------------------------------*- C++ -*----------------------------------*\
| =========                 |                                                 |
| \\      /  F ield         | OpenFOAM: The Open Source CFD Toolbox           |
|  \\    /   O peration     | Version:  2306                                  |
|   \\  /    A nd           | Website:  www.openfoam.com                      |
|    \\/     M anipulation  |                                                 |
\*---------------------------------------------------------------------------*/
FoamFile
{
    version     2.0;
    format      ascii;
    arch        "LSB;label=32;scalar=64";
    class       volScalarField;
    location    "0.00182";
    object      prefDh_H2O;
}
// * * * * * * * * * * * * * * * * * * * * * * * * * * * * * * * * * * * * * //

dimensions      [1 1 -3 0 0 0 0];

internalField   nonuniform List<scalar> 
530
(
93.5033041
90.0940893
89.8082642
89.818301
89.8195401
89.8195736
89.8195747
89.8195748
89.8195748
89.8195748
89.8195748
89.8195748
89.8195748
89.8195748
89.8195748
89.8195748
89.8195748
89.8195748
89.8195748
89.8195748
89.8195748
89.8195748
89.8195748
89.8195748
89.8195748
89.8195748
89.8195748
89.8195748
89.8195748
89.8195748
89.8195748
89.8195748
89.8195748
89.8195748
89.8195748
89.8195748
89.8195748
89.8195748
89.8195748
89.8195748
89.8195748
89.8195748
89.8195748
89.8195748
89.8195748
89.8195748
89.8195748
89.8195748
89.8195748
89.8195748
89.8195748
89.8195748
89.8195748
89.8195748
89.8195748
89.8195748
89.8195748
89.8195748
89.8195748
89.8195748
89.8195747
89.8195746
89.8195746
89.8195739
89.8195741
89.8195731
89.8195641
89.8195484
89.8196121
89.8195823
89.8191494
89.8184768
89.8190659
89.8314155
89.8310613
89.7427315
89.7283671
90.0591295
90.1611077
89.2165857
88.4382378
89.5922612
92.5069451
93.0565154
88.4651458
88.3307443
89.8477306
89.8911664
88.5135657
87.9826296
87.9630167
91.0813574
92.553388
92.4075279
92.4886893
87.945757
87.7899124
90.3124055
92.4286769
92.3164988
90.5109702
88.0812932
87.8423167
87.6240467
88.1504255
92.6883573
92.2457596
92.6259805
92.3538309
92.5084643
87.6859441
87.6335085
92.8091458
92.40505
89.2045434
87.8967302
87.7403201
88.1532905
92.637863
92.2178707
92.4615236
92.2540208
90.9729928
87.9161447
87.8138488
87.6689189
87.4795789
88.0095889
92.5351698
92.2550697
89.4369763
87.8330628
89.3094
92.5198159
92.3216002
92.4177506
91.6389506
87.6213866
87.5792634
92.6287677
92.4277766
88.2148919
87.91986
92.711721
92.3309507
89.0762704
88.1057456
87.9329162
87.7430917
88.9593502
92.5887326
92.4250572
92.4611774
92.7318665
87.7482554
87.688219
92.8762823
92.4716495
89.6769021
87.72586
87.7224414
92.7224249
88.8956788
87.6386693
92.8079136
92.4276026
88.1087962
87.8355925
92.8550657
92.3659031
88.0326586
87.9058817
92.9017515
92.2719244
92.4586153
88.3819216
87.8243162
90.2390057
92.515778
92.2825177
92.3932358
90.1609905
87.526287
87.5058009
92.8372786
88.6606777
87.4693702
92.7103699
92.5896448
88.7782335
87.3672058
87.3544689
92.8527835
92.4470905
92.5216061
88.1871817
88.0392447
92.8476086
88.4362482
87.4733527
92.9207344
92.429996
92.5901403
88.2286519
87.7273697
92.0417303
92.4953072
92.5020974
92.4436661
90.2706909
87.9501458
87.9317314
87.4964036
87.4804072
92.8424021
92.4833916
88.1165617
87.7657208
92.6892208
92.5155965
88.6831661
87.4219561
87.4122606
92.8379047
92.5411125
92.5092668
92.5127272
89.7301799
87.5793177
87.5771767
92.7440988
92.3747807
92.4961631
88.363738
88.1508416
92.7226348
89.1626869
87.5558316
92.6029976
92.549027
88.6674771
87.4475511
87.4462081
92.7272207
92.4272572
92.44773
88.0513481
87.5312652
92.691031
92.6661788
88.1767104
92.8003536
92.4068108
88.277477
87.33237
87.3596816
92.8056315
92.4376251
92.6127913
88.2265242
87.6741888
92.7293158
92.4621988
87.8734412
87.7973749
92.8517046
92.4057183
92.5787091
88.0816845
87.9662932
92.8120484
88.5100259
87.305736
91.6908096
92.5757168
92.4160263
92.4506053
88.6434092
87.5043686
87.48222
92.6804796
92.5593757
88.3475619
87.3112166
87.4230364
92.7395699
92.37672
92.499475
88.3448964
87.653244
87.6027845
88.6403213
92.5430338
92.2509318
92.3708348
92.3385721
88.2340985
87.7034947
92.6568515
92.404138
87.9510926
87.7452117
92.69032
92.4056797
88.0536388
87.8190481
92.5968614
92.4410898
88.5249721
87.6802664
87.658998
92.6112299
92.400653
88.2367278
87.9280229
92.541386
92.3916701
88.7553268
87.7884362
87.7717591
92.5566713
92.4237696
88.8204456
87.6597885
87.7113497
92.5719796
92.297499
92.3427878
88.3991558
87.9242941
87.5827851
87.5932643
92.7262559
92.3307118
92.5112952
88.2884891
87.7927912
92.5417487
92.3578876
88.1354452
87.9566108
92.5349559
92.3263582
88.1950889
88.0071204
92.4740562
92.3575093
88.8889107
87.8679849
87.8372073
92.5239601
92.3205481
88.2824923
88.0453484
92.4880329
92.3050414
88.5101552
88.0524453
87.7956236
87.7742984
92.6915834
92.3821107
87.8605286
87.7821465
93.049201
92.3626756
92.7025233
92.3161715
92.4176157
88.1647378
87.7188507
87.3602819
87.3943275
92.6818025
92.5217397
88.0780437
87.5271667
88.3914059
92.5686991
92.2013023
92.4010237
92.2694978
92.2740434
92.3164195
88.8671961
87.8671938
87.8444692
87.728777
87.3651634
87.3941864
92.7188535
92.3821072
92.5270365
88.3195234
87.8362349
92.5080685
92.3613705
88.2183608
88.0415476
92.474554
92.3173497
88.5060596
88.0782036
87.868766
87.8565154
92.5886271
92.3661793
88.0271132
87.8503889
92.5668494
92.3962352
87.9889841
87.6910489
92.5426695
92.4994904
88.1057706
87.2442455
87.3629305
92.7119007
92.4286691
92.563679
92.355351
92.434359
92.264361
92.2905958
88.5696236
87.9822889
87.8058419
87.8050718
92.5551172
92.3465065
88.0539656
87.9026807
92.4577376
92.333534
88.3169547
87.9828415
87.8612276
87.8250376
92.4987189
92.4029932
88.2519843
87.6850767
87.7712181
92.4910252
92.2901241
92.3072262
88.2100053
87.9864486
92.3943804
92.3245202
88.8298802
87.9379853
87.9151643
92.4108133
92.3239421
88.6210066
87.8949018
87.8833401
92.4139973
92.3469939
88.5069709
87.8535602
87.8362678
92.4346099
92.3553184
88.2344669
87.8982554
87.6620812
87.68458
92.6286632
92.3903389
92.5068422
87.9503573
87.6451287
92.6429684
92.3731208
92.4952632
92.3111092
92.372432
88.1175068
87.7471828
87.6147555
87.5254036
92.5584834
92.5355905
88.0288597
92.6070737
92.3080278
88.1019389
87.795288
87.8087838
92.4463557
92.3963663
88.2385748
87.7978502
87.7813089
92.4253583
92.3288333
88.1584064
87.9228891
92.4255665
92.3180902
88.1806772
87.9518611
92.3668751
92.3446734
88.9692734
87.79784
87.9948923
92.4611886
88.2403688
87.7490357
92.4335839
92.3313794
87.956489
87.9576588
92.5171033
92.2341755
92.3618562
88.3228675
87.7318071
87.8024498
92.4222923
92.2943404
88.0301546
88.0380498
92.4862215
88.3190012
87.7376225
)
;

boundaryField
{
    closed
    {
        type            calculated;
        value           uniform 120.434208;
    }
    open
    {
        type            calculated;
        value           nonuniform List<scalar> 0();
    }
    sides
    {
        type            empty;
    }
    procBoundary0to1
    {
        type            processor;
        value           uniform 92.4268736;
    }
}


// ************************************************************************* //
