/*--------------------------------*- C++ -*----------------------------------*\
| =========                 |                                                 |
| \\      /  F ield         | OpenFOAM: The Open Source CFD Toolbox           |
|  \\    /   O peration     | Version:  2306                                  |
|   \\  /    A nd           | Website:  www.openfoam.com                      |
|    \\/     M anipulation  |                                                 |
\*---------------------------------------------------------------------------*/
FoamFile
{
    version     2.0;
    format      ascii;
    arch        "LSB;label=32;scalar=64";
    class       volScalarField;
    location    "6e-05";
    object      H;
}
// * * * * * * * * * * * * * * * * * * * * * * * * * * * * * * * * * * * * * //

dimensions      [0 0 0 0 0 0 0];

internalField   nonuniform List<scalar> 
3810
(
4.65546098e-08
4.69806658e-08
3.11850411e-08
1.24486948e-09
1.07893519e-09
4.05967123e-08
3.77901592e-08
1.3121225e-09
1.08086423e-09
4.25970986e-08
4.08717142e-08
1.28543879e-09
1.12714779e-09
4.38914675e-08
4.26864781e-08
1.26586587e-09
1.1910429e-09
4.5152169e-08
4.49832207e-08
1.26709874e-09
1.26842307e-09
4.38589944e-08
4.38481541e-08
4.35954204e-08
3.4420118e-08
1.27077812e-09
1.40532185e-09
3.82495472e-08
3.93932797e-08
1.20311859e-09
1.34415778e-09
3.9808377e-08
4.159038e-08
1.12464505e-09
1.32539648e-09
4.03773988e-08
4.25289577e-08
1.14101897e-09
1.36069468e-09
3.3568183e-08
3.74728204e-08
2.58690351e-08
3.18591322e-08
3.71925841e-08
4.03947153e-08
3.5170892e-08
1.18456234e-09
1.42245912e-09
3.49446831e-08
3.80728107e-08
8.91189896e-10
1.33632991e-09
1.15223863e-09
3.90567423e-08
4.60487629e-08
8.88408307e-10
1.19953557e-09
3.77980718e-08
4.48938271e-08
4.51067061e-08
3.72327283e-08
1.14271615e-09
1.23588349e-09
3.27727194e-08
4.95459689e-08
3.936247e-08
9.54294753e-10
1.35226718e-09
1.23465536e-09
3.76360461e-08
4.31208553e-08
9.52303765e-10
1.27774886e-09
3.98159841e-08
4.22520339e-08
9.82630563e-10
1.34422029e-09
4.05301991e-08
3.81502465e-08
3.70916437e-09
3.15247231e-08
4.37772268e-08
1.20855347e-09
1.25955824e-09
4.26281747e-08
4.39949903e-08
4.19083448e-08
3.21121156e-08
1.3264976e-09
1.38490668e-09
3.79988347e-08
2.71210348e-08
1.28642373e-09
3.18507349e-08
4.134028e-08
1.23663637e-09
1.13533873e-09
4.18236632e-08
3.23951836e-08
1.16698287e-09
2.57679208e-08
4.21983608e-08
4.09997206e-09
1.12223853e-09
3.69624561e-08
4.12044096e-08
9.36950454e-10
9.98757946e-10
4.29407763e-08
4.20940056e-08
1.04191314e-09
8.91688753e-10
4.6813176e-08
5.13030777e-08
3.07048304e-08
1.14771377e-09
9.10479073e-10
4.11433464e-08
3.95427287e-08
1.0429699e-09
7.17012372e-10
4.303944e-08
3.98626723e-08
1.00237802e-09
7.10144748e-10
4.85857362e-08
5.04765771e-08
2.8076879e-08
1.12833837e-09
6.22151917e-10
3.96914351e-08
3.63714052e-08
1.04657364e-09
5.49624047e-10
4.03996236e-08
3.64067084e-08
9.85456783e-10
5.12362183e-10
4.05510066e-08
3.65474638e-08
9.59413291e-10
5.16251034e-10
4.0263023e-08
3.69069342e-08
9.23419096e-10
5.86569317e-10
3.9883743e-08
3.72275117e-08
8.84368255e-10
6.30594217e-10
3.46066691e-08
3.2775716e-08
1.77608321e-08
3.08474027e-08
4.52402308e-08
3.16027488e-08
1.17062055e-09
1.24080746e-09
9.83752502e-09
4.19006034e-08
3.95932165e-08
1.03094178e-09
1.61000393e-09
4.69730839e-08
4.94645545e-08
4.14566504e-08
4.07911901e-08
3.88915283e-08
2.28288882e-08
1.13940773e-09
1.09268832e-09
1.14881273e-09
5.12194592e-10
3.5375796e-08
4.11828529e-08
1.40095836e-08
9.13055887e-10
2.28053211e-08
4.11709593e-08
2.0184638e-08
9.46213373e-10
2.14233718e-08
4.22325852e-08
2.25932027e-08
9.75366001e-10
1.94667615e-08
4.3871892e-08
2.38842969e-08
9.02406807e-10
2.46238869e-08
4.78223095e-08
4.47760414e-08
3.61045778e-08
2.4165623e-08
1.35770179e-09
4.61202114e-10
2.64741313e-08
8.28974246e-10
4.35035839e-10
4.92325959e-08
3.60650244e-08
1.14565029e-09
5.6747675e-10
4.44164481e-08
3.79463452e-08
1.23001859e-09
6.91026012e-10
4.35479219e-08
3.81745766e-08
1.23972669e-09
8.41354787e-10
4.43499174e-08
3.36511219e-08
1.06961736e-09
1.24390744e-09
8.55440505e-10
5.02889377e-08
5.03879375e-08
2.34114967e-08
1.18426435e-09
1.05609279e-09
4.36125798e-08
4.35814988e-08
3.79548517e-08
3.99991975e-08
3.74344541e-08
3.95191808e-08
2.30664735e-08
1.31367212e-09
1.1670621e-09
1.29537118e-09
9.54340195e-10
4.36198461e-08
4.19106884e-08
1.32223332e-09
1.12351026e-09
4.14282923e-08
4.21650357e-08
3.2899917e-08
4.44121358e-08
3.41488366e-08
6.99350663e-10
1.35512655e-09
8.03851925e-10
4.56309794e-08
4.94902921e-08
2.82035835e-08
1.18026226e-09
1.24152136e-09
4.49381759e-08
4.50573582e-08
3.58621473e-08
1.30880211e-09
1.18322988e-09
3.81448234e-08
1.19686821e-09
1.20828712e-09
4.82199188e-08
4.92355614e-08
3.55719222e-08
1.14286148e-09
1.24332097e-09
5.2557966e-08
4.51885874e-08
1.07938155e-09
1.24962173e-09
1.03061282e-09
4.44379439e-08
5.04173107e-08
2.57549346e-08
1.22306224e-09
1.34789135e-09
4.10902985e-08
3.97293979e-08
1.3638713e-09
1.31821126e-09
3.6527741e-08
3.88088353e-08
2.70185411e-08
4.09225492e-08
3.30348809e-08
9.98734384e-10
1.3917699e-09
7.60196567e-10
4.19127985e-08
4.70033134e-08
1.33252187e-09
1.14269097e-09
4.22198514e-08
4.48627382e-08
1.36379451e-09
1.11719463e-09
4.11725929e-08
5.06909947e-08
3.69866119e-08
1.24674418e-09
1.27550673e-09
4.25431594e-08
4.04200374e-08
1.27067956e-09
1.20219503e-09
4.38172033e-08
3.90683241e-08
1.15717304e-09
2.38499772e-08
5.11226032e-08
3.96409274e-08
1.22198707e-09
1.27879084e-09
1.3121652e-09
1.16773347e-09
3.38031152e-08
4.4980417e-08
3.85288461e-08
4.69002715e-08
3.69838567e-08
1.16954764e-09
1.35013659e-09
1.0164571e-09
4.04811219e-08
3.68004911e-08
1.21951058e-09
3.56292714e-08
4.14977959e-08
1.33797254e-09
1.08340292e-09
4.32438783e-08
4.23407481e-08
1.31430477e-09
1.09395343e-09
4.26056941e-08
4.99994647e-08
3.80793242e-08
1.26679949e-09
1.16881125e-09
4.02766639e-08
4.61101761e-08
3.53431721e-08
1.28383112e-09
1.14755526e-09
4.00178314e-08
3.84668548e-08
1.31714995e-09
1.08559975e-09
4.13329175e-08
3.96554549e-08
1.30158589e-09
1.06543143e-09
4.21438159e-08
3.9321602e-08
1.30143935e-09
1.09698068e-09
4.25217655e-08
3.4213959e-08
1.15201835e-09
3.48519235e-08
3.37580175e-08
1.21303378e-09
3.42956323e-08
4.25859547e-08
1.31736162e-09
1.03304633e-09
4.85270396e-08
4.87918298e-08
4.2878099e-08
4.4044067e-08
1.91854597e-08
1.22775327e-09
1.29153328e-09
9.39118082e-10
4.30137546e-08
4.18416338e-08
1.24492362e-09
9.06523177e-10
4.50946101e-08
4.28944311e-08
1.20495957e-09
8.62040471e-10
4.79318435e-08
4.79485606e-08
4.21230094e-08
2.90955666e-08
1.22616242e-09
1.30149649e-09
1.0107494e-09
4.8460902e-08
4.86553467e-08
2.40111855e-08
1.32912691e-09
1.24314288e-09
3.11462343e-08
4.06545337e-08
2.8252229e-08
1.30460435e-09
1.08702937e-09
4.22773255e-08
3.55176009e-08
1.24730131e-09
4.52881458e-09
4.49830282e-08
2.23677544e-08
1.04467633e-09
3.77500537e-08
3.68953974e-08
1.30258556e-09
1.1035304e-08
4.17215716e-08
2.84105054e-08
1.20618654e-09
9.63311719e-10
4.93369882e-08
4.93790004e-08
4.29811524e-08
3.66658654e-08
2.79785242e-09
1.37582633e-09
8.94960606e-10
2.48349286e-08
4.70492576e-08
3.24273474e-08
1.16335449e-09
9.97562397e-10
4.98084472e-08
5.00473466e-08
3.82364386e-08
1.39526594e-08
1.14002148e-09
1.23508785e-09
7.57969049e-10
4.19766353e-08
3.99573095e-08
1.24522956e-09
7.52402403e-10
4.33350862e-08
3.88467734e-08
1.23315057e-09
7.86981388e-10
4.29426164e-08
2.74326942e-08
1.01139655e-09
3.652922e-08
3.65534109e-08
1.30955954e-09
7.3520755e-10
4.03007592e-08
3.52239835e-08
1.33256936e-09
7.9232663e-10
3.71702771e-08
3.26781221e-08
1.90198835e-08
3.71228245e-08
4.20669044e-08
3.86731383e-08
3.98088541e-08
3.41623155e-08
1.17547864e-08
1.30060304e-09
6.38384519e-10
4.7094193e-08
4.80137725e-08
1.88589369e-08
9.7132129e-10
1.28761241e-09
4.90250152e-10
4.22632957e-08
4.0204731e-08
1.21585041e-09
6.88297725e-10
4.3169421e-08
3.15093193e-08
3.46625487e-09
3.44398718e-08
3.78590146e-08
1.21011631e-09
8.58813515e-10
4.33617662e-08
2.99018543e-08
7.58844181e-10
3.38434039e-08
3.9182764e-08
1.22073221e-09
8.47820557e-10
4.20402825e-08
3.82536788e-08
1.17136214e-09
7.23632737e-10
4.38392709e-08
3.84767095e-08
1.14470976e-09
4.50587419e-10
4.52894817e-08
3.85152796e-08
1.10552851e-09
1.10194206e-09
4.88052882e-08
4.91359271e-08
3.84350905e-08
2.11274089e-08
1.2200687e-09
1.30658541e-09
7.04163184e-10
4.44740403e-08
4.75626235e-08
2.21889772e-08
1.26890933e-09
1.0145075e-09
3.44867262e-08
3.8748842e-08
2.33829743e-09
9.56659026e-10
3.70951212e-08
3.94710076e-08
8.99834518e-10
5.69461685e-10
4.81588883e-08
4.81045086e-08
4.16013747e-08
4.17972434e-08
2.19423424e-08
1.15454541e-09
1.04804977e-09
1.10247578e-09
7.61198487e-09
4.28245638e-08
3.37092587e-08
1.1347753e-09
2.22396167e-09
5.00245576e-08
5.05614487e-08
4.12573804e-08
4.33640473e-08
2.51181267e-08
1.139441e-09
9.7591237e-10
1.14265688e-09
9.6345422e-10
4.27662726e-08
3.60347906e-08
1.25845634e-09
5.73410559e-10
4.01137159e-08
3.36531675e-08
1.22421106e-09
5.48682095e-10
4.74662507e-08
4.81109582e-08
4.00263033e-08
4.35316366e-08
2.81538705e-08
1.12467201e-09
1.01003648e-09
1.10463291e-09
4.63590025e-10
4.72000761e-08
4.07062367e-08
1.10896956e-09
6.03572567e-10
5.39557347e-08
5.43699758e-08
2.45103852e-08
1.0307743e-09
1.23700216e-09
5.98652926e-10
5.21800946e-08
5.22826728e-08
4.08926259e-08
2.6383622e-08
1.23777348e-09
1.34304966e-09
8.06898993e-10
4.03161198e-08
3.99128298e-08
1.27426872e-09
8.31097806e-10
4.33832385e-08
4.0407759e-08
1.21089334e-09
7.87422725e-10
4.90815546e-08
4.92927371e-08
4.29523599e-08
2.76875273e-08
1.21630964e-09
1.35998873e-09
8.70508456e-10
4.12518988e-08
4.09758422e-08
1.31394618e-09
9.35586492e-10
4.17934336e-08
3.93159512e-08
1.31698043e-09
9.5917295e-10
4.23498918e-08
3.93481104e-08
1.310566e-09
9.71802148e-10
4.32643022e-08
3.9278309e-08
1.29193927e-09
1.01482445e-09
4.45517017e-08
2.2996189e-08
1.07371839e-09
4.47995259e-08
4.48153355e-08
3.98603366e-08
4.01297821e-08
1.99775364e-08
1.28659879e-09
1.13541158e-09
4.48167479e-08
4.48988745e-08
2.7482189e-08
1.23433243e-09
1.36340508e-09
9.31360027e-10
4.23794167e-08
4.18914902e-08
1.29008523e-09
9.76946293e-10
4.44407989e-08
4.46054383e-08
4.05149151e-08
3.26173091e-08
1.33945293e-09
1.10664534e-09
4.00830964e-08
3.49582031e-08
1.33791098e-09
1.08991728e-09
4.34988656e-08
4.39518451e-08
3.24375812e-08
1.28355915e-09
1.11783625e-09
4.15239612e-08
3.68801019e-08
1.31454401e-09
1.05757708e-09
4.20287093e-08
3.90643035e-08
1.31283348e-09
1.01673174e-09
4.30555516e-08
4.02932805e-08
1.30857346e-09
1.0062212e-09
4.32676778e-08
4.34877757e-08
4.1157598e-08
3.48914863e-08
1.33916744e-09
1.10644067e-09
3.90858739e-08
3.61212839e-08
1.3478329e-09
1.06798445e-09
3.99473875e-08
3.76513508e-08
1.31997239e-09
1.02514342e-09
4.22404538e-08
3.94455002e-08
1.26719566e-09
1.00561586e-09
4.63484715e-08
4.65551749e-08
4.5647058e-08
4.35256196e-08
4.57009551e-08
3.7184281e-08
1.24607621e-09
1.21232129e-09
1.25716019e-09
9.91499997e-10
4.29037135e-08
4.10787397e-08
1.29301789e-09
1.04398827e-09
4.21412152e-08
4.04275362e-08
1.30759859e-09
1.06953896e-09
4.21470585e-08
4.04510533e-08
1.31491289e-09
1.09302078e-09
4.20943842e-08
4.05107851e-08
1.32132277e-09
1.12086235e-09
4.17791544e-08
4.01781481e-08
1.32162166e-09
1.15127311e-09
4.1993209e-08
3.93219687e-08
1.30430267e-09
1.20862014e-09
4.32244005e-08
3.55286788e-08
1.18935217e-09
3.34218629e-08
4.72815113e-08
3.91732995e-08
4.80627565e-08
3.85869615e-08
1.21592866e-09
1.36418726e-09
1.20113784e-09
3.92935529e-08
4.16891148e-08
1.36726299e-09
1.22079054e-09
4.02297381e-08
4.03123894e-08
1.35964125e-09
1.20733995e-09
4.18844548e-08
4.1648313e-08
1.34899645e-09
1.24122439e-09
4.30761175e-08
4.40573767e-08
1.3555346e-09
1.20937944e-09
4.15458462e-08
4.66598499e-08
4.23642464e-08
1.30061101e-09
1.30207867e-09
3.86867101e-08
4.20052401e-08
3.96618265e-08
4.06802122e-08
1.38165116e-09
1.32781908e-09
3.78406882e-08
3.96876559e-08
1.39963609e-09
1.32204697e-09
3.93397331e-08
4.1767113e-08
1.39518817e-09
1.30118859e-09
3.87236181e-08
4.26571077e-08
4.06360785e-08
4.24593422e-08
1.36222777e-09
1.31798023e-09
3.75011368e-08
4.05474559e-08
1.35292303e-09
1.31276134e-09
4.03616236e-08
4.22556038e-08
1.29488759e-09
1.25130013e-09
4.24648257e-08
4.65252519e-08
1.23800515e-09
1.151826e-09
4.40816283e-08
5.5884779e-08
4.87032837e-08
1.06627732e-09
1.22135827e-09
1.12877123e-09
4.12181587e-08
4.75264648e-08
1.22507284e-09
1.21818668e-09
4.09844816e-08
4.28175429e-08
1.22414187e-09
1.24463473e-09
4.19466222e-08
4.35177161e-08
1.18180235e-09
1.22402686e-09
4.52267709e-08
4.55853786e-08
1.06550303e-09
1.15489858e-09
5.447146e-08
5.36962407e-08
9.0070371e-10
1.12772186e-09
9.28689597e-10
4.60660446e-08
5.18352933e-08
1.14703403e-09
1.12259159e-09
4.21653517e-08
4.59291415e-08
1.21003016e-09
1.17451571e-09
4.06840097e-08
4.83555341e-08
4.72199001e-08
1.20681823e-09
1.27002391e-09
3.79278479e-08
4.18226209e-08
1.22095717e-09
1.31853676e-09
4.02306163e-08
4.06240617e-08
1.10329624e-09
1.32236174e-09
1.25946869e-08
4.13472031e-08
4.45378855e-08
4.77009785e-08
4.75249556e-08
1.10612333e-09
1.32238088e-09
1.17551739e-09
3.02680049e-08
4.70406785e-08
4.59778682e-08
1.238466e-09
1.25087036e-09
2.59202433e-08
4.4024283e-08
4.37317368e-08
1.19335434e-09
1.31895152e-09
3.55795245e-08
4.10324646e-08
1.15667225e-09
1.33376565e-09
3.87389528e-08
4.18303331e-08
1.09860892e-09
1.32115606e-09
3.97599354e-08
4.23498364e-08
1.06605506e-09
1.30256202e-09
3.98956162e-08
4.27526934e-08
1.05298673e-09
1.26843178e-09
3.99193532e-08
4.44378297e-08
1.07314549e-09
1.21303017e-09
3.61612203e-08
4.57731229e-08
5.07913553e-08
5.06730101e-08
8.94411565e-10
1.25511323e-09
1.09187269e-09
3.41388113e-08
4.77744771e-08
1.1445119e-09
1.13512357e-09
3.08590644e-08
4.92558901e-08
4.71725003e-08
1.09491025e-09
1.27165333e-09
3.56739011e-08
4.17105648e-08
1.05419606e-09
1.30705385e-09
3.90849076e-08
4.27075735e-08
1.00781477e-09
1.28863137e-09
4.02004991e-08
4.36771626e-08
9.99424682e-10
1.25843982e-09
4.00473111e-08
4.51405982e-08
1.04628613e-09
1.23306053e-09
3.39618807e-08
4.42532314e-08
4.67345612e-08
4.65232803e-08
9.69680576e-10
1.25021265e-09
3.48020242e-08
4.04844676e-08
1.02990339e-09
1.30346842e-09
3.80940592e-08
4.25337778e-08
9.75586863e-10
1.27275417e-09
3.93330717e-08
4.47927956e-08
1.01032545e-09
1.24240475e-09
3.26464296e-08
4.40122856e-08
4.73290033e-08
4.70964539e-08
9.45977038e-10
1.25647779e-09
3.39382587e-08
3.9606476e-08
1.0236162e-09
1.33105355e-09
3.65173977e-08
4.08943319e-08
9.36132911e-10
1.3134551e-09
3.67579302e-08
4.17774274e-08
6.81807254e-10
1.27982521e-09
3.36027274e-08
4.24144706e-08
6.59063434e-09
1.22871106e-09
3.11682003e-08
4.38985888e-08
9.51592974e-09
1.178044e-09
2.42301698e-08
4.44272881e-08
4.20215806e-08
4.69676953e-08
4.65780245e-08
9.69825851e-10
1.27709915e-09
3.03916334e-08
3.91262391e-08
8.22338883e-10
1.32121557e-09
3.3323421e-08
4.13617951e-08
4.76081822e-09
1.2700284e-09
3.22821151e-08
4.22856966e-08
4.95250663e-09
1.25441717e-09
3.23255492e-08
4.27687139e-08
5.93671196e-09
1.24877664e-09
3.19124474e-08
4.3027289e-08
7.37788441e-09
1.25284177e-09
3.19518045e-08
4.28240694e-08
8.40623555e-09
1.29112727e-09
3.58816055e-08
3.72331542e-08
9.68509181e-10
2.55673676e-08
4.69901257e-08
5.16798429e-10
1.18712428e-09
3.71397552e-08
4.38272195e-08
8.78579227e-10
1.15139236e-09
3.17296899e-08
5.04758749e-08
4.67266472e-08
1.02442795e-09
1.26237708e-09
3.49748336e-08
4.13434681e-08
8.81712864e-10
1.29567424e-09
3.79899793e-08
4.25489414e-08
9.41284434e-10
1.25543688e-09
3.4184383e-08
4.39462625e-08
4.41298297e-08
4.33446399e-08
1.10216813e-09
1.23916028e-09
3.3089466e-08
4.44330581e-08
4.78658e-08
4.69289254e-08
9.2416361e-10
1.29484672e-09
1.19373902e-09
3.20907288e-08
4.50038584e-08
3.3974437e-08
1.05857095e-09
1.40425611e-09
3.46238113e-08
4.05747931e-08
8.01321329e-10
1.31289566e-09
3.76413071e-08
4.23358488e-08
7.14845597e-10
1.27079306e-09
3.83734089e-08
4.29989389e-08
6.45190771e-10
1.24562178e-09
3.8955038e-08
4.32490544e-08
5.56710303e-10
1.30524979e-09
4.21730854e-08
3.04421625e-08
9.47354334e-10
3.2122926e-08
4.23539117e-08
6.61634513e-10
1.18688277e-09
3.70633212e-08
4.14744784e-08
6.77069724e-10
1.17237214e-09
3.76951812e-08
4.06499356e-08
7.79479707e-10
1.12850926e-09
3.80410855e-08
3.93007567e-08
9.30865095e-10
1.05610364e-09
3.96391326e-08
3.254914e-08
1.08866083e-09
1.94073177e-08
4.69163985e-08
4.52008631e-08
4.14477909e-08
4.4046203e-08
3.62496327e-08
3.25061829e-09
1.32641386e-09
1.01563188e-09
1.70768178e-08
4.11928521e-08
2.26307715e-08
1.2054252e-09
2.20363846e-08
4.14715199e-08
1.21015434e-08
1.04789591e-09
3.44250876e-08
4.56290049e-08
4.29460838e-08
3.48786753e-08
7.40142989e-10
1.17391663e-09
2.92738948e-08
3.87181712e-08
7.85061394e-09
1.07782436e-09
3.20379531e-08
3.87863314e-08
1.68487874e-09
1.01247593e-09
3.57827803e-08
3.91855568e-08
8.2539662e-10
8.31478157e-10
4.24919347e-08
4.94691049e-08
3.27177583e-08
1.09244827e-09
9.41599361e-10
3.95686217e-08
3.98870467e-08
8.19386954e-10
7.95889972e-10
4.15681207e-08
4.67616253e-08
2.6238627e-08
1.17103326e-09
7.67579091e-10
4.55966581e-08
4.74173175e-08
2.65984177e-08
1.19263381e-09
7.5184162e-10
3.91384663e-08
3.79319015e-08
9.08590439e-10
8.77486645e-10
3.8788686e-08
3.94229789e-08
7.97596027e-10
8.89541346e-10
3.96585591e-08
4.01560619e-08
8.70374116e-10
8.74773844e-10
4.13795304e-08
4.2108591e-08
5.66798102e-10
9.0022572e-10
4.08904588e-08
4.10007834e-08
1.13990629e-09
3.94449231e-10
4.29680487e-08
3.12920335e-08
1.09955706e-09
1.61225115e-08
4.72013827e-08
4.63155587e-08
3.54467458e-08
2.26782344e-08
1.234899e-09
6.03383691e-10
4.71590678e-08
2.33378962e-08
5.99837787e-10
3.78032204e-08
3.56186254e-08
1.23381396e-09
4.27721715e-09
4.37917068e-08
3.52935112e-08
1.16167765e-09
5.35604056e-10
4.74466957e-08
2.1498814e-08
5.80781269e-10
3.63342156e-08
3.44258641e-08
1.31063273e-09
5.47468502e-10
4.08618e-08
3.47737122e-08
1.28992406e-09
5.19783845e-10
4.15170601e-08
3.47123884e-08
1.28959015e-09
5.09873293e-10
4.10927071e-08
3.42021158e-08
1.28729052e-09
5.1138417e-10
4.04719587e-08
3.30093212e-08
1.21045163e-09
4.49692542e-10
4.85478649e-08
4.90080729e-08
4.20538962e-08
4.15989628e-08
4.10841016e-08
2.67226173e-08
1.25018979e-09
1.34154784e-09
4.00088772e-10
3.99375953e-08
3.53215049e-08
1.26307269e-09
4.55919095e-10
4.48708566e-08
4.55833792e-08
3.50911832e-08
1.95187407e-08
1.32959591e-09
4.57893318e-10
4.05245047e-08
3.38486086e-08
1.2805342e-09
4.70128768e-10
4.06589283e-08
3.38803659e-08
1.2252254e-09
4.37154731e-10
4.61042551e-08
2.85760577e-08
4.91159e-10
3.86222104e-08
3.63508103e-08
1.27907218e-09
4.13377463e-10
4.26463579e-08
3.66178933e-08
1.23224276e-09
4.51687167e-10
4.68621977e-08
4.72496603e-08
4.35068547e-08
3.09199322e-08
1.28177631e-09
1.32847573e-09
4.20391972e-10
4.15150406e-08
3.73221027e-08
1.27008447e-09
4.56517421e-10
4.25373744e-08
3.65045509e-08
1.26524752e-09
5.00308109e-10
4.28182096e-08
3.64114289e-08
1.24789371e-09
5.96003313e-10
4.51978259e-08
4.54615917e-08
4.35927906e-08
3.12533997e-08
1.27580267e-09
1.35149264e-09
6.22196226e-10
4.0720523e-08
3.80105406e-08
1.27887411e-09
7.26298289e-10
4.54785197e-08
4.5750378e-08
4.43860606e-08
3.2593348e-08
1.31887647e-09
1.41535771e-09
8.59460273e-10
3.81625455e-08
3.59677726e-08
1.43237306e-09
1.02380679e-09
3.7047807e-08
3.75693336e-08
3.15850096e-08
3.58578677e-08
3.01097933e-08
1.40318997e-09
1.05705841e-09
3.9033889e-08
3.67051998e-08
1.37526736e-09
1.01647659e-09
4.13915885e-08
3.86034301e-08
1.35194638e-09
1.02529528e-09
4.15528455e-08
3.88380961e-08
1.34164503e-09
1.05760504e-09
4.12735598e-08
3.87844332e-08
1.32081822e-09
1.17723659e-09
4.29385437e-08
4.36988308e-08
4.0682636e-08
4.00095418e-08
4.06617881e-08
3.50059932e-08
1.34067491e-09
1.20060809e-09
3.99562291e-08
3.9633763e-08
1.37771962e-09
1.15328924e-09
4.0504414e-08
4.97909249e-08
3.63202521e-08
1.21301531e-09
1.404561e-09
1.18768638e-09
3.9148616e-08
4.44281736e-08
1.3513714e-09
1.23802303e-09
4.26359928e-08
4.20720405e-08
1.28092957e-09
1.33672592e-09
4.45148451e-08
3.81130501e-08
1.24376219e-09
3.064146e-08
4.55249903e-08
1.35130495e-09
1.2576725e-09
4.17862148e-08
4.37916245e-08
1.26744277e-09
1.21703293e-09
3.9648383e-08
4.88832621e-08
4.25127044e-08
1.23985641e-09
1.25073811e-09
3.70357985e-08
4.71242744e-08
3.96196921e-08
1.19760802e-09
1.41856378e-09
3.80981319e-08
3.60210293e-08
1.26750144e-09
2.67267103e-08
4.22957001e-08
1.19868554e-09
1.33415068e-09
3.9256686e-08
4.13108304e-08
1.14043994e-09
1.3622367e-09
3.82364942e-08
3.98708243e-08
1.1786037e-09
1.39839489e-09
3.09853524e-08
3.64291621e-08
3.06220433e-08
3.36980284e-08
3.31345972e-08
1.3379794e-09
1.40987961e-09
3.32503269e-08
4.09403025e-08
4.16310136e-08
4.11625335e-08
1.23764214e-09
1.28360241e-09
2.99966677e-08
4.53934963e-08
4.09379883e-08
1.1483069e-09
1.37881008e-09
3.67963917e-08
4.00293297e-08
1.06830724e-09
1.34782177e-09
3.66010114e-08
4.02457143e-08
1.12224617e-09
1.24201466e-09
3.14407156e-08
4.85171403e-08
3.19103122e-08
1.09012979e-09
2.49643336e-08
4.34204458e-08
1.09262871e-09
1.25348974e-09
3.58762241e-08
4.38048041e-08
4.45533002e-08
4.18949738e-08
1.15278615e-09
1.34840328e-09
3.74640489e-08
4.00195497e-08
1.07722315e-09
1.3557737e-09
3.59355097e-08
3.92851006e-08
1.15605159e-09
1.27281969e-09
2.89430325e-08
4.59858462e-08
3.89022208e-08
1.18785647e-09
1.39796603e-09
3.4576384e-08
3.86518082e-08
1.07411847e-09
1.37567719e-09
3.48553472e-08
3.90354418e-08
1.1028837e-09
1.30962243e-09
3.12377105e-08
4.36849678e-08
4.16435412e-08
4.18900636e-08
4.56119136e-08
4.05322573e-08
4.92136882e-09
1.24172077e-09
1.00200371e-09
1.29636737e-08
4.94240925e-08
4.48021598e-08
9.76315378e-10
1.30274531e-09
3.00765383e-08
3.84196112e-08
7.66243609e-09
1.23083924e-09
2.01868816e-08
4.63669988e-08
3.5905435e-08
1.06614844e-09
7.18901193e-09
4.00708418e-08
1.8984242e-08
1.20735757e-09
2.44290908e-08
4.43098414e-08
4.34064916e-08
3.98839691e-08
1.06626799e-08
1.25080538e-09
2.76749994e-08
4.03637035e-08
1.03700923e-08
1.20309782e-09
2.83284331e-08
4.06846931e-08
1.24185762e-08
1.21808321e-09
2.34831169e-08
3.74790179e-08
3.39361398e-08
3.02933963e-08
6.78695271e-09
1.16646842e-09
2.72826006e-08
3.81646514e-08
1.14357176e-08
1.0352637e-09
2.75842363e-08
3.92807187e-08
1.24668798e-08
9.82774828e-10
2.64735106e-08
3.81042308e-08
1.49482317e-08
1.11431134e-09
1.57978188e-08
4.41029679e-08
4.01615639e-08
1.27926118e-08
9.96968844e-10
1.78243698e-08
4.46595814e-08
4.36643416e-08
3.9058689e-08
2.00133917e-08
1.05250099e-09
1.64909308e-08
3.7804674e-08
2.30822801e-08
1.2176039e-09
7.23083873e-09
4.40667239e-08
4.37090044e-08
4.13244161e-08
2.75861368e-08
1.22345696e-09
6.2260334e-09
3.8666199e-08
3.01505685e-08
1.27194064e-09
2.96849563e-09
4.05437309e-08
2.81161008e-08
8.85503104e-10
3.32301242e-08
3.80902856e-08
1.36904675e-09
5.58720469e-10
4.23346522e-08
3.80456779e-08
1.30055708e-09
7.68028318e-10
4.28659263e-08
3.91569827e-08
1.30354054e-09
9.11411059e-10
4.21558939e-08
3.88678514e-08
1.4062905e-09
1.12126536e-09
3.06385831e-08
4.92610603e-08
4.00802569e-08
1.26966874e-09
1.16496681e-09
3.95933924e-08
3.76849902e-08
2.20210699e-08
4.10250869e-08
4.04383502e-08
1.32834143e-09
1.27781047e-09
3.1051741e-08
4.24766612e-08
2.37831278e-08
1.28180263e-09
1.47067007e-08
4.26934415e-08
2.40455421e-08
1.27646462e-09
1.25587407e-08
4.38182227e-08
3.43885633e-08
1.29466682e-09
6.95724697e-10
4.25797684e-08
5.17746413e-08
3.06378367e-08
1.14869624e-09
5.3109689e-09
4.3370011e-08
3.6263187e-08
1.20549107e-09
9.50075045e-10
4.24408609e-08
4.1364108e-08
1.21613993e-09
1.03089604e-09
3.88427467e-08
5.12562706e-08
4.1433511e-08
9.46644672e-10
1.33001901e-09
1.01111664e-08
4.01967368e-08
4.01530873e-08
1.148342e-09
7.10046062e-10
4.08607957e-08
3.06033819e-08
1.17526047e-09
1.82566596e-08
3.99603738e-08
1.40269272e-08
1.24035367e-09
2.95896605e-08
3.98154538e-08
7.28525295e-10
1.31772264e-09
1.99477308e-08
3.80520829e-08
4.05943939e-08
4.14146358e-08
4.68838089e-08
3.45109672e-08
6.49584611e-10
1.42685704e-09
7.52813319e-10
3.23075841e-08
4.9106983e-08
4.84582044e-08
1.47060698e-08
1.11206856e-09
2.52266384e-08
3.99084538e-08
1.23664097e-08
1.18904787e-09
2.60147118e-08
4.00245178e-08
1.10422059e-08
1.18891003e-09
2.3924993e-08
4.10731381e-08
1.98753559e-08
1.09205922e-09
1.68883345e-08
4.24212666e-08
2.95763226e-08
9.86809008e-10
9.37560195e-09
4.09810691e-08
4.82434806e-08
3.29943936e-08
9.08812172e-10
6.75551512e-09
3.98040907e-08
3.09899603e-08
1.00256665e-09
7.86105746e-09
3.84029625e-08
2.88938567e-08
1.05220549e-09
8.22447478e-09
3.75230347e-08
2.95125654e-08
1.06663691e-09
4.27285558e-09
3.56065042e-08
3.30524288e-08
1.03524457e-09
1.23960807e-09
2.96194926e-08
4.25439415e-08
4.01800785e-08
4.15427364e-08
4.26037872e-08
2.44318189e-08
1.02127396e-09
1.3315193e-09
1.19939207e-08
3.93199907e-08
4.29004667e-08
4.31279888e-08
2.62053846e-08
1.08519207e-09
1.2661138e-08
3.86111529e-08
2.23571241e-08
1.13862327e-09
1.98989876e-08
4.27334156e-08
1.49110895e-08
1.2529415e-09
3.12193038e-08
3.25087914e-08
1.11304455e-09
1.67082116e-08
4.09400156e-08
1.91176907e-08
1.2600926e-09
2.37024525e-08
4.12176628e-08
1.33940584e-08
1.28087666e-09
2.65990764e-08
4.14531901e-08
1.14370506e-08
1.20918373e-09
2.74053805e-08
4.79600919e-08
4.47886907e-08
4.64461972e-08
4.35334741e-08
1.34002848e-08
1.20686247e-09
1.31323205e-09
1.08837267e-09
3.38600978e-08
4.12249235e-08
5.1964544e-10
1.14196231e-09
3.62414111e-08
3.96831184e-08
7.61661962e-10
1.15260946e-09
3.57977095e-08
3.81421641e-08
8.29089877e-10
1.10634044e-09
3.21677822e-08
4.43626763e-08
4.16476919e-08
4.31109535e-08
4.28964393e-08
4.53415945e-08
3.52272318e-08
8.13928298e-10
1.24379354e-09
1.02866148e-09
1.11120042e-09
2.11933443e-08
3.62232627e-08
3.40802876e-08
3.41453734e-08
3.11230562e-08
8.73063492e-10
8.90174593e-10
3.41795122e-08
3.6912321e-08
3.17056428e-09
8.02395431e-10
3.30512881e-08
3.84560698e-08
7.24867352e-09
7.88409953e-10
3.06645752e-08
3.92270755e-08
1.19513767e-08
8.88736669e-10
2.54595665e-08
3.7626941e-08
1.51843294e-08
1.08193385e-09
1.65719247e-08
4.23198104e-08
3.71214642e-08
1.45952448e-08
1.64096542e-08
3.82450261e-08
3.78077151e-08
3.40598356e-08
2.04148127e-08
1.26224073e-09
7.90408554e-09
3.93360084e-08
2.99492331e-08
1.27118419e-09
4.4540334e-09
4.14890655e-08
3.35496687e-08
1.27679681e-09
1.17431194e-09
4.32983097e-08
3.62921597e-08
1.25748022e-09
6.97448201e-10
4.55551459e-08
3.0789614e-08
1.04028158e-09
4.00672136e-08
4.04968617e-08
1.30965659e-09
9.34794419e-10
4.39139157e-08
4.26412787e-08
1.22011121e-09
9.86348138e-10
5.02441129e-08
4.85733597e-08
1.21702067e-09
1.10208551e-09
4.43227895e-08
4.36081357e-08
1.26190787e-09
1.22519148e-09
4.26184866e-08
4.2596389e-08
1.27035662e-09
1.27689187e-09
4.28806799e-08
4.30834511e-08
1.25742701e-09
1.29021984e-09
4.29744819e-08
4.3178362e-08
1.26320505e-09
1.303282e-09
4.14565584e-08
4.17920394e-08
1.33873513e-09
1.28913884e-09
3.47472187e-08
4.25025984e-08
3.76880183e-08
4.2639771e-08
3.81312465e-08
1.3132341e-09
1.41856328e-09
3.55778052e-08
3.75769705e-08
1.32978854e-09
1.39210479e-09
3.9363896e-08
3.99578649e-08
1.30908261e-09
1.34385388e-09
3.94072487e-08
3.95365427e-08
1.37016426e-09
1.30020194e-09
3.10660694e-08
4.04566824e-08
3.75422077e-08
4.23047319e-08
3.90453741e-08
4.55798139e-08
3.87145933e-08
1.20720938e-09
1.33124222e-09
1.14001749e-09
4.30030084e-08
4.53361488e-08
1.38188635e-09
1.16833862e-09
3.19317186e-08
4.2308104e-08
3.2858608e-08
1.29779046e-09
1.10905668e-09
4.07498719e-08
2.33186741e-08
1.22445863e-09
3.44289445e-08
3.8031512e-08
1.41743471e-09
1.02398184e-09
3.96620548e-08
3.70327407e-08
1.42621904e-09
1.17157369e-09
3.52610683e-08
3.94688243e-08
2.13586347e-08
1.31318519e-09
1.01472748e-09
4.34741374e-08
4.76083824e-08
4.28813731e-08
4.79875572e-08
3.85325031e-08
1.22318618e-09
7.57955365e-10
4.02838933e-08
3.58570559e-08
1.30872846e-09
7.27892572e-10
4.00008337e-08
3.52898589e-08
1.31156572e-09
6.82282508e-10
4.08784797e-08
3.57046654e-08
1.3188609e-09
6.66517659e-10
4.10492062e-08
3.43259e-08
1.35820279e-09
9.61390507e-10
4.14204192e-08
4.34313443e-08
3.92922152e-08
4.11545202e-08
2.5439085e-08
1.32450709e-09
7.50355638e-10
3.73775823e-08
3.45052581e-08
1.31756803e-09
6.01824149e-10
4.28311705e-08
3.76678182e-08
1.25334788e-09
5.78537412e-10
4.41233641e-08
3.89041784e-08
1.23047339e-09
6.13836418e-10
4.45043256e-08
3.97488323e-08
1.22725363e-09
6.74863613e-10
4.47900542e-08
4.05441557e-08
1.23131182e-09
7.51459668e-10
4.49608238e-08
4.12875271e-08
1.23839375e-09
8.40044993e-10
4.5071305e-08
4.2008402e-08
1.24843863e-09
9.40384506e-10
4.50192532e-08
4.27164636e-08
1.26253704e-09
1.05324076e-09
4.4726995e-08
4.3217216e-08
1.28179468e-09
1.17762204e-09
4.39619595e-08
4.33058341e-08
1.30694436e-09
1.29400609e-09
4.23653084e-08
4.22471717e-08
1.28085082e-09
1.33438442e-09
3.86287199e-08
3.92541878e-08
1.2462069e-09
1.35035663e-09
3.20531682e-08
3.92567779e-08
3.82721236e-08
3.85355161e-08
4.15600127e-08
4.07074957e-08
1.15886855e-09
1.34932461e-09
3.46112858e-08
3.84206294e-08
9.19972037e-10
1.3373095e-09
3.6009254e-08
4.04035319e-08
7.64096272e-10
1.26531232e-09
3.78241891e-08
4.4984669e-08
5.97574149e-10
1.29405653e-09
3.8668412e-08
3.08428864e-08
9.46783745e-10
2.57113098e-08
5.06144477e-08
4.8207772e-08
8.22373772e-10
1.15698905e-09
3.07128961e-08
4.94280197e-08
4.91316374e-08
7.62590296e-10
1.22469137e-09
3.40149629e-08
4.20962193e-08
4.31776374e-10
1.25068629e-09
3.45960841e-08
4.20014655e-08
1.87091313e-09
1.24702352e-09
3.39781082e-08
4.15126641e-08
3.06820803e-09
1.25690661e-09
3.52606962e-08
3.87119648e-08
8.59205388e-10
2.43831767e-08
4.52439894e-08
1.6394702e-09
1.17847037e-09
3.51707139e-08
4.3265742e-08
2.46178067e-09
1.21942289e-09
3.49360905e-08
4.30892877e-08
2.07497561e-09
1.22771517e-09
3.52453332e-08
4.30433414e-08
1.52614347e-09
1.23373802e-09
3.55769417e-08
4.28489753e-08
7.90154318e-10
1.23219249e-09
3.55094096e-08
4.2915055e-08
4.84056729e-10
1.16325314e-09
3.19990148e-08
4.89901376e-08
4.71877742e-08
8.40519536e-10
1.23277088e-09