/*--------------------------------*- C++ -*----------------------------------*\
| =========                 |                                                 |
| \\      /  F ield         | OpenFOAM: The Open Source CFD Toolbox           |
|  \\    /   O peration     | Version:  2306                                  |
|   \\  /    A nd           | Website:  www.openfoam.com                      |
|    \\/     M anipulation  |                                                 |
\*---------------------------------------------------------------------------*/
FoamFile
{
    version     2.0;
    format      ascii;
    arch        "LSB;label=32;scalar=64";
    class       volScalarField;
    location    "6e-05";
    object      h;
}
// * * * * * * * * * * * * * * * * * * * * * * * * * * * * * * * * * * * * * //

dimensions      [0 2 -2 0 0 0 0];

internalField   nonuniform List<scalar> 
3810
(
-5418.4941
-5434.11401
-642.245732
10250.2406
9508.24305
-3723.92895
-2903.76832
10293.3078
9591.75243
-4327.96761
-3768.7976
10159.9079
9749.90833
-4681.52158
-4298.17917
10126.8967
9940.73323
-5035.03468
-4981.88098
10165.6634
10145.7149
-4645.05365
-4678.58442
-4538.5148
-1923.52512
10279.5056
10641.2742
-3040.48477
-3434.51278
9931.82598
10404.8684
-3467.29958
-4055.33431
9633.19441
10287.3516
-3636.72148
-4347.1076
9529.9268
10362.2938
-1601.79976
-2898.10619
1166.07875
-902.101076
-2862.14107
-3631.81943
-2252.57295
9989.35279
10578.6717
-2053.20421
-3061.72459
8793.15185
10529.2697
9907.22545
-3248.13129
-5226.35769
8767.41462
10005.0735
-2905.67267
-4883.42517
-4935.17021
-2704.12503
9729.29417
10271.9318
-1276.13602
-6112.39338
-3384.67273
9160.37833
10604.4147
10184.475
-2871.59333
-4424.9744
9108.15028
10215.0712
-3435.04181
-4233.266
9324.84503
10362.6848
-3583.10486
-3062.581
7168.60076
-792.967224
-4520.9838
9933.99748
10198.259
-4332.54433
-4698.29488
-4103.99474
-1026.2539
10409.184
10342.4779
-3019.41658
808.243431
10203.9172
-885.762707
-3936.16028
9916.90196
9658.21703
-4002.57314
-1113.742
9863.00507
1326.29727
-4131.468
7278.77641
9846.9794
-2546.46849
-3810.77423
9096.78048
9478.67285
-4219.29479
-4057.05829
9363.87506
9096.19494
-5401.3467
-6586.55339
-450.551379
9929.74153
9115.48706
-3756.7101
-3352.89895
9425.99341
8713.63262
-4271.1197
-3405.48443
9266.60634
8617.61155
-5857.28728
-6318.2525
556.008703
9889.8353
8376.31929
-3342.78072
-2430.77347
9460.06104
8307.05187
-3522.88992
-2426.67793
9270.88817
8207.46278
-3559.63065
-2476.12192
9194.18445
8213.62272
-3476.98329
-2588.96831
9095.22686
8393.62323
-3367.26028
-2692.04109
8945.22658
8444.07791
-1964.25217
-1262.43853
3771.8927
-633.586116
-4915.57421
-907.378397
10024.6448
10142.026
5915.95328
-3970.69973
-3292.41666
7930.02824
7750.49995
-5327.4643
-6026.48365
-3903.24028
-3685.7898
-3152.86628
2334.70186
9912.39069
9960.08646
9893.64306
8255.16257
-2257.44366
-3750.68857
4854.05741
9344.78999
1936.64983
-3812.85397
3063.77809
9406.71747
2379.93008
-4119.14817
2314.37462
9462.49763
2902.77796
-4582.35468
1855.83192
9237.51556
1446.67042
-5720.37139
-4860.91923
-2464.42576
2091.44552
10531.1678
8018.55799
1048.97218
9077.55926
7806.05212
-6003.95445
-2349.42308
9981.23321
8188.77427
-4745.43246
-2850.10175
10153.8402
8518.96426
-4536.4955
-2944.55779
10184.99
8886.04485
-4728.78325
-1559.22684
9638.98107
10306.2661
8848.41572
-6397.53571
-6415.31514
2175.18686
10100.4269
9543.29475
-4518.99098
-4503.34126
-2946.88814
-3524.49861
-2822.48223
-3431.1512
2226.8848
10335.1629
9854.69982
10244.3399
9043.1599
-4627.77981
-4064.9609
10340.3438
9827.05428
-4008.31102
-4012.1255
-1339.17734
-4538.26456
-1843.38766
8652.64084
10522.8456
9067.94281
-5200.05639
-6072.25199
408.984528
10105.0491
10086.7492
-4917.74004
-4978.9105
-2397.30801
10357.0361
9903.29726
-3064.26073
9925.79807
10091.9439
-5896.71995
-6076.66851
-2327.19968
9968.46949
10217.9154
-7000.36613
-5034.80512
9595.54654
10212.4722
9493.62473
-4839.74773
-6391.28371
1251.33764
10245.2399
10477.8955
-3832.27994
-3534.24192
10562.6547
10423.0926
-2633.1544
-3171.64625
807.801999
-3689.15643
-1392.45364
9619.98368
10685.671
8639.01631
-4158.18993
-5359.78228
10280.6009
10068.7353
-4269.60294
-4877.67685
10257.4154
9827.7005
-4020.22408
-6498.43179
-2842.87998
10146.4003
10169.56
-4249.23387
-3782.63833
10163.927
9980.77316
-4626.26677
-3383.33805
9832.73586
1840.00188
-6694.00216
-3540.21872
9923.43109
10276.349
10313.3663
9995.93217
-1673.2425
-4888.16051
-3184.90206
-5432.00678
-2771.78662
9848.4737
10559.8442
9486.53971
-3715.06118
-2631.27016
9920.291
-2301.35971
-4012.57377
10358.2713
9750.26569
-4530.26862
-4211.79006
10159.8091
9722.92724
-4346.04996
-6351.1265
-3078.43565
10105.8228
9959.99989
-3680.2325
-5245.31618
-2306.52002
10256.8358
9905.18928
-3575.67989
-3163.22215
10315.0744
9711.27855
-3954.12599
-3487.64277
10266.8945
9658.74288
-4187.63143
-3391.34985
10222.6543
9816.55666
-4301.42965
-1819.56976
9863.18203
-2067.53004
-1660.97785
10045.1676
-1859.05274
-4290.81419
10371.8096
9649.09567
-5960.36198
-5955.48653
-4348.76527
-4631.11731
3474.49024
10290.0387
10490.0318
9432.75858
-4361.21886
-3998.49658
10266.6208
9292.85327
-4960.67307
-4303.61196
10095.9458
9062.28591
-5754.0002
-5736.31291
-4092.58576
177.020261
10192.2715
10457.3403
9370.12425
-5925.15304
-5993.76644
1923.94999
10402.9983
10189.4492
-674.08071
-3742.54825
365.04874
10316.9524
9365.63812
-4214.83281
-2299.49467
10093.5336
6679.82704
-4982.00675
2430.71267
9376.44014
-2954.88709
-2682.09158
10179.1691
5420.20514
-4058.62063
465.73475
10138.0178
9093.26618
-6071.43626
-6094.29198
-4173.26823
-2594.83399
7824.23477
10573.1501
9396.45492
1453.84855
-5416.87446
-1171.34249
9909.10606
9186.16694
-6287.68878
-6290.72477
-3033.59208
4989.71989
10046.5052
10306.2527
8561.26972
-4091.04442
-3416.57001
10016.7084
8670.60504
-4498.31638
-3115.17797
10005.6762
8633.52099
-4356.57964
773.059999
9306.60985
-2538.75468
-2521.95584
10197.2385
8669.18923
-3680.73684
-2107.33353
10210.602
8727.46046
-2814.85044
-1175.43874
3353.73918
-2742.64665
-4101.96187
-3214.94418
-3386.9514
-1828.5303
5731.9773
10338.0402
8309.90428
-5530.68318
-5567.08531
3510.66788
9814.56031
10360.2415
7955.68758
-4192.33335
-3397.71496
9899.83781
8382.30884
-4345.39085
-682.357395
7301.92731
-1862.00801
-2809.97282
9909.72932
8761.98624
-4345.28594
-104.041057
8646.91759
-1627.73491
-3121.86672
9919.91423
8966.36815
-4062.06422
-2867.96021
9843.20303
8543.46064
-4570.41559
-2926.05453
9766.96887
7833.35175
-4973.9768
-2954.94137
9666.35813
7606.97313
-5954.5108
-5963.50976
-3046.81867
2912.92107
10354.6318
10437.3393
8456.52916
-4775.15822
-5552.94446
2468.66896
10260.996
9438.44771
-1897.92859
-3174.03528
7690.68986
9386.76017
-2600.70055
-3342.08285
9019.29314
8364.89309
-5695.46324
-5670.11483
-3935.97479
-3967.95421
2659.80253
9946.91028
9615.28956
9803.81777
5980.66968
-4252.04526
-1515.30073
9951.22605
7350.38564
-6291.56908
-6297.57699
-3838.67012
-4350.7931
1615.36691
9910.72798
9517.55602
9879.97599
7458.16353
-4286.92824
-2283.51513
10284.0168
8285.91502
-3556.54356
-1477.52712
10170.6788
8293.63417
-5603.26377
-5615.94172
-3504.39447
-4380.4333
543.627744
9929.0254
9629.06573
9850.75417
7898.92582
-5483.3721
-3594.18015
9847.66201
8388.55025
-7435.32149
-7432.30084
1832.10023
9675.81621
10297.0675
8202.34758
-6921.51227
-6907.19227
-3733.47922
1194.69297
10297.0377
10673.0243
8818.99454
-3610.84694
-3447.45652
10348.78
8955.00367
-4483.84201
-3583.27813
10080.8215
8795.37294
-6099.98215
-6105.53304
-4356.31813
682.896929
10121.7262
10639.0715
8945.03344
-3923.7338
-3796.9586
10367.1102
9194.79301
-4097.26136
-3325.16091
10329.2013
9280.34904
-4268.20428
-3340.82117
10281.1654
9300.01819
-4528.32009
-3333.75981
10218.5779
9452.42684
-4873.73886
2281.14956
9588.18066
-4879.37021
-4887.38214
-3487.85755
-3585.93531
3234.56267
10391.1192
9882.59061
-4902.73262
-4898.70849
717.171496
10177.5999
10603.6305
9148.51694
-4254.16602
-4063.40382
10265.7039
9314.43306
-4837.71298
-4826.12568
-3720.18656
-1184.03251
10441.4152
9770.78447
-3626.19363
-2103.52773
10336.9331
9757.47175
-4629.64129
-4635.17579
-1178.4396
10292.5923
9692.52788
-4002.2718
-2720.91164
10344.774
9516.00288
-4167.42733
-3313.23185
10303.4537
9409.13339
-4470.23765
-3639.97764
10273.1539
9384.52497
-4527.35231
-4529.68995
-3908.4848
-2099.12248
10447.9087
9749.13438
-3323.71608
-2445.22371
10493.4752
9675.20127
-3564.10797
-2852.51925
10400.8113
9563.46532
-4202.56684
-3343.72625
10230.4399
9515.3209
-5346.37294
-5347.72927
-5137.17522
-4548.0742
-5140.32878
-2801.4599
10171.9075
10161.2303
10244.0418
9439.11469
-4371.53517
-3818.49539
10337.3882
9580.38234
-4173.81827
-3647.88868
10351.0415
9647.73032
-4190.07274
-3666.35723
10348.7398
9697.47896
-4183.79659
-3698.10752
10360.6525
9763.33101
-4096.24113
-3615.69595
10363.6247
9852.30275
-4150.55614
-3385.54637
10323.1749
10032.1701
-4474.04934
-2351.89879
9913.7072
-1533.2325
-5595.47176
-3392.55373
-5817.36293
-3243.86602
10000.5658
10541.0195
9962.87435
-3383.36424
-4034.79269
10548.5864
10140.1592
-3676.86291
-3629.75666
10423.0499
10097.5005
-4175.13572
-4016.09169
10335.9763
10146.8452
-4511.84532
-4710.82038
10390.0526
10002.6623
-4079.27151
-5424.34886
-4315.56374
10363.2746
10219.7867
-3204.005
-4150.56489
-3491.55313
-3787.67729
10570.0381
10393.3464
-3008.40885
-3486.90419
10577.1888
10393.9155
-3453.56423
-4069.9611
10553.3902
10318.3804
-3276.08613
-4306.9654
-3797.21438
-4264.94792
10501.387
10399.2728
-2902.56213
-3700.02199
10482.3236
10453.4086
-3705.62209
-4158.36969
10290.8509
10291.3624
-4274.21147
-5337.03094
10182.0269
9938.53993
-4696.30701
-7967.20421
-5984.43103
9603.11791
10216.2534
9811.0212
-3854.63601
-5615.89669
10231.8587
10232.0378
-3790.22578
-4276.90329
10186.8927
10331.4501
-4062.20577
-4476.33284
10052.4464
10272.8747
-4958.71849
-5050.70084
9700.06272
10050.3244
-7525.99284
-7340.78383
9130.33517
9984.48239
9169.22011
-5203.74058
-6728.69962
9941.9794
10058.0137
-4137.48134
-5111.20677
10051.8684
10079.7273
-3776.40465
-5841.7669
-5620.60178
10112.9527
10194.9347
-2966.04757
-4080.74087
10069.2155
10416.3833
-3627.6771
-3738.20672
9685.23066
10484.7633
5119.85236
-3966.61
-4796.86631
-5736.99273
-5664.43268
9628.57055
10478.085
9880.41816
-304.668139
-5541.52104
-5251.48298
10074.0184
10196.7457
1191.2031
-4674.56163
-4668.70845
10023.798
10305.06
-2319.22286
-3891.10857
9842.00172
10376.7487
-3201.23039
-4120.9963
9665.6337
10339.1049
-3461.46055
-4255.69812
9602.9882
10318.9112
-3481.27859
-4342.38553
9568.75122
10262.6124
-3493.29908
-4779.82754
9640.45095
10149.4397
-2438.59349
-5090.16734
-6525.4659
-6486.9704
9040.92098
10366.6742
9762.7831
-1777.5409
-5637.90461
9761.31099
9974.35129
-548.357556
-6048.93288
-5609.85833
9813.51126
10199.7067
-2267.87735
-4056.23776
9592.41652
10326.7672
-3234.94384
-4347.20371
9411.1657
10265.3913
-3550.02227
-4606.50072
9345.69287
10188.413
-3532.26051
-4998.96108
9480.26349
10142.9297
-1682.10463
-4703.53187
-5358.31392
-5358.22425
9371.3034
10248.341
-1995.11286
-3673.75441
9527.27822
10361.5681
-2951.78889
-4285.75872
9231.14256
10204.0952
-3329.50976
-4914.64544
9295.95097
10139.9885
-1157.87031
-4647.46422
-5519.75248
-5523.90384
9264.30479
10255.5058
-1641.9211
-3442.55996
9466.35377
10409.2691
-2481.13805
-3843.84249
9090.23914
10303.2795
-2470.26047
-4083.73372
8397.79374
10236.1659
-1474.68247
-4237.56723
6460.49679
10115.7999
-593.068544
-4628.31249
5633.77748
10025.775
1824.0432
-4715.65169
-4115.26558
-5384.94913
-5376.69009
9443.0636
10334.6283
-174.748909
-3333.06843
8727.21062
10322.512
-1354.25125
-3974.59968
6917.71794
10167.963
-964.538417
-4223.6803
6783.20104
10120.0006
-1001.20806
-4357.03888
6540.52661
10093.2207
-858.613511
-4436.1272
6207.22559
10080.4523
-895.295826
-4388.1593
5962.26054
10238.3855
-2335.78323
-2766.05703
9052.70348
1468.47854
-5454.7935
7974.60293
10063.6495
-2576.53931
-4569.20529
8695.55747
9962.92814
-806.606022
-6377.77088
-5429.36391
9470.57437
10212.6783
-1988.40101
-3956.23648
8932.41903
10241.8383
-2817.22946
-4291.61245
9011.71329
10143.2045
-1748.44217
-4624.94991
-4611.62057
-4431.79374
9723.91513
10244.1554
-1312.09465
-4730.87749
-5661.71669
-5410.95469
9049.75755
10472.1699
10137.0597
-1015.85076
-4820.73021
-1772.60021
9775.6558
10502.4014
-1908.29908
-3795.74702
8886.05861
10213.523
-2778.67888
-4260.74681
8657.54421
10086.8151
-2993.60784
-4429.43563
8513.36843
9980.11852
-3142.28595
-4514.48701
8311.04063
10033.8863
-4137.02053
-408.998787
9155.09148
-1014.35883
-4148.95229
8651.68825
9834.59905
-2705.34244
-3919.6552
8699.82806
9758.54125
-2916.56621
-3650.06519
9003.97952
9618.55914
-3026.85713
-3223.9175
9432.52815
9305.68372
-3474.39119
-1129.41256
9718.03531
3306.37093
-5486.10395
-4976.20079
-3949.7064
-4504.80865
-2515.98926
7629.30766
10375.8508
9771.25962
3713.50723
-3794.81293
2207.52292
10105.3943
2332.46319
-3940.82198
5219.28004
9539.27704
-1904.30786
-5096.05763
-4296.05517
-2088.06623
7974.96279
9985.4942
93.4415995
-3194.0808
6389.48266
9690.77815
-921.02735
-3190.49858
7826.89836
9535.02317
-2230.20851
-3265.67546
8826.84619
9042.80301
-4147.54691
-6045.947
-1276.36391
9601.4336
9257.99484
-3273.07304
-3466.13829
8850.26414
8964.03601
-3874.87473
-5321.72054
1173.55293
9959.19144
8749.61529
-5050.17514
-5512.40125
1037.40943
10024.7705
8816.73438
-3175.84832
-2917.40336
9113.73379
9208.40623
-3022.15514
-3316.94551
8826.46414
9223.95713
-3261.18965
-3522.63189
8986.11102
9190.27932
-3712.65635
-4028.90062
8359.51261
9265.6318
-3650.64719
-3721.47762
9637.19953
7715.29796
-4310.72329
-591.035735
9819.34349
4009.31517
-5544.03964
-5267.90603
-2238.27748
2496.85446
10258.5691
7968.22751
-5433.67507
2180.87516
8233.06462
-2894.85218
-2153.98302
10151.1931
6858.55348
-4581.64096
-2093.64256
9988.68243
7926.13167
-5510.62998
2817.81369
8256.36467
-2484.08293
-1783.75501
10368.9353
8119.26349
-3823.55795
-1914.12412
10208.7804
8058.29672
-4020.88134
-1896.94036
10209.9252
8063.5785
-3893.75772
-1698.82035
10257.04
8119.35717
-3681.87957
-1200.79197
10108.8206
7973.55038
-5905.59167
-5923.2849
-4087.97868
-3949.44811
-3817.32858
999.417809
10399.2252
10503.4779
7685.9883
-3553.26809
-2069.50092
10203.9701
7972.32471
-4929.91955
-4912.5706
-2191.0946
3634.54835
10437.1369
7954.03547
-3718.30245
-1552.17162
10266.6636
8007.81785
-3737.57098
-1566.21741
10146.6764
7875.18255
-5167.59996
389.170088
8066.2855
-3147.26913
-2380.05604
10285.9778
7791.92445
-4317.00727
-2434.32087
10093.0758
7931.75894
-5481.91424
-5467.26964
-4542.72767
-529.978846
10396.0849
10458.8002
7781.45096
-3999.16584
-2645.91209
10222.9409
7976.8818
-4291.05893
-2407.69905
10185.8233
8111.58492
-4365.71017
-2395.75733
10167.7847
8355.99964
-5004.47428
-4984.36039
-4554.87222
-662.880432
10322.701
10552.8738
8300.33087
-3777.2485
-2894.93394
10244.6402
8647.20803
-5119.89211
-5119.18603
-4822.67819
-1217.30454
10310.8991
10632.6398
8850.622
-3141.06705
-2407.62093
10579.7026
9514.31588
-2848.7407
-2851.1821
-881.739309
-2423.79333
-309.109519
10603.7874
9458.56455
-3372.79975
-2651.80404
10399.4972
9384.93287
-4046.57206
-3164.16236
10341.3045
9457.69557
-4071.58306
-3212.13225
10363.0156
9596.59481
-3967.25851
-3203.23639
10374.283
9980.55774
-4391.50973
-4571.0985
-3752.38133
-3551.15073
-3744.66321
-2127.5376
10443.8218
10161.4073
-3599.25517
-3403.27152
10488.8493
9974.93807
-3789.97585
-6246.94035
-2613.81082
9990.87495
10667.4012
9912.23295
-3374.45444
-4793.44385
10417.1198
10178.8798
-4343.18925
-4152.68802
10202.7598
10470.4881
-4847.79809
-3064.57989
9976.08205
-473.430483
-5114.63021
10350.4079
10250.4593
-4125.01177
-4595.45041
10055.1936
10091.5596
-3510.88212
-6037.55309
-4282.28638
10027.1302
10188.2294
-2803.58381
-5519.9546
-3534.92846
9974.16729
10631.8415
-3037.83915
-2493.53953
10077.8307
930.392684
-4264.47392
9851.09936
10335.3215
-3385.55004
-3997.17587
9665.73932
10389.6923
-3100.52366
-3603.92809
9785.0991
10547.8434
-623.533357
-2615.45952
-496.360287
-1640.58384
-1450.07251
10368.4648
10560.1862
-1496.99658
-3865.93458
-4090.1888
-3888.92228
9993.29344
10296.4772
-290.739043
-5055.25986
-3909.56843
9845.49128
10438.0599
-2673.12079
-3640.65421
9562.04444
10425.2636
-2648.1106
-3630.24767
9684.37726
10184.8429
-810.257953
-5901.93922
-984.492502
9668.46684
1491.14788
-4503.97407
9550.63646
10179.2184
-2450.47632
-4615.8159
-4838.78698
-4095.19486
9814.49798
10406.4613
-2865.84096
-3627.31078
9580.3119
10437.4657
-2455.07396
-3365.07171
9745.94351
10282.0416
115.487582
-5216.64462
-3321.94998
9941.1999
10487.2712
-1955.31337
-3260.51629
9418.09401
10458.4424
-2050.6425
-3329.40371
9428.31525
10283.4367
-658.218626
-4609.59481
-3987.07437
-4103.83079
-5004.30979
-3722.46071
7060.367
10163.7275
9752.73467
4878.68801
-6031.9291
-4936.63079
9168.46405
10270.7725
-126.510714
-3099.42017
6328.39118
10273.39
3065.17069
-5240.25901
-2395.61492
9470.10292
6401.89397
-3510.7637
3412.78153
10107.9513
1657.79407
-4753.34441
-4521.74999
-3528.54107
5565.58813
10057.7153
608.884887
-3656.52626
5616.83056
9916.86583
346.20794
-3746.42166
5109.07522
9967.04847
1915.19645
-2868.62914
-1682.30449
-338.573705
6651.04337
9821.99546
672.64124
-3052.60107
5387.23443
9450.70584
501.150545
-3365.8444
5138.89799
9318.08351
868.187054
-3058.81597
4699.01551
9810.86626
3987.25266
-4657.55291
-3572.2325
5370.79774
9624.48619
3436.99425
-4798.38968
-4552.12132
-3320.94247
3181.13317
9613.25539
3773.7246
-2975.95909
2347.25937
10167.1436
6440.63876
-4642.46885
-4511.74046
-3963.36958
682.352895
10067.5014
6541.7457
-3207.42839
-137.995792
10298.0975
7523.17798
-3697.89951
482.867294
9000.57684
-1447.36627
-3023.46133
10405.7818
8336.9602
-4300.72694
-2933.93705
10154.89
8886.89204
-4420.60383
-3267.83651
10151.1517
9263.88444
-4249.98785
-3182.40504
10435.9855
9865.12715
-536.054248
-6134.04482
-3668.205
10116.9322
9848.36897
-3492.80179
-2847.22196
2431.72128
-3832.71979
-3742.51828
9998.00263
10228.1436
-663.148922
-4250.01631
1902.07053
10319.4629
4477.18635
-4322.61389
1832.13262
10312.0912
5137.88667
-4640.01406
-1809.89036
10225.6295
8507.4187
-4374.92819
-6684.08114
-441.207473
10035.6888
6904.32753
-4448.09791
-2353.46839
10097.8032
9157.18838
-4240.36585
-3728.31671
9991.98714
9448.5536
-3287.9096
-6535.54558
-3974.80606
9316.10154
10520.5493
5989.08455
-3626.93461
-3397.32056
9763.057
8560.46813
-3815.11344
-374.044221
9914.73827
3690.78852
-3550.00765
4642.96293
10142.6289
25.6803857
-3512.74489
8289.88743
10338.0413
3346.83338
-3066.95272
-3615.15291
-4027.95175
-5311.24696
-1995.91107
8702.29519
10652.3249
8470.66435
-1118.22854
-5915.02338
-5902.7834
4350.62216
9812.52033
1546.60474
-3498.0681
4969.52489
10014.1928
1295.94672
-3553.36249
5210.2259
9993.64715
1929.73954
-3833.14956
2898.79453
9740.54275
3981.30135
-4188.56477
-114.665034
9359.89151
6049.26605
-3910.69642
-5787.78281
-1391.15217
9208.85835
6567.69361
-3468.71342
-594.767531
9486.30386
6341.70113
-3105.71206
148.4572
9623.8046
6287.0498
-2870.05031
-27.6218144
9698.56947
7311.25278
-2326.77369
-1318.2567
9585.42519
9966.12669
-133.088015
-4212.17873
-3630.22158
-3965.30948
-4264.8145
1603.0497
9620.07902
10370.0159
5425.85818
-3417.92779
-4405.36318
-4412.76239
1012.67169
9787.46527
5155.88269
-3148.40147
2292.99778
9895.11042
3179.19186
-4359.93127
4318.41296
9920.98665
-695.053971
-1181.25602
9741.61729
4021.10361
-3863.93052
3195.97065
10120.1405
1914.19731
-3936.80212
4783.38679
10225.4097
1002.26389
-3965.26142
5330.16157
10057.4957
670.361312
-5769.90189
-4971.65206
-5340.40026
-4588.01761
4887.68767
10064.6347
10343.1652
9589.51639
-1648.97365
-3845.18848
8142.35368
9834.44069
-2312.22063
-3406.25534
8724.43824
9825.34606
-2174.43075
-2950.94749
8896.63997
9777.18148
-979.005914
-4680.21256
-4031.92346
-4355.4086
-4415.58354
-4915.20644
-2273.82677
8937.70407
10168.0216
9700.25064
9749.5563
2732.57018
-2444.07964
-1751.23454
-1731.45362
-615.064597
8946.89104
9093.99366
-1781.78533
-2641.0375
7404.49512
8871.70029
-1400.97737
-3094.84935
6421.08241
8828.25113
-606.087208
-3354.09209
5267.90351
9072.95624
1082.46408
-2947.80194
4669.11491
9731.19138
3822.73643
-4181.24819
-2769.33331
4655.53212
3992.58418
-3026.91428
-2905.70328
-1786.1743
3158.44019
10162.0909
5951.81459
-3440.91789
-110.009372
10138.7182
6913.88573
-4041.05238
-1513.50446
10166.3144
7839.53048
-4533.27298
-2495.70209
10139.2123
8747.81766
-5130.77291
-467.459869
9543.7042
-3533.73132
-3688.14366
10441.1944
9393.27204
-4665.3897
-4251.26655
10054.1086
9518.43809
-6453.39607
-5947.07127
10083.6388
9810.30342
-4757.35807
-4551.08394
10243.5495
10172.2241
-4282.02484
-4291.81477
10204.9157
10256.5514
-4373.56002
-4456.77771
10089.9072
10244.9488
-4424.85812
-4499.4885
10028.5182
10283.9474
-4029.49062
-4091.45981
10221.7731
10305.1831
-2091.62985
-4239.28064
-3015.15652
-4275.13841
-3141.14013
10355.9321
10584.376
-2324.69245
-2973.74508
10276.5823
10495.1799
-3422.47244
-3629.93621
10142.5461
10415.0739
-3450.4344
-3454.52662
10355.4168
10424.2429
-648.777246
-3646.42356
-2914.05041
-4158.05234
-3321.55412
-5081.11387
-3239.86631
9993.34754
10452.434
9865.51144
-4458.3535
-5058.49818
10413.0006
10010.1067
-974.959679
-4165.7096
-1325.70134
10316.809
9530.67607
-3810.30127
2081.75387
10068.4432
-1933.85578
-3056.2656
10478.9628
9549.68751
-3588.65521
-2763.22748
10525.0321
9968.62545
-2268.78847
-3406.30393
2751.20919
10477.7999
9429.49048
-4490.88545
-5607.5427
-4366.99766
-5723.04841
-3171.29092
10165.3472
8790.89691
-3620.40891
-2288.67614
10353.6818
8768.90678
-3578.73888
-2115.05471
10301.3399
8597.4599
-3849.59997
-2240.48222
10236.4011
8477.56544
-3942.02147
-1818.97493
10346.2888
9350.80214
-3990.45187
-4460.64362
-3410.26113
-3879.20278
1447.264
10437.1472
8713.30704
-2846.73293
-1867.63792
10272.6971
8244.32137
-4398.82156
-2738.7227
10079.4069
8233.64357
-4729.22176
-3056.55017
10065.0179
8345.16544
-4820.19149
-3294.42479
10076.517
8509.67143
-4900.13237
-3533.7991
10089.9569
8713.59954
-4953.43619
-3767.78103
10105.3707
8952.70685
-4992.5716
-4002.79315
10125.7028
9223.77179
-4988.68732
-4240.29069
10156.0165
9531.00434
-4919.06715
-4423.52314
10200.6865
9878.74493
-4716.50238
-4487.99318
10275.0348
10237.5207
-4270.1959
-4216.4756
10257.0679
10427.9342
-3208.38596
-3368.81545
10199.5749
10533.0358
-983.723583
-3348.04078
-3075.56407
-3141.98012
-3959.01009
-3745.90459
9977.90007
10508.4169
-1936.37535
-3138.43893
9256.84992
10437.1555
-2319.4508
-3678.55304
8814.35374
10222.4661
-2790.46922
-4980.66908
8277.62099
10011.1598
-3117.17509
-573.781134
9342.95377
1276.76202
-6388.44597
-5804.66042
8906.16856
9990.7021
-434.276757
-6077.30416
-6068.27803
8806.19132
10103.1317
-1631.46885
-4153.88276
7858.93969
10118.4649
-1826.5197
-4125.73072
7542.31172
10116.9192
-1597.51774
-3986.02671
7288.56311
10213.6651
-2034.3463
-3157.01475
7696.75789
1878.14123
-4874.34027
7482.13527
10067.9378
-2024.60452
-4452.31267
7343.3855
10060.2925
-1960.9799
-4426.98741
7457.33155
10077.9096
-2038.75398
-4415.39389
7601.86784
10102.0467
-2130.74326
-4355.87113
7784.92167
10135.7857
-2145.80364
-4339.71161
8007.75542
9996.17672
-912.105837
-5962.97275
-5516.29267
9038.69831
10168.5656
-1040.17937
-4486.73568
-4864.00819
-4890.50003
8902.61059
10270.4915
-1988.7562
-4001.19955
8551.56021
10264.8317
-2644.0047
-4132.78816
8530.94655
10360.0138
-2874.49534
-3232.44786
8368.46465
2221.23157
-4423.20214
8462.00376
10310.881
-2015.71204
-3480.96084
8447.26255
10361.7327
-1406.28235
-3499.30028
8682.65341
10261.3415
254.9469
-4326.73364
-3578.26666
-4971.17655
-4576.7347
9312.31427
10443.107
1996.14508
-3113.86968
4173.28633
10037.2429
3246.72564
-5761.21584
-4961.58221
8971.41465
10266.4233
1746.82713
-3712.00412
2024.77453
10160.9002
4738.42275
-3306.60358
2616.18226
10299.7902
4587.42472
-3025.42343
-2952.43817
-3397.57235
-2970.0269
7196.15506
10418.2131
1696.59794
-3815.2566
3341.03709
10248.8842
2246.98822
-4079.98477
4221.02565
10155.7862
1040.06432
-4036.21349
4327.55511
4181.38659
-2994.74801
4201.4193
9857.77669
447.40395
-5629.48111
-3395.00392
7417.72881
9678.89706
-591.282578
-2737.07735
3712.60926
2115.17957
-2443.89255
6418.42577
9324.45475
-1797.37907
-3223.72616
7769.19952
9008.94392
-2390.11066
-3310.42302
7845.69891
8818.93594
-2438.61358
-3318.56321
7603.69844
8682.55308
-2244.45747
-3320.66006
7180.97397
8617.88486
-1817.37671
-3339.17822
6588.81801
8644.59624
-1131.4918
-3381.71158
5801.61396
8786.81014
-123.613871
-3417.13591
4819.89604
9080.58184
1367.41002
-3284.77176
3911.73303
9379.68587
2513.65632
-4991.90602
-4677.73157
-3465.53556
2636.04672
9895.27746
5690.40972
-5193.76061
-4941.10968
1127.53375
10066.7382
7075.06427
-3349.83726
-753.370605
10300.2139
7968.82685
-3860.3225
257.452107
9328.26715
-2482.2693
-2635.59551
10572.0696
8888.56871
-3577.47108
-2677.33887
10453.4933
9435.33313
-3438.8793
-2420.54463
10578.8034
10105.7886
-3165.41652
-3786.31065
-3633.97021
-2765.84822
10623.6
10340.1131
-478.963281
-3424.31185
-3099.7544
-3430.53085
-3891.93509
-3125.94339
10494.4794
10243.5007
-2881.08416
-2835.52048
10503.6751
10236.9938
-3414.80168
-3291.03659
10362.0999
10155.9735
-3866.42234
-3717.23705
10273.8364
10101.8103
-4178.48058
-4046.12558
10222.1592
10074.9784
-4386.84566
-4275.86294
10189.0254
10068.7972
-4540.48269
-4423.54231
10181.3939
10109.7953
-4496.08999
-4388.51297
10285.0952
10161.2402
-4000.45883
-5056.29356
-5327.3815
-5082.15607
10182.7318
10183.6903
-4511.5682
-4522.57846
10249.3458
10277.9297
-4488.3292
-4537.56248
10185.9444
10269.3046
-4574.5148
-4670.86372
10115.1816
10247.0544
-4528.6464
-4681.94183
10034.6833
10229.3187
-4464.27096
-4669.48992
9962.87432
10219.6529
-4347.97301
-4596.61599
9908.3551
10227.0377
-4212.70179
-4502.28486
9861.43321
10229.0163
-4174.11684
-4530.92249
9780.33813
10189.7768
-4388.38788
-4768.82864
9715.39719
10326.1581
-4111.98295
-3349.51878
9882.27492
2968.68089
-5617.83497
-4964.50075
10147.5919
10292.5981
-1350.93836
-3989.07534
-3979.64753
-4212.48407
10044.9369
10310.1915
-460.296151
-4621.91131
-4427.36845
10171.438
10335.4656
-2683.0716
-3986.33855
9974.15485
10327.1856
-3669.68105
-4497.01556
9812.38407
10430.6249
-3892.75328
-3053.38295
10028.0754
-482.440731
-4691.68101
10107.2835
10260.9924
-3799.07376
-4364.01084
9962.4011
10293.5626
-3859.314
-4009.44718
10010.7223
10274.3597
-3478.19382
-3461.90307
10155.8944
10323.3726
-361.320468
-3512.68128
-3012.01703
-4411.99847
-3576.00625
10102.5138
10068.5099
-2756.51125
-3186.49864
10098.1317
9770.5378
-2019.45339
-6229.13416
-4638.21114
9844.4261
9326.48006
-3349.90261
-3005.13173
9986.90381
9351.59079
-3209.99865
-2288.22742
10117.5479
10016.5919
-1157.56
-3287.12106
-2796.4037
-3750.43509
-2093.6379
10354.7988
9695.11561
-2302.35607
-2035.07771
10179.9914
9359.64053
-3578.47638
-2764.00158
10139.8492
9671.82132
-3273.63991
-5586.27958
-3481.08827
10116.0016
9458.08325
-3431.92455
-2993.53409
10226.1523
9640.99868
-3612.54446
-3004.12775
10289.2449
9885.24692
-3367.31194
-2866.35188
10486.1513
10286.0395
-2428.46873
-3466.49383
-2336.75608
-3116.36565
-875.970359
10611.4786
10609.4279
-3202.57398
-3399.99635
10458.3717
10241.6263
-3840.84955
-5607.05969
-3372.56874
10034.3488
10157.8727
-4016.40786
-5788.63958
-3143.71752
9953.50005
10222.9787
-3704.6358
-3833.36332
9837.02206
10033.9934
-4256.38374
-5958.38106
-2551.85386
9887.90615
10204.3279
-3019.29124
-3364.97936
9855.21539
10165.0981
-2699.64444
-2744.51464
9890.60103
10148.0003
-3329.13991
-4320.8232
-2833.97813
-2913.96801
1087.94216
10394.9748
10063.9234
-2604.33337
-3087.52576
9811.04174
9863.91962
-3587.07608
-3597.50345
9774.56315
9708.3865
-4119.2984
-3916.64089
9835.44782
9596.94544
-4453.47109
-4083.64492
9973.04503
9540.82365
-4689.70389
-4130.02438
10083.5251
9487.93774
-5007.89357
-3851.61114
9947.38252
9479.54636
-6613.62219
-6857.3685
-960.4716
9994.09621
9626.74615
-4569.39614
-3364.92998
10255.0591
9394.55704
-4316.72348
-3399.75425
10246.1466
9327.7917
-4630.92541
-3613.54431
10065.3333
9147.41586
-5885.41908
-5874.31092
-3887.82216
-354.623027
10347.4865
9646.86357
-4004.15247
-3089.43852
10307.2337
9489.78527
-4161.02
-3248.78759
10275.4516
9515.03017
-4270.61097
-3357.21269
10255.259
9522.24498
-4320.23375
-3519.58214
10213.3736
9521.38553
-4670.55333
-3634.01879
9976.181
9538.70205
-6297.47604
-6853.13599
-759.318261
9833.40866
9846.71542
-5911.74376
-6448.85774
-983.328454
10049.9747
10029.7841
-4117.36651
-3859.41182
10095.7701
9865.86574
-4296.95277
-4015.92892
10000.3903
9962.38156
-4197.94595
-4130.4026
9859.22017
9933.8592
-4038.81514
-4176.61602
9648.77231
9929.75399
-3821.58277
-4168.39251
9397.25538
9919.51254
-3513.86907
-4144.34143
9052.99914
9916.14343
-3065.21429
-4142.38512
8436.51172
9894.97922
-2345.27364
-4231.90504
7284.8685
9801.38812
-1969.78365
-4842.15662
8039.64379
9127.26639
-5624.78166
-5708.82488
-3907.92826
-1644.6926
8662.84289
10061.8224
756.99547
-3734.30934
4531.89433
9379.65895
-348.167894
-6361.7511
-3126.76997
8731.6628
9704.2426
1731.33348
-3899.80503
3304.09076
9682.80898
2973.36265
-3808.91256
2805.4745
9543.1302
2458.7828
-3509.66182
5493.88692
6475.9649
-2506.60766
318.024463
9539.92925
4626.81185
-3823.4798
1000.35593
9787.4559
4948.50805
-3960.99949
285.349195
9920.92003
5767.84815
-4095.04341
-559.606528
10051.9952
6800.38885
-4241.31883
-1646.35396
10218.468
8767.81604
-5623.13702
-5873.46018
-1687.72919
10198.189
9361.34385
-4238.94582
-5743.7636
-2495.58831
10296.6238
9905.34369
-3142.46513
-3812.91601
-3484.5798
-128.258112
10510.2293
10114.0187
-3625.91594
-3561.24487
10318.9077
10065.7559
-4464.12386
-4345.29724
10129.8771
9982.84919
-5280.74308
-7066.83342
-5598.28257
10029.2345
10191.4507
-4081.76974
-4141.20536
10232.8804
10408.6911
-3366.74377
-3733.3338
10216.6656
10467.5046
-3283.484
-3532.3628
10153.9707
10494.0741
-3267.9528
-3541.64635
10080.811
10344.1493
-3293.78418
-4687.73095
-3388.33471
-4135.42844
-1530.32656
10269.2777
10623.3178
-2691.59501
-3584.88389
9922.70285
10410.1642
-3393.7312
-4053.31705
9759.00717