/*--------------------------------*- C++ -*----------------------------------*\
| =========                 |                                                 |
| \\      /  F ield         | OpenFOAM: The Open Source CFD Toolbox           |
|  \\    /   O peration     | Version:  2306                                  |
|   \\  /    A nd           | Website:  www.openfoam.com                      |
|    \\/     M anipulation  |                                                 |
\*---------------------------------------------------------------------------*/
FoamFile
{
    version     2.0;
    format      ascii;
    arch        "LSB;label=32;scalar=64";
    class       volScalarField;
    location    "6e-05";
    object      H2;
}
// * * * * * * * * * * * * * * * * * * * * * * * * * * * * * * * * * * * * * //

dimensions      [0 0 0 0 0 0 0];

internalField   nonuniform List<scalar> 
3810
(
0.0106533944
0.0106576728
0.0107243221
0.0110095689
0.0110254414
0.0106755829
0.0106872598
0.0110044131
0.0110248994
0.0106661059
0.0106765671
0.0110070585
0.011020723
0.0106621702
0.0106690291
0.0110086558
0.0110150803
0.0106577694
0.0106586926
0.0110083645
0.0110083714
0.0106638743
0.0106617845
0.0106666942
0.0106976583
0.01100751
0.0109957671
0.0106851969
0.0106767882
0.0110142398
0.0110014891
0.0106804552
0.0106689966
0.0110214781
0.0110034807
0.0106778896
0.0106640748
0.0110208074
0.0110005217
0.0107032966
0.0106831611
0.0107681942
0.0107188067
0.0106814342
0.0106784171
0.0106896195
0.0110153169
0.0109948734
0.0107002984
0.0106814224
0.0110425967
0.0110014041
0.0110181082
0.0106835648
0.0106580214
0.0110429189
0.0110141349
0.0106872522
0.01066321
0.010662906
0.0106918599
0.0110196785
0.0110101283
0.0107104663
0.0106505281
0.010679412
0.0110362706
0.0109998408
0.0110106516
0.0106871037
0.010667219
0.0110366545
0.0110073301
0.0106825088
0.0106671744
0.0110334245
0.0110017112
0.0106831394
0.0106824522
0.0110340042
0.0107206314
0.0106700139
0.0110138315
0.0110087488
0.0106662431
0.0106625218
0.0106703154
0.0107154777
0.0110027532
0.0109988903
0.0106830102
0.0107579746
0.0110067553
0.0107195062
0.0106727906
0.0110118776
0.0110205715
0.0106752137
0.0107143068
0.011017235
0.0107712056
0.0106724928
0.0110260898
0.0110206242
0.0106978671
0.0106784654
0.0110378437
0.0110315371
0.0106768861
0.0106755184
0.0110288552
0.0110412328
0.0106574889
0.0106449631
0.0107286226
0.0110183366
0.0110397379
0.0106808732
0.0106837942
0.0110284826
0.0110560455
0.0106751338
0.0106849165
0.0110322252
0.0110569108
0.0106533031
0.0106499632
0.0107516667
0.0110199685
0.0110645356
0.0106864023
0.0106968117
0.0110280561
0.0110704475
0.0106850092
0.0106975625
0.0110334575
0.0110736825
0.0106848125
0.0106964539
0.0110357385
0.0110733555
0.010685947
0.0106944617
0.0110388576
0.0110672737
0.0106874924
0.0106925364
0.0110424235
0.0110636605
0.0106988451
0.0107112608
0.0108524996
0.0107224943
0.0106656615
0.0107163588
0.0110161796
0.0110104117
0.0109485118
0.0106780919
0.0106881221
0.0110703719
0.0110626694
0.0106634606
0.0106541787
0.0106762894
0.0106804602
0.0106871205
0.010799493
0.0110190372
0.0110223363
0.0110184275
0.0110735809
0.0106935476
0.0106817458
0.0108961379
0.0110386016
0.0107965072
0.0106779015
0.0108259703
0.0110358189
0.010811441
0.0106736635
0.0108010121
0.0110333725
0.010833051
0.0106676689
0.0107877582
0.0110398419
0.010778544
0.0106518633
0.0106630264
0.0106909194
0.0107891941
0.0109998283
0.0110782451
0.01076414
0.0110460879
0.0110808691
0.0106527838
0.0106975834
0.0110182476
0.0110693853
0.0106651408
0.0106927222
0.0110111467
0.0110587315
0.010666204
0.0106900594
0.0110102748
0.0110458955
0.0106652615
0.0107075823
0.0110255128
0.0110093634
0.0110449982
0.0106437132
0.010643881
0.0107941331
0.011014801
0.0110269619
0.0106680457
0.0106685575
0.0106868841
0.0106795714
0.0106873317
0.0106787203
0.0107968702
0.0110040793
0.0110172703
0.0110058913
0.0110368032
0.0106618044
0.0106726619
0.0110034279
0.0110206234
0.0106696468
0.0106790673
0.0107087095
0.0106768653
0.0106978713
0.0110576238
0.0110000607
0.0110480698
0.0106543352
0.0106520389
0.0107479473
0.0110150776
0.0110106409
0.0106618028
0.0106597945
0.0106916846
0.0110043204
0.011015841
0.0106822725
0.0110147279
0.0110130589
0.0106468673
0.010648922
0.0106919501
0.0110185158
0.0110098447
0.010637089
0.01065824
0.0110249911
0.0110094072
0.0110290854
0.0106599773
0.0106454798
0.0107700143
0.0110112125
0.0110008276
0.0106756763
0.01067531
0.0109992102
0.0110032868
0.0106863378
0.0106848468
0.0107581579
0.0106819891
0.0107075877
0.011030937
0.0109965146
0.0110530124
0.0106671472
0.0106620412
0.0110030012
0.011018066
0.0106645869
0.0106631509
0.0110008772
0.0110210904
0.0106654823
0.0106428688
0.0106796979
0.0110099536
0.0110077307
0.0106700447
0.0106696334
0.0110081121
0.0110140608
0.0106644311
0.0106754356
0.011018106
0.0107878102
0.0106373578
0.0106737284
0.0110129066
0.0110069374
0.011004304
0.0110165319
0.0107027937
0.0106640161
0.0106801681
0.0106568286
0.0106841311
0.0110171186
0.0110002306
0.0110301744
0.0106745606
0.0106903319
0.011013103
0.0106944101
0.0106703196
0.0110021881
0.0110239722
0.0106626393
0.0106696119
0.01100497
0.0110233111
0.0106651493
0.0106429106
0.0106804767
0.0110086979
0.0110166253
0.0106738987
0.0106577049
0.0106895216
0.0110066687
0.0110184655
0.0106767242
0.0106806438
0.0110039319
0.0110239874
0.0106716181
0.0106771397
0.0110053198
0.0110257342
0.0106684553
0.0106784436
0.0110055642
0.0110226524
0.0106666863
0.0107008145
0.0110183374
0.0106966644
0.0107027822
0.0110129414
0.0106996922
0.0106681534
0.0110036172
0.0110282095
0.0106470087
0.0106503642
0.0106685443
0.0106670306
0.0108369496
0.0110106458
0.0110049139
0.0110362559
0.0106695661
0.0106756889
0.0110094836
0.0110393068
0.0106613024
0.0106713967
0.0110132853
0.0110436155
0.0106513092
0.0106524784
0.0106738036
0.0107428534
0.0110112412
0.0110043406
0.0110311271
0.0106481584
0.0106466906
0.0107877695
0.0110025938
0.0110100005
0.0107226965
0.0106752386
0.0107468533
0.0110048368
0.0110255529
0.0106686003
0.010692924
0.0110101834
0.011025962
0.010658683
0.0108036319
0.0110285921
0.0106835294
0.0106884954
0.0110057126
0.0109345717
0.010670545
0.0107497034
0.0110129886
0.0110359106
0.0106503569
0.0106496098
0.0106800476
0.0106907086
0.0110413273
0.0109982817
0.0110398025
0.0107773568
0.0106594401
0.0107117498
0.0110172763
0.0110329573
0.0106441319
0.0106466735
0.01068544
0.0108962621
0.0110183685
0.0110100201
0.0110534895
0.0106719823
0.0106855122
0.0110107321
0.0110534817
0.0106656949
0.0106888063
0.0110116689
0.0110510188
0.0106689206
0.0107568765
0.0110313731
0.0106922865
0.0106936783
0.011005111
0.0110548
0.0106741954
0.010700871
0.0110033779
0.0110502346
0.0106840816
0.0107147984
0.0108384566
0.0106879233
0.0106725187
0.0106803203
0.0106853126
0.0106991261
0.0109220006
0.0110050196
0.0110635093
0.0106536689
0.0106624192
0.0108403719
0.0110323105
0.0110058593
0.0110761155
0.0106697475
0.0106899032
0.0110134749
0.0110594443
0.0106724777
0.0107256805
0.011036496
0.0107029186
0.0106939865
0.0110138415
0.0110451235
0.0106749125
0.0107368444
0.0110530839
0.0107067659
0.0106929144
0.0110130161
0.0110450795
0.0106745261
0.0106958135
0.0110170117
0.0110561525
0.0106679458
0.0106952929
0.0110193463
0.0110818859
0.0106629609
0.0106940599
0.0110227213
0.0110734562
0.0106505723
0.0106538539
0.0106873651
0.0108167788
0.0110109139
0.0110040674
0.0110579602
0.0106641573
0.010657999
0.0108052911
0.0110077418
0.0110305363
0.0107011805
0.010683878
0.0110508678
0.0110351082
0.0106963513
0.0106834805
0.0110409486
0.0110687118
0.0106571517
0.010657899
0.0106762469
0.0106769131
0.0108085985
0.0110177468
0.0110272315
0.0110222998
0.0109826342
0.0106735087
0.010712195
0.0110192011
0.0110572142
0.0106463729
0.0106519545
0.0106775043
0.0106746239
0.0107782576
0.0110190425
0.0110331009
0.0110189497
0.0110778906
0.0106707225
0.010701278
0.0110083956
0.0110686245
0.010679179
0.0107137911
0.0110114923
0.0110705583
0.0106540962
0.0106608944
0.0106811503
0.0106750177
0.0107514284
0.0110200606
0.0110300385
0.0110219224
0.0110783678
0.0106575565
0.0106847947
0.0110216118
0.011065948
0.0106297047
0.0106340667
0.010784024
0.0110282655
0.0110099222
0.0110669304
0.0106370979
0.0106389335
0.0106789561
0.0107671833
0.0110098649
0.0110001671
0.0110487677
0.0106786255
0.0106830603
0.0110069017
0.0110463934
0.0106671588
0.0106815064
0.0110129214
0.0110503383
0.0106458859
0.0106480231
0.0106690617
0.0107546803
0.0110123187
0.0109990918
0.01104346
0.0106723568
0.0106762672
0.0110038915
0.0110375141
0.0106691951
0.0106824045
0.0110038695
0.0110353748
0.0106663924
0.0106818891
0.0110045907
0.0110343434
0.0106630199
0.0106813675
0.0110062767
0.0110304496
0.0106594597
0.0107978593
0.0110254451
0.0106622639
0.010662003
0.0106799128
0.0106776194
0.0108285323
0.011005777
0.0110194756
0.0106611408
0.0106623999
0.0107555516
0.0110107097
0.0109990272
0.0110380316
0.0106676131
0.0106725021
0.0110061653
0.0110338952
0.0106601313
0.0106628819
0.0106747073
0.0107134242
0.011001637
0.0110221427
0.010674545
0.0106964714
0.0110023072
0.011023452
0.0106601235
0.0106656298
0.0107115097
0.011006504
0.0110216874
0.0106712834
0.0106858469
0.0110039651
0.0110269795
0.010668135
0.0106796876
0.0110043077
0.0110305041
0.0106637141
0.0106765605
0.0110047781
0.0110313979
0.0106631206
0.010665829
0.0106720109
0.0106950792
0.0110016234
0.0110222597
0.0106793421
0.0106923673
0.0110007493
0.0110254683
0.0106764691
0.0106884987
0.0110032742
0.0110291809
0.0106688421
0.0106830354
0.0110080237
0.0110308611
0.0106549298
0.0106573714
0.0106581187
0.0106652436
0.0106586065
0.010685118
0.0110098731
0.01101242
0.0110086925
0.0110322556
0.0106675404
0.0106763463
0.0110055791
0.0110276931
0.0106692404
0.01067789
0.0110044398
0.0110254782
0.0106683532
0.0106770936
0.0110039173
0.0110234996
0.0106680304
0.0106759834
0.0110033868
0.0110211229
0.0106690664
0.0106764727
0.0110033493
0.0110184453
0.0106686688
0.0106788035
0.0110048263
0.0110133311
0.0106656848
0.0106897568
0.0110153396
0.0107051297
0.0106523181
0.0106763249
0.0106493727
0.0106773348
0.0110129537
0.0109993024
0.0110142282
0.0106785468
0.0106715343
0.0109990376
0.0110118962
0.0106734648
0.0106774353
0.0110002673
0.0110131015
0.0106657569
0.0106721079
0.0110015101
0.0110103567
0.0106615301
0.0106625923
0.0110007436
0.0110134233
0.010666966
0.0106543511
0.0106637679
0.0110048882
0.011005533
0.0106811816
0.0106688274
0.0106769884
0.0106728642
0.0109978743
0.0110027402
0.010681475
0.0106776246
0.0109965299
0.0110031587
0.0106748812
0.0106704728
0.0109969824
0.011005079
0.0106772513
0.01066813
0.010671691
0.0106680242
0.0109996573
0.0110034281
0.010683283
0.0106763609
0.0110004371
0.0110035301
0.0106735136
0.0106716526
0.0110056833
0.0110088883
0.0106675485
0.0106576076
0.0110104166
0.0110179889
0.0106637421
0.0106229289
0.0106477626
0.0110259274
0.0110114802
0.0110203091
0.0106760364
0.0106541141
0.0110111279
0.0110116397
0.0106767845
0.0106719688
0.0110114174
0.0110091859
0.0106732957
0.0106693118
0.0110152146
0.0110110068
0.0106630529
0.0106622556
0.0110255412
0.0110172328
0.0106304641
0.0106317674
0.0110404105
0.0110195774
0.0110381415
0.0106595059
0.0106433294
0.0110183292
0.0110196349
0.0106717072
0.0106630366
0.011013129
0.0110156269
0.0106735954
0.0106514803
0.0106501717
0.0110130643
0.0110079992
0.0106853243
0.0106705656
0.0110122381
0.011003298
0.0106764576
0.0106750906
0.0110227959
0.011002662
0.0109140989
0.0106710613
0.0106637129
0.0106494977
0.0106514113
0.0110228599
0.0110026951
0.0110165213
0.0107315146
0.0106524176
0.0106557284
0.0110109296
0.0110093948
0.0107684021
0.0106642714
0.0106608587
0.0110144982
0.011003854
0.0106925652
0.0106713767
0.0110180974
0.011002395
0.010682074
0.0106682697
0.011023236
0.0110035129
0.0106801534
0.0106671332
0.0110259445
0.0110049758
0.0106807873
0.0106672902
0.011027075
0.0110077686
0.0106803807
0.010663433
0.0110252433
0.0110124251
0.0106933524
0.0106623244
0.0106425588
0.0106432734
0.0110412612
0.0110082332
0.0110232814
0.0107022589
0.0106558273
0.0110193886
0.0110190678
0.0107257796
0.0106506424
0.0106501966
0.0110228215
0.0110078553
0.0106971601
0.0106705411
0.0110268762
0.0110046065
0.0106847524
0.0106664173
0.0110311586
0.0110062732
0.0106807376
0.010663786
0.0110320798
0.0110088812
0.010679751
0.0106596896
0.0110279828
0.0110109771
0.0107053888
0.010665497
0.0106589391
0.0106563974
0.0110341909
0.0110091834
0.0107016095
0.0106770967
0.0110289859
0.0110046875
0.010688508
0.0106677697
0.0110343705
0.0110077521
0.0106823728
0.0106601552
0.0110315019
0.0110103047
0.0107153383
0.0106656859
0.0106570761
0.0106540735
0.0110364344
0.011008685
0.0107078991
0.0106792166
0.0110297309
0.01100242
0.0106957197
0.0106723638
0.0110379337
0.0110042634
0.0106997488
0.0106697891
0.0110598782
0.0110070689
0.0107127321
0.010669054
0.0109942168
0.0110114336
0.010726333
0.0106653503
0.0109558251
0.0110156224
0.0107853384
0.0106669833
0.0106711377
0.0106602367
0.0106560276
0.0110338742
0.0110067643
0.0107376911
0.0106793248
0.0110479841
0.0110035966
0.0107152502
0.0106707777
0.0110192875
0.0110081386
0.0107209871
0.0106681863
0.0110176399
0.011009527
0.0107195247
0.0106666363
0.0110040462
0.0110100772
0.0107215996
0.0106653522
0.0109841222
0.0110098465
0.0107201887
0.0106655253
0.0109701579
0.0110062319
0.0106958413
0.0106880168
0.0110357185
0.0107742845
0.010656639
0.0110739921
0.0110147651
0.0106984588
0.0106678632
0.0110439698
0.0110179053
0.0107220482
0.0106468396
0.010654882
0.0110296512
0.0110084682
0.0107048261
0.0106716325
0.011042677
0.0110058823
0.01069533
0.0106676225
0.0110379094
0.011009333
0.0107055812
0.0106661501
0.0106692275
0.0106696929
0.0110226959
0.0110100219
0.0107133206
0.0106661836
0.0106555926
0.0106583392
0.0110390031
0.0110047576
0.0110139193
0.0107157562
0.0106681291
0.0106993844
0.0110257279
0.010996609
0.0107041361
0.010670948
0.0110489303
0.0110047822
0.0106929181
0.0106666496
0.0110564075
0.0110085075
0.010689778
0.0106653765
0.0110623003
0.0110108947
0.0106886248
0.0106636338
0.0110698726
0.0110063066
0.0106718355
0.0107286256
0.0110368101
0.010716177
0.0106734841
0.011060581
0.0110159194
0.0106894119
0.0106755491
0.0110592162
0.0110173638
0.0106851405
0.0106807243
0.0110501918
0.0110212682
0.0106831397
0.0106883386
0.0110368901
0.0110280993
0.0106777241
0.010715519
0.011023728
0.0108343423
0.0106540086
0.0106617386
0.0106734087
0.0106742913
0.0106897429
0.0110361076
0.0110029352
0.011029023
0.0108606227
0.0106792616
0.0107998873
0.0110132045
0.0108056295
0.0106742516
0.0109204686
0.0110275896
0.0106991937
0.0106602272
0.0106724989
0.0106956578
0.0110748576
0.0110161234
0.0107407965
0.0106822263
0.0109748012
0.011024662
0.0107199247
0.0106833845
0.0110603654
0.0110302586
0.0107010683
0.0106842507
0.0110473399
0.0110460253
0.0106753452
0.0106531985
0.010709754
0.011023998
0.0110367906
0.0106889577
0.0106815868
0.011047698
0.0110490571
0.0106794244
0.0106612891
0.010767086
0.0110164647
0.0110520252
0.0106624234
0.0106585193
0.0107636279
0.0110145466
0.0110529887
0.0106890643
0.0106883851
0.0110398871
0.0110418613
0.0106936641
0.0106843551
0.011049444
0.0110408776
0.0106908644
0.0106817908
0.0110432971
0.0110421396
0.0106865263
0.0106773602
0.0110689385
0.0110398961
0.010683854
0.0106810957
0.0110203432
0.0110843119
0.0106719255
0.0107276891
0.0110224466
0.0108718309
0.0106542142
0.0106589373
0.0106957825
0.0108020156
0.011010267
0.011067426
0.0106598098
0.010794647
0.0110667354
0.0106879927
0.0107035291
0.0110108801
0.0110281088
0.0106666938
0.0107027228
0.0110170169
0.0110727046
0.0106589602
0.0108131562
0.0110681376
0.0106929519
0.0107095869
0.0110041243
0.0110711591
0.0106731473
0.0107066513
0.0110064749
0.0110735036
0.0106700795
0.0107068634
0.0110064932
0.0110742651
0.0106720259
0.0107103706
0.0110064147
0.0110739902
0.0106764393
0.0107193917
0.0110128156
0.0110792754
0.0106502446
0.0106545622
0.0106731747
0.0106754169
0.010676487
0.0107626216
0.0110084417
0.0110011562
0.0110839424
0.0106769942
0.0107046364
0.0110084618
0.011078781
0.010660261
0.0106699774
0.0106926151
0.0108341961
0.0110023797
0.0110786702
0.0106749503
0.0107128933
0.0110068594
0.0110775593
0.0106755971
0.0107125883
0.0110115362
0.0110805192
0.0106619957
0.0107478511
0.0110757359
0.0106837773
0.010699684
0.0110068673
0.0110826177
0.010667398
0.010700033
0.0110112886
0.0110792204
0.0106535861
0.0106590286
0.0106653141
0.0107269576
0.0110061083
0.0110023481
0.0110820892
0.0106713503
0.010696696
0.0110078504
0.0110787219
0.0106675038
0.0107001091
0.0110083957
0.0110748898
0.0106667711
0.0106995536
0.0110097605
0.0110666406
0.0106600894
0.0106644848
0.0106657096
0.0107240033
0.0110069204
0.0110001678
0.0110647854
0.0106740361
0.0106908521
0.0110070947
0.0110555633
0.0106570058
0.010660411
0.010660304
0.0107113269
0.0110038285
0.0109950868
0.0110446889
0.0106777546
0.0106925456
0.0109941545
0.0110295001
0.0106802068
0.0106874375
0.0107172942
0.010689948
0.0107306308
0.0109961267
0.0110272893
0.010675606
0.0106876961
0.0109992666
0.0110306341
0.0106668564
0.0106824803
0.0110012679
0.0110296453
0.0106675212
0.0106827705
0.0110018961
0.011026603
0.010670037
0.0106825776
0.0110033517
0.0110159016
0.0106668197
0.0106661223
0.0106750242
0.0106780985
0.0106752087
0.0106957166
0.011001535
0.0110132904
0.0106744521
0.0106819728
0.0109986001
0.011017707
0.0106703399
0.010646115
0.0106845797
0.0110132162
0.0109956802
0.0110154692
0.0106770951
0.010662527
0.0110008992
0.011010431
0.0106657166
0.0106695828
0.0110071619
0.0110016827
0.0106604898
0.0106818087
0.0110110507
0.0107273266
0.0106578852
0.0110012648
0.0110086223
0.0106674425
0.0106658928
0.0110089173
0.0110124151
0.0106756248
0.0106469704
0.0106676989
0.0110110692
0.0110094477
0.010682875
0.0106546273
0.0106737595
0.0110144308
0.0109948592
0.0106832561
0.0106878813
0.0110087938
0.0107612417
0.010665898
0.0110149748
0.0110025886
0.0106779059
0.0106687402
0.0110201612
0.0110002608
0.010681308
0.0106729967
0.0110167747
0.0109967808
0.0107236385
0.0106860414
0.0107263656
0.010703041
0.0107057389
0.011002133
0.010995883
0.0107046977
0.0106716522
0.0106674529
0.0106732493
0.0110114057
0.0110064808
0.0107308371
0.0106596303
0.010668989
0.0110186975
0.010998799
0.0106876545
0.0106729305
0.0110259688
0.0110011134
0.0106864435
0.0106765062
0.0110214025
0.0110101068
0.0107192132
0.0106500854
0.0107154728
0.0110238506
0.0107771398
0.0106664632
0.0110242301
0.0110092913
0.0106885221
0.0106648795
0.0106614965
0.0106706618
0.0110185186
0.0110011721
0.0106850494
0.0106736095
0.0110252229
0.0110004701
0.0106890851
0.0106795491
0.0110186189
0.0110073469
0.0107407014
0.0106577977
0.0106769087
0.0110153121
0.010997146
0.0106988111
0.0106772112
0.0110262329
0.0109989138
0.0106981941
0.0106782972
0.0110240872
0.0110046473
0.0107240725
0.0106637061
0.0106737701
0.0106700837
0.0106651908
0.0106748039
0.0110149688
0.0110102348
0.0110301478
0.0109103554
0.0106534403
0.0106590087
0.0110346039
0.0110052149
0.010737089
0.0106839214
0.0109783707
0.0110104965
0.0108259535
0.0106611024
0.0106924116
0.011026565
0.0109851752
0.0106813641
0.010838916
0.0110130489
0.0107821928
0.010663342
0.0106652465
0.0106777665
0.0109389883
0.011010113
0.0107529204
0.010676511
0.0109429556
0.0110143173
0.0107463854
0.0106754104
0.0109166582
0.0110129667
0.0107910492
0.0106850864
0.0107048083
0.0107304171
0.0109890492
0.0110174763
0.0107548606
0.0106832703
0.0109289333
0.011028937
0.010750702
0.0106794418
0.0109157852
0.0110334439
0.0107609212
0.0106820425
0.0108845501
0.0110213841
0.010876065
0.0106662504
0.0106788762
0.0109098684
0.0110310531
0.0108519698
0.0106651486
0.0106667837
0.0106791375
0.0108280097
0.0110269077
0.0108677896
0.0106829867
0.0107979664
0.0110119991
0.0109841119
0.0106666623
0.0106696869
0.010670951
0.0107546841
0.011012063
0.0109992882
0.0106806869
0.01073717
0.0110073299
0.0110422151
0.0106764386
0.0107497919
0.0110421007
0.0107072754
0.0106840361
0.0109996809
0.0110696427
0.0106642582
0.0106889388
0.0110059893
0.0110514881
0.0106641594
0.0106837304
0.0110057937
0.0110390499
0.0106649056
0.0106849966
0.0109968339
0.0110206118
0.0107250124
0.0106461206
0.0106719491
0.011008431
0.0110174556
0.0106759744
0.0106892941
0.0108063857
0.0106747824
0.0106723196
0.0110048559
0.0110072578
0.010722506
0.0106691321
0.0107888962
0.0110064952
0.0108885485
0.0106676821
0.0107864997
0.0110069256
0.0109144944
0.0106636454
0.0107059667
0.011006041
0.0110584133
0.0106630951
0.010644972
0.0107285419
0.0110177659
0.0110103085
0.0106690693
0.0107001146
0.0110132369
0.0110365984
0.0106692338
0.0106854104
0.0110129817
0.011029271
0.0106781798
0.0106470952
0.0106717213
0.0110361631
0.0110019134
0.0109438243
0.010676044
0.0106892501
0.0110190987
0.0110571244
0.0106736418
0.0107309839
0.0110163703
0.0108469804
0.0106775014
0.0108969155
0.011010442
0.0107398417
0.0106777944
0.0110568071
0.0110037687
0.0108292144
0.0106808073
0.0106820746
0.0106682857
0.0106633061
0.0106943683
0.0110613948
0.0109941462
0.0110678967
0.0107130726
0.0106561106
0.0106493504
0.0108890968
0.0110215434
0.0107767621
0.0106799451
0.0109183002
0.0110148636
0.0107699356
0.0106781673
0.0109360584
0.0110149748
0.0107883331
0.0106753963
0.010828638
0.0110233702
0.0108624623
0.0106720295
0.0107351771
0.0110329563
0.010954362
0.0106695038
0.0106531169
0.0107071162
0.0110394719
0.010990424
0.0106803116
0.0107248149
0.0110312173
0.0109751025
0.0106833034
0.0107415551
0.011026882
0.0109699313
0.0106856167
0.0107377276
0.011025463
0.0110228136
0.0106924751
0.0107122576
0.0110283251
0.0110114043
0.0107347215
0.0106722315
0.0106756191
0.0106737348
0.0106699163
0.0107815313
0.011029225
0.0110025943
0.0109206435
0.0106767944
0.0106655095
0.0106680251
0.0107643666
0.0110236689
0.0109129467
0.0106835554
0.0108026931
0.0110191773
0.0108291094
0.0106660045
0.0108864949
0.0110106777
0.0107223628
0.0107121792
0.0110218055
0.0108645578
0.010671769
0.0108372091
0.0110091119
0.0107895446
0.010671116
0.0109048789
0.0110070479
0.0107629387
0.0106725526
0.010929323
0.0110131633
0.0107545932
0.0106507686
0.0106568176
0.0106564598
0.0106630128
0.0109042226
0.0110132991
0.0110040693
0.0110243557
0.0107055849
0.0106766887
0.0110732735
0.0110192199
0.0107023766
0.0106824589
0.0110525719
0.0110184784
0.0107047634
0.0106892221
0.0110467778
0.0110221354
0.0107185303
0.0106682051
0.0106711567
0.0106711509
0.0106648548
0.0106669182
0.010689283
0.0110477696
0.0110100607
0.0110283212
0.0110219045
0.0108152342
0.0106938885
0.0107029106
0.0107059574
0.0107249785
0.0110432608
0.0110413561
0.0107028534
0.0106912972
0.011040255
0.0110489034
0.0107073372
0.0106847062
0.0109840257
0.0110501368
0.010722687
0.0106794242
0.0109222984
0.0110415522
0.010769054
0.0106822374
0.01088167
0.0110241694
0.0108666473
0.0106711408
0.0106862376
0.0108892749
0.010868272
0.01068597
0.0106873844
0.0107000432
0.0108242027
0.011008738
0.0109782312
0.0106756059
0.0107368977
0.0110082067
0.0110244736
0.0106684975
0.0107086995
0.0110076536
0.0110690794
0.0106631714
0.0106916255
0.0110092041
0.0110574617
0.0106573412
0.0107285527
0.0110281365
0.0106799302
0.0106763966
0.0110038215
0.0110367447
0.0106633956
0.0106711976
0.0110123763
0.011032304
0.0106402233
0.0106482805
0.0110124555
0.011022299
0.0106632744
0.0106661263
0.0110083454
0.0110114121
0.0106690952
0.0106682307
0.0110079233
0.0110071785
0.0106671224
0.0106648694
0.0110094633
0.0110062637
0.0106653272
0.010663595
0.0110093653
0.0110051065
0.0106687554
0.0106695224
0.0110028731
0.0110060298
0.0106923527
0.0106701028
0.0106788961
0.0106697767
0.0106773086
0.0110040021
0.0109951223
0.0106921938
0.0106799098
0.0110032206
0.0109975251
0.0106771209
0.0106726043
0.01100544
0.0110014566
0.0106760056
0.0106775321
0.010999877
0.0110046048
0.0107231661
0.0106783687
0.0106831462
0.010672311
0.0106789162
0.0106604674
0.0106793603
0.0110136295
0.0110021789
0.0110192147
0.0106637275
0.0106587319
0.0109987153
0.011016419
0.0107161027
0.010671904
0.0107089008
0.0110053358
0.0110231257
0.0106724391
0.0107937734
0.0110119847
0.0106970969
0.0106811822
0.0109957935
0.0110293292
0.0106710507
0.0106853627
0.0109949041
0.0110163788
0.0106905443
0.0106795468
0.0108139011
0.0110033736
0.0110305605
0.0106679124
0.0106555424
0.0106675169
0.0106536632
0.0106810586
0.0110115945
0.0110526094
0.0106776157
0.0106984523
0.0110043433
0.0110550119
0.0106763076
0.0107013224
0.0110044112
0.011059135
0.0106718036
0.0106993201
0.0110042277
0.0110607622
0.0106685346
0.0107034855
0.0110007891
0.0110349033
0.0106706112
0.0106691228
0.0106768813
0.0106737243
0.0107743744
0.0110027521
0.0110534774
0.010685022
0.0107042564
0.011004127
0.0110665446
0.0106649895
0.0106957383
0.0110098151
0.0110683836
0.0106623675
0.0106931329
0.0110115608
0.0110652827
0.0106619486
0.0106900684
0.0110117387
0.0110600076
0.0106609544
0.0106862588
0.0110113728
0.0110533918
0.0106600428
0.0106820981
0.0110107749
0.0110457233
0.0106591871
0.0106775996
0.0110099351
0.011037029
0.0106587557
0.0106728091
0.0110087477
0.0110272308
0.0106590689
0.0106685443
0.0110071097
0.0110163751
0.0106610395
0.0106659209
0.0110048867
0.0110060266
0.0106664776
0.0106681063
0.0110068857
0.0110020782
0.010680108
0.0106788959
0.0110097238
0.0110003556
0.0107169196
0.0106802015
0.010683347
0.0106829056
0.0106743372
0.0106757471
0.0110172774
0.0110005611
0.0107012753
0.0106815306
0.0110384284
0.0110018159
0.0106986733
0.0106757183
0.0110520517
0.0110082028
0.0106947055
0.0106587805
0.0110667638
0.0110072337
0.0106862555
0.0107246919
0.0110360395
0.0107705935
0.0106478003
0.0106517791
0.0110472489
0.0110173565
0.0107293394
0.0106510713
0.0106481821
0.0110521972
0.011011793
0.0107107934
0.0106698302
0.0110809875
0.0110098077
0.0107096539
0.0106702526
0.0110608624
0.0110100837
0.0107127059
0.0106721029
0.0110434449
0.0110088651
0.0107059843
0.0106844142
0.0110765249
0.0107852516
0.0106680319
0.0110656841
0.0110153881
0.010705325
0.0106674883
0.0110531843
0.0110123957
0.0107060041
0.010666693
0.011058421
0.0110116977
0.0107054909
0.0106667776
0.011066089
0.0110111334
0.0107043973
0.0106677497
0.0110765515
0.0110110769
0.0107025018
0.0106695522
0.0110764553
0.0110168639
0.0107199011
0.0106522335
0.0106555902
0.0110453484
0.0110108701
0.0107171581
0.0106673946
0.0106650957
0.010662628
0.011052483
0.011007785
0.010701066
0.0106711718
0.0110604684
0.0110056292
0.0106938811
0.0106687385
0.0110623442
0.0110044199
0.010692697
0.0106831794
0.0110635596
0.0107954477
0.0106714529
0.0110593602
0.011007943
0.0107046272
0.0106788039
0.0110601698
0.0110042251
0.0107138544
0.0106784989
0.0110497865
0.0110080801
0.0107446623
0.0106713266
0.0106786864
0.0106639877
0.0106674379
0.0110311242
0.0110042366
0.0107897714
0.0106840831
0.0108749452
0.0110168817
0.0108314991
0.0106534497
0.0106600277
0.0110364147
0.0110050901
0.0107837051
0.0106727344
0.0107941799
0.011007463
0.0108997917
0.0106768608
0.010814174
0.0110041803
0.0108909104
0.0106828292
0.0106842339
0.0106839421
0.0106826004
0.0110474828
0.011000787
0.0107826518
0.0106712211
0.0108431897
0.0110047454
0.010802806
0.0106686734
0.0108804213
0.0110077573
0.0107648684
0.0106701862
0.0108791828
0.0108738452
0.0106849036
0.0108713211
0.0110196121
0.0107489731
0.0106570282
0.010676476
0.011034085
0.011021705
0.010725465
0.0106863089
0.0108523385
0.0107954268
0.0106909062
0.010980055
0.0110338476
0.0107030264
0.0106853539
0.0110641122
0.0110445745
0.0106968182
0.0106855277
0.0110673511
0.0110510794
0.0106954355
0.0106858597
0.0110517479
0.0110560642
0.0106950791
0.0106857905
0.0110252668
0.0110589015
0.0107001276
0.0106850465
0.0109896628
0.0110587747
0.0107120731
0.0106835383
0.0109457908
0.0110546015
0.0107345139
0.0106816807
0.010896066
0.0110451608
0.0107769231
0.0106826074
0.0108531667
0.0110374362
0.0108162124
0.0106618721
0.0106659881
0.010678029
0.0108071998
0.0110195932
0.010954378
0.0106590642
0.0106658315
0.0107657263
0.0110157132
0.0110349086
0.0106811036
0.0107247082
0.011006448
0.0110714826
0.010672981
0.010744629
0.0110350991
0.0106904813
0.0106862547
0.0109963997
0.0110490672
0.0106721158
0.010688695
0.0109974604
0.0110339838
0.0106735645
0.0106912161
0.0109951202
0.0110132821
0.0106787418
0.0106749769
0.0106724819
0.0106851887
0.0109944287
0.011006477
0.0107269048
0.0106789214
0.0106812038
0.0106778365
0.0106723548
0.010679756
0.0110002224
0.0110078551
0.0106844599
0.0106835811
0.0109987156
0.0110077822
0.0106769146
0.0106776263
0.0110015707
0.0110095245
0.0106714292
0.0106725445
0.011004111
0.0110110836
0.0106681677
0.010669055
0.0110060162
0.0110121312
0.0106661254
0.0106668296
0.0110072883
0.0110125071
0.0106643485
0.0106654316
0.0110076263
0.0110115758
0.0106651561
0.010666685
0.0110060659
0.0110104543
0.0106723334
0.0106595509
0.0106556056
0.0106583932
0.0110094716
0.0110095927
0.0106658941
0.0106656697
0.0110079685
0.0110072525
0.010665912
0.0106653014
0.0110099417
0.0110073337
0.0106646127
0.0106634385
0.0110123376
0.0110076492
0.0106652584
0.0106632575
0.0110148019
0.0110079187
0.0106662248
0.0106635047
0.0110170939
0.0110081361
0.0106679703
0.0106646197
0.0110190082
0.0110080778
0.0106700509
0.0106660684
0.0110207129
0.0110081412
0.0106707994
0.0106656043
0.011022962
0.0110085723
0.010668002
0.0106618095
0.0110248379
0.0110050896
0.0106715819
0.0106809953
0.0110181171
0.0108208534
0.0106516642
0.0106599338
0.0110113322
0.0110072707
0.0107093479
0.0106743685
0.0106711748
0.0106713227
0.0110134318
0.0110086148
0.0107275404
0.0106668594
0.0106644283
0.0110120474
0.011003947
0.0106882108
0.0106710307
0.0110148038
0.0110040825
0.0106741172
0.010663572
0.0110164824
0.0110013404
0.0106707348
0.0106826101
0.0110094576
0.0107272213
0.0106610529
0.0110066576
0.0110051032
0.0106719843
0.0106651083
0.0110097702
0.0110043142
0.0106726059
0.0106690884
0.0110083629
0.0110059889
0.0106766722
0.0106767298
0.0110025487
0.0110072948
0.0107296966
0.0106797414
0.0106830799
0.0106682348
0.0106747821
0.0110079785
0.0110145699
0.0106859324
0.0106807225
0.0110019228
0.0110239629
0.0106938195
0.0106452579
0.0106584572
0.0110146295
0.0110363899
0.0106804502
0.0106811917
0.0110084223
0.0110370337
0.0106798416
0.0106898329