/*--------------------------------*- C++ -*----------------------------------*\
| =========                 |                                                 |
| \\      /  F ield         | OpenFOAM: The Open Source CFD Toolbox           |
|  \\    /   O peration     | Version:  2306                                  |
|   \\  /    A nd           | Website:  www.openfoam.com                      |
|    \\/     M anipulation  |                                                 |
\*---------------------------------------------------------------------------*/
FoamFile
{
    version     2.0;
    format      ascii;
    arch        "LSB;label=32;scalar=64";
    class       volScalarField;
    location    "6e-05";
    object      prefDZ_H;
}
// * * * * * * * * * * * * * * * * * * * * * * * * * * * * * * * * * * * * * //

dimensions      [1 -1 -1 0 0 0 0];

internalField   nonuniform List<scalar> 
3810
(
0.000106196832
0.000106162215
0.000107790269
0.000110284008
0.000110312283
0.000107085671
0.00010751072
0.000110401474
0.000110273488
0.000106773978
0.000107061058
0.000110411387
0.000110289381
0.00010658833
0.000106784595
0.000110387791
0.000110326062
0.000106402256
0.000106429356
0.000110371563
0.000110383893
0.000106603923
0.000106591017
0.000106655831
0.000107790499
0.000110323635
0.000110425231
0.000107439795
0.000107234856
0.000110355273
0.000110413091
0.000107218512
0.000106915861
0.000110343144
0.00011043091
0.000107130355
0.00010676682
0.000110427161
0.000110465904
0.000107755879
0.000107507736
0.000107753767
0.000107792168
0.000107521641
0.000107132616
0.000107742966
0.000110288233
0.00011048797
0.00010795354
0.000107425064
0.00011029552
0.000110337818
0.000110261878
0.000107332639
0.00010628841
0.000110303363
0.000110311587
0.000107509753
0.000106468647
0.000106439284
0.000107616403
0.000110332062
0.00011025411
0.000107771608
0.000105772819
0.000107261317
0.000110232672
0.000110334581
0.000110295366
0.000107526667
0.000106718344
0.000110256231
0.000110369345
0.000107234735
0.000106823329
0.000110205222
0.000110433052
0.000107154056
0.000107425956
0.000109361017
0.000107767268
0.000106654691
0.000110365288
0.000110340262
0.000106771262
0.000106577911
0.000106888381
0.000107759872
0.000110375318
0.000110522275
0.000107448041
0.000107773606
0.000110392319
0.000107808654
0.000106975385
0.000110430073
0.000110352483
0.000106935591
0.000107790367
0.000110315125
0.000107820209
0.000106869588
0.000109283923
0.000110229095
0.000107702819
0.000107035775
0.000110229856
0.000110157216
0.000106806938
0.000106904514
0.000110309622
0.00011013225
0.000106183994
0.000105496958
0.00010779849
0.000110240716
0.000110162768
0.000107061559
0.000107277745
0.000110279788
0.000109956841
0.000106782683
0.000107248936
0.000110277841
0.000109999046
0.000105920457
0.000105632927
0.000107826585
0.000110219899
0.000109940627
0.000107281607
0.000107760522
0.000110269668
0.000109808094
0.000107184603
0.000107763658
0.000110239999
0.000109780685
0.000107164509
0.0001077372
0.000110225499
0.000109786413
0.000107208652
0.000107677657
0.000110201813
0.000109843287
0.000107267158
0.000107623269
0.000110199581
0.000109918298
0.000107858854
0.000107792777
0.000108088431
0.00010766589
0.000106437673
0.000107671264
0.000110240809
0.000110329192
0.000108685708
0.000106947174
0.000107307454
0.000109659709
0.000109597032
0.000106189838
0.000105795659
0.000106988474
0.000107101412
0.000107382597
0.000107896076
0.000110231931
0.000110104087
0.000110261578
0.000109747597
0.000107838312
0.000107063244
0.000108336847
0.000110039615
0.000107769811
0.000107035514
0.000107966056
0.000110079993
0.000107840048
0.000106873931
0.000107871754
0.000110114337
0.000107937259
0.000106627452
0.000107816975
0.000110076647
0.000107728929
0.000106020496
0.000106482669
0.000107732907
0.000107949179
0.000110380738
0.000109779121
0.000107791239
0.000110000795
0.000109856883
0.000105825604
0.000107802419
0.00011020963
0.000109928548
0.000106541869
0.000107542089
0.000110300928
0.000110014194
0.000106658429
0.000107491923
0.000110305706
0.000110139005
0.000106551132
0.000107882427
0.000110225091
0.000110253881
0.00011019048
0.000105644255
0.000105630452
0.000107891959
0.000110231115
0.000110246393
0.000106662746
0.000106670073
0.000107488609
0.000107188746
0.000107551413
0.000107237313
0.000107878711
0.000110384641
0.000110319451
0.000110391034
0.000110294684
0.000106619092
0.0001069059
0.000110399492
0.000110242134
0.000106940075
0.000106920867
0.000107753336
0.000106611419
0.000107739393
0.000109952443
0.000110379447
0.000109947299
0.000106320635
0.000105785591
0.000107751381
0.000110220139
0.000110357775
0.000106454379
0.000106426825
0.000107766903
0.000110364231
0.000110328574
0.000107424907
0.000110345455
0.000110286376
0.000105943815
0.000105812118
0.000107800976
0.000110210252
0.000110296861
0.000105292294
0.000106400566
0.000110268415
0.000110312707
0.000110218231
0.000106505924
0.000105630688
0.000107779529
0.000110240265
0.000110386082
0.000107027906
0.000107183719
0.000110378362
0.00011035169
0.000107641641
0.000107372517
0.000107752847
0.000107097183
0.000107753144
0.000110079313
0.000110377053
0.000110100055
0.000106863345
0.000106179343
0.000110448249
0.000110157217
0.000106807249
0.000106472293
0.000110520197
0.000110228317
0.000106935656
0.000105583529
0.00010752669
0.000110339287
0.000110386747
0.000106809495
0.000107056273
0.000110379679
0.000110329186
0.00010661288
0.000107259357
0.000110309988
0.000107807826
0.000105505808
0.00010717992
0.000110397624
0.000110341736
0.000110392
0.000110249368
0.000107792379
0.000106462271
0.000107362621
0.000106168975
0.000107570527
0.000110327698
0.000110351588
0.000110191531
0.000107090778
0.000107650552
0.000110394162
0.000107819485
0.000106937236
0.000110422643
0.000110196151
0.000106670646
0.000106830973
0.000110468767
0.000110233184
0.000106765798
0.000105682982
0.000107415533
0.000110399816
0.000110269977
0.000107108926
0.000106278608
0.000107775914
0.000110361554
0.000110253
0.000107162695
0.000107373908
0.000110401253
0.000110221403
0.000106966993
0.000107208011
0.000110392806
0.000110205694
0.000106846002
0.000107257544
0.000110413602
0.000110190571
0.000106787356
0.000107827609
0.00011028385
0.000107854346
0.000107782645
0.000110319631
0.000107816138
0.000106790468
0.000110374601
0.000110140139
0.000105902989
0.000105880159
0.00010675761
0.000106601418
0.000108032497
0.000110227534
0.000110263167
0.000110049067
0.000106748053
0.000106936911
0.000110275938
0.000110054443
0.00010643126
0.000106775668
0.000110277367
0.000110085341
0.000106003073
0.000106006011
0.000106888447
0.000107819919
0.000110273611
0.000110300351
0.000110241161
0.000105916995
0.00010588414
0.000107856808
0.000110383619
0.000110310614
0.000107738496
0.000107076066
0.000107731952
0.000110374942
0.000110400411
0.00010683108
0.000107816684
0.000110366263
0.000109310077
0.000106429319
0.000107893085
0.000110308883
0.000107480588
0.000107622421
0.000110436496
0.000108587299
0.000106912462
0.000107850409
0.000110258705
0.00011028707
0.000105802548
0.000105794005
0.000106822128
0.000107669118
0.000109393684
0.000110397674
0.000109967148
0.000107753395
0.000106161166
0.000107730735
0.000110284327
0.000110309627
0.000105714155
0.000105688118
0.000107443483
0.000108342983
0.000110163105
0.00011023504
0.000110139566
0.000106892797
0.000107242362
0.000110399291
0.000110064292
0.000106681261
0.000107402305
0.000110380244
0.00011016197
0.000106752331
0.000107819391
0.000110275822
0.000107699488
0.000107710145
0.000110441833
0.000110026005
0.000107108646
0.000107928467
0.000110480967
0.000110120635
0.000107549724
0.000107863235
0.00010801234
0.000107591745
0.000106885838
0.000107347781
0.00010725862
0.000107774109
0.000108506195
0.000110356612
0.000110019191
0.0001061272
0.000106036109
0.000108037946
0.000109901867
0.000110319003
0.000109892822
0.000106841362
0.000107246507
0.000110396719
0.000110088888
0.000106748412
0.000107896365
0.000109377213
0.000107926963
0.000107563497
0.000110380333
0.000110244699
0.000106739686
0.000107839793
0.000110092491
0.000107901501
0.000107396252
0.000110396804
0.000110108032
0.000106903917
0.000107532673
0.000110334064
0.00011007378
0.000106633398
0.000107501486
0.000110317257
0.000109777004
0.000106415787
0.000107486426
0.000110286831
0.000109708942
0.000105879062
0.000105843136
0.000107437893
0.000107960716
0.000110177626
0.000110320758
0.000110080944
0.000106528327
0.000106083489
0.000107893304
0.000110328841
0.000110212995
0.000107892936
0.000107370923
0.000109489344
0.000110114616
0.000107673593
0.000107283555
0.000110192406
0.000109819513
0.000105995837
0.000106006462
0.000106970514
0.00010695141
0.000107935089
0.000110246441
0.000110191181
0.000110209169
0.000108954177
0.00010679903
0.00010801079
0.000110201765
0.000109567983
0.000105690519
0.000105624012
0.00010702197
0.000106737539
0.000107864112
0.000110232862
0.000110084911
0.000110255548
0.000109760802
0.000106786881
0.000107841241
0.00011029573
0.000109880855
0.00010717203
0.000108039449
0.000110280337
0.000109814668
0.000106079222
0.000106016531
0.000107198614
0.000106718247
0.000107838208
0.000110191481
0.000110099792
0.000110189141
0.000109865273
0.000106131702
0.000107145236
0.000110200178
0.00010988831
0.000105068796
0.000105002294
0.000107878882
0.000110120515
0.000110243794
0.00010999319
0.000105349793
0.000105337107
0.00010707739
0.000107859191
0.000110245458
0.00011028199
0.000110100777
0.000107143612
0.00010722778
0.000110296796
0.000110077077
0.000106685454
0.000107155973
0.000110297408
0.000110070727
0.000105822273
0.000105800798
0.000106752123
0.00010781851
0.000110288272
0.000110333905
0.000110169796
0.000106982436
0.00010704625
0.000110369893
0.000110173941
0.000106893433
0.000107292531
0.000110394186
0.000110178574
0.000106805716
0.000107284371
0.000110404117
0.000110195256
0.000106670922
0.000107287965
0.000110396434
0.000110206234
0.000106488364
0.000107891691
0.0001102603
0.000106474957
0.000106471323
0.000107207878
0.000107157189
0.00010799737
0.000110301727
0.000110238798
0.000106465778
0.00010646307
0.000107793224
0.000110298115
0.000110357921
0.00011018999
0.000106811395
0.000106907023
0.000110370035
0.000110198584
0.000106506583
0.000106503561
0.000107088053
0.000107814942
0.000110386287
0.000110235359
0.000107136678
0.000107871207
0.000110432554
0.000110206433
0.000106621759
0.000106603999
0.000107726683
0.000110343643
0.000110299154
0.000106941723
0.000107598519
0.000110381814
0.000110263744
0.000106857283
0.00010729782
0.000110398077
0.000110233281
0.000106701173
0.000107129277
0.000110403917
0.000110223912
0.000106671238
0.000106663329
0.0001069908
0.000107822686
0.000110382618
0.000110246155
0.000107292309
0.00010774536
0.00011037856
0.0001102025
0.000107168679
0.000107537836
0.000110366018
0.0001101691
0.000106837334
0.000107282786
0.000110340256
0.000110152357
0.00010623213
0.000106217987
0.000106341199
0.000106654611
0.00010633706
0.000107558158
0.000110325367
0.00011025997
0.000110312801
0.000110162805
0.00010674729
0.000107034553
0.00011034134
0.000110200969
0.000106852269
0.000107124438
0.000110364657
0.000110220328
0.000106844837
0.000107115159
0.000110380666
0.000110244439
0.000106848661
0.000107099041
0.000110387981
0.000110269339
0.000106894122
0.000107141969
0.000110387169
0.000110287809
0.000106865614
0.000107260652
0.000110371337
0.000110316942
0.000106694791
0.000107783319
0.000110336009
0.000107771976
0.000106095466
0.000107255593
0.000105976506
0.000107330197
0.000110347649
0.000110389248
0.00011033588
0.000107261649
0.000106923992
0.000110391911
0.000110288441
0.000107110652
0.000107134275
0.000110435547
0.000110281594
0.000106855739
0.000106933303
0.000110455023
0.00011032768
0.00010668266
0.000106570634
0.000110442779
0.000110333153
0.00010690486
0.000106188238
0.000106783921
0.000110344414
0.000110416247
0.000107354004
0.000106865398
0.000107205975
0.000107053579
0.000110410891
0.000110385566
0.000107451258
0.00010720849
0.000110443569
0.000110373557
0.000107224012
0.000106906474
0.000110445728
0.000110367293
0.000107314257
0.000106781649
0.000107048954
0.000106804839
0.000110403986
0.000110362684
0.000107505782
0.000107097818
0.000110394183
0.000110325757
0.000107095885
0.000106856411
0.000110367701
0.000110277027
0.000106800638
0.000106223204
0.000110303586
0.000110244952
0.000106575251
0.00010476111
0.000105882085
0.000110236754
0.00011025133
0.000110261553
0.00010701538
0.000106071118
0.000110251341
0.000110236541
0.000107049299
0.000106789255
0.000110272048
0.000110242723
0.000106906281
0.00010668315
0.000110250411
0.00011022827
0.000106424516
0.000106372915
0.00011018393
0.000110193648
0.000104987015
0.000105110599
0.000110133115
0.000110168893
0.000110172929
0.000106294274
0.000105412405
0.000110232953
0.000110118233
0.000106867822
0.000106331408
0.000110310063
0.000110220825
0.000107059162
0.000105945563
0.000106092682
0.000110272713
0.00011036334
0.000107477373
0.00010690056
0.000110324111
0.000110355591
0.000107135733
0.000107078435
0.000110272478
0.000110330436
0.000108447954
0.000106960883
0.00010651739
0.000106025674
0.000106058486
0.00011030733
0.000110333712
0.000110324066
0.000107778358
0.000106127913
0.000106284666
0.00011035775
0.000110323059
0.000107774332
0.000106585936
0.000106598821
0.00011028931
0.000110409636
0.000107806368
0.000107000349
0.000110304281
0.000110405471
0.000107356055
0.000106881849
0.000110272703
0.000110397907
0.00010722164
0.00010681133
0.000110236349
0.000110369839
0.000107211042
0.000106763902
0.000110226439
0.000110327061
0.000107204864
0.000106528343
0.000110231857
0.000110267429
0.000107750618
0.00010634844
0.00010556803
0.000105587251
0.000110168831
0.000110247345
0.000110207857
0.00010784858
0.000106044634
0.000110319694
0.000110190408
0.000107756854
0.000105815182
0.000106099025
0.000110187681
0.000110364353
0.000107841879
0.000106913743
0.00011021656
0.000110375215
0.000107339615
0.000106762977
0.000110213161
0.000110367221
0.000107174561
0.000106625848
0.000110230022
0.000110342777
0.000107184581
0.000106415574
0.000110258552
0.000110312688
0.000107891134
0.000106564958
0.000106201801
0.00010621712
0.000110151944
0.000110296169
0.000107967756
0.000107111246
0.000110198829
0.000110351117
0.000107487394
0.00010679396
0.00011024016
0.000110364472
0.000107290268
0.000106462611
0.000110279139
0.000110333493
0.000107870429
0.000106596741
0.000106111782
0.000106128929
0.000110158576
0.000110305714
0.000107949555
0.000107231514
0.000110217697
0.000110384541
0.000107733647
0.000107024521
0.000110231623
0.000110399414
0.00010774379
0.00010689995
0.00011006529
0.000110363375
0.000108002554
0.000106817904
0.00010903813
0.000110317101
0.000107839717
0.000106608851
0.000108743853
0.000110256029
0.000107840415
0.000106551923
0.000106881004
0.000106176102
0.000106207922
0.000110112742
0.000110309692
0.000107970382
0.000107287563
0.00011018614
0.00011040591
0.000108008858
0.000106956907
0.000109239521
0.000110376408
0.000107938905
0.00010682696
0.000109230551
0.00011036789
0.000107910444
0.000106757186
0.000109120074
0.000110369419
0.000107876443
0.000106716477
0.00010896064
0.000110383864
0.000107848197
0.000106742353
0.000108851923
0.000110385298
0.000107805913
0.00010758035
0.000110318923
0.000107861688
0.000106155912
0.000109943936
0.00011025601
0.000107687605
0.00010663439
0.000110320999
0.000110231464
0.000107848951
0.000105625624
0.000106182237
0.000110217198
0.000110339013
0.000107995483
0.00010696586
0.000110200875
0.000110392844
0.000107559886
0.000106791038
0.000110284097
0.000110358683
0.000107941619
0.000106608118
0.000106604289
0.000106707541
0.000110250146
0.00011027502
0.000107911618
0.000106546242
0.000106030913
0.000106172465
0.000110227924
0.000110279053
0.000110232647
0.000107762521
0.000106482989
0.00010774138
0.000110128016
0.000110487069
0.000107994702
0.000107049781
0.00011004952
0.00011044079
0.000107579278
0.000106809342
0.000109985878
0.000110416937
0.000107466292
0.000106720097
0.000109909747
0.000110417681
0.000107387957
0.000106677181
0.000109823237
0.000110509658
0.00010686783
0.000107739679
0.000110220739
0.000107780479
0.000106857642
0.000109861865
0.000110370039
0.000107612505
0.000106980667
0.000109869095
0.000110378028
0.000107501768
0.00010712058
0.000109927922
0.000110358341
0.000107444516
0.000107344396
0.000110030199
0.000110368185
0.000107214927
0.000107854523
0.000110224424
0.000108004053
0.00010615257
0.000106420164
0.000106967391
0.000106646045
0.000107705462
0.000109356708
0.000110391052
0.000110032924
0.000108105393
0.000107043261
0.000107840961
0.000110273586
0.000107846847
0.000106971066
0.000108490115
0.000110231075
0.000107830295
0.000106355721
0.000106776795
0.000107834581
0.000109700026
0.000110267794
0.000107804472
0.00010735978
0.00010887951
0.000110215477
0.000107859767
0.000107362261
0.000109570683
0.00011015673
0.000107867838
0.000107323555
0.000110137221
0.000110027046
0.000106853618
0.00010579216
0.000107741385
0.000110292741
0.000110152452
0.000107317214
0.000107218692
0.000110110723
0.000109991008
0.000106998256
0.000106209436
0.000107818836
0.00011027507
0.000110052474
0.000106372364
0.000106106017
0.00010780806
0.000110287311
0.000109976243
0.000107369843
0.000107504873
0.000110159614
0.000110036527
0.000107450229
0.00010729658
0.000110075659
0.00011005517
0.000107321555
0.00010718842
0.00011014673
0.000110040786
0.000107073308
0.00010691593
0.000109816393
0.000110055655
0.000107115304
0.000107080762
0.000110372212
0.000109817654
0.000106770099
0.000107902141
0.000110194692
0.000108173688
0.000106115565
0.000106258108
0.000107853151
0.000107939155
0.000110258754
0.000110143096
0.000106147659
0.000107886812
0.000109977056
0.000107515961
0.000107910172
0.000110310157
0.000109321752
0.000106631195
0.000107939019
0.000110240184
0.000110017614
0.000106103832
0.000107954075
0.000109917518
0.000107727573
0.000108090455
0.000110362247
0.000109924955
0.00010703471
0.000108036136
0.000110397056
0.000109897667
0.000106933065
0.000108045122
0.000110395834
0.000109870239
0.000106998548
0.000108065
0.000110368518
0.000109837298
0.00010710734
0.000108049068
0.000110282445
0.000109780651
0.000105913777
0.000105864093
0.000106892291
0.000106964547
0.000107035013
0.00010780989
0.000110220295
0.00011036095
0.000109851244
0.00010717427
0.000107954594
0.000110344702
0.000109797242
0.000106453407
0.00010641426
0.000107801809
0.000108069193
0.000110368262
0.000109814557
0.00010708894
0.000108056604
0.000110350034
0.000109808959
0.000107078469
0.000108055402
0.000110294477
0.000109815919
0.000106302413
0.000107837547
0.000109822316
0.00010738455
0.000107790066
0.000110337621
0.000109812887
0.000106777595
0.000107762621
0.00011033563
0.000109814055
0.000106157546
0.000106131579
0.000106657419
0.000107801775
0.000110289161
0.000110355576
0.000109837327
0.000106943307
0.000107650414
0.000110349853
0.000109795657
0.000106791557
0.000107776404
0.000110358004
0.000109814882
0.000106752162
0.000107781902
0.000110331154
0.000109890758
0.000106410684
0.000106401716
0.000106649475
0.000107796846
0.000110312858
0.00011035771
0.000109987699
0.000107058506
0.000107518001
0.000110357323
0.000110018619
0.000106356187
0.000106340871
0.000106514534
0.000107755505
0.000110406714
0.000110449254
0.000110197897
0.000107380868
0.000107763948
0.000110506874
0.000110192573
0.000107525184
0.000107537272
0.000107692198
0.000107749967
0.000107718361
0.000110438344
0.000110292355
0.000107264738
0.000107635628
0.000110477397
0.000110245494
0.000106921852
0.000107375104
0.000110458377
0.00011022587
0.000106908504
0.000107350902
0.000110427756
0.000110221663
0.000106961333
0.000107355341
0.000110380449
0.000110277295
0.000106737858
0.000106639043
0.000107071015
0.00010717523
0.00010707497
0.000107862069
0.000110387622
0.000110234911
0.000107150421
0.000107251736
0.0001104409
0.000110229326
0.000107052697
0.000105723336
0.000107646446
0.000110346448
0.00011041155
0.000110333313
0.000107265247
0.00010652376
0.000110421798
0.000110305186
0.000106766408
0.000106863169
0.000110381752
0.000110366868
0.000106499687
0.000107424169
0.000110415901
0.000107749614
0.000106355522
0.000110452871
0.000110310699
0.00010688056
0.000106625881
0.000110425337
0.00011030486
0.000107195681
0.000105854025
0.000106795981
0.000110383407
0.000110326978
0.000107552649
0.000106127955
0.000107182587
0.000110322992
0.000110455985
0.000107439198
0.000107711641
0.000110414643
0.000107769688
0.000106808395
0.00011038585
0.000110425803
0.000107260208
0.000106946515
0.00011035913
0.00011045624
0.000107405773
0.000107147543
0.000110377583
0.000110454657
0.000107727781
0.000107649356
0.000107719352
0.000107776665
0.000107726683
0.000110417854
0.000110471685
0.000107724496
0.000107013348
0.000106898832
0.000107000107
0.000110395322
0.000110341842
0.00010769792
0.000106382789
0.000106991687
0.000110285055
0.000110466588
0.000107625222
0.000107128984
0.000110262446
0.00011041084
0.000107634739
0.000107134378
0.00011031244
0.000110310546
0.00010771118
0.00010591739
0.000107715757
0.00011025336
0.000107784579
0.000106676045
0.000110318997
0.000110337087
0.000107733628
0.000106617445
0.000106501363
0.000106892632
0.000110310065
0.00011042086
0.000107526629
0.000107135946
0.000110271747
0.000110421065
0.000107732932
0.000107271385
0.000110351082
0.000110326622
0.000107724242
0.000106295392
0.000107291226
0.000110319241
0.000110481653
0.000107851787
0.000107321869
0.000110348113
0.00011045096
0.000107893337
0.00010728874
0.000110401084
0.000110401135
0.000107795233
0.000106624335
0.000106946631
0.000106888793
0.000106385481
0.000107086827
0.000109194996
0.000110320379
0.000110011748
0.000108419458
0.000105799522
0.000106454135
0.000110274752
0.000110393296
0.000107885363
0.000107408947
0.000108909933
0.000110242612
0.000107966383
0.000106262385
0.00010776943
0.000110305306
0.000108963878
0.000107195087
0.000108021903
0.000110276371
0.000107793931
0.000106543945
0.000106669336
0.000107187029
0.00010861868
0.000110390738
0.000107764671
0.000107120629
0.000108647148
0.000110362587
0.00010773716
0.000107073916
0.000108463876
0.000110368493
0.00010780403
0.000107525319
0.000107871154
0.000107754434
0.000108988381
0.000110334569
0.00010772261
0.000107431858
0.000108548101
0.000110250721
0.000107676683
0.00010727095
0.000108458867
0.000110209153
0.000107692484
0.000107427316
0.00010827354
0.0001102309
0.000108191359
0.000106588905
0.000107163897
0.000108428282
0.000110072783
0.000108049234
0.000106510661
0.000106647803
0.000107293585
0.000107987078
0.000110201889
0.000108138743
0.000107469438
0.000107923566
0.000110268173
0.000108953934
0.000106596166
0.000106661308
0.00010696269
0.000107793777
0.000110330125
0.000109078803
0.000107351871
0.000107903896
0.000110316918
0.000109418289
0.000107098891
0.000107782783
0.000110171699
0.000107786528
0.000107447246
0.000110462241
0.000109811068
0.000106791191
0.000107496825
0.000110443925
0.000109971938
0.000106727256
0.000107322422
0.000110451595
0.000110082032
0.000106817245
0.000107366986
0.000110521236
0.000110217564
0.000107686514
0.000105798238
0.000107114726
0.000110400259
0.000110318288
0.000107204987
0.000107541321
0.000107873433
0.000107028606
0.000107076999
0.000110570389
0.000110363145
0.00010771232
0.000106810934
0.00010782491
0.000110326907
0.000108280768
0.000106773961
0.000107823712
0.000110319446
0.000108450766
0.000106607435
0.000107992794
0.000110398563
0.000110031867
0.000106753345
0.000105424101
0.000107781414
0.000110187802
0.000109160674
0.000106700138
0.000107804143
0.000110277551
0.00011022541
0.000106816032
0.000107067333
0.000110352301
0.000110242603
0.00010730938
0.000105507891
0.000106955898
0.000110131536
0.000110328968
0.000108651339
0.000107136217
0.0001072479
0.000110326721
0.000110033003
0.000107038846
0.000107838984
0.000110306349
0.000108069265
0.000107175924
0.000108332775
0.000110327957
0.000107850525
0.000107195199
0.00011022836
0.000110391473
0.000108020315
0.000107421634
0.000107137914
0.000106930757
0.000106201705
0.000107726068
0.000109798666
0.000110463021
0.000109601691
0.000107739349
0.000105854395
0.000105922462
0.000108277569
0.000110225239
0.00010784671
0.00010720251
0.000108472213
0.000110285118
0.000107846718
0.000107174059
0.00010859752
0.00011029517
0.00010784977
0.000107027749
0.000107932575
0.000110219927
0.000108136472
0.00010683884
0.000107719718
0.000110195409
0.000108727532
0.000106990982
0.000105967904
0.000107732322
0.000110107216
0.000109002575
0.000107217808
0.000107760237
0.000110161421
0.00010888313
0.000107405262
0.0001077365
0.000110195649
0.000108843171
0.000107525426
0.000107775196
0.000110187189
0.000109253065
0.000107802542
0.000107876766
0.000110179328
0.000110412374
0.000107717203
0.000106825142
0.000107134582
0.000106958515
0.000106801137
0.000107772113
0.000110129854
0.000110404135
0.00010849401
0.000107243217
0.000106733
0.000106723123
0.000107726391
0.000110180327
0.000108441584
0.000107383838
0.000107851014
0.000110239184
0.000107984804
0.000106756817
0.00010826228
0.000110460387
0.000107745831
0.000107759482
0.000110264014
0.000108146868
0.000107014335
0.000107986942
0.000110379359
0.000107822015
0.000106976559
0.000108383529
0.000110370721
0.000107787559
0.000106960076
0.000108550408
0.000110305495
0.000107745999
0.000105996781
0.000106441631
0.000106227639
0.000106638126
0.000108382746
0.000110297084
0.000110379919
0.000110290346
0.000107875083
0.00010701962
0.000109842551
0.000110277366
0.000107827911
0.000107250012
0.000110053778
0.000110304231
0.000107901506
0.000107488238
0.000110105925
0.000110231381
0.000107851311
0.000106567789
0.000106926014
0.000106746835
0.000106728702
0.000106431116
0.000107746115
0.000110048166
0.000110322556
0.000110102359
0.000110256028
0.000107917693
0.000107748974
0.000107852959
0.000107943099
0.000107794024
0.000110174309
0.000110130137
0.000107871983
0.000107647265
0.000109406489
0.000110060311
0.000107750176
0.000107411835
0.000108953791
0.000110053853
0.000107629262
0.000107276934
0.000108502682
0.000110138695
0.000107663513
0.000107482008
0.000108259577
0.000110203046
0.000108137795
0.000106844806
0.000107575806
0.000108293158
0.000108157861
0.000107447284
0.000107509876
0.000107776032
0.000107992555
0.000110363394
0.000108918153
0.000107230879
0.00010785186
0.000110392847
0.000109286283
0.000106923771
0.000107889735
0.000110390918
0.000109652858
0.000106667889
0.0001077193
0.000110364798
0.000109888583
0.000106348419
0.00010781541
0.000110212446
0.000107183719
0.000107104063
0.000110325257
0.00011006167
0.000106593867
0.000106805723
0.000110329838
0.000110107898
0.000105639388
0.000105902116
0.000110308781
0.000110204922
0.000106541875
0.000106650398
0.000110322904
0.000110281626
0.000106793386
0.000106789767
0.000110359176
0.00011034747
0.000106747099
0.000106706172
0.000110388571
0.000110380304
0.000106722707
0.000106685471
0.00011042961
0.00011038808
0.000106929637
0.000106896143
0.000110487857
0.000110348999
0.000107724203
0.000106814879
0.000107443449
0.000106795716
0.000107380089
0.000110373805
0.000110477719
0.000107802805
0.00010746524
0.000110444709
0.000110466485
0.000107241117
0.000107134274
0.000110466566
0.000110407664
0.000107226378
0.000107225031
0.00011048768
0.000110313871
0.000107733176
0.000107124882
0.00010749996
0.000106855215
0.00010729313
0.000106363514
0.00010733444
0.000110333293
0.000110364299
0.000110257378
0.000106707601
0.000106384777
0.000110484175
0.000110243396
0.00010773702
0.00010685183
0.000107749454
0.000110361107
0.000110362658
0.000107041974
0.000107849047
0.000110331727
0.000107778128
0.000107427411
0.000110523378
0.000110173983
0.000107153834
0.000107577137
0.000110519602
0.00011027142
0.000107784714
0.000107250247
0.000107928999
0.000110314756
0.000110218226
0.000106679248
0.000106066392
0.000106749854
0.000106005784
0.000107370305
0.000110280854
0.000110006015
0.000107139109
0.000107834146
0.000110365695
0.00010994878
0.000107161135
0.000107925619
0.000110396525
0.000109945977
0.000107021789
0.000107859651
0.000110441876
0.000109982481
0.000106975122
0.000107917915
0.000110468408
0.000110144955
0.000106948675
0.000106692786
0.000107247129
0.000107004831
0.000107829814
0.000110357844
0.000110034572
0.000107535939
0.00010797372
0.000110422187
0.000109974741
0.000106737558
0.000107601434
0.000110385394
0.000109926533
0.00010656092
0.000107431864
0.000110345791
0.000109940365
0.000106510438
0.000107304153
0.000110333507
0.000109982373
0.000106467998
0.000107176461
0.000110335248
0.000110036922
0.000106440634
0.000107052867
0.000110342244
0.000110098457
0.000106421299
0.000106930173
0.0001103529
0.000110168549
0.000106425203
0.000106807752
0.000110366948
0.000110246771
0.000106463939
0.000106715655
0.000110384504
0.000110329243
0.000106571915
0.000106686445
0.000110399739
0.000110391539
0.000106804523
0.000106830978
0.000110355342
0.000110382412
0.000107350861
0.000107269203
0.000110311979
0.00011036486
0.000107784803
0.000107280324
0.000107420453
0.000107386638
0.000106961053
0.000107073959
0.000110239731
0.000110374488
0.000107920729
0.000107387182
0.00011010522
0.000110383962
0.000107819197
0.000107109416
0.000110006261
0.000110340274
0.000107573939
0.000106429725
0.000109944079
0.000110498483
0.000107401112
0.000107724085
0.000110116957
0.000107785726
0.000105607222
0.000105967284
0.000110085482
0.000110229117
0.000107819393
0.000105791694
0.000105824119
0.000110007635
0.000110315038
0.000108037761
0.000106862138
0.000109813465
0.000110361027
0.000108085927
0.00010687673
0.000109591915
0.000110354293
0.000108078086
0.000106949474
0.000109442009
0.000110327234
0.000107974602
0.000107379895
0.000109733277
0.000107882543
0.000106450302
0.000109641383
0.000110235376
0.000107978365
0.00010670232
0.000109530249
0.000110325356
0.000108011485
0.000106718505
0.000109573519
0.000110333772
0.000107971543
0.000106724739
0.00010963835
0.000110334294
0.000107923275
0.00010675549
0.000109728164
0.000110314425
0.000107912587
0.000106760195
0.000109843634
0.000110239696
0.000107850829
0.000105858839
0.000106124085
0.000110050162
0.000110299348