/*--------------------------------*- C++ -*----------------------------------*\
| =========                 |                                                 |
| \\      /  F ield         | OpenFOAM: The Open Source CFD Toolbox           |
|  \\    /   O peration     | Version:  2306                                  |
|   \\  /    A nd           | Website:  www.openfoam.com                      |
|    \\/     M anipulation  |                                                 |
\*---------------------------------------------------------------------------*/
FoamFile
{
    version     2.0;
    format      ascii;
    arch        "LSB;label=32;scalar=64";
    class       volScalarField;
    location    "6e-05";
    object      PV;
}
// * * * * * * * * * * * * * * * * * * * * * * * * * * * * * * * * * * * * * //

dimensions      [0 0 0 0 0 0 0];

internalField   nonuniform List<scalar> 
3810
(
-0.00728512083
-0.00729092092
-0.00722244778
-0.00704561978
-0.00704422664
-0.00726522776
-0.00725651249
-0.00704137479
-0.00704569092
-0.00727082223
-0.00726726929
-0.00704100499
-0.00704511174
-0.00727571906
-0.00727294831
-0.00704184331
-0.00704385237
-0.0072801949
-0.00727982053
-0.00704226682
-0.00704209435
-0.00727625525
-0.00727563181
-0.00727676592
-0.0072401481
-0.00704425795
-0.00704060257
-0.00725792621
-0.00725956934
-0.00704301017
-0.00704105177
-0.00726362917
-0.00726709215
-0.00704333495
-0.00704046089
-0.00726529938
-0.00726955514
-0.00704041177
-0.00703950104
-0.00723444522
-0.00725320376
-0.00718964947
-0.007226793
-0.00725078281
-0.00726595211
-0.0072427168
-0.0070453936
-0.00703870465
-0.00724809305
-0.00725530529
-0.00704450119
-0.0070441075
-0.00704585329
-0.00726150848
-0.00728522317
-0.00704435973
-0.00704454095
-0.00725627656
-0.00728202466
-0.00728294805
-0.00725568903
-0.00704381076
-0.00704643428
-0.00723069437
-0.00730115268
-0.00726071992
-0.00704677219
-0.00704408943
-0.0070447179
-0.00725582065
-0.0072741644
-0.00704612634
-0.0070424627
-0.00726463717
-0.00726967839
-0.00704781561
-0.00704052249
-0.00726857784
-0.00725634513
-0.00707646795
-0.00722424201
-0.00727924246
-0.00704268366
-0.00704354602
-0.00727101369
-0.00727687359
-0.00726965265
-0.00722681076
-0.00704250195
-0.00703751013
-0.00725545508
-0.00719880502
-0.00704149072
-0.00722737998
-0.00726765513
-0.00704050843
-0.00704300922
-0.00727147661
-0.00722956673
-0.00704409061
-0.00719236324
-0.0072722171
-0.00708012345
-0.00704711106
-0.00725729061
-0.00726994884
-0.00704697616
-0.0070494914
-0.00727856891
-0.00727319411
-0.00704441116
-0.00705027904
-0.00728924802
-0.00730816864
-0.00722046402
-0.00704676684
-0.00704944534
-0.00727069489
-0.00726399699
-0.00704524009
-0.00705619863
-0.00727808185
-0.00726617766
-0.00704543989
-0.00705467049
-0.00729696802
-0.0073064127
-0.00720659759
-0.00704743219
-0.00705679812
-0.007265773
-0.00725389662
-0.00704560318
-0.00706120264
-0.00726894205
-0.00725436343
-0.00704667315
-0.00706207018
-0.00726973353
-0.00725455811
-0.00704719105
-0.00706187757
-0.00726880981
-0.00725546761
-0.00704798687
-0.00705998504
-0.00726760274
-0.00725619992
-0.00704806556
-0.00705744312
-0.00724350096
-0.00723173926
-0.00714713434
-0.00721647621
-0.00728541612
-0.00722095788
-0.00704680329
-0.00704396176
-0.00710714001
-0.00727348099
-0.00726641728
-0.00706593792
-0.0070681878
-0.00729359409
-0.00730282111
-0.00727027234
-0.00726881199
-0.00726221872
-0.00717628925
-0.00704698578
-0.00705144182
-0.0070460539
-0.00706316342
-0.00724704718
-0.007271681
-0.00712782273
-0.00705341012
-0.00716809569
-0.00726952722
-0.0071599751
-0.00705200734
-0.00716123834
-0.007272991
-0.00717313384
-0.00705086395
-0.00715010221
-0.00727866024
-0.007179469
-0.00705206944
-0.0071799165
-0.00729173309
-0.00728147013
-0.00724960049
-0.00718850473
-0.00704202365
-0.0070623897
-0.00719502735
-0.00705516115
-0.00705891094
-0.00730054732
-0.00725259824
-0.00704797227
-0.0070569134
-0.00728025553
-0.00726003076
-0.00704483006
-0.00705420338
-0.00727604968
-0.0072600048
-0.00704460762
-0.00705023613
-0.00727972031
-0.00723965668
-0.00704699181
-0.00704706856
-0.00704787649
-0.00730109628
-0.00730220504
-0.00717992102
-0.00704740606
-0.00704632557
-0.00727729185
-0.00727777766
-0.00725705767
-0.00726432728
-0.00725462331
-0.00726147371
-0.0071767884
-0.00704212056
-0.00704404645
-0.00704213237
-0.00704447529
-0.00727423145
-0.00727070991
-0.00704141888
-0.00704693105
-0.00726633519
-0.00727588258
-0.00723083613
-0.00728701894
-0.00723721816
-0.00705615915
-0.00704240305
-0.00705639777
-0.00728066796
-0.00730212699
-0.00720371815
-0.00704782489
-0.00704266453
-0.00728104216
-0.00728127865
-0.00724852417
-0.00704282127
-0.00704408798
-0.00725544513
-0.0070435802
-0.00704518447
-0.00729066351
-0.00729885178
-0.00724690755
-0.00704838103
-0.00704458814
-0.00731028592
-0.00728113432
-0.00704516409
-0.0070451061
-0.00704700611
-0.00727747508
-0.00730337274
-0.00718961729
-0.00704727566
-0.00704151534
-0.00726803382
-0.00726052566
-0.00704207053
-0.00704332368
-0.00724923471
-0.00726092957
-0.0071966757
-0.0072704869
-0.0072315146
-0.00705192691
-0.00704266922
-0.00705072187
-0.00726832476
-0.00729270685
-0.00704000232
-0.00704947381
-0.0072682002
-0.00728161044
-0.00703715735
-0.00704755383
-0.00726258291
-0.00730362084
-0.00724825547
-0.00704404074
-0.00704161464
-0.00727290553
-0.00726130864
-0.00704211485
-0.00704389011
-0.0072763539
-0.00725759986
-0.00704408921
-0.00717875401
-0.00730209292
-0.00725956648
-0.00704151282
-0.00704383613
-0.0070419097
-0.00704669008
-0.00723692721
-0.00728302945
-0.00725679982
-0.00728960523
-0.00725082154
-0.00704369699
-0.00704347513
-0.00704819246
-0.00726406478
-0.00725321083
-0.00704115937
-0.00724934213
-0.00726691349
-0.00704089513
-0.00704807742
-0.00727255245
-0.00727145655
-0.00703890749
-0.00704736334
-0.00726996128
-0.00729951179
-0.00725429305
-0.00704171122
-0.00704594555
-0.00726247092
-0.00728606033
-0.00724426801
-0.00704321821
-0.00704619124
-0.00726303163
-0.00725667653
-0.00704155544
-0.00704741774
-0.00726716675
-0.00726120635
-0.00704175384
-0.00704801757
-0.00726975897
-0.00726023399
-0.00704094474
-0.00704870128
-0.00727057912
-0.00724082626
-0.00704504861
-0.00724473321
-0.00723669717
-0.00704381022
-0.00724086539
-0.00727161234
-0.00704237366
-0.00705004123
-0.00729254873
-0.00729686942
-0.0072736947
-0.00727949826
-0.0071563871
-0.00704709152
-0.00704644907
-0.00705272218
-0.00727521306
-0.00727166998
-0.00704565131
-0.00705277184
-0.00728182179
-0.00727530463
-0.00704539294
-0.0070519129
-0.00729166042
-0.00729335461
-0.00727228769
-0.00721242921
-0.00704538632
-0.0070453128
-0.00704626759
-0.0072931034
-0.00729374116
-0.00718216149
-0.00704210127
-0.00704446791
-0.00722044897
-0.007265754
-0.00720327519
-0.00704252309
-0.00704115541
-0.0072704839
-0.00724771929
-0.00704253668
-0.00707821176
-0.00727976189
-0.0071732965
-0.00704418186
-0.00725487209
-0.00725245735
-0.00704041678
-0.00711096971
-0.00726893567
-0.00720943443
-0.00704646396
-0.00704500407
-0.00729948653
-0.00729983136
-0.0072804938
-0.00725261971
-0.00707605929
-0.00704170101
-0.00705592324
-0.00718245659
-0.00729198589
-0.0072274722
-0.00704542074
-0.00704432199
-0.00729827765
-0.00730187959
-0.00725797278
-0.00712927707
-0.00704946256
-0.00704720601
-0.0070498297
-0.0072706897
-0.00726698482
-0.00704141097
-0.00705255815
-0.00727458798
-0.00726282815
-0.00704213496
-0.00704932651
-0.00727420372
-0.00720277595
-0.00704533108
-0.00725262988
-0.00725316774
-0.00704013822
-0.00705387095
-0.00726296859
-0.00724988902
-0.00703881689
-0.0070507717
-0.00725174456
-0.00723362825
-0.00715283481
-0.00725353076
-0.00727164204
-0.00725780176
-0.00726619265
-0.00723854727
-0.00711987031
-0.00704309185
-0.00705381537
-0.0072885876
-0.00729963083
-0.00715352597
-0.00705830243
-0.00704437977
-0.00705789225
-0.00727113822
-0.00727050166
-0.00704155986
-0.00705167363
-0.00727734712
-0.007228569
-0.0070761917
-0.00724483202
-0.00726006252
-0.00704219788
-0.00704653594
-0.00727974347
-0.00721776838
-0.00705136689
-0.00724093513
-0.00726650782
-0.00704158642
-0.00705112391
-0.00727230157
-0.00726311325
-0.00704362244
-0.00705214688
-0.00727855047
-0.00726405899
-0.00704419778
-0.0070620177
-0.00728387346
-0.00726366566
-0.00704526538
-0.00706420632
-0.00729660715
-0.0073009152
-0.00726010984
-0.00716763128
-0.00704905593
-0.00704434963
-0.00705187009
-0.00727997478
-0.00729419333
-0.00717123472
-0.00704389273
-0.00704770555
-0.00724369528
-0.00725990643
-0.00707221798
-0.00705089819
-0.00725732186
-0.00726331385
-0.00704829772
-0.00706064566
-0.00729678537
-0.00729722328
-0.00727106238
-0.00727249357
-0.00717219168
-0.00704660112
-0.00704848886
-0.00704793002
-0.00709175365
-0.00727611041
-0.00724334678
-0.00704816537
-0.0070688767
-0.00730100397
-0.00730836755
-0.00726968972
-0.00727995977
-0.00718992396
-0.0070471597
-0.007051936
-0.00704654202
-0.00706194137
-0.00727435846
-0.0072540143
-0.00704504882
-0.00705857633
-0.00726451443
-0.00724408075
-0.0070455135
-0.00706093107
-0.00729081984
-0.0072993181
-0.00726496722
-0.00728116271
-0.00720716625
-0.00704860639
-0.00705136453
-0.00704885602
-0.00705849078
-0.00729166255
-0.00727038511
-0.00704818709
-0.00705821148
-0.00731374306
-0.00732021675
-0.00718659739
-0.00705093249
-0.00704687557
-0.00705451947
-0.00730787343
-0.00731053671
-0.00726837704
-0.0071982937
-0.00704626755
-0.00704609858
-0.00705076933
-0.00726566292
-0.00726513987
-0.00704509026
-0.00705192881
-0.00727574105
-0.00726725991
-0.00704481704
-0.00705240354
-0.00729498144
-0.00729862653
-0.00727410468
-0.00720444206
-0.00704471804
-0.00704447638
-0.00704837405
-0.00726749385
-0.00726727883
-0.00704269594
-0.0070487215
-0.0072683959
-0.00726191215
-0.00704175669
-0.00704874025
-0.00726980258
-0.00726196755
-0.00704135591
-0.00704832524
-0.00727276968
-0.0072615864
-0.00704140064
-0.00704832554
-0.00727738933
-0.00717800024
-0.00704549967
-0.00728101123
-0.00728090517
-0.00726369312
-0.00726415265
-0.00716053033
-0.00704497335
-0.0070466745
-0.00728009129
-0.0072817034
-0.00720151781
-0.00704471024
-0.00704335348
-0.00704789727
-0.00727081967
-0.0072703212
-0.00704247197
-0.00704808769
-0.00727742367
-0.00728036702
-0.0072644703
-0.0072314196
-0.00704203399
-0.00704700352
-0.00726193292
-0.00724584943
-0.0070401687
-0.00704844915
-0.00727192975
-0.00727903439
-0.00722670639
-0.00704411788
-0.00704426481
-0.00726838114
-0.00725085925
-0.00704242275
-0.007045726
-0.00726914024
-0.00725925521
-0.00704162195
-0.00704691576
-0.00727207274
-0.0072642843
-0.00704119223
-0.00704746339
-0.00727265536
-0.00727595865
-0.00726647538
-0.0072436982
-0.00704224171
-0.00704655183
-0.00725937128
-0.00725034561
-0.00704233353
-0.00704799982
-0.00726236021
-0.00725631923
-0.0070426375
-0.00704913319
-0.00727036298
-0.00726308721
-0.00704323342
-0.00704988499
-0.0072847494
-0.00728829165
-0.00728296741
-0.00727562219
-0.00728386941
-0.00725220475
-0.00704406212
-0.00704616666
-0.00704482673
-0.00704896155
-0.00727363272
-0.00726799082
-0.0070436123
-0.00704793273
-0.00727027213
-0.00726548841
-0.00704274712
-0.00704739518
-0.00726979909
-0.00726528863
-0.00704219142
-0.00704665719
-0.00726933304
-0.00726509648
-0.00704191661
-0.00704588573
-0.00726815382
-0.00726365689
-0.00704186987
-0.0070453527
-0.00726893756
-0.0072605182
-0.00704220618
-0.00704460296
-0.00727359317
-0.0072468919
-0.00704302943
-0.00723486079
-0.00728880021
-0.00725869993
-0.00729157196
-0.00725616724
-0.00704271966
-0.00704280123
-0.00704295605
-0.00726061969
-0.00726850377
-0.0070421045
-0.00704494525
-0.007262504
-0.0072645291
-0.00704042927
-0.00704531602
-0.00726706055
-0.00726903071
-0.00703957245
-0.00704401145
-0.00727085508
-0.00727726159
-0.00703945568
-0.0070444072
-0.00726494791
-0.00728768306
-0.00726768973
-0.007043746
-0.00704063886
-0.00725817787
-0.00726913366
-0.00726144338
-0.00726395831
-0.00704128244
-0.00704179514
-0.00725402901
-0.00726137374
-0.00704005468
-0.00704230525
-0.00725835881
-0.0072688009
-0.00703976385
-0.00704270808
-0.00725616341
-0.00727246066
-0.00726373034
-0.00727093363
-0.0070414206
-0.00704261892
-0.00725316175
-0.00726522292
-0.00704171502
-0.0070438684
-0.00726301375
-0.0072719704
-0.00704246162
-0.00704563907
-0.00727084027
-0.00728794042
-0.00704418364
-0.00704711787
-0.00727697103
-0.00732205175
-0.00729401888
-0.00704645466
-0.00704712987
-0.00704542248
-0.00726929781
-0.00729093791
-0.00704654917
-0.00704678008
-0.00726800888
-0.00727513111
-0.00704577045
-0.00704668474
-0.00727129862
-0.00727753453
-0.00704649051
-0.00704708712
-0.00728366515
-0.00728503031
-0.00704868053
-0.00704825665
-0.00731750456
-0.00731440485
-0.00704914827
-0.00705037448
-0.00704789832
-0.00728704046
-0.0073096498
-0.00704714321
-0.00705087039
-0.00727154494
-0.00728770095
-0.00704399966
-0.00704806657
-0.00726393451
-0.00729562786
-0.00728659525
-0.00704612412
-0.00704243451
-0.00725642484
-0.00726898675
-0.00704394982
-0.00704300108
-0.00726356229
-0.00726537051
-0.00704520402
-0.0070443001
-0.00711914714
-0.00726743453
-0.00727995881
-0.00729017104
-0.00728956749
-0.00704431228
-0.00704401338
-0.00704396024
-0.00721708
-0.00728799159
-0.00728346287
-0.00704257292
-0.00704445405
-0.00719039535
-0.00727842749
-0.00727371647
-0.00704554765
-0.00704098819
-0.00724802338
-0.00726520054
-0.00704478763
-0.00704121863
-0.0072589514
-0.00726793107
-0.0070457276
-0.00704154175
-0.00726325284
-0.00727015378
-0.0070469146
-0.0070425248
-0.0072642706
-0.00727242176
-0.00704720097
-0.00704402344
-0.00726410893
-0.00727958857
-0.0070467879
-0.00704629004
-0.00725075157
-0.00728660968
-0.00730334025
-0.00730326985
-0.00704835564
-0.00704739536
-0.00704740947
-0.00724107437
-0.00729358469
-0.00704384803
-0.00704888414
-0.00721920649
-0.0073000861
-0.00728656396
-0.00704889241
-0.00704250497
-0.00725061307
-0.00726832168
-0.00704767798
-0.00704220495
-0.0072620383
-0.0072715769
-0.00704763168
-0.00704252254
-0.00726580871
-0.00727541366
-0.00704698452
-0.00704337378
-0.0072644481
-0.00728118677
-0.00704587913
-0.00704454351
-0.0072408332
-0.00727959814
-0.00729000479
-0.00728680661
-0.00704969118
-0.00704495767
-0.00724776187
-0.00726532639
-0.00704819164
-0.00704309986
-0.00725869662
-0.00727139039
-0.00704666302
-0.00704264915
-0.00726204212
-0.00727950906
-0.00704517512
-0.00704382501
-0.00723327879
-0.00727839497
-0.00729233737
-0.00728872316
-0.00704945613
-0.00704469301
-0.00724279888
-0.00726188119
-0.00704759012
-0.00704208871
-0.0072540674
-0.00726518849
-0.00704699935
-0.00704159734
-0.00725719978
-0.00726853374
-0.00705239823
-0.00704276731
-0.00724268822
-0.00727159897
-0.00708949423
-0.00704425229
-0.00722445663
-0.00727769043
-0.00710173156
-0.00704640414
-0.00718277035
-0.00728172538
-0.00727041952
-0.00729232244
-0.00728683489
-0.00705120962
-0.00704446125
-0.00722503911
-0.00725938827
-0.00704850797
-0.00704125971
-0.00724146387
-0.00726680594
-0.00708143862
-0.00704218894
-0.00723385406
-0.00727037837
-0.00708155497
-0.00704251368
-0.00723316324
-0.00727218625
-0.00708589454
-0.00704249953
-0.00722984211
-0.00727295596
-0.00709255606
-0.00704208145
-0.00722906347
-0.00727209408
-0.00709726757
-0.00704221157
-0.0072506441
-0.00725445523
-0.00704368273
-0.00719356817
-0.00728963245
-0.00705663432
-0.00704630055
-0.00725865201
-0.00727856176
-0.00704366717
-0.00704749686
-0.00722735823
-0.00730487004
-0.0072868921
-0.00704787987
-0.00704342378
-0.00725061356
-0.00726701537
-0.00704805065
-0.00704167272
-0.00726145739
-0.00727138409
-0.00704503801
-0.00704294863
-0.00724350051
-0.00727832821
-0.00728106507
-0.00727671398
-0.00704635954
-0.00704577482
-0.00723687064
-0.00728112681
-0.00729423477
-0.00729045459
-0.00704667326
-0.0070458377
-0.00704698488
-0.00722654505
-0.00728556337
-0.0072358926
-0.00705093124
-0.00703827612
-0.00724779155
-0.00726252118
-0.00705313822
-0.00703996445
-0.00725849504
-0.00726973511
-0.00705518493
-0.00704088668
-0.00726076162
-0.00727273107
-0.00705773385
-0.00704098135
-0.00726322356
-0.00727334127
-0.00706058148
-0.00703818659
-0.00727146969
-0.00721754366
-0.00704693455
-0.00722820117
-0.00727327948
-0.00705969875
-0.0070423578
-0.00725396762
-0.00726987295
-0.00705930983
-0.00704219857
-0.00725504892
-0.00726822297
-0.00705732157
-0.00704287999
-0.00725580114
-0.00726495298
-0.0070538769
-0.00704253272
-0.00726130294
-0.00723264194
-0.00704711623
-0.00715611867
-0.00728786201
-0.00728303152
-0.00726863541
-0.00728353284
-0.0072497503
-0.0070776098
-0.00704173322
-0.0070539098
-0.0071395072
-0.00727054433
-0.00717132876
-0.00704560226
-0.00716707569
-0.00726927896
-0.00711692351
-0.00704691167
-0.0072415648
-0.00728428393
-0.00727638331
-0.00724403466
-0.00706477895
-0.00704581845
-0.00721260389
-0.00725891371
-0.0070974984
-0.00704752053
-0.00722996536
-0.0072598082
-0.00706942141
-0.00704952014
-0.00725288491
-0.00726225516
-0.00705018103
-0.00705382403
-0.00727532084
-0.00730228076
-0.00722965589
-0.0070449052
-0.00704982637
-0.00726645231
-0.00726467418
-0.00705084277
-0.00705504552
-0.00727233358
-0.00729137071
-0.00719504872
-0.00704562052
-0.00705300552
-0.00728506906
-0.00729365402
-0.0071967235
-0.00704525757
-0.00705564074
-0.00726426998
-0.00725790143
-0.00704928224
-0.00705361962
-0.00726482948
-0.00726359528
-0.00705215468
-0.00705291799
-0.00726811533
-0.00726611814
-0.00704978805
-0.00705339035
-0.00727517929
-0.00727429877
-0.00706087976
-0.0070528324
-0.00727121601
-0.00727011591
-0.00704240162
-0.00706046237
-0.00727605433
-0.00722728593
-0.00704833688
-0.00713524217
-0.00728967504
-0.00728755168
-0.00724869556
-0.00717779671
-0.00704629915
-0.00704956029
-0.00729245152
-0.00717988554
-0.00705497853
-0.00725717759
-0.00725282962
-0.00704464228
-0.00707768443
-0.00727775026
-0.00725105748
-0.00704690408
-0.00705395593
-0.00729359073
-0.00717061579
-0.0070570383
-0.00725206283
-0.00724925829
-0.00704300682
-0.00705694402
-0.00726550238
-0.00725018942
-0.00704171403
-0.00705798464
-0.00726730543
-0.00725005314
-0.00704170658
-0.00705896609
-0.00726603815
-0.00724771071
-0.00704258838
-0.00706013162
-0.00726498733
-0.00724117669
-0.00704541723
-0.0070619774
-0.00729470995
-0.00730068754
-0.00727163745
-0.00727070574
-0.00726831047
-0.00719776941
-0.00704730676
-0.00704317032
-0.00705905029
-0.00726266494
-0.00725189887
-0.00704337265
-0.0070613472
-0.0072799481
-0.00728981384
-0.0072442498
-0.00716255863
-0.00704267737
-0.00706057146
-0.00726459211
-0.00724553025
-0.0070431906
-0.00706100386
-0.00726550209
-0.00724580883
-0.00704490675
-0.00706087846
-0.00728754096
-0.00721052639
-0.00706006485
-0.0072595827
-0.0072546482
-0.00704382403
-0.00706056133
-0.00727192638
-0.00725657477
-0.00704355946
-0.00706088489
-0.00728706849
-0.00729319273
-0.00727527409
-0.00722207276
-0.0070449392
-0.00704361563
-0.00705950666
-0.00726829904
-0.00725843202
-0.00704332216
-0.00706136054
-0.00727139747
-0.0072560689
-0.00704289708
-0.00706088715
-0.00727239912
-0.00725543952
-0.00704367686
-0.00705851697
-0.00728150261
-0.00728619486
-0.00727598409
-0.00722372166
-0.00704417244
-0.00704353026
-0.00705461899
-0.00726542793
-0.00725923644
-0.00704293947
-0.00705410522
-0.00728133998
-0.00728545759
-0.00727735669
-0.00722960358
-0.00704102003
-0.00704047809
-0.00704770121
-0.00725407168
-0.00724963299
-0.00703796109
-0.007048594
-0.00724913317
-0.00725586475
-0.00722133249
-0.00724842962
-0.00721375852
-0.00704054656
-0.0070448234
-0.00725734301
-0.00725109187
-0.00703903314
-0.00704653885
-0.00726502035
-0.00725839018
-0.00703956548
-0.00704727143
-0.00726615328
-0.00725977041
-0.00704054721
-0.00704746124
-0.00726591732
-0.00725945413
-0.00704199069
-0.00704576306
-0.0072727978
-0.00727723174
-0.00726538559
-0.00726351531
-0.00726564958
-0.00724530609
-0.00704213235
-0.00704690098
-0.00726142434
-0.00726346337
-0.00704001008
-0.0070474239
-0.00726183693
-0.0073000367
-0.00724767752
-0.00704317228
-0.00704168388
-0.00704333595
-0.00725890417
-0.00727862253
-0.00704082751
-0.00704457463
-0.0072709288
-0.0072700483
-0.00704193409
-0.00704277543
-0.00727785543
-0.00725607574
-0.00704032573
-0.00721893361
-0.00728192065
-0.00703990982
-0.00704438167
-0.00726739928
-0.00727731095
-0.00704040628
-0.00704494884
-0.00725991475
-0.00729544934
-0.00727098908
-0.00704209727
-0.00704410171
-0.00725023288
-0.00728991752
-0.00725897897
-0.00704424865
-0.00703968701
-0.00725594252
-0.00724818023
-0.00704051201
-0.00719642531
-0.00726894927
-0.00704213385
-0.00704056796
-0.00725953447
-0.00726551646
-0.00704275719
-0.00703966596
-0.00725580707
-0.00726025233
-0.00704202077
-0.00703986599
-0.00721915616
-0.00724930593
-0.0072169284
-0.00723624111
-0.00723111949
-0.00704096067
-0.00703914608
-0.00723170741
-0.00726519183
-0.00726669299
-0.0072669049
-0.00704157817
-0.0070436092
-0.00721241526
-0.00728301097
-0.00726354308
-0.00704546103
-0.00703934159
-0.00725163844
-0.00726106014
-0.00704601098
-0.0070412594
-0.00725005292
-0.00726396953
-0.00704431814
-0.00704469561
-0.00722131016
-0.00729486642
-0.00722429342
-0.00704609756
-0.00718545057
-0.00727538352
-0.00704417993
-0.00704368703
-0.00724728561
-0.00727690779
-0.00727921214
-0.00726944574
-0.00704454381
-0.00704082421
-0.00725377188
-0.00726129755
-0.00704570004
-0.00704087612
-0.00724794404
-0.00726042085
-0.00704305742
-0.0070441019
-0.00720739481
-0.00728511869
-0.00725718269
-0.00704420649
-0.00703899888
-0.00724294151
-0.00725614205
-0.00704307941
-0.00703990126
-0.00724568997
-0.00725849449
-0.00704131278
-0.00704150097
-0.00722312992
-0.00727559981
-0.00726996739
-0.00726932194
-0.00728709527
-0.00726456546
-0.00708355308
-0.00704420902
-0.00705459613
-0.0071196379
-0.00730229009
-0.00727913601
-0.00704544338
-0.00704192635
-0.00722005981
-0.00725831239
-0.00709560474
-0.00704678223
-0.00716006255
-0.00728899732
-0.00724945212
-0.00704446994
-0.0070931645
-0.00726547351
-0.00715353464
-0.00704550894
-0.00718195216
-0.00727881721
-0.00727502629
-0.0072627447
-0.00710962875
-0.00704171639
-0.00720156887
-0.00726464126
-0.00710801696
-0.0070426337
-0.00720443587
-0.00726577567
-0.0071182012
-0.00704243634
-0.00717580968
-0.00725397833
-0.00724054533
-0.00721664826
-0.00709262792
-0.00704370368
-0.00719737453
-0.00725672202
-0.00711363932
-0.00704640356
-0.0071972379
-0.00726050709
-0.00711887305
-0.00704767434
-0.0071907444
-0.00725563329
-0.00713422066
-0.00704698249
-0.00713239639
-0.00727897692
-0.00726512684
-0.00712385933
-0.00705252572
-0.00714249713
-0.00728160135
-0.00727722243
-0.00725918455
-0.00716007508
-0.00704803191
-0.00713530595
-0.00725451268
-0.0071798244
-0.00704583512
-0.00709377217
-0.00727904571
-0.00727908241
-0.00726689349
-0.00720214551
-0.00704385994
-0.00708778389
-0.00725777658
-0.00722132219
-0.00704422334
-0.00707516424
-0.00726523912
-0.00720546007
-0.00704858083
-0.00723438058
-0.00725631626
-0.0070397228
-0.00706105957
-0.00726877823
-0.00725872693
-0.00704011365
-0.00705579838
-0.00727138952
-0.00726193882
-0.00703974633
-0.00705213701
-0.007267878
-0.00726113334
-0.00703719026
-0.00704801211
-0.00721554249
-0.00729709189
-0.00726053753
-0.00704154274
-0.00704435753
-0.00726001109
-0.00725740343
-0.0071685688
-0.00726758608
-0.0072626974
-0.00703588494
-0.0070429021
-0.00721916245
-0.00727221684
-0.00717902663
-0.00704391085
-0.00712926238
-0.00727244945
-0.00718094604
-0.0070441236
-0.00711953921
-0.00727633138
-0.00724631785
-0.00704159991
-0.00705356488
-0.00726927579
-0.00731117238
-0.00721924432
-0.00704864528
-0.00708469766
-0.00727678395
-0.00725465453
-0.00704560108
-0.00704705682
-0.00727174514
-0.00727444152
-0.00704297266
-0.00704678417
-0.00725725899
-0.00730942479
-0.00726752295
-0.00705036929
-0.00704405319
-0.00710979399
-0.00726365612
-0.00726984597
-0.00704389216
-0.00705361087
-0.0072656878
-0.00722157531
-0.007044411
-0.00715074148
-0.00726295285
-0.00712576254
-0.007043741
-0.00721625608
-0.0072622201
-0.00704673479
-0.00704184751
-0.00716216445
-0.0072548692
-0.00726862366
-0.00726592098
-0.00729325037
-0.00723862599
-0.00706150713
-0.00703945342
-0.00706833284
-0.0072271748
-0.00730207009
-0.00729386806
-0.00712754045
-0.00704725207
-0.00719000372
-0.00726392708
-0.00711613828
-0.00704524957
-0.00719503218
-0.00726361946
-0.00710869204
-0.00704492595
-0.00718146178
-0.00726778382
-0.0071540686
-0.00704737695
-0.00714177655
-0.00727324806
-0.00721108638
-0.00704814766
-0.00710506502
-0.0072643144
-0.00729513847
-0.0072306819
-0.0070511943
-0.00709147359
-0.00726366043
-0.00722067876
-0.00704933745
-0.00709708307
-0.00725783426
-0.00720776778
-0.0070481817
-0.00709913697
-0.00725443638
-0.00721287871
-0.00704848258
-0.00708149575
-0.00724795615
-0.00723577885
-0.00704880245
-0.00704108773
-0.00721106972
-0.00727407274
-0.0072631531
-0.00726947646
-0.00727306542
-0.00718074414
-0.0070504057
-0.00704146223
-0.00711815822
-0.00725950826
-0.00727234031
-0.00727500791
-0.00719050182
-0.00704874404
-0.00712060057
-0.00725901129
-0.00717009448
-0.00704666411
-0.00715917578
-0.00727161455
-0.00712918835
-0.00703927735
-0.00722160338
-0.00722902061
-0.00704600186
-0.00714079419
-0.00726539491
-0.00715137472
-0.00704213478
-0.00717841745
-0.0072664144
-0.0071222064
-0.00704236397
-0.00719605832
-0.00726830653
-0.0071131053
-0.00704447687
-0.00719923182
-0.00729188221
-0.00727812512
-0.00728667738
-0.00727466487
-0.00712319947
-0.00704506141
-0.00704228237
-0.00704511567
-0.00724002012
-0.00726927133
-0.00705982443
-0.00704555143
-0.007255697
-0.00726395321
-0.00705284475
-0.00704459754
-0.00725453956
-0.00725919014
-0.00705116127
-0.00704699561
-0.0072302616
-0.00728165436
-0.00726869897
-0.00727638535
-0.00727202614
-0.00728644616
-0.00724324577
-0.0070529615
-0.00704417814
-0.00705149438
-0.00704624636
-0.00716513935
-0.00725170558
-0.00724068373
-0.00724370097
-0.00722278817
-0.00704878786
-0.00705051757
-0.00724151143
-0.00725410699
-0.00707521474
-0.00705271633
-0.00723167616
-0.00725881898
-0.00709357114
-0.00705285863
-0.00721400461
-0.00726017995
-0.00711626522
-0.00705000441
-0.00718233173
-0.00725330913
-0.00713598535
-0.00704797449
-0.00713697834
-0.00727205796
-0.00725297273
-0.00713038533
-0.00713771263
-0.00725832566
-0.0072567506
-0.00723829009
-0.00716405249
-0.00704300084
-0.00709367318
-0.00725898285
-0.0072182555
-0.00704191661
-0.00707946959
-0.00726645678
-0.00723897966
-0.00704186618
-0.00706647574
-0.00727309827
-0.00725121349
-0.007042493
-0.00705890138
-0.00728171957
-0.00722241653
-0.00704702541
-0.00726549596
-0.0072647543
-0.00704442434
-0.00705249575
-0.00727688155
-0.00727375279
-0.00704407412
-0.00705105245
-0.00729881882
-0.00729407613
-0.00704444854
-0.00704818013
-0.00727871585
-0.00727657355
-0.00704403704
-0.00704554831
-0.00727266906
-0.00727213814
-0.00704286808
-0.00704327067
-0.0072730403
-0.00727292291
-0.00704185434
-0.0070421549
-0.00727254218
-0.00727276898
-0.00704038206
-0.00704198567
-0.0072661459
-0.00726866277
-0.00703824771
-0.00704361404
-0.00723944087
-0.00727308717
-0.00725166398
-0.00727365713
-0.0072530769
-0.0070427287
-0.00703879664
-0.00724776311
-0.00725175437
-0.00704014187
-0.00703923109
-0.00725964579
-0.00726042897
-0.0070391675
-0.00704127771
-0.00725908624
-0.00726079586
-0.00703821651
-0.00704460305
-0.00721964116
-0.00726622495
-0.00725304683
-0.00727274529
-0.00725881126
-0.00728409553
-0.00725745476
-0.00704324717
-0.0070433766
-0.00704567672
-0.00727221968
-0.00728167188
-0.00703846337
-0.00704707121
-0.00722465818
-0.00727296975
-0.00723024898
-0.00704305271
-0.00704271545
-0.00726441104
-0.00717756567
-0.00704343338
-0.00724033009
-0.00725462943
-0.00703758468
-0.00704900235
-0.00725822428
-0.00725181644
-0.00703742481
-0.0070460595
-0.00724425981
-0.00726178816
-0.00716697425
-0.00704452315
-0.00704742091
-0.00727646456
-0.00729305487
-0.00727314486
-0.00729421424
-0.00725706009
-0.00704561752
-0.00705451374
-0.00726468919
-0.00725195924
-0.00704271408
-0.00705654672
-0.00726256272
-0.00725041893
-0.00704170525
-0.00705657003
-0.00726486955
-0.0072515957
-0.00704015179
-0.0070552925
-0.0072640232
-0.00724391359
-0.00703915541
-0.00705021938
-0.00726682633
-0.00727743701
-0.00725914185
-0.00726766775
-0.00719038259
-0.00704318862
-0.00705348382
-0.00725343974
-0.00724634157
-0.00704088564
-0.00705540168
-0.00727163252
-0.00726001554
-0.00704199205
-0.00705706157
-0.0072771254
-0.00726526066
-0.0070432937
-0.00705661803
-0.00727897685
-0.00726821717
-0.00704371065
-0.00705523626
-0.00728000435
-0.00727054082
-0.00704365707
-0.00705344772
-0.00728044592
-0.00727239475
-0.00704342603
-0.00705142978
-0.00728058496
-0.00727393275
-0.00704306971
-0.00704912784
-0.00728006544
-0.00727522465
-0.00704259301
-0.00704655891
-0.00727863911
-0.007275655
-0.00704199014
-0.0070438573
-0.0072755521
-0.00727473073
-0.00704145132
-0.00704184014
-0.00726986984
-0.00727024606
-0.00704287531
-0.00704222885
-0.00725719898
-0.00726009768
-0.00704426011
-0.00704294964
-0.00722714694
-0.00726088359
-0.00725711577
-0.00725823328
-0.00727002444
-0.0072657317
-0.00704702192
-0.00704235044
-0.0072454106
-0.00725690903
-0.00705134987
-0.00704206549
-0.00725284178
-0.0072642984
-0.00705455985
-0.00704350317
-0.00726032141
-0.0072798926
-0.00705634683
-0.00703837013
-0.00726038181
-0.00721878526
-0.00705072958
-0.00719009781
-0.00730592471
-0.00729372603
-0.00705178377
-0.00704738482
-0.00722091187
-0.00730107847
-0.00729672241
-0.00705459384
-0.00704429914
-0.00724593728
-0.00727019238
-0.00706076412
-0.00704282985
-0.00725068769
-0.00726994235
-0.00706833898
-0.0070430695
-0.00724691718
-0.00726837325
-0.00707369127
-0.00704408266
-0.00725224596
-0.0072601856
-0.00706315694
-0.0071868124
-0.00728636674
-0.00706669306
-0.00704702422
-0.00725175919
-0.00727531178
-0.00707046
-0.0070440629
-0.00725081365
-0.00727392787
-0.00706896152
-0.0070437557
-0.00725215085
-0.00727369629
-0.00706673149
-0.00704371513
-0.00725333033
-0.00727314793
-0.00706368167
-0.00704437737
-0.00725205849
-0.00727448499
-0.00705967162
-0.0070470547
-0.00722903359
-0.00729913599
-0.00729006387
-0.0070530882
-0.00704490869
-0.00723072289