/*--------------------------------*- C++ -*----------------------------------*\
| =========                 |                                                 |
| \\      /  F ield         | OpenFOAM: The Open Source CFD Toolbox           |
|  \\    /   O peration     | Version:  2306                                  |
|   \\  /    A nd           | Website:  www.openfoam.com                      |
|    \\/     M anipulation  |                                                 |
\*---------------------------------------------------------------------------*/
FoamFile
{
    version     2.0;
    format      ascii;
    arch        "LSB;label=32;scalar=64";
    class       volScalarField;
    location    "6e-05";
    object      T;
}
// * * * * * * * * * * * * * * * * * * * * * * * * * * * * * * * * * * * * * //

dimensions      [0 0 0 1 0 0 0];

internalField   nonuniform List<scalar> 
3810
(
322.63808
322.527883
329.118208
339.858217
340.044037
326.200947
327.910667
340.286441
339.891766
324.941959
326.111486
340.33749
339.932891
324.201831
324.99967
340.25418
340.04711
323.457349
323.567367
340.190164
340.237765
324.271786
324.210034
324.488493
329.030798
340.001126
340.336237
327.624713
326.784251
340.155736
340.317107
326.742355
325.506869
340.143938
340.395497
326.386902
324.902676
340.464824
340.516191
328.90999
327.875155
329.113101
329.107663
327.918669
326.398677
328.81253
339.902321
340.573983
329.697022
327.545791
340.062194
340.026284
339.814152
327.201298
323.018295
340.094001
339.986699
327.906892
323.74477
323.629452
328.34569
340.092491
339.745585
328.997156
320.9804
326.901692
339.789243
340.006223
339.907271
327.971344
324.733215
339.881971
340.176602
326.816894
325.138821
339.669621
340.395197
326.508662
327.555258
336.42717
329.013239
324.50283
340.192402
340.071266
324.932242
324.163533
325.40823
328.9664
340.177493
340.725803
327.643799
329.160733
340.262454
329.176468
325.75869
340.432894
340.175585
325.618724
329.085517
340.015338
329.391862
325.348017
336.093947
339.699858
328.714529
326.024629
339.785975
339.475342
325.130606
325.500291
340.050262
339.425862
322.611181
319.881045
329.165552
339.733626
339.536354
326.138076
326.990517
339.93338
338.820855
325.026881
326.885636
339.943945
338.987776
321.567553
320.435147
329.354522
339.661215
338.799254
327.020468
328.931249
339.89228
338.316718
326.637465
328.947758
339.803924
338.226626
326.558647
328.839085
339.759006
338.247132
326.735817
328.597469
339.682701
338.437118
326.970871
328.376159
339.691302
338.708934
329.310159
329.085146
330.731648
328.610197
323.638636
328.611798
339.723551
340.036605
333.440939
325.679902
327.130265
337.745855
337.468752
322.666831
321.088773
325.829322
326.289798
327.41491
329.788957
339.703126
339.225956
339.814541
338.09857
329.212352
326.149568
331.870877
339.055891
329.266116
326.020394
330.15441
339.19818
329.596941
325.371473
329.694759
339.318824
330.056633
324.384233
329.431078
339.204701
329.044892
321.947045
323.797991
328.790006
329.971953
340.18424
338.242562
329.251918
338.942321
338.555
321.197228
329.097572
339.613282
338.776036
324.038912
328.063631
339.931124
339.054969
324.495765
327.854355
339.945338
339.474415
324.075427
329.434273
339.708041
339.741
339.66862
320.445142
320.392578
329.755493
339.679491
339.797215
324.522883
324.554117
327.823082
326.622239
328.068237
326.804959
329.710234
340.21988
340.032197
340.253314
340.031015
324.318694
325.489367
340.274025
339.750153
325.604175
325.58369
328.917666
324.37373
328.825545
338.811503
340.180385
338.745589
323.122314
321.038119
329.038443
339.638489
340.147982
323.681665
323.563783
328.925738
340.142306
340.060482
327.550157
340.12022
339.884237
321.622555
321.123887
329.058811
339.61698
339.909132
319.045223
323.453461
339.872639
339.968147
339.698843
323.870753
320.402181
329.223272
339.697423
340.209698
325.978237
326.578157
340.172082
340.088916
328.410719
327.362794
329.077319
326.28219
328.91318
339.171975
340.153975
339.358519
325.293312
322.618357
340.460075
339.410232
325.061846
323.758545
340.727404
339.69911
325.563085
320.205261
327.927902
340.073333
340.245677
325.101724
326.052991
340.220255
340.054231
324.309576
326.870991
339.999733
329.394085
319.874178
326.554296
340.312679
340.068184
340.24936
339.758272
329.055446
323.724622
327.297351
322.549373
328.123235
340.063277
340.073723
339.601117
326.214785
328.468618
340.30027
329.144785
325.597072
340.357344
339.588968
324.52275
325.182297
340.548768
339.728619
324.904874
320.590787
327.503457
340.300777
339.838225
326.281074
322.978597
328.944945
340.143343
339.781633
326.505136
327.343712
340.283259
339.686445
325.719526
326.682605
340.257387
339.634292
325.233781
326.881502
340.338804
339.561063
324.996985
329.190838
339.900019
329.284724
329.016174
340.011958
329.140879
325.017386
340.178907
339.393399
321.465287
321.395344
324.892575
324.279926
330.458292
339.645569
339.755286
339.08102
324.861423
325.626534
339.826671
339.116485
323.589411
324.9786
339.850579
339.256445
321.876528
321.894361
325.428403
329.2988
339.826201
339.895957
339.797151
321.525859
321.390552
329.592815
340.208745
339.962943
328.90394
326.161847
328.95635
340.186126
340.384552
325.176934
329.125193
340.178515
336.193587
323.567172
329.789591
340.046141
327.772504
328.349224
340.427852
332.998542
325.50262
329.444383
339.777153
339.997337
321.094655
321.057475
325.207189
328.542512
336.586423
340.242093
338.782225
329.140491
322.533601
328.83657
339.896731
340.070091
320.718212
320.631209
327.640376
331.897341
339.434407
339.671497
339.5132
325.434833
326.863649
340.308594
339.222858
324.58117
327.500814
340.239641
339.587697
324.874303
329.342378
339.93204
328.669033
328.718348
340.445532
339.081562
326.281706
329.603601
340.588136
339.424495
328.042647
329.38094
330.379935
328.227433
325.410991
327.240933
326.925345
328.969628
332.63776
340.116293
339.09726
322.370125
322.065532
330.490433
338.494291
339.975267
338.67069
325.223231
326.904814
340.311937
339.346456
324.8793
329.550656
336.501037
329.598134
328.153685
340.250492
339.878353
324.859272
329.359317
339.329692
329.508407
327.501081
340.310044
339.351019
325.492333
328.045134
340.087319
339.272324
324.408796
327.92158
340.03377
338.252012
323.538837
327.856258
339.93271
337.950609
321.392235
321.270998
327.629973
330.105153
339.454353
339.973361
339.308666
323.980988
322.224834
329.795574
340.022332
339.685656
329.455256
327.351014
336.999119
339.328283
328.592791
327.011157
339.65651
338.352382
321.880662
321.925921
325.759644
325.689575
329.975782
339.752855
339.585549
339.631097
334.624346
325.080927
329.966842
339.587555
337.331908
320.638878
320.411333
325.965763
324.84934
329.592253
339.706743
339.204021
339.793804
338.171511
325.018139
329.269151
339.897757
338.588478
326.555381
330.087627
339.85336
338.342599
322.186763
321.981332
326.669473
324.776907
329.400717
339.552043
339.24662
339.55202
338.57531
322.409098
326.484022
339.59309
338.604327
318.139106
317.904311
329.670497
339.317979
339.704795
339.013474
319.268177
319.228869
326.188319
329.536736
339.710933
339.804912
339.340834
326.442372
326.79319
339.894639
339.237974
324.605688
326.506709
339.92613
339.232517
321.146567
321.075115
324.874299
329.331687
339.88797
339.999988
339.581423
325.78345
326.052533
340.162072
339.568712
325.421336
327.039622
340.25569
339.576253
325.066269
327.005112
340.297496
339.635617
324.525986
327.015974
340.276012
339.659155
323.799917
329.766055
339.84353
323.763869
323.748342
326.698134
326.489037
330.289962
339.908219
339.731733
323.722039
323.718643
329.232267
339.918156
340.092329
339.633114
325.0952
325.492798
340.173625
339.646289
323.874173
323.878001
326.205103
329.181685
340.214408
339.73136
326.392018
329.351997
340.396159
339.626112
324.319441
324.282004
328.819435
340.073446
339.97525
325.619944
328.241384
340.20842
339.864227
325.27555
327.044292
340.272823
339.763747
324.646881
326.375077
340.297634
339.731925
324.527781
324.512591
325.813782
329.151893
340.200187
339.773573
327.020999
328.846609
340.180296
339.620686
326.526777
328.022626
340.144134
339.509796
325.202491
327.005614
340.067733
339.453333
322.783241
322.742117
323.223106
324.475559
323.209823
328.081294
340.019243
339.77928
339.96505
339.50037
324.846962
326.007776
340.060082
339.625533
325.262495
326.364041
340.144527
339.689501
325.228694
326.323595
340.203759
339.772945
325.241626
326.254918
340.229415
339.85751
325.423263
326.423608
340.226102
339.915814
325.310807
326.895594
340.172169
340.00347
324.633427
328.977681
340.086738
328.980961
322.239788
326.861642
321.76297
327.155603
340.120104
340.214529
340.080867
326.897953
325.552852
340.223518
339.886578
326.285231
326.399433
340.397831
339.865995
325.255936
325.592127
340.478993
340.030503
324.56286
324.135791
340.428042
340.066454
325.452683
322.610161
324.967006
340.068599
340.348855
327.269982
325.310879
326.673861
326.061273
340.291115
340.216965
327.647231
326.687264
340.410685
340.172662
326.731277
325.479061
340.421207
340.157789
327.09357
324.983159
326.036627
325.072207
340.273108
340.132015
327.868328
326.252364
340.239062
339.990045
326.228468
325.292278
340.162289
339.827991
325.053252
322.763622
339.937844
339.748283
324.160149
316.909706
321.388503
339.755034
339.741402
339.823539
325.931887
322.155485
339.739741
339.685127
326.067286
325.034393
339.821024
339.6971
325.494458
324.608962
339.755924
339.650156
323.57313
323.368979
339.54941
339.546726
317.825957
318.312217
339.425231
339.462579
339.567836
323.049272
319.544431
339.703645
339.267454
325.336709
323.212676
339.975955
339.643791
326.087059
321.65478
322.217081
339.831553
340.156673
327.770586
325.456735
340.025837
340.104021
326.399427
326.17015
339.877705
340.003895
332.373875
325.692716
323.936177
321.953994
322.091613
340.012458
340.016692
340.046379
329.093802
322.365927
322.990986
340.149285
340.008025
329.197084
324.204467
324.234949
339.902517
340.315224
329.08326
325.847031
339.977677
340.292095
327.283096
325.371263
339.880699
340.26832
326.752699
325.092207
339.753553
340.167114
326.715408
324.909765
339.720792
340.015592
326.68919
323.976968
339.732841
339.808078
328.872703
323.274637
320.14352
320.221878
339.56709
339.710315
339.630779
329.28015
322.06239
340.043375
339.543103
328.988165
321.145162
322.241765
339.550733
340.159882
329.247446
325.507548
339.681724
340.186065
327.235126
324.901211
339.689301
340.163292
326.574137
324.356069
339.758786
340.081608
326.607179
323.519665
339.849048
339.975669
329.462043
324.130237
322.688165
322.73334
339.467824
339.903264
329.758055
326.308494
339.623522
340.093485
327.827845
325.028697
339.808954
340.159845
327.030694
323.704238
339.945456
340.05268
329.411735
324.25425
322.32931
322.379064
339.504237
339.937676
329.705792
326.785429
339.699901
340.211463
328.821068
325.946114
339.793226
340.277768
328.883773
325.449928
339.257538
340.152304
329.935464
325.128591
335.001414
339.994901
329.324337
324.299192
333.694181
339.779567
329.518641
324.088169
325.384415
322.595844
322.695679
339.315093
339.943724
329.889044
327.002569
339.666282
340.299604
329.96929
325.675719
335.891559
340.207762
329.706558
325.158642
335.849305
340.181616
329.586967
324.880071
335.361532
340.19018
329.45678
324.715379
334.656893
340.244791
329.338203
324.816396
334.175153
340.232832
329.100828
328.183984
340.119281
329.569711
322.497754
338.857555
339.77535
328.659191
324.412171
340.167098
339.69585
329.347403
320.389935
322.589891
339.697591
340.06509
329.885644
325.71523
339.697515
340.260256
328.147511
325.016564
339.995514
340.145158
329.666073
324.300875
324.303398
324.705459
339.791074
339.825733
329.571033
324.061694
322.00796
322.571261
339.784119
339.815811
339.681135
328.978001
323.827814
328.838571
339.334646
340.578913
329.875041
326.035529
339.143941
340.439918
328.208449
325.081755
338.93457
340.365913
327.753693
324.729511
338.669408
340.38033
327.444317
324.553677
338.372332
340.713009
325.337469
328.928177
339.745819
329.051825
325.307467
338.476498
340.220824
328.316316
325.794906
338.497795
340.25863
327.863713
326.365411
338.681106
340.201552
327.630944
327.274308
339.011316
340.27253
326.712707
329.348214
339.696843
330.334243
322.470209
323.548926
325.731335
324.4934
328.677132
336.420162
340.239076
338.983818
330.822836
326.058124
329.566023
339.835601
329.607399
325.750371
332.563459
339.741158
329.19626
323.291102
324.989205
329.201741
337.922086
339.827375
329.229678
327.298371
334.304032
339.666846
329.383981
327.314686
337.356381
339.46729
329.370646
327.170171
339.474503
339.043255
325.30247
321.069884
328.872928
339.961681
339.482337
327.172795
326.749581
339.37403
338.918903
325.88503
322.73074
329.373096
339.857095
339.170257
323.367786
322.314951
329.318359
339.895038
338.88093
327.376846
327.894648
339.524909
339.059722
327.714061
327.066539
339.247224
339.126871
327.200513
326.633759
339.491672
339.07749
326.21567
325.554907
338.341446
339.124002
326.362909
326.213596
340.250592
338.420319
324.960061
329.580617
339.575964
331.13377
322.328111
322.906124
329.28284
329.971883
339.764173
339.59396
322.483337
329.736202
338.950324
327.935185
329.548571
339.965436
336.248627
324.393209
329.655241
339.725191
339.135464
322.30892
330.067059
338.727499
328.781377
330.278925
340.133699
338.770726
325.989999
330.053368
340.279374
338.676797
325.579575
330.089316
340.274749
338.574708
325.843809
330.179055
340.16898
338.446378
326.289612
330.145149
339.867897
338.25342
321.524888
321.356069
325.439679
325.731833
326.010358
329.322522
339.60698
340.114327
338.548046
326.551416
329.726626
340.087003
338.315006
323.669231
323.572013
329.059575
330.600343
340.148461
338.38123
326.209929
330.153712
340.09982
338.3543
326.173195
330.147846
339.908122
338.39538
323.094641
329.38636
338.397016
327.403069
329.062161
340.05197
338.393788
324.963313
328.958179
340.065683
338.38194
322.487118
322.416753
324.486815
329.173322
339.861347
340.099363
338.485471
325.626449
328.505248
340.103919
338.30861
325.017891
329.011869
340.138004
338.364281
324.861419
329.029865
340.041024
338.617103
323.502994
323.492894
324.458336
329.143691
339.956693
340.097041
338.98197
326.087066
327.959706
340.129081
339.05676
323.274849
323.234664
323.905896
328.935069
340.303828
340.425629
339.695736
327.353678
328.91941
340.643442
339.601875
327.925099
328.014247
328.69935
328.850112
328.848661
340.388574
339.976092
326.892765
328.39551
340.554461
339.811485
325.5177
327.359038
340.490762
339.731015
325.46996
327.267242
340.375658
339.700089
325.688564
327.283267
340.200186
339.862956
324.806393
324.420329
326.141093
326.561508
326.157438
329.312671
340.219066
339.686826
326.444567
326.879499
340.410412
339.686643
326.043272
320.764611
328.418869
340.116742
340.283029
340.076964
326.903411
323.954134
340.347844
339.944087
324.910472
325.306587
340.223654
340.13971
323.849528
327.544595
340.374217
328.964022
323.277213
340.469502
339.956603
325.361532
324.368127
340.400302
339.952429
326.62619
321.275485
325.036108
340.248941
340.0234
328.046832
322.378366
326.564778
340.032128
340.4505
327.611088
328.689982
340.358444
329.155382
325.073794
340.277255
340.371476
326.888666
325.62384
340.199244
340.477641
327.470636
326.425008
340.254066
340.454684
328.86379
328.438742
328.838706
328.992932
328.800368
340.3386
340.516035
328.788107
325.898843
325.432196
325.856869
340.296539
340.066383
328.76678
323.392494
325.799789
339.906407
340.510492
328.355099
326.352943
339.854338
340.306605
328.384701
326.394473
340.025127
339.963197
328.782256
321.538001
328.788424
339.809054
329.266311
324.565359
340.064086
340.06164
328.778621
324.329769
323.861691
325.426644
340.002024
340.345546
327.95917
326.38377
339.886614
340.342938
328.779269
326.941383
340.160744
340.01186
328.905235
323.044065
327.002642
340.021918
340.560617
329.281576
327.122729
340.18608
340.450748
329.446893
327.001137
340.380068
340.286265
329.137411
324.349763
325.653157
325.408497
323.433988
326.200921
335.700589
340.001748
338.907585
332.245672
321.099733
323.66499
339.943512
340.258769
329.544045
327.498139
334.436633
339.703014
330.155698
322.934717
328.939784
340.022552
334.674854
326.657072
330.420478
339.845591
329.320133
324.036807
324.532513
326.605178
333.139409
340.272598
329.10828
326.341377
333.266319
340.184329
328.975889
326.154527
332.445445
340.200582
329.388697
327.954331
329.379601
328.993619
334.787363
340.091515
328.944367
327.582828
332.823661
339.823452
328.745173
326.939079
332.422993
339.684879
328.841723
327.558115
331.580376
339.710493
331.21708
324.227123
326.522204
332.284678
339.147351
330.568447
323.918214
324.457952
327.024736
330.246344
339.625285
330.978694
327.726276
329.89587
339.808889
334.631987
324.257531
324.526588
325.699062
329.231696
340.048191
335.181105
327.258864
329.619098
339.974341
336.685547
326.25696
329.171377
339.582203
329.04674
327.646722
340.49799
338.324309
324.997908
327.866782
340.457852
338.857092
324.750245
327.162783
340.486498
339.221643
325.102302
327.342295
340.711838
339.655319
328.7017
321.054774
326.292179
340.301194
340.028607
326.66416
328.040724
329.717997
325.975813
326.148604
340.940326
340.15233
328.797669
325.102089
329.466849
340.008837
331.618879
324.950886
329.454501
339.982137
332.386544
324.284071
329.87349
340.283089
339.121587
324.844993
319.598601
329.096371
339.526753
335.547033
324.673298
329.119054
339.851053
339.762815
325.122376
326.186226
340.138189
339.793748
327.080159
319.934914
325.677239
339.398634
339.994607
333.28931
326.398909
326.906469
340.069084
339.119756
326.008825
329.33674
339.977302
330.637635
326.560739
331.854606
340.031987
329.412504
326.636902
339.871658
340.244737
330.385751
327.528948
326.440159
325.560339
322.711944
328.760214
338.236744
340.474193
337.509404
328.87568
321.326923
321.553598
331.606295
339.689426
329.516972
326.677579
332.482501
339.888111
329.495129
326.557381
333.042093
339.927427
329.566021
325.976027
330.025067
339.67777
330.956309
325.226489
328.86898
339.62951
333.628004
325.80004
321.750309
328.82766
339.320812
334.847871
326.738808
328.998643
339.490017
334.31907
327.480309
328.957546
339.601093
334.142235
327.957851
329.101394
339.561604
335.960155
329.06796
329.427031
339.545112
340.362318
328.857337
325.174667
326.390137
325.698896
325.068679
329.229509
339.358636
340.287903
332.581688
326.816582
324.780152
324.75627
328.990027
339.526463
332.345179
327.399026
329.615494
339.731781
330.240272
324.875044
331.536749
340.544048
328.932442
328.953925
339.840268
331.004702
325.90333
330.272178
340.223856
329.457109
325.753605
332.083873
340.180544
329.233167
325.698155
332.833552
339.958498
329.038146
321.849181
323.604261
322.774398
324.399151
332.079835
339.926705
340.201613
339.954169
329.398022
325.952013
338.463179
339.879274
329.224076
326.875642
339.177923
339.979323
329.522318
327.835254
339.351089
339.715981
329.345257
324.156423
325.558503
324.865696
324.759803
323.620266
328.824097
339.133117
340.009303
339.24822
339.809941
329.925072
328.86951
329.299965
329.673292
329.135521
339.597869
339.418306
329.376425
328.461584
336.631111
339.185427
328.900383
327.513861
334.630974
339.166469
328.462917
326.962088
332.619954
339.45226
328.749844
327.770412
331.515421
339.616517
330.972075
325.244494
328.156002
331.672754
331.059467
327.658143
327.908137
328.980424
330.257412
340.160456
334.465861
326.762015
329.408203
340.271514
336.095382
325.534567
329.467447
340.261394
337.7136
324.515124
328.741637
340.168125
338.564479
323.246679
329.233598
339.671945
326.60488
326.276704
339.989529
339.131985
324.230186
325.093699
340.0486
339.288827
320.407244
321.468918
339.967749
339.614712
324.028416
324.464268
340.002349
339.857943
325.034036
325.015118
340.14024
340.091475
324.843845
324.672791
340.261096
340.213719
324.739321
324.585504
340.418957
340.238122
325.558717
325.433687
340.612277
340.091812
328.746007
325.122874
327.601941
325.046926
327.348055
340.177701
340.535636
329.067311
327.69201
340.44748
340.503925
326.810369
326.371482
340.542549
340.296011
326.746958
326.750624
340.597092
339.949396
328.884011
326.36851
327.845049
325.291406
327.021694
323.322602
327.183814
340.067989
340.1322
339.802143
324.671806
323.395147
340.577946
339.734689
328.876277
325.276001
328.902647
340.135168
340.22718
326.013984
329.580073
340.053993
328.979081
327.553446
340.715065
339.529345
326.437977
328.155999
340.696187
339.842599
328.983804
326.859713
329.967158
339.946847
339.705949
324.585956
322.145076
324.856742
321.900012
327.33222
339.855848
338.993911
326.419153
329.225186
340.148064
338.784783
326.4967
329.595265
340.267336
338.793857
325.93233
329.328768
340.441422
338.942464
325.733176
329.563582
340.527149
339.444308
325.642951
324.645165
326.832196
325.877852
329.440895
340.110071
339.108221
327.994956
329.79094
340.364968
338.940476
324.794803
328.310433
340.250542
338.763444
324.096952
327.64001
340.106199
338.80184
323.899342
327.128671
340.059671
338.93841
323.729577
326.613128
340.064615
339.116874
323.618597
326.111446
340.088716
339.317198
323.53899
325.611352
340.12576
339.545573
323.551661
325.110695
340.174213
339.799969
323.703249
324.730336
340.234017
340.065645
324.13195
324.602497
340.282037
340.25592
325.062145
325.173716
340.120428
340.201594
327.251589
326.929162
339.966871
340.125534
329.071718
326.979695
327.539232
327.406061
325.712154
326.156632
339.724703
340.163676
329.567528
327.400147
339.308074
340.206305
329.168756
326.293476
338.992171
340.068668
328.198201
323.569291
338.823298
340.674375
327.481435
328.852326
339.341808
329.250222
320.323809
321.740542
339.274518
339.684141
329.252263
321.056496
321.166317
338.998172
339.988683
330.070776
325.304016
338.38817
340.1565
330.263305
325.362837
337.440913
340.131853
330.239596
325.6546
336.782708
340.021568
329.811809
327.388786
338.058615
329.689241
323.700744
337.654097
339.698768
329.822472
324.672779
337.167782
340.031403
329.954367
324.730846
337.358757
340.060494
329.797101
324.755432
337.644137
340.059777
329.604265
324.879857
338.038861
339.982854
329.551872
324.908298
338.482673
339.72257
329.34786
321.322993
322.368722
339.129132
339.923689
329.321826
324.59809
323.767356
323.734907
338.701277
339.994618
329.671429
325.621982
338.770692
340.230717
328.483749
325.347591
338.614973
340.124854
328.014123
327.229991
338.930714
329.775725
324.711997
339.140556
339.878956
329.830482
326.706247
339.091318
340.140758
329.911602
326.667801
339.590578
339.98635
329.319474
324.928073
326.50916
323.531375
324.39864
339.943645
339.94166
329.627595
327.471247
331.245189
339.617311
330.289375
321.809184
323.600461
340.250894
340.281979
329.440082
326.211392
329.459668
340.293913
331.943255
327.031469
329.813561
340.294622
331.696978
327.630366
327.785125
326.899223
327.732992
336.964946
340.356637
329.38749
325.99834
330.408883
340.359161
329.551435
325.45589
331.374335
340.276205
329.041504
325.548349
331.375041
331.225622
327.710877
331.18399
339.77967
328.903994
322.054154
326.858263
336.382503
340.007318
329.131248
328.217454
330.700939
329.568548
328.827868
334.488041
339.625598
329.442996
327.261258
337.52405
339.29326
329.009859
327.084895
337.640375
339.087617
328.899672
327.069277
337.053806
338.904348
329.260563
327.064694
336.079569
338.763533
329.08483
327.023745
334.817369
338.703532
328.736108
326.930399
333.355448
338.781669
328.564933
326.849947
331.863264
339.037372
328.956494
327.121812
330.808283
339.091794
329.703473
323.511138
324.184001
326.732249
329.987073
339.687314
333.642846
323.079414
323.575317
329.419687
339.667294
336.48075
326.982206
329.631074
340.060676
337.782749
325.914725
329.277204
339.481757
328.750471
328.404998
340.435944
339.122103
326.4689
328.360742
340.608442
339.323398
326.746829
328.8757
340.548926
339.826475
327.31945
326.071673
326.362723
328.148776
340.513254
339.960219
328.881756
326.819854
327.471001
326.800029
325.84848
327.405442
340.231892
340.05332
327.923246
327.997485
340.363506
340.076726
326.823646
327.068815
340.410818
340.094292
325.896984
326.199925
340.363859
340.065514
325.252703
325.525762
340.293969
340.022771
324.818038
325.050292
340.243905
339.998934
324.495883
324.741869
340.227753
339.994884
324.588073
324.813154
340.136862
339.985043
325.624831
323.391052
322.81769
323.345239
340.034378
340.019473
324.551625
324.52881
340.027291
340.0317
324.601809
324.498074
339.977675
340.044343
324.421305
324.217976
339.90218
340.065957
324.517566
324.19485
339.843667
340.08133
324.652407
324.220579
339.781744
340.082416
324.896111
324.373239
339.716349
340.070444
325.179646
324.570938
339.653923
340.059054
325.260326
324.511023
339.62019
340.110182
324.809133
324.013805
339.58544
340.137874
325.390959
326.982144
339.875515
330.104664
322.19826
323.59481
339.927176
339.993958
329.06619
325.64861
325.666278
325.177065
339.961523
339.810165
328.943424
324.302065
324.735722
339.793134
340.232695
328.343725
325.652266
339.993429
340.238756
326.303271
324.590776
340.217374
340.270631
325.841271
327.574538
340.410685
328.988492
324.185171
340.503971
340.293706
326.034383
324.867496
340.536356
340.295921
325.915619
325.600263
340.562502
340.1708
326.697929
326.73029
340.79925
339.916
328.929718
326.646995
327.658691
324.756984
326.492506
340.381889
339.783792
328.176109
327.299662
340.995147
339.538222
328.748939
320.836165
324.304003
340.328664
339.346911
326.977742
327.649977
340.613163
339.210611
327.245919
328.938646
340.868454
339.697335
328.902819
327.116605
328.08581
326.148144
328.868977
340.311366
339.463152
329.097678
329.098777
340.698288
339.367539
326.481035
328.159099
340.84256
339.690146
327.106563
322.235419
326.671955
340.237529
339.67523
326.796989
327.699362
340.56709
339.80787
326.41439
327.672921
340.608035
339.959958
326.905735
327.951493
340.684852
340.138515
328.782448
326.733961
328.887655
327.449239
328.815305
340.268342
340.42935
327.256091
326.851564
340.42276
340.337356
325.940746
322.222138
326.904088
340.09225
340.365379
325.588892
321.822966
327.384507
339.981038
340.554054
326.240593
325.971477
339.871127
340.13937
325.090771
321.406751
328.582083
339.724522
340.677216
327.6568
326.937555
339.669482
340.455898
328.297451
328.237165
339.633951
340.189248
327.00599
324.942812
328.048429
327.906502
329.331293
339.696192
340.542505
328.484833
327.535516
339.579047
340.274635
326.473131
326.476386
339.626152
340.169622
325.375671
325.797621
339.683107
340.100168
324.67855
325.436798
339.833716
340.067106
324.179079
325.336171
339.940316
340.043148
323.493514
325.935196
339.880752
339.724377
320.007647
319.304123
329.315317
339.590015
340.099084
324.409647
326.964304
339.87305
339.693319
324.958321
326.898144
339.9487
339.487946
324.293002
326.443752
339.919139
339.434396
321.590419
321.527757
325.862062
329.488765
339.947979
339.844126
325.617299
327.537499
340.087105
339.735281
325.288901
327.21204
340.108972
339.673804
325.059072
326.985218
340.085672
339.687024
324.953691
326.642411
340.019412
339.7002
324.208751
326.39976
339.985862
339.683233
320.707743
319.311261
329.199325
339.608783
340.192598
321.506698
320.317538
329.235804
339.73449
340.355447
325.375005
325.920842
340.068045
340.151178
324.998211
325.59101
340.09793
340.125466
325.205911
325.348327
340.092079
340.090014
325.541004
325.251023
339.952434
340.094939
326.000187
325.2685
339.851598
340.07492
326.656669
325.319136
339.655254
340.037079
327.622304
325.322814
338.978848
339.981084
329.132482
325.129251
336.505895
339.792725
329.806692
323.791526
338.167174
339.786053
321.973422
321.879928
325.789467
329.573803
339.05692
339.770539
329.136967
326.186811
331.647216
339.401755
328.529371
320.30399
327.372774
338.76975
339.776757
329.332031
325.83663
330.333499
339.588206
330.106738
326.027702
329.963391
339.607806
329.65579
326.658273
332.622289
334.863143
328.74925
329.082865
339.872448
331.999033
325.99709
329.311948
339.691662
332.559185
325.707408
329.287501
339.823634
333.78507
325.426957
329.378695
339.961619
335.402709
325.121628
329.394082
339.990107
338.530886
322.147013
321.580896
328.912831
340.047901
339.241975
325.124823
321.897638
328.628681
340.148231
339.876863
327.40925
326.011002
326.69536
328.980542
340.076049
339.750289
326.408232
326.52552
339.983691
339.834368
324.646479
324.898109
340.026907
339.594525
322.919409
318.935749
322.247047
339.844841
339.999404
325.452468
325.330557
339.970574
340.200256
326.949967
326.172345
340.058375
340.310148
327.114612
326.583176
340.139355
340.270115
327.134392
326.571185
340.373875
340.144639
327.046451
324.177145
326.850225
325.340865
328.607225
339.962177
340.742816
328.335444
326.441919
340.120491
340.687041
326.883508
325.498966
340.134227
340.608449
326.591245
325.359342
340.096591
340.52612
326.926091
325.817702
340.042612
340.398547
327.245693
326.145011
340.240676
340.242434
327.967063
324.388314
326.700182
325.20593
328.544081
339.865273
340.753972
329.393632
327.028002
339.612673
340.697134
329.122431
326.577281
339.39207
340.589855
329.464996
326.980278
339.138369
340.434538
329.424958
327.503632
339.01336
340.27966
328.818734
326.044157
326.817686
326.502757
327.55412
326.592962
326.599433
338.703356
340.545725
329.489953
327.885607
335.778322
340.421642
329.500395
327.562751
333.98353
340.190719
329.570083
328.103725
332.623675
339.93423
329.858819
328.890828
331.776745
339.714024
330.875555
328.901075
327.863484
326.385846
326.131765
330.678904
339.723559
331.556139
328.835769
326.140726
325.29951
329.366384
339.667203
330.877006
327.659019
329.907799
339.990503
330.481544
327.165846
330.155789
340.174438
330.130132
326.975804
330.734348
340.294215
329.898368
327.17615
331.01532
340.273878
332.290094
328.051262
326.759674
325.765379
325.303766
330.506216
340.126124
329.851971
328.322693
333.485774
340.10568
329.434865
328.56187
331.341789
340.28
336.502007
327.447276
325.565492
326.266012
326.069278
330.888549
339.988985
329.872379
328.871486
333.663866
340.039195
329.540811
328.957815
330.691907
340.330913
339.683949