/*--------------------------------*- C++ -*----------------------------------*\
| =========                 |                                                 |
| \\      /  F ield         | OpenFOAM: The Open Source CFD Toolbox           |
|  \\    /   O peration     | Version:  2306                                  |
|   \\  /    A nd           | Website:  www.openfoam.com                      |
|    \\/     M anipulation  |                                                 |
\*---------------------------------------------------------------------------*/
FoamFile
{
    version     2.0;
    format      ascii;
    arch        "LSB;label=32;scalar=64";
    class       volScalarField;
    location    "0.00098";
    object      H2O;
}
// * * * * * * * * * * * * * * * * * * * * * * * * * * * * * * * * * * * * * //

dimensions      [0 0 0 0 0 0 0];

internalField   nonuniform List<scalar> 
531
(
0.000773440423
0.00762313532
0.0077979325
0.00570979885
0.000973143305
0.00173279768
0.00693780413
0.00591010058
0.000943396247
0.00231463634
0.00677749913
0.00550109706
0.00091901904
0.00133861677
0.00729171776
0.00734318997
0.00492869253
0.000924349496
0.00281787206
0.00649914132
0.00513087971
0.000858531383
0.00171746766
0.00706195653
0.00711589985
0.00464191445
0.000884398704
0.00280707779
0.00621166958
0.0049349635
0.000830207271
0.00174856917
0.00684448458
0.00694592706
0.00450948444
0.000884230912
0.00177537112
0.0068012428
0.0072104671
0.00699123896
0.00536414801
0.000980606332
0.00101083929
0.00097758524
0.000976793636
0.0019744601
0.00663411388
0.00709027825
0.00704913165
0.00704100429
0.00608746986
0.000843953885
0.00101240715
0.00157369907
0.00629932197
0.00703922802
0.00558015969
0.000832176441
0.00114540335
0.00623244786
0.00706634341
0.00589057787
0.000836136912
0.000900839603
0.00596877715
0.00715901807
0.00709788485
0.00650792317
0.00132799792
0.00103150273
0.00100787479
0.00102484251
0.000832611724
0.00543835184
0.00720112787
0.00720011467
0.00661684476
0.00088836728
0.000871536763
0.00551479483
0.00713477653
0.00664279366
0.000803812346
0.000916019809
0.00524515384
0.00707624597
0.00661895488
0.000839704355
0.000954342829
0.00512727228
0.00705607947
0.00668482706
0.000827576208
0.000977384264
0.005042657
0.00706953747
0.00719833926
0.00691496514
0.0010524422
0.000963279122
0.00607072106
0.00672112085
0.0010543882
0.00098048722
0.00632936869
0.00682533905
0.000741028895
0.00100258408
0.0054289124
0.00744419519
0.00700888046
0.0009204791
0.00105424903
0.00472470244
0.00679934921
0.00632943785
0.00102499105
0.00107016013
0.00505856515
0.00727899717
0.00706045645
0.000968460405
0.00105457195
0.00507871279
0.00687675881
0.00738861435
0.00725605118
0.000906811172
0.00100260223
0.00646993276
0.00707633814
0.00132092513
0.00100035192
0.00641960114
0.00708805908
0.00110951241
0.00100992843
0.00645706735
0.00701727193
0.000737904907
0.00102352321
0.00653909383
0.00692758663
0.000819842612
0.00102369806
0.00557712003
0.00745133273
0.00727931647
0.000943361937
0.00102727946
0.00637859582
0.00681255265
0.000846301362
0.00103204355
0.00545163927
0.00738390457
0.0071194258
0.00094395488
0.00101781686
0.0053431346
0.00740811396
0.0071413334
0.000942290084
0.00104063084
0.00621504201
0.00663173044
0.000873008559
0.00104745286
0.00524220302
0.00724074683
0.00689339572
0.000964977868
0.00104188616
0.00502027767
0.00717154737
0.00679337835
0.000985152529
0.00105658467
0.00522364025
0.00694478427
0.00720811605
0.00705040036
0.00130573214
0.00110037788
0.00100013731
0.00642744371
0.00659338315
0.000917494317
0.00105759271
0.00544906992
0.00694636804
0.00720912985
0.0065976888
0.000927214906
0.00113363345
0.00101366647
0.00543544433
0.00702849264
0.00691669219
0.00735521656
0.00704255688
0.000954739199
0.00100296636
0.00630790973
0.00704813777
0.00238964529
0.000985430001
0.00589815392
0.0070344227
0.00194322526
0.000994913491
0.00589346967
0.00690299659
0.00209058999
0.00102609457
0.00474211459
0.00696815366
0.00582744043
0.00105942418
0.00103068349
0.00635508763
0.00737445616
0.00652423387
0.00100253531
0.00100944864
0.00614731479
0.00740968739
0.00650979248
0.000999592701
0.000983302477
0.0065966038
0.00743920405
0.00543530073
0.000972302886
0.00255517258
0.0069673164
0.00590664099
0.00103470617
0.000803561531
0.00723036524
0.00746798107
0.00386406984
0.000977062623
0.00417715499
0.00693959993
0.00422077635
0.000993010421
0.00414632855
0.00671027771
0.00357531096
0.000972276895
0.0045534351
0.00726992779
0.00700146987
0.00237484701
0.0009521085
0.00500541307
0.00652080524
0.00260989622
0.000958765496
0.00491859611
0.00720345886
0.00660259315
0.000857168151
0.000933297914
0.00547264553
0.00712919384
0.00643035408
0.000883410737
0.000938882926
0.00544322133
0.00710224378
0.00711981978
0.00692897715
0.00291961636
0.00104179204
0.00103472257
0.000993903325
0.00105381877
0.000860815645
0.00583878196
0.00692710037
0.00685885591
0.00693754775
0.00698103716
0.0071843744
0.0059604743
0.000946557947
0.00088117975
0.00627434006
0.0072273607
0.00595087855
0.000941058265
0.000995458522
0.00652356533
0.00610977328
0.000899708235
0.000950245174
0.00645799178
0.00589888291
0.000919240281
0.000861040366
0.00662779304
0.0074155913
0.00619946877
0.000950480715
0.000949668633
0.00647421401
0.00586700352
0.000952469067
0.000894665979
0.00644550776
0.00725161056
0.00589124762
0.000978000264
0.000903657745
0.00631108058
0.00722086
0.00592833015
0.000983312283
0.000925202715
0.00620973865
0.00721018017
0.00601455231
0.00098504847
0.000943725862
0.00612042611
0.007211992
0.00612606998
0.000982276469
0.000963416086
0.0060224967
0.00721141648
0.00623572762
0.000974700488
0.000980283892
0.00592553373
0.0072151899
0.00639669206
0.000959373452
0.000978841027
0.00582876577
0.0072421172
0.00655798323
0.000938861157
0.000972822294
0.00579558265
0.00731102438
0.00680251507
0.00090247937
0.000930669341
0.00639418089
0.00657540666
0.000822168252
0.000994367199
0.00521702655
0.00717976701
0.00687815789
0.000857686658
0.000982074638
0.00519400659
0.00726564935
0.00699927099
0.00081946912
0.000984843258
0.00496511865
0.00737808632
0.00738051901
0.00183895891
0.000887847105
0.000927412849
0.000658027361
0.00715771337
0.00741339026
0.00054524093
0.000899371507
0.00531906935
0.00802738379
0.00785733136
0.000500555671
0.000888568248
0.00192690284
0.00812038778
0.00829857618
0.00136886396
0.00128429215
0.00120420753
0.00152421907
0.00157578489
0.0018024643
0.00194171657
0.00212515146
0.0023281236
0.0024952246
0.00271453186
0.0028622906
0.00306742497
0.00323348229
0.00342145054
0.00358888869
0.00372857339
0.00382066608
0.0038155064
0.00341653816
0.00337209818
0.00368953279
0.00392533741
0.00430399151
0.00462735995
0.00505144778
0.00547006853
0.00587213659
0.00612776851
0.00566804616
0.00573855886
0.00592457949
0.00638420965
0.00677932002
0.00756316118
0.00801623068
0.00914783515
0.0095154761
0.0104967436
0.00684369173
0.00468581224
0.00540091561
0.00693915117
0.00787760522
0.00929913691
0.0103603309
0.011775968
0.0127731083
0.0135826512
0.010999406
0.0124090298
0.00743364185
0.00895269251
0.0102703686
0.0135329045
0.0126792832
0.0154696343
0.0192435312
0.0203804882
0.0230250716
0.0273065798
0.0329320031
0.0382297887
0.0435394111
0.0482291051
0.0548988108
0.0601451073
0.0649127772
0.0687358229
0.0734615895
0.0778353855
0.0824302756
0.086279273
0.0902754667
0.0937025718
0.0971496251
0.100162271
0.103140714
0.105760693
0.108240126
0.110430114
0.112410062
0.114116379
0.11558675
0.116860555
0.118181063
0.119313907
0.120598546
0.121499663
0.122675639
0.123515054
0.124460795
0.125177232
0.125941337
0.126574026
0.127258053
0.127860679
0.128591889
0.129227793
0.129947464
0.130356669
0.130756603
0.131092831
0.131454145
0.131756707
0.132079631
0.132362949
0.132654713
0.132917051
0.133189075
0.133448202
0.133714016
0.133964544
0.134234236
0.134510146
0.134765551
0.135005092
0.135241906
0.135465663
0.135691341
0.135904052
0.136117556
0.136319463
0.136515039
0.136697828
0.136881688
0.137055812
0.13723074
0.137401225
0.137578729
0.137758793
0.137935317
0.138104583
0.13827032
0.138429562
0.138583582
0.138726101
0.138866097
0.139001759
0.139134549
0.13926382
0.13938981
0.139513101
0.139632668
0.139749389
0.139862075
0.13997334
)
;

boundaryField
{
    closed
    {
        type            calculated;
        value           nonuniform List<scalar> 0();
    }
    open
    {
        type            calculated;
        value           nonuniform List<scalar> 0();
    }
    sides
    {
        type            empty;
    }
    procBoundary4to3
    {
        type            processor;
        value           uniform 0.000998144735;
    }
    procBoundary4to5
    {
        type            processor;
        value           uniform 0.140080394;
    }
}


// ************************************************************************* //
