/*--------------------------------*- C++ -*----------------------------------*\
| =========                 |                                                 |
| \\      /  F ield         | OpenFOAM: The Open Source CFD Toolbox           |
|  \\    /   O peration     | Version:  2306                                  |
|   \\  /    A nd           | Website:  www.openfoam.com                      |
|    \\/     M anipulation  |                                                 |
\*---------------------------------------------------------------------------*/
FoamFile
{
    version     2.0;
    format      ascii;
    arch        "LSB;label=32;scalar=64";
    class       volScalarField;
    location    "0.0015";
    object      sourcePV;
}
// * * * * * * * * * * * * * * * * * * * * * * * * * * * * * * * * * * * * * //

dimensions      [1 -3 -1 0 0 0 0];

internalField   nonuniform List<scalar> 
531
(
0.151488325
0.149808513
0.17134433
0.167351987
0.0348772607
0.00591002503
0.00502523459
0.00625837066
0.00513793551
0.122018058
0.186857221
0.176868535
0.00591254098
0.00548860458
0.125433245
0.166848396
0.109500381
0.00585574346
0.00653658096
0.00620636957
0.0061884195
0.0942801024
0.155788214
0.150653306
0.173493955
0.170153121
0.00580857106
0.00580377179
0.140334215
0.150876504
0.0060173103
0.00594046648
0.156771022
0.150645546
0.00566878394
0.00614842522
0.00559925348
0.142657868
0.149394229
0.00546866646
0.00626804189
0.0340296029
0.130340977
0.150056683
0.147850592
0.152290488
0.171515198
0.171806823
0.0447899861
0.00532471086
0.00563854248
0.0051805949
0.00613328409
0.00499941487
0.120045552
0.193547798
0.175188551
0.00536427452
0.00551707462
0.154323278
0.157876713
0.00613798228
0.00567466585
0.0840278216
0.159817821
0.152247148
0.0631221218
0.00624929885
0.00487110873
0.133183135
0.169458058
0.149282057
0.185925889
0.16728619
0.00459886053
0.00584777653
0.00458587629
0.00609273179
0.00498435425
0.137819812
0.163983003
0.00559388966
0.00562869375
0.0969073736
0.16035711
0.160461487
0.0722192852
0.00590218747
0.0467152249
0.15904446
0.167907317
0.0952206549
0.00614001028
0.00650263641
0.121437203
0.149234251
0.00669087431
0.00618748679
0.107881833
0.144525599
0.149296555
0.164303008
0.0778601877
0.0057207499
0.129927538
0.161185869
0.00594401811
0.00569206889
0.144664572
0.160361293
0.0319631335
0.00457496775
0.00549452678
0.00394544525
0.148663102
0.180595197
0.105555212
0.00546850075
0.00538068002
0.154123356
0.177021694
0.0648070462
0.00542439352
0.105285806
0.160158446
0.065338061
0.00569823629
0.00625934442
0.00591436211
0.0770828428
0.154882658
0.15525634
0.158759886
0.172685066
0.119233404
0.00545809147
0.00593357281
0.149272767
0.171965614
0.0671305347
0.00551536315
0.122618249
0.153011012
0.00594347964
0.00585527143
0.122480691
0.156337533
0.0868544898
0.005779854
0.00634407365
0.00619020088
0.00613530898
0.0884153912
0.151249579
0.178225517
0.177426201
0.00516089134
0.0056778875
0.106423443
0.143486658
0.151400205
0.16078493
0.0901896185
0.00589390334
0.00621607247
0.120081406
0.161273747
0.0048670134
0.00565865676
0.122314609
0.163899164
0.098430173
0.00541512538
0.00642537604
0.00599177809
0.00616872308
0.0802783473
0.149806593
0.1584443
0.172918132
0.0813223385
0.00533613831
0.0747776475
0.160319823
0.174052073
0.121716938
0.00516286738
0.00686441831
0.0062623897
0.108894017
0.150961026
0.0774810978
0.00592691587
0.0060988909
0.0869363281
0.151167201
0.178138669
0.178086794
0.00367717089
0.00564646091
0.0052982266
0.0664367063
0.138533515
0.161948501
0.164197486
0.0764955852
0.00569323311
0.00597780285
0.0871053807
0.153102007
0.176283027
0.175623668
0.00353432019
0.00565418661
0.133264607
0.147854761
0.00381148607
0.00596830734
0.136079572
0.14619548
0.00251086225
0.00575817209
0.00416607146
0.159429969
0.177480562
0.00329913349
0.00506665499
0.0847655164
0.177235045
0.176241081
0.00347460378
0.00550971906
0.133309625
0.157646523
0.0036938226
0.00569378877
0.0814951627
0.159609362
0.163534919
0.0687381621
0.00529980066
0.123014266
0.158627453
0.00337608303
0.00583637146
0.136349266
0.153094076
0.0032772414
0.00588431366
0.131958396
0.149366604
0.00322210677
0.00566644209
0.0559444479
0.164566887
0.163718765
0.0155549375
0.00567418066
0.131127733
0.144440479
0.0025575521
0.00622753222
0.0234325254
0.124561483
0.144939093
0.174203341
0.173848578
0.0027979543
0.00572564801
0.00521029363
0.128215356
0.151158826
0.00260735028
0.00591331876
0.00505809567
0.0630307124
0.140612398
0.148652922
0.152445393
0.160370396
0.177187544
0.118711893
0.0041110648
0.00633552182
0.00514545657
0.00610075703
0.00576722685
0.0636678564
0.179396377
0.178425083
0.0033232095
0.00499124159
0.116916514
0.185473505
0.126403123
0.00323803825
0.00669701755
0.00453478813
0.124359693
0.156838421
0.151787349
0.160666543
0.174311459
0.112755513
0.00441296029
0.00620236612
0.00549653145
0.00601520808
0.0633786305
0.148703854
0.172708522
0.110620631
0.00436881009
0.0813047195
0.168997678
0.097448606
0.00467724728
0.00646829735
0.00615291288
0.108931381
0.156406224
0.00214887397
0.0053093143
0.0828244209
0.171083499
0.170641769
0.0364933182
0.00529815704
0.0511681749
0.149369876
0.165464573
0.0977744663
0.00492054911
0.0055499807
0.13263076
0.174321339
0.058980936
0.00490145368
0.0266749021
0.166033013
0.171990272
0.0278809392
0.00509967125
0.0624031045
0.177614293
0.17835824
0.0339821059
0.00537517611
0.135594179
0.172448561
0.00157322132
0.00563532569
0.136197462
0.189325615
0.0835891056
0.00472650632
0.0051207477
0.00519702392
0.00414473986
0.00550172998
0.00386211168
0.210463044
0.225257504
0.0378940405
0.00898586065
0.00962626543
0.150836404
0.208021821
0.0501205967
0.019821595
0.0214075487
0.0251513653
0.0267392452
0.0305734014
0.0327785355
0.0361913126
0.0387776987
0.0417848703
0.0443225115
0.0469253992
0.0492969278
0.0515440048
0.0537500359
0.0553302609
0.0566218443
0.0567577087
0.0559515158
0.0498354603
0.037577004
0.0392006953
0.0406172106
0.0431947111
0.0453530168
0.0484522818
0.0515522085
0.055111422
0.0595911476
0.0645168909
0.067258375
0.0621582715
0.0517938404
0.0508527195
0.052496563
0.0536644287
0.0614454745
0.063465152
0.0735043159
0.0711087886
0.0765414669
0.072323398
0.0761682534
0.015908102
0.0116033754
0.0110923991
0.0130560547
0.0131927202
0.0142675087
0.0145382584
0.0149395402
0.0151874565
0.015172251
0.0156842244
0.0101643562
0.00522276995
0.0032835771
0.00287213577
0.00234405393
0.00124333221
0.000892358101
0.00192567413
0.01618966
0.0197838986
0.0231425974
0.0334932798
0.0372708529
0.0794027498
0.172617235
0.477203375
1.13942787
2.13874505
2.90808307
4.09413296
5.20952693
6.98830583
8.0106468
9.64295962
10.8125346
12.5600158
14.0706365
16.1299899
17.261137
18.5193709
19.0266675
19.5331782
19.613246
19.5929307
19.2788694
18.8336246
18.2063854
17.4807873
16.6725586
15.8233946
14.8445753
13.8858906
12.7405512
11.7992438
10.6101822
9.66304779
8.50428814
7.5781159
6.5238525
5.7657384
5.20459046
4.76738931
4.32120552
3.94772904
3.5951721
3.28527707
2.98960341
2.71108856
2.48546924
2.27594629
2.06129819
1.85345763
1.66029991
1.5128067
1.41617345
1.32300146
1.22986642
1.16391612
1.10338395
1.04495651
0.988160144
0.944549576
0.903201665
0.862559839
0.821075954
0.775147423
0.741585697
0.712092295
0.683799748
0.65690619
0.631025762
0.608966247
0.589163312
0.570328759
0.552109838
0.534739549
0.517779399
0.503467429
0.48988732
0.476893559
0.463879373
0.451494474
0.438944495
0.426948343
0.415360661
0.404555161
0.393443066
0.382246296
0.370709953
0.360125991
0.34939039
0.339578972
0.329558528
0.320434268
0.311096769
0.303814716
0.296234441
0.28934277
0.282138143
)
;

boundaryField
{
    closed
    {
        type            calculated;
        value           nonuniform List<scalar> 0();
    }
    open
    {
        type            calculated;
        value           nonuniform List<scalar> 0();
    }
    sides
    {
        type            empty;
    }
    procBoundary4to3
    {
        type            processor;
        value           uniform 0;
    }
    procBoundary4to5
    {
        type            processor;
        value           uniform 0;
    }
}


// ************************************************************************* //
