/*--------------------------------*- C++ -*----------------------------------*\
| =========                 |                                                 |
| \\      /  F ield         | OpenFOAM: The Open Source CFD Toolbox           |
|  \\    /   O peration     | Version:  2306                                  |
|   \\  /    A nd           | Website:  www.openfoam.com                      |
|    \\/     M anipulation  |                                                 |
\*---------------------------------------------------------------------------*/
FoamFile
{
    version     2.0;
    format      ascii;
    arch        "LSB;label=32;scalar=64";
    class       volScalarField;
    location    "0.00078";
    object      mu;
}
// * * * * * * * * * * * * * * * * * * * * * * * * * * * * * * * * * * * * * //

dimensions      [1 -1 -1 0 0 0 0];

internalField   nonuniform List<scalar> 
531
(
1.95426147e-05
2.02643337e-05
2.02849438e-05
1.97754506e-05
1.95102727e-05
1.95138181e-05
2.02561253e-05
2.03060096e-05
1.97915409e-05
1.96211919e-05
2.02639125e-05
2.03008833e-05
1.97817624e-05
1.95330919e-05
1.95371351e-05
2.02571264e-05
2.03077869e-05
1.98298583e-05
1.97055102e-05
1.95915438e-05
1.95921649e-05
2.02658863e-05
2.02991456e-05
1.97832875e-05
1.96002408e-05
1.96002687e-05
2.02563693e-05
2.02952909e-05
1.97990605e-05
1.95515606e-05
1.95534239e-05
2.02618878e-05
2.03030572e-05
2.02939329e-05
1.97543687e-05
1.94952684e-05
1.94968841e-05
2.02499808e-05
2.02906794e-05
1.97705051e-05
1.94472417e-05
1.94529744e-05
2.02642265e-05
2.02964967e-05
2.02825886e-05
1.97575454e-05
1.94413306e-05
1.94459885e-05
2.02398938e-05
2.02954692e-05
1.96761221e-05
1.94677135e-05
2.02339603e-05
2.02960362e-05
1.96926973e-05
1.94890212e-05
2.02369615e-05
2.02852381e-05
1.97759809e-05
1.94090783e-05
1.94551023e-05
2.02618338e-05
2.02984722e-05
2.02868812e-05
1.97534659e-05
1.94942271e-05
1.94920501e-05
2.02503518e-05
2.02905193e-05
1.97760378e-05
1.95923772e-05
1.95934082e-05
2.02461622e-05
2.02868974e-05
1.97678456e-05
1.94533463e-05
1.94557521e-05
2.02588455e-05
2.02966513e-05
2.02917576e-05
1.97020318e-05
1.94835964e-05
2.02489259e-05
2.02911475e-05
1.97654265e-05
1.93966641e-05
1.94608091e-05
2.02608507e-05
2.03005926e-05
2.02876731e-05
1.97494876e-05
1.9562146e-05
1.9533285e-05
1.95341287e-05
2.02580659e-05
2.02858794e-05
1.97685193e-05
1.95019822e-05
1.95020004e-05
2.02571357e-05
2.03070412e-05
1.97299404e-05
1.95710355e-05
2.02416622e-05
2.03012628e-05
1.96597471e-05
1.95930563e-05
2.02421017e-05
2.02949489e-05
2.02889727e-05
1.975493e-05
1.94679435e-05
1.94118385e-05
1.94117135e-05
2.02541276e-05
2.02907676e-05
2.02872891e-05
1.96645818e-05
1.94496104e-05
2.02365019e-05
2.02906924e-05
2.02689583e-05
2.02913871e-05
1.97587159e-05
1.95235307e-05
1.96166496e-05
1.95154486e-05
1.95152453e-05
2.02446813e-05
2.02876503e-05
1.97703029e-05
1.94346092e-05
1.9541297e-05
2.02645887e-05
2.02931364e-05
2.02917677e-05
1.96270488e-05
1.95287826e-05
2.024866e-05
2.02886757e-05
2.02838624e-05
1.97123796e-05
1.94119893e-05
1.94017881e-05
1.94311897e-05
2.02650162e-05
2.02852339e-05
2.02911779e-05
1.97505164e-05
1.93456662e-05
1.95051851e-05
2.02549761e-05
2.02828398e-05
2.02747959e-05
2.02880516e-05
1.96562415e-05
1.93953977e-05
1.93690313e-05
1.93839161e-05
2.02697401e-05
2.02844823e-05
2.02958776e-05
2.02951647e-05
1.97876113e-05
1.94963705e-05
1.95688307e-05
1.9412083e-05
1.94747352e-05
2.02800902e-05
2.02906559e-05
2.02954671e-05
2.02976214e-05
1.97602026e-05
1.95256657e-05
1.96441012e-05
1.94797301e-05
1.95605584e-05
2.02792151e-05
2.02889315e-05
2.0290795e-05
2.02941778e-05
1.97654043e-05
1.94946284e-05
1.96193979e-05
1.93829764e-05
1.95231395e-05
2.02709848e-05
2.02851011e-05
2.02894518e-05
1.94934564e-05
1.94678371e-05
2.02704171e-05
2.02852602e-05
2.02913497e-05
1.9456212e-05
1.93595035e-05
2.02762311e-05
2.02916374e-05
1.9524544e-05
1.94806157e-05
2.02901191e-05
2.02931046e-05
1.97383749e-05
1.94292463e-05
1.96189885e-05
2.02869432e-05
2.03098238e-05
1.95951399e-05
1.95953159e-05
2.03013789e-05
2.03028855e-05
1.97524568e-05
1.95197846e-05
1.96555856e-05
2.02960311e-05
2.03084074e-05
1.96765205e-05
1.94360149e-05
1.96688235e-05
2.0291006e-05
2.02968947e-05
2.03001578e-05
1.96449975e-05
1.94918555e-05
1.94833274e-05
1.96202187e-05
2.02944809e-05
2.02930993e-05
2.02987055e-05
1.96743083e-05
1.94474232e-05
1.96726191e-05
2.0287376e-05
2.02914919e-05
1.96146515e-05
1.96213942e-05
2.02898031e-05
2.02853643e-05
1.9625379e-05
1.93627469e-05
1.96229676e-05
2.02847632e-05
2.02869254e-05
2.02821342e-05
2.02816603e-05
1.94831642e-05
1.93441676e-05
1.93403403e-05
1.94757401e-05
2.03012916e-05
2.02780043e-05
2.0295197e-05
2.02768738e-05
1.96255514e-05
1.93998031e-05
1.96478836e-05
2.02818939e-05
2.02880579e-05
1.95755398e-05
1.93864521e-05
1.96253985e-05
2.02869477e-05
2.02870771e-05
1.95294706e-05
1.9588973e-05
2.03012124e-05
2.02795707e-05
1.95434308e-05
1.96203424e-05
2.03109667e-05
2.02803126e-05
1.95955793e-05
1.96659925e-05
2.03114747e-05
2.02911014e-05
1.96808639e-05
1.95343036e-05
1.97366305e-05
2.03076588e-05
2.03032199e-05
1.97481069e-05
1.95046106e-05
1.97215888e-05
2.03055332e-05
2.02993317e-05
1.96135417e-05
1.96678604e-05
2.03112781e-05
2.02994192e-05
1.96565827e-05
1.95137487e-05
1.97160633e-05
2.03112291e-05
2.03015376e-05
1.97478311e-05
1.95583221e-05
1.97469076e-05
2.0299186e-05
2.031126e-05
2.02897847e-05
1.97740764e-05
1.95538887e-05
1.95878783e-05
1.94477153e-05
1.95957002e-05
2.02938001e-05
2.02862954e-05
1.94570558e-05
1.96151274e-05
2.02910805e-05
2.02935337e-05
2.02763857e-05
1.95211438e-05
1.95404287e-05
2.02975828e-05
2.02801967e-05
1.95673912e-05
1.94111829e-05
1.96470528e-05
2.02896581e-05
2.02852503e-05
1.96051872e-05
1.9647675e-05
2.03010195e-05
2.02841465e-05
1.9659957e-05
1.94713561e-05
1.96889797e-05
2.0295845e-05
2.0289066e-05
1.96112077e-05
1.96543987e-05
2.03067395e-05
2.02877854e-05
1.96618668e-05
1.94720393e-05
1.96860483e-05
2.02990146e-05
2.02913958e-05
1.96134351e-05
1.96561282e-05
2.03099391e-05
2.02889583e-05
1.96779033e-05
1.94779344e-05
1.9688003e-05
2.02993855e-05
2.02933536e-05
1.96227994e-05
1.96709609e-05
2.03110275e-05
2.02911549e-05
1.9722116e-05
1.95318709e-05
1.97183898e-05
2.03033147e-05
2.03038342e-05
1.97558235e-05
1.95307279e-05
1.97051325e-05
2.03053189e-05
2.02954602e-05
1.96798048e-05
1.94541464e-05
1.96447261e-05
2.02932559e-05
2.02899507e-05
1.95652338e-05
1.96244884e-05
2.03005438e-05
2.02789914e-05
1.9529352e-05
1.97201238e-05
2.02981137e-05
1.95829623e-05
1.95664962e-05
2.02955361e-05
2.02967416e-05
2.0293601e-05
1.94819441e-05
1.94734799e-05
2.03015963e-05
2.02787237e-05
1.96703673e-05
1.94272868e-05
1.96508822e-05
2.02818423e-05
2.03000827e-05
1.95564736e-05
1.975672e-05
2.02984427e-05
1.97267106e-05
1.95313838e-05
2.03089774e-05
2.02820973e-05
1.95934349e-05
1.95939269e-05
2.03083066e-05
2.02769224e-05
1.96721215e-05
1.93452226e-05
1.95896831e-05
2.02862156e-05
2.02975649e-05
2.02847939e-05
1.94754076e-05
1.95728279e-05
2.02979125e-05
2.02832937e-05
2.02950682e-05
1.95868644e-05
1.93373719e-05
1.95585822e-05
2.02915484e-05
2.02928669e-05
1.97259145e-05
1.9477788e-05
1.96690067e-05
2.0299894e-05
2.02947514e-05
1.97598116e-05
1.95258272e-05
1.96849185e-05
2.03048092e-05
2.03010912e-05
1.97544185e-05
1.95238887e-05
1.96709111e-05
2.03083527e-05
2.03050974e-05
1.97536518e-05
1.95247985e-05
1.96559949e-05
2.03122743e-05
2.03049733e-05
1.97472184e-05
1.94822291e-05
1.96264838e-05
2.03058172e-05
2.03102033e-05
1.96123102e-05
1.96014056e-05
2.03176908e-05
2.02990409e-05
1.97428741e-05
1.94757372e-05
1.96091724e-05
2.03042337e-05
2.03112504e-05
1.96174662e-05
1.95939012e-05
2.031788e-05
2.02989255e-05
1.97423291e-05
1.9478942e-05
1.96020418e-05
2.03027818e-05
2.03132582e-05
1.96282771e-05
1.96004472e-05
2.03146977e-05
2.03032487e-05
1.97480556e-05
1.95198295e-05
1.96133442e-05
2.03115299e-05
2.03067273e-05
1.97473934e-05
1.94877015e-05
1.9599459e-05
2.030317e-05
2.03117422e-05
1.96505925e-05
1.96394697e-05
2.03116413e-05
2.02992295e-05
1.97507253e-05
1.96187973e-05
1.95270926e-05
1.95842918e-05
2.03093175e-05
2.02983071e-05
2.03063358e-05
1.96520621e-05
1.94828622e-05
2.03066123e-05
2.02953551e-05
1.96804823e-05
1.94144288e-05
1.95122038e-05
2.02958703e-05
2.0303431e-05
1.9617033e-05
1.9519926e-05
2.03071987e-05
2.02947497e-05
1.970623e-05
1.9431039e-05
1.9527691e-05
2.02934136e-05
2.03089851e-05
1.95871854e-05
1.95568494e-05
2.03063815e-05
2.03010821e-05
1.96178119e-05
1.95906915e-05
2.03126396e-05
2.02986537e-05
1.97488969e-05
1.95523225e-05
1.96050855e-05
2.03019579e-05
2.03071738e-05
1.97576661e-05
1.95360807e-05
1.95858331e-05
2.03089464e-05
2.03057464e-05
1.97490908e-05
1.94947162e-05
1.95583179e-05
2.03041007e-05
2.03098463e-05
1.96663524e-05
1.95643441e-05
2.03121772e-05
2.03067216e-05
1.97484136e-05
1.95184855e-05
1.95546551e-05
)
;

boundaryField
{
    closed
    {
        type            calculated;
        value           nonuniform List<scalar> 0();
    }
    open
    {
        type            calculated;
        value           nonuniform List<scalar> 0();
    }
    sides
    {
        type            empty;
    }
    procBoundary3to2
    {
        type            processor;
        value           uniform 1.95398503e-05;
    }
    procBoundary3to4
    {
        type            processor;
        value           uniform 2.03108054e-05;
    }
}


// ************************************************************************* //
