/*--------------------------------*- C++ -*----------------------------------*\
| =========                 |                                                 |
| \\      /  F ield         | OpenFOAM: The Open Source CFD Toolbox           |
|  \\    /   O peration     | Version:  2306                                  |
|   \\  /    A nd           | Website:  www.openfoam.com                      |
|    \\/     M anipulation  |                                                 |
\*---------------------------------------------------------------------------*/
FoamFile
{
    version     2.0;
    format      ascii;
    arch        "LSB;label=32;scalar=64";
    class       volScalarField;
    location    "0.00014";
    object      p;
}
// * * * * * * * * * * * * * * * * * * * * * * * * * * * * * * * * * * * * * //

dimensions      [1 -1 -2 0 0 0 0];

internalField   nonuniform List<scalar> 
531
(
101565.744
101565.829
101565.913
101565.995
101566.075
101566.153
101566.229
101566.304
101566.377
101566.448
101566.517
101566.585
101566.65
101566.714
101566.776
101566.836
101566.895
101566.952
101567.007
101567.06
101567.111
101567.161
101567.209
101567.255
101567.3
101567.343
101567.384
101567.424
101567.462
101567.498
101567.532
101567.565
101567.597
101567.626
101567.655
101567.681
101567.706
101567.73
101567.752
101567.772
101567.791
101567.809
101567.825
101567.84
101567.853
101567.865
101567.876
101567.885
101567.893
101567.9
101567.905
101567.909
101567.912
101567.914
101567.915
101567.914
101567.913
101567.91
101567.907
101567.902
101567.896
101567.889
101567.882
101567.873
101567.864
101567.854
101567.843
101567.831
101567.818
101567.805
101567.791
101567.777
101567.761
101567.746
101567.729
101567.712
101567.695
101567.677
101567.659
101567.64
101567.622
101567.602
101567.583
101567.563
101567.543
101567.523
101567.503
101567.483
101567.463
101567.442
101567.422
101567.402
101567.382
101567.362
101567.342
101567.323
101567.303
101567.285
101567.266
101567.248
101567.23
101567.213
101567.196
101567.18
101567.164
101567.149
101567.134
101567.121
101567.108
101567.095
101567.084
101567.073
101567.064
101567.055
101567.047
101567.04
101567.035
101567.03
101567.027
101567.024
101567.023
101567.023
101567.024
101567.027
101567.031
101567.036
101567.043
101567.051
101567.061
101567.072
101567.085
101567.099
101567.115
101567.132
101567.152
101567.172
101567.195
101567.22
101567.246
101567.274
101567.304
101567.335
101567.369
101567.405
101567.442
101567.482
101567.523
101567.567
101567.613
101567.66
101567.71
101567.762
101567.816
101567.872
101567.931
101567.991
101568.054
101568.119
101568.187
101568.256
101568.328
101568.402
101568.479
101568.557
101568.638
101568.722
101568.807
101568.895
101568.986
101569.078
101569.173
101569.271
101569.37
101569.472
101569.577
101569.683
101569.792
101569.904
101570.018
101570.134
101570.252
101570.373
101570.495
101570.621
101570.748
101570.878
101571.01
101571.144
101571.28
101571.419
101571.559
101571.702
101571.847
101571.994
101572.143
101572.294
101572.447
101572.602
101572.759
101572.918
101573.079
101573.242
101573.406
101573.572
101573.74
101573.91
101574.081
101574.254
101574.428
101574.604
101574.781
101574.96
101575.14
101575.321
101575.504
101575.688
101575.873
101576.059
101576.246
101576.434
101576.623
101576.813
101577.003
101577.195
101577.387
101577.58
101577.773
101577.967
101578.161
101578.355
101578.55
101578.745
101578.94
101579.135
101579.33
101579.525
101579.72
101579.914
101580.108
101580.302
101580.495
101580.688
101580.88
101581.071
101581.262
101581.451
101581.64
101581.827
101582.014
101582.199
101582.383
101582.565
101582.746
101582.925
101583.103
101583.279
101583.453
101583.625
101583.795
101583.963
101584.129
101584.292
101584.453
101584.612
101584.768
101584.921
101585.072
101585.219
101585.364
101585.506
101585.645
101585.78
101585.912
101586.041
101586.167
101586.288
101586.406
101586.521
101586.631
101586.738
101586.841
101586.94
101587.034
101587.124
101587.21
101587.292
101587.369
101587.441
101587.509
101587.572
101587.63
101587.683
101587.732
101587.775
101587.813
101587.846
101587.874
101587.896
101587.913
101587.925
101587.931
101587.931
101587.926
101587.915
101587.898
101587.875
101587.847
101587.812
101587.772
101587.725
101587.672
101587.613
101587.548
101587.476
101587.398
101587.314
101587.223
101587.126
101587.022
101586.912
101586.795
101586.672
101586.542
101586.405
101586.262
101586.112
101585.955
101585.791
101585.621
101585.444
101585.26
101585.069
101584.871
101584.667
101584.456
101584.237
101584.012
101583.78
101583.541
101583.296
101583.043
101582.784
101582.518
101582.245
101581.965
101581.678
101581.385
101581.085
101580.778
101580.465
101580.144
101579.818
101579.484
101579.144
101578.798
101578.445
101578.085
101577.719
101577.347
101576.969
101576.584
101576.193
101575.796
101575.393
101574.984
101574.568
101574.147
101573.72
101573.288
101572.849
101572.405
101571.956
101571.501
101571.04
101570.574
101570.103
101569.627
101569.146
101568.66
101568.168
101567.672
101567.172
101566.666
101566.157
101565.642
101565.124
101564.601
101564.074
101563.543
101563.008
101562.469
101561.927
101561.381
101560.832
101560.279
101559.723
101559.163
101558.601
101558.036
101557.468
101556.897
101556.324
101555.749
101555.171
101554.591
101554.008
101553.424
101552.838
101552.251
101551.662
101551.071
101550.479
101549.886
101549.292
101548.697
101548.101
101547.505
101546.908
101546.311
101545.713
101545.115
101544.517
101543.92
101543.323
101542.726
101542.129
101541.534
101540.939
101540.345
101539.752
101539.16
101538.57
101537.981
101537.394
101536.808
101536.224
101535.642
101535.063
101534.485
101533.91
101533.337
101532.767
101532.2
101531.636
101531.074
101530.516
101529.961
101529.409
101528.861
101528.316
101527.775
101527.238
101526.704
101526.175
101525.65
101525.129
101524.613
101524.101
101523.593
101523.091
101522.593
101522.1
101521.612
101521.129
101520.651
101520.179
101519.712
101519.25
101518.794
101518.344
101517.899
101517.46
101517.028
101516.601
101516.18
101515.765
101515.357
101514.955
101514.559
101514.17
101513.787
101513.411
101513.042
101512.679
101512.323
101511.973
101511.631
101511.296
101510.967
101510.646
101510.332
101510.024
101509.724
101509.432
101509.146
101508.868
101508.597
101508.334
101508.077
101507.829
101507.587
101507.353
101507.127
101506.908
101506.697
101506.493
101506.297
101506.108
101505.927
101505.754
101505.588
101505.43
101505.279
101505.136
101505.001
101504.873
101504.753
101504.64
101504.535
101504.437
101504.347
101504.265
101504.19
101504.122
101504.062
101504.009
101503.964
101503.926
101503.896
101503.873
101503.857
)
;

boundaryField
{
    closed
    {
        type            zeroGradient;
    }
    open
    {
        type            waveTransmissive;
        gamma           1.25;
        fieldInf        101325;
        lInf            1;
        value           nonuniform List<scalar> 0();
    }
    sides
    {
        type            empty;
    }
    procBoundary1to0
    {
        type            processor;
        value           uniform 101565.657;
    }
    procBoundary1to2
    {
        type            processor;
        value           uniform 101503.848;
    }
}


// ************************************************************************* //
