/*--------------------------------*- C++ -*----------------------------------*\
| =========                 |                                                 |
| \\      /  F ield         | OpenFOAM: The Open Source CFD Toolbox           |
|  \\    /   O peration     | Version:  2306                                  |
|   \\  /    A nd           | Website:  www.openfoam.com                      |
|    \\/     M anipulation  |                                                 |
\*---------------------------------------------------------------------------*/
FoamFile
{
    version     2.0;
    format      ascii;
    arch        "LSB;label=32;scalar=64";
    class       volScalarField;
    location    "0.00018";
    object      p;
}
// * * * * * * * * * * * * * * * * * * * * * * * * * * * * * * * * * * * * * //

dimensions      [1 -1 -2 0 0 0 0];

internalField   nonuniform List<scalar> 
3801
(
101823.197
101833.695
101843.82
101856.01
101870.788
101886.345
101901.375
101918.792
101939.595
101961.385
101982.94
102007.244
102035.577
102065.347
102094.735
102123.831
102154.655
102188.951
102223.756
102258.751
102293.233
102326.878
102360.846
102394.744
102428.618
102466.845
102505.191
102543.067
102580.343
102616.463
102653.096
102691.045
102727.992
102763.228
102796.899
102827.992
102865.451
102893.669
102918.696
102943.612
102966.338
102988.274
103005.257
103021.145
103033.896
103044.924
103053.05
103057.629
103058.98
103057.912
103052.054
103042.824
103030.239
103015.054
102997.578
102974.77
102948.888
102921.48
102892.593
102858.939
102823.616
102788.438
102753.223
102714.589
102675.751
102635.777
102600.036
102562.732
102523.599
102483.291
102444.177
102405.723
102367.982
102330.916
102294.161
102258.144
102223.927
102191.048
102156.48
102122.818
102090.305
102058.022
102027.382
101999.052
101959.778
101923.764
101888.941
101855.8
101822.579
101788.499
101755.464
101723.778
101692.954
101664.057
101636.848
101610.745
101586.537
101562.548
101539.872
101519.573
101501.158
101482.935
101464.271
101447.064
101431.612
101417.283
101402.95
101396.89
101382.944
101372.661
101364.271
101357.732
101353.094
101343.193
101338.518
101332.683
101327.078
101322.084
101316.252
101310.072
101304.645
101300.268
101294.832
101288.985
101283.097
101278.032
101274.25
101269.736
101265.308
101262.274
101261.383
101259.993
101259.496
101259.278
101260.443
101263.327
101266.969
101271.886
101278.587
101285.587
101295.199
101306.174
101318.305
101330.53
101343.809
101358.988
101373.884
101389.326
101404.859
101422.939
101440.403
101459.87
101479.997
101500.363
101518.975
101539.081
101558.531
101578.218
101597.17
101618.48
101642.61
101666.371
101689.339
101714.107
101741.005
101769.01
101797.99
101827.178
101859.957
101893.295
101923.452
101954.899
101985.272
102018.223
102050.731
102079.46
102108.6
102136.489
102163.146
102187.165
102211.763
102235.088
102260.011
102283.86
102299.052
102315.377
102333.29
102350.209
102365.606
102380.853
102395.055
102408.107
102419.284
102431.68
102442.831
102452.049
102457.274
102460.988
102461.756
102462.216
102453.648
102449.622
102444.816
102434.705
102419.816
102409.467
102397.191
102387.451
102380.792
102372.023
102366.12
102365.539
102365.97
102371.072
102379.985
102387.604
102390.084
102387.4
102377.604
102361.439
102341.969
102320.291
102291.927
102258.618
102224.705
102188.047
102146.142
102099.349
102048.646
101993.916
101935.93
101872.278
101802.592
101727.762
101648.513
101568.741
101482.993
101391.391
101299.697
101205.129
101107.737
101003.184
100889.391
100770.54
100647.338
100525.141
100407.13
100283.593
100160.01
100031.018
99904.8458
99784.4446
99672.7064
99562.6232
99459.222
99359.4734
99270.6185
99187.1861
99116.166
99055.6812
99010.0497
98974.3628
98955.6661
98953.3451
98972.6698
99006.7898
99050.4995
99108.2003
99190.3781
99286.3008
99389.0269
99498.5492
99614.3514
99749.102
99880.948
100013.112
100128.371
100277.658
100398.255
100517.361
100622.571
100719.573
100811.925
100898.64
100981.012
101055.481
101127.705
101196.127
101260.755
101318.086
101373.927
101430.409
101475.137
101516.602
101554.749
101588.741
101624.491
101656.295
101683.687
101707.341
101728.151
101745.538
101762.334
101777.535
101789.975
101801.108
101810.46
101818.9
101826.139
101832.374
101837.48
101842.104
101846.166
101849.549
101852.48
101855.108
101857.708
101859.559
101861.102
101862.46
101863.828
101865.102
101866.219
101867.366
101868.503
101869.625
101871.041
101871.917
101873.009
101874.388
101875.686
101876.382
101877.358
101878.627
101879.649
101879.945
101880.493
101881.192
101881.477
101880.872
101880.463
101880
101879.143
101877.41
101875.985
101873.957
101871.727
101869.803
101867.024
101864.015
101860.751
101857.786
101854.515
101850.983
101846.62
101842.93
101839.416
101835.536
101830.674
101826.418
101822.076
101817.255
101811.318
101805.942
101799.558
101792.992
101786.919
101779.412
101772.571
101764.357
101755.829
101746.949
101738.886
101729.332
101720.106
101709.254
101698.281
101687.927
101677.013
101668.516
101654.184
101642.93
101631.69
101619.305
101607.566
101596.082
101583.786
101572.295
101561.837
101552.892
101545.141
101532.676
101523.224
101516.001
101509.014
101501.652
101493.563
101487.737
101482.771
101479.566
101478.907
101480.926
101483.12
101488.19
101496.442
101504.387
101517.397
101531.352
101547.059
101562.225
101580.599
101603.146
101626.575
101648.897
101674.191
101702.032
101731.381
101759.884
101786.955
101815.885
101848.335
101880.52
101910.599
101942.479
101978.362
102013.868
102047.367
102082.372
102118.369
102154.463
102188.247
102220.497
102253.32
102286.307
102318.992
102349.211
102378.052
102406.908
102435.608
102464.902
102488.543
102514.603
102540.088
102564.337
102586.968
102609.39
102631.631
102652.771
102670.055
102687.635
102704.586
102720.617
102735.391
102750.362
102763.658
102775.82
102786.146
102794.7
102801.345
102806.032
102808.915
102810.048
102809.469
102809.558
102807.582
102804.518
102801.934
102800.082
102794.89
102786.516
102776.531
102765.354
102748.852
102729.338
102707.6
102683.919
102658.738
102630.981
102600.778
102564.728
102526.022
102488.658
102450.507
102407.254
102361.856
102316.192
102270.937
102227.227
102184.515
102136.968
102084.733
102029.422
101971.401
101910.465
101852.052
101821.028
101802.469
101787.851
101776.928
101766.897
101755.511
101744.321
101727.736
101715.737
101706.824
101705.313
101705.885
101706.621
101707.275
101702.475
101693.763
101681.981
101668.384
101653.635
101636.309
101615.605
101603.171
101588.8
101575.126
101561.04
101547.517
101536.787
101527.567
101520.463
101514.705
101511.79
101512.038
101516.21
101524.886
101538.374
101555.245
101577.059
101604.913
101633.851
101664.512
101694.036
101725.892
101760.437
101794.456
101828.545
101861.666
101893.152
101924.202
101956.349
101986.91
102013.362
102039.194
102062.947
102082.507
102097.063
102109.703
102119.066
102126.285
102133.004
102141.583
102150.643
102160.482
102170.588
102181.635
102189.761
102194.723
102198.721
102199.388
102214.247
102211.449
102201.374
102209.484
102221.051
102233.43
102246.917
102263.243
102287.337
102306.019
102318.484
102325.159
102325.927
102322.212
102312.991
102298.344
102279.681
102265.251
102245.041
102218.639
102185.149
102143.362
102098.126
102042.73
101979.098
101903.757
101818.129
101726.77
101631.459
101523.36
101409.139
101284.607
101158.102
101031.457
100894.553
100754.63
100608.375
100466.089
100331.469
100193.831
100056.738
99916.0529
99784.0972
99653.428
99529.1105
99405.8879
99295.7768
99191.809
99100.1674
99010.7917
98937.8004
98881.9579
98845.0912
98827.5694
98830.9746
98849.5438
98881.4907
98933.6782
98999.9572
99076.7349
99174.9743
99276.4016
99385.3744
99501.3845
99643.9381
99786.9582
99921.7413
100085.57
100233.072
100370.568
100499.875
100618.969
100727.118
100852.133
100970.733
101082.279
101176.374
101260.381
101338.234
101411.148
101473.585
101532.76
101588.394
101639.977
101684.827
101727.35
101767.092
101803.857
101835.242
101865.038
101892.809
101918.708
101942.256
101965.981
101988.468
102007.401
102025.975
102043.171
102059.149
102073.085
102086.886
102099.127
102111.612
102123.069
102133.204
102143.046
102152.169
102160.707
102168.781
102175.66
102182.776
102189.399
102195.453
102200.885
102205.689
102209.304
102212.899
102215.202
102217.492
102219.205
102220.135
102220.893
102220.423
102219.472
102218.376
102216.929
102214.432
102211.631
102208.299
102204.942
102201.448
102197.801
102194.068
102189.934
102185.937
102182.427
102178.962
102175.537
102172.428
102169.672
102167.362
102165.466
102164.594
102163.855
102163.805
102164.311
102165.322
102166.875
102168.923
102171.612
102174.183
102177.456
102181.607
102185.977
102189.856
102194.32
102199.553
102204.739
102209.223
102213.974
102219.12
102218.721
102223.425
102225.478
102226
102225.325
102223.756
102220.65
102216.906
102211.926
102205.683
102198.187
102190.002
102180.252
102169.268
102157.289
102144.843
102130.789
102115.881
102100.415
102085.116
102068.063
102050.755
102033.548
102018.171
102002.893
101988.096
101974.681
101962.51
101951.091
101940.559
101932.13
101924.708
101918.596
101913.428
101910.409
101908.313
101907.449
101907.893
101908.69
101911.075
101914.577
101918.432
101922.209
101927.225
101933.228
101939.342
101945.304
101952.135
101959.983
101967.812
101975.634
101983.81
101992.626
102000.205
102010.781
102020.928
102030.647
102041.259
102053.777
102066.33
102079.101
102092.508
102105.832
102119.293
102132.714
102153.303
102171.638
102189.857
102210.279
102235.083
102260.437
102284.044
102309.777
102336.107
102362.993
102392.081
102417.825
102444.425
102470.802
102498.487
102524.886
102549.489
102571.829
102593.82
102614.845
102634.304
102652.48
102669.309
102684.255
102698.234
102710.583
102723.089
102733.125
102742.338
102749.667
102756.809
102762.296
102767.318
102771.736
102775.663
102781.572
102784.541
102787.673
102789.561
102791.132
102792.834
102794.097
102794.426
102792.796
102790.191
102787.36
102784.25
102779.977
102776.806
102775.355
102775.039
102773.508
102773.503
102772.647
102771.618
102771.019
102767.503
102765.388
102763.809
102761.794
102757.606
102754.294
102749.825
102742.372
102730.405
102717.789
102702.089
102682.522
102658.205
102632.116
102598.42
102562.861
102525.307
102487.425
102450.373
102408.048
102351.295
102303.478
102256.869
102203.405
102151.471
102098.398
102046.937
101987.74
101929.167
101872.433
101816.147
101760.219
101706.775
101648.864
101592.213
101539.111
101489.957
101437.8
101388.38
101343.99
101302.846
101264.791
101231.462
101197.135
101168.342
101142.438
101121.722
101100.704
101083.551
101070.377
101060.619
101055.725
101052.304
101051.745
101053.985
101059.647
101066.716
101073.724
101081.452
101089.564
101095.196
101098.278
101101.201
101101.424
101098.181
101093.372
101089.276
101082.723
101075.616
101070.157
101068.535
101069.903
101075.341
101085.893
101102.17
101123.31
101151.483
101184.032
101217.074
101255.942
101296.28
101335.594
101376.418
101415.329
101446.458
101478.316
101508.635
101536.305
101561.014
101583.97
101604.326
101629.375
101655.373
101683.42
101714.324
101748.062
101784.466
101823.034
101863.055
101903.567
101943.394
101981.2
102015.52
102044.821
102067.542
102082.184
102087.444
102082.411
102066.811
102041.255
102007.47
101968.435
101928.412
101892.797
101867.801
101859.852
101874.683
101915.982
101983.736
102072.698
102171.809
102265.626
102337.92
102375.445
102367.682
102300.18
102149.086
101901.896
101614.593
101408.888
101318.66
100965.879
101229.094
101117.764
101793.502
100204.691
100908.303
101850.25
100945.596
103528.234
101897.271
101371.783
100450.521
102634.335
102141.175
102141.874
102153.832
101764.691
101848.967
101929.724
101567.589
101522.031
101490.539
101538.436
101784.908
102344.032
101925.798
101360.35
101959.217
102583.466
101447.907
103608.54
102306.062
100434.661
101299.815
101362.918
101837.062
102194.032
102072.428
102111.807
102256.178
102349.203
102482.497
102590.899
102638.797
102689.488
103199.159
103861.026
102311.928
100084.273
105300.565
105838.575
101267.998
102471.818
103164.236
102902.796
102453.999
102487.888
102656.105
102807.696
101459.634
97758.3765
102529.967
103755.766
102966.868
102323.71
102464.684
102481.401
102421.217
102379.017
102343.936
102293.431
102221.898
102128.018
102014.631
101889.159
101755.392
101612.962
101457.043
101287.412
101102.865
100907.309
100706.706
100508.694
100320.408
100147.582
99992.8078
99857.0573
99739.7792
99639.7996
99554.8974
99483.2865
99423.6215
99375.2793
99336.9207
99307.7713
99287.1865
99274.6087
99268.8884
99267.9328
99272.267
99283.9283
99300.6597
99318.5486
99340.751
99367.7805
99400.0504
99437.5778
99481.178
99529.9884
99583.8621
99641.7976
99704.7589
99772.2765
99844.33
99919.953
99998.6141
100079.355
100161.404
100243.915
100326.081
100407.211
100486.587
100563.692
100638.005
100709.163
100776.812
100840.805
100900.951
100957.257
101009.679
101058.332
101103.309
101144.789
101182.933
101217.735
101249.787
101279.45
101306.31
101330.424
101354.367
101375.918
101390.933
101406.55
101421.943
101403.392
101456.496
101566.762
101493.358
101314.757
101389.221
101725.525
101693.493
101299.97
101295.438
101799.82
101833.116
101352.897
101196.359
101706.925
101897.078
101422.717
101193.929
101754.32
101923.096
101487.373
101511.569
101964.262
101786.221
101555.282
101685.677
101730.938
101838.652
101657.755
101481.459
101856.351
102101.152
101698.857
101521.808
102421.327
102291.762
101905.289
101845.74
101796.372
101857.359
101977.657
101920.429
101780.038
101788.499
101892.476
101881.655
101895.507
101936.576
101909.634
101904.428
101612.261
101523.425
101973.085
101973.007
101704.798
101709.626
101819.474
101823.761
101809.771
101829.194
101843.492
101853.554
101896.15
101927.725
101864.478
101880.581
101940.761
101955.459
101973.537
101994.611
101992.862
102022.175
102076.413
102080.483
102106.476
102134.792
102104.114
102109.077
102174.479
102189.822
102158.32
102167.398
102200.904
102213.066
102217.728
102225.968
102236.078
102243.18
102246.725
102249.967
102254.85
102258.697
102258.535
102257.195
102258.684
102259.835
102255.826
102249.628
102249.64
102250.707
102242.107
102230.045
102230.842
102235.192
102222.008
102203.438
102205.56
102213.948
102198.029
102174.494
102179.105
102192.298
102173.825
102145.239
102151.667
102169.726
102150.943
102120.671
102128.603
102148.811
102131.593
102103.364
102109.581
102126.804
102114.507
102094.51
102099.66
102113.084
102103.349
102084.937
102091.177
102108.446
102099.399
102078.812
102086.095
102103.974
102096.157
102079.063
102085.507
102100.349
102094.822
102082.132
102087.062
102098.042
102094.298
102085.408
102088.823
102096.435
102093.872
102087.875
102089.883
102094.773
102092.76
102088.636
102089.411
102091.719
102089.821
102086.606
102086.484
102086.971
102084.999
102082.546
102081.574
102080.737
102078.588
102076.267
102074.699
102073.045
102070.663
102068.336
102066.317
102064.169
102061.539
102059.209
102056.84
102054.187
102051.493
102049.017
102046.393
102043.462
102040.577
102037.928
102035.108
102031.919
102028.842
102026.035
102023.038
102019.525
102016.155
102013.181
102009.953
102006.205
102002.659
101999.525
101996.105
101992.235
101988.621
101985.416
101981.953
101978.135
101974.633
101971.554
101968.303
101964.851
101961.749
101959.07
101956.331
101953.517
101951.111
101949.157
101947.259
101945.422
101944.024
101943.087
101942.311
101941.703
101941.538
101941.81
101942.324
101943.089
101944.246
101945.774
101947.563
101949.607
101951.893
101954.765
101957.652
101960.686
101964.029
101967.596
101971.278
101975.082
101979.004
101983.017
101987.071
101991.156
101995.24
101999.311
102003.329
102007.29
102011.159
102014.935
102018.586
102022.113
102025.489
102028.72
102031.786
102034.691
102037.422
102039.982
102042.365
102044.574
102046.61
102048.472
102050.167
102051.693
102053.061
102054.268
102055.326
102056.231
102057.001
102057.627
102058.128
102058.498
102058.751
102058.887
102058.912
102058.838
102058.661
102058.385
102058.008
102057.581
102057.067
102056.405
102055.609
102054.969
102054.342
102053.111
102051.73
102052.958
102056.429
102050.912
102046.241
102048.084
102050.224
102048.904
102045.675
102045.602
102049.644
102048.557
102039.822
102043.963
102060.831
102056.19
102035.041
102047.097
102078.673
102071.582
102044.964
102031.446
102026.614
102072.576
102105.632
102028.813
101990.176
102069.516
102111.846
102034.854
101994.386
102073.458
102115.341
102027.24
101973.758
102057.12
102105.755
102008.31
101944.567
102032.764
102090.469
101988.428
101913.299
102002.227
102070.964
101968.87
101880.845
101966.073
102047.238
101948.48
101846.319
101925.078
102019.228
101924.895
101809.098
101881.476
101985.198
101896.298
101777.896
101840.615
101937.654
101855.54
101744.221
101799.05
101880.951
101808.19
101723.084
101762.703
101808.173
101763.545
101734.285
101758.878
101750.804
101730.426
101761.969
101769.145
101706.349
101691.469
101728.406
101714.173
101670.087
101674.138
101693.597
101672.68
101646.251
101646.838
101647.313
101628.31
101609.505
101601.625
101590.958
101571.826
101553.451
101538.109
101520.968
101500.437
101479.394
101458.849
101437.809
101415.094
101391.349
101367.557
101343.883
101319.167
101293.534
101268.239
101243.159
101217.438
101191.563
101165.974
101140.422
101114.931
101090.519
101066.73
101041.749
101017.236
100994.898
100972.854
100950.705
100929.263
100908.788
100889.022
100869.854
100851.403
100833.794
100816.965
100800.874
100785.565
100771.065
100757.358
100744.434
100732.299
100720.95
100710.378
100700.569
100691.514
100683.196
100675.598
100668.699
100662.477
100656.908
100651.964
100647.616
100643.834
100640.586
100637.838
100635.555
100633.699
100632.236
100631.129
100630.341
100629.834
100629.573
100629.522
100629.647
100629.917
100630.3
100630.77
100631.3
100631.867
100632.453
100633.041
100633.617
100634.171
100634.698
100635.194
100635.658
100636.093
100636.506
100636.904
100637.298
100637.701
100638.127
100638.591
100639.109
100639.7
100640.381
100641.168
100642.08
100643.133
100644.343
100645.725
100647.293
100649.059
100651.034
100653.227
100655.648
100658.303
100661.198
100664.336
100667.72
100671.352
100675.232
100679.36
100683.735
100688.355
100693.217
100698.319
100703.658
100709.231
100715.034
100721.063
100727.317
100733.791
100740.482
100747.387
100754.504
100761.828
100769.359
100777.09
100785.022
100793.148
100801.467
100809.974
100818.663
100827.531
100836.572
100845.776
100855.137
100864.65
100874.304
100884.078
100893.968
100903.974
100914.072
100924.216
100934.409
100944.694
100955.011
100965.22
100975.393
100985.716
100996.012
101005.806
101015.438
101025.616
101035.874
101044.145
101052.334
101065.217
101081.494
101085.401
101092.844
101097.731
101098.815
101149.255
101208.637
101157.473
101088.997
101216.598
101347.699
101259.487
101167.694
101306.227
101441.471
101341.011
101235.97
101371.285
101507.483
101391.779
101272.576
101415.847
101560.795
101434.322
101304.966
101456.055
101608.664
101472.334
101332.82
101486.271
101637.829
101503.076
101366.467
101512.283
101658.76
101526.163
101391.31
101534.045
101678.705
101548.756
101416.852
101557.281
101700.356
101572.488
101442.669
101582.59
101727.262
101595.899
101461.795
101605.172
101753.463
101619.204
101481.306
101628.445
101781.209
101643.711
101501.501
101653.206
101811.309
101669.805
101522.842
101679.752
101843.473
101697.179
101544.592
101707.318
101877.183
101726.053
101569.38
101733.229
101904.242
101752.525
101594.222
101758.888
101931.815
101778.612
101618.107
101783.821
101958.339
101804.031
101641.75
101807.935
101983.431
101828.325
101664.589
101830.656
102006.561
101851.002
101686.192
101851.588
102027.349
101871.78
101706.33
101870.53
102045.655
101890.445
101724.717
101887.351
102061.541
101907.072
101741.355
101902.029
102075.238
101922.291
101757.031
101914.207
102085.117
101936.197
101773.253
101925.706
102093.799
101949.046
101788.742
101937.106
102102.671
101962.088
101804.373
101948.835
102112.211
101975.798
101820.432
101961.005
102122.45
101990.193
101836.834
101973.387
102133.075
102004.871
101853.013
101985.224
102143.273
102019.103
101868.226
101995.674
102152.138
102031.994
101881.77
102004.079
102158.934
102043.228
101893.1
102008.859
102163.1
102053.76
101902.132
102009.088
102164.7
102064.649
101909.436
102004.399
102164.3
102077.608
101914.916
101991.633
102161.102
102095.13
101916.804
101966.636
102153.327
102113.835
101915.56
101937.266
102140.796
102123.781
101910.922
101915.376
102132.789
102131.971
101912.092
101904.264
102126.556
102133.152
101903.62
101883.772
102110.425
102124.103
101888.448
101860.856
102088.048
102103.246
101868.57
101839.023
102062.338
102076.779
101843.955
101812.233
102030.737
102044.146
101813.38
101779.172
101992.459
102004.803
101776.394
101739.568
101947.553
101958.976
101733.52
101694.104
101896.939
101907.715
101686.337
101644.853
101843.033
101853.705
101638.92
101596.316
101791.015
101800.031
101597.938
101551.839
101740.439
101749.617
101550.911
101500.085
101680.244
101691.62
101498.43
101440.156
101607.787
101624.167
101425.748
101363.807
101513.122
101535.8
101335.716
101268.621
101405.775
101437.862
101244.063
101173.818
101317.016
101354.924
101167.988
101097.047
101245.061
101287.285
101105.774
101035.429
101185.068
101231.66
101055.477
100985.691
101135.904
101186.666
101015.559
100946.453
101096.958
101151.645
100985.317
100917.056
101067.843
101126.163
100964.259
100897.057
101048.249
101109.9
100952.094
100886.082
101037.734
101102.372
100948.219
100883.549
101035.78
101102.922
100951.924
100888.805
101041.802
101111.027
100962.827
100901.776
101056.003
101126.934
100981.076
100922.41
101077.888
101149.734
101005.558
100949.293
101105.689
101177.615
101034.768
100981.188
101138.137
101209.292
101067.426
101016.801
101173.998
101243.617
101102.241
101054.704
101211.773
101279.211
101137.853
101093.492
101249.931
101314.694
101173.017
101131.959
101287.214
101349.369
101206.353
101167.712
101321.28
101381.561
101235.546
101199.221
101347.891
101407.797
101260.607
101225.628
101375.921
101434.094
101285.351
101251.691
101403.506
101459.82
101309.649
101277.398
101430.733
101485.111
101333.861
101303.405
101458.438
101510.691
101359.917
101330.495
101495.002
101541.458
101391.955
101367.156
101540.451
101587.154
101443.18
101418.498
101599.647
101644.208
101499.671
101476.935
101663.254
101703.681
101557.303
101536.585
101724.259
101761.099
101604.928
101587.887
101777.003
101810.549
101647.934
101633.946
101824.248
101854.631
101688.153
101676.563
101867.682
101895.036
101725.66
101715.848
101907.371
101931.837
101759.91
101751.223
101942.791
101964.679
101790.521
101782.453
101975.376
101995.867
101819.279
101813.677
102009.799
102028.768
101849.678
101845.089
102041.992
102058.846
101877.637
101873.55
102070.729
102085.772
101902.774
101898.802
102096.104
102109.931
101925.474
101921.065
102118.12
102131.013
101945.324
101940.187
102136.719
102148.467
101961.458
101955.649
102151.487
102161.879
101973.638
101967.33
102162.422
102171.475
101982.365
101975.782
102170.24
102178.368
101988.767
101981.848
102175.571
102182.948
101993.015
101985.633
102178.462
102185.11
101994.985
101987.304
102179.254
102185.087
101994.934
101987.296
102178.486
102183.492
101993.452
101986.066
102176.595
102180.837
101991.014
101983.949
102173.933
102177.827
101989.034
101983.781
102175.424
102175.743
101985.757
101979.79
102170.248
102169.971
101980.259
101974.145
102163.757
102163.312
101974.133
101967.802
102156.585
102156.144
101967.035
101958.908
102144.846
102147.991
101961.303
101953.736
102139.528
102143.318
101957.616
101950.168
102135.647
102139.695
101954.668
101947.617
102132.797
102136.492
101952.046
101945.979
102131.347
102135.002
101950.255
101944.176
102128.59
102131.047
101944.569
101943.097
102130.956
102133.258
101948.188
101939.65
102123.029
102127.816
101945.338
101936.874
102120.376
102126.608
101945.29
101937.352
102121.34
102127.738
101946.698
101940.585
102125.076
102130.138
101948.408
101943.194
102127.671
102132.325
101950.696
101945.955
102130.81
102135.492
101954.056
101949.752
102134.897
102139.585
101958.148
101954.113
102139.58
102144.513
101963.711
101961.463
102149.509
102151.595
101969.347
101966.685
102154.819
102156.876
101973.096
101968.462
102153.715
102157.683
101972.648
101973.527
102163.745
102167.765
101983.078
101976.956
102162.387
102166.355
101980.872
101979.824
102168.284
102176.289
101993.91
101989.591
102176.89
102183.193
102000.664
101996.017
102183.537
102190.053
102007.209
102002.799
102191.176
102197.649
102014.539
102010.948
102200.177
102206.491
102022.858
102019.608
102209.637
102216.224
102032.821
102031.395
102224.54
102227.511
102040.77
102036.147
102226.804
102233.788
102047.593
102041.2
102232.202
102241.067
102055.116
102046.656
102237.776
102247.592
102062.688
102054.462
102246.897
102257.343
102071.62
102064.791
102257.944
102268.159
102080.881
102074.302
102267.386
102277.291
102089.295
102080.917
102274.013
102284.811
102096.464
102087.38
102280.929
102291.977
102103.156
102094.397
102288.655
102299.101
102109.481
102101.571
102296.707
102306.131
102115.461
102108.526
102304.572
102312.872
102121.273
102115.454
102312.463
102319.753
102126.999
102121.603
102319.236
102325.723
102131.921
102126.716
102324.913
102330.963
102136.221
102130.806
102329.432
102335.348
102139.743
102133.746
102332.621
102338.635
102142.217
102135.352
102334.374
102340.769
102143.798
102136.053
102335.172
102341.942
102144.659
102136.713
102336.121
102342.527
102144.501
102136.584
102336.369
102342.34
102143.74
102136.581
102337.122
102342.267
102143.098
102136.916
102338.291
102343.073
102143.704
102139.046
102341.884
102344.988
102142.289
102135.027
102337.064
102340.956
102137.342
102132.317
102336.084
102340.142
102135.012
102127.838
102332.171
102336.9
102130.874
102122.49
102326.486
102331.425
102125.399
102115.987
102320.126
102325.945
102120.517
102111.471
102315.492
102321.074
102115.073
102105.723
102309.257
102314.218
102108.677
102099.845
102302.37
102307.075
102101.643
102092.426
102294.938
102299.223
102094.395
102085.698
102288.135
102292.77
102087.166
102078.051
102280.457
102284.666
102078.903
102069.131
102272.806
102277.275
102071.075
102060.553
102264.411
102269.353
102062.815
102051.674
102255.713
102261.087
102054.348
102042.785
102247.142
102252.908
102046.017
102034.203
102238.61
102244.498
102037.679
102025.993
102230.126
102235.864
102029.412
102017.982
102221.871
102227.456
102021.309
102009.982
102213.514
102218.855
102012.923
102001.654
102204.796
102209.88
102004.183
101993.029
102195.812
102200.594
101995.105
101984.076
102186.424
102190.838
101985.6
101974.849
102176.033
102180.352
101975.486
101965.045
102166.051
102170.286
101965.863
101955.74
102156.683
102161.046
101957.121
101947.108
102148.71
102153.081
101949.616
101939.707
102141.14
102145.851
101943.087
101933.434
102134.922
102140.201
101938.259
101928.9
102130.418
102136.064
101934.427
101924.696
102125.522
102130.835
101929.164
101919.041
102119.212
102124.503
101923.268
101913.032
102112.738
102118.176
101917.482
101907.202
102106.482
102112.081
101911.942
101901.645
102100.508
102106.259
101906.673
101896.365
102094.8
102100.682
101901.642
101891.335
102089.342
102095.343
101896.851
101886.556
102084.135
102090.245
101892.294
101882.019
102079.18
102085.4
101887.983
101877.731
102074.487
102080.813
101883.942
101873.765
102070.084
102076.44
101880.174
101870.148
102065.913
102072.174
101876.564
101866.735
102061.921
102068.062
101873.081
101863.439
102058.044
102064.054
101869.689
101860.234
102054.274
102060.164
101866.413
101857.156
102050.673
102056.513
101863.21
101853.866
102047.261
102053.481
101860.177
101850.451
102043.867
102050.477
101857.191
101847.106
102040.515
102047.473
101854.212
101843.791
102037.167
102044.439
101851.215
101840.48
102033.806
102041.366
101848.199
101837.18
102030.446
102038.282
101845.181
101833.874
102027.095
102035.229
101842.147
101830.507
102023.669
102032.094
101839.059
101827.085
102020.153
102028.852
101835.884
101823.59
102016.544
102025.495
101832.608
101820.012
102012.835
102022.017
101829.227
101816.348
102009.027
102018.421
101825.744
101812.6
102005.122
102014.711
101822.164
101808.775
102001.13
102010.899
101818.498
101804.883
101997.063
102007.001
101814.766
101800.945
101992.95
102003.054
101811.018
101797.035
101988.863
101999.117
101807.347
101793.29
101984.888
101995.216
101803.801
101789.783
101981.172
101991.548
101800.446
101786.417
101977.548
101987.939
101797.137
101783.097
101973.97
101984.372
101793.876
101779.837
101970.458
101980.871
101790.69
101776.665
101967.038
101977.462
101787.604
101773.606
101963.736
101974.171
101784.642
101770.684
101960.573
101971.017
101781.822
101767.911
101957.554
101968.019
101779.184
101765.295
101954.665
101965.174
101776.717
101762.857
101951.955
101962.505
101774.427
101760.604
101949.429
101960.016
101772.326
101758.555
101947.097
101957.704
101770.408
101756.696
101944.936
101955.543
101768.635
101754.982
101942.914
101953.514
101766.987
101753.388
101941.005
101951.588
101765.435
101751.887
101939.18
101949.738
101763.953
101750.45
101937.411
101947.936
101762.513
101749.049
101935.672
101946.158
101761.091
101747.661
101933.941
101944.383
101759.669
101746.267
101932.202
101942.599
101758.233
101744.854
101930.444
101940.797
101756.774
101743.41
101928.656
101938.965
101755.281
101741.929
101926.83
101937.098
101753.752
101740.409
101924.971
101935.2
101752.193
101738.858
101923.085
101933.285
101750.617
101737.29
101921.195
101931.376
101749.051
101735.732
101919.328
101929.506
101747.521
101734.207
101917.507
101927.691
101746.043
101732.732
101915.746
101925.946
101744.636
101731.33
101914.07
101924.298
101743.328
101730.031
101912.509
101922.776
101742.148
101728.863
101911.092
101921.41
101741.123
101727.854
101909.845
101920.225
101740.278
101727.027
101908.792
101919.242