/*--------------------------------*- C++ -*----------------------------------*\
| =========                 |                                                 |
| \\      /  F ield         | OpenFOAM: The Open Source CFD Toolbox           |
|  \\    /   O peration     | Version:  2306                                  |
|   \\  /    A nd           | Website:  www.openfoam.com                      |
|    \\/     M anipulation  |                                                 |
\*---------------------------------------------------------------------------*/
FoamFile
{
    version     2.0;
    format      ascii;
    arch        "LSB;label=32;scalar=64";
    class       surfaceScalarField;
    location    "0.00018";
    object      phi;
}
// * * * * * * * * * * * * * * * * * * * * * * * * * * * * * * * * * * * * * //

dimensions      [1 0 -1 0 0 0 0];

oriented        oriented;

internalField   nonuniform List<scalar> 
3800
(
8.46560271e-06
8.36223793e-06
8.19967369e-06
8.1575193e-06
7.96258069e-06
7.88394826e-06
7.66738575e-06
7.37483158e-06
7.0464643e-06
6.9364658e-06
6.62812981e-06
6.41613801e-06
6.03501213e-06
5.36755583e-06
5.07597398e-06
4.61619068e-06
4.14880951e-06
3.77895093e-06
3.25727708e-06
2.43610897e-06
2.09385665e-06
1.5840806e-06
1.08698248e-06
5.69895663e-07
-1.71013753e-07
-6.39150463e-07
-1.12587277e-06
-1.73386737e-06
-2.02964731e-06
-2.59070288e-06
-3.47411839e-06
-3.86950328e-06
-4.25600125e-06
-4.73298864e-06
-5.00479812e-06
-5.65659987e-06
-6.41662089e-06
-6.40833423e-06
-6.77488888e-06
-7.21244157e-06
-8.06107729e-06
-7.89082654e-06
-8.19887775e-06
-8.527103e-06
-9.21095965e-06
-9.32194096e-06
-9.33213508e-06
-9.35335396e-06
-9.42970068e-06
-9.45898364e-06
-9.81997099e-06
-9.6304674e-06
-9.41547102e-06
-9.26129115e-06
-8.99463036e-06
-8.77826614e-06
-8.47060417e-06
-8.22782895e-06
-7.77436405e-06
-7.52793475e-06
-7.23283063e-06
-6.95116729e-06
-6.38449575e-06
-6.13342856e-06
-5.83766883e-06
-5.61781547e-06
-5.40910614e-06
-5.01025049e-06
-4.91515689e-06
-4.86531444e-06
-4.74744471e-06
-4.6170587e-06
-4.47132111e-06
-4.32150539e-06
-4.23066862e-06
-4.27038708e-06
-4.21754841e-06
-3.81219139e-06
-3.89270234e-06
-3.98143026e-06
-3.96634697e-06
-4.05700559e-06
-4.06731645e-06
-3.0336553e-06
-3.20973568e-06
-3.24979987e-06
-3.29522359e-06
-3.10416933e-06
-3.19884211e-06
-3.44867091e-06
-3.58648478e-06
-3.67659592e-06
-3.84558775e-06
-3.94884409e-06
-4.01544458e-06
-4.14425321e-06
-3.97976232e-06
-4.20384184e-06
-4.46770542e-06
-4.61266018e-06
-4.60731475e-06
-4.73155534e-06
-4.99370925e-06
-5.15806307e-06
-5.31365423e-06
-5.44610112e-06
-5.6180771e-06
-5.70649387e-06
-5.88443714e-06
-6.04792714e-06
-6.23665226e-06
-6.41931926e-06
-6.43659019e-06
-6.65898517e-06
-6.81096856e-06
-7.01373201e-06
-7.20506329e-06
-7.31728995e-06
-7.61226496e-06
-7.85589652e-06
-8.10127237e-06
-8.27161436e-06
-8.74658886e-06
-8.9418976e-06
-9.14982354e-06
-9.39280553e-06
-9.60361072e-06
-9.90401924e-06
-9.97296256e-06
-1.02448e-05
-1.0459563e-05
-1.10742407e-05
-1.11091791e-05
-1.12390928e-05
-1.13632613e-05
-1.15162323e-05
-1.16318419e-05
-1.17842476e-05
-1.1905615e-05
-1.25963448e-05
-1.26986297e-05
-1.28402131e-05
-1.28451079e-05
-1.28188687e-05
-1.29087286e-05
-1.31020186e-05
-1.32021091e-05
-1.26510301e-05
-1.2703994e-05
-1.27853161e-05
-1.33562295e-05
-1.32931354e-05
-1.31404777e-05
-1.24097958e-05
-1.23710987e-05
-1.24780653e-05
-1.24971473e-05
-1.18467415e-05
-1.18219839e-05
-1.22146371e-05
-1.20054172e-05
-1.18186628e-05
-1.17495284e-05
-1.16649279e-05
-1.16097449e-05
-1.15502555e-05
-1.16160601e-05
-1.23030434e-05
-1.21353762e-05
-1.13015118e-05
-1.12727049e-05
-1.13128516e-05
-1.19424517e-05
-1.16610575e-05
-1.07666572e-05
-1.06511026e-05
-1.07338558e-05
-1.07224606e-05
-9.96009588e-06
-9.80554298e-06
-9.77987527e-06
-1.01375137e-05
-9.39975229e-06
-7.8553988e-06
-7.76615973e-06
-7.7678827e-06
-7.30914135e-06
-6.74995626e-06
-6.48452134e-06
-6.41171276e-06
-6.65243872e-06
-6.08469942e-06
-5.82835553e-06
-5.76692585e-06
-6.01646358e-06
-5.45613552e-06
-5.12225096e-06
-4.92544657e-06
-5.0778053e-06
-4.55322197e-06
-3.9690958e-06
-3.5652689e-06
-3.52517303e-06
-2.94880858e-06
-2.21045493e-06
-1.47097904e-06
-1.25852636e-06
-6.0292923e-07
5.77034597e-07
1.14616915e-06
1.29484395e-06
2.60882317e-06
3.11897127e-06
2.87262149e-06
2.94794819e-06
3.38531136e-06
3.62732056e-06
3.17648873e-06
2.61814098e-06
2.5758685e-06
2.38485182e-06
1.78095552e-06
9.72869065e-07
3.88657217e-07
-1.08763856e-07
-5.49193785e-07
-1.34176812e-06
-2.44093479e-06
-3.26167588e-06
-3.93305248e-06
-4.63546087e-06
-5.79054178e-06
-7.47131804e-06
-8.81233857e-06
-9.54457746e-06
-1.07396275e-05
-1.2252076e-05
-1.40045804e-05
-1.4829895e-05
-1.65036409e-05
-1.82375315e-05
-2.02751269e-05
-2.27113162e-05
-2.46560134e-05
-2.72877434e-05
-2.93570967e-05
-2.98605059e-05
-3.23401508e-05
-3.55802386e-05
-3.82806128e-05
-4.05080094e-05
-4.29267555e-05
-4.37281382e-05
-4.61363724e-05
-5.00111295e-05
-5.16792322e-05
-5.24128456e-05
-5.42870757e-05
-5.79400018e-05
-5.85911572e-05
-5.84615272e-05
-5.93477786e-05
-6.26270759e-05
-6.25331425e-05
-6.09113075e-05
-5.87935182e-05
-5.79827204e-05
-6.01254557e-05
-5.82490405e-05
-5.54703167e-05
-5.23968344e-05
-5.01515221e-05
-5.01815373e-05
-4.72051585e-05
-4.42623737e-05
-4.16719985e-05
-4.06296465e-05
-3.87206464e-05
-3.66913453e-05
-3.41949394e-05
-3.19643419e-05
-3.02489654e-05
-2.91242734e-05
-2.74002963e-05
-2.47215879e-05
-2.33166177e-05
-2.23543823e-05
-2.08854058e-05
-1.86311529e-05
-1.73908317e-05
-1.67171443e-05
-1.53898709e-05
-1.4356684e-05
-1.33184401e-05
-1.20493537e-05
-1.10447644e-05
-1.00313994e-05
-9.16617835e-06
-8.34863253e-06
-7.61940742e-06
-6.95717572e-06
-6.53830459e-06
-5.8315427e-06
-4.96289156e-06
-4.39948921e-06
-3.88359092e-06
-3.34724853e-06
-2.7772402e-06
-2.30484598e-06
-1.86264537e-06
-1.42695731e-06
-1.02730305e-06
-6.46319903e-07
-2.72787881e-07
6.80982171e-08
2.97668523e-07
5.93961411e-07
8.80212709e-07
1.14939535e-06
1.40018827e-06
1.82286849e-06
2.12046742e-06
2.31065572e-06
2.47769292e-06
2.62141655e-06
2.58091526e-06
2.70440973e-06
2.82102683e-06
3.05520921e-06
3.15344968e-06
3.22497947e-06
3.31280914e-06
3.50412004e-06
3.57725559e-06
3.64332568e-06
3.7146361e-06
3.8877574e-06
3.95968103e-06
4.03355169e-06
4.10575893e-06
4.28899194e-06
4.34231676e-06
4.44575931e-06
4.53678079e-06
4.90855963e-06
5.02782425e-06
4.8490592e-06
4.95692178e-06
5.05897646e-06
5.16493382e-06
5.27391166e-06
5.62368847e-06
5.78801288e-06
5.9041541e-06
6.02741226e-06
6.28209441e-06
6.40584381e-06
6.49625154e-06
6.61175992e-06
6.8950196e-06
6.98634963e-06
7.08168209e-06
7.20826323e-06
7.7422144e-06
7.91964062e-06
7.67582407e-06
7.79989356e-06
7.90826386e-06
8.48886432e-06
8.68611132e-06
8.82436728e-06
8.4865568e-06
8.61294046e-06
8.75062977e-06
9.40728542e-06
9.59625309e-06
9.31444131e-06
9.43581665e-06
9.56368947e-06
9.77481784e-06
9.95715629e-06
1.01623938e-05
1.0275789e-05
1.04463187e-05
1.06546798e-05
1.08882095e-05
1.09343137e-05
1.1164844e-05
1.1396944e-05
1.14532899e-05
1.16667886e-05
1.16470298e-05
1.18541912e-05
1.23573189e-05
1.25965749e-05
1.27594417e-05
1.29167228e-05
1.36013479e-05
1.38747986e-05
1.38787978e-05
1.33861647e-05
1.34620175e-05
1.34939246e-05
1.34685536e-05
1.34094509e-05
1.33964313e-05
1.3372131e-05
1.33341431e-05
1.32861425e-05
1.31285408e-05
1.29688639e-05
1.26950445e-05
1.25993087e-05
1.23354473e-05
1.21309787e-05
1.17871806e-05
1.11046384e-05
1.08464859e-05
1.04623706e-05
1.00172076e-05
9.57827052e-06
9.37283838e-06
8.92770516e-06
8.20500056e-06
7.68277578e-06
7.47143437e-06
6.99114294e-06
6.51224307e-06
5.95248814e-06
5.28946983e-06
4.90146374e-06
4.32319392e-06
3.73469163e-06
3.08311182e-06
2.43969898e-06
1.95343924e-06
1.31803016e-06
6.00651683e-07
-9.41704085e-08
-5.22626497e-07
-1.18859206e-06
-1.9426257e-06
-2.6075651e-06
-3.20577631e-06
-3.78434757e-06
-4.64372062e-06
-5.56178579e-06
-5.8558058e-06
-6.50252452e-06
-7.19813412e-06
-7.81756761e-06
-8.54911382e-06
-9.79430592e-06
-1.03617905e-05
-1.09689478e-05
-1.14943336e-05
-1.19873583e-05
-1.24654618e-05
-1.28680935e-05
-1.32483869e-05
-1.34540375e-05
-1.31185383e-05
-1.34176932e-05
-1.3719376e-05
-1.40632517e-05
-1.4041593e-05
-1.43273735e-05
-1.45671192e-05
-1.47989135e-05
-1.48733331e-05
-1.50658783e-05
-1.51180624e-05
-1.58811373e-05
-1.57433922e-05
-1.54238648e-05
-1.53538619e-05
-1.53141022e-05
-1.51387611e-05
-1.4820446e-05
-1.48169241e-05
-1.42930377e-05
-1.39761448e-05
-1.35291119e-05
-1.40057602e-05
-1.37202287e-05
-1.32920729e-05
-1.27906423e-05
-1.2446031e-05
-1.19069367e-05
-1.21484247e-05
-1.17863365e-05
-1.11065008e-05
-1.03828545e-05
-9.46704087e-06
-1.00718704e-05
-9.17667468e-06
-7.47531933e-06
-6.70838584e-06
-6.01871187e-06
-5.18233659e-06
-5.27386195e-06
-4.43167586e-06
-3.13153242e-06
-2.27240692e-06
-2.1882226e-06
-1.38966159e-06
-6.52858053e-07
5.73686284e-08
8.27256382e-07
1.14186174e-06
1.35561097e-06
1.68601479e-06
2.0494553e-06
2.27728681e-06
2.47577916e-06
2.42102472e-06
2.41687051e-06
2.43773603e-06
2.48797834e-06
2.45005245e-06
2.02397808e-06
1.85554836e-06
1.71580706e-06
1.5244308e-06
1.14235633e-06
9.66698296e-07
8.07520536e-07
5.86921779e-07
2.66802549e-07
1.59144097e-07
-1.00585007e-08
-2.35419197e-07
-3.53411763e-07
-6.97169957e-07
-9.19594664e-07
-1.29980037e-06
-1.93309315e-06
-2.31563598e-06
-2.7752165e-06
-3.34370871e-06
-3.94244832e-06
-4.47530889e-06
-5.32103608e-06
-6.17988856e-06
-6.53903086e-06
-7.14936666e-06
-7.9346008e-06
-8.62422655e-06
-8.65348769e-06
-8.97845871e-06
-9.43117123e-06
-9.84630805e-06
-9.62273572e-06
-9.75475657e-06
-1.00474548e-05
-1.05413006e-05
-1.03776085e-05
-1.0546964e-05
-1.09269919e-05
-1.1578045e-05
-1.12328104e-05
-1.11689976e-05
-1.15955193e-05
-1.2794971e-05
-1.24065558e-05
-1.20120887e-05
-1.22303054e-05
-1.36026447e-05
-1.35425151e-05
-1.31992965e-05
-1.28604225e-05
-1.24758365e-05
-1.20247806e-05
-1.17451354e-05
-1.15311398e-05
-1.14345196e-05
-1.10841416e-05
-1.11575856e-05
-1.10259131e-05
-1.08482363e-05
-1.08269498e-05
-1.07985377e-05
-1.07725904e-05
-1.09441241e-05
-1.16500846e-05
-1.11395403e-05
-1.15990782e-05
-1.25678431e-05
-1.34945301e-05
-1.46309313e-05
-1.57586383e-05
-1.52504898e-05
-1.65719386e-05
-1.82472353e-05
-2.07482072e-05
-2.28042109e-05
-2.28114884e-05
-2.49720044e-05
-2.75391218e-05
-3.04429625e-05
-3.23082885e-05
-3.28465713e-05
-3.5341607e-05
-3.84259905e-05
-4.08628219e-05
-4.16406572e-05
-4.42320999e-05
-4.75239617e-05
-4.93928597e-05
-4.98745049e-05
-5.2021287e-05
-5.516235e-05
-5.67326617e-05
-5.73970939e-05
-5.82004384e-05
-5.84672966e-05
-5.82284809e-05
-5.6656213e-05
-5.47435816e-05
-5.3895431e-05
-5.26442275e-05
-5.14297205e-05
-5.28832447e-05
-5.0707019e-05
-4.84617399e-05
-4.62776664e-05
-4.61276156e-05
-4.32357511e-05
-4.01491686e-05
-3.85702638e-05
-3.59236858e-05
-3.32054007e-05
-3.10118842e-05
-2.95013353e-05
-2.71186883e-05
-2.47992849e-05
-2.29293377e-05
-2.21819997e-05
-2.04487859e-05
-1.91685901e-05
-1.8034517e-05
-1.68446671e-05
-1.48891806e-05
-1.40418765e-05
-1.35726228e-05
-1.28652564e-05
-1.16119464e-05
-1.10604914e-05
-1.07884035e-05
-1.02989869e-05
-9.30724451e-06
-8.95575895e-06
-8.66302446e-06
-8.38477449e-06
-8.22044255e-06
-8.36975159e-06
-8.10468028e-06
-7.40031329e-06
-7.23339858e-06
-7.18557293e-06
-7.06839171e-06
-6.58445923e-06
-6.47119142e-06
-6.38578382e-06
-6.58822606e-06
-6.39193002e-06
-6.03375343e-06
-5.87998256e-06
-5.76575617e-06
-5.65746251e-06
-5.57229706e-06
-5.50549316e-06
-5.69444854e-06
-5.59077859e-06
-5.46895392e-06
-5.337372e-06
-5.14469699e-06
-4.69868365e-06
-4.56644926e-06
-4.41503403e-06
-4.49431297e-06
-4.24284074e-06
-3.79860565e-06
-3.62287298e-06
-3.43807998e-06
-3.24960397e-06
-2.91311677e-06
-2.68279104e-06
-2.42941927e-06
-2.27332071e-06
-1.92410866e-06
-1.64120088e-06
-1.36741983e-06
-1.09569655e-06
-8.02750542e-07
-5.18586624e-07
-2.90555547e-07
-3.90071843e-08
2.21305406e-07
5.06871464e-07
8.12027381e-07
1.10428025e-06
1.35058563e-06
1.61347231e-06
1.68620982e-06
1.87992704e-06
2.0657044e-06
2.38151703e-06
2.59767969e-06
2.73992076e-06
2.89701257e-06
2.84909171e-06
2.94392532e-06
3.02480221e-06
3.20948658e-06
3.25075103e-06
3.28568245e-06
3.31619396e-06
3.44422535e-06
3.40376817e-06
3.37377807e-06
3.38150349e-06
3.32758043e-06
3.32028097e-06
3.48194401e-06
3.59354222e-06
3.5833954e-06
3.58949503e-06
3.42288036e-06
3.43836464e-06
3.46078574e-06
3.60445474e-06
3.63802124e-06
3.68129746e-06
3.76902986e-06
4.00616926e-06
4.11135588e-06
4.17668109e-06
4.31391713e-06
4.65032408e-06
4.80295481e-06
4.87873692e-06
5.039734e-06
5.51020912e-06
5.77695297e-06
5.97042946e-06
5.76516927e-06
5.8403597e-06
5.96578138e-06
6.04744017e-06
6.16780083e-06
6.24416413e-06
6.15382414e-06
6.16237475e-06
6.42969958e-06
6.34690035e-06
6.17400447e-06
6.07715051e-06
6.27143467e-06
6.18811714e-06
5.75790943e-06
5.55307915e-06
5.34679642e-06
5.25120701e-06
5.0289148e-06
4.81586017e-06
4.58711156e-06
4.38504239e-06
4.10441356e-06
3.91665238e-06
3.7150739e-06
3.57344254e-06
3.4133757e-06
3.06370813e-06
2.89715051e-06
2.70224251e-06
2.51701652e-06
2.20527034e-06
1.96800694e-06
1.88396887e-06
1.69660526e-06
1.36399522e-06
1.24212558e-06
1.11270811e-06
8.77238899e-07
6.66892263e-07
5.66462852e-07
3.6514186e-07
-2.10894577e-07
-5.10504119e-07
-6.20711098e-07
-8.89028635e-07
-1.57589184e-06
-1.83047506e-06
-1.82914039e-06
-2.03878366e-06
-2.29157656e-06
-2.56387627e-06
-3.25342736e-06
-3.31685032e-06
-3.45402379e-06
-3.75288611e-06
-4.48553089e-06
-4.62280247e-06
-4.70341709e-06
-4.6074856e-06
-4.56176863e-06
-4.58128731e-06
-4.59194297e-06
-4.53610004e-06
-4.39563091e-06
-4.00448414e-06
-3.71306615e-06
-3.57086224e-06
-3.85817441e-06
-3.36993263e-06
-2.96563935e-06
-2.64327265e-06
-2.60166882e-06
-2.07270588e-06
-1.57759364e-06
-9.94308825e-07
-5.11858149e-07
-1.4393758e-07
4.97371309e-07
9.27285396e-07
1.59069812e-06
2.16657466e-06
2.88777259e-06
3.62266327e-06
4.28144014e-06
4.98489849e-06
5.65725714e-06
6.5324056e-06
7.26589381e-06
7.91596753e-06
8.54648124e-06
9.4881487e-06
9.95021924e-06
1.03644831e-05
1.08371746e-05
1.22566047e-05
1.27255621e-05
1.22011189e-05
1.25381609e-05
1.28284783e-05
1.3903352e-05
1.40172765e-05
1.39354284e-05
1.41155461e-05
1.49202144e-05
1.47373736e-05
1.44997793e-05
1.44817311e-05
1.51188088e-05
1.46087384e-05
1.40456833e-05
1.37695348e-05
1.46716397e-05
1.42740386e-05
1.36342647e-05
1.30818085e-05
1.26360246e-05
1.291051e-05
1.20911117e-05
1.11515325e-05
1.07522281e-05
1.1004152e-05
9.72070328e-06
9.23163193e-06
8.88242553e-06
9.54457499e-06
9.08161174e-06
8.52608002e-06
8.28520004e-06
8.06032987e-06
7.87549767e-06
8.19097425e-06
7.45205147e-06
7.03174873e-06
6.98519234e-06
7.62602019e-06
7.63674296e-06
7.31718587e-06
7.05055271e-06
6.8163943e-06
6.76541767e-06
7.03917162e-06
6.05522406e-06
5.74370737e-06
5.51776119e-06
5.9430751e-06
5.47688942e-06
4.77249081e-06
4.17562514e-06
3.66422369e-06
3.17590663e-06
1.94925551e-06
1.16751357e-06
4.642075e-07
-4.02408261e-07
-1.54526165e-06
-2.36329809e-06
-3.18618241e-06
-4.03331186e-06
-4.82531315e-06
-5.50107366e-06
-6.19266065e-06
-6.79800142e-06
-7.15683158e-06
-7.59999882e-06
-8.0494941e-06
-8.46436364e-06
-8.51483094e-06
-8.88568197e-06
-9.26257138e-06
-9.71933201e-06
-1.02625976e-05
-1.08479931e-05
-1.15685087e-05
-1.29845086e-05
-1.37194297e-05
-1.37842642e-05
-1.46193408e-05
-1.57520459e-05
-1.68074616e-05
-1.78990915e-05
-1.84435289e-05
-1.77160625e-05
-1.82353717e-05
-1.88567685e-05
-1.91995629e-05
-1.99295989e-05
-2.01575903e-05
-1.89340613e-05
-1.91216007e-05
-1.92895093e-05
-1.94493683e-05
-1.96813219e-05
-1.99284768e-05
-2.02272759e-05
-2.05583622e-05
-2.09122011e-05
-2.12797334e-05
-2.16369371e-05
-2.19653314e-05
-2.22360331e-05
-2.24228231e-05
-2.24948365e-05
-2.24238553e-05
-2.21830307e-05
-2.17530558e-05
-2.1123851e-05
-2.03012273e-05
-1.93092026e-05
-1.81948823e-05
-1.70283343e-05
-1.59024417e-05
-1.49276212e-05
-1.42239323e-05
-1.39067545e-05
-1.40662499e-05
-1.47383437e-05
-1.58746415e-05
-1.73194186e-05
-1.88188737e-05
-2.00661512e-05
-2.0782486e-05
-2.07534229e-05
-1.97689485e-05
-1.74711201e-05
-1.34616065e-05
-8.01331499e-06
-3.31253666e-06
-1.16494474e-06
-1.56120089e-07
-1.06669903e-05
-4.65355754e-06
-1.21545319e-05
1.38688569e-05
-1.31303377e-05
-7.33552264e-06
2.35219237e-05
-2.93397214e-05
1.73401061e-05
9.44905348e-08
1.66562719e-05
-1.03493216e-05
1.79594926e-05
3.97750834e-06
4.9301639e-06
9.4950347e-06
6.32232179e-06
1.94358301e-06
3.97338382e-06
-4.24147695e-06
-6.89922411e-06
-8.68188371e-06
-1.19416361e-05
-1.46022208e-05
-4.2872305e-06
-1.62638585e-06
-1.09097775e-05
-1.17977847e-05
1.13891256e-05
-3.10785888e-05
6.44878681e-06
1.34549888e-05
-7.25659692e-06
8.14357145e-06
8.73260942e-06
1.0422703e-05
1.53782774e-05
1.40740121e-05
1.29122373e-05
1.20417163e-05
9.69885558e-06
7.50889398e-06
5.59995632e-06
3.215948e-06
-3.61783078e-06
-1.28923404e-05
4.98701091e-06
1.82865044e-05
-6.0144683e-05
-1.21244522e-05
3.7070607e-05
-2.51109746e-05
-1.44180893e-05
-5.10440826e-06
7.15460559e-07
-3.83763693e-06
-5.77291913e-06
-6.33308212e-06
4.75053389e-06
3.7782204e-05
-5.95273369e-05
-3.61174511e-06
7.10564946e-06
-4.78460646e-06
-9.78786123e-06
-6.46646271e-06
-5.76369045e-06
-5.77006914e-06
-5.75854023e-06
-5.81067307e-06
-6.70353248e-06
-7.76680892e-06
-9.26391442e-06
-1.10531453e-05
-1.2475128e-05
-1.37071869e-05
-1.47876178e-05
-1.64822287e-05
-1.85350561e-05
-2.06942572e-05
-2.29929116e-05
-2.52287256e-05
-2.73821111e-05
-2.92632316e-05
-3.08836895e-05
-3.21966211e-05
-3.32310005e-05
-3.39985336e-05
-3.45347183e-05
-3.48731082e-05
-3.50529782e-05
-3.50880158e-05
-3.49922303e-05
-3.47846453e-05
-3.44846753e-05
-3.40926196e-05
-3.36274411e-05
-3.30707853e-05
-3.24941453e-05
-3.18751503e-05
-3.12423752e-05
-3.04884463e-05
-2.98058592e-05
-2.90577573e-05
-2.83214909e-05
-2.7523088e-05
-2.68045664e-05
-2.59126783e-05
-2.49217622e-05
-2.39433076e-05
-2.2972354e-05
-2.19177907e-05
-2.08560576e-05
-1.97384563e-05
-1.86093462e-05
-1.74550402e-05
-1.62991803e-05
-1.51436627e-05
-1.40006305e-05
-1.28777407e-05
-1.17810328e-05
-1.07190911e-05
-9.69465058e-06
-8.71460604e-06
-7.779509e-06
-6.89471686e-06
-6.05769883e-06
-5.27236291e-06
-4.53485038e-06
-3.84724653e-06
-3.20547192e-06
-2.60902688e-06
-2.055322e-06
-1.53769261e-06
-1.06398481e-06
-6.23637994e-07
-2.09466077e-07
1.7786408e-07
5.23535038e-07
8.62841229e-07
1.20834732e-06
1.49175989e-06
1.77445286e-06
2.27945542e-06
2.04636432e-06
1.85967703e-06
3.29910334e-06
4.32504104e-06
2.80864255e-06
1.12318159e-06
3.75857017e-06
6.8568333e-06
4.00427437e-06
5.8164318e-07
4.02668511e-06
8.15289344e-06
5.68357663e-06
1.29174895e-06
3.7434606e-06
8.85980971e-06
6.9095613e-06
1.67272812e-06
4.66424845e-06
9.32419687e-06
5.97018377e-06
3.22414336e-06
7.60227067e-06
7.96878587e-06
5.70392012e-06
6.29166779e-06
5.91508365e-06
8.00843715e-06
8.40417617e-06
5.1139146e-06
6.30577772e-06
1.07990721e-05
9.04655385e-06
1.61333399e-06
8.45030293e-06
9.94263461e-06
7.9550191e-06
8.04062036e-06
7.37181355e-06
7.06584621e-06
8.32422691e-06
9.01166425e-06
8.09826982e-06
7.52358128e-06
8.26656961e-06
8.06199971e-06
7.78144284e-06
8.19226204e-06
8.10351458e-06
9.99652307e-06
8.70964588e-06
5.2004555e-06
8.01289825e-06
9.66457183e-06
7.86441308e-06
7.17756404e-06
7.80869627e-06
7.839487e-06
7.51914822e-06
7.43838807e-06
7.3482156e-06
7.00102652e-06
6.91327881e-06
7.35596865e-06
6.72447327e-06
6.30559336e-06
6.44509326e-06
6.26769797e-06
6.08472429e-06
6.0675245e-06
5.72271326e-06
5.40061454e-06
5.52343275e-06
5.19979753e-06
5.00112962e-06
5.20207965e-06
4.83499438e-06
4.31811997e-06
4.48614093e-06
4.63971242e-06
4.26196453e-06
4.00074429e-06
4.03166047e-06
3.98040298e-06
3.86567705e-06
3.77264814e-06
3.72111347e-06
3.68394827e-06
3.63754485e-06
3.58971469e-06
3.56810309e-06
3.57495825e-06
3.57411058e-06
3.55786705e-06
3.56889351e-06
3.61871204e-06
3.6586009e-06
3.65355784e-06
3.68533589e-06
3.79002808e-06
3.86356391e-06
3.84076986e-06
3.87506381e-06
4.04464948e-06
4.14512118e-06
4.08664021e-06
4.1123474e-06
4.33081906e-06
4.44957829e-06
4.34759347e-06
4.35819021e-06
4.61826285e-06
4.74771243e-06
4.59862272e-06
4.58224712e-06
4.86518627e-06
4.99370081e-06
4.81367815e-06
4.78225913e-06
5.05613927e-06
5.16949423e-06
4.99860067e-06
4.95963e-06
5.17208298e-06
5.2507257e-06
5.12141288e-06
5.08601534e-06
5.24319544e-06
5.3087686e-06
5.1684499e-06
5.10280253e-06
5.26579253e-06
5.33879936e-06
5.16992594e-06
5.09885923e-06
5.25055875e-06
5.30210915e-06
5.15273296e-06
5.09035799e-06
5.20662788e-06
5.24107147e-06
5.12516735e-06
5.07791948e-06
5.16095908e-06
5.1847275e-06
5.10427047e-06
5.07278128e-06
5.13265615e-06
5.15155993e-06
5.10366136e-06
5.08697665e-06
5.13407438e-06
5.15390016e-06
5.13347562e-06
5.13370741e-06
5.17312032e-06
5.19680015e-06
5.19626005e-06
5.21194032e-06
5.24961118e-06
5.27608072e-06
5.29404717e-06
5.32047902e-06
5.35961949e-06
5.3922301e-06
5.42198e-06
5.45656113e-06
5.49826911e-06
5.53483673e-06
5.57254844e-06
5.61272809e-06
5.6568101e-06
5.69665473e-06
5.73954498e-06
5.78422118e-06
5.82840973e-06
5.87114822e-06
5.91650821e-06
5.96314017e-06
6.00823686e-06
6.05235805e-06
6.0989724e-06
6.14725572e-06
6.19268392e-06
6.2373731e-06
6.28428618e-06
6.33393596e-06
6.37960965e-06
6.42388035e-06
6.47187511e-06
6.52173012e-06
6.56711878e-06
6.61119573e-06
6.65905704e-06
6.70783527e-06
6.75210604e-06
6.79489684e-06
6.84114514e-06
6.88736282e-06
6.92893755e-06
6.96878294e-06
7.01110918e-06
7.05242681e-06
7.08914453e-06
7.12378146e-06
7.15958073e-06
7.19366085e-06
7.22284697e-06
7.2495213e-06
7.27614478e-06
7.30030702e-06
7.31955647e-06
7.33587633e-06
7.35105148e-06
7.36327128e-06
7.37079836e-06
7.37526564e-06
7.37771973e-06
7.37704304e-06
7.37237863e-06
7.36483939e-06
7.3549254e-06
7.34230259e-06
7.32679629e-06
7.30578253e-06
7.28543758e-06
7.26212937e-06
7.23570014e-06
7.20796374e-06
7.17922585e-06
7.14902916e-06
7.11772825e-06
7.08559806e-06
7.05318097e-06
7.02025429e-06
6.9874567e-06
6.9545599e-06
6.92230096e-06
6.89026922e-06
6.85925508e-06
6.82877193e-06
6.79962478e-06
6.7712693e-06
6.74446955e-06
6.71869387e-06
6.69465224e-06
6.67184543e-06
6.65078811e-06
6.63114641e-06
6.61323216e-06
6.59687876e-06
6.58216725e-06
6.5691189e-06
6.5575733e-06
6.54774072e-06
6.53923143e-06
6.53242142e-06
6.52690216e-06
6.52301409e-06
6.52006661e-06
6.5185824e-06
6.51787685e-06
6.51838121e-06
6.51955708e-06
6.52163833e-06
6.52434133e-06
6.52757225e-06
6.53143599e-06
6.53557845e-06
6.5403222e-06
6.54484243e-06
6.55044257e-06
6.55633129e-06
6.56272648e-06
6.56717954e-06
6.57337519e-06
6.58333127e-06
6.59193575e-06
6.58242341e-06
6.5778878e-06
6.6373926e-06
6.64471157e-06
6.61464199e-06
6.62435475e-06
6.65476931e-06
6.68032177e-06
6.67025549e-06
6.65805718e-06
6.69859082e-06
6.75949551e-06
6.6960705e-06
6.63579494e-06
6.77016915e-06
6.87617849e-06
6.70227766e-06
6.59999055e-06
6.82704284e-06
6.93115583e-06
6.87187651e-06
6.82202946e-06
6.54537188e-06
6.63984159e-06
7.31022817e-06
7.10398524e-06
6.41886812e-06
6.63291472e-06
7.34139862e-06
7.12482234e-06
6.4188388e-06
6.62735225e-06
7.38451786e-06
7.16183533e-06
6.35349366e-06
6.54612305e-06
7.39344215e-06
7.1735234e-06
6.27720156e-06
6.42807631e-06
7.34127354e-06
7.15410754e-06
6.18294301e-06
6.25168662e-06
7.21488457e-06
7.09470383e-06
6.06518944e-06
6.01374798e-06
7.01536977e-06
6.98667363e-06
5.90434092e-06
5.7100778e-06
6.74832202e-06
6.81479256e-06
5.67893205e-06
5.36316138e-06
6.41678543e-06
6.51498927e-06
5.41307332e-06
5.05977491e-06
6.02312129e-06
6.09711969e-06
5.06811546e-06
4.75748114e-06
5.56609492e-06
5.56284126e-06
4.78565138e-06
4.64943654e-06
5.1165895e-06
5.0234933e-06
4.67104237e-06
4.80910381e-06
4.82819958e-06
4.52307059e-06
4.61512921e-06
4.96587145e-06
4.62374581e-06
4.22838757e-06
4.4579268e-06
4.55453961e-06
4.18974303e-06
4.00658422e-06
4.15066936e-06
4.07823799e-06
3.81134295e-06
3.69291963e-06
3.68573226e-06
3.55033623e-06
3.34836224e-06
3.21681426e-06
3.11381791e-06
2.94458431e-06
2.75782739e-06
2.58937758e-06
2.4256289e-06
2.23358592e-06
2.03269123e-06
1.82879612e-06
1.62851541e-06
1.41588823e-06
1.196123e-06
9.6972383e-07
7.48506851e-07
5.21837163e-07
2.87829669e-07
5.25047317e-08
-1.77979427e-07
-4.11625764e-07
-6.45552574e-07
-8.75986074e-07
-1.10360516e-06
-1.33431921e-06
-1.55767038e-06
-1.76619523e-06
-1.97916566e-06
-2.19680646e-06
-2.39723177e-06
-2.58952326e-06
-2.78029011e-06
-2.96609281e-06
-3.14342366e-06
-3.31329444e-06
-3.4768163e-06
-3.63401064e-06
-3.78360788e-06
-3.92575747e-06
-4.06089392e-06
-4.1889073e-06
-4.309541e-06
-4.42287377e-06
-4.52903604e-06
-4.62805978e-06
-4.71997695e-06
-4.80489657e-06
-4.88295966e-06
-4.95429956e-06
-5.01907175e-06
-5.07745914e-06
-5.12967107e-06
-5.17592528e-06
-5.21646389e-06
-5.25154039e-06
-5.28143459e-06
-5.30642701e-06
-5.3268258e-06
-5.34293298e-06
-5.35507885e-06
-5.36368938e-06
-5.36899033e-06
-5.37130869e-06
-5.37097957e-06
-5.36832465e-06
-5.36366631e-06
-5.35730963e-06
-5.34955176e-06
-5.34066917e-06
-5.33092197e-06
-5.32054662e-06
-5.30975606e-06
-5.29873711e-06
-5.28764784e-06
-5.27661855e-06
-5.26574792e-06
-5.25510641e-06
-5.24473231e-06
-5.23463681e-06
-5.22480051e-06
-5.21517963e-06
-5.20570327e-06
-5.19628023e-06
-5.18679723e-06
-5.17712563e-06
-5.16712097e-06
-5.15662864e-06
-5.14548538e-06
-5.13352231e-06
-5.12057001e-06
-5.10645632e-06
-5.09101757e-06
-5.07408761e-06
-5.05551896e-06
-5.03515865e-06
-5.01288348e-06
-4.98855865e-06
-4.96209031e-06
-4.93345649e-06
-4.90249667e-06
-4.86912797e-06
-4.83330527e-06
-4.7949761e-06
-4.75411426e-06
-4.71069517e-06
-4.6647086e-06
-4.61615344e-06
-4.56503226e-06
-4.51136231e-06
-4.45515575e-06
-4.39644337e-06
-4.33524385e-06
-4.2715974e-06
-4.20552667e-06
-4.13707846e-06
-4.06627774e-06
-3.99317584e-06
-3.91779902e-06
-3.84020329e-06
-3.76041667e-06
-3.67849901e-06
-3.59447995e-06
-3.50842742e-06
-3.42037572e-06
-3.33039683e-06
-3.23852735e-06
-3.14485728e-06
-3.04943399e-06
-2.95234386e-06
-2.85363006e-06
-2.7534252e-06
-2.65179824e-06
-2.54883503e-06
-2.44456613e-06
-2.33922018e-06
-2.23291043e-06
-2.1256432e-06
-2.01735029e-06
-1.90852806e-06
-1.79945536e-06
-1.68975834e-06
-1.57884844e-06
-1.46830186e-06
-1.35881642e-06
-1.24859409e-06
-1.13500865e-06
-1.02456255e-06
-9.17660026e-07
-8.09820241e-07
-6.85248542e-07
-5.75510076e-07
-4.88489509e-07
-4.02961704e-07
-2.00075778e-07
-1.20819795e-07
2.62471626e-08
1.95136506e-07
-9.5868786e-08
-1.48190499e-07
6.12062453e-07
8.20890598e-07
-5.63747e-07
-5.57890337e-07
8.95631705e-07
9.37342319e-07
-5.98108256e-07
-5.4877424e-07
1.03562828e-06
1.09603645e-06
-4.9545691e-07
-4.59898459e-07
1.2479881e-06
1.29684199e-06
-4.25398985e-07
-4.01004423e-07
1.41234418e-06
1.45002549e-06
-3.82997713e-07
-3.66428477e-07
1.54636634e-06
1.58223239e-06
-3.22680558e-07
-2.78278567e-07
1.59700793e-06
1.62584475e-06
-1.83436781e-07
-1.50623757e-07
1.67733965e-06
1.72399808e-06
-2.94443296e-08
3.70579119e-09
1.80352405e-06
1.86264545e-06
1.71155113e-07
2.04397976e-07
1.97939419e-06
2.05198149e-06
3.84202468e-07
4.01512322e-07
2.15034227e-06
2.2275167e-06
5.60634713e-07
5.75803468e-07
2.33542657e-06
2.42068642e-06
7.39998168e-07
7.5450053e-07
2.54539113e-06
2.64328181e-06
9.31527085e-07
9.44684894e-07
2.78213306e-06
2.8886507e-06
1.13238804e-06
1.14504182e-06
3.03631767e-06
3.15054815e-06
1.33534117e-06
1.34626143e-06
3.30869022e-06
3.41936113e-06
1.58581348e-06
1.59869841e-06
3.56402567e-06
3.68275027e-06
1.84341158e-06
1.84918908e-06
3.82899513e-06
3.95164297e-06
2.09655081e-06
2.09757677e-06
4.08765596e-06
4.21292694e-06
2.34621344e-06
2.34205981e-06
4.3373213e-06
4.46490696e-06
2.59116504e-06
2.58171393e-06
4.577376e-06
4.7070765e-06
2.83157647e-06
2.81716253e-06
4.80779551e-06
4.93971085e-06
3.06811634e-06
3.04857672e-06
5.02943339e-06
5.1639264e-06
3.30055985e-06
3.27539548e-06
5.24245524e-06
5.37982135e-06
3.52818413e-06
3.49488439e-06
5.44309869e-06
5.58505414e-06
3.75558336e-06
3.71202774e-06
5.61763466e-06
5.7664054e-06
3.97718526e-06
3.918201e-06
5.7766834e-06
5.92955182e-06
4.17709314e-06
4.1035935e-06
5.91516374e-06
6.07064991e-06
4.35197217e-06
4.26172179e-06
6.02721327e-06
6.18584028e-06
4.49890559e-06
4.39012774e-06
6.11082369e-06
6.27469444e-06
4.61845746e-06
4.4897263e-06
6.16790549e-06
6.34037045e-06
4.7150595e-06
4.5651453e-06
6.20281152e-06
6.38837464e-06
4.79496231e-06
4.62216408e-06
6.22067254e-06
6.42241473e-06
4.86242064e-06
4.66563281e-06
6.22286537e-06
6.44770721e-06
4.92705341e-06
4.6927554e-06
6.20320946e-06
6.47315592e-06
4.99598773e-06
4.6991943e-06
6.15616937e-06
6.50162787e-06
5.07432379e-06
4.67654334e-06
6.07011593e-06
6.53685929e-06
5.17020626e-06
4.59894012e-06
5.91597075e-06
6.59669085e-06
5.29174503e-06
4.45299504e-06
5.70886347e-06
6.65815322e-06
5.3897067e-06
4.27308004e-06
5.49196086e-06
6.66232431e-06
5.40278847e-06
4.10102048e-06
5.31114237e-06
6.60922605e-06
5.34687525e-06
3.92987368e-06
5.11589821e-06
6.50568645e-06
5.24868185e-06
3.73447903e-06
4.89824748e-06
6.35510399e-06
5.09566151e-06
3.52638705e-06
4.67556288e-06
6.12350166e-06
4.86904759e-06
3.30077956e-06
4.41981445e-06
5.83864974e-06
4.59182726e-06
3.02700106e-06
4.11144376e-06
5.49960775e-06
4.26058081e-06
2.69780738e-06
3.74568156e-06
5.1042588e-06
3.87344702e-06
2.31207506e-06
3.32515742e-06
4.65897454e-06
3.4395059e-06
1.88072184e-06
2.86532857e-06
4.18353427e-06
2.9802214e-06
1.42766418e-06
2.39680429e-06
3.71216318e-06
2.53162004e-06
9.83490349e-07
1.96193143e-06
3.29351927e-06
2.10880475e-06
5.5885308e-07
1.51219206e-06
2.8130138e-06
1.66411154e-06
1.11149585e-07
1.0015173e-06
2.27181067e-06
1.16194733e-06
-4.01965407e-07
3.56269803e-07
1.5677774e-06
5.05792845e-07
-1.08967864e-06
-4.56950728e-07
7.04653668e-07
-3.07466444e-07
-1.89761405e-06
-1.3257508e-06
-1.69083746e-07
-1.06136331e-06
-2.58118627e-06
-2.05626229e-06
-8.87891435e-07
-1.68419446e-06
-3.14835977e-06
-2.64132263e-06
-1.45996775e-06
-2.19484e-06
-3.61884973e-06
-3.1219659e-06
-1.92793656e-06
-2.60893425e-06
-3.99957814e-06
-3.51121821e-06
-2.30421446e-06
-2.93656491e-06
-4.29701286e-06
-3.81475429e-06
-2.59440218e-06
-3.1825017e-06
-4.51480405e-06
-4.03591388e-06
-2.80191513e-06