/*--------------------------------*- C++ -*----------------------------------*\
| =========                 |                                                 |
| \\      /  F ield         | OpenFOAM: The Open Source CFD Toolbox           |
|  \\    /   O peration     | Version:  2306                                  |
|   \\  /    A nd           | Website:  www.openfoam.com                      |
|    \\/     M anipulation  |                                                 |
\*---------------------------------------------------------------------------*/
FoamFile
{
    version     2.0;
    format      ascii;
    arch        "LSB;label=32;scalar=64";
    class       volVectorField;
    location    "0.00018";
    object      U;
}
// * * * * * * * * * * * * * * * * * * * * * * * * * * * * * * * * * * * * * //

dimensions      [0 1 -1 0 0 0 0];

internalField   nonuniform List<vector> 
3801
(
(1.47869528 0 0)
(1.46171483 0 0)
(1.44232699 0 0)
(1.39486615 0 0)
(1.36984256 0 0)
(1.37480919 0 0)
(1.35364124 0 0)
(1.28297641 0 0)
(1.22746156 0 0)
(1.20926126 0 0)
(1.17914538 0 0)
(1.11154019 0 0)
(1.04168215 0 0)
(0.972758578 0 0)
(0.90347385 0 0)
(0.834744095 0 0)
(0.748647906 0 0)
(0.664725187 0 0)
(0.592764652 0 0)
(0.49158389 0 0)
(0.388312903 0 0)
(0.323078192 0 0)
(0.236240407 0 0)
(0.130791858 0 0)
(0.0325317636 0 0)
(-0.0658311421 0 0)
(-0.141092685 0 0)
(-0.235717414 0 0)
(-0.336322924 0 0)
(-0.406107179 0 0)
(-0.510338082 0 0)
(-0.615750797 0 0)
(-0.670830391 0 0)
(-0.74825028 0 0)
(-0.847490264 0 0)
(-0.932777651 0 0)
(-1.01608032 0 0)
(-1.07543181 0 0)
(-1.14578797 0 0)
(-1.21757174 0 0)
(-1.28669881 0 0)
(-1.33760438 0 0)
(-1.39356588 0 0)
(-1.45383909 0 0)
(-1.49560572 0 0)
(-1.54128221 0 0)
(-1.55015511 0 0)
(-1.56598177 0 0)
(-1.61894953 0 0)
(-1.64037612 0 0)
(-1.62938232 0 0)
(-1.61499335 0 0)
(-1.6014932 0 0)
(-1.60951178 0 0)
(-1.57649887 0 0)
(-1.50540055 0 0)
(-1.45667934 0 0)
(-1.43580552 0 0)
(-1.37781262 0 0)
(-1.30216353 0 0)
(-1.25361721 0 0)
(-1.21951877 0 0)
(-1.14224088 0 0)
(-1.06665725 0 0)
(-1.01353323 0 0)
(-0.981694234 0 0)
(-0.965025244 0 0)
(-0.887170302 0 0)
(-0.844481429 0 0)
(-0.813278919 0 0)
(-0.796194413 0 0)
(-0.785073859 0 0)
(-0.761256007 0 0)
(-0.733586054 0 0)
(-0.721057573 0 0)
(-0.736372426 0 0)
(-0.730739063 0 0)
(-0.685902568 0 0)
(-0.665689508 0 0)
(-0.675461641 0 0)
(-0.680572669 0 0)
(-0.713420316 0 0)
(-0.715233264 0 0)
(-0.603688405 0 0)
(-0.536644828 0 0)
(-0.562313813 0 0)
(-0.563835106 0 0)
(-0.539023268 0 0)
(-0.541040742 0 0)
(-0.55397545 0 0)
(-0.58506403 0 0)
(-0.610425057 0 0)
(-0.637441375 0 0)
(-0.673573874 0 0)
(-0.695833344 0 0)
(-0.721120563 0 0)
(-0.699098511 0 0)
(-0.705249247 0 0)
(-0.751751951 0 0)
(-0.791070841 0 0)
(-0.790117928 0 0)
(-0.789830019 0 0)
(-0.812147999 0 0)
(-0.865889102 0 0)
(-0.91629179 0 0)
(-0.952905497 0 0)
(-0.955449385 0 0)
(-0.958740723 0 0)
(-0.963771554 0 0)
(-1.00318725 0 0)
(-1.06024871 0 0)
(-1.1095568 0 0)
(-1.11379476 0 0)
(-1.10661237 0 0)
(-1.12719808 0 0)
(-1.18413632 0 0)
(-1.24534547 0 0)
(-1.26842869 0 0)
(-1.28237394 0 0)
(-1.33105807 0 0)
(-1.39798592 0 0)
(-1.42967521 0 0)
(-1.4454787 0 0)
(-1.48579914 0 0)
(-1.5531169 0 0)
(-1.62897506 0 0)
(-1.66151644 0 0)
(-1.66749538 0 0)
(-1.70660114 0 0)
(-1.77613617 0 0)
(-1.80971019 0 0)
(-1.81952941 0 0)
(-1.85308897 0 0)
(-1.91096737 0 0)
(-1.98817276 0 0)
(-2.03416397 0 0)
(-2.05687293 0 0)
(-2.07659502 0 0)
(-2.07354678 0 0)
(-2.07634107 0 0)
(-2.11585701 0 0)
(-2.15003678 0 0)
(-2.16284898 0 0)
(-2.19677159 0 0)
(-2.26551553 0 0)
(-2.28103911 0 0)
(-2.23614948 0 0)
(-2.20759546 0 0)
(-2.23011704 0 0)
(-2.23276652 0 0)
(-2.21327261 0 0)
(-2.23461709 0 0)
(-2.22313273 0 0)
(-2.18240736 0 0)
(-2.18073524 0 0)
(-2.17398244 0 0)
(-2.11762081 0 0)
(-2.07922758 0 0)
(-2.07339181 0 0)
(-2.06294934 0 0)
(-2.0238259 0 0)
(-1.99020156 0 0)
(-2.01021075 0 0)
(-2.05784994 0 0)
(-2.05829148 0 0)
(-2.04421633 0 0)
(-2.02881929 0 0)
(-2.02442115 0 0)
(-2.03183936 0 0)
(-1.9890511 0 0)
(-1.97981753 0 0)
(-1.97487507 0 0)
(-1.96282939 0 0)
(-1.95996936 0 0)
(-1.89871079 0 0)
(-1.87594966 0 0)
(-1.86518087 0 0)
(-1.80851361 0 0)
(-1.75093511 0 0)
(-1.72810822 0 0)
(-1.70521071 0 0)
(-1.69047197 0 0)
(-1.66975227 0 0)
(-1.48748815 0 0)
(-1.30866143 0 0)
(-1.28035262 0 0)
(-1.25190819 0 0)
(-1.20158734 0 0)
(-1.15356536 0 0)
(-1.11534603 0 0)
(-1.10427923 0 0)
(-1.0973832 0 0)
(-1.03777585 0 0)
(-0.992829634 0 0)
(-0.997251356 0 0)
(-0.987638437 0 0)
(-0.923449534 0 0)
(-0.856402355 0 0)
(-0.84610037 0 0)
(-0.834281469 0 0)
(-0.745483978 0 0)
(-0.636855848 0 0)
(-0.596567637 0 0)
(-0.568171382 0 0)
(-0.454474846 0 0)
(-0.308300791 0 0)
(-0.234505184 0 0)
(-0.169605881 0 0)
(0.00213559067 0 0)
(0.18473841 0 0)
(0.16310335 0 0)
(0.300028343 0 0)
(0.559069763 0 0)
(0.52074999 0 0)
(0.45623001 0 0)
(0.549685254 0 0)
(0.65147943 0 0)
(0.581158538 0 0)
(0.449890317 0 0)
(0.45101032 0 0)
(0.463371582 0 0)
(0.354729264 0 0)
(0.21042399 0 0)
(0.108684822 0 0)
(0.0435788683 0 0)
(-0.0427468146 0 0)
(-0.176607895 0 0)
(-0.332174416 0 0)
(-0.484314567 0 0)
(-0.592747374 0 0)
(-0.730526996 0 0)
(-0.914936535 0 0)
(-1.14007957 0 0)
(-1.39482341 0 0)
(-1.57592191 0 0)
(-1.76185704 0 0)
(-2.01682877 0 0)
(-2.25398367 0 0)
(-2.49481462 0 0)
(-2.74252421 0 0)
(-3.04297369 0 0)
(-3.33810977 0 0)
(-3.6413007 0 0)
(-3.99338323 0 0)
(-4.41915565 0 0)
(-4.87323772 0 0)
(-5.18229418 0 0)
(-5.48140763 0 0)
(-5.9278039 0 0)
(-6.3301686 0 0)
(-6.76279581 0 0)
(-7.22574006 0 0)
(-7.63272943 0 0)
(-8.00637909 0 0)
(-8.47826244 0 0)
(-8.84995935 0 0)
(-9.17863755 0 0)
(-9.54865826 0 0)
(-9.93266591 0 0)
(-10.1552701 0 0)
(-10.3316448 0 0)
(-10.5831999 0 0)
(-10.7962946 0 0)
(-10.8079332 0 0)
(-10.6890273 0 0)
(-10.5587785 0 0)
(-10.5170451 0 0)
(-10.4710048 0 0)
(-10.1888225 0 0)
(-9.79086177 0 0)
(-9.45456254 0 0)
(-9.21009225 0 0)
(-8.8931726 0 0)
(-8.38876396 0 0)
(-7.97104503 0 0)
(-7.68111331 0 0)
(-7.25785426 0 0)
(-6.74626078 0 0)
(-6.37990181 0 0)
(-6.02156295 0 0)
(-5.71937245 0 0)
(-5.5276069 0 0)
(-5.2192424 0 0)
(-4.8039868 0 0)
(-4.47742414 0 0)
(-4.25492177 0 0)
(-3.99808387 0 0)
(-3.65361032 0 0)
(-3.37541585 0 0)
(-3.18017869 0 0)
(-2.97249131 0 0)
(-2.68596061 0 0)
(-2.4794963 0 0)
(-2.31765534 0 0)
(-2.12509493 0 0)
(-1.97499848 0 0)
(-1.85567734 0 0)
(-1.69869902 0 0)
(-1.54880377 0 0)
(-1.4103746 0 0)
(-1.26696146 0 0)
(-1.12917207 0 0)
(-1.02635801 0 0)
(-0.921176021 0 0)
(-0.822931532 0 0)
(-0.716460326 0 0)
(-0.606001257 0 0)
(-0.522938788 0 0)
(-0.446720792 0 0)
(-0.358343113 0 0)
(-0.274428065 0 0)
(-0.211664087 0 0)
(-0.148575767 0 0)
(-0.075918605 0 0)
(-0.0117440559 0 0)
(0.0306473791 0 0)
(0.0754344717 0 0)
(0.129282214 0 0)
(0.178776016 0 0)
(0.224853444 0 0)
(0.272587123 0 0)
(0.327930114 0 0)
(0.370709734 0 0)
(0.402295657 0 0)
(0.42756587 0 0)
(0.440004121 0 0)
(0.459799921 0 0)
(0.483665964 0 0)
(0.500360316 0 0)
(0.524522931 0 0)
(0.554559702 0 0)
(0.572268571 0 0)
(0.57925897 0 0)
(0.59764115 0 0)
(0.627129107 0 0)
(0.64279303 0 0)
(0.644779052 0 0)
(0.661562417 0 0)
(0.693613963 0 0)
(0.710157932 0 0)
(0.710726549 0 0)
(0.726676421 0 0)
(0.761139062 0 0)
(0.783873552 0 0)
(0.80092153 0 0)
(0.826383569 0 0)
(0.834635097 0 0)
(0.853276374 0 0)
(0.882598623 0 0)
(0.901718516 0 0)
(0.909221524 0 0)
(0.919522482 0 0)
(0.95768188 0 0)
(1.01376832 0 0)
(1.04092194 0 0)
(1.0405781 0 0)
(1.06637116 0 0)
(1.11905563 0 0)
(1.14293359 0 0)
(1.14028061 0 0)
(1.16551973 0 0)
(1.21945586 0 0)
(1.24797058 0 0)
(1.26308685 0 0)
(1.29316984 0 0)
(1.30788639 0 0)
(1.34471455 0 0)
(1.37162479 0 0)
(1.39113796 0 0)
(1.43475119 0 0)
(1.46059238 0 0)
(1.46238531 0 0)
(1.48905452 0 0)
(1.5198252 0 0)
(1.54927291 0 0)
(1.58910354 0 0)
(1.60484975 0 0)
(1.63977975 0 0)
(1.67929089 0 0)
(1.694852 0 0)
(1.68431285 0 0)
(1.7051373 0 0)
(1.78017104 0 0)
(1.81945711 0 0)
(1.81187921 0 0)
(1.83054394 0 0)
(1.8635829 0 0)
(1.88262391 0 0)
(1.90517452 0 0)
(1.9231991 0 0)
(1.96442554 0 0)
(2.03405581 0 0)
(2.06158731 0 0)
(2.07102076 0 0)
(2.11787447 0 0)
(2.20797422 0 0)
(2.25735316 0 0)
(2.27491285 0 0)
(2.30979379 0 0)
(2.31991282 0 0)
(2.3061329 0 0)
(2.33725366 0 0)
(2.38308042 0 0)
(2.39125503 0 0)
(2.38207403 0 0)
(2.3479368 0 0)
(2.2869079 0 0)
(2.26559549 0 0)
(2.31052232 0 0)
(2.3114494 0 0)
(2.23191372 0 0)
(2.18287891 0 0)
(2.19632734 0 0)
(2.18043826 0 0)
(2.08938535 0 0)
(1.99649482 0 0)
(1.93765753 0 0)
(1.90352413 0 0)
(1.85378379 0 0)
(1.75122517 0 0)
(1.67585101 0 0)
(1.64448628 0 0)
(1.58830046 0 0)
(1.46242445 0 0)
(1.361019 0 0)
(1.3119642 0 0)
(1.25143859 0 0)
(1.14734029 0 0)
(1.04218534 0 0)
(0.964653753 0 0)
(0.883011174 0 0)
(0.789938461 0 0)
(0.681267161 0 0)
(0.571665667 0 0)
(0.48241033 0 0)
(0.381419442 0 0)
(0.270589174 0 0)
(0.161234322 0 0)
(0.0516110601 0 0)
(-0.0523619167 0 0)
(-0.149411156 0 0)
(-0.264519021 0 0)
(-0.378988557 0 0)
(-0.484665596 0 0)
(-0.608591794 0 0)
(-0.738490905 0 0)
(-0.862937009 0 0)
(-0.960157085 0 0)
(-1.07301324 0 0)
(-1.19739996 0 0)
(-1.31329883 0 0)
(-1.4290571 0 0)
(-1.54993891 0 0)
(-1.67104053 0 0)
(-1.7708049 0 0)
(-1.86052345 0 0)
(-1.94542174 0 0)
(-2.02703238 0 0)
(-2.10182233 0 0)
(-2.16956444 0 0)
(-2.21194075 0 0)
(-2.23039169 0 0)
(-2.29449704 0 0)
(-2.34882043 0 0)
(-2.34464634 0 0)
(-2.36949926 0 0)
(-2.45301125 0 0)
(-2.49779473 0 0)
(-2.48013768 0 0)
(-2.50685858 0 0)
(-2.58620332 0 0)
(-2.61096814 0 0)
(-2.60953099 0 0)
(-2.61884566 0 0)
(-2.62431575 0 0)
(-2.65802674 0 0)
(-2.68812415 0 0)
(-2.66777986 0 0)
(-2.59059183 0 0)
(-2.52197896 0 0)
(-2.483401 0 0)
(-2.44468864 0 0)
(-2.36909889 0 0)
(-2.32589041 0 0)
(-2.3051585 0 0)
(-2.26357865 0 0)
(-2.23109109 0 0)
(-2.18795444 0 0)
(-2.09770198 0 0)
(-2.0347939 0 0)
(-2.01393921 0 0)
(-1.97056167 0 0)
(-1.87735834 0 0)
(-1.72026617 0 0)
(-1.67725172 0 0)
(-1.66716076 0 0)
(-1.45351556 0 0)
(-1.24202405 0 0)
(-1.11021352 0 0)
(-0.961304883 0 0)
(-0.898427996 0 0)
(-0.860952885 0 0)
(-0.666288666 0 0)
(-0.447450899 0 0)
(-0.364293106 0 0)
(-0.30572576 0 0)
(-0.185664557 0 0)
(-0.0583535468 0 0)
(0.0904510236 0 0)
(0.175346421 0 0)
(0.194967963 0 0)
(0.26586491 0 0)
(0.33959489 0 0)
(0.371754195 0 0)
(0.3904643 0 0)
(0.411118032 0 0)
(0.428290306 0 0)
(0.433952844 0 0)
(0.420219153 0 0)
(0.414924117 0 0)
(0.381115238 0 0)
(0.338203617 0 0)
(0.318586921 0 0)
(0.281416666 0 0)
(0.223095059 0 0)
(0.181036926 0 0)
(0.159120273 0 0)
(0.125742486 0 0)
(0.0721992662 0 0)
(0.0328862438 0 0)
(0.0118618788 0 0)
(-0.0171035766 0 0)
(-0.042946921 0 0)
(-0.0836254741 0 0)
(-0.141083418 0 0)
(-0.192807353 0 0)
(-0.271923082 0 0)
(-0.356223052 0 0)
(-0.426446947 0 0)
(-0.506867663 0 0)
(-0.613239988 0 0)
(-0.738603225 0 0)
(-0.861756683 0 0)
(-0.972871767 0 0)
(-1.07519435 0 0)
(-1.19959784 0 0)
(-1.32319416 0 0)
(-1.39946466 0 0)
(-1.45957916 0 0)
(-1.54108653 0 0)
(-1.60847636 0 0)
(-1.62984193 0 0)
(-1.64949906 0 0)
(-1.68956064 0 0)
(-1.72233712 0 0)
(-1.74312375 0 0)
(-1.7778232 0 0)
(-1.82017331 0 0)
(-1.86463223 0 0)
(-1.91292524 0 0)
(-1.94345249 0 0)
(-1.94496131 0 0)
(-1.97236784 0 0)
(-2.07494914 0 0)
(-2.15340813 0 0)
(-2.12468207 0 0)
(-2.0995633 0 0)
(-2.18212361 0 0)
(-2.25973574 0 0)
(-2.25920673 0 0)
(-2.25949981 0 0)
(-2.21793219 0 0)
(-2.14366455 0 0)
(-2.06586106 0 0)
(-1.98636173 0 0)
(-1.91584564 0 0)
(-1.86557458 0 0)
(-1.86064268 0 0)
(-1.88121376 0 0)
(-1.88170439 0 0)
(-1.89427147 0 0)
(-1.88865564 0 0)
(-1.86816585 0 0)
(-1.87716949 0 0)
(-1.9168157 0 0)
(-1.9231876 0 0)
(-1.9325111 0 0)
(-2.09516543 0 0)
(-2.21849867 0 0)
(-2.3703717 0 0)
(-2.58217133 0 0)
(-2.67671098 0 0)
(-2.74618606 0 0)
(-3.01975346 0 0)
(-3.32901754 0 0)
(-3.72170501 0 0)
(-3.96979153 0 0)
(-4.17712195 0 0)
(-4.56394029 0 0)
(-4.9609419 0 0)
(-5.39331834 0 0)
(-5.71439345 0 0)
(-6.01275183 0 0)
(-6.45359545 0 0)
(-6.8651644 0 0)
(-7.25427196 0 0)
(-7.6123558 0 0)
(-8.04300104 0 0)
(-8.40146348 0 0)
(-8.74913497 0 0)
(-9.08777668 0 0)
(-9.38729373 0 0)
(-9.56929133 0 0)
(-9.75861835 0 0)
(-9.91723732 0 0)
(-10.0230009 0 0)
(-10.0416345 0 0)
(-9.93823324 0 0)
(-9.84545711 0 0)
(-9.82629105 0 0)
(-9.66066799 0 0)
(-9.41210901 0 0)
(-9.26307839 0 0)
(-8.9741249 0 0)
(-8.7028763 0 0)
(-8.52454745 0 0)
(-8.20935954 0 0)
(-7.70198277 0 0)
(-7.2763892 0 0)
(-6.98177704 0 0)
(-6.43795273 0 0)
(-5.99429161 0 0)
(-5.72924154 0 0)
(-5.34585661 0 0)
(-4.83381028 0 0)
(-4.47306052 0 0)
(-4.2371676 0 0)
(-3.96267474 0 0)
(-3.59788292 0 0)
(-3.3312159 0 0)
(-3.1399131 0 0)
(-2.93486018 0 0)
(-2.70644619 0 0)
(-2.55124452 0 0)
(-2.41794291 0 0)
(-2.23144585 0 0)
(-2.07700288 0 0)
(-1.99420596 0 0)
(-1.90945858 0 0)
(-1.77353296 0 0)
(-1.65866628 0 0)
(-1.60143795 0 0)
(-1.55414192 0 0)
(-1.50400175 0 0)
(-1.45006709 0 0)
(-1.39463252 0 0)
(-1.36714219 0 0)
(-1.30849699 0 0)
(-1.28060525 0 0)
(-1.25655227 0 0)
(-1.19858517 0 0)
(-1.15205083 0 0)
(-1.14034699 0 0)
(-1.1211417 0 0)
(-1.09252121 0 0)
(-1.07794264 0 0)
(-1.05085234 0 0)
(-1.04095894 0 0)
(-1.02523329 0 0)
(-1.00512603 0 0)
(-0.987542695 0 0)
(-0.964772881 0 0)
(-0.943365505 0 0)
(-0.938341291 0 0)
(-0.923129191 0 0)
(-0.901602837 0 0)
(-0.87264944 0 0)
(-0.831018224 0 0)
(-0.807731285 0 0)
(-0.781704519 0 0)
(-0.752518827 0 0)
(-0.72804964 0 0)
(-0.681580591 0 0)
(-0.647893915 0 0)
(-0.613070739 0 0)
(-0.564872493 0 0)
(-0.524261741 0 0)
(-0.489336684 0 0)
(-0.444236431 0 0)
(-0.396797634 0 0)
(-0.351266827 0 0)
(-0.305508437 0 0)
(-0.263846619 0 0)
(-0.217657838 0 0)
(-0.166672766 0 0)
(-0.111910645 0 0)
(-0.0673876153 0 0)
(-0.0311534941 0 0)
(0.0140842774 0 0)
(0.0654848162 0 0)
(0.112654507 0 0)
(0.159731677 0 0)
(0.206743993 0 0)
(0.249577868 0 0)
(0.278450101 0 0)
(0.309471847 0 0)
(0.345924995 0 0)
(0.37840578 0 0)
(0.416294267 0 0)
(0.448706184 0 0)
(0.472646796 0 0)
(0.485482629 0 0)
(0.503405252 0 0)
(0.521255418 0 0)
(0.52968529 0 0)
(0.54520876 0 0)
(0.567234414 0 0)
(0.576070402 0 0)
(0.572936601 0 0)
(0.577893839 0 0)
(0.588764829 0 0)
(0.595122125 0 0)
(0.590506946 0 0)
(0.577238872 0 0)
(0.57224086 0 0)
(0.585484163 0 0)
(0.596178271 0 0)
(0.595317249 0 0)
(0.590274567 0 0)
(0.59606641 0 0)
(0.599106046 0 0)
(0.596086854 0 0)
(0.610590702 0 0)
(0.636602302 0 0)
(0.648577003 0 0)
(0.655313745 0 0)
(0.683371896 0 0)
(0.721732954 0 0)
(0.740666321 0 0)
(0.755084804 0 0)
(0.794613324 0 0)
(0.843496837 0 0)
(0.866454643 0 0)
(0.889040522 0 0)
(0.942666093 0 0)
(0.980346775 0 0)
(0.994108065 0 0)
(1.01542663 0 0)
(1.04044906 0 0)
(1.05251211 0 0)
(1.03835306 0 0)
(1.04538024 0 0)
(1.08048283 0 0)
(1.07975999 0 0)
(1.06772858 0 0)
(1.07820088 0 0)
(1.09245043 0 0)
(1.07406953 0 0)
(1.04974948 0 0)
(1.03964415 0 0)
(1.01130587 0 0)
(0.987720335 0 0)
(0.952133017 0 0)
(0.901714549 0 0)
(0.871989162 0 0)
(0.856924388 0 0)
(0.820518797 0 0)
(0.763730444 0 0)
(0.7208168 0 0)
(0.695486331 0 0)
(0.665081304 0 0)
(0.621800291 0 0)
(0.585700464 0 0)
(0.550741044 0 0)
(0.518358166 0 0)
(0.493769011 0 0)
(0.451273001 0 0)
(0.400999418 0 0)
(0.357223051 0 0)
(0.330507255 0 0)
(0.307728765 0 0)
(0.261378753 0 0)
(0.218887491 0 0)
(0.193506694 0 0)
(0.167277096 0 0)
(0.136655618 0 0)
(0.104712385 0 0)
(0.0788958007 0 0)
(0.00957698799 0 0)
(-0.0685833144 0 0)
(-0.104177292 0 0)
(-0.121915945 0 0)
(-0.206207795 0 0)
(-0.28682074 0 0)
(-0.307116375 0 0)
(-0.339871436 0 0)
(-0.374772105 0 0)
(-0.420442461 0 0)
(-0.487928924 0 0)
(-0.554444071 0 0)
(-0.596456347 0 0)
(-0.622562723 0 0)
(-0.691311542 0 0)
(-0.763724857 0 0)
(-0.771202061 0 0)
(-0.775742465 0 0)
(-0.802328728 0 0)
(-0.801850435 0 0)
(-0.803636582 0 0)
(-0.770122916 0 0)
(-0.736153356 0 0)
(-0.704452141 0 0)
(-0.673536869 0 0)
(-0.628475009 0 0)
(-0.623940211 0 0)
(-0.619606852 0 0)
(-0.557603262 0 0)
(-0.482726458 0 0)
(-0.441527236 0 0)
(-0.391061844 0 0)
(-0.310748094 0 0)
(-0.226676985 0 0)
(-0.128548375 0 0)
(-0.0596197184 0 0)
(0.0227845679 0 0)
(0.118853582 0 0)
(0.212391808 0 0)
(0.324957792 0 0)
(0.431258575 0 0)
(0.541722143 0 0)
(0.664746302 0 0)
(0.79887141 0 0)
(0.923664532 0 0)
(1.030794 0 0)
(1.15601242 0 0)
(1.30796735 0 0)
(1.43261576 0 0)
(1.52407513 0 0)
(1.63178252 0 0)
(1.75282135 0 0)
(1.83889799 0 0)
(1.93364953 0 0)
(2.06178225 0 0)
(2.09872531 0 0)
(2.14351804 0 0)
(2.2006704 0 0)
(2.24062691 0 0)
(2.33285429 0 0)
(2.41859087 0 0)
(2.43930025 0 0)
(2.44140231 0 0)
(2.48788576 0 0)
(2.53547519 0 0)
(2.52157676 0 0)
(2.48964532 0 0)
(2.50137427 0 0)
(2.48894462 0 0)
(2.41300793 0 0)
(2.36425811 0 0)
(2.39077345 0 0)
(2.3634207 0 0)
(2.33339314 0 0)
(2.24881053 0 0)
(2.15495999 0 0)
(2.10980082 0 0)
(2.03016363 0 0)
(1.91742486 0 0)
(1.83768498 0 0)
(1.75056425 0 0)
(1.65471209 0 0)
(1.58215647 0 0)
(1.53043778 0 0)
(1.54202218 0 0)
(1.49507687 0 0)
(1.4758877 0 0)
(1.4435479 0 0)
(1.40978308 0 0)
(1.36569261 0 0)
(1.31679402 0 0)
(1.26889096 0 0)
(1.23763313 0 0)
(1.21416527 0 0)
(1.26763397 0 0)
(1.25346811 0 0)
(1.21887946 0 0)
(1.22614426 0 0)
(1.21397077 0 0)
(1.18143639 0 0)
(1.11260902 0 0)
(1.03708382 0 0)
(0.998024101 0 0)
(0.959333623 0 0)
(0.953368877 0 0)
(0.875822595 0 0)
(0.795122941 0 0)
(0.702194892 0 0)
(0.590315754 0 0)
(0.437707876 0 0)
(0.271156679 0 0)
(0.145766356 0 0)
(0.021326867 0 0)
(-0.15272457 0 0)
(-0.344643781 0 0)
(-0.492709978 0 0)
(-0.611288072 0 0)
(-0.740767346 0 0)
(-0.903438581 0 0)
(-1.03445107 0 0)
(-1.09765534 0 0)
(-1.17090851 0 0)
(-1.2955745 0 0)
(-1.382137 0 0)
(-1.39548257 0 0)
(-1.43152786 0 0)
(-1.53081152 0 0)
(-1.62811061 0 0)
(-1.70411928 0 0)
(-1.79223301 0 0)
(-1.89292334 0 0)
(-1.97930129 0 0)
(-2.05999855 0 0)
(-2.18387229 0 0)
(-2.3083429 0 0)
(-2.50926246 0 0)
(-2.67397696 0 0)
(-2.71586958 0 0)
(-2.84166396 0 0)
(-2.96194611 0 0)
(-3.0041139 0 0)
(-3.16315432 0 0)
(-3.31909803 0 0)
(-3.41335496 0 0)
(-3.42470597 0 0)
(-3.27745093 0 0)
(-3.20402238 0 0)
(-3.33299926 0 0)
(-3.43593224 0 0)
(-3.46573606 0 0)
(-3.49756223 0 0)
(-3.53857001 0 0)
(-3.58727055 0 0)
(-3.64243317 0 0)
(-3.7028391 0 0)
(-3.76632712 0 0)
(-3.83020338 0 0)
(-3.89050735 0 0)
(-3.94292029 0 0)
(-3.98332866 0 0)
(-4.00662643 0 0)
(-4.00711985 0 0)
(-3.97964934 0 0)
(-3.92081997 0 0)
(-3.82796412 0 0)
(-3.70033904 0 0)
(-3.54020071 0 0)
(-3.35388587 0 0)
(-3.15169301 0 0)
(-2.94802053 0 0)
(-2.76101257 0 0)
(-2.61108436 0 0)
(-2.51916267 0 0)
(-2.50371384 0 0)
(-2.57636819 0 0)
(-2.73616118 0 0)
(-2.96479339 0 0)
(-3.22598326 0 0)
(-3.47035677 0 0)
(-3.64628724 0 0)
(-3.70974629 0 0)
(-3.62227733 0 0)
(-3.33326777 0 0)
(-2.77585087 0 0)
(-1.93259712 0 0)
(-0.919842301 0 0)
(-0.059880378 0 0)
(0.0488256801 0 0)
(-0.764954233 0 0)
(-1.432738 0 0)
(-0.564863039 0 0)
(0.465530348 0 0)
(-0.247359604 0 0)
(-1.26885057 0 0)
(1.14834463 0 0)
(-0.431005656 0 0)
(-0.950405767 0 0)
(1.1475366 0 0)
(0.680966933 0 0)
(0.162346963 0 0)
(0.827996095 0 0)
(1.09582776 0 0)
(0.486084552 0 0)
(1.01937318 0 0)
(0.964540909 0 0)
(0.801899046 0 0)
(0.518602892 0 0)
(-0.00313102522 0 0)
(-0.796575744 0 0)
(-1.20552174 0 0)
(-1.56718086 0 0)
(-2.038511 0 0)
(-1.38043234 0 0)
(-0.42426202 0 0)
(-0.807066741 0 0)
(-1.40749299 0 0)
(-0.296854054 0 0)
(-1.33380304 0 0)
(-1.07202359 0 0)
(1.19861275 0 0)
(0.764395735 0 0)
(0.424662113 0 0)
(1.4664861 0 0)
(1.70268472 0 0)
(2.33745667 0 0)
(2.64627414 0 0)
(2.4309376 0 0)
(2.32329471 0 0)
(2.05196457 0 0)
(1.63194077 0 0)
(1.26775469 0 0)
(0.855568317 0 0)
(-0.0940351758 0 0)
(-1.09830421 0 0)
(-0.583641948 0 0)
(1.69939811 0 0)
(-4.23340124 0 0)
(-4.48148087 0 0)
(0.845617144 0 0)
(2.62747624 0 0)
(-3.21169198 0 0)
(-1.83090732 0 0)
(-0.510788138 0 0)
(-0.168812707 0 0)
(-0.99904446 0 0)
(-0.840566706 0 0)
(0.440659881 0 0)
(2.85981939 0 0)
(-1.58912016 0 0)
(-5.57011093 0 0)
(0.604575569 0 0)
(0.0661710607 0 0)
(-1.21348918 0 0)
(-1.87721599 0 0)
(-1.27043965 0 0)
(-1.19274059 0 0)
(-1.24005316 0 0)
(-1.226665 0 0)
(-1.23587629 0 0)
(-1.48737133 0 0)
(-1.74769238 0 0)
(-2.10900248 0 0)
(-2.53218428 0 0)
(-2.87724418 0 0)
(-3.29774137 0 0)
(-3.75236239 0 0)
(-4.40708368 0 0)
(-5.10408022 0 0)
(-5.86595505 0 0)
(-6.65330989 0 0)
(-7.45701477 0 0)
(-8.23195287 0 0)
(-8.95725304 0 0)
(-9.61516154 0 0)
(-10.2015449 0 0)
(-10.7145334 0 0)
(-11.1576957 0 0)
(-11.536103 0 0)
(-11.8579501 0 0)
(-12.1281587 0 0)
(-12.3481164 0 0)
(-12.521138 0 0)
(-12.6515669 0 0)
(-12.7413923 0 0)
(-12.7922039 0 0)
(-12.8034752 0 0)
(-12.780923 0 0)
(-12.7373679 0 0)
(-12.6743199 0 0)
(-12.5679572 0 0)
(-12.4343909 0 0)
(-12.2914096 0 0)
(-12.1277684 0 0)
(-11.9457141 0 0)
(-11.757863 0 0)
(-11.5368802 0 0)
(-11.2494052 0 0)
(-10.9267729 0 0)
(-10.596533 0 0)
(-10.2419743 0 0)
(-9.85599614 0 0)
(-9.44045851 0 0)
(-9.00025387 0 0)
(-8.53801627 0 0)
(-8.06073378 0 0)
(-7.57071984 0 0)
(-7.07538841 0 0)
(-6.57655659 0 0)
(-6.08120214 0 0)
(-5.59056254 0 0)
(-5.11068337 0 0)
(-4.6420964 0 0)
(-4.18950415 0 0)
(-3.75299702 0 0)
(-3.33579871 0 0)
(-2.93733698 0 0)
(-2.55966767 0 0)
(-2.20165998 0 0)
(-1.86444002 0 0)
(-1.54645325 0 0)
(-1.2481403 0 0)
(-0.966983532 0 0)
(-0.704165711 0 0)
(-0.458774355 0 0)
(-0.227123278 0 0)
(-0.00682936854 0 0)
(0.196895721 0 0)
(0.389278733 0 0)
(0.584199331 0 0)
(0.76408899 0 0)
(0.924689952 0 0)
(1.1585985 0 0)
(1.2451696 0 0)
(1.13045397 0 0)
(1.49157874 0 0)
(2.19299122 0 0)
(2.04778783 0 0)
(1.12121609 0 0)
(1.38553466 0 0)
(2.82685407 0 0)
(2.90932934 0 0)
(1.24310782 0 0)
(1.2759672 0 0)
(3.31289566 0 0)
(3.84467976 0 0)
(1.96815113 0 0)
(1.44601548 0 0)
(3.5756339 0 0)
(4.50722934 0 0)
(2.50943684 0 0)
(1.83864828 0 0)
(4.06337757 0 0)
(4.49912778 0 0)
(2.80141049 0 0)
(3.47957256 0 0)
(4.89616426 0 0)
(4.36592185 0 0)
(3.85980861 0 0)
(3.91456047 0 0)
(4.34447361 0 0)
(5.24825983 0 0)
(4.32078283 0 0)
(3.64211284 0 0)
(5.72278965 0 0)
(6.43331612 0 0)
(3.33127588 0 0)
(3.32408102 0 0)
(6.02872905 0 0)
(5.92576573 0 0)
(5.39899231 0 0)
(5.17900816 0 0)
(4.85677825 0 0)
(5.16065428 0 0)
(5.87954753 0 0)
(5.802334 0 0)
(5.29299902 0 0)
(5.42060809 0 0)
(5.60225859 0 0)
(5.37678284 0 0)
(5.43588838 0 0)
(5.57372731 0 0)
(6.17234159 0 0)
(6.42145873 0 0)
(4.7412458 0 0)
(4.53374427 0 0)
(6.06014575 0 0)
(6.00872031 0 0)
(5.18206161 0 0)
(5.19319646 0 0)
(5.42286875 0 0)
(5.31188749 0 0)
(5.17758249 0 0)
(5.13151511 0 0)
(4.9852946 0 0)
(4.83201581 0 0)
(4.9561699 0 0)
(4.89555789 0 0)
(4.52452554 0 0)
(4.44255727 0 0)
(4.44065053 0 0)
(4.31574984 0 0)
(4.26047774 0 0)
(4.13769504 0 0)
(3.91922445 0 0)
(3.85103111 0 0)
(3.78043721 0 0)
(3.5985223 0 0)
(3.59601885 0 0)
(3.54713803 0 0)
(3.23682261 0 0)
(3.11922065 0 0)
(3.23819715 0 0)
(3.1563831 0 0)
(2.92997865 0 0)
(2.85470036 0 0)
(2.85171952 0 0)
(2.79349119 0 0)
(2.72100986 0 0)
(2.6721763 0 0)
(2.64339098 0 0)
(2.6161031 0 0)
(2.58491891 0 0)
(2.56257205 0 0)
(2.55985691 0 0)
(2.56464664 0 0)
(2.56094123 0 0)
(2.56139787 0 0)
(2.58581332 0 0)
(2.62089816 0 0)
(2.63585055 0 0)
(2.64749962 0 0)
(2.69926835 0 0)
(2.76659713 0 0)
(2.78739253 0 0)
(2.79325909 0 0)
(2.86950202 0 0)
(2.97088128 0 0)
(2.98822002 0 0)
(2.97776805 0 0)
(3.06961346 0 0)
(3.19584893 0 0)
(3.20359739 0 0)
(3.17172868 0 0)
(3.27393774 0 0)
(3.41934519 0 0)
(3.41322237 0 0)
(3.35437095 0 0)
(3.45572419 0 0)
(3.60959452 0 0)
(3.5916694 0 0)
(3.51557289 0 0)
(3.60833266 0 0)
(3.75392705 0 0)
(3.73264684 0 0)
(3.65731558 0 0)
(3.72595182 0 0)
(3.83595819 0 0)
(3.81849863 0 0)
(3.75875766 0 0)
(3.80775231 0 0)
(3.89263448 0 0)
(3.86632358 0 0)
(3.79137236 0 0)
(3.83069666 0 0)
(3.92078998 0 0)
(3.88583325 0 0)
(3.7986798 0 0)
(3.83204865 0 0)
(3.91006937 0 0)
(3.87394321 0 0)
(3.79683184 0 0)
(3.82038494 0 0)
(3.87855239 0 0)
(3.84879213 0 0)
(3.78949926 0 0)
(3.80570441 0 0)
(3.84763644 0 0)
(3.82737142 0 0)
(3.78702205 0 0)
(3.80015653 0 0)
(3.83149726 0 0)
(3.82158426 0 0)
(3.79898021 0 0)
(3.81262734 0 0)
(3.83939073 0 0)
(3.84028935 0 0)
(3.83423759 0 0)
(3.85114986 0 0)
(3.87644419 0 0)
(3.88633862 0 0)
(3.89353318 0 0)
(3.91538194 0 0)
(3.94111583 0 0)
(3.95913828 0 0)
(3.97738464 0 0)
(4.00372525 0 0)
(4.03224704 0 0)
(4.05712338 0 0)
(4.08286743 0 0)
(4.11321865 0 0)
(4.14424724 0 0)
(4.17372919 0 0)
(4.20468783 0 0)
(4.23800245 0 0)
(4.27117966 0 0)
(4.3039027 0 0)
(4.33842153 0 0)
(4.37354693 0 0)
(4.40791099 0 0)
(4.44274888 0 0)
(4.47909327 0 0)
(4.51533141 0 0)
(4.55059676 0 0)
(4.58648513 0 0)
(4.62394694 0 0)
(4.66095749 0 0)
(4.69659913 0 0)
(4.73282028 0 0)
(4.77097016 0 0)
(4.80867396 0 0)
(4.8443415 0 0)
(4.88094465 0 0)
(4.91970182 0 0)
(4.9574485 0 0)
(4.99298733 0 0)
(5.02951607 0 0)
(5.06787656 0 0)
(5.10482427 0 0)
(5.1395032 0 0)
(5.1749851 0 0)
(5.21179824 0 0)
(5.24679882 0 0)
(5.27938076 0 0)
(5.31233212 0 0)
(5.3458735 0 0)
(5.37724532 0 0)
(5.40606977 0 0)
(5.4345842 0 0)
(5.46288879 0 0)
(5.48863118 0 0)
(5.51154098 0 0)
(5.53349876 0 0)
(5.55448658 0 0)
(5.57261314 0 0)
(5.5877296 0 0)
(5.60129936 0 0)
(5.613278 0 0)
(5.62228629 0 0)
(5.62831587 0 0)
(5.63241918 0 0)
(5.63453382 0 0)
(5.63388381 0 0)
(5.63057391 0 0)
(5.62523452 0 0)
(5.61795357 0 0)
(5.60866877 0 0)
(5.5963698 0 0)
(5.58239795 0 0)
(5.56758911 0 0)
(5.5504243 0 0)
(5.53158648 0 0)
(5.51187841 0 0)
(5.4912073 0 0)
(5.46954579 0 0)
(5.44713464 0 0)
(5.42429956 0 0)
(5.40114496 0 0)
(5.37784941 0 0)
(5.35455138 0 0)
(5.33146843 0 0)
(5.30869913 0 0)
(5.28641597 0 0)
(5.26470488 0 0)
(5.24371989 0 0)
(5.22352597 0 0)
(5.20423878 0 0)
(5.18588558 0 0)
(5.16855499 0 0)
(5.15229854 0 0)
(5.13718691 0 0)
(5.12325034 0 0)
(5.11052614 0 0)
(5.09902532 0 0)
(5.08876018 0 0)
(5.0797288 0 0)
(5.07192192 0 0)
(5.06532153 0 0)
(5.05989441 0 0)
(5.05559568 0 0)
(5.05240941 0 0)
(5.05027871 0 0)
(5.04912663 0 0)
(5.04889753 0 0)
(5.0495434 0 0)
(5.05097093 0 0)
(5.05313012 0 0)
(5.05592273 0 0)
(5.0593065 0 0)
(5.06316687 0 0)
(5.06747505 0 0)
(5.07217051 0 0)
(5.077197 0 0)
(5.08236752 0 0)
(5.08777355 0 0)
(5.09367806 0 0)
(5.09992503 0 0)
(5.10559495 0 0)
(5.11110182 0 0)
(5.11881364 0 0)
(5.12760823 0 0)
(5.12919296 0 0)
(5.12364706 0 0)
(5.14685596 0 0)
(5.17250028 0 0)
(5.16518554 0 0)
(5.15512046 0 0)
(5.1734104 0 0)
(5.19343531 0 0)
(5.20252451 0 0)
(5.18980197 0 0)
(5.20475058 0 0)
(5.24154019 0 0)
(5.24375613 0 0)
(5.19204311 0 0)
(5.22636834 0 0)
(5.31550992 0 0)
(5.29156667 0 0)
(5.18244202 0 0)
(5.24185726 0 0)
(5.35591668 0 0)
(5.36700794 0 0)
(5.33295574 0 0)
(5.18098439 0 0)
(5.12567962 0 0)
(5.42498666 0 0)
(5.59855405 0 0)
(5.26034177 0 0)
(5.07010505 0 0)
(5.43911699 0 0)
(5.62030502 0 0)
(5.2616294 0 0)
(5.07030406 0 0)
(5.44790926 0 0)
(5.6503874 0 0)
(5.24057529 0 0)
(5.01545481 0 0)
(5.41803186 0 0)
(5.65359604 0 0)
(5.21594413 0 0)
(4.94060461 0 0)
(5.34783853 0 0)
(5.62143691 0 0)
(5.17118296 0 0)
(4.83608874 0 0)
(5.22747256 0 0)
(5.546408 0 0)
(5.10260111 0 0)
(4.69855276 0 0)
(5.05644284 0 0)
(5.4255737 0 0)
(4.99785882 0 0)
(4.5185875 0 0)
(4.8341932 0 0)
(5.25397172 0 0)
(4.84394042 0 0)
(4.2956904 0 0)
(4.57189804 0 0)
(5.00899209 0 0)
(4.62883028 0 0)
(4.07473478 0 0)
(4.30404635 0 0)
(4.69665896 0 0)
(4.33485783 0 0)
(3.82403985 0 0)
(4.00741794 0 0)
(4.31410982 0 0)
(4.02324231 0 0)
(3.67205347 0 0)
(3.78831695 0 0)
(3.94182475 0 0)
(3.78348668 0 0)
(3.69484527 0 0)
(3.75208677 0 0)
(3.64070226 0 0)
(3.56534332 0 0)
(3.73394373 0 0)
(3.74049738 0 0)
(3.45118205 0 0)
(3.38767553 0 0)
(3.5193184 0 0)
(3.41021434 0 0)
(3.19799259 0 0)
(3.18769809 0 0)
(3.21347241 0 0)
(3.0794494 0 0)
(2.92949063 0 0)
(2.88359998 0 0)
(2.82623971 0 0)
(2.69356152 0 0)
(2.56455055 0 0)
(2.47422816 0 0)
(2.36739414 0 0)
(2.22770328 0 0)
(2.09015328 0 0)
(1.96100165 0 0)
(1.8217676 0 0)
(1.66770027 0 0)
(1.5106375 0 0)
(1.35272493 0 0)
(1.1912373 0 0)
(1.02167515 0 0)
(0.848034452 0 0)
(0.672727805 0 0)
(0.497460728 0 0)
(0.31662715 0 0)
(0.133489314 0 0)
(-0.0493791217 0 0)
(-0.231205483 0 0)
(-0.415088066 0 0)
(-0.596695444 0 0)
(-0.776818482 0 0)
(-0.956648256 0 0)
(-1.13535137 0 0)
(-1.30475472 0 0)
(-1.47074473 0 0)
(-1.64013046 0 0)
(-1.80479744 0 0)
(-1.95940132 0 0)
(-2.1103809 0 0)
(-2.25890213 0 0)
(-2.40209302 0 0)
(-2.53909144 0 0)
(-2.67070357 0 0)
(-2.79738834 0 0)
(-2.91859959 0 0)
(-3.03392531 0 0)
(-3.14356695 0 0)
(-3.24767867 0 0)
(-3.34606985 0 0)
(-3.4386982 0 0)
(-3.52561642 0 0)
(-3.60690849 0 0)
(-3.68257117 0 0)
(-3.75267784 0 0)
(-3.81730502 0 0)
(-3.87657546 0 0)
(-3.93058436 0 0)
(-3.97947769 0 0)
(-4.02339565 0 0)
(-4.06251704 0 0)
(-4.09701206 0 0)
(-4.12708484 0 0)
(-4.15293792 0 0)
(-4.17480006 0 0)
(-4.19289787 0 0)
(-4.20747163 0 0)
(-4.21875337 0 0)
(-4.227039 0 0)
(-4.2326042 0 0)
(-4.23568216 0 0)
(-4.23652799 0 0)
(-4.23540507 0 0)
(-4.23256992 0 0)
(-4.2282721 0 0)
(-4.22275118 0 0)
(-4.21623454 0 0)
(-4.20893617 0 0)
(-4.20105247 0 0)
(-4.19276297 0 0)
(-4.18422538 0 0)
(-4.17557763 0 0)
(-4.16693311 0 0)
(-4.15838354 0 0)
(-4.14999491 0 0)
(-4.14181099 0 0)
(-4.13385028 0 0)
(-4.12610987 0 0)
(-4.11856358 0 0)
(-4.11116607 0 0)
(-4.10385189 0 0)
(-4.09653998 0 0)
(-4.0891332 0 0)
(-4.08152326 0 0)
(-4.07359031 0 0)
(-4.06520838 0 0)
(-4.05624446 0 0)
(-4.04656467 0 0)
(-4.03603214 0 0)
(-4.02451426 0 0)
(-4.01187871 0 0)
(-3.99800219 0 0)
(-3.9827642 0 0)
(-3.96605615 0 0)
(-3.94776993 0 0)
(-3.92780977 0 0)
(-3.90612079 0 0)
(-3.88264173 0 0)
(-3.85728044 0 0)
(-3.82999027 0 0)
(-3.80073004 0 0)
(-3.76947492 0 0)
(-3.73619962 0 0)
(-3.70089639 0 0)
(-3.66355525 0 0)
(-3.62418329 0 0)
(-3.58278264 0 0)
(-3.53937173 0 0)
(-3.49396157 0 0)
(-3.4465788 0 0)
(-3.39724048 0 0)
(-3.34597872 0 0)
(-3.29281455 0 0)
(-3.23778373 0 0)
(-3.18090982 0 0)
(-3.12223097 0 0)
(-3.06177294 0 0)
(-2.99957653 0 0)
(-2.93566961 0 0)
(-2.87009516 0 0)
(-2.80288481 0 0)
(-2.73408665 0 0)
(-2.66373579 0 0)
(-2.59188279 0 0)
(-2.51857065 0 0)
(-2.44386157 0 0)
(-2.36780165 0 0)
(-2.29044959 0 0)
(-2.21186765 0 0)
(-2.1321439 0 0)
(-2.05133325 0 0)
(-1.96948846 0 0)
(-1.88670378 0 0)
(-1.803125 0 0)
(-1.71879446 0 0)
(-1.63368914 0 0)
(-1.54796967 0 0)
(-1.46196251 0 0)
(-1.37562338 0 0)
(-1.28857064 0 0)
(-1.2011593 0 0)
(-1.11434075 0 0)
(-1.02767475 0 0)
(-0.939435629 0 0)
(-0.85095494 0 0)
(-0.765288708 0 0)
(-0.680810774 0 0)
(-0.589741458 0 0)
(-0.497098143 0 0)
(-0.420312396 0 0)
(-0.35241524 0 0)
(-0.235909178 0 0)
(-0.129431318 0 0)
(-0.0381165412 0 0)
(0.0741046604 0 0)