/*--------------------------------*- C++ -*----------------------------------*\
| =========                 |                                                 |
| \\      /  F ield         | OpenFOAM: The Open Source CFD Toolbox           |
|  \\    /   O peration     | Version:  2306                                  |
|   \\  /    A nd           | Website:  www.openfoam.com                      |
|    \\/     M anipulation  |                                                 |
\*---------------------------------------------------------------------------*/
FoamFile
{
    version     2.0;
    format      ascii;
    arch        "LSB;label=32;scalar=64";
    class       volScalarField;
    location    "0.00012";
    object      prefDh_H2;
}
// * * * * * * * * * * * * * * * * * * * * * * * * * * * * * * * * * * * * * //

dimensions      [1 1 -3 0 0 0 0];

internalField   nonuniform List<scalar> 
3801
(
37.7446671
31.0465636
21.7610215
23.419009
30.5665495
38.5147463
38.0685467
29.0915019
25.8916235
28.692504
38.4247518
30.0565571
26.0550708
29.2071265
38.6900568
38.2323917
29.2554418
26.4065977
28.9916447
37.9471534
28.5003949
23.1357259
26.6325203
31.956142
38.0655813
29.9991992
27.4503562
29.3683307
38.0167644
29.9584793
27.476706
29.4291813
37.7628153
28.6004553
23.243248
24.3379532
27.8354158
29.187252
32.6548457
37.9416998
30.1256827
29.3557108
32.467615
32.4787241
28.750273
29.1330073
37.6977772
29.1028556
21.1202696
21.7516952
24.9202996
29.1556635
38.523129
35.6404264
26.0793869
26.385988
29.8321416
37.9353744
32.6763265
21.4277353
29.1709794
38.3579478
35.7782467
25.4510289
28.0700518
37.9902338
36.2149576
27.1206706
29.6309886
38.5452011
36.4865717
26.5110223
29.6485513
38.6085496
36.7438302
26.116497
29.340564
38.8314826
36.9902932
28.2604449
29.3922045
38.453103
33.0781017
25.1395447
30.0259603
37.676721
27.7022957
27.1943562
38.2753567
37.888615
37.6093703
37.5303273
23.3403817
20.5952994
23.7876925
23.058576
21.9875981
26.8845974
38.7794686
38.3490367
29.3690145
26.1307641
31.6866604
38.6964391
38.0726035
29.0542619
26.4536689
38.5791851
38.3537742
29.2679046
23.2194956
29.1192591
38.7639079
38.724429
27.3706539
21.1684329
27.3390219
38.5895746
39.0421606
29.104329
26.232049
37.0361685
38.9027283
29.7091282
27.7037955
32.3885038
38.8592245
38.2958108
28.6643387
21.7278406
24.5896879
25.0989146
23.4703155
26.9074737
38.6306195
38.7778304
29.6499105
26.3568429
36.4488623
38.7106275
29.7091318
26.6936888
34.6647861
38.6340646
29.3369637
27.0075693
33.7556363
38.5124431
29.3861425
26.3305239
35.5948917
38.339555
29.1491232
23.0508284
25.7000191
23.259175
26.5523192
37.2486516
38.7074172
37.7160849
29.5041759
26.3604969
28.682823
38.1950304
30.7671675
26.8971103
28.7576994
38.2618763
32.7720722
27.3516402
28.8907194
37.8846626
32.4815207
24.6931542
29.5149839
38.5310405
29.0599548
29.4204392
38.2351526
30.8747184
23.6527637
23.5925027
26.338312
26.320079
29.0486599
38.328849
38.7542461
26.7141518
29.0011332
38.5968513
38.215123
26.0866154
29.2115356
38.6830245
37.7226777
25.6152559
29.4083502
38.6578285
37.0473616
24.7423653
29.4016079
38.4850568
35.8247231
21.8267893
21.7367346
24.3762958
29.1386722
38.2541109
35.9389123
25.3080848
28.6868815
37.8546134
28.4719531
23.847912
28.9575993
38.1806137
36.2879583
26.5083223
29.3443239
38.7591914
36.4074161
25.5833721
28.4075335
38.6532578
37.2363575
27.0131249
26.4129207
37.4647873
37.7111483
29.2712734
23.2983874
25.7621924
31.6769639
38.3590176
30.6315337
26.0142572
29.138613
38.6258872
33.4625144
25.7964103
23.7630369
28.5624448
38.4305527
39.0131847
27.2784253
26.892799
38.8092087
38.8284178
27.899157
27.1932413
38.7474238
38.7399092
28.1396898
27.0982559
38.8167847
38.2908878
28.7988947
22.0664443
25.6303181
32.5699696
38.3688369
37.3281877
38.5522913
38.0669323
27.0852404
22.5958351
25.2930214
25.1156376
26.4103095
25.5149612
27.8057574
38.1481642
39.0456673
29.2869105
27.9904758
37.8717073
38.8289755
29.4315651
28.5730032
37.8237775
38.8319875
29.335923
29.4171077
37.8608944
38.7823847
29.0320395
25.2275685
24.7349349
28.7615933
38.557334
28.8124856
28.9854125
37.8579493
39.0001355
27.1931525
24.4737458
24.8369534
29.3824818
38.3265175
38.4899746
26.6919329
29.7444411
38.2282588
34.9850865
25.1263772
28.9595925
38.4542213
28.8888876
29.1912579
38.8794001
31.8550365
27.5499012
29.2699327
38.5118427
37.4236636
24.1898972
23.8377447
24.6684275
22.9201666
22.5522567
28.9512382
38.5583819
38.2395975
29.5255691
27.8926227
28.9307266
38.1282069
29.6991327
27.062806
29.1089005
38.3170406
30.4247125
27.9212145
29.3668139
38.5698887
35.8047258
26.0468673
25.08925
24.5350218
28.4547411
38.3385782
38.4603901
37.040502
38.0965635
35.429015
24.1297288
23.1998434
24.5316682
21.5183186
28.8137818
38.2760586
35.9401487
26.6207761
29.6240711
38.6345529
36.4361187
27.1345036
29.5798316
38.8060435
36.8131727
26.5997137
28.9309273
39.0903887
37.7648643
28.437362
21.1693928
25.4559055
38.5600703
37.7362437
25.6476678
26.901957
38.7674942
37.8609119
26.2530519
27.1101101
38.8896134
38.2058495
26.1084154
26.050242
39.0093967
38.2897954
28.6828676
21.6975956
23.4967315
38.9247209
38.2418483
28.5769129
25.9689404
22.6749943
23.1023942
38.9644645
38.1813567
29.0929961
26.3651606
26.689709
24.5671085
24.6321635
38.5747371
38.5561471
28.314113
26.1257695
38.8195569
38.5219653
28.0159658
25.9734211
38.778331
38.4898317
28.7896004
23.9128871
23.9090339
38.5134827
38.4366671
28.7319115
23.9464941
24.0710662
38.4905083
38.5391037
29.000683
25.9796613
38.5247224
38.3735069
28.6372796
24.9131596
26.0477318
22.8726541
22.9104544
37.987004
38.5363476
27.1516344
25.5260787
38.2441674
38.475948
38.6089411
38.5183698
28.7403463
24.159896
24.1558457
38.1836317
38.6925374
29.1449061
28.31914
38.2009928
29.1979347
25.1194366
38.2129095
38.6063924
28.8805356
25.7749977
24.7048586
24.6723785
38.185187
38.5134793
29.0622861
26.7280071
38.2470231
38.3258368
28.7214427
25.0406701
25.0034978
37.8586073
38.7495179
29.4747836
26.3915172
37.9423617
38.7920042
27.9906834
25.5713839
37.9266706
38.7471021
26.7703448
24.978656
37.8721109
38.6118465
38.0596143
38.6210309
28.8515068
25.8494947
26.6065145
25.5930187
24.9826865
25.3531341
23.6287048
23.6596566
38.5414027
38.3305546
28.6866994
24.2597881
26.4779918
38.5987018
39.1497726
29.2260643
28.2273805
38.7438201
38.7592334
28.9271954
26.7761598
23.749587
23.8520622
38.8315217
38.7119057
27.5567657
25.6697437
38.8619479
38.6921854
26.3570975
25.0773558
39.0231237
38.440528
28.8577715
24.5619888
26.5578584
38.739974
38.7374649
25.5132834
24.6071909
38.7760877
38.5276845
25.0113037
24.8180833
38.6921261
38.3052337
24.8700598
25.1176846
38.6866567
38.1727598
24.7244882
25.4836585
38.7049078
38.0855339
25.1270137
25.8268055
38.7001854
37.9268159
24.8848844
26.0836668
38.6915705
37.7859126
25.546369
27.0809206
38.6198568
37.8023754
25.8258087
28.3194361
38.697159
37.7299075
26.3726649
29.1620015
38.7623245
37.8368501
27.0269729
29.5335228
38.6375327
37.8084544
24.3837076
23.8637107
26.4475627
25.1638511
28.8233298
38.3106643
37.9991921
23.2100025
23.2438426
25.8357031
29.4683413
38.2560639
29.4893592
25.9536665
28.882197
38.3231052
38.1527064
21.583001
21.9630804
34.4951129
38.2831089
28.8496853
25.5538275
38.5688672
38.494088
27.2372031
26.6395469
38.5090665
38.5549398
27.4898779
27.1258113
38.6374588
38.1545568
28.8576455
22.9637016
25.9420288
38.4464649
38.0099646
28.903956
20.8171969
23.4946042
37.2833006
37.8542539
37.3735279
38.1553346
25.1892514
20.8348494
36.9580828
37.7589243
29.3086068
21.3688052
23.6608148
37.2215319
38.4328769
29.8319167
26.8926463
37.1409163
38.0960903
29.1395018
22.8514437
24.2126302
37.643961
38.0915106
28.961452
22.0600212
23.8141397
37.4996302
38.5754888
29.4251373
26.28761
33.4809343
38.4231899
28.9760029
26.2638271
30.9626378
38.4099093
28.9618117
26.994564
29.883839
38.2126296
30.5334918
25.3074963
25.1594079
26.0649443
25.7439549
26.0223019
26.1925616
27.2931363
30.2861713
38.6555842
30.0623878
27.5589466
29.4727291
38.4417903
29.5649352
28.161346
30.0275816
38.121675
29.08165
28.2944283
31.3573159
32.8882058
29.0347521
29.8477661
37.8911742
29.2076832
25.8332471
28.3868313
31.5964546
37.7273932
29.2921758
29.2272471
30.3597925
37.7722653
29.508922
25.0628085
27.2098082
30.2332955
37.5424238
30.0175997
24.0598079
24.4420793
26.1411069
29.1986041
38.2783617
38.1386772
31.1643183
27.6532369
28.8549973
38.1401312
38.1425949
36.0726116
21.7195437
21.2888183
28.8449669
38.0818756
37.015428
21.1586037
19.7664954
28.5792806
38.5422111
38.7234119
38.0424708
38.3626424
37.3615522
23.7960014
21.7301445
24.1467119
21.9996624
26.1924983
38.3494695
38.2036819
26.5311553
27.3054598
38.5870368
38.2669575
27.8725532
24.0904221
26.7703295
38.4144818
38.4698075
25.7472081
23.6325279
38.4405519
38.4788218
27.8672486
37.886938
38.8822524
24.1439255
23.4847183
37.5928515
38.634761
25.8923056
23.9246694
37.4013156
38.424107
26.2510696
24.106566
37.3100298
38.0731583
28.5703991
21.1677738
21.2976426
36.8427021
38.1885611
27.9721876
24.0376241
36.6497388
38.1419514
25.0550177
21.5361528
36.1705252
38.0616095
37.6335074
38.1102777
29.0021357
21.4359249
23.7105561
20.9825302
21.0637584
37.330395
38.2371533
29.8684995
29.4726105
37.4920265
29.0803149
25.5234268
38.0238669
38.0232283
28.9499648
23.1975866
23.2472121
37.6326677
38.5970936
29.9734501
26.4360307
37.6075513
38.67049
29.1196822
25.8928432
37.4624779
38.5487786
27.5516357
24.1966817
37.5095241
38.4432506
24.8163852
21.9546584
34.701689
38.1906263
38.0607321
28.9122907
23.5113113
37.7702899
38.4357114
27.9814511
25.1827288
37.6588602
38.639784
28.5052488
25.8290941
37.7509281
38.7439379
29.3156635
26.8660147
37.8975645
38.7415465
29.6683348
28.038478
38.1076845
38.6572256
29.3028892
29.0610771
28.0849879
27.582339
24.3206332
24.3148674
38.0439902
37.9685737
29.3674487
23.5794689
23.5921671
38.1629568
37.9996997
29.053579
20.5460124
20.6926256
38.1066033
38.1954576
38.1201886
29.1862477
24.748073
38.2169666
38.4011109
29.1238379
25.9123729
22.1893872
22.2749133
37.4604031
38.4079929
29.896516
26.5496117
37.5160373
38.5488318
29.6976975
26.7662903
37.6079515
38.4733431
29.1125523
26.9198631
22.6605136
22.6838315
37.289309
37.9665044
29.1347642
22.1566708
22.1947597
37.0351575
38.4673893
29.5480837
26.3067538
37.3690742
38.3407503
29.3450599
25.52083
25.444092
36.9280333
38.3814881
29.6959969
26.6711403
36.8381036
38.5588598
25.995224
21.2512762
36.4332895
37.8450325
29.6702067
23.572875
23.6060528
37.2665647
37.8579785
29.311155
22.2974811
22.4481447
37.3544701
38.5645584
30.1433663
25.8325208
37.7186443
38.7716026
28.6921408
25.2633914
38.0941393
38.8260479
27.5826875
24.8193091
38.4666088
38.7670374
26.6898652
24.6747764
38.8468459
38.5994422
26.4652408
24.7848455
39.2402607
38.2309529
28.956553
20.485979
22.8271986
39.1460395
38.1183723
28.7300594
21.3477812
24.1500205
39.1028417
38.3420772
28.9926772
25.3912797
26.8308095
39.1457429
38.8463633
27.2516638
25.7681159
39.5098265
39.0001633
25.0874764
24.6389574
39.5083751
39.0964409
24.2238448
24.0101513
39.5920485
39.2762908
23.5753459
23.7617719
39.659087
39.1258873
23.1691603
22.6949092
39.4901466
35.6598445
20.4991887
19.3754794
20.4891394
28.8997831
39.7833538
39.9236981
39.7575135
23.3995213
21.5116368
40.2757838
39.9240461
22.2498472
22.8091702
40.4540438
40.3554926
20.4541634
26.6808424
40.1343667
24.314826
23.3038833
41.1169985
40.0848613
21.9825935
23.2507314
41.2223402
40.1809625
20.8381425
22.2865945
41.4447021
40.5155187
18.3261375
16.6958679
20.991423
26.2703937
42.298179
41.785613
21.3903411
25.7527048
42.5923966
42.598623
42.6390591
42.5980973
42.3311635
42.2967474
42.1786983
42.1785888
42.1467311
42.1880637
42.2147796
42.2927221
42.3600558
42.4656597
42.5575024
42.6817364
42.7855436
42.9193285
43.0271647
43.1632195
43.2704919
43.4053133
43.5084638
43.6433467
43.7376386
43.8785352
43.9561923
44.1138195
44.1572194
44.3432007
44.3105318
44.5929843
44.4096151
44.996143
30.206162
4.60222876
5.37576035
8.54674544
5.49291915
6.59632586
16.2516555
5.72071304
9.98991728
7.8915846
8.42659756
7.30433298
9.60822301
10.5148021
6.63006927
10.8192954
11.5364031
14.1927591
14.6920005
10.2407208
9.63972221
7.82043034
8.03448821
8.86748823
8.64895317
9.14755058
8.93161303
9.71681264
9.26104838
11.0235437
10.6002132
25.1970989
30.4169653
25.9195312
28.5405731
34.3169313
47.4713047
48.8159463
47.9228503
47.2809413
46.7505195
47.7417922
47.0251015
61.3968935
63.5674069
63.1593094
64.3012909
64.8859688
71.5807821
73.3991655
69.9426494
72.8988382
66.3553358
75.7617584
72.9025561
74.3452894
77.2575538
95.0940775
98.4124176
73.683404
79.4295849
102.880436
111.918245
98.3316246
106.51331
96.7376036
103.139948
104.505437
108.015389
116.457605
106.154694
111.678575
113.814145
108.04329
110.072147
127.413272
68.9580021
151.548828
149.039429
128.7344
102.398824
143.043985
160.728949
131.697715
118.549675
148.35843
157.339006
174.006668
190.444405
156.745354
186.681864
197.965572
222.234354
234.508281
251.800689
259.640594
246.488554
250.583567
266.009659
278.020873
284.378738
287.241411
293.442954
305.135743
316.900123
326.427744
336.441526
346.136084
355.675891
364.310961
371.506592
379.519254
389.281314
400.035851
419.258555
440.485719
458.782293
479.136783
494.091949
512.688795
525.116675
541.316289
552.40876
567.383691
580.767377
596.47651
615.414028
637.203369
655.78707
679.073514
696.685026
719.740294
736.842299
759.289048
776.495552
798.416912
816.115531
837.65227
856.07353
877.512647
897.11794
917.903027
938.270763
958.30991
979.220529
997.790099
1019.45239
1037.12923
1059.35471
1077.57309
1099.30064
1117.69511
1139.21718
1157.98821
1180.30848
1199.31382
1221.33836
1240.34569
1262.03099
1281.02429
1302.36111
1321.3214
1342.32939
1361.2355
1381.93983
1400.78459
1421.25668
1440.04541
1460.25346
1478.94156
1498.8988
1517.4877
1537.22235
1555.79213
1575.24052
1593.64796
1612.72197
1630.91048
1649.61916
1667.93742
1686.98974
1705.06374
1723.86088
1741.75371
1760.35732
1778.04985
1796.42188
1813.85753
1831.952
1849.07196
1866.86449
1883.61271
1901.0716
1917.38571
1934.45325
1950.32195
1966.82679
1982.13748
1998.24841
2013.2188
2028.03556
2042.19962
2057.70163
2072.78564
2085.76474
2101.90086
2116.68888
2124.12634
2144.90846
2192.52146
2146.04201
2148.87396
2234.70755
2280.4136
2191.49806
2195.36741
2370.9085
2380.51341
2246.7818
2249.65091
2380.64228
2403.64872
2272.00519
2280.79719
2472.42117
2465.22034
2304.61284
2304.86764
2550.72993
2535.25073
2340.88776
2353.62224
2551.59864
2606.14433
2376.88517
2390.44511
2613.96226
2664.22039
2414.08727
2438.96475
2670.1257
2677.94545
2450.68795
2486.04073
2710.10961
2681.59894
2502.34691
2517.74884
2738.7291
2763.0903
2546.25604
2553.61723
2783.82843
2795.49698
2572.1018
2587.79696
2803.16558
2835.43831
2672.58875
2621.34144
2795.09699
2876.72916
2721.11834
2657.09979
2824.87398
2908.98293
2804.35798
2684.6782
2834.67853
2942.29472
2866.12311
2698.8122
2860.66159
2956.65268
2869.63023
2753.61907
2884.69519
2953.10571
2907.66912
2861.05026
2916.96838
2896.79247
2929.11775
2926.72456
2942.80536
2940.18214
2949.61184
2959.79032
2958.04733
2964.47498
2960.74613
2972.59671
2965.9999
2973.79982
2974.41942
2978.61268
2979.24586
2988.36878
3002.36838
2991.01562
2995.46004
3017.02775
3037.86809
3008.61405
3007.80687
3049.77464
3064.07412
3024.45027
3036.76849
3078.09401
3081.89078
3047.21567
3064.87047
3097.09797
3098.20444
3076.34532
3089.68055
3113.22874
3115.51823
3100.83562
3111.96658
3127.83045
3131.29832
3122.69834
3131.40112
3140.52349
3144.85206
3141.7623
3148.28518
3153.28694
3157.6768
3157.77163
3162.61703
3165.65237
3169.95765
3171.41918
3175.40653
3177.4206
3181.62221
3183.77806
3186.96652
3187.93031
3192.63011
3195.53286
3197.36729
3196.97974
3202.90626
3207.93398
3206.31567
3202.16465
3213.59007
3221.79335
3212.57471
3198.0202
3226.59347
3234.02787
3203.76894
3198.47005
3239.2579
3246.08195
3198.79695
3200.39582
3247.10523
3250.35908
3173.10644
3191.71862
3244.98161
3250.0883
3134.09649
3168.93333
3243.07399
3247.50765
3133.19197
3144.31743
3246.95959
3249.75418
3133.94983
3147.53523
3251.8065
3254.56243
3138.72968
3153.01518
3256.58138
3259.3933
3147.04376
3159.53437
3261.12887
3264.10782
3157.61433
3167.20656
3266.51115
3268.69297
3169.36373
3176.02132
3272.10415
3273.17887
3180.95307
3185.42995
3277.38563
3278.77656
3192.81724
3195.15131
3282.9158
3284.88711
3204.56416
3203.01649
3288.95502
3290.65898
3215.75074
3206.96179
3294.4529
3295.7495
3225.70217
3214.71999
3300.25446
3300.60201
3235.71919
3225.57969
3306.75012
3304.47524
3245.2135
3229.85965
3298.64423
3308.19124
3250.72049
3234.33835
3293.00689
3312.64359
3247.10168
3240.01931
3292.70562
3311.69741
3255.49774
3251.01635
3286.6338
3309.44176
3274.92845
3269.19871
3285.26819
3300.93979
3284.5194
3284.75123
3288.86139
3293.98685
3290.60368
3292.60215
3293.42018
3296.48737
3295.68983
3297.41756
3298.14221
3300.0884
3300.50274
3301.93734
3302.86515
3304.36672
3305.22741
3306.55811
3307.56749
3308.93977
3309.97225
3311.27235
3312.36127
3313.68456
3314.78701
3316.0957
3317.25112
3318.55251
3319.74124
3321.03172
3322.25478
3323.54962
3324.80019
3326.1035
3327.38103
3328.70096
3330.00419
3331.34486
3332.67487
3334.04028
3335.39858
3336.72916
3338.0943
3339.44964
3340.84259
3342.22313
3343.64633
3345.0506
3346.50614
3347.93216
3349.42162
3350.86723
3352.39159
3353.85463
3355.41419
3356.89274
3358.48721
3359.97965
3361.60822
3363.11329
3364.77487
3366.25775
3367.88379
3369.32606
3370.97642
3372.42919
3374.10266
3375.56505
3377.25792
3378.7311
3380.42846
3381.92197
3383.61577
3385.13406
3386.82951
3388.36696
3390.053
3391.61674
3393.29932
3394.88347
3396.57559
3398.13964
3399.74894
3401.23505
3402.86788
3404.3532
3406.00841
3407.46233
3409.17264
3410.67918
3412.35007
3413.76738
3415.44632
3416.85725
3418.51595
3419.94126
3421.36197
3422.75064
3424.15561
3425.56399
3426.96136
3428.3884
3429.74998
3431.08329
3432.40917
3433.75579
3435.08042
3436.44021
3437.76371
3439.13632
3440.45892
3441.84372
3443.16575
3444.56201
3445.88374
3447.29063
3448.61231
3450.02886
3451.35062
3452.77572
3454.09757
3455.52986
3456.8516
3458.28943
3459.61045
3461.01048
3462.28642
3463.61765
3464.88767
3466.2349
3467.49795
3468.86079
3470.11447
3471.49334
3472.73431
3474.13085
3475.35334
3476.77066
3477.96876
3479.41213
3480.57439
3482.05131
3483.17089
3484.62689
3485.73347
3487.17798
3488.27535
3489.71745
3490.75031
3492.20485
3493.23812
3494.71686
3495.56276
3497.10353
3498.08937
3499.67707
3500.09444
3501.85936
3503.14055
3504.85148
3504.22969
3506.45902
3509.74349
3511.07116
3507.51337
3510.74547
3520.97355
3520.40435
3503.52211
3511.9684
3537.44356
3534.30353
3481.09157
3502.15074
3545.86176
3547.91032
3451.33771
3478.22847
3549.30304
3552.35897
3438.42643
3461.71091
3554.29852
3557.19715
3433.69029
3457.23755
3559.41428
3562.32766
3433.58589
3453.33781
3565.15015
3567.97736
3436.0354
3452.65508
3571.08633
3573.7189
3443.30308
3454.40793
3577.19497
3579.5556
3450.82212
3458.45839
3583.44
3585.87014
3458.12631
3465.00068
3589.43843
3592.73654
3465.08565
3471.58728
3595.59448
3599.65412
3472.5087
3477.92429
3601.91653
3606.34015
3480.54175
3485.66298
3608.97913
3612.54032
3489.48209
3493.73852
3616.23773
3619.10954
3498.15796
3502.86181
3622.99852
3625.91185
3506.69971
3511.54662
3630.05595
3632.70851
3515.42566
3519.91964
3637.42715
3639.62794
3524.21597
3528.58518
3644.69749
3646.54526
3533.13513
3536.86434
3652.43572
3653.79411
3541.84372
3545.84449
3659.80222
3661.14144
3550.50346
3554.94089
3667.07466
3668.54521
3559.07134
3564.81377
3673.8251
3676.42712
3566.90194
3574.2335
3680.82311
3683.89887
3574.56539
3583.24435
3687.9037
3691.54835
3581.87631
3591.95167
3695.02852
3698.8988
3589.5461
3599.71207
3702.75356
3705.85831
3597.68358
3607.51768
3710.20928
3712.97027
3605.5584
3615.42158
3717.43315
3720.13783
3613.18354
3623.35082
3724.40343
3727.08887
3620.97089
3630.58839
3731.55985
3734.09145
3628.65429
3637.40001
3738.68232
3740.82267
3636.60918
3644.41229
3745.48215
3747.4706
3644.36753
3650.86237
3752.78045
3754.27478
3651.46048
3657.8798
3759.61582
3760.9384
3658.43276
3664.81583
3766.38477
3767.51682
3665.2431
3671.63641
3773.1005
3774.01183
3671.91345
3678.27992
3779.76274
3780.42469
3678.37277
3684.85115
3786.27417
3786.67935
3684.74387
3691.37063
3792.67417
3792.81009
3690.95082
3697.81033
3799.0069
3798.82748
3696.54111
3704.14421
3805.27806
3804.72695
3701.8281
3710.34935
3811.46165
3810.49569
3706.95478
3716.40467
3817.52968
3816.12727
3711.94223
3722.29655
3823.45832
3821.61938
3716.81764
3728.02
3829.22124
3826.9799
3721.6152
3733.57151
3834.77584
3832.19625
3726.38453
3738.94755
3838.99945
3837.28915
3731.09055
3744.15532
3842.85026
3842.24948
3735.69583
3749.19583
3846.64832
3847.06728
3740.17857
3753.99647
3850.3951
3851.76876
3744.53797
3758.42503
3854.11034
3856.3464
3748.77428
3762.66084
3857.79636
3860.78838
3752.90182
3766.6909
3861.42896
3865.09799
3756.93021
3770.52198
3865.04527
3869.28037
3760.86336
3774.16504
3868.64851
3873.3395
3764.72405
3777.63413
3872.26373
3877.27536
3768.49668
3780.94649
3875.93258
3881.10464
3772.19301
3784.13091
3879.65698
3884.80979
3775.79567
3787.22146
3883.31583
3888.38794
3779.28019
3790.25754
3886.95675
3891.82653
3782.65836
3793.23729
3890.57427
3895.12413
3785.92455
3796.13056
3894.04084
3898.28971
3789.05729
3798.93347
3897.35115
3901.32684
3792.06685
3801.64287
3900.53419
3904.2413
3794.95952
3804.26151
3903.59863
3907.03345
3797.73718
3806.79014
3906.55023
3909.70525
3800.40434
3809.23128
3909.38045
3912.2597
3802.96126
3811.58565
3912.08777
3914.70061
3805.4093
3813.85462
3914.66857
3917.0333
3807.74826
3816.03754
3917.119
3919.25856
3809.97762
3818.13815
3919.4358
3921.37378
3812.09723
3820.15546
3921.61705
3923.38004
3814.1078
3822.09126
3923.66225
3925.28108
3816.01044
3823.94627
3925.57231
3927.07928
3817.80689
3825.72208
3927.34947
3928.77703
3819.49926
3827.42044
3928.99697
3930.37673
3821.08978
3829.04307
3930.51871
3931.88085
3822.58072
3830.59151
3931.91905
3933.29186
3823.97462
3832.06715
3933.20357
3934.61238
3825.27474
3833.47115
3934.37907
3935.84499
3826.48468
3834.80475
3935.45217
3936.9925
3827.60788
3836.06939
3936.42899
3938.05782
3828.64772
3837.2667
3937.31525
3939.04402
3829.60749
3838.39852
3938.11614
3939.95404
3830.49036
3839.46647
3938.83624
3940.79063
3831.29933
3840.47252
3939.47962
3941.55696
3832.03731
3841.41854
3940.04984
3942.2559
3832.70708
3842.30611
3940.54995
3942.89056
3833.31129
3843.13731
3940.98247
3943.45807
3833.8524
3843.91961
3941.34995
3943.96013
3834.33306
3844.65448
3941.65507
3944.40452
3834.75595
3845.33996
3941.90061
3944.79347
3835.12358
3845.97886
3942.0891
3945.12953
3835.43816
3846.57395
3942.22285
3945.41536
3835.70162
3847.12795
3942.30388
3945.65352
3835.91563
3847.64342
3942.33408
3945.84631
3836.08176
3848.12247
3942.31536
3945.9957
3836.2017
3848.56674
3942.24986
3946.10324
3836.2774
3848.9774
3942.14003
3946.17219
3836.31108
3849.35511
3941.98819
3946.20448
3836.30493
3849.70041
3941.79634
3946.20012
3836.26087
3850.01425
3941.56588
3946.16146
3836.18038
3850.29758
3941.29746
3946.09147
3836.06441
3850.55105
3940.99084
3945.99374
3835.9134
3850.77494
3940.64498
3945.87088
3835.72727
3850.96529
3940.25783
3945.72304
3835.50608
3851.12749
3939.82803
3945.55062
3835.25052
3851.26149
3939.35516
3945.35393
3834.9618
3851.36618
3938.83916
3945.13337
3834.64136
3851.44034
3938.27999
3944.88976
3834.29042
3851.48321
3937.67726
3944.62474
3833.90959
3851.49475
3937.03036
3944.34073
3833.49884
3851.47537
3936.33918
3944.04048
3833.05805
3851.42531
3935.60602
3943.72674
3832.58799
3851.34394
3934.83782
3943.40087
3832.09154
3851.23008
3934.04942
3943.06355
3831.57454
3851.08234
3933.26429
3942.71528
3831.04543
3850.89986
3932.50476
3942.35599
3830.51054
3850.68416
3931.7478
3941.98445
3829.95692
3850.43854
3930.96889
3941.60153
3829.38267
3850.16349
3930.16476
3941.20701
3828.78699
3849.85947
3929.33547
3940.79999
3828.17053
3849.52799
3928.48948
3940.37758
3827.53653
3849.17104
3927.62855
3939.9435
3826.88295
3848.78738
3926.74887
3939.50014
3826.20463
3848.38111
3925.856
3939.04787
3825.50422
3847.95141
3924.96551
3938.58692
3824.78403
3847.4864
3924.05792
3938.11702
3824.05228
3846.97083
3923.11678
3937.64583
3823.3081
3846.3967
3922.11042
3937.16686
3822.55065
3845.75104
3921.10011
3936.6946
3821.809
3845.01034
3920.16399
3936.22376
3821.1235
3844.17969
3919.36164
3935.72657
3820.50575
3843.28757
3918.70634
3935.23169
3819.94027
3842.31596
3918.16874
3934.75913
3819.41753
3841.25642
3917.72158
3934.30988
3818.92812
3840.11103
3917.34545
3933.87647
3818.46281
3838.90519
3917.02321
3933.45391
3818.01215
3837.6537
3916.73937
3933.03867
3817.56924
3836.36601
3916.47536
3932.6266
3817.13269
3835.04713
3916.22507
3932.21409
3816.6982
3833.70327
3915.98782
3931.75978
3816.26242
3832.36566
3915.75824
3931.2954
3815.82349
3831.01174
3915.53255
3930.81804
3815.37985
3829.64377
3915.30883
3930.3246
3814.93151
3828.26552
3915.08914
3929.81129
3814.47958
3826.88394
3914.87434
3929.27423
3814.02254
3825.51426
3914.66217
3928.70138
3813.55624
3824.18442
3914.45802
3927.94052
3813.08601
3822.92199
3914.26598
3926.7415
3812.60887
3821.68654
3914.09029
3925.56168
3812.13465
3820.45857
3913.9588
3924.40786
3811.66229
3819.26313
3913.88419
3923.30961
3811.19067
3818.12233
3913.90277
3922.27773
3810.71935
3817.05114
3913.96253
3921.32616
3810.22247
3816.05744
3913.9821
3920.4675
3809.67237
3815.15602
3913.94653
3919.70989
3809.07681
3814.35401
3913.90711
3919.01748
3808.46192
3813.59804
3913.78125
3918.35909
3807.82849
3812.86606
3913.57204
3917.70878
3807.18832
3812.16017
3913.31904
3917.07497
3806.55325
3811.47215
3913.04676
3916.44925
3805.93905
3810.80004
3912.77032
3915.84093
3805.34585
3810.15849
3912.48038
3915.27053
3804.75686
3809.56431
3912.15906
3914.75514
3804.1547
3809.02025
3911.81306
3914.30014
3803.54852
3808.50934
3911.50567
3914.04971
3802.99294
3808.06071
3911.53997
3913.83589
3802.55715
3807.58777
3911.39863
3913.4321
3802.09124
3807.09892
3911.21143
3913.0326
3801.62596
3806.64879
3910.98725
3912.67796
3801.13456
3806.25306
3910.71034
3912.35875
3800.61982
3805.86605
3910.41927
3912.01409
3800.14414
3805.44569
3910.15903
3911.65978
3799.69663
3805.05498
3909.86646
3911.34584
3799.20932
3804.69282
3909.53124
3911.02971
3798.71973
3804.3111
3909.20261
3910.68696
3798.25879
3803.90909
3908.88341
3910.33351
3797.81083
3803.5075
3908.55267
3909.98916
3797.35476
3803.12041
3908.18303
3909.66006
3796.88444
3802.74384
3907.70225
3909.33429
3796.40947
3802.36116
3907.22715
3909.01672
3795.94068
3801.97699
3906.75635
3908.59042
3795.47247
3801.59094
3906.27961
3908.12294
3795.00332
3801.193
3905.79635
3907.65005
3794.53657
3800.77678
3905.31325
3907.16969
3794.0734
3800.35029
3904.82859
3906.68893
3793.60437
3799.92217
3904.33643
3906.2081
3793.12566
3799.49236
3903.83482
3905.72303
3792.63947
3799.05287
3903.32648
3905.22424
3792.15558
3798.59126
3902.82109
3904.7077
3791.68393
3798.11747
3902.30846
3904.20286
3791.20268
3797.64788
3901.76249
3903.7082
3790.71501
3797.15291
3901.20472
3903.19887
3790.25253
3796.62078
3900.6505
3902.66766
3789.81646
3796.06098
3900.11851
3902.08851
3789.38003
3795.52909
3899.64345
3901.45229
3788.83521
3795.22868
3899.15522
3901.07033
3787.78444
3795.25469
3898.35986
3900.52779
3787.0368
3794.59154
3897.95077
3899.81636
3786.90247
3793.83954
3897.47611
3899.35669
3786.46262
3793.37117
3896.8209
3898.82102
3785.93905
3792.83317
3896.29529
3898.22198
3785.52732
3792.25155
3895.75621
3897.65574
3785.13115
3791.71888
3895.12108
3897.13597
3784.66611
3791.22497
3894.4688
3896.56777
3784.18745
3790.74339
3893.89463
3895.92231
3783.66952
3790.40811
3893.34049
3895.41357
3782.83608
3790.31063
3892.62388
3894.82768
3782.07307
3789.68298
3892.30096
3894.1612
3781.71852
3789.37141
3891.56964
3893.65913
3781.03707
3788.7288
3891.15098
3892.92634
3780.81284
3788.09636
3890.6618
3892.38848
3780.35293
3787.74085
3889.98132
3891.86351
3779.74022
3787.40251
3889.36452
3891.28709
3779.17842
3786.97593
3888.79503
3890.66324
3778.73871
3786.4492
3888.25111
3890.0393
3778.37447
3785.89287
3887.68511
3889.44671
3778.01813
3785.34699
3887.08465
3888.85703
3777.67592
3784.7791
3886.49976
3888.25773
3777.36144
3784.21382
3885.90687
3887.66412
3777.04973
3783.64765
3885.31441
3887.05848
3776.74649
3783.10861
3884.73129
3886.42856
3776.40622
3782.65349
3884.18954
3885.72615
3775.94087
3782.43173
3883.70477
3885.2068
3774.97992
3782.53974
3882.95165
3884.49729
3774.36386
3782.0282
3882.65252
3883.86756
3773.91909
3781.71433
3882.03736
3883.26027
3773.45264
3781.34587
3881.47731
3882.68096
3773.00968
3780.88291
3880.91442
3882.01195
3772.77651
3780.26437
3880.52326
3881.40394
3772.51565
3779.82703
3879.83442
3880.65309
3772.47976
3779.27582
3879.22706
3880.02022
3772.44196
3778.57586
3878.68832
3879.24271
3772.58003
3777.93919
3878.21299
3878.57658
3772.42741
3777.66718
3877.5804
3877.9523
3772.00818
3777.5267
3877.01652
3877.28859
3771.48253
3777.46118
3876.50682
3876.62245
3770.90621
3777.40966
3876.03885
3876.00327
3770.29029
3777.29337
3875.6534
3875.39184
3769.56285
3777.21225
3875.18495
3874.68459
3768.93885
3777.19897
3874.6882
3873.96531
3768.32423
3777.20378
3874.18884
3873.24148
3767.71636
3777.22167
3873.68704
3872.51525
3767.11337
3777.24903
3873.18328
3871.78807
3766.51479
3777.28427
3872.67761
3871.06093
3765.92081
3777.32619
3872.16993
3870.3343
3765.33179
3777.37522
3871.6598
3869.59954
3764.7484
3777.42904
3871.14722
3868.84465
3764.17074
3777.51034
3870.63306
3868.09711
3763.59874
3777.59244
3870.11708
3867.35127
3763.03241
3777.67556
3869.59934
3866.60683
3762.47201
3777.75969
3869.07982
3865.86437
3761.91784
3777.84433
3868.5584
3865.12817
3761.37014
3777.92733
3868.03487
3864.39602
3760.82898
3778.00843
3867.50897
3863.67191
3760.29427
3778.07946
3866.98017
3862.96031
3759.76522
3778.10085
3866.44835
3862.26296
3759.24027
3778.07233
3865.91449
3861.57141
3758.71769
3778.05102
3865.37978
3860.88155
3758.19662
3778.04024
3864.84467
3860.19336
3757.67693
3778.04075
3864.30897
3859.50027
3757.15904
3778.05284
3863.77275
3858.77944
3756.64297
3778.10397