/*--------------------------------*- C++ -*----------------------------------*\
| =========                 |                                                 |
| \\      /  F ield         | OpenFOAM: The Open Source CFD Toolbox           |
|  \\    /   O peration     | Version:  2306                                  |
|   \\  /    A nd           | Website:  www.openfoam.com                      |
|    \\/     M anipulation  |                                                 |
\*---------------------------------------------------------------------------*/
FoamFile
{
    version     2.0;
    format      ascii;
    arch        "LSB;label=32;scalar=64";
    class       volScalarField;
    location    "0.00166";
    object      H2;
}
// * * * * * * * * * * * * * * * * * * * * * * * * * * * * * * * * * * * * * //

dimensions      [0 0 0 0 0 0 0];

internalField   nonuniform List<scalar> 
531
(
0.010660546
0.0106860542
0.0110260456
0.0109993235
0.0107119782
0.0106679581
0.0106675852
0.0106866482
0.0110213748
0.0110036248
0.0107224106
0.0106647928
0.0107001513
0.0110209885
0.0110024033
0.0107263287
0.0106641303
0.0107004707
0.0110216196
0.011002955
0.0107264128
0.0106631737
0.0106973817
0.0110225396
0.0110038062
0.0107255455
0.0106610493
0.0106907062
0.0110244754
0.0110019298
0.0107260412
0.010665761
0.0107173925
0.0110190569
0.0110049657
0.0107196637
0.010658877
0.0107542584
0.0110277975
0.0109932915
0.0110029105
0.0107171556
0.0106676025
0.0106732154
0.0106654608
0.0106861883
0.0110266153
0.011006004
0.0106943224
0.0106747039
0.01104261
0.0110117097
0.0107101857
0.0106559607
0.0106825099
0.0110258519
0.0110096875
0.0106975304
0.0106851359
0.0110305341
0.0110071393
0.0107221445
0.0106597121
0.0107085994
0.0110195502
0.0110228897
0.0106932015
0.0106920867
0.0110151538
0.0110052694
0.010729999
0.0106671694
0.0106704416
0.0106702443
0.0107762855
0.0110103591
0.0110121177
0.0107477883
0.010653095
0.010652735
0.0110480343
0.011008214
0.0108493362
0.0106982958
0.0107389062
0.0110027016
0.0110094016
0.0107223389
0.0106677347
0.010671452
0.0106712528
0.0107733474
0.011007447
0.0110153236
0.0107207529
0.0106613492
0.0107158243
0.0110116073
0.0110218709
0.0107014737
0.0106502112
0.0107277839
0.0110095202
0.0109923259
0.0110292334
0.0106870407
0.0106643023
0.0106612172
0.0107078965
0.0110099902
0.0110261414
0.0106888836
0.010660989
0.010741296
0.011007629
0.0110271359
0.0106865354
0.0106583891
0.010781661
0.0110151267
0.0110119879
0.0106854755
0.0107374561
0.011003625
0.011040054
0.0106741197
0.010657955
0.0107712009
0.0110149593
0.0110452652
0.0106698519
0.010659392
0.0107927352
0.0110183516
0.0110562674
0.0106627957
0.0106627723
0.0108167805
0.0110225139
0.0110511584
0.0106600111
0.0106653688
0.0109377393
0.0110326516
0.0108453508
0.0106624918
0.0106702316
0.0109896756
0.0110410281
0.0107182278
0.0106913741
0.0110703186
0.0110349714
0.0107602631
0.0106567025
0.0106852532
0.0110316384
0.0110741483
0.0106935332
0.0107183779
0.0110171699
0.0110389052
0.010714688
0.0106599173
0.0107006549
0.0110192061
0.011077024
0.0106918702
0.0107309477
0.011007917
0.0110313097
0.010731976
0.0106743037
0.0106700713
0.0106571446
0.0106824163
0.0110424572
0.0110733986
0.0106911044
0.0107231035
0.0110070076
0.0110390946
0.0107055723
0.0106617698
0.0107076243
0.0110156713
0.0110741789
0.0106854179
0.0107225059
0.0110056827
0.0110428436
0.0106874156
0.0106563843
0.0107009814
0.0110153153
0.0110712472
0.0106827995
0.0107185803
0.0110046539
0.011041188
0.0106854239
0.0106556934
0.0106994814
0.0110135052
0.0110651888
0.0106822184
0.0107167189
0.0110025429
0.0110365631
0.0106876649
0.0106563161
0.0107092985
0.0110067764
0.0110303163
0.0107115357
0.0106599336
0.0107130029
0.0110066231
0.0110215565
0.0107452504
0.0106625494
0.0106588577
0.0106976622
0.0110043459
0.0110266512
0.0107052501
0.0106577272
0.0107069691
0.0110043883
0.0110208
0.0107176561
0.0106594209
0.0107059145
0.0110031112
0.0110182126
0.0107172365
0.0106587035
0.0107044708
0.0110024549
0.0110175384
0.0107062505
0.01065807
0.0106950407
0.0110070506
0.0110224865
0.0106815018
0.0107057833
0.0109972602
0.0110154273
0.0106899683
0.0106585534
0.0107058895
0.0110054395
0.0110120144
0.0107028594
0.0106569069
0.0107081504
0.0110060963
0.011009265
0.0107188274
0.010660283
0.0107123387
0.0110059577
0.0110073721
0.0107209509
0.0106698659
0.0106722253
0.0106602034
0.0106884941
0.0110128098
0.0110198696
0.0106806671
0.0106948326
0.0110057408
0.0110155406
0.0106805434
0.0107022255
0.0110026678
0.0110099752
0.0106800805
0.0106560113
0.0107069304
0.0110108334
0.0110133516
0.0106831574
0.0106541157
0.0106947855
0.0110156435
0.0110173446
0.0106799272
0.0106907605
0.0110112616
0.0110166933
0.0106787291
0.0106984919
0.0110067941
0.0110101939
0.0106782075
0.0106571106
0.010710253
0.011014101
0.0110119668
0.0106846519
0.0106567546
0.0107106871
0.0110160092
0.0110124566
0.0106819082
0.0106553881
0.0107095298
0.0110171115
0.0110128
0.0106823415
0.0106557846
0.0107532675
0.0110242511
0.0107640205
0.010678996
0.0108911087
0.0110117747
0.0110272823
0.0106622795
0.0106432947
0.0107926472
0.0110342248
0.0107205673
0.0107005422
0.01102684
0.0110150835
0.0106778789
0.0106476764
0.0106872675
0.0110302456
0.0110243212
0.0106776249
0.0106856042
0.0110305514
0.0110192793
0.0106863179
0.0107053828
0.0110122238
0.0110067608
0.0106955951
0.0106725027
0.0106698557
0.0107087731
0.0110207141
0.0110137386
0.0106751041
0.0106496633
0.0108749659
0.0110310414
0.0106996849
0.0106924484
0.0110318353
0.0110263105
0.0106786964
0.0106959751
0.0110242866
0.0110139766
0.0106715371
0.0106454112
0.0106900091
0.0110302338
0.0110311261
0.0106758161
0.0106883817
0.0110292677
0.0110301749
0.0106798663
0.0106972847
0.0110189556
0.0110129972
0.0106775194
0.010651308
0.0106930214
0.0110257034
0.011021068
0.0106871738
0.0107045518
0.0110128897
0.011004848
0.0107088539
0.0106738377
0.0106719001
0.0107230547
0.0110147013
0.0110073594
0.0106977685
0.010660938
0.0107174368
0.0110216148
0.011008259
0.0106894104
0.010658161
0.0107153321
0.0110209367
0.0110078119
0.0106973717
0.0106625631
0.0107184248
0.0110232927
0.0110061715
0.0106910837
0.0106596831
0.0106665596
0.0106972919
0.0110357466
0.0109983692
0.0110112046
0.0106733494
0.0106352611
0.0107623015
0.0110313456
0.0107250715
0.0106952585
0.011031766
0.011006659
0.0106857448
0.0106668487
0.010724781
0.0110182472
0.0110098739
0.0106918682
0.0106429236
0.0107694899
0.0110316182
0.0107105042
0.0106852358
0.0110338054
0.0110241225
0.0106795331
0.0106890586
0.0110312909
0.0110177056
0.010682617
0.0106930306
0.0110217734
0.0110076819
0.0106907251
0.0106576252
0.0107003586
0.0110237353
0.0110024238
0.0106939216
0.0106699212
0.0107404857
0.0110165214
0.0110066442
0.0106967902
0.0106555699
0.0106933395
0.0110238714
0.0110058547
0.0106947911
0.0106558427
0.0106937327
0.0110242187
0.0110059765
0.0106912929
0.0106540174
0.0106893246
0.0110247936
0.0110064546
0.0106916062
0.0106523321
0.0106804922
0.0110256431
0.0110023794
0.0106863104
0.010681522
0.0110279239
0.0110078512
0.0106869331
0.0106599628
0.0106996151
0.0110282872
0.0109938465
0.011003085
0.0106875911
0.0106647364
0.0106658773
0.0106864867
0.0110175621
0.0110076645
0.0106801549
0.0106511021
0.010676904
0.0110217866
0.0110006229
0.0106856276
0.010679796
0.0110221787
0.0110078486
0.0106779879
0.0106542636
0.0106769291
0.0110188246
0.0109998569
0.010685545
0.010676674
0.0110181687
0.0110000199
0.0106862392
0.0106865566
0.011013572
0.0110025721
0.0106816747
0.0106618619
0.0106881
0.0110126814
0.0110006928
0.0106909103
0.010660285
0.0106898247
0.0110119864
0.0110006822
0.0106921819
0.0106605309
0.010687966
0.0110118143
0.0110004513
0.0106946435
0.0106610898
0.0106873159
0.0110113411
0.011000369
0.0106978865
0.0106619281
0.0106871558
0.011010987
)
;

boundaryField
{
    closed
    {
        type            calculated;
        value           nonuniform List<scalar> 0();
    }
    open
    {
        type            calculated;
        value           nonuniform List<scalar> 0();
    }
    sides
    {
        type            empty;
    }
    procBoundary1to0
    {
        type            processor;
        value           uniform 0.0107277869;
    }
    procBoundary1to2
    {
        type            processor;
        value           uniform 0.0110003633;
    }
}


// ************************************************************************* //
