/*--------------------------------*- C++ -*----------------------------------*\
| =========                 |                                                 |
| \\      /  F ield         | OpenFOAM: The Open Source CFD Toolbox           |
|  \\    /   O peration     | Version:  2306                                  |
|   \\  /    A nd           | Website:  www.openfoam.com                      |
|    \\/     M anipulation  |                                                 |
\*---------------------------------------------------------------------------*/
FoamFile
{
    version     2.0;
    format      ascii;
    arch        "LSB;label=32;scalar=64";
    class       volScalarField;
    location    "0.00166";
    object      T;
}
// * * * * * * * * * * * * * * * * * * * * * * * * * * * * * * * * * * * * * //

dimensions      [0 0 0 1 0 0 0];

internalField   nonuniform List<scalar> 
531
(
322.848164
328.734232
339.464099
340.665476
329.244167
325.325319
324.631085
328.148472
339.899179
340.315371
328.911263
324.18977
328.894592
339.843096
340.462695
328.959066
324.105987
328.906293
339.850691
340.471536
328.953026
323.929476
328.920795
339.878224
340.469146
328.905298
323.527847
328.87101
339.863193
340.572925
328.924079
324.565667
328.800348
340.011488
340.486661
328.729324
323.013948
328.805004
339.799844
340.629614
340.10901
328.743382
324.479015
326.269425
323.685613
328.337413
339.703058
340.781111
329.10749
326.216911
339.80955
340.031743
329.165191
322.298604
327.579103
339.836795
340.755984
329.362744
328.040858
339.968686
340.20097
328.999328
323.401932
328.914948
339.975575
340.549838
329.214959
329.13657
340.200798
340.335852
328.924579
325.045407
325.976319
325.277762
329.175008
340.048258
339.8317
329.112205
321.338062
322.782301
340.017785
340.065725
330.722859
328.998108
329.051907
340.47629
340.154505
328.824592
325.095967
326.207153
325.471091
329.110959
340.189272
340.045957
328.907638
323.804169
328.807399
340.322691
339.699368
328.808898
321.5707
328.689337
340.586757
340.510863
339.214252
328.567395
324.14259
324.022275
329.039071
340.423693
339.418671
328.944212
323.612985
328.853316
340.312139
339.666033
328.145281
323.253721
329.528267
339.855691
335.644965
327.840755
329.398037
340.365333
339.216603
326.023314
322.777288
329.248965
339.992582
339.269036
324.740184
322.912024
329.661264
339.79912
338.990276
323.187725
323.131839
330.145499
339.56454
337.100364
322.795367
323.327396
333.10101
339.147016
330.468355
323.244006
325.243934
334.799056
339.046948
329.501571
328.415841
337.747795
338.99897
329.038838
321.880419
328.722816
339.958074
338.08049
328.395734
329.322762
340.505088
338.915464
329.003531
322.590021
328.882469
340.160763
337.976719
328.758391
329.295434
340.63951
339.135307
329.061662
325.075018
325.199324
322.034735
327.6783
339.508501
338.173256
328.117972
329.390292
340.700813
338.970008
328.847556
323.034492
328.953503
340.165394
338.330097
327.908466
329.469654
340.722248
338.957963
328.586578
322.116279
328.959294
340.174206
338.542005
327.54834
329.501155
340.712956
339.052768
328.209661
322.058086
328.975853
340.184492
338.78251
327.525062
329.50814
340.702334
339.230874
328.681399
322.440417
328.87791
340.504776
339.518873
328.767496
323.03126
328.797324
340.323364
339.722596
329.074989
323.710005
323.58331
329.147198
340.55238
339.691667
328.863468
322.779766
328.917325
340.444505
339.902291
328.800609
323.221188
328.896249
340.467382
340.045834
328.78732
323.20575
328.910388
340.506653
340.115942
328.766199
322.88541
328.9902
340.249279
340.418163
327.71876
329.534324
340.688639
340.083428
328.772537
323.071862
328.897953
340.33166
340.395839
328.798052
322.955473
328.882252
340.335166
340.415825
328.756928
323.582551
328.903966
340.249491
340.302689
328.83177
324.764465
326.081726
323.319031
328.445415
340.04152
340.476361
327.505827
328.642809
340.253192
340.423359
327.723812
329.658884
340.350782
340.343144
327.63398
322.633988
328.981267
340.033522
340.407216
328.054725
322.157993
329.098716
339.842397
340.646579
327.347005
328.035038
340.063227
340.44027
327.377842
329.396446
340.183168
340.28974
327.272636
322.699925
328.980398
339.833281
340.484825
328.285274
322.75403
328.984589
339.780501
340.508461
327.84917
322.561124
329.009279
339.764713
340.426099
328.123954
322.439273
328.986801
339.794356
329.222805
326.668148
331.713843
339.755674
339.977224
324.550421
319.693771
329.495614
339.585014
328.841265
329.711378
339.535261
340.174912
327.638072
320.753264
328.43396
339.433048
340.663782
327.054553
327.111438
339.380235
340.439275
328.796611
329.628886
339.899635
340.230315
328.793805
325.406696
325.466675
329.307462
339.663873
340.31958
326.624632
321.239563
331.253978
339.792221
328.981528
327.954339
339.353859
340.237764
327.557671
328.727406
339.649189
340.139541
326.336405
320.395212
328.462578
339.353162
340.372926
326.612528
327.127531
339.421459
340.090501
327.424755
328.898727
339.804002
340.182778
327.283045
321.572094
329.204154
339.529154
340.679463
328.775534
329.489703
339.883261
340.232617
328.872796
325.666494
325.804989
329.217114
339.902576
340.444557
328.790767
323.378469
328.891316
339.565391
340.572694
328.909149
322.996895
328.973461
339.605986
340.474611
328.900257
323.490679
328.894502
339.342741
340.629584
328.805056
323.748331
323.977771
329.152209
339.242394
340.291679
340.331852
326.882778
318.756859
328.983786
339.786393
328.843523
329.218964
339.450139
340.356302
328.749122
324.504609
328.893136
339.690143
340.388604
328.696146
320.329309
329.038727
339.827228
328.735808
326.978363
339.443058
340.246472
327.549131
327.626856
339.532083
340.435162
328.164323
328.783156
339.803119
340.276401
328.615601
322.863543
328.734786
339.539782
340.672098
328.974257
325.144756
329.008677
339.6388
340.446602
328.880106
322.55537
328.948731
339.594579
340.552987
328.867587
322.662399
328.943166
339.562113
340.54003
328.899734
322.365822
328.940307
339.564638
340.490682
328.933147
322.091864
327.372709
339.639419
340.840179
328.395158
327.42296
339.565442
340.148105
328.721281
322.93392
328.840727
339.446316
340.336924
340.354483
328.841094
324.33919
324.67563
327.850777
339.943539
340.278149
327.716256
321.842987
326.917702
339.709088
340.734932
327.985004
327.180104
339.683684
340.175627
327.210821
322.294182
326.937624
339.759293
340.739867
328.062521
326.952909
339.794209
340.558982
328.457689
328.271828
339.976083
340.268019
328.098616
323.811194
328.823202
339.908482
340.56234
328.914101
323.820737
328.893424
339.996147
340.543486
328.869296
323.88782
328.884113
340.015788
340.553777
328.854642
324.018291
328.8385
340.037423
340.551476
328.849373
324.166716
328.802719
340.050963
)
;

boundaryField
{
    closed
    {
        type            fixedValue;
        value           nonuniform List<scalar> 0();
    }
    open
    {
        type            zeroGradient;
    }
    sides
    {
        type            empty;
    }
    procBoundary1to0
    {
        type            processor;
        value           uniform 328.660928;
    }
    procBoundary1to2
    {
        type            processor;
        value           uniform 340.536875;
    }
}


// ************************************************************************* //
