/*--------------------------------*- C++ -*----------------------------------*\
| =========                 |                                                 |
| \\      /  F ield         | OpenFOAM: The Open Source CFD Toolbox           |
|  \\    /   O peration     | Version:  2306                                  |
|   \\  /    A nd           | Website:  www.openfoam.com                      |
|    \\/     M anipulation  |                                                 |
\*---------------------------------------------------------------------------*/
FoamFile
{
    version     2.0;
    format      ascii;
    arch        "LSB;label=32;scalar=64";
    class       volScalarField;
    location    "0.00044";
    object      h;
}
// * * * * * * * * * * * * * * * * * * * * * * * * * * * * * * * * * * * * * //

dimensions      [0 2 -2 0 0 0 0];

internalField   nonuniform List<scalar> 
530
(
-3949.66353
8602.32468
9565.54975
-2991.2502
-3788.7022
8542.90738
10013.2681
1998.81537
-4917.78902
-4558.52782
8841.83787
9985.48956
2573.13519
-5211.555
-5085.67686
8658.94714
9320.82704
-2778.54664
-4082.75682
8082.8456
9682.61922
-1752.59061
-3589.72516
7259.49036
10021.0178
4094.47725
-2560.68496
-5163.98537
-5355.52394
4353.00974
9690.78823
6466.34005
-3645.17281
-4256.34733
5886.44792
9814.23885
5023.43214
-3988.12165
-4685.56458
6039.20674
9328.69372
-99.0924936
-3544.98439
5369.96289
9285.94892
303.499732
-3477.46678
4234.18202
9634.93395
5739.63057
-3589.99522
-4888.81414
3287.3868
9419.20687
6421.50983
-3394.18956
-4992.34985
2689.80973
9331.54005
6672.80653
-3256.04288
-5016.48026
3489.15716
8969.5028
1890.29314
-2874.5551
3321.91968
9460.1516
6582.18349
-3204.86951
-5262.5594
2798.23501
8667.78731
1811.33996
-3173.24733
3786.20417
8700.37369
1838.84811
-3255.42851
3127.10973
9192.8683
5746.36164
-3602.05777
-5339.29342
2303.90904
8327.15668
1792.34299
-3032.76046
4284.54404
8513.71706
1667.82333
-2824.70705
3460.57377
9258.10432
5654.99197
-3541.73829
-5107.9339
2793.77938
7941.68001
1315.73343
-2646.46728
4872.72514
8548.91684
1528.32433
-2260.5538
3532.88572
9650.48292
8080.39172
235.674457
-3191.61615
-4602.62033
-5181.85371
4314.61105
7993.69262
925.607527
-1725.10703
5421.01908
9564.12571
5212.29804
-3352.89421
-4502.50523
4364.77407
7933.70119
360.710486
-2201.64435
5643.58301
9339.09047
4281.48336
-3889.71839
-4720.66692
4019.02498
7591.01693
108.547468
-2644.66032
5667.94354
8222.82224
-196.589729
-2830.86885
5478.56584
8216.45954
-502.435515
-2745.8755
5517.05005
8098.2854
-449.124725
-2679.95387
5546.66856
9040.70526
3095.77331
-4701.16041
-5171.50553
5063.20669
7598.85231
-502.562621
-2765.45788
5995.13476
8101.94096
-779.652364
-2885.09941
5898.03955
7890.8369
-953.618813
-2951.18468
5824.64654
7678.36327
-951.848784
-2949.55722
6173.01559
8024.92355
-829.567152
-2475.64033
6209.70779
9133.2764
2705.13056
-4562.18749
-4661.48281
5933.10504
9161.451
3324.04446
-4482.47939
-4636.90225
6735.62315
8261.40693
-748.651227
-2152.99387
7010.25001
9467.52687
2460.41926
-4698.66248
-4615.85079
7179.72078
8243.2425
-1199.80967
-2342.48971
7270.96644
9352.12281
1836.64541
-5106.82856
-4640.67621
7306.68732
7976.20534
-1903.81854
-2577.19183
7574.07034
7853.75186
-2070.30938
-2525.86474
7840.01499
7932.81425
-2170.00132
-2390.02435
7806.67759
9087.62183
616.38719
-5405.83393
-3868.37485
7744.86554
7841.48931
-2328.56715
-1774.32629
8096.73068
9190.16383
694.876616
-5143.74591
-2849.75828
8176.36718
7374.74507
-2056.9164
-1523.74072
8445.23372
10207.9886
5085.49787
-1926.49979
-3789.44422
-5145.80701
-1806.33155
8547.86253
6455.88444
-2309.657
-34.5949056
9065.02039
9051.77336
-975.602476
-5408.05481
-937.64396
8718.92722
5265.90507
-3271.53234
891.094504
9184.25675
4359.81829
-3149.43451
1470.99685
9400.41116
7576.93821
-2658.77088
-4842.33514
620.059319
9486.19271
9061.05048
297.642059
-1706.32772
-2929.19024
-3100.46141
3259.42216
9863.28474
8554.03997
-2701.82007
-5326.24161
2692.08132
9542.70563
1954.96088
-3725.29969
4229.78642
9804.63338
5660.21685
-4122.54176
-5312.45346
3607.18366
9688.18519
733.476711
-4008.0274
5569.80645
9949.87558
4955.52697
-4479.84065
-5256.48325
4482.20947
9784.98825
-62.7452378
-4429.9724
6084.49107
9926.87583
-819.456622
-4739.24
5652.74648
9872.12817
-1041.82596
-4857.70666
5980.48811
9911.00185
-1701.97442
-4689.56012
7297.99919
10090.6772
-2042.66812
-3916.58521
8377.68071
10437.2745
2253.48519
-2417.71811
-5538.96566
-5566.90438
7439.52388
10002.4896
-2603.55569
-4578.24021
7793.476
10161.6142
6160.72138
-5162.96565
-5278.35508
7804.41753
10052.2168
-2802.65279
-4715.33056
8388.67754
10094.8936
-2922.11449
-4914.47943
7912.83069
10022.1201
-2537.62294
-5056.7612
6781.29586
9997.9052
-2656.40174
-4793.25186
8865.88771
10056.5984
1221.82293
-5478.18598
-5461.24547
9193.32706
10127.0342
-2473.53547
-4576.12077
8968.54128
10068.4227
2183.69992
-5957.27997
-5729.21508
8473.5045
10096.654
-2653.18891
-4177.30644
9150.55802
10150.9013
2274.7311
-5816.71894
-5577.65646
8867.28431
10123.6089
-2914.34739
-4278.94152
9188.14119
10161.5345
2214.77862
-5498.61249
-5280.94274
9476.31975
10095.5507
2398.50554
-5508.49226
-5266.46616
9558.9887
10111.6633
2369.53243
-5417.42972
-5304.91409
9553.79181
10136.6751
-3447.74137
-4464.41656
9293.80738
10158.1529
2219.80765
-5540.41283
-5264.57479
9543.85497
10111.5117
-3409.0839
-4951.65129
8627.05145
10151.2259
2693.42152
-5156.93853
-4756.42166
9739.75747
10172.2544
2138.51556
-5471.5953
-4882.43919
9707.57399
10143.6262
2025.81387
-5563.27868
-4847.52385
9704.28045
10157.9957
1841.26842
-5385.93681
-4671.39985
9822.07663
10214.4589
1328.54673
-4954.10205
-4267.29815
9765.00033
10166.4994
-4198.52497
-4902.55234
9382.40925
10088.1989
-3069.2456
-4965.07845
6845.86087
10120.8841
3519.45042
-4956.25554
-4662.55639
9881.04975
10148.2021
920.693521
-5457.02208
-4704.50248
9595.23253
10000.7057
-4110.21119
-4648.40946
9408.68315
10134.8188
1283.76216
-5362.19673
-4411.64235
9574.25186
9790.15327
-3907.86406
-4389.8689
9370.03294
10109.1676
-1660.38275
-5372.27331
1581.50597
9823.94793
6618.66153
-4696.94748
-4680.94712
9497.64589
10039.6077
-3959.83378
-4045.0901
9212.43031
4123.94256
-4208.80742
976.492244
10132.5249
10107.1569
-560.398603
-6046.5449
-3284.69052
9319.75461
4900.71442
-4121.25048
773.780687
10059.5803
10016.5914
-990.187805
-6041.85885
-2026.00886
9328.51613
4178.47873
-4004.47493
846.184717
10009.2435
9913.96403
-750.854648
-6324.23231
-2661.37713
9083.01089
2897.17027
-4761.89567
5567.85565
9869.62184
-822.381026
-4434.10708
6416.47644
10006.1486
-205.181039
-4088.06728
2554.92151
9969.14894
9309.00812
-2171.65568
-6546.08159
-573.862322
9255.61055
2468.31458
-4091.65912
1868.71492
9867.59286
9749.04457
-911.07763
-5985.6554
-1733.4153
9233.0115
10008.4981
-1050.48377
-6032.99563
586.41102
9312.83402
2202.98843
-3913.2912
1740.76884
9847.54548
9679.56477
-94.4290011
-6290.1005
-2217.57315
8838.02093
)
;

boundaryField
{
    closed
    {
        type            lookUpEnthalpy;
        h0              nonuniform List<scalar> 0();
        value           nonuniform List<scalar> 0();
    }
    open
    {
        type            zeroGradient;
    }
    sides
    {
        type            empty;
    }
    procBoundary2to1
    {
        type            processor;
        value           uniform -3117.74485;
    }
    procBoundary2to3
    {
        type            processor;
        value           uniform 1803.2193;
    }
}


// ************************************************************************* //
