/*--------------------------------*- C++ -*----------------------------------*\
| =========                 |                                                 |
| \\      /  F ield         | OpenFOAM: The Open Source CFD Toolbox           |
|  \\    /   O peration     | Version:  2306                                  |
|   \\  /    A nd           | Website:  www.openfoam.com                      |
|    \\/     M anipulation  |                                                 |
\*---------------------------------------------------------------------------*/
FoamFile
{
    version     2.0;
    format      ascii;
    arch        "LSB;label=32;scalar=64";
    class       volScalarField;
    location    "0.00076";
    object      p;
}
// * * * * * * * * * * * * * * * * * * * * * * * * * * * * * * * * * * * * * //

dimensions      [1 -1 -2 0 0 0 0];

internalField   nonuniform List<scalar> 
530
(
100901.895
100879.723
100859.729
100839.479
100818.951
100797.329
100775.672
100754.162
100733.208
100709.129
100675.291
100667.632
100651.743
100635.043
100619.843
100607.399
100597.597
100591.007
100588.348
100588.363
100591.019
100596.49
100605.148
100615.908
100626.453
100631.815
100639.892
100650.069
100663.372
100679.061
100697.658
100716.254
100733.917
100752.188
100771.105
100791.024
100811.359
100831.642
100852.858
100875.18
100898.68
100922.468
100945.604
100969.023
100992.709
101017.252
101042.082
101067.101
101091.632
101114.912
101136.411
101156.937
101176.052
101193.577
101209.388
101223.637
101235.859
101245.54
101254.53
101262.389
101269.117
101274.343
101278.563
101281.675
101283.97
101285.177
101285.077
101284.144
101282.369
101279.785
101276.887
101273.279
101269.456
101265.671
101261.828
101258.095
101254.428
101251.092
101248.151
101245.635
101243.423
101241.688
101240.373
101239.513
101238.969
101238.692
101239.01
101239.823
101241.171
101243.309
101246.363
101250.495
101255.654
101261.663
101269.309
101278.448
101289.1
101300.525
101313.476
101327.916
101343.802
101359.579
101376.551
101394.739
101414.008
101433.933
101453.852
101474.658
101497.949
101522.479
101545.295
101567.595
101591.887
101617.928
101643.003
101668.538
101695.81
101723.642
101751.689
101779.209
101807.559
101838.26
101869.655
101900.56
101930.696
101962.073
101997.026
102032.369
102066.574
102097.944
102129.8
102161.096
102191.977
102220.46
102247.228
102272.857
102298.562
102324.438
102351.084
102378.116
102407.098
102435
102459.95
102478.865
102496.61
102532.592
102543.203
102554.091
102562.564
102569.297
102573.056
102574.531
102573.922
102570.279
102566.261
102563.259
102560.928
102532.077
102530.351
102543.395
102529.304
102515.627
102500.821
102485.319
102469.01
102453.435
102437.92
102419.5
102397.53
102372.291
102349.993
102334.082
102313.669
102288.223
102267.514
102248.797
102226.693
102202.306
102177.394
102154.592
102134.075
102113.436
102091.798
102068.933
102046.744
102026.304
102006.325
101986.133
101966.629
101948.958
101931.217
101912.443
101893.02
101873.814
101851.681
101841.266
101819.915
101802.046
101782.473
101773.274
101754.339
101738.572
101723.218
101707.64
101691.567
101675.968
101661.62
101647.177
101631.605
101615.837
101601.078
101585.888
101569.395
101552.626
101536.61
101520.711
101504.595
101488.045
101471.817
101457.027
101442.128
101430.029
101418.006
101407.487
101397.317
101387.493
101378.137
101369.676
101361.147
101352.879
101344.691
101336.814
101329.78
101324.157
101318.522
101314.45
101312.302
101311.531
101311.835
101312.821
101314.197
101316.012
101318.706
101321.375
101324.528
101327.942
101331.809
101336.371
101341.263
101346.3
101351.646
101357.535
101363.824
101370.243
101376.532
101382.801
101389.248
101395.897
101402.294
101407.919
101413.374
101418.948
101424.392
101429.601
101434.677
101439.935
101445.136
101450.203
101454.989
101459.488
101463.979
101468.144
101471.962
101475.278
101477.993
101480.24
101481.382
101480.774
101477.336
101481.554
101483.058
101482.683
101481.411
101479.765
101477.847
101475.69
101472.811
101469.62
101466.249
101462.413
101457.815
101452.689
101447.196
101441.67
101435.833
101429.461
101422.881
101416.3
101410.196
101404.097
101397.839
101391.656
101385.665
101380.274
101374.969
101370.336
101365.277
101360.431
101356.193
101352.023
101347.955
101344.025
101340.127
101336.751
101333.26
101329.744
101326.234
101322.59
101319.339
101315.648
101311.705
101307.579
101303.222
101299.409
101295.273
101291.161
101286.395
101279.126
101271.283
101262.572
101255.422
101248.864
101242.534
101236.397
101230.065
101223.727
101217.038
101209.563
101201.62
101202.219
101202.031
101200.605
101198.768
101196.798
101194.672
101192.995
101190.968
101188.817
101187.041
101185.078
101182.472
101179.35
101175.568
101171.243
101166.289
101162.864
101161.03
101160.894
101161.921
101164.138
101166.304
101167.493
101167.722
101166.797
101165.411
101163.419
101160.372
101156.417
101152.431
101147.941
101142.275
101135.553
101128.172
101119.768
101110.417
101100.001
101088.719
101077.724
101066.115
101052.554
101035.257
101015.525
100996.841
100988.409
100979.746
100966.616
100948.55
100928.48
100908.664
100888.823
100864.16
100839.043
100814.956
100793.901
100767.525
100773.019
100773.83
100764.421
100749.022
100729.226
100707.731
100685.108
100662.758
100648.522
100647.584
100656.072
100661.053
100659.876
100659.955
100663.198
100671.06
100684.229
100699.224
100720.091
100742.462
100764.899
100786.276
100808.783
100832.794
100857.111
100882.487
100909.978
100936.709
100962.991
100988.663
101014.79
101040.106
101065.406
101091.683
101116.655
101140.345
101162.41
101184.569
101206.516
101228.407
101250.966
101274.402
101298.666
101323.406
101347.677
101371.415
101394.596
101416.65
101437.659
101457.265
101479.248
101502.951
101529.164
101554.37
101575.884
101595.087
101612.182
101628.518
101643.004
101656.164
101668.897
101681.118
101693.009
101703.863
101714.359
101723.778
101733.762
101743.702
101752.361
101760.187
101766.304
101772.423
101778.152
101782.699
101786.658
101789.027
101791.454
101793.375
101794.067
101794.119
101792.554
101791.077
101789.334
101786.945
101784.595
101781.463
101778.746
101776.554
101774.341
101772.771
101771.1
101770.088
101769.195
101768.633
101767.744
101767.208
101766.968
101766.517
101766.315
101765.816
101765.536
101765.038
101764.672
101763.906
101763.156
101762.135
101761.067
101759.338
101757.556
101755.677
101753.632
101751.627
101748.87
101746.153
101743.416
101740.653
101738.033
101734.875
101731.738
101728.602
101725.482
101722.554
101719.08
101715.392
101711.202
101706.211
101701.373
101699.812
101698.303
101695.91
101693.198
101690.633
101687.613
101684.71
101681.889
)
;

boundaryField
{
    closed
    {
        type            zeroGradient;
    }
    open
    {
        type            waveTransmissive;
        gamma           1.25;
        fieldInf        101325;
        lInf            1;
        value           nonuniform List<scalar> 0();
    }
    sides
    {
        type            empty;
    }
    procBoundary2to1
    {
        type            processor;
        value           uniform 100923.917;
    }
    procBoundary2to3
    {
        type            processor;
        value           uniform 101679.293;
    }
}


// ************************************************************************* //
