/*--------------------------------*- C++ -*----------------------------------*\
| =========                 |                                                 |
| \\      /  F ield         | OpenFOAM: The Open Source CFD Toolbox           |
|  \\    /   O peration     | Version:  2306                                  |
|   \\  /    A nd           | Website:  www.openfoam.com                      |
|    \\/     M anipulation  |                                                 |
\*---------------------------------------------------------------------------*/
FoamFile
{
    version     2.0;
    format      ascii;
    arch        "LSB;label=32;scalar=64";
    class       volScalarField;
    location    "0.00138";
    object      prefDh_H;
}
// * * * * * * * * * * * * * * * * * * * * * * * * * * * * * * * * * * * * * //

dimensions      [1 1 -3 0 0 0 0];

internalField   nonuniform List<scalar> 
531
(
23348.3923
23972.1226
23969.2225
23379.5962
23153.0936
23306.6902
23975.2476
23972.6607
23375.7097
23121.2798
23295.3851
23978.1759
23974.6972
23372.8236
23097.5052
23301.7494
23976.3596
23969.5632
23374.1782
23045.595
23204.6066
23964.8214
23970.4612
23427.2093
23237.4668
23322.3403
23994.3038
23962.2971
23362.2247
23028.4642
23247.3433
23957.7861
23985.1679
23954.9869
23363.2965
23179.651
23296.1412
23194.5415
23368.7631
23969.3102
23985.0474
23371.4078
23057.5093
23250.4661
23975.3877
23973.7453
23368.4795
23037.2727
23244.9945
23960.2128
24001.1274
23382.3181
23276.5754
23963.7608
23993.7947
23358.5211
23281.093
23970.2685
23970.6791
23367.1078
23084.1894
23301.171
23952.7833
23984.5665
23390.135
23142.7741
23064.7997
23109.1064
23722.7528
23962.9029
23938.4857
23373.4391
23032.4813
23352.5321
23946.0782
23995.0289
23370.7602
23225.2096
23365.1111
23966.6467
23998.3085
23372.1096
23170.616
23156.2338
23355.4422
23970.5332
23986.574
23360.2804
23163.1942
23363.4323
23966.8153
23986.3129
23363.2224
23145.9164
23367.6171
23907.5628
23980.4128
23644.9229
23265.9161
23167.2663
23152.682
23289.6682
23960.6789
23977.1567
23375.6507
23221.5094
23375.2012
23970.679
23986.7607
23356.6004
23091.6682
23340.6505
23956.5276
24006.0298
23368.7667
23288.251
23941.7996
23978.7966
23368.8524
23063.475
23316.2346
23956.4825
23981.6398
23372.5323
23076.5045
23341.1987
23963.9904
23981.6953
23371.876
23076.4453
23342.3758
23969.4146
23981.2973
23372.2474
23071.5526
23339.2855
23975.4162
23980.1154
23371.4856
23073.8327
23345.9222
23979.7112
23978.1354
23370.3161
23106.7053
23379.805
23982.0891
23971.3399
23371.243
23104.0085
23368.4055
23962.3928
23982.7018
23231.6172
23241.4255
23956.152
23943.7913
23078.6802
23113.274
23984.6023
23943.1951
23381.0288
23141.4608
23385.1258
23977.1675
23959.8008
23381.4846
23150.9085
23287.1106
23170.6173
23370.0888
23964.2166
23962.6534
23212.7337
23254.03
23992.3444
23936.4606
23369.4621
23078.0022
23366.43
23971.5438
23957.3873
23252.6
23310.5017
23998.1465
23944.2842
23363.6187
23058.1412
23370.1575
23969.7924
23952.1462
23238.0241
23305.2625
23996.2981
23939.715
23333.8245
23036.0978
23371.3616
23963.6809
23947.1325
23149.789
23237.0126
23991.488
23940.7067
23293.5988
23026.2296
23370.8412
23982.9808
23957.9404
23376.6832
23110.301
23365.1523
23982.5324
23968.0862
23382.2102
23214.4537
23217.6059
23371.5849
23994.9178
23956.2654
23369.8983
23107.0425
23363.4528
23987.115
23966.0212
23373.6167
23168.79
23368.5717
23987.8643
23961.0524
23375.2528
23121.152
23368.9564
23985.9836
23959.7529
23356.1888
23085.5052
23367.9088
23980.1768
23963.5292
23277.1353
23338.7742
24001.8528
23955.9909
23261.5591
23052.2842
23369.4798
23981.2672
23963.0979
23365.1085
23128.3839
23368.8729
23985.28
23960.7344
23377.3391
23142.4543
23369.2839
23978.6944
23956.6079
23364.0484
23166.2334
23287.5814
23160.9153
23374.5131
23975.4627
23953.7248
23350.3951
23379.3285
23993.9705
23948.1028
23298.5514
23385.4319
23996.4959
23944.4593
23320.3887
23105.1853
23373.9986
23972.2847
23949.1436
23296.1207
23020.2374
23363.2724
23968.4613
23946.7903
23191.3651
23231.0405
23983.6284
23940.4963
23228.8331
23317.8315
23986.998
23942.3587
23276.5279
23111.1209
23371.6469
23969.2129
23960.1579
23322.3736
23098.4001
23373.2997
23972.9247
23960.4859
23277.8517
23053.927
23376.5576
23970.2609
23956.5726
23220.4401
22981.1207
23396.6169
23953.3277
23945.4959
23139.2591
23263.8581
23973.6279
23940.5769
23253.0345
23001.3686
23395.2599
23949.0091
23915.499
23164.5175
23284.4851
23970.6788
23946.8924
23275.2259
22975.3322
23381.4779
23950.0982
23987.3246
23181.5319
23185.786
23942.5908
23945.3401
23207.038
23251.6921
23951.9624
23951.6451
23374.7583
23061.6991
23383.7782
23930.3904
23972.5165
23373.2992
23021.2584
23262.6336
23893.8148
23989.8422
23384.6503
23247.5605
23776.3636
23899.079
23325.5481
23173.3434
23692.3574
23931.7853
23363.8903
22964.6111
22965.6147
23724.2512
23964.2724
23379.5176
23254.1932
23518.8462
23929.9781
23390.3873
23329.9143
23476.7588
23892.6924
23426.3298
23138.6168
23031.8681
23455.1119
23911.2891
23464.7688
23384.3488
23408.0477
23862.5606
23524.0798
23291.7128
23128.933
23402.6897
23865.8235
23592.8087
23365.4149
23162.8175
23381.5548
23848.8329
23647.2579
23371.4198
23188.1608
23372.4248
23837.0074
23693.6894
23372.1321
23196.1106
23372.2447
23839.1794
23673.9148
23365.894
23157.6325
23105.3674
23350.0456
23772.2209
23953.2743
23723.3616
23357.7602
23105.9151
23367.781
23834.6853
23734.8013
23373.9492
23095.7723
23368.0748
23839.2084
23692.9841
23408.0606
23385.5993
23811.9984
23662.5215
23325.462
23053.8283
23368.6563
23850.5264
23653.3468
23417.381
23380.7178
23827.3622
23616.1733
23423.8805
23380.6219
23849.5425
23599.6357
23428.3797
23382.5516
23850.5379
23568.258
23242.2546
23100.6411
23387.3725
23890.7856
23568.9037
23426.105
23391.5044
23875.59
23550.892
23242.645
23200.5068
23450.3321
23898.801
23521.5708
23217.902
23197.9409
23462.6565
23899.0563
23495.0827
23179.4706
23178.8931
23467.0001
23900.3365
23455.4814
23143.4717
23167.8627
23515.0303
23901.0972
23407.1751
23407.2561
23438.7532
23910.4941
23425.4011
23166.0305
23233.648
23528.5031
23942.3649
23921.6292
23431.2951
23183.2705
23075.2274
23178.8606
23675.5794
23906.023
23379.9003
23068.1191
23198.1046
23781.3147
23932.1531
23388.9465
23363.2781
23600.4827
23926.451
23364.5159
23010.0752
23361.5305
23914.8599
23570.2428
23311.1354
23396.352
23941.6015
23515.77
23325.566
23392.1287
23972.8059
23957.2786
23368.7971
23033.1997
23330.542
23949.2657
23945.9405
23377.6365
23045.5609
23349.9606
23942.9234
23947.7866
23379.1165
23078.5111
23370.826
23939.6814
23949.7773
23379.2412
23108.2274
23382.9881
23934.7247
23948.7695
23379.2524
23122.6208
23385.1715
23927.1568
23945.467
23379.6896
23136.2134
23386.3357
)
;

boundaryField
{
    closed
    {
        type            calculated;
        value           nonuniform List<scalar> 0();
    }
    open
    {
        type            calculated;
        value           nonuniform List<scalar> 0();
    }
    sides
    {
        type            empty;
    }
    procBoundary1to0
    {
        type            processor;
        value           uniform 23180.783;
    }
    procBoundary1to2
    {
        type            processor;
        value           uniform 23920.6998;
    }
}


// ************************************************************************* //
