/*--------------------------------*- C++ -*----------------------------------*\
| =========                 |                                                 |
| \\      /  F ield         | OpenFOAM: The Open Source CFD Toolbox           |
|  \\    /   O peration     | Version:  2306                                  |
|   \\  /    A nd           | Website:  www.openfoam.com                      |
|    \\/     M anipulation  |                                                 |
\*---------------------------------------------------------------------------*/
FoamFile
{
    version     2.0;
    format      ascii;
    arch        "LSB;label=32;scalar=64";
    class       volScalarField;
    location    "8e-05";
    object      H2;
}
// * * * * * * * * * * * * * * * * * * * * * * * * * * * * * * * * * * * * * //

dimensions      [0 0 0 0 0 0 0];

internalField   nonuniform List<scalar> 
3801
(
0.0106828797
0.0109924219
0.0110011214
0.0106958886
0.0106842102
0.0106770163
0.0106805901
0.0106609798
0.0106790207
0.0110089215
0.0106875411
0.0106589351
0.0109994084
0.0110101732
0.0106678669
0.0106667387
0.0110042489
0.0110156944
0.0106636379
0.0106673667
0.0110062794
0.0110202779
0.0106629363
0.0106683578
0.0110071588
0.0110254636
0.0106636226
0.0106710336
0.011007591
0.011031172
0.0106651235
0.0106748811
0.0110077777
0.011037335
0.0106672872
0.0106797154
0.0110077472
0.0110435487
0.0106699972
0.0106853211
0.0110074241
0.0110491255
0.0106731325
0.0106912151
0.0110066162
0.0110528764
0.010676465
0.0106955999
0.0110055585
0.011033732
0.0106751417
0.0106679657
0.0106616666
0.0106876937
0.0110137096
0.0110715611
0.0106674113
0.0106930759
0.0110113464
0.0110705774
0.0106708256
0.0106986437
0.0110111801
0.0110649098
0.0106710901
0.0107175642
0.0110385067
0.0106840813
0.0106820086
0.0110032084
0.0110441078
0.0106600507
0.0106530128
0.010680472
0.0110139952
0.0110509008
0.0106677891
0.0106794917
0.0110079318
0.0110430774
0.010664294
0.0106776021
0.011006934
0.0110320912
0.0106624981
0.0106736361
0.0110061696
0.0110211028
0.0106624672
0.0106701599
0.011005586
0.0110123121
0.0106643437
0.0106694651
0.0110102675
0.0110107601
0.0106693564
0.0106714287
0.0110173224
0.0110098673
0.0106737201
0.0106731138
0.0110236626
0.0110060167
0.0106729709
0.0106865597
0.0110268619
0.0109978022
0.0110191072
0.0106912561
0.0106554805
0.0106752111
0.0106523189
0.0107094468
0.011031781
0.010700668
0.0106738572
0.0110333011
0.0110105884
0.0106875763
0.0106765693
0.0110355254
0.0110082915
0.0106824488
0.0106754997
0.0110350722
0.0110068755
0.0106811092
0.0106779852
0.0110332083
0.0110109803
0.0106707203
0.0106507581
0.0106736399
0.0110259146
0.0110007839
0.0106801432
0.0106684843
0.0110276447
0.0109991686
0.0106776571
0.0106917164
0.0110203107
0.0109969597
0.0110149561
0.0106950248
0.0106578512
0.010670011
0.0106634106
0.0106534997
0.0106681285
0.0110192583
0.0110056069
0.0106666576
0.0106603864
0.0110208079
0.0110066216
0.0106713724
0.010666367
0.0110191499
0.0110052048
0.0106736355
0.0106697664
0.0110178831
0.0110033299
0.0106746043
0.0106720143
0.0110166313
0.0109985451
0.0106673234
0.0106880681
0.0110120345
0.0106874593
0.0106590643
0.0110166366
0.0110054644
0.0106748478
0.0106642051
0.01101917
0.0110042923
0.0106726636
0.010668163
0.0110188891
0.0110033302
0.0106746174
0.0106714492
0.0110172238
0.0110027019
0.010677924
0.0106750437
0.0110136818
0.0110028129
0.010683345
0.0106776605
0.0110077667
0.0110054418
0.010695057
0.0106706975
0.0106712984
0.0106590422
0.0106535382
0.0110148371
0.0110059217
0.0106746714
0.0106627075
0.0110097366
0.0110043933
0.0106735724
0.0106695414
0.0110063404
0.0110058563
0.0106762085
0.0106775008
0.011002307
0.0110075882
0.0106804964
0.0106862622
0.0109962503
0.0110094298
0.010707808
0.0106748036
0.0106751743
0.0106569638
0.0106615121
0.0110099052
0.0110190571
0.0106737461
0.0106754913
0.0110052479
0.011020885
0.0106682221
0.010677353
0.0110008772
0.0110239424
0.0106795192
0.0106426621
0.0106581779
0.0110153679
0.0110262711
0.0106702112
0.0106700426
0.0110105635
0.011025671
0.0106677139
0.0106704056
0.0110124652
0.0110247858
0.0106683898
0.0106701879
0.0110133548
0.0110234645
0.0106694272
0.0106702829
0.0110137881
0.0110217061
0.0106704767
0.0106703638
0.0110131168
0.0110195573
0.0106716573
0.0106710527
0.0110126014
0.0110164488
0.010672411
0.010671574
0.0110128874
0.0110111743
0.0106722646
0.0106709088
0.0110126476
0.0110158776
0.0106749992
0.010659017
0.0110071705
0.01103302
0.0107093619
0.0110275323
0.010998141
0.010698182
0.0106789129
0.0106532748
0.0106544114
0.0110339648
0.0107132793
0.010648998
0.0110370115
0.0110144061
0.0106888087
0.01066545
0.011048388
0.0110080638
0.0106940419
0.0106718004
0.011053618
0.0110045119
0.0107001966
0.0106876591
0.0110583728
0.0107686482
0.0106640887
0.0110624152
0.0110095137
0.0107112306
0.0106766532
0.0110657343
0.0110037139
0.0107157496
0.0106813093
0.0110658258
0.0110027702
0.0107430527
0.0106874239
0.0106718323
0.0106687764
0.0110643534
0.0107545326
0.0106669559
0.0110743114
0.0110153218
0.0107387144
0.0106656761
0.0106574796
0.0110709114
0.0110074984
0.0107167721
0.0106770807
0.0110714213
0.0110037482
0.0107190836
0.010682378
0.0110650422
0.0110053503
0.010749409
0.0106766781
0.010677356
0.0106634288
0.0106583019
0.0110667381
0.0110024738
0.0110055184
0.010712474
0.0106614815
0.0106572044
0.0110483778
0.0110050368
0.010691854
0.0106795246
0.0110535229
0.0107154661
0.0106599365
0.0110483378
0.0110075413
0.0106878148
0.010665606
0.0110458356
0.0110043248
0.0106830085
0.0106699668
0.0110407676
0.011002332
0.0106811508
0.0106793426
0.0110381741
0.0107067095
0.0106574646
0.0110315552
0.011006954
0.0106817596
0.0106648986
0.0110312612
0.0110045163
0.0106784729
0.0106684632
0.0110276398
0.0110049144
0.0106796658
0.0106688445
0.0110208407
0.0110102649
0.0106864528
0.0106561417
0.0106510197
0.0110211674
0.0110061664
0.0106844253
0.0106681243
0.0110210992
0.0110023665
0.0106838003
0.0106748211
0.0110172339
0.0110019447
0.0106878307
0.0106795536
0.0110105941
0.0110049415
0.0107185211
0.0106746278
0.0106704941
0.0110095886
0.0110015989
0.0107198873
0.0106791998
0.010674117
0.0106710369
0.0110152643
0.0110047744
0.0106932355
0.0106722748
0.0106619784
0.0106602135
0.0110206324
0.0110086773
0.0106745858
0.0106661179
0.0110179036
0.0110088399
0.0106773787
0.0106658925
0.0110123657
0.0110137243
0.010686082
0.0106549414
0.0106506596
0.0110184207
0.0110089372
0.0106806174
0.0106642666
0.0110187462
0.0110059892
0.0106752527
0.010670266
0.0110183988
0.0110047383
0.0106717304
0.0106762755
0.0110173451
0.0106981
0.010649294
0.0110140905
0.0110116745
0.0106737713
0.0106599268
0.0110190396
0.0110082991
0.0106691605
0.0106616357
0.0110194211
0.0110068541
0.010668752
0.0106623248
0.0110179391
0.011005753
0.0106690044
0.0106648119
0.0110154077
0.0110045483
0.010669189
0.0106695813
0.0110118705
0.0110013656
0.0106654189
0.0106815878
0.0110109702
0.0106984332
0.0106499889
0.0110017316
0.0110086143
0.0106671424
0.0106646982
0.0110054215
0.0110067604
0.0106662273
0.010670805
0.0110045478
0.0110059692
0.010669312
0.010677144
0.0110035293
0.0110033507
0.0106693267
0.0106898514
0.0110078585
0.0107299827
0.0106606912
0.0109941347
0.011009325
0.0106755241
0.0106782749
0.0109965623
0.0110084326
0.0106830508
0.0106757675
0.0106586273
0.010675255
0.011013444
0.0106823817
0.0106503631
0.0110020023
0.0110149307
0.0106657914
0.0106630195
0.0110041314
0.0110136663
0.0106663896
0.0106618393
0.0110017669
0.0110180842
0.0106745317
0.0106448177
0.0106471624
0.011015529
0.0110117103
0.0106677899
0.0106542435
0.0110131946
0.0110100834
0.0106659893
0.010658818
0.0110164437
0.0110089613
0.0106673717
0.0106600356
0.0110198149
0.0110084556
0.0106697478
0.0106603889
0.0110234521
0.0110082231
0.0106722793
0.0106605468
0.0110274691
0.0110081341
0.0106748027
0.0106606157
0.0110318121
0.0110081302
0.0106772806
0.0106606094
0.0110362856
0.0110081307
0.0106799095
0.0106608374
0.0110405843
0.0110080397
0.010682757
0.0106615452
0.0110444496
0.0110077954
0.0106858653
0.0106629071
0.0110475909
0.0110073015
0.0106892847
0.0106652672
0.0110495994
0.0110064622
0.0106930103
0.0106688714
0.0110501788
0.0110052335
0.0106970101
0.010674053
0.0110489147
0.0110038191
0.0107022393
0.0106810428
0.0110447347
0.0110038719
0.0107206925
0.0106830333
0.0106633765
0.0106646975
0.0110420284
0.0107122935
0.010653682
0.0110510373
0.0110130443
0.0106890096
0.010665755
0.0110491557
0.0110108164
0.0106875106
0.0106654963
0.0110415008
0.0110157113
0.0106971569
0.0106495862
0.0106439851
0.0110337682
0.0110104521
0.0106820324
0.0106595885
0.0110388332
0.0110072416
0.0106786111
0.010663851
0.0110322571
0.0110057962
0.0106765846
0.0106669744
0.011024733
0.011004252
0.0106750574
0.0106720124
0.0110170457
0.011001441
0.0106716964
0.0106797927
0.0110098375
0.01071851
0.0106527381
0.0109975426
0.0110092087
0.0106701781
0.0106690565
0.0109979187
0.0110104148
0.0106700925
0.0106754443
0.0109937565
0.0110166273
0.0106893616
0.0106562349
0.0106715787
0.0110061776
0.0110214972
0.0106752489
0.0106839714
0.0109945606
0.0110174054
0.0107116331
0.0106653265
0.0106868036
0.0110011395
0.0110147041
0.0106929135
0.0106776977
0.0106664971
0.0106988235
0.0110233901
0.0106899945
0.0106763227
0.01099556
0.0110422101
0.010677957
0.0106985494
0.0109965005
0.0110215901
0.0106876064
0.0106785146
0.0106655135
0.0107077787
0.0110304446
0.010686256
0.0106767872
0.010994887
0.0110396436
0.0106735653
0.0106470026
0.0106802842
0.011015287
0.0110489183
0.0106698811
0.010685882
0.011007623
0.0110496717
0.0106688788
0.010689093
0.0110066833
0.0110472522
0.0106691188
0.0106894128
0.011006313
0.0110446481
0.0106693379
0.0106891777
0.0110057861
0.0110417416
0.010669795
0.0106894266
0.0110052196
0.0110381357
0.0106702588
0.0106912345
0.0110059668
0.0110315322
0.0106662729
0.0107070708
0.011021763
0.0106884496
0.0106665119
0.0109986151
0.0110350413
0.0106657071
0.0106807518
0.0110048023
0.0110244938
0.0106605162
0.0106925457
0.0110179084
0.0106865418
0.010654226
0.0109994374
0.0110224089
0.0106615951
0.0106663458
0.0110048316
0.0110151947
0.010661203
0.0106702522
0.0110061693
0.0110057859
0.0106587028
0.0106799725
0.0110111717
0.0106886134
0.0106449677
0.0110058272
0.0110107224
0.0106645948
0.0106562815
0.0110182054
0.0110101584
0.0106658592
0.0106590648
0.0110249882
0.0110089008
0.0106708034
0.0106615465
0.0110299107
0.0110079982
0.0106762084
0.0106645383
0.0110336055
0.0110074489
0.010681602
0.0106674922
0.0110360661
0.0110079764
0.0106869043
0.0106682639
0.0110352252
0.0110127132
0.0106970858
0.0106589743
0.0106554589
0.0110363743
0.0110171245
0.010698206
0.0106506983
0.0106456628
0.0110430277
0.0110129072
0.0106899408
0.0106623895
0.0110527009
0.0110091224
0.0106897762
0.010668908
0.0110541331
0.0110070415
0.0106884994
0.0106831461
0.0110568105
0.0107140007
0.0106550056
0.0110561404
0.0110154921
0.0106922692
0.0106606626
0.0110633659
0.0110126298
0.0106905587
0.0106604982
0.0110672928
0.0110128004
0.0106916652
0.0106609393
0.0110707834
0.0110129854
0.0106936898
0.0106612661
0.0110744478
0.0110130536
0.0106958347
0.0106615583
0.0110782953
0.0110130557
0.0106977993
0.0106619266
0.0110819764
0.0110130336
0.0106995803
0.0106623866
0.0110753954
0.0110130435
0.0107012196
0.0106629397
0.0110673434
0.0110130415
0.0107025809
0.0106636356
0.011061754
0.0110128417
0.010703832
0.0106646965
0.0110607594
0.0110122076
0.0107053276
0.0106663634
0.0110660829
0.0110108557
0.0107072061
0.0106689106
0.0110802312
0.0110084923
0.0107077636
0.0106746397
0.0110762055
0.0110047043
0.0107065083
0.0106922115
0.0110655736
0.0107490711
0.0106715393
0.0110676692
0.0110080479
0.0107101222
0.0106790177
0.0110611889
0.0110058715
0.0107078406
0.0106802582
0.0106572708
0.0106682932
0.0110414202
0.0107159542
0.0106560226
0.0110553737
0.0110117954
0.0106896787
0.0106630059
0.0110525596
0.0110079248
0.0106882758
0.0106671765
0.0110458985
0.011005962
0.0106893866
0.0106719464
0.011039401
0.0110046422
0.010690073
0.0106764356
0.0110338241
0.011006467
0.0106871864
0.0106679664
0.0106601058
0.0106576382
0.011037666
0.0110104735
0.010674574
0.0106587428
0.0110372615
0.0110093255
0.0106719152
0.0106594001
0.0110357437
0.01100868
0.0106721605
0.0106617914
0.0110327565
0.0110081578
0.0106725247
0.0106647402
0.0110284277
0.011007735
0.0106726692
0.0106676798
0.0110226955
0.0110080913
0.0106723168
0.010666209
0.0110155243
0.0110118549
0.0106723252
0.0106532443
0.0106544497
0.0110146036
0.0110087616
0.0106682669
0.0106591469
0.0110101863
0.011010316
0.0106662149
0.0106629163
0.011009095
0.0110111049
0.0106662181
0.0106653444
0.0110096448
0.0110108456
0.0106672544
0.0106675568
0.0110110215
0.0110093011
0.010668022
0.0106706288
0.0110105136
0.0110045753
0.0106636265
0.0106832533
0.0110132911
0.0106844851
0.0106539683
0.0110098649
0.0110116577
0.0106657956
0.0106598007
0.0110096063
0.0110123932
0.0106636427
0.0106634447
0.011007217
0.011015819
0.0106651285
0.0106675603
0.0110049853
0.0110200392
0.0106672349
0.0106735388
0.0110034707
0.0110207454
0.0106652097
0.010701609
0.0110183968
0.0106977137
0.0106661666
0.0109915754
0.0110316346
0.0106663131
0.0106359404
0.0106718015
0.0110147915
0.0110392631
0.01065485
0.0106960028
0.0110390376
0.0106671497
0.0106630971
0.0109990803
0.0110620105
0.0106521142
0.0106744951
0.0110014099
0.0110620943
0.0106496314
0.0106789498
0.0110000683
0.0110592723
0.010651379
0.0106777598
0.0110004428
0.0110363362
0.0106406217
0.0106214172
0.0106686826
0.0110116422
0.0110484244
0.0106362452
0.0106607082
0.0110012151
0.0110420725
0.0106333083
0.0106532978
0.0110010306
0.0110278691
0.010616589
0.0105840734
0.0106331979
0.011017714
0.0110221725
0.0105936345
0.0106127324
0.0110073587
0.0109987875
0.0110175457
0.0109959911
0.0110268805
0.0109881425
0.0110247039
0.0106268461
0.0106231475
0.0109811496
0.011002473
0.0105923136
0.0106047657
0.0109884017
0.0109852277
0.0109878819
0.0109826234
0.0109871028
0.0109769947
0.0109831131
0.0109700237
0.010975392
0.0109617868
0.0109649649
0.0109526329
0.0109536397
0.0109429206
0.0109423306
0.0109329818
0.0109316377
0.0109227897
0.0109219208
0.0109122859
0.0109136748
0.010901372
0.0109077196
0.0108990988
0.0108670275
0.0103617702
0.0108582217
0.011038058
0.010817042
0.0101235958
0.0104340299
0.0110752535
0.0110832817
0.0101161761
0.0103469587
0.0107788609
0.0104716714
0.0106964034
0.0102513403
0.0103606133
0.0108558383
0.0106488551
0.0103300421
0.0102392706
0.0104681351
0.0108442541
0.0104143845
0.0103346963
0.0104806713
0.0104734501
0.0103331189
0.0103928905
0.0105708224
0.0105983627
0.0102710611
0.0101112789
0.0106739433
0.0108795863
0.0103822902
0.0100377118
0.0107761323
0.0106816329
0.0103243477
0.0102884055
0.0106807466
0.0106205906
0.0103469092
0.010502487
0.0105525837
0.0105824476
0.0104960688
0.0105810381
0.0105364575
0.0105993986
0.0106231575
0.0107590244
0.0106655221
0.0106795501
0.0105173029
0.0105813963
0.0107269909
0.010511365
0.0104729574
0.0106787346
0.0105938375
0.0104653815
0.0103546881
0.01043665
0.0103657752
0.0103350416
0.0103008648
0.0103034367
0.0103285848
0.0102301014
0.0104102089
0.0102662888
0.0103715509
0.0101866396
0.0103242072
0.0101383975
0.0102721446
0.0100856151
0.0103221013
0.0103745139
0.0104137034
0.0102343782
0.00991774585
0.0100836268
0.0105697068
0.00999156697
0.00991945539
0.00977465329
0.00993734892
0.00972061274
0.00967361387
0.00952308654
0.00926021499
0.00941017513
0.00934927067
0.00922211758
0.00921096185
0.00909324015
0.00903073959
0.00891540155
0.00888829785
0.00872606662
0.00871485643
0.00855855246
0.00855487976
0.00839993318
0.00848829198
0.00836381297
0.00835605333
0.00823885606
0.00821317521
0.00809460719
0.00807321671
0.00800522033
0.00797931673
0.0079105308
0.00787476102
0.00780100526
0.0077627632
0.00769676065
0.00765757922
0.00759600484
0.0075556119
0.00749646886
0.00745620994
0.00740206328
0.00736172453
0.00730730886
0.00726504359
0.00721047433
0.00716294478
0.00709514063
0.00704014994
0.00697564846
0.00692546065
0.00686647804
0.006819245
0.00676506926
0.00672160477
0.0066728329
0.00662898878
0.00658076001
0.00653446934
0.00648613559
0.00643525099
0.00638273203
0.00632680134
0.00627368009
0.00621575303
0.00616407485
0.0061066636
0.00605713312
0.00600082353
0.00595327333
0.00589828119
0.00585258488
0.00579917006
0.00575516991
0.00570267642
0.00565849253
0.00560387069
0.00555872855
0.00550374245
0.00545903685
0.00540419351
0.00535975266
0.0053052204
0.00526094827
0.00520685577
0.00516270998
0.0051091546
0.00506511893
0.00501217617
0.0049682452
0.00491595741
0.00487211652
0.0048205289
0.00477679325
0.00472588777
0.00468220367
0.00463200349
0.00458840329
0.00453893504
0.00449542273
0.00444670058
0.00440328063
0.00435531506
0.00431198781
0.0042647639
0.00422151807
0.00417510741
0.00413202999
0.00408647413
0.00404350034
0.00399871349
0.00395580992
0.00391178403
0.00386826606
0.00382409841
0.00378060747
0.00373712163
0.00369369555
0.00365089476
0.00360752964
0.00356541796
0.00352211248
0.00348071315
0.00343749843
0.00339686272
0.00335376592
0.00331393182
0.00327098106
0.00323198689
0.00318920633
0.00315109564
0.0031085199
0.00307134449
0.00302794954
0.00298991388
0.00294701761
0.0029102149
0.00286798235
0.002832373
0.00279073713
0.00275627154
0.00271517933
0.00268181934
0.00264122704
0.0026089504
0.00256884645
0.00253766593
0.00249809309
0.00246804935
0.00242903154
0.00240015612
0.0023617191
0.00233404567
0.00229620101
0.00226977229
0.00223255446
0.0022074195
0.00217084253
0.0021470954
0.00211122906
0.00208885017
0.00205358418
0.00203280251
0.00199822171
0.00197899105
0.00194454263
0.00192748591
0.00189373658
0.00187837655
0.00184365552
0.00183183116
0.00179824505
0.00178761723
0.00174967831
0.00174557875
0.00171181848
0.00170558128
0.00165811638
0.00166898756
0.00164045585
0.00163361671
0.00153098681
0.00160337366
0.0017130129
0.00157232489
0.00122667452
0.00154910473
0.00180875717
0.00151162184
0.00100964062
0.00150216526
0.00179520353
0.00142679486
0.000812111652
0.0015110776
0.00179871855
0.00121461429
0.000645919761
0.00164404991
0.00182101394
0.000916765044
0.00043728969
0.00169240292
0.00180501337
0.000663470295
0.000368056094
0.00171523128
0.00175495441
0.00040456541
0.000325506815
0.00164705458
0.00168239562
0.000330665516
0.000281645089
0.00155862608
0.00161465615
0.000276683903
0.000220780087
0.00143050557
0.00152212264
0.000231927686
0.000173451793
0.00105705309
0.00144133788
0.00027657567
0.000165493135
0.000636164862
0.00136208341
0.000332025259
0.000140073189
0.000346892152
0.00127078581
0.000306116332
0.000124577631
0.000256779347
0.00117408976
0.00026626246
0.000108483374
0.000218419125
0.000956301223
0.000245120778
0.000104873265
0.000197248722
0.00070778057
0.000221816368
0.000160675884
0.000180828316
0.000513782454
0.000199703505
0.000215212983
0.000173623052
0.000303135821
0.000179017354
0.000231832149
0.000163980588
0.0002225136
0.000160159198
0.00020276845
0.000150013158
0.000191060958
0.000144442566
0.000180330546
0.000137874285
0.000171884588
0.000133305137
0.000164597727
0.000129248579
0.000158831821
0.000126234914
0.000154177466
0.000123728806
0.000150459041
0.000121786817
0.000147501843
0.000120237531
0.000145090767
0.000119061802
0.000142840253
0.000118194977
0.000140843042
0.00011760896
0.000139130586
0.000117269316
0.000137691122
0.000117152367
0.000136510137
0.00011722959
0.000135578662
0.000117471128
0.000134892817
0.000117554072
0.000134455248
0.000117677818
0.000134265788
0.000118035494
0.000134314087
0.000118625282
0.000134585067
0.000119446234
0.000135081119
0.000120499589
0.000135768971
0.000121778704
0.000136734079
0.00012329714
0.000137715167
0.000125012825
0.00013976398
0.000127032325
0.000140926403
0.000129059573
0.000145769803
0.000132095148
0.000144777232
0.000134305136
0.000154279546
0.000139748635
0.000147480465
0.000139506581
0.000165901278
0.000148656863
0.000148734776
0.000142971153
0.000178038302
0.000158728516
0.000151264886
0.000145724234
0.000184244116
0.000168369352
0.000160604161
0.000150069993
0.000180148201
0.000173480593
0.000170235892
0.000159767367
0.00017448525
0.00017114466
0.000172744005
0.000167200555
0.000172431386
0.000168589535
0.000171275906
0.000167470027
0.000170026692
0.000166674768
0.000168521983
0.000165311284
0.000166855518
0.000163829022
0.000165093187
0.000162139495
0.000163268793
0.000160349425
0.000161433673
0.00015848767
0.000159629075
0.00015659633
0.000157886546
0.000154694899
0.000156222933
0.000152791394
0.000154640371
0.00015087744
0.00015312596
0.000148942356
0.000151653328
0.000146946179
0.00015020113
0.000144839068
0.000148712695
0.000142572781
0.000147147093
0.000140100609
0.000145464498
0.000137379768
0.000143644797
0.000134379685
0.000141661078
0.000131083428
0.000139536916
0.000127492069
0.000137234264
0.000123598056
0.000134874477
0.000119438639
0.000132305342
0.000115017221
0.000129901391
0.000110423842
0.000126997892
0.000105650276
0.000125138077
0.000100868469
0.000121859278
9.59936924e-05
0.000120470352
9.12664249e-05
0.000117109856
8.6551247e-05
0.000116212066
8.2141349e-05
0.000112889924
7.77839076e-05
0.000112712068
7.38135089e-05
0.000109138206
6.98930289e-05
0.000110126918
6.6481588e-05
0.000105741499
6.29934354e-05
0.000108537473
6.01378796e-05
0.000102472936
5.69885593e-05
0.000108039141
5.46941185e-05
9.89989896e-05
5.17614973e-05
0.000108929155
5.00581129e-05
9.47895012e-05
4.70395815e-05
0.000112247244
4.60659556e-05
8.88403467e-05
4.25283076e-05
0.000119979434
4.2601828e-05
7.92044091e-05
3.78744978e-05
0.000134755723
3.97481036e-05
6.15700599e-05
3.22623102e-05
0.000164617179
3.84407072e-05
4.02323095e-05
2.79155546e-05
0.000206630531
3.70756915e-05
2.83213992e-05
2.44631281e-05
0.000228076511
3.48978526e-05
2.36007671e-05
2.22752519e-05
0.000232323288
3.22600318e-05
2.10686314e-05
2.06921769e-05
0.000234001594
2.97963906e-05
1.87604948e-05
1.93909408e-05
0.00023567013
2.76776772e-05
1.68971068e-05
1.83822003e-05
0.000237095395
2.60479597e-05
1.52622646e-05
1.78091213e-05
0.000238122288
2.48984099e-05
1.38222565e-05
1.75472075e-05
0.000239422349
2.4645291e-05
1.22666149e-05
1.75655099e-05
0.000240804858
2.5418846e-05
1.11141857e-05
1.85484458e-05
0.000242345606
2.68426342e-05
1.03743122e-05
2.02701104e-05
0.000243896872
2.92473622e-05
9.92810529e-06
2.26453536e-05
0.000243640296
3.27505775e-05
9.72992558e-06
2.56350131e-05
0.000242957876
3.72224275e-05
9.49665087e-06
2.93186406e-05
0.000242336779
4.2433709e-05
9.17606561e-06
3.38567535e-05
0.000242144965
4.80934779e-05
8.81985743e-06
3.86889547e-05
0.000242281631
5.47724013e-05
8.40581827e-06
4.37107325e-05
0.000242694588
6.20058689e-05
7.91613001e-06
5.00406809e-05
0.000243408346
6.75679589e-05
7.30150997e-06
6.02671806e-05
0.000244515726
6.75791725e-05
6.74174247e-06
7.86109006e-05
0.000247095533
5.61132583e-05
6.62874422e-06
0.000108979389
0.000251317255
3.46630675e-05
5.59647035e-06
0.000142549823
0.000255441043
2.03358902e-05
5.39721748e-06
0.000169051757
0.000258950543
1.60194118e-05
5.78137956e-06
0.000181510275
0.000258360167
1.41294253e-05
1.94263843e-05
0.000191320532
0.000248010711
1.11294127e-05
9.11467279e-05
0.000196022066
0.000144614126
1.04196259e-05
0.000181269032
0.000199781828
4.03444856e-05
1.03002311e-05
0.000206042221
0.000199143269
1.17755563e-05
9.38116819e-06
0.000215332832
0.000198461078
1.02299949e-05
9.42229837e-06
0.000217000058
0.000198960996
9.37607094e-06
9.34939908e-06
0.000217240166
0.0001988131
9.17025271e-06
9.34571937e-06
0.000216851308
0.000198475239
9.05715088e-06
9.23527306e-06
0.0002160907
0.00019792159
8.99420848e-06
9.06559548e-06
0.000214978171
0.000197397803
8.85968632e-06
8.87181822e-06
0.000213635751
0.000196861828
8.70235602e-06
8.66036062e-06
0.00021216046
0.000196317126
8.56532437e-06
8.452517e-06
0.000210686945
0.000195650096
8.42395043e-06
8.20682352e-06
0.000209320178
0.000194817361
8.22749012e-06
7.9453874e-06
0.000208262862
0.0001938746
7.97262021e-06
7.69808787e-06
0.000207261588
0.000192960857
7.70387123e-06
7.45637745e-06
0.000206204598
0.000192151325
7.4673892e-06
7.20310717e-06
0.000205107301
0.000191463933
7.23134693e-06
6.90327956e-06
0.000204011328
0.000190975627
6.98342179e-06
6.57256645e-06
0.000202988485
0.000190016062
6.9957683e-06
6.28612156e-06
0.000202114374
0.00018925954
6.70708175e-06
5.9201698e-06
0.000201784863
0.00018866012
6.37193904e-06
5.68120427e-06
0.000200881681
0.00018824009
5.99267769e-06
5.34655589e-06
0.00020038905
0.000188064935
5.43808746e-06
5.00634211e-06
0.000199819234
0.000187551179
5.3092016e-06
4.7540238e-06
0.000198761197
0.000187716084
4.70631633e-06
4.4288964e-06
0.00019840971
0.000187231924
4.30729581e-06
4.17301923e-06
0.000198167071
0.000186724768
3.90156817e-06
3.90916846e-06
0.000197974193
0.000186290396
3.4505141e-06
3.57773464e-06
0.000197861913
0.000186018956
2.92244411e-06
3.23635451e-06
0.00019785869
0.000185707102
2.52603057e-06
2.98249986e-06
0.000197674484
0.000185345876
2.19474969e-06
2.74805231e-06
0.000197443504
0.000185007691
1.89614161e-06
2.52433944e-06
0.000197186679
0.000184696987
1.62400684e-06
2.31037909e-06
0.000196909817
0.000184411879
1.38379872e-06
2.10597886e-06
0.000196621317
0.000184150972
1.17495101e-06
1.91076457e-06
0.00019632281
0.000183913164
9.94566205e-07
1.72380343e-06
0.000196016911
0.000183694416
8.39587959e-07
1.53841694e-06
0.000195705866
0.000183496049
7.06336999e-07
1.35501455e-06
0.000195389372
0.000183314138
6.00223979e-07
1.18042855e-06
0.000195077475
0.000183150302
6.02327959e-07
1.01536881e-06
0.0001947815
0.000182999592
6.05175957e-07
8.5877984e-07
0.000194511062
0.000182828086
6.07839219e-07
7.91335732e-07
0.00019419769
0.000182626868
6.10661074e-07
6.77808649e-07
0.000194050216
0.000182624218
6.12541656e-07
6.14989682e-07
0.000194036984
0.000182421367
6.14969546e-07
6.17347905e-07
0.000193808413
0.00018219073
6.16943578e-07
6.19320391e-07
0.000193719401
0.000182000374
6.18696433e-07
6.21168594e-07
0.000193664109
0.000181794295
6.20292956e-07
6.22906635e-07
0.000193632776
0.000181576836
6.21744709e-07
6.2452491e-07
0.000193629034
0.000181356727
6.23068746e-07
6.26006324e-07
0.000193665927
0.00018114299
6.24256926e-07
6.2736799e-07
0.00019375174
0.000180890366
6.25359515e-07
6.28396237e-07
0.000193803858
0.000180743605
6.25918149e-07
6.29529834e-07
0.000194063216
0.00018046922
6.27108837e-07
6.30683048e-07
0.000194049716
0.000180299244
6.27570812e-07
6.31634243e-07
0.000194279408
0.000180078626
6.2862624e-07
6.32513147e-07
0.000194224496
0.000179994016
6.29036616e-07
6.33235639e-07
0.000194378771
0.000179846882
6.30119232e-07
6.34152238e-07
0.000194190264
0.000179713919
6.30926157e-07
6.34688526e-07
0.000194110985
0.000179685271
6.31629603e-07
6.35106338e-07
0.000194033502
0.000179668738
6.32281132e-07
6.35461493e-07
0.000193973049
0.00017962371
6.32858328e-07
6.35791146e-07
0.000193960921
0.000179513992
6.33324876e-07
6.36130952e-07
0.000194022957
0.00017931954
6.33641938e-07
6.36504336e-07
0.000194158449
0.000179057254
6.33802631e-07
6.36864643e-07
0.000194329453
0.000178783461
6.33893055e-07
6.37109753e-07
0.000194478255
0.000178565676
6.33992665e-07
6.37219288e-07
0.000194562686
0.000178439445
6.34101531e-07
6.37231207e-07
0.00019457045
0.000178405941
6.34181328e-07
6.37148915e-07
0.000194512681
0.000178449052
6.34267255e-07
6.36944212e-07
0.000194416276
0.000178532989
6.3434086e-07
6.36711443e-07
0.000194309584
0.000178619378
6.40505865e-07
6.36516073e-07
0.000194204346
0.000178659932
7.00859354e-07
6.36390663e-07
0.000194183992
0.000178511068
6.64138159e-07
6.83575122e-07
0.000194667569
0.000177588681
6.96332341e-07
6.36228437e-07
0.000195964477
0.000177359735
6.32711428e-07
8.34585801e-07
0.00019545262
0.000177638085
6.31800443e-07
8.05856649e-07
0.00019575755
0.000177378875
6.31182412e-07
8.72685278e-07
0.000196084653
0.000177253187
6.30565577e-07
9.35933761e-07
0.000196260388
0.000177169794
6.3007363e-07
9.79143897e-07
0.000196385792
0.000177136118
6.2955649e-07
1.01225306e-06
0.000196494689
0.000177128891
6.29015154e-07
1.03397546e-06
0.000196590139
0.000177163575
6.28497242e-07
1.03807013e-06
0.000196640487
0.00017728331
6.28065481e-07
1.01207659e-06
0.000196569817
0.000177572108
6.27763324e-07
9.78179637e-07
0.000196281478
0.000178019065
6.27605021e-07
9.58143128e-07
0.000195939693
0.000178331345
6.96404838e-07
9.54796874e-07
0.000195819134
0.000178381035
7.80247209e-07
9.7222886e-07
0.000195872913
0.000178363354
8.55497877e-07
9.97765568e-07
0.000195864717
0.000178490344
9.3923979e-07
1.01912881e-06
0.000195714851
0.000178709356
1.01956428e-06
1.05392475e-06
0.000195623535
0.000178765363
1.04227445e-06
1.13504006e-06
0.000195875672
0.000178417309
9.86796819e-07
1.24241585e-06
0.000196558622
0.000177809269
8.98791909e-07
1.37013973e-06
0.000197254914
0.000177366397
8.07699431e-07
1.48429154e-06
0.0001976481
0.000177155913
7.78572905e-07
1.54836967e-06
0.000197811908
0.000177128349
8.14104635e-07
1.58927245e-06
0.000197778898
0.000177247461
8.65298562e-07
1.62033442e-06
0.000197684488
0.00017733954
9.27487875e-07
1.62523792e-06
0.000197675837
0.00017742471
1.0122937e-06
1.61635667e-06
0.00019755475
0.000177709465
1.12204779e-06
1.57545525e-06
0.000197175232
0.000178193033
1.2973827e-06
1.50481209e-06
0.000196585145
0.000178805018
1.48145686e-06
1.487351e-06
0.000195950932
0.000179114828
1.58781552e-06
1.53176604e-06
0.00019597228
0.000178537261
1.74645802e-06
1.53916133e-06
0.000196799895
0.000177436847
2.23092634e-06
1.67831329e-06
0.000196855243
0.000177406173
2.21252159e-06
1.74070911e-06
0.000197060859
0.000177307202
2.17927417e-06
1.69420016e-06
0.000197503515
0.000178380098
1.63804873e-06
1.79744582e-06
0.000197012667
0.000178832372
1.51894336e-06
1.70211775e-06
0.000197352211
0.000178972319
1.5244711e-06
1.74506783e-06
0.000197239738
0.000179272598
1.50674484e-06
1.70812472e-06
0.000197233824
0.000179470039
1.58501969e-06
1.71903122e-06
0.000197094136
0.000179742752
1.61448261e-06
1.70964708e-06
0.000197030236
0.000179876267
1.69785331e-06
1.70110559e-06
0.000196995974
0.000180099015
1.77029245e-06
1.70709931e-06
0.000196814775
0.000180358555
1.84802553e-06
1.7126877e-06
0.000196674051
0.000180502779
1.92344665e-06
1.73718288e-06
0.000196667836