/*--------------------------------*- C++ -*----------------------------------*\
| =========                 |                                                 |
| \\      /  F ield         | OpenFOAM: The Open Source CFD Toolbox           |
|  \\    /   O peration     | Version:  2306                                  |
|   \\  /    A nd           | Website:  www.openfoam.com                      |
|    \\/     M anipulation  |                                                 |
\*---------------------------------------------------------------------------*/
FoamFile
{
    version     2.0;
    format      ascii;
    arch        "LSB;label=32;scalar=64";
    class       volScalarField;
    location    "8e-05";
    object      mu;
}
// * * * * * * * * * * * * * * * * * * * * * * * * * * * * * * * * * * * * * //

dimensions      [1 -1 -1 0 0 0 0];

internalField   nonuniform List<scalar> 
3801
(
1.96809287e-05
2.03194572e-05
2.0295615e-05
1.97477788e-05
1.96790457e-05
1.96530196e-05
1.96550944e-05
1.95287284e-05
1.96508986e-05
2.03138607e-05
1.97167929e-05
1.9514111e-05
2.03071833e-05
2.03011754e-05
1.95815443e-05
1.95672752e-05
2.03104178e-05
2.02909265e-05
1.95483751e-05
1.95714439e-05
2.03082264e-05
2.02861489e-05
1.95389121e-05
1.95766041e-05
2.03064345e-05
2.02792239e-05
1.95407781e-05
1.9592664e-05
2.03049774e-05
2.02707848e-05
1.95491518e-05
1.96167376e-05
2.03037512e-05
2.0261403e-05
1.95628959e-05
1.96477575e-05
2.03028038e-05
2.02517148e-05
1.95813624e-05
1.96845972e-05
2.03023642e-05
2.02430013e-05
1.96044361e-05
1.97253931e-05
2.03033393e-05
2.02379999e-05
1.96315175e-05
1.97687379e-05
2.03009281e-05
2.02617164e-05
1.95915552e-05
1.95461562e-05
1.95017131e-05
1.97222274e-05
2.02988378e-05
2.0224562e-05
1.95568513e-05
1.9720747e-05
2.03012743e-05
2.02216792e-05
1.95822883e-05
1.97608141e-05
2.02982405e-05
2.02304604e-05
1.95682476e-05
1.97673744e-05
2.02770821e-05
1.96775469e-05
1.96612864e-05
2.03067247e-05
2.02560694e-05
1.95075659e-05
1.94058237e-05
1.96818676e-05
2.02868571e-05
2.02653751e-05
1.95575591e-05
1.96306778e-05
2.03000701e-05
2.02690973e-05
1.95446114e-05
1.96143779e-05
2.03038474e-05
2.02823977e-05
1.95357846e-05
1.95892973e-05
2.03050871e-05
2.02968799e-05
1.95375456e-05
1.95686203e-05
2.03055003e-05
2.03075641e-05
1.95502425e-05
1.95678806e-05
2.02970343e-05
2.03069659e-05
1.95847638e-05
1.95835675e-05
2.02858751e-05
2.03068243e-05
1.96123727e-05
1.96010933e-05
2.02770997e-05
2.0312231e-05
1.95995074e-05
1.96979172e-05
2.02822756e-05
2.02943388e-05
2.029321e-05
1.97491972e-05
1.94326488e-05
1.96363025e-05
1.94031628e-05
1.97575627e-05
2.02798639e-05
1.9756659e-05
1.9581556e-05
2.0265778e-05
2.03005051e-05
1.97116655e-05
1.96194691e-05
2.02667344e-05
2.03038886e-05
1.96773934e-05
1.9617536e-05
2.02687686e-05
2.03047914e-05
1.96678452e-05
1.96316061e-05
2.02717268e-05
2.02912497e-05
1.96107298e-05
1.94031553e-05
1.9626783e-05
2.02716908e-05
2.03234093e-05
1.96456533e-05
1.96002384e-05
2.02669472e-05
2.03185059e-05
1.96335613e-05
1.9748381e-05
2.02912501e-05
2.02912933e-05
2.02990826e-05
1.97640547e-05
1.94745718e-05
1.95710983e-05
1.9521121e-05
1.94419642e-05
1.95669368e-05
2.02893072e-05
2.03102436e-05
1.95592085e-05
1.95249089e-05
2.02844014e-05
2.03085818e-05
1.9595412e-05
1.95628032e-05
2.02868438e-05
2.03056504e-05
1.96131725e-05
1.95890304e-05
2.02879033e-05
2.03075674e-05
1.96236507e-05
1.96111275e-05
2.02924782e-05
2.03084954e-05
1.95809622e-05
1.97243123e-05
2.03132767e-05
1.97243556e-05
1.95201474e-05
2.02880758e-05
2.03128062e-05
1.96270984e-05
1.95551454e-05
2.02915107e-05
2.03081128e-05
1.96137281e-05
1.95809528e-05
2.02928953e-05
2.03057981e-05
1.96286238e-05
1.96024363e-05
2.02940439e-05
2.03028594e-05
1.96549005e-05
1.96238161e-05
2.02976134e-05
2.02986643e-05
1.97008613e-05
1.96339398e-05
2.03041946e-05
2.02919777e-05
1.97476672e-05
1.95673261e-05
1.96189545e-05
1.94797072e-05
1.94836851e-05
2.0289914e-05
2.0311301e-05
1.96098254e-05
1.95454532e-05
2.03026386e-05
2.03073272e-05
1.96089563e-05
1.95940672e-05
2.03080056e-05
2.02999704e-05
1.96361956e-05
1.96473046e-05
2.03133036e-05
2.0290374e-05
1.96800061e-05
1.96973773e-05
2.03202569e-05
2.02810038e-05
1.97529003e-05
1.95880674e-05
1.96305092e-05
1.94615365e-05
1.95291348e-05
2.02967771e-05
2.02862341e-05
1.96078589e-05
1.96194127e-05
2.03123775e-05
2.02777336e-05
1.95885088e-05
1.96189201e-05
2.03222892e-05
2.02751358e-05
1.9671392e-05
1.93374939e-05
1.95103559e-05
2.02916901e-05
2.02859783e-05
1.95692611e-05
1.95774281e-05
2.03042747e-05
2.02834777e-05
1.95550507e-05
1.95811074e-05
2.03053826e-05
2.02847114e-05
1.95547247e-05
1.95795203e-05
2.03042509e-05
2.0285121e-05
1.95592027e-05
1.95808344e-05
2.03040524e-05
2.02856566e-05
1.95662262e-05
1.95821446e-05
2.03045061e-05
2.02862516e-05
1.95762736e-05
1.95888494e-05
2.03051421e-05
2.02871954e-05
1.95827327e-05
1.95933791e-05
2.03065091e-05
2.02907288e-05
1.95819287e-05
1.9576146e-05
2.03124619e-05
2.0278085e-05
1.96185315e-05
1.94535411e-05
2.03293291e-05
2.02735255e-05
1.97489084e-05
2.02981071e-05
2.03037181e-05
1.9760126e-05
1.96354072e-05
1.94144821e-05
1.94435469e-05
2.02942455e-05
1.97760449e-05
1.93916595e-05
2.02957894e-05
2.02881079e-05
1.96763022e-05
1.95390269e-05
2.02768728e-05
2.02984824e-05
1.97060502e-05
1.95952163e-05
2.0268974e-05
2.02985849e-05
1.97503724e-05
1.97042293e-05
2.02612249e-05
1.97910992e-05
1.94995797e-05
2.02568957e-05
2.02930801e-05
1.98063763e-05
1.9635308e-05
2.02466793e-05
2.0304449e-05
1.98027949e-05
1.96740025e-05
2.02495804e-05
2.03004785e-05
1.97838958e-05
1.97079543e-05
1.95493906e-05
1.95521695e-05
2.0242058e-05
1.97830457e-05
1.95182113e-05
2.02395001e-05
2.02796294e-05
1.9774158e-05
1.94877798e-05
1.94878577e-05
2.02260387e-05
2.03018302e-05
1.97975606e-05
1.9643672e-05
2.02273541e-05
2.03005632e-05
1.97927774e-05
1.96754805e-05
2.02343396e-05
2.02934875e-05
1.97775399e-05
1.96192916e-05
1.96443965e-05
1.94957179e-05
1.94994358e-05
2.02332271e-05
2.03019116e-05
2.02884639e-05
1.97518999e-05
1.94950084e-05
1.94940361e-05
2.02512017e-05
2.03015573e-05
1.97433665e-05
1.96601544e-05
2.02565073e-05
1.97617352e-05
1.94942571e-05
2.02546985e-05
2.0303223e-05
1.97089004e-05
1.9563319e-05
2.02635284e-05
2.03067188e-05
1.96783771e-05
1.95950406e-05
2.02725634e-05
2.03039265e-05
1.96702896e-05
1.96590194e-05
2.02806327e-05
1.97602216e-05
1.94874198e-05
2.02777545e-05
2.03054906e-05
1.96706258e-05
1.95572952e-05
2.02842028e-05
2.03059194e-05
1.964722e-05
1.95802708e-05
2.02906012e-05
2.03017728e-05
1.96634159e-05
1.9572674e-05
2.03004282e-05
2.02955219e-05
1.97332463e-05
1.94559341e-05
1.94598952e-05
2.02855536e-05
2.03092703e-05
1.96819378e-05
1.95830341e-05
2.0294659e-05
2.03065491e-05
1.96805931e-05
1.96275341e-05
2.02999671e-05
2.03010858e-05
1.97191318e-05
1.96487161e-05
2.03088298e-05
2.02905436e-05
1.97565201e-05
1.9595356e-05
1.95990337e-05
2.02971168e-05
2.03034967e-05
1.97711122e-05
1.96553899e-05
1.95964952e-05
1.95961944e-05
2.02989088e-05
2.02998381e-05
1.9749319e-05
1.95918555e-05
1.95041841e-05
1.95052102e-05
2.02965868e-05
2.02954086e-05
1.96046762e-05
1.9545354e-05
2.03008343e-05
2.02920446e-05
1.96360967e-05
1.95334321e-05
2.03076886e-05
2.02854347e-05
1.97175531e-05
1.94324139e-05
1.94480037e-05
2.02853921e-05
2.030304e-05
1.96408988e-05
1.95420204e-05
2.02927655e-05
2.02985728e-05
1.96095195e-05
1.95820347e-05
2.02976758e-05
2.0294546e-05
1.95950605e-05
1.96200413e-05
2.03069106e-05
1.97667994e-05
1.94217149e-05
2.02956223e-05
2.02967756e-05
1.96092712e-05
1.95043426e-05
2.02944593e-05
2.02987966e-05
1.95722611e-05
1.9523556e-05
2.02927617e-05
2.03019687e-05
1.9569831e-05
1.95331151e-05
2.02929351e-05
2.03038009e-05
1.95754165e-05
1.95529724e-05
2.02957451e-05
2.03037245e-05
1.95839572e-05
1.95867021e-05
2.03004888e-05
2.03031311e-05
1.95646496e-05
1.96777213e-05
2.03139753e-05
1.9754586e-05
1.9441581e-05
2.03063075e-05
2.03046462e-05
1.95858501e-05
1.9543368e-05
2.0309346e-05
2.03020209e-05
1.95737055e-05
1.95884075e-05
2.03081979e-05
2.0301701e-05
1.95921807e-05
1.96352514e-05
2.03077992e-05
2.03019853e-05
1.95885692e-05
1.97404558e-05
2.03123231e-05
1.9759429e-05
1.95186209e-05
2.0314963e-05
2.02984816e-05
1.96524485e-05
1.96303339e-05
2.03147623e-05
2.02891526e-05
1.96992265e-05
1.96045773e-05
1.9507195e-05
1.96145303e-05
2.03123076e-05
1.96737883e-05
1.9431656e-05
2.03048595e-05
2.02931502e-05
1.95662564e-05
1.95101206e-05
2.03115888e-05
2.02864078e-05
1.95760376e-05
1.94920506e-05
2.03121697e-05
2.02820743e-05
1.96345864e-05
1.93557711e-05
1.94250109e-05
2.02835831e-05
2.03030679e-05
1.95459675e-05
1.94646236e-05
2.02917145e-05
2.02976683e-05
1.95373907e-05
1.94973009e-05
2.02922422e-05
2.02977808e-05
1.95440724e-05
1.95080037e-05
2.02903404e-05
2.02988106e-05
1.95569608e-05
1.95122757e-05
2.02878354e-05
2.02997142e-05
1.9570659e-05
1.95146734e-05
2.0284919e-05
2.03004403e-05
1.95842858e-05
1.95161794e-05
2.02816403e-05
2.03011404e-05
1.95978028e-05
1.95171833e-05
2.02781645e-05
2.03020097e-05
1.96130358e-05
1.95200249e-05
2.02747399e-05
2.03029346e-05
1.96307089e-05
1.95262972e-05
2.02713938e-05
2.03036846e-05
1.96512125e-05
1.95371006e-05
2.02682739e-05
2.03041059e-05
1.9675291e-05
1.95548235e-05
2.02658302e-05
2.03040253e-05
1.97034719e-05
1.9580866e-05
2.02643659e-05
2.03029273e-05
1.97355343e-05
1.96168074e-05
2.02637769e-05
2.03000228e-05
1.97799447e-05
1.96615108e-05
2.02687995e-05
2.02932097e-05
1.97750687e-05
1.96614459e-05
1.95073574e-05
1.95160182e-05
2.02759555e-05
1.97748025e-05
1.94332254e-05
2.02607971e-05
2.02895852e-05
1.96911102e-05
1.95362048e-05
2.02626515e-05
2.0288757e-05
1.96918578e-05
1.95280086e-05
2.02706465e-05
2.02836259e-05
1.97604328e-05
1.93857442e-05
1.93914301e-05
2.02652715e-05
2.03028938e-05
1.96475108e-05
1.95124432e-05
2.02640645e-05
2.03022963e-05
1.96259132e-05
1.95430925e-05
2.0271993e-05
2.03018354e-05
1.96228953e-05
1.95659101e-05
2.02818408e-05
2.03013381e-05
1.96230181e-05
1.9602672e-05
2.02921515e-05
2.03014989e-05
1.96090355e-05
1.96636399e-05
2.03092847e-05
1.97554898e-05
1.94616853e-05
2.031202e-05
2.03021021e-05
1.96187723e-05
1.95691288e-05
2.03215147e-05
2.02907325e-05
1.96203337e-05
1.96103877e-05
2.03212697e-05
2.02868435e-05
1.97427999e-05
1.94631229e-05
1.96233081e-05
2.03011269e-05
2.02855154e-05
1.96384185e-05
1.96820199e-05
2.03155735e-05
2.02826029e-05
1.97474556e-05
1.95333875e-05
1.97416315e-05
2.03019408e-05
2.02895717e-05
1.97615942e-05
1.96341732e-05
1.95537528e-05
1.9749393e-05
2.02939414e-05
1.97466577e-05
1.96242104e-05
2.0313372e-05
2.02616395e-05
1.96701446e-05
1.97749416e-05
2.03112604e-05
2.02722032e-05
1.97134524e-05
1.96323096e-05
1.95319751e-05
1.97472982e-05
2.02834938e-05
1.97246112e-05
1.9614747e-05
2.03155959e-05
2.02647274e-05
1.96267668e-05
1.93560554e-05
1.96838369e-05
2.02833213e-05
2.0269733e-05
1.95693356e-05
1.96686743e-05
2.02989781e-05
2.02584099e-05
1.95759308e-05
1.96862163e-05
2.03029967e-05
2.02611949e-05
1.95799856e-05
1.96902144e-05
2.03039069e-05
2.02644484e-05
1.95826548e-05
1.9690483e-05
2.03046486e-05
2.02674155e-05
1.95876806e-05
1.96945321e-05
2.03056982e-05
2.02699115e-05
1.95916008e-05
1.97125078e-05
2.03042941e-05
2.02768356e-05
1.95539288e-05
1.97662815e-05
2.03008943e-05
1.97263755e-05
1.95458236e-05
2.03120905e-05
2.02758107e-05
1.95751263e-05
1.96356246e-05
2.0311684e-05
2.02777652e-05
1.95231431e-05
1.97516935e-05
2.03090076e-05
1.97115702e-05
1.94664905e-05
2.03086487e-05
2.02871675e-05
1.95414043e-05
1.95460743e-05
2.03112444e-05
2.0288128e-05
1.95338375e-05
1.95799897e-05
2.03093114e-05
2.02942733e-05
1.95125223e-05
1.96577551e-05
2.03151743e-05
1.97263627e-05
1.93985802e-05
2.03022857e-05
2.02982835e-05
1.95467441e-05
1.94760538e-05
2.02965224e-05
2.02962485e-05
1.95442977e-05
1.94983968e-05
2.0287269e-05
2.02972422e-05
1.95702215e-05
1.95185602e-05
2.02799624e-05
2.02973656e-05
1.96033454e-05
1.95399442e-05
2.02747427e-05
2.02961492e-05
1.96389375e-05
1.95585757e-05
2.02715216e-05
2.02932104e-05
1.96807484e-05
1.95546726e-05
2.02768061e-05
2.02842055e-05
1.97687831e-05
1.94539919e-05
1.94569952e-05
2.02742538e-05
2.02826375e-05
1.97677237e-05
1.9383088e-05
1.93897011e-05
2.02561516e-05
2.02934774e-05
1.9682826e-05
1.95199935e-05
2.02551149e-05
2.02958463e-05
1.9673057e-05
1.95663448e-05
2.02544641e-05
2.02900907e-05
1.96659167e-05
1.96580895e-05
2.02564001e-05
1.97794448e-05
1.94193425e-05
2.02540031e-05
2.02836981e-05
1.96834343e-05
1.94982198e-05
2.02430983e-05
2.02929389e-05
1.96623193e-05
1.95006117e-05
2.02389244e-05
2.02926806e-05
1.96673279e-05
1.95030983e-05
2.02346677e-05
2.02926458e-05
1.96799062e-05
1.95059962e-05
2.02302312e-05
2.02933022e-05
1.96941558e-05
1.95094203e-05
2.02258889e-05
2.02942047e-05
1.97076696e-05
1.95136978e-05
2.02220445e-05
2.02951213e-05
1.97224459e-05
1.95184414e-05
2.0210416e-05
2.02958707e-05
1.97396916e-05
1.95235344e-05
2.01959179e-05
2.02963566e-05
1.97553229e-05
1.95295461e-05
2.01858424e-05
2.02967563e-05
1.97675966e-05
1.95383814e-05
2.01839556e-05
2.02973799e-05
1.9777543e-05
1.95524892e-05
2.01933453e-05
2.02987934e-05
1.97859662e-05
1.95746495e-05
2.02190222e-05
2.03006279e-05
1.97926208e-05
1.96178243e-05
2.02348861e-05
2.02964148e-05
1.97991586e-05
1.97344027e-05
2.0238641e-05
1.97841841e-05
1.95533264e-05
2.02389467e-05
2.02915552e-05
1.98053562e-05
1.96453485e-05
2.0249393e-05
2.02950871e-05
1.97776402e-05
1.96382123e-05
1.94578109e-05
1.95315325e-05
2.0276706e-05
1.97772311e-05
1.94555452e-05
2.02561474e-05
2.0294507e-05
1.96855007e-05
1.95295311e-05
2.02546572e-05
2.02996931e-05
1.96767177e-05
1.95633103e-05
2.02586422e-05
2.02990983e-05
1.96909751e-05
1.95964854e-05
2.02623553e-05
2.02961497e-05
1.97048636e-05
1.96237117e-05
2.02694926e-05
2.02923327e-05
1.97039811e-05
1.9553187e-05
1.94809625e-05
1.94814643e-05
2.02622341e-05
2.02946802e-05
1.95989157e-05
1.94966298e-05
2.02660072e-05
2.02983589e-05
1.95824598e-05
1.95043367e-05
2.02666172e-05
2.02980027e-05
1.95858786e-05
1.95204248e-05
2.02699415e-05
2.02968188e-05
1.95915854e-05
1.95397125e-05
2.02765607e-05
2.0295547e-05
1.95965922e-05
1.95577789e-05
2.02855725e-05
2.02929009e-05
1.9599178e-05
1.95409916e-05
2.02961191e-05
2.0288938e-05
1.96122352e-05
1.94302292e-05
1.9481126e-05
2.02869531e-05
2.03066493e-05
1.9554558e-05
1.95090816e-05
2.02961076e-05
2.03013314e-05
1.95504679e-05
1.95323389e-05
2.02992711e-05
2.02997941e-05
1.95587096e-05
1.95479741e-05
2.02989259e-05
2.03005321e-05
1.95723986e-05
1.95634345e-05
2.02976472e-05
2.03020941e-05
1.9583664e-05
1.95865418e-05
2.03003689e-05
2.03049952e-05
1.95553447e-05
1.96853173e-05
2.03135977e-05
1.9704559e-05
1.94741623e-05
2.02978368e-05
2.03099203e-05
1.95729371e-05
1.95110462e-05
2.0309647e-05
2.03046871e-05
1.9558366e-05
1.95425717e-05
2.03134374e-05
2.02989838e-05
1.95699889e-05
1.95802434e-05
2.03153243e-05
2.02933592e-05
1.95866678e-05
1.9633365e-05
2.03145485e-05
2.02919538e-05
1.95650902e-05
1.97386122e-05
2.03046985e-05
1.97337871e-05
1.957568e-05
2.03334292e-05
2.02879314e-05
1.96076907e-05
1.93165311e-05
1.96692647e-05
2.03044063e-05
2.02917489e-05
1.94761711e-05
1.97304296e-05
2.02875871e-05
1.96078016e-05
1.9552415e-05
2.03363777e-05
2.02678348e-05
1.95206662e-05
1.96184564e-05
2.03460059e-05
2.02658029e-05
1.95096078e-05
1.9656719e-05
2.03522825e-05
2.02786103e-05
1.95317931e-05
1.96725484e-05
2.0350069e-05
2.03114329e-05
1.94335106e-05
1.92586634e-05
1.96649967e-05
2.03500326e-05
2.03298749e-05
1.94290183e-05
1.95568112e-05
2.03747179e-05
2.0341054e-05
1.94360129e-05
1.9519962e-05
2.03788449e-05
2.0360432e-05
1.93067268e-05
1.90290976e-05
1.94485923e-05
2.03845239e-05
2.04262288e-05
1.91695237e-05
1.93223972e-05
2.04077614e-05
2.04214748e-05
2.0405691e-05
2.04297504e-05
2.03927112e-05
2.04346148e-05
2.04030188e-05
1.94999411e-05
1.93980532e-05
2.0467193e-05
2.04519397e-05
1.9287634e-05
1.93457594e-05
2.04822158e-05
2.04771098e-05
2.04675006e-05
2.04882344e-05
2.04724479e-05
2.04906078e-05
2.04845176e-05
2.04969519e-05
2.04962716e-05
2.05044276e-05
2.05061992e-05
2.05122533e-05
2.05152149e-05
2.0520548e-05
2.05244474e-05
2.05294021e-05
2.05339782e-05
2.05392713e-05
2.05436074e-05
2.05506749e-05
2.05528116e-05
2.05638709e-05
2.05600523e-05
2.05742412e-05
1.95916943e-05
1.8865948e-05
1.86759805e-05
1.94736851e-05
1.87163493e-05
1.9006939e-05
1.88332138e-05
1.91579592e-05
1.92019481e-05
1.90418205e-05
1.88979694e-05
1.88932624e-05
1.88105393e-05
1.88391227e-05
1.89753023e-05
1.88914179e-05
1.9237431e-05
1.89164153e-05
1.89117302e-05
1.89967473e-05
1.87571258e-05
1.95009338e-05
1.87892332e-05
1.88794216e-05
1.89475276e-05
1.89911455e-05
1.88284587e-05
1.89335934e-05
1.93788149e-05
1.91976852e-05
2.06858464e-05
2.0635436e-05
2.07490009e-05
2.08753662e-05
2.06967154e-05
2.05800763e-05
2.06858813e-05
2.08006885e-05
2.10631006e-05
2.10693955e-05
2.08747817e-05
2.0920131e-05
2.111372e-05
2.10336882e-05
2.10301482e-05
2.10136e-05
2.10884332e-05
2.10439335e-05
2.10927457e-05
2.10675668e-05
2.13985709e-05
2.08882634e-05
2.10120716e-05
2.1031685e-05
2.13086506e-05
2.13706498e-05
2.1267912e-05
2.16068632e-05
2.17829056e-05
2.14705842e-05
2.16977857e-05
2.18860531e-05
2.21435227e-05
2.20181079e-05
2.22032618e-05
2.22481716e-05
2.23600632e-05
2.20592356e-05
2.20857061e-05
2.23248562e-05
2.14614777e-05
2.18747931e-05
2.17020364e-05
2.21620047e-05
2.19304746e-05
2.23633709e-05
2.21302497e-05
2.26104843e-05
2.13893148e-05
2.13692965e-05
2.12939309e-05
2.17851536e-05
2.26549525e-05
2.22270597e-05
2.09804416e-05
2.21785663e-05
2.23755427e-05
2.28528388e-05
2.14726921e-05
2.21958041e-05
2.2296978e-05
2.29377397e-05
2.36529167e-05
2.30798945e-05
2.3330416e-05
2.38443473e-05
2.40121787e-05
2.41787453e-05
2.47742705e-05
2.5030009e-05
2.52598156e-05
2.5934393e-05
2.60906965e-05
2.67109904e-05
2.68239748e-05
2.74582403e-05
2.6701628e-05
2.70641726e-05
2.71441354e-05
2.75459007e-05
2.77345112e-05
2.8222635e-05
2.83325886e-05
2.84121572e-05
2.85132053e-05
2.864726e-05
2.88044788e-05
2.90220663e-05
2.91803687e-05
2.93585046e-05
2.95087816e-05
2.96744876e-05
2.9823872e-05
2.99885802e-05
3.01268956e-05
3.02595723e-05
3.03878748e-05
3.05441893e-05
3.06878946e-05
3.08688676e-05
3.10555651e-05
3.13433098e-05
3.15764602e-05
3.18435196e-05
3.20386987e-05
3.2271252e-05
3.24449805e-05
3.2644561e-05
3.27819227e-05
3.29391279e-05
3.30828843e-05
3.32472016e-05
3.34167807e-05
3.35923188e-05
3.37985327e-05
3.40031907e-05
3.42400644e-05
3.44475003e-05
3.46923428e-05
3.48904086e-05
3.51292418e-05
3.53150533e-05
3.55453799e-05
3.57209422e-05
3.59419134e-05
3.61074778e-05
3.63137089e-05
3.64679219e-05
3.66678966e-05
3.68245537e-05
3.7035923e-05
3.71980327e-05
3.74106366e-05
3.75707125e-05
3.77824322e-05
3.79413606e-05
3.81512068e-05
3.83091374e-05
3.85162144e-05
3.86729246e-05
3.88768104e-05
3.90321746e-05
3.92323732e-05
3.93861718e-05
3.95825977e-05
3.9734798e-05
3.99271905e-05
4.00776361e-05
4.02662897e-05
4.04152943e-05
4.06002197e-05
4.07475866e-05
4.09287572e-05
4.10745218e-05
4.12519759e-05
4.13960645e-05
4.15698065e-05
4.17123516e-05
4.18821054e-05
4.202255e-05
4.21884759e-05
4.23270257e-05
4.248916e-05
4.26261862e-05
4.27850132e-05
4.2920744e-05
4.30764589e-05
4.3212869e-05
4.33679798e-05
4.35032899e-05
4.36556024e-05
4.37897685e-05
4.3939343e-05
4.4072436e-05
4.42192876e-05
4.435143e-05
4.44956728e-05
4.46268973e-05
4.476851e-05
4.48988069e-05
4.50377127e-05
4.51670739e-05
4.53032225e-05
4.54315782e-05
4.5564837e-05
4.56921235e-05
4.58223513e-05
4.59519112e-05
4.60849068e-05
4.62124459e-05
4.63414923e-05
4.6466601e-05
4.65918456e-05
4.6714746e-05
4.68364302e-05
4.6957562e-05
4.70759239e-05
4.71954986e-05
4.7310686e-05
4.74289352e-05
4.75410614e-05
4.76580142e-05
4.77670102e-05
4.78826509e-05
4.79884556e-05
4.81027584e-05
4.82052985e-05
4.83182364e-05
4.84174308e-05
4.85289537e-05
4.86247171e-05
4.87347344e-05
4.88270133e-05
4.89354349e-05
4.90242943e-05
4.91310363e-05
4.92160737e-05
4.93212419e-05
4.94023338e-05
4.95064167e-05
4.95829634e-05
4.96860647e-05
4.97575865e-05
4.9860528e-05
4.99256573e-05
5.00292126e-05
5.00871483e-05
5.01926217e-05
5.02428071e-05
5.0356165e-05
5.03922975e-05
5.05013599e-05
5.05353448e-05
5.06845102e-05
5.06716848e-05
5.07914039e-05
5.08020374e-05
5.08471252e-05
5.09219755e-05
5.15348078e-05
5.10424172e-05
5.1108495e-05
5.11417398e-05
5.18885948e-05
5.12714015e-05
5.1460095e-05
5.13533908e-05
5.2168582e-05
5.14815317e-05
5.17572248e-05
5.1834412e-05
5.24751065e-05
5.16057713e-05
5.19712097e-05
5.22855531e-05
5.31339797e-05
5.1898193e-05
5.21582482e-05
5.2543307e-05
5.31868027e-05
5.20752757e-05
5.23225877e-05
5.32823301e-05
5.32635477e-05
5.2233806e-05
5.24814687e-05
5.33034934e-05
5.33955058e-05
5.21721337e-05
5.26180991e-05
5.34242616e-05
5.35877013e-05
5.20958588e-05
5.27279818e-05
5.36729347e-05
5.37768074e-05
5.2672192e-05
5.28529264e-05
5.35563651e-05
5.38784663e-05
5.31267085e-05
5.28619343e-05
5.36879984e-05
5.39289105e-05
5.37687138e-05
5.27888455e-05
5.37988193e-05
5.39494779e-05
5.37157686e-05
5.27245867e-05
5.38505844e-05
5.40691329e-05
5.382745e-05
5.30837238e-05
5.39194854e-05
5.41988087e-05
5.39504738e-05
5.34557566e-05
5.39943104e-05
5.41378275e-05
5.40584557e-05
5.36728423e-05
5.40777798e-05
5.41422277e-05
5.4147986e-05
5.42029601e-05
5.41760145e-05
5.42645459e-05
5.42367696e-05
5.43149749e-05
5.42787629e-05
5.43172677e-05
5.43318693e-05
5.43415748e-05
5.43741302e-05
5.43631247e-05
5.44172645e-05
5.43911439e-05
5.4454388e-05
5.44256365e-05
5.44867926e-05
5.4458963e-05
5.45163184e-05
5.44898097e-05
5.45440146e-05
5.45181717e-05
5.45698628e-05
5.45442215e-05
5.45942341e-05
5.45708075e-05
5.46172199e-05
5.46015309e-05
5.46389993e-05
5.46331706e-05
5.46596984e-05
5.46644069e-05
5.46794583e-05
5.46950416e-05
5.46984031e-05
5.47251967e-05
5.47166719e-05
5.47549933e-05
5.47344124e-05
5.47845414e-05
5.47589484e-05
5.481393e-05
5.47883626e-05
5.48432124e-05
5.48177669e-05
5.48724218e-05
5.48472042e-05
5.49015978e-05
5.48766929e-05
5.49307574e-05
5.49062345e-05
5.49598322e-05
5.49358097e-05
5.4988986e-05
5.49654261e-05
5.50176254e-05
5.49950165e-05
5.50412854e-05
5.502477e-05
5.50541169e-05
5.50541967e-05
5.50603487e-05
5.50801672e-05
5.50756493e-05
5.50923214e-05
5.50712343e-05
5.50987907e-05
5.50975081e-05
5.51134796e-05
5.50711675e-05
5.51109397e-05
5.5121648e-05
5.51354714e-05
5.50656697e-05
5.51169602e-05
5.51436794e-05
5.51585969e-05
5.50735567e-05
5.51208018e-05
5.51498322e-05
5.5178594e-05
5.51226803e-05
5.51350896e-05
5.51532108e-05
5.51856481e-05
5.5175459e-05
5.5183051e-05
5.52034621e-05
5.52067741e-05
5.52344469e-05
5.52406866e-05
5.52634784e-05
5.52696196e-05
5.52920818e-05
5.52990592e-05
5.53199583e-05
5.53271621e-05
5.53474179e-05
5.53549317e-05
5.5374597e-05
5.53824389e-05
5.54020083e-05
5.54101258e-05
5.54300375e-05
5.54382858e-05
5.5459043e-05
5.54672206e-05
5.54893201e-05
5.5497134e-05
5.55210474e-05
5.5528122e-05
5.55542417e-05
5.55601321e-05
5.55887147e-05
5.55924532e-05
5.56240469e-05
5.5624957e-05
5.5659042e-05
5.56572171e-05
5.56933387e-05
5.56885763e-05
5.57260817e-05
5.57184202e-05
5.57565052e-05
5.57462912e-05
5.57841807e-05
5.57720036e-05
5.58090976e-05
5.57946127e-05
5.58317948e-05
5.58150969e-05
5.58531462e-05
5.58345573e-05
5.58744135e-05
5.58535767e-05
5.58950084e-05
5.58726158e-05
5.59168386e-05
5.5889975e-05
5.59385386e-05
5.59077079e-05
5.59592941e-05
5.59260621e-05
5.59823676e-05
5.59446197e-05
5.60029034e-05
5.59613447e-05
5.60262885e-05
5.59787379e-05
5.60456702e-05
5.5996776e-05
5.60684408e-05
5.60150282e-05
5.60866057e-05
5.6031985e-05
5.61096077e-05
5.6049923e-05
5.6125994e-05
5.60687204e-05
5.61501581e-05
5.60881738e-05
5.61639131e-05
5.61078682e-05
5.61904671e-05
5.61271083e-05
5.62000827e-05
5.61469045e-05
5.62316238e-05
5.61677367e-05
5.62347614e-05
5.6188209e-05
5.62740223e-05
5.62099112e-05
5.62656849e-05
5.62303145e-05
5.63190769e-05
5.62529339e-05
5.6289679e-05
5.6272193e-05
5.63687837e-05
5.62962569e-05
5.62998404e-05
5.63128671e-05
5.64187396e-05
5.63397905e-05
5.62569942e-05
5.63550189e-05
5.64392815e-05
5.63857887e-05
5.61149025e-05
5.63985252e-05
5.64773671e-05
5.64310002e-05
5.60508594e-05
5.64426977e-05
5.65167698e-05
5.64751521e-05
5.60881323e-05
5.64876808e-05
5.65585992e-05
5.65193112e-05
5.61324664e-05
5.65330868e-05
5.66009188e-05
5.65638387e-05
5.61766205e-05
5.65791068e-05
5.66448213e-05
5.66091332e-05
5.6220792e-05
5.66256062e-05
5.66897783e-05
5.66556086e-05
5.62653925e-05
5.66734839e-05
5.67356568e-05
5.67040867e-05
5.6309872e-05
5.67213254e-05
5.67818533e-05
5.67553624e-05
5.63544352e-05
5.67680504e-05
5.6828649e-05
5.68046649e-05
5.63989739e-05
5.68170665e-05
5.68748334e-05
5.68549154e-05
5.64433437e-05
5.68662642e-05
5.69215823e-05
5.69054161e-05
5.65028983e-05
5.69141285e-05
5.69682718e-05
5.69555149e-05
5.65629828e-05
5.69608236e-05
5.70140255e-05
5.7004966e-05
5.66210625e-05
5.70066405e-05
5.70585867e-05
5.70518236e-05
5.66777197e-05
5.70516479e-05
5.7102654e-05
5.7098243e-05
5.67342414e-05
5.7096234e-05
5.71474508e-05
5.71482942e-05
5.67922402e-05
5.71423142e-05
5.71941176e-05
5.71982149e-05
5.68526664e-05
5.71916749e-05
5.72428868e-05
5.72345966e-05
5.69149529e-05
5.72474697e-05
5.72925271e-05
5.72414624e-05
5.69748336e-05
5.73098895e-05
5.73425617e-05
5.71879241e-05
5.70261693e-05
5.73654347e-05
5.73914527e-05
5.71132939e-05
5.70772561e-05
5.74299489e-05
5.74389816e-05
5.7105796e-05
5.7128144e-05
5.74909225e-05
5.74841871e-05
5.7172278e-05
5.71798052e-05
5.75349589e-05
5.75268476e-05
5.72269732e-05
5.72928744e-05
5.75792955e-05
5.75952415e-05
5.72763537e-05
5.74898039e-05
5.76189538e-05
5.7346784e-05
5.73227368e-05
5.75591882e-05
5.7664249e-05
5.73350116e-05
5.73749348e-05
5.76868934e-05
5.77146313e-05
5.73995181e-05
5.74224733e-05
5.77484967e-05
5.77603952e-05
5.74546628e-05
5.74677123e-05
5.77984129e-05
5.78062704e-05
5.75022112e-05
5.75134946e-05
5.78428106e-05
5.78509452e-05
5.75472353e-05
5.75582538e-05
5.78851498e-05
5.78941214e-05
5.75910094e-05
5.7601702e-05
5.79265125e-05
5.79358261e-05
5.76340353e-05
5.76437376e-05
5.79672754e-05
5.79762532e-05
5.76763646e-05
5.76846492e-05
5.8007435e-05
5.80156144e-05
5.77180219e-05
5.77244984e-05
5.80468576e-05
5.80541488e-05
5.77587456e-05
5.77636496e-05
5.80852808e-05
5.80920886e-05
5.77982227e-05
5.78023062e-05
5.81224734e-05
5.81295212e-05
5.78341232e-05
5.78402912e-05
5.815856e-05
5.81659255e-05
5.7869077e-05
5.78769714e-05
5.81941114e-05
5.82010998e-05
5.79034509e-05
5.79126024e-05
5.82288348e-05
5.82354335e-05
5.79367717e-05
5.79471236e-05
5.82624231e-05
5.82688851e-05
5.79690104e-05
5.79788239e-05
5.8294996e-05
5.83011977e-05
5.80003235e-05
5.80103046e-05
5.83259813e-05
5.83325423e-05
5.80304715e-05
5.80402569e-05
5.83563362e-05
5.83635125e-05
5.80586127e-05
5.80690794e-05
5.83857435e-05
5.83924002e-05
5.80870283e-05
5.8096735e-05
5.84142179e-05
5.84206919e-05
5.81136848e-05
5.81227146e-05
5.84421746e-05
5.84479557e-05
5.81394423e-05
5.81485565e-05
5.84683053e-05
5.84736244e-05
5.81649245e-05
5.81723669e-05
5.84942704e-05
5.84988853e-05
5.81884885e-05
5.8196198e-05
5.85185404e-05
5.85231092e-05
5.82110096e-05
5.8219093e-05
5.85418038e-05
5.85463717e-05
5.82325034e-05
5.82409802e-05
5.85641695e-05
5.8568716e-05
5.82529607e-05
5.82617109e-05
5.85857165e-05
5.8590108e-05
5.82724298e-05
5.82815463e-05
5.86061994e-05
5.86103847e-05
5.82912489e-05
5.83004754e-05
5.8625686e-05
5.86296687e-05
5.83092656e-05
5.83184743e-05
5.86442464e-05
5.86480106e-05
5.83264563e-05
5.83355802e-05
5.86618824e-05
5.86654528e-05
5.83428135e-05
5.83518327e-05
5.86785784e-05
5.86820338e-05
5.83583226e-05
5.8367268e-05
5.86943335e-05
5.86977859e-05
5.83729901e-05
5.83819102e-05
5.87091692e-05
5.87127268e-05
5.83868408e-05
5.83957683e-05
5.87231314e-05
5.87268605e-05
5.83999226e-05
5.84088263e-05
5.87362829e-05
5.87401782e-05
5.84122971e-05
5.84210906e-05
5.87486632e-05
5.8752678e-05
5.84240065e-05
5.84325769e-05
5.87592237e-05
5.87643898e-05
5.84350549e-05
5.84433375e-05
5.87692521e-05
5.87753805e-05
5.84453937e-05
5.84534603e-05
5.87786061e-05
5.87855536e-05
5.84551897e-05
5.84630821e-05
5.87884847e-05
5.87951886e-05
5.84640213e-05
5.8471765e-05
5.87950702e-05
5.88036697e-05
5.84721063e-05
5.84801517e-05
5.88035347e-05
5.88118803e-05
5.84799164e-05
5.84879042e-05
5.88104066e-05
5.88187386e-05
5.84870074e-05
5.84950777e-05
5.88164991e-05
5.88251529e-05
5.84934921e-05
5.85017503e-05
5.88220369e-05
5.88311731e-05
5.84994159e-05
5.85079351e-05
5.88270617e-05
5.8836767e-05
5.85048087e-05
5.85135904e-05
5.88316365e-05
5.88418765e-05
5.85097314e-05
5.85187355e-05
5.88357363e-05
5.88465641e-05
5.85141773e-05
5.85234509e-05
5.88395348e-05
5.8850095e-05
5.85182672e-05
5.85276981e-05
5.88414537e-05
5.88539886e-05
5.85216081e-05
5.85317494e-05
5.88455355e-05
5.88579384e-05
5.85247742e-05
5.85352875e-05
5.8847106e-05
5.88611953e-05
5.85273405e-05
5.85385464e-05
5.88507115e-05
5.8864192e-05
5.85299171e-05
5.85412164e-05
5.88520985e-05
5.88666522e-05
5.85319596e-05
5.85436407e-05
5.88557886e-05
5.8869765e-05
5.8534113e-05
5.85456744e-05
5.8858528e-05
5.88715752e-05
5.8535871e-05
5.85472857e-05
5.88609136e-05
5.88729768e-05
5.85374023e-05
5.85485823e-05
5.88631203e-05
5.88741614e-05
5.8538697e-05
5.85496416e-05
5.88650711e-05
5.8875258e-05
5.85397074e-05
5.85505617e-05
5.88666402e-05
5.88763918e-05
5.85403502e-05
5.85514649e-05
5.88676919e-05
5.88776466e-05
5.85405208e-05
5.85523766e-05
5.88682016e-05
5.88788598e-05
5.85403208e-05
5.85530552e-05
5.88684713e-05
5.88796748e-05
5.85400625e-05
5.85533616e-05
5.8868779e-05
5.8880022e-05
5.85398458e-05
5.85533309e-05
5.88691225e-05
5.88800365e-05
5.85395327e-05
5.85530804e-05
5.8869366e-05
5.88797292e-05
5.85391175e-05
5.85524617e-05
5.88696353e-05
5.88789983e-05
5.8538788e-05
5.85515643e-05
5.88698671e-05
5.88781762e-05
5.85382428e-05
5.8550772e-05
5.88696365e-05
5.88774897e-05
5.85373308e-05
5.85499451e-05
5.8868446e-05
5.88770371e-05
5.85363046e-05
5.85489703e-05
5.88674253e-05
5.88767056e-05
5.85349382e-05
5.85491377e-05
5.88655068e-05
5.88764504e-05
5.85318243e-05
5.85480168e-05
5.88641722e-05
5.8873992e-05
5.853184e-05
5.85465293e-05
5.88610358e-05
5.88734508e-05
5.85292446e-05
5.85457947e-05
5.88588892e-05