/*--------------------------------*- C++ -*----------------------------------*\
| =========                 |                                                 |
| \\      /  F ield         | OpenFOAM: The Open Source CFD Toolbox           |
|  \\    /   O peration     | Version:  2306                                  |
|   \\  /    A nd           | Website:  www.openfoam.com                      |
|    \\/     M anipulation  |                                                 |
\*---------------------------------------------------------------------------*/
FoamFile
{
    version     2.0;
    format      ascii;
    arch        "LSB;label=32;scalar=64";
    class       volScalarField;
    location    "8e-05";
    object      prefDZ_H2;
}
// * * * * * * * * * * * * * * * * * * * * * * * * * * * * * * * * * * * * * //

dimensions      [1 -1 -1 0 0 0 0];

internalField   nonuniform List<scalar> 
3801
(
6.21083445e-05
6.36525715e-05
6.35789668e-05
6.22843893e-05
6.21025424e-05
6.2033221e-05
6.20374635e-05
6.16943418e-05
6.20264651e-05
6.36257675e-05
6.22060992e-05
6.16545511e-05
6.36130267e-05
6.35888311e-05
6.18383274e-05
6.17991044e-05
6.36190467e-05
6.35560178e-05
6.17478617e-05
6.18104318e-05
6.36114698e-05
6.35393961e-05
6.17218237e-05
6.18243587e-05
6.36057889e-05
6.35162656e-05
6.17267117e-05
6.18678849e-05
6.36013562e-05
6.34884821e-05
6.17493591e-05
6.19332045e-05
6.35977425e-05
6.34577172e-05
6.17866661e-05
6.2017427e-05
6.35950659e-05
6.34260483e-05
6.18368797e-05
6.21175109e-05
6.35940272e-05
6.33975749e-05
6.18997308e-05
6.2228475e-05
6.35973356e-05
6.33808679e-05
6.19736455e-05
6.23471363e-05
6.35911689e-05
6.3460991e-05
6.18629734e-05
6.17397298e-05
6.16187501e-05
6.22211402e-05
6.35798445e-05
6.3330268e-05
6.1769776e-05
6.22147707e-05
6.35883387e-05
6.33227258e-05
6.18390899e-05
6.23238592e-05
6.3579813e-05
6.33514522e-05
6.17998658e-05
6.23215546e-05
6.35015473e-05
6.20984283e-05
6.20540807e-05
6.36092186e-05
6.34380644e-05
6.1635807e-05
6.13553187e-05
6.21119682e-05
6.35455569e-05
6.34600341e-05
6.17715776e-05
6.19699892e-05
6.35871624e-05
6.34758053e-05
6.17370861e-05
6.19254394e-05
6.35985726e-05
6.35209162e-05
6.17133102e-05
6.18573572e-05
6.36026055e-05
6.35693913e-05
6.17182287e-05
6.18013224e-05
6.36041661e-05
6.36056057e-05
6.1752746e-05
6.17995737e-05
6.35769814e-05
6.36049268e-05
6.18466326e-05
6.18423837e-05
6.35405675e-05
6.36051127e-05
6.19215634e-05
6.18904338e-05
6.35114106e-05
6.36230435e-05
6.18860819e-05
6.21540314e-05
6.35240256e-05
6.35775179e-05
6.35602643e-05
6.22930951e-05
6.14290149e-05
6.19874983e-05
6.13482263e-05
6.23002906e-05
6.35139117e-05
6.2306125e-05
6.18356953e-05
6.34728305e-05
6.35866491e-05
6.21918311e-05
6.19400685e-05
6.34740805e-05
6.35977949e-05
6.20986956e-05
6.19351562e-05
6.34801676e-05
6.36012984e-05
6.20727102e-05
6.19732315e-05
6.34898161e-05
6.35600468e-05
6.19182961e-05
6.13489634e-05
6.19616938e-05
6.34945331e-05
6.36583187e-05
6.20113868e-05
6.18900775e-05
6.34798942e-05
6.36454215e-05
6.19788156e-05
6.22921617e-05
6.35538919e-05
6.35694025e-05
6.35797188e-05
6.23335597e-05
6.15448505e-05
6.1808291e-05
6.16720432e-05
6.14559532e-05
6.17975431e-05
6.35490572e-05
6.36176558e-05
6.17766789e-05
6.16839713e-05
6.35340734e-05
6.36122559e-05
6.18753854e-05
6.17868185e-05
6.35421182e-05
6.36048447e-05
6.19238262e-05
6.18583286e-05
6.35459695e-05
6.36115375e-05
6.19525627e-05
6.19188415e-05
6.3559816e-05
6.36173307e-05
6.18369464e-05
6.22267796e-05
6.36220511e-05
6.22271515e-05
6.16713064e-05
6.35472829e-05
6.36250452e-05
6.19620498e-05
6.17664597e-05
6.35553868e-05
6.36124561e-05
6.19257957e-05
6.18365507e-05
6.35595127e-05
6.36065005e-05
6.19663932e-05
6.18949026e-05
6.3563881e-05
6.35985486e-05
6.20380654e-05
6.19528322e-05
6.35763777e-05
6.35865333e-05
6.21635625e-05
6.19798674e-05
6.35990121e-05
6.35657683e-05
6.22848648e-05
6.17974754e-05
6.19409254e-05
6.15586141e-05
6.15722484e-05
6.35537016e-05
6.36204584e-05
6.19140567e-05
6.17401415e-05
6.35932839e-05
6.36101532e-05
6.19121195e-05
6.18724459e-05
6.36108009e-05
6.35882465e-05
6.19867719e-05
6.20171196e-05
6.36285423e-05
6.35597897e-05
6.21067835e-05
6.21526557e-05
6.3652329e-05
6.35319077e-05
6.22880334e-05
6.18534092e-05
6.19713983e-05
6.15089122e-05
6.16952335e-05
6.35764882e-05
6.35404444e-05
6.19089889e-05
6.19403832e-05
6.36239675e-05
6.35150479e-05
6.18575548e-05
6.1938196e-05
6.36550681e-05
6.35056378e-05
6.20832468e-05
6.11695533e-05
6.16444345e-05
6.35584066e-05
6.35349523e-05
6.18030844e-05
6.18259048e-05
6.35973956e-05
6.35282331e-05
6.17646243e-05
6.18359885e-05
6.35992951e-05
6.35323286e-05
6.17634111e-05
6.18316659e-05
6.35954865e-05
6.35343667e-05
6.17754178e-05
6.18352828e-05
6.35946356e-05
6.35370523e-05
6.17945108e-05
6.18388951e-05
6.35963701e-05
6.3540164e-05
6.18219682e-05
6.18572572e-05
6.35985206e-05
6.35449015e-05
6.18396212e-05
6.18696374e-05
6.36022231e-05
6.35584363e-05
6.18374472e-05
6.18219479e-05
6.36193266e-05
6.35193515e-05
6.19381454e-05
6.14856312e-05
6.36709627e-05
6.34950582e-05
6.2274668e-05
6.35686349e-05
6.3603996e-05
6.23221383e-05
6.19834065e-05
6.13793664e-05
6.14599363e-05
6.35533902e-05
6.23514641e-05
6.13177228e-05
6.35557665e-05
6.35488458e-05
6.20929284e-05
6.17210079e-05
6.34944067e-05
6.35825561e-05
6.21734654e-05
6.1874652e-05
6.34684693e-05
6.35851882e-05
6.22941677e-05
6.21711207e-05
6.34432739e-05
6.2342386e-05
6.16116758e-05
6.34282786e-05
6.35662233e-05
6.24435195e-05
6.19841108e-05
6.33970215e-05
6.36024071e-05
6.24285069e-05
6.20897488e-05
6.34052105e-05
6.35917256e-05
6.23458815e-05
6.21815769e-05
6.17469782e-05
6.17561171e-05
6.33847973e-05
6.23321917e-05
6.16622984e-05
6.33709104e-05
6.35241128e-05
6.23211642e-05
6.15780119e-05
6.15820636e-05
6.33348974e-05
6.35924581e-05
6.24119728e-05
6.20071951e-05
6.33382984e-05
6.35913228e-05
6.23955275e-05
6.20934059e-05
6.33623936e-05
6.3570126e-05
6.23208137e-05
6.19395266e-05
6.20090925e-05
6.16012139e-05
6.1613953e-05
6.33581049e-05
6.35960006e-05
6.35557164e-05
6.22805319e-05
6.16001432e-05
6.15994093e-05
6.34213921e-05
6.35933037e-05
6.22781708e-05
6.20519952e-05
6.34330727e-05
6.23068412e-05
6.15987655e-05
6.34313641e-05
6.35963948e-05
6.21840435e-05
6.17885929e-05
6.34581372e-05
6.36084662e-05
6.21011941e-05
6.18749686e-05
6.34871952e-05
6.36018299e-05
6.20794907e-05
6.2048916e-05
6.35118695e-05
6.23108439e-05
6.15808497e-05
6.35080591e-05
6.3603237e-05
6.2080167e-05
6.17721363e-05
6.35266014e-05
6.36060644e-05
6.20164671e-05
6.18345197e-05
6.3547203e-05
6.35939978e-05
6.2061006e-05
6.18132e-05
6.35796634e-05
6.35726782e-05
6.22522643e-05
6.1493673e-05
6.15071149e-05
6.35371147e-05
6.36145163e-05
6.21104951e-05
6.18423608e-05
6.3563073e-05
6.36092734e-05
6.21070207e-05
6.19632737e-05
6.3580733e-05
6.35939983e-05
6.221248e-05
6.20201642e-05
6.36103423e-05
6.3562016e-05
6.22883835e-05
6.18737887e-05
6.18858506e-05
6.35776639e-05
6.36010891e-05
6.23304018e-05
6.20388819e-05
6.18771881e-05
6.18777105e-05
6.35790208e-05
6.35885827e-05
6.22941444e-05
6.1865086e-05
6.16254945e-05
6.16291677e-05
6.35688677e-05
6.35734023e-05
6.18997594e-05
6.17383323e-05
6.35827589e-05
6.35637201e-05
6.19859914e-05
6.17052169e-05
6.36059249e-05
6.35416874e-05
6.22088165e-05
6.1428618e-05
6.14741339e-05
6.35384682e-05
6.35949534e-05
6.19979484e-05
6.1729882e-05
6.35592377e-05
6.35841804e-05
6.19129492e-05
6.18386323e-05
6.35734421e-05
6.35735421e-05
6.18742492e-05
6.19417899e-05
6.36004231e-05
6.23387286e-05
6.1401462e-05
6.3570441e-05
6.35753171e-05
6.1912909e-05
6.16268813e-05
6.35638646e-05
6.35832954e-05
6.18119093e-05
6.1679637e-05
6.35587811e-05
6.35932773e-05
6.18053245e-05
6.17059531e-05
6.35602532e-05
6.35992186e-05
6.18207654e-05
6.17601385e-05
6.35699213e-05
6.35997949e-05
6.18444613e-05
6.18519292e-05
6.3585757e-05
6.36002021e-05
6.17923804e-05
6.20999717e-05
6.3624742e-05
6.23021365e-05
6.14565406e-05
6.36090037e-05
6.35997388e-05
6.18506285e-05
6.1733441e-05
6.36152228e-05
6.35934876e-05
6.18172312e-05
6.18561366e-05
6.361253e-05
6.35930983e-05
6.18672964e-05
6.1983741e-05
6.3612066e-05
6.35956329e-05
6.18572383e-05
6.22709053e-05
6.36220913e-05
6.22858884e-05
6.16663173e-05
6.36386478e-05
6.35817224e-05
6.20322656e-05
6.19695642e-05
6.36364786e-05
6.35557569e-05
6.21591413e-05
6.18989614e-05
6.16354241e-05
6.19268972e-05
6.36183619e-05
6.2088698e-05
6.14286853e-05
6.3604703e-05
6.35628506e-05
6.17966883e-05
6.16415626e-05
6.3622458e-05
6.35444953e-05
6.18236507e-05
6.1591729e-05
6.36256699e-05
6.35292483e-05
6.19830166e-05
6.1219546e-05
6.1411665e-05
6.35352277e-05
6.35932042e-05
6.17392837e-05
6.15187968e-05
6.35599095e-05
6.35789074e-05
6.17162039e-05
6.16077663e-05
6.3559268e-05
6.35799674e-05
6.17341934e-05
6.1637034e-05
6.35516303e-05
6.3583232e-05
6.17690266e-05
6.16487764e-05
6.35420994e-05
6.35859572e-05
6.18060477e-05
6.16553849e-05
6.35311463e-05
6.35880828e-05
6.18428751e-05
6.16595495e-05
6.35189457e-05
6.35900782e-05
6.1879419e-05
6.16623494e-05
6.35060969e-05
6.35925525e-05
6.19206768e-05
6.16701622e-05
6.34935086e-05
6.35952452e-05
6.19686356e-05
6.16873143e-05
6.34814296e-05
6.35975414e-05
6.20243624e-05
6.17167915e-05
6.34704732e-05
6.35990661e-05
6.20899063e-05
6.17650896e-05
6.34621912e-05
6.35993901e-05
6.21667341e-05
6.18359964e-05
6.34576419e-05
6.3597074e-05
6.22542385e-05
6.19337597e-05
6.34568043e-05
6.35897376e-05
6.23755555e-05
6.20551194e-05
6.34738607e-05
6.35703091e-05
6.23413723e-05
6.20540831e-05
6.16336945e-05
6.16572289e-05
6.34960106e-05
6.23487306e-05
6.14314852e-05
6.34469219e-05
6.35539483e-05
6.21340536e-05
6.17130062e-05
6.34534432e-05
6.35530601e-05
6.21367748e-05
6.16902834e-05
6.34812564e-05
6.35352294e-05
6.23207374e-05
6.1300918e-05
6.13195059e-05
6.34710808e-05
6.35935384e-05
6.20157354e-05
6.1649608e-05
6.34642972e-05
6.35939544e-05
6.19571114e-05
6.17330552e-05
6.34912024e-05
6.3593595e-05
6.19495984e-05
6.17951989e-05
6.35241948e-05
6.35931967e-05
6.19506057e-05
6.18953121e-05
6.35586126e-05
6.3595506e-05
6.19131588e-05
6.20615748e-05
6.36121363e-05
6.22853335e-05
6.15113065e-05
6.36280256e-05
6.35921047e-05
6.19408995e-05
6.1803233e-05
6.36548118e-05
6.35589474e-05
6.19452784e-05
6.19152821e-05
6.36568545e-05
6.35437821e-05
6.22759354e-05
6.15136799e-05
6.19529139e-05
6.35913267e-05
6.35367884e-05
6.19933678e-05
6.21109163e-05
6.36401059e-05
6.35312004e-05
6.22681468e-05
6.17053508e-05
6.22754103e-05
6.35969623e-05
6.35528153e-05
6.23283826e-05
6.19805007e-05
6.17615566e-05
6.22863359e-05
6.35595173e-05
6.22880769e-05
6.19533731e-05
6.363318e-05
6.34551643e-05
6.20804358e-05
6.23631691e-05
6.36265488e-05
6.34988459e-05
6.21967861e-05
6.19749587e-05
6.17013298e-05
6.22714223e-05
6.35251238e-05
6.22283566e-05
6.19268268e-05
6.3639955e-05
6.34656468e-05
6.19616807e-05
6.12192577e-05
6.21175206e-05
6.35346423e-05
6.34737444e-05
6.18034399e-05
6.2072967e-05
6.35842577e-05
6.34410366e-05
6.18222531e-05
6.21203996e-05
6.35963161e-05
6.34505611e-05
6.18334359e-05
6.21313879e-05
6.35991512e-05
6.34615407e-05
6.18407699e-05
6.21322365e-05
6.36016098e-05
6.34719054e-05
6.18545588e-05
6.2143396e-05
6.3604971e-05
6.34813924e-05
6.18652665e-05
6.21926333e-05
6.36004818e-05
6.35054596e-05
6.17621474e-05
6.23284905e-05
6.35803808e-05
6.22323559e-05
6.17394623e-05
6.36275202e-05
6.3500223e-05
6.18214145e-05
6.1983208e-05
6.36222867e-05
6.35127555e-05
6.16789942e-05
6.23010262e-05
6.36060202e-05
6.21919978e-05
6.15240096e-05
6.36171796e-05
6.35408879e-05
6.17293649e-05
6.1740236e-05
6.3621016e-05
6.3548383e-05
6.17084703e-05
6.18329445e-05
6.36146311e-05
6.3572076e-05
6.16502312e-05
6.20451304e-05
6.36280225e-05
6.22322527e-05
6.13389844e-05
6.35948564e-05
6.3580237e-05
6.17428909e-05
6.15497145e-05
6.35702873e-05
6.35748167e-05
6.17355067e-05
6.16107068e-05
6.35394729e-05
6.3578474e-05
6.18054934e-05
6.16657587e-05
6.35154286e-05
6.35794203e-05
6.18953354e-05
6.17239761e-05
6.34981342e-05
6.357632e-05
6.1992058e-05
6.17745424e-05
6.34873422e-05
6.35676073e-05
6.21061263e-05
6.17633226e-05
6.35029335e-05
6.35388557e-05
6.23456021e-05
6.14869095e-05
6.14969546e-05
6.34949118e-05
6.35314843e-05
6.23413704e-05
6.12929534e-05
6.13138728e-05
6.34390128e-05
6.35651166e-05
6.21105966e-05
6.1669368e-05
6.34296575e-05
6.35743548e-05
6.20834719e-05
6.1795546e-05
6.34268573e-05
6.35593436e-05
6.20641498e-05
6.20446942e-05
6.34305881e-05
6.23608616e-05
6.13920985e-05
6.34242152e-05
6.35355796e-05
6.21112756e-05
6.16094763e-05
6.33884108e-05
6.35637669e-05
6.20532232e-05
6.16162197e-05
6.3373936e-05
6.35629192e-05
6.20666849e-05
6.16229474e-05
6.3359515e-05
6.35626982e-05
6.21008266e-05
6.16308742e-05
6.33444675e-05
6.35645215e-05
6.21395702e-05
6.16402834e-05
6.33295658e-05
6.35670888e-05
6.21763438e-05
6.16520355e-05
6.33161934e-05
6.35697121e-05
6.22167116e-05
6.16650443e-05
6.32880791e-05
6.35718387e-05
6.22640112e-05
6.16789834e-05
6.32528873e-05
6.35732231e-05
6.23069298e-05
6.16954169e-05
6.32284259e-05
6.35744925e-05
6.23405483e-05
6.17195509e-05
6.32237972e-05
6.35766857e-05
6.23675876e-05
6.17580971e-05
6.32464875e-05
6.35816005e-05
6.23902292e-05
6.18186714e-05
6.33089184e-05
6.35883806e-05
6.24085059e-05
6.1936334e-05
6.33565331e-05
6.35788842e-05
6.24272084e-05
6.22531078e-05
6.33742714e-05
6.23408877e-05
6.17580832e-05
6.33737493e-05
6.35628489e-05
6.24415645e-05
6.20110256e-05
6.34077554e-05
6.35743358e-05
6.23614762e-05
6.19906274e-05
6.14983745e-05
6.16988213e-05
6.34985485e-05
6.23523922e-05
6.14926445e-05
6.34308222e-05
6.35687804e-05
6.21181551e-05
6.16956611e-05
6.34284494e-05
6.35860939e-05
6.20943164e-05
6.17878696e-05
6.34441967e-05
6.35856941e-05
6.21335159e-05
6.18781205e-05
6.34590595e-05
6.35781704e-05
6.2171863e-05
6.19519359e-05
6.34830526e-05
6.35661034e-05
6.21706295e-05
6.17593184e-05
6.15616172e-05
6.15641675e-05
6.34598625e-05
6.35701451e-05
6.18837255e-05
6.16059303e-05
6.34708636e-05
6.35813729e-05
6.18390824e-05
6.16271066e-05
6.34736029e-05
6.35807844e-05
6.1848494e-05
6.16708424e-05
6.34850356e-05
6.35777586e-05
6.18642231e-05
6.17232392e-05
6.35067296e-05
6.35744173e-05
6.18780992e-05
6.1772239e-05
6.35361596e-05
6.35666506e-05
6.1885453e-05
6.17261372e-05
6.35709088e-05
6.35528907e-05
6.19217887e-05
6.14233335e-05
6.15646994e-05
6.35454291e-05
6.36053438e-05
6.17630021e-05
6.16404435e-05
6.35743972e-05
6.35891807e-05
6.17525339e-05
6.17035237e-05
6.35841213e-05
6.35842847e-05
6.1775486e-05
6.17459797e-05
6.35827762e-05
6.35865563e-05
6.18131395e-05
6.17880455e-05
6.35782288e-05
6.3592021e-05
6.18441592e-05
6.18510204e-05
6.35863108e-05
6.36033946e-05
6.17672719e-05
6.21203901e-05
6.36221353e-05
6.21733657e-05
6.15455142e-05
6.35795311e-05
6.3612745e-05
6.18152828e-05
6.16456191e-05
6.361332e-05
6.35973628e-05
6.17756755e-05
6.17317873e-05
6.36256866e-05
6.35788682e-05
6.1807371e-05
6.18348417e-05
6.36325299e-05
6.35600738e-05
6.18528636e-05
6.19800446e-05
6.36313196e-05
6.35556075e-05
6.17936996e-05
6.2251613e-05
6.3593432e-05
6.22410636e-05
6.18227535e-05
6.36929164e-05
6.35369642e-05
6.19117369e-05
6.11143336e-05
6.20805402e-05
6.35949806e-05
6.35427779e-05
6.15507053e-05
6.22327526e-05
6.35310851e-05
6.19116879e-05
6.17593509e-05
6.36963696e-05
6.34596596e-05
6.16758499e-05
6.19381562e-05
6.37222525e-05
6.34538247e-05
6.16461775e-05
6.20426857e-05
6.37410134e-05
6.34921283e-05
6.17071215e-05
6.20871997e-05
6.37344621e-05
6.36007331e-05
6.14383965e-05
6.09599462e-05
6.20699591e-05
6.37269629e-05
6.36452036e-05
6.14278844e-05
6.17726424e-05
6.38041599e-05
6.36812421e-05
6.14486711e-05
6.16733683e-05
6.38160381e-05
6.37458351e-05
6.10963928e-05
6.03376043e-05
6.14837075e-05
6.38211774e-05
6.39370282e-05
6.07250046e-05
6.11418476e-05
6.38942344e-05
6.39389832e-05
6.38815858e-05
6.39644175e-05
6.38384196e-05
6.39834717e-05
6.38692247e-05
6.16289689e-05
6.13476187e-05
6.40809675e-05
6.40233675e-05
6.1054444e-05
6.12104034e-05
6.41190061e-05
6.4106545e-05
6.40774933e-05
6.41399999e-05
6.40920888e-05
6.41505224e-05
6.41290976e-05
6.41732405e-05
6.41677096e-05
6.42000249e-05
6.42029377e-05
6.42284179e-05
6.42361712e-05
6.42585179e-05
6.42700085e-05
6.429036e-05
6.43042809e-05
6.43252586e-05
6.43381796e-05
6.43647314e-05
6.43698851e-05
6.44095789e-05
6.43944715e-05
6.44406157e-05
6.16425767e-05
5.99556956e-05
5.90352677e-05
6.11999109e-05
5.91862767e-05
6.05494594e-05
5.98155695e-05
6.02697497e-05
6.0392349e-05
6.06613597e-05
6.00737388e-05
5.97360719e-05
5.97306135e-05
5.96453671e-05
6.03756556e-05
6.00531079e-05
6.06801837e-05
5.99119581e-05
6.01409254e-05
6.0456931e-05
5.95952613e-05
6.1460815e-05
5.9733511e-05
6.00566017e-05
6.01457495e-05
6.02800199e-05
5.99189091e-05
6.0179952e-05
6.13344296e-05
6.07927265e-05
6.53225317e-05
6.53018783e-05
6.52065538e-05
6.54139701e-05
6.52828547e-05
6.52152183e-05
6.49356134e-05
6.53397095e-05
6.63725035e-05
6.64210765e-05
6.55655438e-05
6.57468095e-05
6.65167016e-05
6.61733463e-05
6.61285209e-05
6.60668967e-05
6.63513551e-05
6.61672352e-05
6.63448481e-05
6.62322075e-05
6.71410944e-05
6.55099222e-05
6.59467628e-05
6.59952119e-05
6.69293707e-05
6.70302343e-05
6.66178698e-05
6.77687461e-05
6.83168199e-05
6.72553147e-05
6.7988325e-05
6.86331633e-05
6.94719961e-05
6.90489772e-05
6.96489285e-05
6.98054091e-05
7.01650375e-05
6.92842684e-05
6.93420892e-05
7.01055792e-05
6.74048338e-05
6.87204279e-05
6.81419248e-05
6.96255699e-05
6.88523989e-05
7.02563818e-05
6.94809687e-05
7.10140945e-05
6.72119985e-05
6.71228673e-05
6.68788692e-05
6.84486642e-05
7.12239864e-05
6.98558375e-05
6.58679429e-05
6.97518218e-05
7.03808068e-05
7.18874198e-05
6.76828804e-05
6.99561758e-05
7.02890606e-05
7.22831786e-05
7.45548032e-05
7.27553512e-05
7.35387628e-05
7.51422829e-05
7.56528817e-05
7.62127026e-05
7.80299541e-05
7.8866667e-05
7.95688475e-05
8.16879351e-05
8.2161365e-05
8.41107821e-05
8.44464939e-05
8.64230645e-05
8.41482792e-05
8.53020851e-05
8.5543586e-05
8.68150708e-05
8.73908977e-05
8.8920083e-05
8.926211e-05
8.95557789e-05
8.98764776e-05
9.03296268e-05
9.08221288e-05
9.15240589e-05
9.20236333e-05
9.26060049e-05
9.30847699e-05
9.36298573e-05
9.41094733e-05
9.46526049e-05
9.51007103e-05
9.55431223e-05
9.59610788e-05
9.64754538e-05
9.69420274e-05
9.75311094e-05
9.8130607e-05
9.90486883e-05
9.97941188e-05
0.000100652158
0.000101284055
0.000102038405
0.000102606863
0.000103260426
0.000103715222
0.000104235018
0.000104710399
0.000105253021
0.000105810716
0.00010638934
0.000107062985
0.000107733178
0.000108504764
0.00010918579
0.000109985444
0.000110638587
0.000111421435
0.000112036922
0.000112794439
0.000113377918
0.000114106774
0.000114658616
0.000115340301
0.000115854991
0.000116516936
0.000117039007
0.000117736548
0.000118275276
0.000118976223
0.000119508005
0.00012020566
0.000120733285
0.000121424242
0.000121948074
0.000122629205
0.000123148402
0.000123818108
0.000124332125
0.000124988519
0.000125496464
0.000126139039
0.000126640675
0.00012726833
0.000127762885
0.000128376107
0.000128864254
0.000129462831
0.000129943775
0.00013052741
0.000131001144
0.000131569878
0.000132036056
0.000132589841
0.00013304886
0.000133586437
0.000134036003
0.000134558078
0.000134999304
0.000135506345
0.000135940763
0.00013643502
0.00013686413
0.000137346994
0.000137776903
0.000138255812
0.000138681169
0.000139149728
0.000139570456
0.000140028903
0.000140445239
0.000140893588
0.000141305912
0.000141744539
0.000142152871
0.000142581633
0.000142985912
0.000143404534
0.000143804738
0.000144213189
0.00014460919
0.000145007156
0.000145398813
0.000145785961
0.00014618256
0.000146574925
0.000146964328
0.000147343381
0.000147724597
0.000148090845
0.000148464503
0.000148818725
0.000149186247
0.000149529293
0.000149891373
0.000150223747
0.000150581038
0.00015090304
0.000151255557
0.000151567015
0.00015191479
0.00015221562
0.000152558678
0.000152848765
0.000153187162
0.000153466338
0.000153800004
0.000154068028
0.000154396813
0.000154653398
0.000154977024
0.000155222402
0.000155541109
0.000155773765
0.000156087549
0.000156307368
0.000156618988
0.000156822902
0.000157131008
0.000157319534
0.000157631138
0.000157795748
0.000158105788
0.000158252062
0.000158580909
0.000158689814
0.000159021055
0.000159109796
0.000159481004
0.000159506883
0.00015989058
0.000159887854
0.00016048722
0.000160239912
0.000159916198
0.000160576007
0.000163105947
0.000160885352
0.000160016177
0.000161209232
0.00016472363
0.000161485751
0.000160654067
0.000161931002
0.000166184874
0.000161834476
0.000161120183
0.000163723075
0.000167633427
0.000161506343
0.000161355272
0.000165952048
0.00017023701
0.000161788206
0.000161706966
0.000167703773
0.000170732585
0.00016197125
0.000162173063
0.000170786531
0.000171160135
0.000162516892
0.000162740129
0.00017123553
0.00017175008
0.000162799962
0.000163263167
0.000171844081
0.00017262049
0.00016322766
0.000163874802
0.000172765166
0.000173428748
0.000166016292
0.000164468338
0.000172159801
0.000173759625
0.000169104963
0.000164874015
0.000172169871
0.000174053209
0.00017229818
0.000165201142
0.000172631864
0.000174204359
0.000172719924
0.000165561799
0.000173028488
0.000174652013
0.000173268428
0.00016735282
0.000173357727
0.000175053521
0.000173748648
0.000169492379
0.000173718808
0.000174505864
0.000174161325
0.000171114445
0.000174098054
0.000174168267
0.000174466358
0.000173762684
0.000174513782
0.000174408503
0.000174787881
0.000174613164
0.00017493639
0.000174757981
0.000175159432
0.000174910258
0.000175321058
0.000175047707
0.000175493754
0.000175188819
0.000175635455
0.000175339454
0.000175760106
0.000175478421
0.000175870312
0.000175602353
0.00017597183
0.000175712622
0.000176064053
0.000175811178
0.000176149259
0.000175908328
0.000176227857
0.00017601603
0.000176300813
0.000176124519
0.000176368686
0.00017622984
0.000176432115
0.000176331524
0.000176491612
0.00017643003
0.000176547754
0.000176525771
0.000176601144
0.000176619088
0.000176675117
0.000176710215
0.000176762843
0.000176799356
0.000176848851
0.000176886668
0.00017693326
0.000176972228
0.000177016104
0.000177056047
0.000177097351
0.000177138164
0.000177176964
0.00017721837
0.000177254833
0.00017729703
0.000177331057
0.000177353488
0.000177405354
0.00017738545
0.000177478571
0.000177370914
0.000177534111
0.000177426031
0.000177556069
0.000177345158
0.000177536862
0.000177475839
0.000177584603
0.000177264456
0.00017751209
0.000177542875
0.000177629163
0.000177163613
0.000177459457
0.00017759402
0.000177682052
0.000177146115
0.000177404486
0.000177547309
0.000177713463
0.000177323444
0.000177413147
0.000177490953
0.00017766602
0.000177524594
0.000177574334
0.000177621479
0.000177675922
0.000177715347
0.000177764923
0.000177810313
0.000177859354
0.000177904739
0.000177952571
0.000177999078
0.00017804672
0.000178093507
0.000178141128
0.000178188523
0.000178236472
0.000178284726
0.000178333173
0.000178382833
0.000178431863
0.000178483569
0.00017853309
0.000178587552
0.000178637304
0.000178695183
0.00017874473
0.000178806504
0.000178855288
0.000178921073
0.000178967331
0.000179037873
0.000179080606
0.000179153935
0.000179194111
0.000179268275
0.000179306294
0.000179378676
0.000179415709
0.000179483194
0.000179521336
0.000179580718
0.000179622856
0.00017967143
0.000179717833
0.000179756718
0.000179809057
0.000179839482
0.000179899688
0.000179922435
0.000179991119
0.000180005381
0.00018008467
0.000180090549
0.000180174698
0.000180179544
0.000180267274
0.000180257232
0.000180361668
0.000180353346
0.000180457336
0.000180426586
0.000180546239
0.000180524295
0.000180636967
0.000180590165
0.000180727074
0.000180685796
0.000180817334
0.00018074224
0.000180900473
0.000180840607
0.000180986062
0.0001808823
0.000181070087
0.000180990713
0.000181156645
0.000181009905
0.000181238833
0.000181139052
0.000181321978
0.000181123374
0.000181399939
0.000181291501
0.000181486039
0.000181220975
0.000181561271
0.000181453319
0.000181650608
0.000181287391
0.000181719814
0.000181637026
0.000181816029
0.000181296718
0.000181873527
0.000181864153
0.000181984031
0.000181205489
0.000182019141
0.000182155152
0.000182160409
0.000180827883
0.000182156626
0.000182389244
0.000182333855
0.000180054875
0.000182298553
0.000182600251
0.000182498964
0.00017968738
0.000182448983
0.000182759363
0.000182650775
0.000179759131
0.000182605553
0.00018290753
0.00018279738
0.00017987294
0.000182761963
0.000183055146
0.000182942629
0.000179986287
0.000182917383
0.000183203668
0.000183087614
0.000180101786
0.000183070947
0.00018335333
0.000183232314
0.00018022207
0.000183224694
0.000183504049
0.000183380231
0.00018033964
0.000183370678
0.000183656723
0.000183533937
0.000180456766
0.000183504698
0.000183810702
0.000183673743
0.000180572492
0.00018363981
0.000183960438
0.000183809969
0.000180687755
0.000183767397
0.000184107893
0.000183941239
0.000180863631
0.000183882677
0.000184251688
0.000184065937
0.000181044984
0.000183986503
0.000184392928
0.000184182855
0.000181220007
0.000184081634
0.00018453166
0.000184286706
0.000181387087
0.000184170524
0.000184669336
0.000184386814
0.000181550899
0.000184250266
0.000184809982
0.000184496049
0.000181716563
0.000184329939
0.000184957336
0.000184594151
0.000181886608
0.000184432756
0.000185112843
0.000184620333
0.000182058497
0.000184599307
0.000185270482
0.00018449113
0.00018221012
0.000184878112
0.00018542355
0.000184078334
0.000182322461
0.000185218073
0.000185585186
0.000183570717
0.0001824343
0.000185532824
0.000185731261
0.000183314845
0.000182550672
0.000185751749
0.000185861805
0.00018339654
0.000182708721
0.00018589955
0.000185837806
0.000183467243
0.000183142092
0.000186067671
0.000185441219
0.000183569555
0.000184666643
0.000186196991
0.000183914279
0.000183672365
0.000185748707
0.000186335697
0.000183650724
0.000183832959
0.000186382256
0.000186499378
0.000183755749
0.000183980005
0.000186589054
0.000186636099
0.000183903396
0.000184109248
0.000186750419
0.000186774518
0.000184041573
0.000184245985
0.000186886203
0.00018690848
0.000184177995
0.000184381396
0.00018701459
0.000187039324
0.000184314136
0.000184514827
0.000187139257
0.000187166407
0.000184451307
0.000184643768
0.000187262948
0.000187289884
0.000184588542
0.000184769457
0.000187385045
0.000187410313
0.000184725031
0.000184891951
0.000187504602
0.000187528146
0.000184858747
0.000185013437
0.000187621154
0.000187644622
0.000184987765
0.000185134949
0.000187734666
0.000187759722
0.000185103508
0.000185255466
0.000187845567
0.000187871498
0.00018521592
0.000185371838
0.000187955011
0.000187979462
0.000185327133
0.000185484137
0.000188061513
0.000188085026
0.000185435593
0.000185592039
0.000188164561
0.000188188511
0.00018554082
0.000185689902
0.000188264685
0.000188288936
0.000185642612
0.000185791386
0.00018835661
0.00018838584
0.000185739554
0.000185886487
0.000188450556
0.000188482633
0.000185825482
0.00018597679
0.000188542256
0.0001885715
0.000185917515
0.00018606198
0.000188631698
0.000188659785
0.00018600045
0.000186139961
0.00018872186
0.000188745052
0.000186081358
0.000186220611
0.000188800957
0.000188824387
0.000186165873
0.000186289038
0.000188885778
0.000188903449
0.000186238258
0.000186363455
0.000188962849
0.000188978486
0.000186306553
0.000186435306
0.000189036988
0.000189050745
0.000186371341
0.000186503496
0.000189109026
0.000189121142
0.00018643231
0.000186566759
0.000189179628
0.000189188815
0.000186489368
0.000186627744
0.00018924532
0.000189251988
0.000186546163
0.000186686494
0.000189307171
0.000189311933
0.000186601016
0.000186742278
0.000189365821
0.000189368922
0.000186653664
0.000186795168
0.000189421358
0.000189423097
0.000186704032
0.000186845303
0.000189473668
0.00018947458
0.000186752003
0.000186892804
0.000189522757
0.000189523475
0.00018679758
0.000186937755
0.000189568728
0.00018956985
0.000186840815
0.00018698022
0.000189611763
0.000189613802
0.000186881831
0.000187020136
0.000189652103
0.000189655297
0.000186920816
0.000187057558
0.000189689799
0.000189694242
0.000186957807
0.000187092521
0.000189720756
0.00018973072
0.000186992711
0.000187125225
0.000189750112
0.000189764944
0.00018702529
0.000187156241
0.000189777459
0.000189795575
0.000187056665
0.000187186082
0.000189806273
0.000189825233
0.000187083686
0.000187211328
0.000189825533
0.000189850845
0.000187107289
0.000187237567
0.000189850177
0.000189874755
0.000187132055
0.000187262177
0.000189870182
0.000189894727
0.000187153427
0.000187284723
0.00018988791
0.00018991339
0.000187172713
0.000187305949
0.000189904001
0.000189930887
0.000187190134
0.000187325854
0.000189918577
0.000189947124
0.000187205749
0.000187344231
0.000189931833
0.000189961929
0.000187219625
0.000187361058
0.000189943703
0.000189975493
0.000187231665
0.000187376973
0.000189954688
0.000189985686
0.000187242956
0.000187390552
0.000189960219
0.00018999694
0.000187250182
0.00018740477
0.00018997196
0.000190008325
0.000187259384
0.00018741651
0.000189976427
0.000190017718
0.000187264617
0.000187427921
0.000189986763
0.000190026317
0.000187272491
0.000187436342
0.000189990681
0.000190033369
0.000187276911
0.000187444647
0.000190001241
0.000190042266
0.000187284807
0.000187451666
0.000190009043
0.000190047399
0.000187290553
0.000187456492
0.000190015833
0.00019005134
0.000187295629
0.00018746029
0.000190022106
0.000190054645
0.000187299868
0.000187463663
0.000190027638
0.000190057693
0.000187302838
0.000187467237
0.000190032058
0.00019006086
0.000187304051
0.000187471562
0.000190034963
0.000190064403
0.000187303202
0.000187476559
0.000190036273
0.000190067839
0.000187300943
0.000187480988
0.000190036891
0.000190070106
0.000187298733
0.00018748381
0.000190037646
0.000190071002
0.000187297255
0.000187484806
0.000190038521
0.00019007094
0.000187296207
0.000187484314
0.000190039104
0.000190069947
0.000187295471
0.000187482037
0.000190039783
0.000190067707
0.000187295359
0.000187478571
0.000190040371
0.000190065222
0.000187294711
0.000187475416
0.000190039512
0.000190063161
0.000187292967
0.000187472597
0.000190035155
0.000190061756
0.000187290124
0.000187471085
0.000190032605
0.000190060059
0.000187281675
0.000187480052
0.000190026507
0.000190059929
0.000187260677
0.000187478861
0.000190023424
0.000190050032
0.000187265379
0.000187471955
0.000190014291
0.000190048863
0.000187254953