/*--------------------------------*- C++ -*----------------------------------*\
| =========                 |                                                 |
| \\      /  F ield         | OpenFOAM: The Open Source CFD Toolbox           |
|  \\    /   O peration     | Version:  2306                                  |
|   \\  /    A nd           | Website:  www.openfoam.com                      |
|    \\/     M anipulation  |                                                 |
\*---------------------------------------------------------------------------*/
FoamFile
{
    version     2.0;
    format      ascii;
    arch        "LSB;label=32;scalar=64";
    class       volScalarField;
    location    "0.00124";
    object      prefDh_T;
}
// * * * * * * * * * * * * * * * * * * * * * * * * * * * * * * * * * * * * * //

dimensions      [1 1 -3 -1 0 0 0];

internalField   nonuniform List<scalar> 
530
(
-0.000955537981
-0.00064562852
-0.000592356821
-0.000591298972
-0.000591198208
-0.00059119476
-0.00059119451
-0.000591194501
-0.000591194501
-0.000591194501
-0.000591194501
-0.000591194501
-0.000591194501
-0.000591194501
-0.000591194501
-0.000591194501
-0.000591194501
-0.000591194501
-0.000591194501
-0.000591194501
-0.000591194501
-0.000591194501
-0.000591194501
-0.000591194501
-0.000591194501
-0.000591194501
-0.000591194501
-0.000591194501
-0.000591194501
-0.000591194501
-0.000591194501
-0.000591194501
-0.000591194501
-0.000591194501
-0.000591194501
-0.000591194501
-0.000591194501
-0.000591194501
-0.000591194501
-0.000591194501
-0.000591194501
-0.000591194501
-0.000591194501
-0.000591194501
-0.000591194501
-0.000591194501
-0.000591194501
-0.000591194501
-0.000591194501
-0.000591194501
-0.000591194501
-0.000591194501
-0.000591194501
-0.000591194501
-0.000591194501
-0.000591194501
-0.000591194501
-0.000591194501
-0.000591194501
-0.000591194501
-0.000591194501
-0.000591194502
-0.000591194503
-0.000591194511
-0.000591194529
-0.000591194597
-0.00059119466
-0.000591195237
-0.000591195357
-0.000591198724
-0.000591199618
-0.000591213793
-0.000591219335
-0.000591264447
-0.000591296631
-0.000591398111
-0.000591408774
-0.000591563116
-0.000591560515
-0.000592895868
-0.000593353549
-0.000591510448
-0.000590219856
-0.000594791026
-0.000600125215
-0.000587724175
-0.000575741757
-0.000589597423
-0.000744632156
-0.000755655071
-0.000608266863
-0.000556254168
-0.00050771816
-0.000586770859
-0.000749626428
-0.000747273608
-0.000594353
-0.000464984655
-0.000472786444
-0.00074607598
-0.000726307721
-0.000740231668
-0.000731654559
-0.000566269515
-0.000489402072
-0.000541419853
-0.000468483039
-0.000557210644
-0.000745223008
-0.000747812359
-0.000743869365
-0.000748315349
-0.000577694263
-0.000503257823
-0.000650818916
-0.000744199215
-0.000614729939
-0.000544331506
-0.000515733401
-0.000521634081
-0.000434497875
-0.000535742726
-0.000744696487
-0.000752441694
-0.000741463758
-0.000754932662
-0.000738183031
-0.000576886147
-0.000491199214
-0.000584613904
-0.000748002405
-0.000750078352
-0.000591795452
-0.00054606817
-0.000567955941
-0.000502236389
-0.000519561199
-0.000751667677
-0.000748243174
-0.000576853803
-0.000573274288
-0.000752588538
-0.000744882113
-0.000561950487
-0.000574197051
-0.000747417153
-0.000748164074
-0.000731563439
-0.000596564648
-0.000572518764
-0.00057307927
-0.00057984578
-0.000529706165
-0.000550667359
-0.000751734236
-0.000739465104
-0.000572955772
-0.000581895933
-0.000751160909
-0.000740984798
-0.000622217896
-0.000503360759
-0.000501515187
-0.000677065603
-0.000737806377
-0.000558185028
-0.000555027289
-0.000753226344
-0.000733670906
-0.000549047859
-0.000565089221
-0.000754876102
-0.000739221614
-0.000591335303
-0.000489239133
-0.000534667192
-0.000753944574
-0.000738204501
-0.000587274864
-0.00055393594
-0.000549352291
-0.000513070582
-0.000598561974
-0.000740656271
-0.000587751128
-0.000553915706
-0.000756246182
-0.000729877408
-0.000549975995
-0.000569755277
-0.000755535282
-0.000730970638
-0.000586415476
-0.000468931812
-0.000550656724
-0.000746152985
-0.000728404602
-0.000544844265
-0.000573249711
-0.000747482718
-0.00073511973
-0.00058866623
-0.000482217026
-0.000543660705
-0.000752158135
-0.000741019481
-0.000589130922
-0.000520020263
-0.000517642949
-0.00059235842
-0.00074327435
-0.000576262822
-0.00054736742
-0.000755743399
-0.000730682563
-0.000535814081
-0.000565877036
-0.000754376686
-0.000730616568
-0.000543926974
-0.000584415419
-0.00075499317
-0.000743031331
-0.000587443736
-0.000544193241
-0.000552136806
-0.000592966254
-0.000746406699
-0.000742170784
-0.000599361168
-0.000540611064
-0.00053087953
-0.000572725185
-0.000750215756
-0.000730905014
-0.000574835995
-0.000604906962
-0.000753077694
-0.000730340359
-0.000563640473
-0.000595753387
-0.000757682287
-0.000741694611
-0.00058348648
-0.000508584873
-0.00052222898
-0.000618744303
-0.000736635176
-0.000551905071
-0.00056453667
-0.000754093716
-0.00072794637
-0.000543133118
-0.000579058238
-0.000756411169
-0.000735129127
-0.000585909376
-0.000469653024
-0.000565755853
-0.000746793415
-0.000729786318
-0.00053426893
-0.000577886681
-0.000752632343
-0.000735140686
-0.000585374294
-0.000479840022
-0.000566146954
-0.000746675823
-0.000734042862
-0.000548753687
-0.000591587947
-0.000749392166
-0.000737495539
-0.000599507113
-0.000537050911
-0.00050065815
-0.00056582958
-0.000748619705
-0.000732668853
-0.000547979093
-0.000562719108
-0.000633296621
-0.000740824035
-0.000731633185
-0.000586571282
-0.000465104293
-0.00056328718
-0.000744819138
-0.000747749974
-0.000736207348
-0.000590833008
-0.00051802823
-0.000504525558
-0.000560404691
-0.000749190044
-0.000735450616
-0.000594502792
-0.000466161506
-0.000568423164
-0.000743440638
-0.00073324287
-0.000537537949
-0.000569247507
-0.000750149768
-0.000733642524
-0.000592055528
-0.000454196392
-0.000570586196
-0.000744583897
-0.000737246521
-0.000520338477
-0.000560370972
-0.000747141148
-0.000738532156
-0.000596286681
-0.000485506003
-0.000574276531
-0.000748127772
-0.000744560282
-0.000588384707
-0.00048792624
-0.000574584905
-0.000747420046
-0.000747247337
-0.000594372187
-0.000536539084
-0.000532143707
-0.000594934636
-0.000751168333
-0.000744361831
-0.000749372013
-0.000742700905
-0.000522199929
-0.000452322997
-0.000588634729
-0.000742491531
-0.000579056184
-0.000545825774
-0.00075562402
-0.000740762332
-0.00054242534
-0.000566227158
-0.000757955456
-0.000742937448
-0.000587265068
-0.000522115149
-0.000539695896
-0.000617654615
-0.000745345809
-0.000565433103
-0.00056971513
-0.000748917048
-0.000741867866
-0.000545209257
-0.000584054548
-0.000754802221
-0.000740504004
-0.000590210351
-0.000487866793
-0.000583182545
-0.000750433304
-0.000745707683
-0.000590708837
-0.000548394588
-0.000545233306
-0.000544769234
-0.000550177823
-0.000533009805
-0.000590589288
-0.000745467486
-0.000750021408
-0.000748965613
-0.000591161787
-0.000596869378
-0.000755429002
-0.000745999531
-0.000588366321
-0.000551828778
-0.000547056411
-0.000547261595
-0.000552031944
-0.000545352455
-0.000590169223
-0.000746328573
-0.000750477998
-0.000585451332
-0.000600732869
-0.000749919623
-0.000742248521
-0.000608441614
-0.000490695641
-0.000532398218
-0.000750405139
-0.000749716631
-0.000530901276
-0.000580954874
-0.000748041812
-0.000746169099
-0.000592389498
-0.00053653615
-0.000531990697
-0.000575601442
-0.000751223774
-0.000761779708
-0.000502900897
-0.000585824753
-0.000753126548
-0.000581334628
-0.000572481414
-0.000757038016
-0.000751568767
-0.000585423139
-0.000526171356
-0.000585173901
-0.000748799758
-0.000748744133
-0.000748884911
-0.000748960383
-0.000571667012
-0.00053027357
-0.000559437681
-0.000526726478
-0.000548854579
-0.000505441072
-0.000591841559
-0.000744201987
-0.000752081331
-0.000752520479
-0.000592848618
-0.000600567667
-0.000751266214
-0.000746742235
-0.000592341944
-0.000543322582
-0.000535067
-0.000569316905
-0.000747804432
-0.000752830675
-0.000537893859
-0.000592521373
-0.000747738321
-0.000742702297
-0.00060980084
-0.000526166576
-0.00052445451
-0.000602591337
-0.000742145169
-0.00074784629
-0.000524272339
-0.000470409371
-0.000595095642
-0.000740522285
-0.000749130076
-0.000511671232
-0.000486514177
-0.000596599612
-0.000742570769
-0.00074790654
-0.000512089966
-0.000491563652
-0.000592589027
-0.000739201052
-0.000755551067
-0.000513292584
-0.000503075362
-0.000516183186
-0.000588624384
-0.000742501044
-0.000750756944
-0.00075404671
-0.000593503174
-0.000598890639
-0.000749279386
-0.000751431739
-0.000573069174
-0.000540396748
-0.000531369611
-0.000590131146
-0.00075286094
-0.000584964156
-0.000548539002
-0.000750506339
-0.000754224614
-0.000534201778
-0.000542324641
-0.000749235936
-0.00075282884
-0.00055054131
-0.000585051372
-0.000747678314
-0.000748641187
-0.000562297472
-0.000515662582
-0.000532830828
-0.000627797639
-0.000750442506
-0.0005633507
-0.000558034502
-0.000746738368
-0.000751833185
-0.000555107005
-0.000591336116
-0.000748498555
-0.000743759636
-0.000552331924
-0.000461557701
-0.000554746925
-0.000744185734
-0.000753429388
-0.000513026081
-0.000544620445
-0.000744183998
-0.000754242736
-0.000553158246
-0.000600554049
-0.000746290417
-0.000747489657
-0.00055043231
-0.000506009059
-0.00052946076
-0.000643595234
-0.000749168858
-0.000548655421
-0.000552953512
-0.000746237434
-0.000749244532
-0.000534360136
-0.000541572012
-0.000750077514
)
;

boundaryField
{
    closed
    {
        type            calculated;
        value           uniform -0.00450722095;
    }
    open
    {
        type            calculated;
        value           nonuniform List<scalar> 0();
    }
    sides
    {
        type            empty;
    }
    procBoundary0to1
    {
        type            processor;
        value           uniform -0.000750464564;
    }
}


// ************************************************************************* //
