/*--------------------------------*- C++ -*----------------------------------*\
| =========                 |                                                 |
| \\      /  F ield         | OpenFOAM: The Open Source CFD Toolbox           |
|  \\    /   O peration     | Version:  2306                                  |
|   \\  /    A nd           | Website:  www.openfoam.com                      |
|    \\/     M anipulation  |                                                 |
\*---------------------------------------------------------------------------*/
FoamFile
{
    version     2.0;
    format      ascii;
    arch        "LSB;label=32;scalar=64";
    class       volScalarField;
    location    "0.00124";
    object      prefDZ_H;
}
// * * * * * * * * * * * * * * * * * * * * * * * * * * * * * * * * * * * * * //

dimensions      [1 -1 -1 0 0 0 0];

internalField   nonuniform List<scalar> 
530
(
0.000112676296
0.000108542913
0.000107854509
0.000107841392
0.000107840142
0.000107840099
0.000107840095
0.000107840095
0.000107840095
0.000107840095
0.000107840095
0.000107840095
0.000107840095
0.000107840095
0.000107840095
0.000107840095
0.000107840095
0.000107840095
0.000107840095
0.000107840095
0.000107840095
0.000107840095
0.000107840095
0.000107840095
0.000107840095
0.000107840095
0.000107840095
0.000107840095
0.000107840095
0.000107840095
0.000107840095
0.000107840095
0.000107840095
0.000107840095
0.000107840095
0.000107840095
0.000107840095
0.000107840095
0.000107840095
0.000107840095
0.000107840095
0.000107840095
0.000107840095
0.000107840095
0.000107840095
0.000107840095
0.000107840095
0.000107840095
0.000107840095
0.000107840095
0.000107840095
0.000107840095
0.000107840095
0.000107840095
0.000107840095
0.000107840095
0.000107840095
0.000107840095
0.000107840095
0.000107840095
0.000107840095
0.000107840095
0.000107840095
0.000107840095
0.000107840096
0.000107840097
0.000107840097
0.000107840105
0.000107840106
0.000107840149
0.00010784016
0.00010784034
0.000107840406
0.000107840973
0.000107841408
0.00010784272
0.000107842774
0.000107843967
0.000107843831
0.000107865585
0.000107873636
0.000107834286
0.000107805587
0.000107893905
0.000107984404
0.000107754088
0.000107425822
0.000107703281
0.000110283726
0.000110513609
0.000108116775
0.000107146595
0.000106356691
0.000107692574
0.000110394861
0.000110367264
0.000107868252
0.000105681983
0.000105794338
0.000110307101
0.000109976808
0.000110236907
0.000110053517
0.000107277782
0.000106037525
0.000106891505
0.000105721835
0.000107145232
0.0001103152
0.000110380745
0.000110306612
0.000110379707
0.000107453926
0.0001062932
0.000108776816
0.000110317861
0.000108220273
0.000106941568
0.000106467875
0.000106588206
0.000105195559
0.000106816873
0.000110290631
0.000110463025
0.000110236872
0.000110510166
0.000110189983
0.000107477653
0.000106090804
0.000107668893
0.000110390222
0.000110426678
0.000107777344
0.000106966969
0.000107315122
0.000106275609
0.000106558567
0.000110440543
0.000110382062
0.000107458765
0.000107408159
0.00011046297
0.00011032441
0.000107204922
0.000107424867
0.000110307538
0.000110398714
0.000110072873
0.000107923075
0.000107370023
0.000107390771
0.000107495626
0.000106710095
0.000107043634
0.000110446472
0.000110226357
0.000107395649
0.000107532934
0.000110423663
0.000110265733
0.000108343706
0.00010628312
0.000106264093
0.000109167306
0.000110188672
0.000107149346
0.000107105954
0.000110472434
0.000110114861
0.000107025395
0.000107262041
0.000110499283
0.000110223462
0.000107836771
0.000106072789
0.000106792158
0.000110483293
0.00011020556
0.000107710573
0.00010708047
0.000107026939
0.000106443103
0.000107958411
0.000110236043
0.000107635006
0.000107087022
0.000110528989
0.000110041784
0.000107044443
0.000107327783
0.000110517467
0.000110077003
0.000107722645
0.000105731921
0.0001070483
0.000110319315
0.000110011788
0.000106934652
0.000107381843
0.000110381741
0.000110146741
0.00010775416
0.000105957357
0.000106939737
0.000110453726
0.000110242318
0.000107719945
0.000106555308
0.000106524754
0.000107842912
0.000110273545
0.000107452008
0.000106989239
0.000110518677
0.000110038764
0.000106821961
0.000107275192
0.000110489765
0.000110040733
0.000106946993
0.000107575652
0.000110505854
0.000110290972
0.000107763838
0.00010694313
0.000107069393
0.000107856741
0.000110370302
0.000110271433
0.000107831341
0.000106880757
0.000106729055
0.000107394739
0.000110422886
0.000110048803
0.000107429602
0.000107887462
0.00011047776
0.000110040726
0.000107262508
0.000107752852
0.00011055891
0.000110256267
0.000107648205
0.000106376175
0.000106604929
0.000108287304
0.000110145428
0.000107064835
0.000107253551
0.000110490551
0.000109983727
0.00010694066
0.000107474405
0.000110535433
0.000110135292
0.000107675855
0.000105754282
0.000107288438
0.000110352329
0.000110014166
0.000106786358
0.00010745347
0.000110469728
0.000110139927
0.000107688585
0.000105914369
0.000107296114
0.000110354337
0.00011009124
0.00010701362
0.000107675767
0.000110419287
0.000110186199
0.000107817905
0.000106815801
0.000106254449
0.0001072803
0.000110386871
0.000110071637
0.000106988136
0.000107217118
0.000108509215
0.000110278318
0.000110064923
0.000107599
0.000105676498
0.000107247439
0.000110334862
0.00011038747
0.000110163252
0.000107804677
0.000106504855
0.000106314315
0.000107181304
0.000110409021
0.000110136706
0.000107768645
0.000105693417
0.000107322357
0.000110297747
0.00011008209
0.000106834154
0.00010730907
0.000110431873
0.000110109505
0.000107736016
0.000105504953
0.000107361733
0.000110310134
0.000110151354
0.000106560687
0.000107176479
0.000110379449
0.000110196211
0.000107787718
0.000106003036
0.000107421462
0.000110389652
0.000110304104
0.000107718271
0.00010604606
0.000107432727
0.000110379277
0.000110356963
0.00010777386
0.000106815299
0.000106752926
0.000107780157
0.000110433116
0.000110317831
0.000110403944
0.000110258168
0.000106597035
0.000105481397
0.000107770844
0.000110258579
0.000107501277
0.000106950017
0.000110523472
0.000110218616
0.000106935796
0.000107273187
0.000110565085
0.000110281517
0.000107670059
0.000106579191
0.000106879572
0.000108267951
0.000110315672
0.000107269386
0.00010732889
0.00011040734
0.000110247056
0.000106965167
0.000107549977
0.000110501823
0.000110247738
0.000107828899
0.000106045507
0.0001075672
0.000110421173
0.000110345328
0.000107828142
0.0001069978
0.000106961024
0.000106944518
0.000107038282
0.000106763928
0.000107808476
0.000110345114
0.000110440295
0.000110384785
0.000107722823
0.000107809972
0.000110524421
0.000110357135
0.00010779557
0.00010705805
0.00010699662
0.000106988242
0.000107070717
0.00010695898
0.000107783853
0.000110366432
0.000110415298
0.000107589635
0.000107854967
0.000110415396
0.000110288619
0.000108129727
0.000106091649
0.000106754552
0.000110409718
0.000110385448
0.000106730935
0.000107506839
0.000110394399
0.000110345085
0.000107706104
0.000106811618
0.000106751971
0.000107440416
0.000110431166
0.000110592811
0.00010629515
0.000107702788
0.000110454619
0.000107542823
0.000107387913
0.000110553378
0.000110435186
0.000107644316
0.000106655084
0.000107702381
0.000110400831
0.000110399697
0.00011040779
0.000110387946
0.000107378909
0.000106709142
0.000107187721
0.000106655266
0.000107024974
0.00010632164
0.000107721323
0.000110311325
0.000110474187
0.000110444866
0.000107739943
0.000107849119
0.000110459961
0.000110365655
0.000107738743
0.000106916828
0.000106799622
0.00010733171
0.000110378028
0.000110451462
0.000106839115
0.000107693454
0.000110372191
0.000110299757
0.000108148097
0.000106647848
0.00010662417
0.000108023757
0.00011028299
0.000110361362
0.000106620617
0.000105765456
0.00010779533
0.000110243187
0.000110395857
0.000106419853
0.000106022346
0.000107812086
0.000110279207
0.00011037564
0.000106431306
0.000106097259
0.000107762536
0.000110222328
0.000110497809
0.000106440225
0.000106295837
0.00010648429
0.000107734277
0.000110277479
0.000110453392
0.000110469881
0.000107744449
0.000107815947
0.000110416764
0.000110443581
0.000107405681
0.00010687959
0.000106744712
0.000107788558
0.000110455198
0.000107591782
0.000107008932
0.000110423496
0.000110471327
0.000106793928
0.000106905848
0.000110400465
0.000110453709
0.000107045847
0.00010757885
0.000110382866
0.000110393463
0.00010722613
0.000106476879
0.00010676048
0.000108426458
0.000110412793
0.000107234526
0.000107152695
0.000110365718
0.000110439436
0.000107116463
0.000107671189
0.000110397618
0.00011030305
0.000107071491
0.000105623052
0.000107109284
0.000110298687
0.000110462497
0.000106439462
0.000106945833
0.000110318974
0.000110480518
0.000107076981
0.000107832094
0.000110360706
0.000110373234
0.000107036344
0.000106321213
0.00010670662
0.00010866749
0.000110391778
0.000106995131
0.000107068339
0.000110357634
0.000110388066
0.000106788317
0.000106890712
0.000110421097
)
;

boundaryField
{
    closed
    {
        type            calculated;
        value           uniform 0.000143971657;
    }
    open
    {
        type            calculated;
        value           nonuniform List<scalar> 0();
    }
    sides
    {
        type            empty;
    }
    procBoundary0to1
    {
        type            processor;
        value           uniform 0.000110414785;
    }
}


// ************************************************************************* //
