/*--------------------------------*- C++ -*----------------------------------*\
| =========                 |                                                 |
| \\      /  F ield         | OpenFOAM: The Open Source CFD Toolbox           |
|  \\    /   O peration     | Version:  2306                                  |
|   \\  /    A nd           | Website:  www.openfoam.com                      |
|    \\/     M anipulation  |                                                 |
\*---------------------------------------------------------------------------*/
FoamFile
{
    version     2.0;
    format      ascii;
    arch        "LSB;label=32;scalar=64";
    class       volScalarField;
    location    "0.00126";
    object      prefDZ_H2;
}
// * * * * * * * * * * * * * * * * * * * * * * * * * * * * * * * * * * * * * //

dimensions      [1 -1 -1 0 0 0 0];

internalField   nonuniform List<scalar> 
531
(
6.34567022e-05
6.23715857e-05
6.15539187e-05
6.08293469e-05
6.08431593e-05
6.3136069e-05
6.34343711e-05
6.3385795e-05
6.3457504e-05
6.34409004e-05
6.16677076e-05
6.07974802e-05
6.33548923e-05
6.34600288e-05
6.15910524e-05
6.12443647e-05
6.33402599e-05
6.34775781e-05
6.15348036e-05
6.13679443e-05
6.337644e-05
6.34883209e-05
6.34616984e-05
6.1962058e-05
6.11412487e-05
6.3401281e-05
6.35001604e-05
6.16076863e-05
6.14675563e-05
6.34038279e-05
6.35243798e-05
6.34521752e-05
6.23465025e-05
6.12054227e-05
6.12372741e-05
6.34321971e-05
6.3499074e-05
6.24338244e-05
6.14339099e-05
6.14470286e-05
6.34649391e-05
6.35411371e-05
6.35042786e-05
6.23241309e-05
6.15436027e-05
6.15596944e-05
6.34638062e-05
6.35390378e-05
6.23796819e-05
6.17997609e-05
6.12288663e-05
6.1246807e-05
6.34097177e-05
6.3528626e-05
6.34437218e-05
6.35503478e-05
6.17084989e-05
6.15554442e-05
6.34448875e-05
6.23410257e-05
6.10675418e-05
6.34648417e-05
6.35134273e-05
6.21109635e-05
6.1605188e-05
6.34681111e-05
6.35565898e-05
6.20551962e-05
6.1676003e-05
6.3482168e-05
6.35685222e-05
6.20929634e-05
6.16926404e-05
6.34932259e-05
6.35639921e-05
6.2227649e-05
6.17010334e-05
6.35142263e-05
6.35313972e-05
6.23158424e-05
6.15330397e-05
6.15424886e-05
6.34958236e-05
6.35610503e-05
6.2364649e-05
6.16989779e-05
6.11886148e-05
6.12003383e-05
6.34529686e-05
6.35400675e-05
6.34874809e-05
6.35561668e-05
6.35460617e-05
6.23353931e-05
6.17742854e-05
6.13689077e-05
6.13676135e-05
6.34646086e-05
6.35449697e-05
6.17198136e-05
6.1416058e-05
6.34438809e-05
6.35509982e-05
6.18324823e-05
6.15567399e-05
6.34462627e-05
6.35510426e-05
6.19726351e-05
6.16814691e-05
6.3457008e-05
6.35491018e-05
6.2091067e-05
6.1732042e-05
6.34733221e-05
6.35440587e-05
6.22429942e-05
6.17188175e-05
6.34984421e-05
6.35220705e-05
6.23215057e-05
6.15076505e-05
6.15176323e-05
6.34802595e-05
6.35455243e-05
6.23428095e-05
6.10652594e-05
6.12242376e-05
6.34958795e-05
6.35418269e-05
6.35271844e-05
6.2267483e-05
6.14715256e-05
6.3476361e-05
6.35167117e-05
6.22290456e-05
6.14831972e-05
6.34661724e-05
6.34903437e-05
6.23651693e-05
6.09419779e-05
6.10531041e-05
6.34445548e-05
6.35103691e-05
6.3501276e-05
6.18158376e-05
6.11273957e-05
6.34249892e-05
6.35081297e-05
6.13365443e-05
6.1286697e-05
6.3417289e-05
6.35230236e-05
6.34947746e-05
6.21816802e-05
6.12520927e-05
6.34424909e-05
6.35009719e-05
6.21435112e-05
6.16913344e-05
6.34455708e-05
6.35038439e-05
6.23749998e-05
6.18993862e-05
6.15405961e-05
6.15322947e-05
6.34300293e-05
6.35153017e-05
6.17139796e-05
6.16202029e-05
6.34212472e-05
6.35278251e-05
6.35114526e-05
6.21918482e-05
6.13536617e-05
6.34434541e-05
6.34873637e-05
6.23499396e-05
6.1000617e-05
6.11534099e-05
6.34412989e-05
6.35249882e-05
6.35057922e-05
6.17468529e-05
6.11468468e-05
6.3418949e-05
6.3494645e-05
6.21087446e-05
6.14631095e-05
6.10244372e-05
6.10337423e-05
6.33691893e-05
6.34769178e-05
6.34481084e-05
6.34789602e-05
6.34786474e-05
6.26560714e-05
6.16347123e-05
6.15319994e-05
6.09128339e-05
6.09315153e-05
6.33669163e-05
6.35083661e-05
6.34712845e-05
6.35302992e-05
6.35176503e-05
6.20573002e-05
6.13810324e-05
6.34320048e-05
6.35070107e-05
6.23135574e-05
6.13153952e-05
6.13296518e-05
6.33913979e-05
6.35233298e-05
6.23643192e-05
6.08829356e-05
6.11646306e-05
6.34481223e-05
6.35343451e-05
6.35220542e-05
6.205217e-05
6.1152783e-05
6.34156468e-05
6.35185363e-05
6.15803796e-05
6.14504914e-05
6.34140418e-05
6.35384067e-05
6.3535229e-05
6.2332736e-05
6.12278883e-05
6.12800436e-05
6.34619126e-05
6.3540713e-05
6.22779537e-05
6.17469668e-05
6.34365759e-05
6.35192961e-05
6.23513748e-05
6.18535243e-05
6.16807637e-05
6.15151571e-05
6.34050289e-05
6.34925898e-05
6.22326243e-05
6.07856275e-05
6.08283328e-05
6.33929181e-05
6.34739524e-05
6.34546006e-05
6.34880704e-05
6.34977998e-05
6.35010484e-05
6.16730063e-05
6.09954592e-05
6.34019228e-05
6.35032537e-05
6.22054616e-05
6.12461279e-05
6.12578784e-05
6.34273003e-05
6.35433228e-05
6.23368809e-05
6.1142856e-05
6.14024718e-05
6.34948949e-05
6.35725036e-05
6.35691265e-05
6.23310488e-05
6.18061373e-05
6.3491887e-05
6.35461988e-05
6.23089022e-05
6.18900969e-05
6.14879181e-05
6.14961428e-05
6.34945808e-05
6.3551879e-05
6.35575146e-05
6.35552292e-05
6.23003084e-05
6.15597414e-05
6.1782085e-05
6.11672662e-05
6.1177973e-05
6.34831916e-05
6.35577907e-05
6.35519078e-05
6.23386048e-05
6.1831382e-05
6.34813757e-05
6.35279617e-05
6.2337451e-05
6.19047932e-05
6.13629244e-05
6.13605176e-05
6.3435212e-05
6.35286803e-05
6.34893867e-05
6.35388198e-05
6.15648599e-05
6.14442748e-05
6.34245839e-05
6.35229839e-05
6.34992301e-05
6.23586364e-05
6.08664167e-05
6.12629853e-05
6.34222259e-05
6.34885499e-05
6.34703505e-05
6.17925262e-05
6.10744652e-05
6.05427924e-05
6.05425284e-05
6.338223e-05
6.34620305e-05
6.34366436e-05
6.3493627e-05
6.34801615e-05
6.18780507e-05
6.11460789e-05
6.34450495e-05
6.34812383e-05
6.20749365e-05
6.14487686e-05
6.10947678e-05
6.11118489e-05
6.34695505e-05
6.35159824e-05
6.35345449e-05
6.35314128e-05
6.23220033e-05
6.1434573e-05
6.14430194e-05
6.34894262e-05
6.35563256e-05
6.23322991e-05
6.11625494e-05
6.14179974e-05
6.35203053e-05
6.35702917e-05
6.35585387e-05
6.23031764e-05
6.16397035e-05
6.35235206e-05
6.35433953e-05
6.2224193e-05
6.16169043e-05
6.10958447e-05
6.11003932e-05
6.3497647e-05
6.35543654e-05
6.35297947e-05
6.35802078e-05
6.35672306e-05
6.19406215e-05
6.11698417e-05
6.04297622e-05
6.04257348e-05
6.35444865e-05
6.363487e-05
6.36153039e-05
6.36938884e-05
6.36902316e-05
6.11487221e-05
6.0771509e-05
6.37289568e-05
6.38532143e-05
6.38291927e-05
6.17556916e-05
6.09054314e-05
6.3968966e-05
6.4063255e-05
6.13181905e-05
6.11129344e-05
6.39467419e-05
6.41241074e-05
6.40198896e-05
6.12914242e-05
6.08585257e-05
6.38116295e-05
6.39700846e-05
6.38486129e-05
6.09169064e-05
6.04746801e-05
6.36372107e-05
6.37494347e-05
6.36782224e-05
6.3748305e-05
6.37039778e-05
6.37622492e-05
6.37378288e-05
6.37972248e-05
6.37890145e-05
6.38607398e-05
6.38776023e-05
6.39794161e-05
6.40541641e-05
6.42298792e-05
6.4471067e-05
6.49916433e-05
6.48991655e-05
6.4627081e-05
6.43807714e-05
6.41450655e-05
6.39549329e-05
6.37798537e-05
6.36459655e-05
6.35492576e-05
6.33932976e-05
6.32418954e-05
6.31257549e-05
6.3311626e-05
6.30731071e-05
6.30114012e-05
6.28555796e-05
6.28686224e-05
6.2777501e-05
6.28682613e-05
6.26249088e-05
6.25487444e-05
6.20992123e-05
6.20518199e-05
6.15759589e-05
6.15316376e-05
6.10985786e-05
6.54005651e-05
6.45711005e-05
6.44339719e-05
6.36105649e-05
6.34072079e-05
6.25957932e-05
6.23089516e-05
6.14843736e-05
6.10746875e-05
6.03108092e-05
6.03698867e-05
6.04735038e-05
6.05443377e-05
6.0649891e-05
6.07298936e-05
6.08427825e-05
6.11302547e-05
6.64285104e-05
6.71286398e-05
6.88805265e-05
6.93818209e-05
7.64308325e-05
7.98791568e-05
8.35024924e-05
8.61521149e-05
8.91428326e-05
9.15360123e-05
9.47633577e-05
9.73879358e-05
0.000101053434
0.000103894879
0.000107817212
0.000110683394
0.000114687617
0.000117446967
0.000121337058
0.000123910949
0.00012745448
0.000129663767
0.000132816202
0.000135021582
0.000138027041
0.000139799208
0.000142345405
0.000143822767
0.000146032388
0.000147301455
0.000149197931
0.000150088419
0.000151646402
0.000152381131
0.000153782388
0.000154389618
0.000155660137
0.000156156432
0.00015731061
0.000157743671
0.000158812253
0.000159059247
0.000160009364
0.000160470054
0.000161645545
0.000161508329
0.000162497363
0.000162737087
0.000164183541
0.00016450499
0.00016613513
0.000164954796
0.000165581939
0.000167470355
0.000168734761
0.000166283502
0.000167659671
0.000169774677
0.000169823634
0.0001680104
0.000168841013
0.000170332378
0.000171056359
0.000169600603
0.000170020098
0.00017145635
0.000171886229
0.000170733721
0.000171033095
0.000172354895
0.000172655028
0.000171589878
0.000171816532
0.000173069415
0.000173255567
0.000172268091
0.000172430652
0.000173643796
0.000173727375
0.000172807152
0.000172928903
0.000174112279
0.000174127239
0.000173248249
0.000173356511
0.000174478187
0.000174483339
)
;

boundaryField
{
    closed
    {
        type            calculated;
        value           nonuniform List<scalar> 0();
    }
    open
    {
        type            calculated;
        value           nonuniform List<scalar> 0();
    }
    sides
    {
        type            empty;
    }
    procBoundary4to3
    {
        type            processor;
        value           uniform 6.34010337e-05;
    }
    procBoundary4to5
    {
        type            processor;
        value           uniform 0.000173647041;
    }
}


// ************************************************************************* //
