/*--------------------------------*- C++ -*----------------------------------*\
| =========                 |                                                 |
| \\      /  F ield         | OpenFOAM: The Open Source CFD Toolbox           |
|  \\    /   O peration     | Version:  2306                                  |
|   \\  /    A nd           | Website:  www.openfoam.com                      |
|    \\/     M anipulation  |                                                 |
\*---------------------------------------------------------------------------*/
FoamFile
{
    version     2.0;
    format      ascii;
    arch        "LSB;label=32;scalar=64";
    class       volScalarField;
    location    "0.00068";
    object      h;
}
// * * * * * * * * * * * * * * * * * * * * * * * * * * * * * * * * * * * * * //

dimensions      [0 2 -2 0 0 0 0];

internalField   nonuniform List<scalar> 
531
(
10091.417
713.89328
-5134.51059
-3378.89627
9864.95068
9958.02932
-1776.36627
-5435.65712
4177.18185
9316.78112
-2672.65885
-4119.92361
9530.2429
9971.69034
232.496679
-5257.94267
-3211.77383
9800.30196
9981.90607
26.0077187
-6397.88965
-4520.79287
8237.85656
10056.2734
8821.13408
10275.3879
9143.93711
-1186.52049
-3769.62328
-2866.73115
-3172.13381
-4370.58588
-1129.22844
9979.28125
10298.2082
1953.51443
-5104.06476
-3046.05514
8880.66309
10575.2914
9189.08478
-1737.71169
-6309.80617
-3261.15377
9685.0864
9853.98654
-910.789713
-5708.877
-2649.65866
9736.60482
9851.83652
-1061.68195
-6202.71296
-3906.73829
8498.82343
9986.92838
9563.22075
10036.5127
2838.60882
-3098.21893
-3976.53106
-5495.87595
-4506.17834
6954.30609
10361.304
9718.52609
-404.240731
-5238.48931
-2022.14957
9581.0062
7928.44605
-3912.35731
-2422.60047
9977.14839
10119.958
1609.89558
-3546.031
-4876.6345
-2355.38804
9620.4609
9905.01637
-355.607815
-5296.42422
-2276.99835
9619.20422
9613.6887
-2173.93789
-3791.67841
3585.52999
10173.9278
8836.33258
-2616.32512
-6250.19321
-2480.00503
9481.852
9632.8833
-2384.47428
-3869.44764
4994.31924
10091.4171
5756.51447
-2436.42229
-3199.67862
1770.4297
4955.49167
2946.23629
191.179438
1042.05214
3162.85694
3214.07069
2119.16321
1937.47164
2290.82204
2370.78176
2213.6628
2238.57827
2613.0561
2582.75022
1683.81156
1586.21529
2997.28112
3488.99521
1731.61463
263.61426
2145.4372
5049.45386
3546.22129
-1469.09844
-1280.81508
6687.4525
7367.15876
-577.617998
-3802.78604
2467.32393
9376.19519
5045.62041
-4033.65765
-3501.7282
8693.46923
9443.93752
-24.8525587
-4444.41849
-298.628937
9105.41648
8130.68392
-1795.32574
-3215.49125
2894.69943
6958.0822
3421.55442
-873.538022
101.525241
3807.64205
4135.69863
1853.29671
1042.91133
1974.55098
2875.81576
2677.94337
2071.46665
2048.39823
2224.84389
2271.46804
2371.92082
2426.5831
2301.12072
2023.9181
2068.72412
2557.54052
2608.24433
2094.48946
1867.21816
2267.10964
2700.80701
2478.77649
1895.92226
1907.74459
2553.0582
2647.68885
2205.42125
1950.29429
2180.16912
2511.20991
2449.69781
2131.85123
2107.19579
2313.20857
2393.28898
2300.25075
2202.88482
2227.41643
2307.31311
2311.56982
2266.4246
2251.97367
2268.74816
2284.33932
2280.71538
2270.07413
2269.50651
2274.38208
2275.92702
2274.47565
2273.12778
2273.36635
2274.10946
2274.15508
2273.88932
2273.79949
2273.86277
2273.92224
2273.91488
2273.88886
2273.88701
2273.89434
2273.89671
2273.89532
2273.89427
2273.89427
2273.89468
2273.89473
2273.89463
2273.89458
2273.8946
2273.89462
2273.89461
2273.89461
2273.89461
2273.89462
2273.89462
2273.89458
2273.89458
2273.89471
2273.89472
2273.89432
2273.89424
2273.89538
2273.89565
2273.89305
2273.89065
2273.89722
2273.90707
2273.89395
2273.85892
2273.87864
2273.98675
2273.97699
2273.67615
2273.65494
2274.31768
2274.48882
2273.21502
2272.53887
2274.73179
2276.74999
2273.48411
2268.31112
2272.28973
2283.84935
2280.85162
2257.8492
2257.14984
2295.50328
2302.57416
2254.24884
2229.09753
2281.2096
2337.23978
2292.87892
2194.0378
2214.86946
2361.32895
2369.50452
2205.93653
2158.98568
2291.10939
2396.99427
2313.56157
2160.17763
2185.98497
2361.30707
2375.49588
2237.69356
2185.46053
2258.39387
2343.38184
2317.60793
2227.90561
2223.6122
2291.94644
2315.38603
2282.56787
2239.62198
2249.67025
2302.08479
2305.93628
2256.24651
2237.0071
2276.16833
2317.3807
2290.10969
2225.86981
2234.70526
2320.63953
2327.47468
2246.1671
2215.00213
2273.25676
2330.31971
2299.52537
2228.61326
2233.00663
2302.40868
2310.61003
2269.44664
2245.18237
2264.93935
2292.06984
2287.47787
2264.88395
2263.1098
2275.37363
2280.43612
2275.76124
2270.72116
2271.67198
2275.06984
2275.28701
2273.80864
2273.2386
2273.68219
2274.13378
2274.06463
2273.82882
2273.81727
2273.90896
2273.92512
2273.86326
2273.849
2273.98635
2274.02607
2273.72178
2273.54934
2274.12333
2274.70595
2273.79027
2272.15648
2273.29909
2277.29677
2276.5778
2267.88941
2267.35101
2282.17187
2285.90217
2266.47749
2253.00279
2275.509
2306.55013
2287.08686
2228.32086
2234.20567
2328.81649
2338.89009
2232.71289
2186.75093
2278.83836
2376.67691
2319.2965
2169.13631
2172.60194
2362.06823
2390.27954
2256.27751
2146.87995
2216.95532
2400.07762
2406.03791
2167.17847
2095.20056
2316.7335
2556.93636
2322.66963
1785.66223
2029.9319
3147.97138
3013.93467
734.711871
625.61841
4288.60908
4920.70563
-422.526844
-2516.88079
4784.6505
8708.65631
1363.35776
-4411.49028
519.20901
9036.34197
6625.05438
-3935.0455
-4408.65159
7178.53158
9463.79813
-919.182293
-4516.46916
5515.94258
9278.99107
-725.00616
-3999.63105
5707.87645
9745.04216
3988.33752
-4597.87949
-5075.75463
6457.22568
9301.57049
-347.188278
-3524.6264
5708.98298
9793.1787
4576.31366
-4323.26883
-4815.60679
5794.24967
9961.69618
6491.17089
-1293.83405
-4214.27833
-3560.1408
8035.98569
9882.76729
3465.57819
-4774.62759
-5373.52103
5420.3395
9178.03582
575.562645
-3739.58127
4438.05858
9249.67096
2066.07515
-3989.77364
1058.01038
8781.65413
5593.48407
-3708.52738
-3975.77056
7139.4938
9329.5921
312.349738
-4389.21173
3288.4243
8800.42025
1489.47138
-3984.23941
2395.00283
8972.90553
4480.42351
-3885.53002
-2629.09635
8195.29005
8330.33328
-2725.03715
-3289.82214
6774.40174
7050.34919
-2898.64516
-3097.20083
7964.25087
8587.99727
-1837.94063
-3840.69717
4555.68604
9449.06696
5012.2989
-3492.68233
-4151.71653
4796.30625
9508.35269
5190.47283
-3279.4977
-3724.55215
4497.28333
9645.34867
10142.5054
6351.62409
-857.785951
-3206.49462
-4517.16787
-5024.34541
3079.47285
9143.82313
5343.74841
-3339.3043
-4017.96434
4325.45495
9506.26691
5821.03159
-2790.17195
-3555.92686
4648.45031
9521.24547
5567.62692
-3038.50415
-3929.22761
4124.86682
9341.66496
5227.36163
-3371.0421
-4199.46012
3933.82435
9285.5607
5268.86249
-3253.88304
-4094.03092
3650.32548
9353.85001
5876.08723
-2919.42802
-3537.75133
3765.0622
9568.10594
10166.6369
6098.96781
-1645.45538
-4567.87602
-4865.11687
3977.45317
7641.40863
538.710107
-3562.34142
)
;

boundaryField
{
    closed
    {
        type            lookUpEnthalpy;
        h0              nonuniform List<scalar> 0();
        value           nonuniform List<scalar> 0();
    }
    open
    {
        type            zeroGradient;
    }
    sides
    {
        type            empty;
    }
    procBoundary3to2
    {
        type            processor;
        value           uniform 9888.06054;
    }
    procBoundary3to4
    {
        type            processor;
        value           uniform 3394.99549;
    }
}


// ************************************************************************* //
