/*--------------------------------*- C++ -*----------------------------------*\
| =========                 |                                                 |
| \\      /  F ield         | OpenFOAM: The Open Source CFD Toolbox           |
|  \\    /   O peration     | Version:  2306                                  |
|   \\  /    A nd           | Website:  www.openfoam.com                      |
|    \\/     M anipulation  |                                                 |
\*---------------------------------------------------------------------------*/
FoamFile
{
    version     2.0;
    format      ascii;
    arch        "LSB;label=32;scalar=64";
    class       volScalarField;
    location    "0.00068";
    object      H2;
}
// * * * * * * * * * * * * * * * * * * * * * * * * * * * * * * * * * * * * * //

dimensions      [0 0 0 0 0 0 0];

internalField   nonuniform List<scalar> 
531
(
0.0110131585
0.0107555511
0.0106602413
0.010679098
0.0110122921
0.0110154016
0.0107003623
0.0106575904
0.0108730183
0.0110290386
0.0106862853
0.0106737779
0.0110139068
0.0110165553
0.0107436015
0.0106588016
0.010681109
0.0110126844
0.0110159373
0.01073857
0.0106490942
0.0106615897
0.0110691142
0.011008336
0.0110565802
0.0110034333
0.0110418702
0.01071231
0.0106819574
0.0106870353
0.0106837205
0.0106690746
0.010713374
0.0110094671
0.0110066517
0.0107916441
0.0106648437
0.0106778876
0.011046869
0.010994055
0.0110457024
0.0106989285
0.0106508042
0.0106773443
0.0110180812
0.0110170207
0.0107179083
0.0106539918
0.0106860391
0.0110155495
0.0110182898
0.0107148253
0.010652035
0.0106705942
0.011057856
0.0110125327
0.0110320346
0.0110139189
0.0108163668
0.010687503
0.010672324
0.0106588794
0.0106638716
0.0110103795
0.0110019433
0.0110299136
0.0107284138
0.0106630144
0.0106972451
0.0110251657
0.0110775885
0.0106772369
0.0106944243
0.0110115563
0.0110086255
0.0107779063
0.0106782739
0.0106657594
0.0106922037
0.0110197216
0.0110166083
0.0107300723
0.0106612455
0.0106908271
0.0110220462
0.0110195712
0.0106965597
0.0106779191
0.0108410259
0.0110075794
0.0110504195
0.0106847954
0.0106532632
0.0106872784
0.0110274596
0.0110182895
0.0106944293
0.0106761144
0.0109109108
0.0110082004
0.0109437595
0.01068776
0.0106859991
0.0107854458
0.0109032269
0.0108237935
0.0107427809
0.0107642924
0.0108319068
0.0108344374
0.0107966283
0.0107910186
0.0108028162
0.0108057113
0.0108006338
0.0108015945
0.0108146522
0.0108136604
0.0107838718
0.0107808256
0.0108289713
0.0108473606
0.0107854557
0.0107443572
0.0107987091
0.0109133678
0.0108486903
0.0107090396
0.0107124053
0.0110045953
0.0110379914
0.0107250231
0.0106826027
0.0108106905
0.0110321876
0.0109126373
0.0106784003
0.0106829895
0.0110501411
0.0110281686
0.0107375492
0.0106739798
0.010731301
0.0110386827
0.0110728739
0.0107004986
0.0106910643
0.0108242397
0.0110160341
0.0108441371
0.0107197417
0.0107404234
0.010859395
0.0108743846
0.010789051
0.0107648806
0.010793172
0.0108245146
0.0108174409
0.0107965253
0.0107958065
0.0108017288
0.0108033301
0.0108068041
0.0108087061
0.0108043768
0.0107950679
0.0107965466
0.01081334
0.0108151378
0.0107974153
0.010789968
0.0108032279
0.0108184776
0.010810553
0.0107908984
0.0107912799
0.0108131824
0.0108165599
0.0108011305
0.0107926611
0.0108002778
0.010811695
0.0108095349
0.0107986559
0.0107978341
0.0108048032
0.0108075689
0.0108043599
0.0108010466
0.0108018777
0.010804603
0.0108047495
0.0108032049
0.0108027127
0.0108032844
0.010803817
0.0108036932
0.0108033298
0.0108033105
0.0108034769
0.0108035297
0.0108034801
0.0108034341
0.0108034423
0.0108034676
0.0108034692
0.0108034601
0.010803457
0.0108034592
0.0108034612
0.010803461
0.0108034601
0.01080346
0.0108034603
0.0108034604
0.0108034603
0.0108034603
0.0108034603
0.0108034603
0.0108034603
0.0108034603
0.0108034603
0.0108034603
0.0108034603
0.0108034603
0.0108034603
0.0108034603
0.0108034603
0.0108034603
0.0108034603
0.0108034603
0.0108034603
0.0108034603
0.0108034603
0.0108034603
0.0108034603
0.0108034603
0.0108034602
0.0108034602
0.0108034604
0.0108034607
0.0108034603
0.0108034591
0.0108034598
0.0108034634
0.0108034631
0.0108034528
0.0108034521
0.0108034747
0.0108034806
0.0108034371
0.010803414
0.0108034889
0.0108035578
0.0108034463
0.0108032697
0.0108034055
0.0108038004
0.0108036979
0.010802913
0.0108028892
0.0108041991
0.0108044412
0.0108027905
0.0108019354
0.0108037102
0.0108056323
0.0108041091
0.0108007489
0.0108014527
0.0108064639
0.0108067461
0.0108011516
0.0107995687
0.0108040489
0.0108076998
0.0108048178
0.0107996088
0.010800477
0.010806463
0.0108069543
0.0108022273
0.0108004597
0.0108029311
0.0108058441
0.0108049571
0.0108018949
0.0108017496
0.0108040772
0.0108048809
0.0108037564
0.0108022929
0.0108026345
0.0108044246
0.0108045567
0.0108028585
0.010802204
0.0108035379
0.0108049494
0.0108040144
0.0108018261
0.0108021258
0.0108050616
0.0108052965
0.0108025156
0.0108014579
0.0108034384
0.0108053944
0.0108043369
0.0108019192
0.0108020683
0.0108044357
0.0108047171
0.0108033084
0.0108024819
0.0108031547
0.0108040816
0.0108039245
0.0108031528
0.0108030924
0.0108035108
0.0108036837
0.010803524
0.010803352
0.0108033844
0.0108035004
0.0108035078
0.0108034574
0.0108034379
0.010803453
0.0108034685
0.0108034661
0.010803458
0.0108034577
0.0108034608
0.0108034613
0.0108034592
0.0108034587
0.0108034634
0.0108034648
0.0108034544
0.0108034485
0.0108034681
0.010803488
0.0108034567
0.010803401
0.01080344
0.0108035765
0.0108035519
0.0108032553
0.010803237
0.0108037431
0.0108038705
0.0108032072
0.0108027479
0.0108035154
0.0108045776
0.0108039109
0.0108019091
0.0108021086
0.0108053427
0.0108056892
0.0108020586
0.0108005029
0.0108036289
0.0108069946
0.0108050145
0.0107999098
0.0108000258
0.0108064896
0.0108074651
0.010802858
0.0107991589
0.010801519
0.0108077966
0.0108079979
0.0107998268
0.0107973921
0.0108048858
0.0108131524
0.0108050368
0.0107871001
0.0107950787
0.0108338728
0.010829092
0.0107562583
0.0107534274
0.0108767741
0.0109036236
0.0107288849
0.0106961179
0.0109073466
0.0110528588
0.010774048
0.0106755819
0.0107508847
0.0110517126
0.0109771473
0.0106781465
0.0106731938
0.0110195339
0.0110276507
0.010717826
0.0106701196
0.0109470547
0.0110337353
0.0107217579
0.0106762202
0.0109628862
0.0110251667
0.0108522512
0.0106704718
0.0106638839
0.0109904369
0.0110315711
0.0107303631
0.0106817389
0.0109616353
0.0110234422
0.0108755893
0.010673105
0.0106650497
0.0109638136
0.0110152974
0.0109525114
0.0107099007
0.0106784672
0.0106847887
0.0110674678
0.0110204939
0.0108332004
0.0106698321
0.0106614688
0.0109390988
0.0110382786
0.0107520611
0.0106813911
0.0108959339
0.0110378783
0.010794302
0.0106795253
0.0107659038
0.0110568309
0.0109289451
0.0106847726
0.0106803303
0.0110254755
0.0110328846
0.010745569
0.0106737838
0.0108462049
0.0110501866
0.0107783945
0.0106798499
0.0108102425
0.0110484756
0.010883234
0.0106835837
0.0106945349
0.0110742444
0.0110666273
0.0106936425
0.010689502
0.0110070019
0.0110211935
0.0106928467
0.0106915618
0.0110792692
0.0110557366
0.0107014847
0.010682309
0.0108965468
0.01103169
0.0109010857
0.0106826053
0.0106750853
0.010907004
0.0110286939
0.0109114332
0.0106838819
0.0106790038
0.0108914048
0.0110282534
0.0110119381
0.0109617091
0.010720719
0.0106860851
0.0106669647
0.0106648921
0.0108330708
0.0110400047
0.0109206613
0.0106849321
0.0106773529
0.0108797462
0.0110295863
0.010938408
0.0106908593
0.0106836909
0.0108940285
0.0110288253
0.010926124
0.0106867047
0.0106788065
0.0108732044
0.0110335386
0.0109136397
0.0106825993
0.0106747483
0.010865941
0.0110350558
0.0109172542
0.0106840128
0.0106754484
0.0108529454
0.0110331798
0.0109492811
0.0106874214
0.010680625
0.0108582985
0.0110302273
0.0110092996
0.0109437663
0.0107040673
0.010669164
0.0106670046
0.0108712441
0.0110608431
0.0107515658
0.0106869525
)
;

boundaryField
{
    closed
    {
        type            calculated;
        value           nonuniform List<scalar> 0();
    }
    open
    {
        type            calculated;
        value           nonuniform List<scalar> 0();
    }
    sides
    {
        type            empty;
    }
    procBoundary3to2
    {
        type            processor;
        value           uniform 0.0110117572;
    }
    procBoundary3to4
    {
        type            processor;
        value           uniform 0.01084775;
    }
}


// ************************************************************************* //
