/*--------------------------------*- C++ -*----------------------------------*\
| =========                 |                                                 |
| \\      /  F ield         | OpenFOAM: The Open Source CFD Toolbox           |
|  \\    /   O peration     | Version:  2306                                  |
|   \\  /    A nd           | Website:  www.openfoam.com                      |
|    \\/     M anipulation  |                                                 |
\*---------------------------------------------------------------------------*/
FoamFile
{
    version     2.0;
    format      ascii;
    arch        "LSB;label=32;scalar=64";
    class       volScalarField;
    location    "0.00054";
    object      prefDZ_H2;
}
// * * * * * * * * * * * * * * * * * * * * * * * * * * * * * * * * * * * * * //

dimensions      [1 -1 -1 0 0 0 0];

internalField   nonuniform List<scalar> 
531
(
6.25517833e-05
6.23047416e-05
6.2316983e-05
6.34496412e-05
6.29167474e-05
6.21889304e-05
6.17290167e-05
6.23358784e-05
6.35049763e-05
6.26085439e-05
6.2295021e-05
6.23199951e-05
6.34890971e-05
6.29772372e-05
6.22951173e-05
6.21747144e-05
6.19036977e-05
6.18154711e-05
6.23206807e-05
6.34829245e-05
6.26860983e-05
6.23374644e-05
6.23071342e-05
6.34754872e-05
6.29182675e-05
6.20622508e-05
6.14461932e-05
6.22342469e-05
6.34557558e-05
6.26653256e-05
6.21242001e-05
6.22594301e-05
6.34801098e-05
6.26957846e-05
6.21335515e-05
6.22744768e-05
6.34726441e-05
6.29592553e-05
6.20126719e-05
6.14096311e-05
6.2253676e-05
6.34586608e-05
6.27208884e-05
6.21897303e-05
6.22984585e-05
6.3483553e-05
6.30299531e-05
6.20232617e-05
6.14135286e-05
6.22600091e-05
6.34566525e-05
6.2730013e-05
6.20985741e-05
6.22851498e-05
6.34834379e-05
6.27468888e-05
6.2104416e-05
6.23045058e-05
6.34947776e-05
6.31138487e-05
6.19637955e-05
6.13645055e-05
6.22611747e-05
6.34612966e-05
6.27432033e-05
6.20558269e-05
6.22881531e-05
6.34935136e-05
6.27586484e-05
6.20687095e-05
6.23178235e-05
6.3515418e-05
6.3260173e-05
6.19479564e-05
6.13563789e-05
6.22670158e-05
6.34751171e-05
6.27313258e-05
6.2012384e-05
6.22903144e-05
6.35118539e-05
6.27969478e-05
6.20688634e-05
6.23217968e-05
6.35425105e-05
6.33798507e-05
6.19905459e-05
6.14121605e-05
6.22723824e-05
6.35018125e-05
6.28469748e-05
6.21410822e-05
6.23242729e-05
6.3562874e-05
6.34146052e-05
6.20225926e-05
6.14597646e-05
6.22784282e-05
6.35122599e-05
6.28841239e-05
6.21699262e-05
6.23236993e-05
6.35776512e-05
6.34430353e-05
6.21104475e-05
6.15503942e-05
6.22858837e-05
6.3543746e-05
6.34538945e-05
6.2129396e-05
6.15652232e-05
6.22864658e-05
6.35459375e-05
6.34628636e-05
6.21455291e-05
6.15582156e-05
6.22876074e-05
6.35486109e-05
6.34682353e-05
6.21341051e-05
6.14884311e-05
6.22989291e-05
6.35385095e-05
6.3337171e-05
6.2212232e-05
6.23722331e-05
6.36148066e-05
6.3475542e-05
6.20869516e-05
6.13866612e-05
6.23006241e-05
6.35514214e-05
6.33833086e-05
6.22146319e-05
6.23616168e-05
6.36248601e-05
6.35162279e-05
6.22404798e-05
6.15853908e-05
6.22864891e-05
6.35676065e-05
6.35690668e-05
6.23493592e-05
6.18066554e-05
6.16702052e-05
6.23054296e-05
6.3606774e-05
6.35722765e-05
6.23071998e-05
6.17563481e-05
6.23129983e-05
6.35708353e-05
6.34630956e-05
6.2176718e-05
6.23856768e-05
6.36359971e-05
6.35371807e-05
6.21675558e-05
6.1293749e-05
6.23195082e-05
6.35406957e-05
6.34198312e-05
6.20957686e-05
6.23919901e-05
6.36181598e-05
6.35574528e-05
6.21977399e-05
6.13049039e-05
6.23223613e-05
6.35289037e-05
6.34066085e-05
6.21194806e-05
6.23858332e-05
6.36023943e-05
6.35947239e-05
6.22970709e-05
6.14442647e-05
6.2302874e-05
6.35337461e-05
6.35879755e-05
6.23051086e-05
6.14886675e-05
6.230856e-05
6.35292976e-05
6.35808866e-05
6.22942642e-05
6.13509128e-05
6.22997245e-05
6.34916322e-05
6.31389837e-05
6.1983063e-05
6.23279008e-05
6.35326696e-05
6.29400392e-05
6.1921209e-05
6.22866324e-05
6.35186553e-05
6.27276704e-05
6.16773474e-05
6.23436914e-05
6.35270456e-05
6.35152192e-05
6.21097015e-05
6.13982108e-05
6.22833841e-05
6.34784695e-05
6.27278303e-05
6.1998485e-05
6.23071429e-05
6.3544144e-05
6.32853369e-05
6.20351519e-05
6.13201261e-05
6.2265149e-05
6.34891541e-05
6.26297008e-05
6.20391483e-05
6.23016625e-05
6.35386857e-05
6.31745797e-05
6.19854642e-05
6.14342999e-05
6.23173527e-05
6.35061965e-05
6.25291595e-05
6.21226421e-05
6.23306681e-05
6.35329224e-05
6.31807352e-05
6.19863138e-05
6.15418711e-05
6.23680436e-05
6.34979875e-05
6.29194364e-05
6.22807386e-05
6.16835006e-05
6.16867469e-05
6.24126908e-05
6.34802948e-05
6.32417197e-05
6.1907124e-05
6.15389378e-05
6.26403219e-05
6.35085039e-05
6.23613126e-05
6.18506898e-05
6.23185575e-05
6.35274056e-05
6.23727406e-05
6.16817863e-05
6.22955376e-05
6.35280591e-05
6.23302087e-05
6.17380448e-05
6.24220066e-05
6.35347338e-05
6.23018977e-05
6.18538977e-05
6.24413088e-05
6.34876668e-05
6.25598503e-05
6.14922041e-05
6.1483405e-05
6.34804394e-05
6.35428984e-05
6.23327522e-05
6.16118726e-05
6.19600942e-05
6.34554407e-05
6.36135551e-05
6.21132925e-05
6.18072519e-05
6.34123398e-05
6.3537747e-05
6.23109776e-05
6.15548486e-05
6.22326065e-05
6.34684654e-05
6.35974179e-05
6.20887794e-05
6.20044775e-05
6.34326208e-05
6.35707789e-05
6.22794524e-05
6.15922538e-05
6.23087621e-05
6.34972721e-05
6.36210096e-05
6.22798043e-05
6.15376142e-05
6.23230542e-05
6.34809416e-05
6.3600882e-05
6.22906201e-05
6.14153678e-05
6.21869393e-05
6.34202367e-05
6.36125013e-05
6.20008234e-05
6.1860398e-05
6.33602895e-05
6.31609875e-05
6.19063829e-05
6.23456276e-05
6.34863711e-05
6.36126552e-05
6.2265323e-05
6.15594004e-05
6.23046388e-05
6.34659732e-05
6.36154529e-05
6.22732572e-05
6.15260474e-05
6.23285743e-05
6.34446997e-05
6.33869879e-05
6.19360744e-05
6.21954941e-05
6.34844504e-05
6.36195767e-05
6.22578094e-05
6.16182051e-05
6.22883876e-05
6.34446343e-05
6.36262873e-05
6.22834389e-05
6.1658573e-05
6.23157292e-05
6.34551968e-05
6.29808244e-05
6.18305544e-05
6.1973614e-05
6.34971298e-05
6.36121433e-05
6.22659022e-05
6.16233308e-05
6.22953314e-05
6.34872271e-05
6.36185144e-05
6.22724184e-05
6.14618452e-05
6.23157566e-05
6.3454435e-05
6.3613084e-05
6.22121867e-05
6.15526361e-05
6.24657152e-05
6.34888335e-05
6.23086408e-05
6.1690615e-05
6.22898966e-05
6.34829417e-05
6.32055734e-05
6.19418934e-05
6.22602042e-05
6.35335587e-05
6.36197839e-05
6.22644514e-05
6.15250184e-05
6.22871122e-05
6.35034038e-05
6.36301647e-05
6.22906184e-05
6.15563899e-05
6.23148417e-05
6.34886249e-05
6.35450564e-05
6.20635712e-05
6.21555296e-05
6.35367852e-05
6.36119318e-05
6.22781559e-05
6.16631444e-05
6.22780067e-05
6.34919281e-05
6.36479063e-05
6.23481954e-05
6.16707821e-05
6.14881711e-05
6.22900078e-05
6.34251139e-05
6.36447459e-05
6.35604641e-05
6.2248696e-05
6.13955767e-05
6.22641326e-05
6.34963605e-05
6.36286081e-05
6.23028149e-05
6.15363969e-05
6.2287018e-05
6.35438634e-05
6.36239681e-05
6.22949176e-05
6.14191077e-05
6.23284832e-05
6.35086732e-05
6.35942484e-05
6.19664772e-05
6.20236545e-05
6.35812368e-05
6.35944911e-05
6.22760019e-05
6.14424322e-05
6.23274441e-05
6.35206681e-05
6.35747191e-05
6.20000863e-05
6.22010017e-05
6.36075901e-05
6.36030433e-05
6.22762707e-05
6.14352749e-05
6.23317315e-05
6.35164017e-05
6.3511213e-05
6.19930687e-05
6.23075141e-05
6.35996942e-05
6.35997021e-05
6.22382101e-05
6.14508438e-05
6.2295894e-05
6.35106514e-05
6.32134244e-05
6.19591729e-05
6.23640182e-05
6.35930641e-05
6.36010267e-05
6.22236325e-05
6.1435e-05
6.2295404e-05
6.3517503e-05
6.32158691e-05
6.21387732e-05
6.23656846e-05
6.35903065e-05
6.36070265e-05
6.23401662e-05
6.2195654e-05
6.22343688e-05
6.20136958e-05
6.19585694e-05
6.24465061e-05
6.35539684e-05
6.26621516e-05
6.20758491e-05
6.22931167e-05
6.35585094e-05
6.28373768e-05
6.19340677e-05
6.2319734e-05
6.35680449e-05
6.35718869e-05
6.19928152e-05
6.13663813e-05
6.23006271e-05
6.35045063e-05
6.25962732e-05
6.18065702e-05
6.227039e-05
6.35308031e-05
6.25475158e-05
6.17623482e-05
6.22906754e-05
6.35468378e-05
6.34660747e-05
6.19964579e-05
6.13626154e-05
6.23343186e-05
6.35107886e-05
6.24774551e-05
6.18084945e-05
6.22706326e-05
6.35413651e-05
6.23782132e-05
6.17870815e-05
6.23312162e-05
6.35390552e-05
6.29151764e-05
6.19627385e-05
6.15682668e-05
6.23926569e-05
6.34955195e-05
6.27370371e-05
6.17723833e-05
6.21045268e-05
6.3482318e-05
6.25253717e-05
6.17923867e-05
6.23306419e-05
6.35327886e-05
6.31338842e-05
6.21287897e-05
6.16473093e-05
6.23761287e-05
6.3502572e-05
6.29198337e-05
6.20551842e-05
6.16207223e-05
6.23680379e-05
6.34990438e-05
6.29079393e-05
6.20655043e-05
6.16387965e-05
6.23624436e-05
6.34902818e-05
6.29309999e-05
6.21110175e-05
6.16695739e-05
6.2354941e-05
6.34798875e-05
6.29674848e-05
6.21641915e-05
6.1695043e-05
6.23408758e-05
6.34678909e-05
6.29938747e-05
6.2201016e-05
6.16995376e-05
6.2319246e-05
6.34533729e-05
6.30138937e-05
6.22257936e-05
6.16930865e-05
6.22939555e-05
6.34402238e-05
6.31020805e-05
6.22730964e-05
6.17482474e-05
6.22759391e-05
)
;

boundaryField
{
    closed
    {
        type            calculated;
        value           nonuniform List<scalar> 0();
    }
    open
    {
        type            calculated;
        value           nonuniform List<scalar> 0();
    }
    sides
    {
        type            empty;
    }
    procBoundary1to0
    {
        type            processor;
        value           uniform 6.34783496e-05;
    }
    procBoundary1to2
    {
        type            processor;
        value           uniform 6.34115673e-05;
    }
}


// ************************************************************************* //
