/*--------------------------------*- C++ -*----------------------------------*\
| =========                 |                                                 |
| \\      /  F ield         | OpenFOAM: The Open Source CFD Toolbox           |
|  \\    /   O peration     | Version:  2306                                  |
|   \\  /    A nd           | Website:  www.openfoam.com                      |
|    \\/     M anipulation  |                                                 |
\*---------------------------------------------------------------------------*/
FoamFile
{
    version     2.0;
    format      ascii;
    arch        "LSB;label=32;scalar=64";
    class       volScalarField;
    location    "0.00098";
    object      mu;
}
// * * * * * * * * * * * * * * * * * * * * * * * * * * * * * * * * * * * * * //

dimensions      [1 -1 -1 0 0 0 0];

internalField   nonuniform List<scalar> 
531
(
2.02978027e-05
2.03061052e-05
1.96080492e-05
1.94900765e-05
1.95493811e-05
2.03018829e-05
2.03041339e-05
2.02999129e-05
2.030611e-05
1.95872641e-05
1.94661758e-05
1.9503519e-05
1.94922175e-05
2.03082937e-05
2.03032794e-05
1.95319596e-05
1.95338423e-05
2.03120153e-05
2.03004892e-05
1.96019934e-05
1.95769161e-05
2.0315279e-05
2.02979596e-05
1.96509987e-05
1.957956e-05
1.96238807e-05
2.03004293e-05
2.03162475e-05
1.96791796e-05
1.96295547e-05
2.03094766e-05
2.03089811e-05
1.97137149e-05
1.96331046e-05
1.96564646e-05
2.03095164e-05
2.03115066e-05
1.97492081e-05
1.95783023e-05
1.97086095e-05
2.03100537e-05
2.03094776e-05
2.03096877e-05
1.97498931e-05
1.95887975e-05
1.9646736e-05
1.95602548e-05
2.0315474e-05
2.03007785e-05
1.96025846e-05
1.94513017e-05
1.9547559e-05
2.02986588e-05
2.0309709e-05
2.02978979e-05
1.95666873e-05
1.94538475e-05
1.95025749e-05
2.02954389e-05
2.03117489e-05
1.95410292e-05
1.95077941e-05
2.03014413e-05
2.03064331e-05
1.95439956e-05
1.95331472e-05
2.03063373e-05
2.03027437e-05
1.95600467e-05
1.95509812e-05
2.03088853e-05
2.02997415e-05
1.95996172e-05
1.95617539e-05
2.03092281e-05
2.0295958e-05
1.96317564e-05
1.95601995e-05
1.95768548e-05
2.02973583e-05
2.03031728e-05
1.96502499e-05
1.95595415e-05
1.95832704e-05
2.02986471e-05
2.03021747e-05
1.96391467e-05
1.95306663e-05
1.9583487e-05
2.03059443e-05
2.02969134e-05
2.03052301e-05
2.0295499e-05
1.9724117e-05
1.95583083e-05
1.96260705e-05
1.95011065e-05
1.9525179e-05
2.02977742e-05
2.03096103e-05
1.9545461e-05
1.95238264e-05
2.03046123e-05
2.0305174e-05
1.95546204e-05
1.95549807e-05
2.03095163e-05
2.03025212e-05
1.95814568e-05
1.95834932e-05
2.03132887e-05
2.0301176e-05
1.96239783e-05
1.95990833e-05
2.03160533e-05
2.02984128e-05
1.96618973e-05
1.95936489e-05
1.96095081e-05
2.03027066e-05
2.03119418e-05
1.96954012e-05
1.95896629e-05
1.96243704e-05
2.03123356e-05
2.03037204e-05
1.9660761e-05
1.95706156e-05
1.9605125e-05
2.03061199e-05
2.03156074e-05
1.96532124e-05
1.96270988e-05
2.03148156e-05
2.03096221e-05
1.96787597e-05
1.965769e-05
2.03203672e-05
2.03046299e-05
1.97243166e-05
1.96418097e-05
1.96456157e-05
1.96209787e-05
2.03223845e-05
2.03039922e-05
1.96458081e-05
1.95615953e-05
1.95910715e-05
2.03098618e-05
2.03135888e-05
1.9659086e-05
1.96065614e-05
2.03195356e-05
2.03039215e-05
1.96786706e-05
1.95915727e-05
1.96243124e-05
2.03069614e-05
2.03169494e-05
1.96958645e-05
1.96552508e-05
2.03154714e-05
2.03087532e-05
1.9739835e-05
1.9646881e-05
1.9641517e-05
1.96381077e-05
2.03192798e-05
2.03069568e-05
1.9646161e-05
1.96292825e-05
2.03207691e-05
2.03022887e-05
1.96854691e-05
1.96022524e-05
1.96264399e-05
2.03077253e-05
2.0311527e-05
1.97134287e-05
1.95938547e-05
1.96259589e-05
2.03103646e-05
2.03051676e-05
1.96769541e-05
1.95620377e-05
1.95886822e-05
2.03070362e-05
2.03083262e-05
1.96408731e-05
1.94939498e-05
1.95565297e-05
2.03126631e-05
2.0304804e-05
2.03108341e-05
2.03020729e-05
1.9737719e-05
1.95090585e-05
1.96056146e-05
1.94283146e-05
1.95072579e-05
2.03109569e-05
2.03097746e-05
2.03072535e-05
2.03069016e-05
2.03028008e-05
1.97239899e-05
1.96064817e-05
1.96212077e-05
1.96030913e-05
2.03190218e-05
2.03001136e-05
1.96520466e-05
1.95596677e-05
1.95848601e-05
2.03054002e-05
2.03098799e-05
1.96959642e-05
1.95728633e-05
1.96033783e-05
2.03116846e-05
2.03028683e-05
1.9699064e-05
1.95694055e-05
1.96049767e-05
2.03056418e-05
2.0311042e-05
1.96875662e-05
1.96247771e-05
2.03154788e-05
2.03034809e-05
1.97267473e-05
1.96092918e-05
1.96371962e-05
2.03110718e-05
2.03015088e-05
1.97501695e-05
1.96124592e-05
1.96407082e-05
2.03002658e-05
2.03061997e-05
1.97288932e-05
1.96095498e-05
1.95682295e-05
1.95755358e-05
2.03041867e-05
2.02952258e-05
1.94693809e-05
1.95225787e-05
2.03077164e-05
2.0297578e-05
2.03017143e-05
2.02974326e-05
2.02947869e-05
1.96299677e-05
1.94319684e-05
1.9464967e-05
1.94373023e-05
2.03123965e-05
2.02876885e-05
1.95592437e-05
1.94082599e-05
1.9469872e-05
2.02936182e-05
2.03007277e-05
1.95624086e-05
1.96035405e-05
2.03068545e-05
2.02966016e-05
2.03021603e-05
1.97218111e-05
1.95456175e-05
1.95775806e-05
2.03045679e-05
2.02999064e-05
1.97301994e-05
1.95139488e-05
1.96323935e-05
2.03041579e-05
2.03039133e-05
2.02987599e-05
1.97508516e-05
1.95310721e-05
1.96025394e-05
1.94457504e-05
1.94671738e-05
2.03091417e-05
2.03042104e-05
2.03059691e-05
2.0303842e-05
1.96887319e-05
1.95160872e-05
1.95387128e-05
2.030645e-05
2.03040432e-05
1.96934276e-05
1.94729712e-05
1.95891318e-05
2.03054546e-05
2.03024697e-05
2.03002828e-05
1.97154844e-05
1.9521394e-05
1.96258887e-05
2.03068556e-05
2.03011566e-05
2.03032923e-05
1.9761911e-05
1.96273064e-05
1.96385333e-05
1.96119809e-05
2.03112927e-05
2.03011663e-05
1.96646568e-05
1.95764323e-05
1.95245422e-05
1.95263757e-05
2.03120227e-05
2.02980756e-05
2.03048117e-05
2.02995655e-05
1.97231094e-05
1.95704939e-05
1.95657243e-05
1.951906e-05
2.03120197e-05
2.02954753e-05
1.95903469e-05
1.94064366e-05
1.94265767e-05
2.02988308e-05
2.03015216e-05
2.02963897e-05
2.03019993e-05
1.97639691e-05
1.95488701e-05
1.95516586e-05
1.9541035e-05
2.03038646e-05
2.02959587e-05
1.95201349e-05
1.95398466e-05
2.03060564e-05
2.02927005e-05
2.03009682e-05
1.96991738e-05
1.94578998e-05
1.94786723e-05
2.02961155e-05
2.02991774e-05
1.96498947e-05
1.94239539e-05
1.94575525e-05
2.03007731e-05
2.02983263e-05
2.03012752e-05
2.0300615e-05
1.97537237e-05
1.94674881e-05
1.95631501e-05
1.93754373e-05
1.93809511e-05
2.03082011e-05
2.03104027e-05
2.03104812e-05
2.0314531e-05
1.96684678e-05
1.94269062e-05
1.95258671e-05
2.03228219e-05
2.03264861e-05
2.0327815e-05
1.96630056e-05
1.95111432e-05
1.95147754e-05
2.03486784e-05
2.03569568e-05
1.96579764e-05
1.95526858e-05
2.03856182e-05
2.03834871e-05
1.96604517e-05
1.949803e-05
1.94629606e-05
1.94155656e-05
2.04616431e-05
2.04637372e-05
1.94737845e-05
1.91754496e-05
1.92771277e-05
2.04438107e-05
2.04551993e-05
2.04326838e-05
2.0440497e-05
2.04162901e-05
2.04208215e-05
2.03894559e-05
1.91975746e-05
1.9030668e-05
2.02907052e-05
2.02681777e-05
2.02206499e-05
2.02209803e-05
2.01683501e-05
2.01988356e-05
2.0176547e-05
2.02168892e-05
2.02269035e-05
2.02690194e-05
2.03068658e-05
2.03652221e-05
2.04609224e-05
2.05999206e-05
2.06612021e-05
2.05520765e-05
2.04246576e-05
2.03338756e-05
2.02339226e-05
2.0166128e-05
2.00976345e-05
2.00560575e-05
1.99736648e-05
1.99139699e-05
1.99557807e-05
1.98856758e-05
1.98080566e-05
1.97755329e-05
1.97166266e-05
1.97167162e-05
1.96718059e-05
1.95743536e-05
1.94139807e-05
1.93052492e-05
1.91610484e-05
1.90314046e-05
1.92142385e-05
2.03314769e-05
2.01121225e-05
1.98864688e-05
1.9649406e-05
1.94196195e-05
1.91635129e-05
1.89130343e-05
1.86229841e-05
1.83914992e-05
1.83923297e-05
1.83932031e-05
1.83934423e-05
1.83951303e-05
1.83935843e-05
1.96522901e-05
2.06060936e-05
2.21014393e-05
2.30989914e-05
2.43842061e-05
2.54890579e-05
2.63697482e-05
2.75034039e-05
2.89467353e-05
3.03775907e-05
3.09769122e-05
3.17766749e-05
3.25372036e-05
3.34492149e-05
3.42948459e-05
3.53563093e-05
3.63129972e-05
3.73733204e-05
3.82395156e-05
3.92057616e-05
3.99455363e-05
4.07531467e-05
4.15784965e-05
4.23801048e-05
4.2633867e-05
4.33536733e-05
4.42344557e-05
4.48273953e-05
4.49552917e-05
4.55230244e-05
4.63556615e-05
4.67454432e-05
4.69792494e-05
4.73795617e-05
4.78027056e-05
4.81411618e-05
4.85545187e-05
4.89037364e-05
4.89945144e-05
4.92680473e-05
4.94665549e-05
4.9777242e-05
4.97383534e-05
4.9984458e-05
5.01356171e-05
5.05917496e-05
5.02931039e-05
5.05996763e-05
5.07725883e-05
5.13201619e-05
5.10842144e-05
5.14792418e-05
5.1415956e-05
5.17241431e-05
5.1782317e-05
5.21305718e-05
5.16847444e-05
5.22170472e-05
5.21564247e-05
5.23116207e-05
5.2121627e-05
5.24533735e-05
5.24626099e-05
5.26836473e-05
5.24887303e-05
5.27364486e-05
5.28781144e-05
5.29271729e-05
5.27678402e-05
5.29725297e-05
5.30961932e-05
5.31529442e-05
5.31659851e-05
5.31518043e-05
5.31138226e-05
5.33341959e-05
5.3396061e-05
5.33018384e-05
5.32916931e-05
5.35203381e-05
5.34883617e-05
5.34217181e-05
)
;

boundaryField
{
    closed
    {
        type            calculated;
        value           nonuniform List<scalar> 0();
    }
    open
    {
        type            calculated;
        value           nonuniform List<scalar> 0();
    }
    sides
    {
        type            empty;
    }
    procBoundary4to3
    {
        type            processor;
        value           uniform 1.96066689e-05;
    }
    procBoundary4to5
    {
        type            processor;
        value           uniform 5.34351989e-05;
    }
}


// ************************************************************************* //
