/*--------------------------------*- C++ -*----------------------------------*\
| =========                 |                                                 |
| \\      /  F ield         | OpenFOAM: The Open Source CFD Toolbox           |
|  \\    /   O peration     | Version:  2306                                  |
|   \\  /    A nd           | Website:  www.openfoam.com                      |
|    \\/     M anipulation  |                                                 |
\*---------------------------------------------------------------------------*/
FoamFile
{
    version     2.0;
    format      ascii;
    arch        "LSB;label=32;scalar=64";
    class       surfaceScalarField;
    location    "0.00098";
    object      phi;
}
// * * * * * * * * * * * * * * * * * * * * * * * * * * * * * * * * * * * * * //

dimensions      [1 0 -1 0 0 0 0];

oriented        oriented;

internalField   nonuniform List<scalar> 
530
(
2.72441332e-08
2.70762541e-08
1.97633451e-08
2.67980313e-08
2.47171055e-08
2.30202244e-08
2.26296363e-08
2.16441589e-08
2.16986984e-08
9.62339531e-09
1.09137055e-08
1.81293839e-08
1.45089774e-08
1.18102722e-08
1.1667354e-08
1.20369395e-08
6.22945244e-09
4.13632204e-09
2.98275265e-09
5.67607677e-10
-6.22178067e-09
-8.20019815e-09
-9.74887733e-09
-1.83621028e-08
-1.56812829e-08
-1.58696453e-08
-1.84895121e-08
-2.04680776e-08
-2.68054997e-08
-3.03138669e-08
-3.4187969e-08
-3.62109566e-08
-4.94631273e-08
-4.47522191e-08
-4.4522617e-08
-4.75272111e-08
-5.06095948e-08
-5.47512843e-08
-5.2424481e-08
-4.48635254e-08
-4.70388045e-08
-4.97384038e-08
-5.36427394e-08
-5.88467124e-08
-6.58176945e-08
-6.00367315e-08
-6.15226917e-08
-6.55162756e-08
-7.0522614e-08
-8.2566891e-08
-8.14230093e-08
-7.4039878e-08
-7.59002643e-08
-7.89867654e-08
-8.3880727e-08
-1.00724175e-07
-1.01973397e-07
-9.09225435e-08
-9.45703843e-08
-1.02729773e-07
-1.12036673e-07
-1.07223139e-07
-1.11720042e-07
-1.17198651e-07
-1.26960405e-07
-1.22132912e-07
-1.26602903e-07
-1.32468528e-07
-1.42515494e-07
-1.36780108e-07
-1.41341972e-07
-1.47296237e-07
-1.59328138e-07
-1.52446402e-07
-1.56995749e-07
-1.63118679e-07
-1.83273276e-07
-1.8261096e-07
-1.6827921e-07
-1.72626671e-07
-1.78116634e-07
-2.03417356e-07
-2.02417202e-07
-1.86859972e-07
-1.90645495e-07
-1.95756241e-07
-2.2022768e-07
-2.15509782e-07
-1.95692765e-07
-1.99393744e-07
-2.02708837e-07
-2.06660887e-07
-2.11719205e-07
-2.45722786e-07
-2.52432283e-07
-2.5735082e-07
-2.52419388e-07
-2.2475011e-07
-2.27897549e-07
-2.31792405e-07
-2.48970616e-07
-2.33124307e-07
-2.36846287e-07
-2.47850815e-07
-2.5069793e-07
-2.3729046e-07
-2.40254781e-07
-2.50029747e-07
-2.52556363e-07
-2.39295837e-07
-2.41909592e-07
-2.44644691e-07
-2.58842547e-07
-2.44794337e-07
-2.47587553e-07
-2.500036e-07
-2.72222287e-07
-2.69032101e-07
-2.47236739e-07
-2.49749241e-07
-2.50718653e-07
-2.7848008e-07
-2.74984519e-07
-2.51628247e-07
-2.53054864e-07
-2.53400896e-07
-2.77363652e-07
-2.72497382e-07
-2.47153107e-07
-2.47964107e-07
-2.47480307e-07
-2.63116177e-07
-2.48043948e-07
-2.49942867e-07
-2.49246726e-07
-2.60174952e-07
-2.47742011e-07
-2.5005059e-07
-2.49470827e-07
-2.7466446e-07
-2.77442234e-07
-2.6941147e-07
-2.51727453e-07
-2.52944308e-07
-2.51716278e-07
-2.7259999e-07
-2.67240271e-07
-2.42638493e-07
-2.43534303e-07
-2.41053096e-07
-2.57929605e-07
-2.45327695e-07
-2.48067213e-07
-2.46349702e-07
-2.67020565e-07
-2.63014752e-07
-2.39060975e-07
-2.39895621e-07
-2.3736282e-07
-2.53296111e-07
-2.42429586e-07
-2.45191114e-07
-2.43490049e-07
-2.71592727e-07
-2.73829513e-07
-2.64211588e-07
-2.46891132e-07
-2.47507567e-07
-2.459517e-07
-2.5983945e-07
-2.47740742e-07
-2.49838024e-07
-2.48405999e-07
-2.72096288e-07
-2.67774171e-07
-2.46553356e-07
-2.49154021e-07
-2.47150128e-07
-2.78094012e-07
-2.74452267e-07
-2.50583918e-07
-2.52520138e-07
-2.50711802e-07
-2.80129673e-07
-2.76263313e-07
-2.53783102e-07
-2.55830986e-07
-2.53731249e-07
-2.83252656e-07
-2.76804353e-07
-2.46311611e-07
-2.46514517e-07
-2.47439275e-07
-2.47604879e-07
-2.47330401e-07
-2.89702803e-07
-2.9525764e-07
-2.94559974e-07
-2.84675102e-07
-2.41585392e-07
-2.46305068e-07
-2.45024717e-07
-2.44512886e-07
-2.4523562e-07
-2.44642602e-07
-2.77571642e-07
-2.84271544e-07
-2.74671068e-07
-2.57555666e-07
-2.59529098e-07
-2.58713797e-07
-2.86091824e-07
-2.80666806e-07
-2.54970515e-07
-2.56999648e-07
-2.55223027e-07
-2.88746117e-07
-2.83989701e-07
-2.56245352e-07
-2.57773492e-07
-2.56047108e-07
-2.88979371e-07
-2.8362527e-07
-2.53274435e-07
-2.5348119e-07
-2.51648826e-07
-2.72443787e-07
-2.58598185e-07
-2.6171225e-07
-2.59851437e-07
-2.89138801e-07
-2.82416431e-07
-2.5419416e-07
-2.54687385e-07
-2.51785812e-07
-2.54382444e-07
-2.48290896e-07
-2.19742372e-07
-2.21127598e-07
-2.19330089e-07
-2.5656887e-07
-2.60617268e-07
-2.51092175e-07
-2.33172406e-07
-2.32276673e-07
-2.31090532e-07
-2.40477395e-07
-2.19033306e-07
-2.17253338e-07
-2.15640345e-07
-2.1242438e-07
-2.12387004e-07
-2.09022103e-07
-2.4136832e-07
-2.43530881e-07
-2.25558515e-07
-2.06570055e-07
-2.07000933e-07
-2.03988119e-07
-2.33455254e-07
-2.2601591e-07
-1.92007882e-07
-1.92957813e-07
-1.89955959e-07
-2.04265704e-07
-1.89379228e-07
-1.88838583e-07
-1.87022241e-07
-1.80485649e-07
-2.09975411e-07
-2.03231948e-07
-1.74118474e-07
-1.7339001e-07
-1.69468251e-07
-2.00598639e-07
-1.93317784e-07
-1.64111013e-07
-1.62862859e-07
-1.59726336e-07
-1.54236291e-07
-1.84829613e-07
-1.8997631e-07
-1.86127548e-07
-1.73431237e-07
-1.40007748e-07
-1.36312741e-07
-1.31687887e-07
-1.26411538e-07
-1.22849176e-07
-1.57837117e-07
-1.48767328e-07
-1.21032896e-07
-1.18573219e-07
-1.14857027e-07
-1.42464976e-07
-1.33832289e-07
-1.04571246e-07
-1.00471247e-07
-9.63089638e-08
-8.96638469e-08
-1.08409159e-07
-1.03741516e-07
-7.50824437e-08
-7.10287125e-08
-6.56511823e-08
-5.99060959e-08
-6.02766935e-08
-6.24446599e-08
-4.4593698e-08
-3.78560097e-08
-3.27527148e-08
-2.89486944e-08
-5.23540626e-08
-5.09783956e-08
-3.66229358e-08
-2.25404745e-08
-1.47386176e-08
-1.05609805e-08
-2.19106253e-09
5.14198678e-10
-3.07996921e-08
-3.02937893e-08
-1.54869089e-08
-1.01244827e-08
-3.67229156e-09
1.38352522e-09
-2.19965705e-08
-7.98353745e-09
1.78658757e-08
2.59438924e-08
3.30633335e-08
4.10145317e-08
4.80664665e-08
1.90845079e-08
2.18012642e-08
3.82658048e-08
4.53294265e-08
5.62389632e-08
6.13178882e-08
4.8493611e-08
6.00882991e-08
6.72109997e-08
7.09897938e-08
7.94846297e-08
5.7873255e-08
6.4683165e-08
8.70465856e-08
9.32204026e-08
9.90840112e-08
7.13888794e-08
8.19932324e-08
1.03937941e-07
1.12238747e-07
1.1774928e-07
1.23885721e-07
1.27429591e-07
9.74595738e-08
9.99198677e-08
1.06606509e-07
1.178192e-07
1.39632732e-07
1.48803245e-07
1.54772243e-07
1.61589342e-07
1.64728349e-07
1.4346675e-07
1.51719156e-07
1.730091e-07
1.82371071e-07
1.8861815e-07
1.94630478e-07
1.84289735e-07
1.92512229e-07
2.09594536e-07
2.21434219e-07
2.30587849e-07
2.23539207e-07
2.29247019e-07
2.45980715e-07
2.57411936e-07
2.60019073e-07
2.6530806e-07
2.80347518e-07
2.91132222e-07
3.10144176e-07
3.26571372e-07
3.29386742e-07
3.47662561e-07
3.72901969e-07
3.89672935e-07
4.05878663e-07
4.22689037e-07
4.39884064e-07
4.5722875e-07
4.74380065e-07
4.92727126e-07
5.0910801e-07
5.36733669e-07
5.56292275e-07
5.84335501e-07
6.21147874e-07
6.57898003e-07
7.08086708e-07
7.48326393e-07
7.91661526e-07
8.28784704e-07
8.64578948e-07
8.99087024e-07
9.34361017e-07
9.71280389e-07
1.01327668e-06
1.06266637e-06
1.08510896e-06
1.11129605e-06
1.1367951e-06
1.16354169e-06
1.19150751e-06
1.21879327e-06
1.24850836e-06
1.27521816e-06
1.30025514e-06
1.31945653e-06
1.36004102e-06
1.36921781e-06
1.38433082e-06
1.38805691e-06
1.3944401e-06
1.38863401e-06
1.37730026e-06
1.33937485e-06
1.31027878e-06
1.25123557e-06
1.20606353e-06
1.12408886e-06
1.10669936e-06
1.0064173e-06
9.03786292e-07
7.6184969e-07
6.12804571e-07
4.23507082e-07
2.20731328e-07
-2.83092865e-08
-2.91059101e-07
-5.4012156e-07
-8.04779054e-07
-1.07910429e-06
-1.34721117e-06
-1.61002333e-06
-1.8114117e-06
-1.82894482e-06
6.14245637e-07
7.29129246e-07
4.9775835e-07
5.23418513e-07
5.28184345e-07
4.94984351e-07
5.16523003e-07
5.03134824e-07
4.40215619e-07
3.82351736e-07
3.36584267e-07
3.00157346e-07
2.72577249e-07
2.57397303e-07
2.52370946e-07
2.50997501e-07
2.4776654e-07
2.63909688e-07
3.10878388e-07
2.05681009e-07
-1.74732015e-07
4.02485554e-07
1.34507173e-06
1.87165935e-07
-6.72562949e-07
2.46158637e-07
1.0146855e-06
6.3580238e-09
-9.08591064e-07
4.62092291e-08
7.55949002e-07
6.35056569e-07
6.48225752e-07
4.5437562e-07
1.31318344e-07
4.43120413e-07
8.95170114e-07
5.7392781e-07
2.2958567e-07
3.88771846e-07
6.4287896e-07
5.10662156e-07
6.80822918e-08
3.92940629e-07
1.35462805e-06
8.91602945e-07
-1.72545105e-07
1.7752146e-07
8.9135015e-07
6.62687529e-07
3.38969728e-07
5.81456355e-07
8.1035558e-07
1.01152279e-06
7.81660836e-07
2.30735363e-07
7.06623835e-07
1.05203812e-06
7.48268776e-07
5.90297356e-07
6.99426533e-07
8.24504054e-07
7.72371413e-07
5.75121743e-07
6.43668914e-07
1.03271862e-06
9.85904232e-07
6.1025555e-07
6.29830549e-07
7.98800852e-07
8.24855011e-07
9.3829572e-07
8.99361051e-07
6.4121016e-07
7.31356733e-07
1.0418734e-06
9.23688935e-07
7.84992135e-07
9.9864241e-07
1.16309819e-06
)
;

boundaryField
{
    closed
    {
        type            calculated;
        value           nonuniform List<scalar> 0();
    }
    open
    {
        type            calculated;
        value           nonuniform List<scalar> 0();
    }
    sides
    {
        type            empty;
        value           nonuniform List<scalar> 0();
    }
    procBoundary4to3
    {
        type            processor;
        value           uniform -2.85281836e-08;
    }
    procBoundary4to5
    {
        type            processor;
        value           uniform 8.88030355e-07;
    }
}


// ************************************************************************* //
