/*--------------------------------*- C++ -*----------------------------------*\
| =========                 |                                                 |
| \\      /  F ield         | OpenFOAM: The Open Source CFD Toolbox           |
|  \\    /   O peration     | Version:  2306                                  |
|   \\  /    A nd           | Website:  www.openfoam.com                      |
|    \\/     M anipulation  |                                                 |
\*---------------------------------------------------------------------------*/
FoamFile
{
    version     2.0;
    format      ascii;
    arch        "LSB;label=32;scalar=64";
    class       volScalarField;
    location    "0.00098";
    object      prefDPV_H2;
}
// * * * * * * * * * * * * * * * * * * * * * * * * * * * * * * * * * * * * * //

dimensions      [1 -1 -1 0 0 0 0];

internalField   nonuniform List<scalar> 
531
(
-3.1540114e-05
-3.15513408e-05
-3.07102759e-05
-3.05506083e-05
-3.06310838e-05
-3.15449575e-05
-3.15478011e-05
-3.15426836e-05
-3.1550119e-05
-3.06822024e-05
-3.05183691e-05
-3.05690766e-05
-3.05536883e-05
-3.15543602e-05
-3.15465215e-05
-3.06078224e-05
-3.0609867e-05
-3.15608578e-05
-3.15432129e-05
-3.07026401e-05
-3.06679329e-05
-3.15668744e-05
-3.15396985e-05
-3.07690862e-05
-3.0671332e-05
-3.07324612e-05
-3.15446412e-05
-3.1567771e-05
-3.08065358e-05
-3.07396992e-05
-3.15594974e-05
-3.15569085e-05
-3.08536039e-05
-3.07441795e-05
-3.07762625e-05
-3.15593816e-05
-3.15604313e-05
-3.08987568e-05
-3.06701023e-05
-3.08467485e-05
-3.15576834e-05
-3.15601513e-05
-3.15570753e-05
-3.09005231e-05
-3.06842121e-05
-3.0763088e-05
-3.06456524e-05
-3.15669556e-05
-3.15427613e-05
-3.07036007e-05
-3.04979411e-05
-3.06291612e-05
-3.15389891e-05
-3.15572624e-05
-3.15377262e-05
-3.06548854e-05
-3.05012712e-05
-3.05683015e-05
-3.15350889e-05
-3.15590641e-05
-3.06194711e-05
-3.05750668e-05
-3.15447219e-05
-3.15515268e-05
-3.06237573e-05
-3.06091256e-05
-3.15520744e-05
-3.15464033e-05
-3.06456291e-05
-3.06330699e-05
-3.15563645e-05
-3.15421027e-05
-3.06992045e-05
-3.06474501e-05
-3.15576329e-05
-3.15364994e-05
-3.07426713e-05
-3.06451095e-05
-3.06684084e-05
-3.15398171e-05
-3.15472138e-05
-3.07672755e-05
-3.06443876e-05
-3.06768753e-05
-3.15416016e-05
-3.15455249e-05
-3.0752246e-05
-3.06054968e-05
-3.06770498e-05
-3.1552134e-05
-3.15383522e-05
-3.1552447e-05
-3.15358185e-05
-3.08674405e-05
-3.06424258e-05
-3.07350341e-05
-3.05652072e-05
-3.05987927e-05
-3.15388834e-05
-3.15560073e-05
-3.06255656e-05
-3.05967245e-05
-3.15494724e-05
-3.15496795e-05
-3.06382248e-05
-3.06386986e-05
-3.15569737e-05
-3.15461733e-05
-3.06746976e-05
-3.06771259e-05
-3.15632013e-05
-3.15445592e-05
-3.07323341e-05
-3.06980595e-05
-3.15681599e-05
-3.15404587e-05
-3.07837209e-05
-3.06905109e-05
-3.07129536e-05
-3.15483246e-05
-3.15604895e-05
-3.08284781e-05
-3.06856221e-05
-3.07326098e-05
-3.15623011e-05
-3.15482773e-05
-3.07821503e-05
-3.0659552e-05
-3.07071459e-05
-3.15527129e-05
-3.1566226e-05
-3.07716028e-05
-3.07365357e-05
-3.15665587e-05
-3.15578255e-05
-3.08064767e-05
-3.07776139e-05
-3.15755387e-05
-3.15505382e-05
-3.0868198e-05
-3.07558914e-05
-3.07618187e-05
-3.07279413e-05
-3.15773252e-05
-3.15484728e-05
-3.07621625e-05
-3.06474744e-05
-3.0688182e-05
-3.15582468e-05
-3.15627724e-05
-3.07797559e-05
-3.07085578e-05
-3.15737132e-05
-3.15484846e-05
-3.08065783e-05
-3.06878912e-05
-3.07332103e-05
-3.15544758e-05
-3.15684798e-05
-3.08292636e-05
-3.07745586e-05
-3.15684131e-05
-3.15566273e-05
-3.08889514e-05
-3.07629227e-05
-3.07560493e-05
-3.07512744e-05
-3.15723983e-05
-3.15535852e-05
-3.07624741e-05
-3.07391105e-05
-3.15753439e-05
-3.15463027e-05
-3.08156728e-05
-3.07023099e-05
-3.07358877e-05
-3.15558499e-05
-3.15598467e-05
-3.08530013e-05
-3.06912046e-05
-3.07348926e-05
-3.15594267e-05
-3.15502062e-05
-3.08038152e-05
-3.06479858e-05
-3.06846172e-05
-3.15538249e-05
-3.15538872e-05
-3.07549048e-05
-3.05561183e-05
-3.06410384e-05
-3.15612796e-05
-3.1549407e-05
-3.15603015e-05
-3.15446658e-05
-3.08859828e-05
-3.05762311e-05
-3.07075019e-05
-3.04672633e-05
-3.05746459e-05
-3.1556989e-05
-3.15574683e-05
-3.15521007e-05
-3.15548159e-05
-3.15462115e-05
-3.08672875e-05
-3.07080144e-05
-3.07284974e-05
-3.07036257e-05
-3.15717581e-05
-3.15425466e-05
-3.07703695e-05
-3.06446294e-05
-3.06795678e-05
-3.15517569e-05
-3.15569013e-05
-3.08292458e-05
-3.06628145e-05
-3.07042124e-05
-3.1561333e-05
-3.15466247e-05
-3.08337733e-05
-3.0657814e-05
-3.07067657e-05
-3.15521339e-05
-3.15592712e-05
-3.08179931e-05
-3.07330916e-05
-3.15679497e-05
-3.15481367e-05
-3.08711493e-05
-3.07118723e-05
-3.07500305e-05
-3.15610693e-05
-3.15453968e-05
-3.08996534e-05
-3.07158725e-05
-3.07549156e-05
-3.15448182e-05
-3.15524559e-05
-3.08733788e-05
-3.07121795e-05
-3.06561699e-05
-3.06662943e-05
-3.15474855e-05
-3.15346818e-05
-3.05227343e-05
-3.05946185e-05
-3.15509115e-05
-3.15392225e-05
-3.15417783e-05
-3.15398548e-05
-3.15318587e-05
-3.07398802e-05
-3.04715249e-05
-3.05170046e-05
-3.04788525e-05
-3.15597097e-05
-3.1521743e-05
-3.0644582e-05
-3.04392583e-05
-3.05237393e-05
-3.15321924e-05
-3.15426094e-05
-3.06482578e-05
-3.07041295e-05
-3.15514356e-05
-3.1539892e-05
-3.15443485e-05
-3.08639907e-05
-3.06255556e-05
-3.06691883e-05
-3.15507841e-05
-3.15418252e-05
-3.0875567e-05
-3.05826376e-05
-3.07435045e-05
-3.15479418e-05
-3.15510938e-05
-3.15398622e-05
-3.09035235e-05
-3.0605771e-05
-3.07030777e-05
-3.04906635e-05
-3.05201017e-05
-3.1554665e-05
-3.15473873e-05
-3.15517547e-05
-3.15469621e-05
-3.08195101e-05
-3.05857793e-05
-3.06168262e-05
-3.15528547e-05
-3.15475001e-05
-3.08258767e-05
-3.05273768e-05
-3.06849806e-05
-3.15491832e-05
-3.15482503e-05
-3.15419232e-05
-3.0855633e-05
-3.05927669e-05
-3.07345961e-05
-3.15521725e-05
-3.15473593e-05
-3.15478766e-05
-3.09038098e-05
-3.0736223e-05
-3.07515229e-05
-3.0715616e-05
-3.15599162e-05
-3.15449876e-05
-3.07869378e-05
-3.06672537e-05
-3.05974526e-05
-3.05997015e-05
-3.15591176e-05
-3.15395932e-05
-3.15503228e-05
-3.15420889e-05
-3.08658302e-05
-3.06590757e-05
-3.06531418e-05
-3.05896329e-05
-3.15596404e-05
-3.15343665e-05
-3.06865892e-05
-3.04371239e-05
-3.04650734e-05
-3.15393716e-05
-3.15431541e-05
-3.1538224e-05
-3.15444289e-05
-3.09208362e-05
-3.06299034e-05
-3.0633764e-05
-3.06194555e-05
-3.15462119e-05
-3.15366036e-05
-3.05913423e-05
-3.06177105e-05
-3.15490324e-05
-3.15332735e-05
-3.15416176e-05
-3.0833305e-05
-3.05066894e-05
-3.05352619e-05
-3.15362766e-05
-3.15397412e-05
-3.07666751e-05
-3.04608857e-05
-3.05066714e-05
-3.15420671e-05
-3.15387311e-05
-3.15454233e-05
-3.15424628e-05
-3.09073706e-05
-3.05198047e-05
-3.06498483e-05
-3.03955703e-05
-3.04035747e-05
-3.15516382e-05
-3.15556194e-05
-3.15574979e-05
-3.15625247e-05
-3.07926165e-05
-3.04657805e-05
-3.06001804e-05
-3.15736744e-05
-3.15827397e-05
-3.15831044e-05
-3.07861426e-05
-3.05806781e-05
-3.05863043e-05
-3.16141552e-05
-3.1626603e-05
-3.07805211e-05
-3.06384176e-05
-3.16692723e-05
-3.16660518e-05
-3.07765534e-05
-3.05662876e-05
-3.05201993e-05
-3.0456242e-05
-3.17784951e-05
-3.17804055e-05
-3.0537589e-05
-3.01356583e-05
-3.02745253e-05
-3.17579379e-05
-3.17824582e-05
-3.17492217e-05
-3.17686529e-05
-3.17339241e-05
-3.17485519e-05
-3.17048651e-05
-3.01768908e-05
-2.9955353e-05
-3.15802415e-05
-3.1557827e-05
-3.14949895e-05
-3.15066343e-05
-3.14376265e-05
-3.1492717e-05
-3.14677014e-05
-3.1536982e-05
-3.1558941e-05
-3.16302213e-05
-3.16925989e-05
-3.17850026e-05
-3.19277712e-05
-3.21276797e-05
-3.22191756e-05
-3.20763476e-05
-3.1911877e-05
-3.17970677e-05
-3.16736627e-05
-3.15935395e-05
-3.15169146e-05
-3.14762551e-05
-3.13807662e-05
-3.13121039e-05
-3.13711996e-05
-3.12844365e-05
-3.11967014e-05
-3.11675142e-05
-3.11174479e-05
-3.11379719e-05
-3.11157322e-05
-3.10090184e-05
-3.08307455e-05
-3.07126264e-05
-3.055383e-05
-3.04136033e-05
-3.06850871e-05
-3.22053733e-05
-3.1945924e-05
-3.16805866e-05
-3.14007488e-05
-3.11304837e-05
-3.08285571e-05
-3.05327351e-05
-3.01892096e-05
-2.99231208e-05
-2.99671977e-05
-3.00149912e-05
-3.00603467e-05
-3.01158141e-05
-3.01484807e-05
-3.210827e-05
-3.33160159e-05
-3.58899899e-05
-3.74224028e-05
-3.94587352e-05
-4.11721867e-05
-4.25772312e-05
-4.43612567e-05
-4.6647721e-05
-4.8908361e-05
-4.98978498e-05
-5.11882494e-05
-5.24363297e-05
-5.39134446e-05
-5.53042435e-05
-5.70298199e-05
-5.86027112e-05
-6.03292084e-05
-6.17605078e-05
-6.33343662e-05
-6.45239788e-05
-6.58067425e-05
-6.71838021e-05
-6.8450363e-05
-6.87448129e-05
-6.9830778e-05
-7.13639917e-05
-7.22810186e-05
-7.22703123e-05
-7.31165082e-05
-7.46787236e-05
-7.52715892e-05
-7.5410327e-05
-7.59948072e-05
-7.68476973e-05
-7.7361017e-05
-7.78535991e-05
-7.83811746e-05
-7.85917668e-05
-7.90071786e-05
-7.93246943e-05
-7.97903301e-05
-7.97887774e-05
-8.01722015e-05
-8.04107444e-05
-8.10553553e-05
-8.07604793e-05
-8.12979036e-05
-8.13734579e-05
-8.1998388e-05
-8.21721738e-05
-8.29962882e-05
-8.22869355e-05
-8.25915217e-05
-8.35693236e-05
-8.42340965e-05
-8.28329485e-05
-8.35504928e-05
-8.42707536e-05
-8.44990669e-05
-8.36727872e-05
-8.40370986e-05
-8.47222163e-05
-8.5046995e-05
-8.4319935e-05
-8.45688391e-05
-8.53343826e-05
-8.54091193e-05
-8.48014219e-05
-8.49937111e-05
-8.55063692e-05
-8.5745467e-05
-8.55880502e-05
-8.5325275e-05
-8.54083753e-05
-8.60163264e-05
-8.61065874e-05
-8.56091889e-05
-8.56740504e-05
-8.62937674e-05
-8.62501629e-05
-8.58361112e-05
)
;

boundaryField
{
    closed
    {
        type            calculated;
        value           nonuniform List<scalar> 0();
    }
    open
    {
        type            calculated;
        value           nonuniform List<scalar> 0();
    }
    sides
    {
        type            empty;
    }
    procBoundary4to3
    {
        type            processor;
        value           uniform -3.07087209e-05;
    }
    procBoundary4to5
    {
        type            processor;
        value           uniform -8.58889005e-05;
    }
}


// ************************************************************************* //
