/*--------------------------------*- C++ -*----------------------------------*\
| =========                 |                                                 |
| \\      /  F ield         | OpenFOAM: The Open Source CFD Toolbox           |
|  \\    /   O peration     | Version:  2306                                  |
|   \\  /    A nd           | Website:  www.openfoam.com                      |
|    \\/     M anipulation  |                                                 |
\*---------------------------------------------------------------------------*/
FoamFile
{
    version     2.0;
    format      ascii;
    arch        "LSB;label=32;scalar=64";
    class       volScalarField;
    location    "0.00098";
    object      prefDh_H;
}
// * * * * * * * * * * * * * * * * * * * * * * * * * * * * * * * * * * * * * //

dimensions      [1 1 -3 0 0 0 0];

internalField   nonuniform List<scalar> 
531
(
23957.6223
23967.8438
23205.2165
23059.615
23133.0577
23961.8894
23964.4362
23959.9017
23966.4717
23179.6312
23030.2481
23076.5309
23062.4734
23970.6055
23963.2448
23111.9348
23113.6573
23976.8311
23960.3307
23198.4178
23166.542
23982.6483
23957.111
23259.0597
23169.5902
23225.6764
23961.9508
23983.377
23293.0057
23232.1452
23976.0324
23973.2683
23336.0406
23236.1345
23265.5375
23975.891
23976.4982
23377.1112
23168.6047
23329.8044
23973.8306
23976.7665
23973.253
23378.7437
23181.4448
23253.5186
23146.3011
23982.6835
23959.7412
23199.3415
23011.5424
23131.4597
23956.1152
23973.4569
23954.9159
23154.8727
23014.5479
23075.9639
23952.6599
23974.8948
23122.3807
23082.0501
23961.7515
23967.9587
23126.3659
23113.0373
23968.6005
23963.2654
23146.3538
23134.818
23972.6851
23959.2989
23195.2196
23147.8745
23974.0105
23954.094
23234.8537
23145.673
23167.1368
23957.4164
23964.0521
23257.1659
23145.0625
23174.7957
23959.05
23962.4427
23243.4581
23109.6522
23174.9205
23968.7799
23955.8997
23969.3362
23953.4614
23348.5853
23143.1909
23227.9055
23072.8364
23103.7418
23956.2495
23972.0769
23127.9653
23101.7888
23966.1745
23966.2462
23139.5842
23140.0122
23973.1881
23963.0711
23172.89
23175.0094
23979.0963
23961.6448
23225.4825
23194.0516
23983.8692
23957.8344
23272.3731
23187.1115
23207.867
23965.4324
23976.4388
23313.0154
23182.8002
23225.6576
23978.3592
23965.0887
23270.9305
23158.9412
23202.6069
23969.3793
23981.8264
23261.2087
23229.3081
23982.4269
23974.1138
23293.1094
23266.6763
23990.9143
23967.3656
23349.4321
23246.7951
23252.4362
23221.3765
23992.3406
23965.2303
23252.7754
23147.9648
23185.327
23974.5179
23978.529
23268.7073
23203.7366
23989.1037
23965.2638
23293.2714
23184.7777
23226.4096
23971.1168
23983.9713
23313.7812
23263.9647
23984.3205
23973.0181
23368.2838
23253.2582
23247.1062
23242.7024
23987.7011
23970.1186
23253.0088
23231.5425
23990.5802
23963.2828
23301.5339
23197.9165
23228.7905
23972.4402
23975.8364
23335.4228
23187.8648
23227.7794
23975.6981
23966.839
23290.6141
23148.4062
23181.978
23970.3648
23970.0655
23245.9797
23064.7127
23142.2158
23977.119
23966.0463
23976.5454
23961.5078
23365.542
23082.9602
23202.8404
22983.6862
23081.7514
23972.7933
23973.6692
23968.3679
23971.5158
23963.0339
23348.4517
23203.113
23221.957
23199.1692
23987.0565
23959.6905
23260.1889
23145.3031
23177.4091
23968.5126
23973.0027
23313.7175
23161.9798
23199.7626
23977.4592
23963.4783
23317.951
23157.3277
23202.2067
23968.8665
23975.3293
23303.4889
23226.0766
23983.7981
23964.9996
23352.0158
23206.6474
23241.5648
23977.3391
23962.4896
23377.9025
23210.2114
23246.0603
23962.1964
23969.0681
23353.8355
23206.9152
23155.8134
23165.1137
23964.067
23952.2641
23034.2357
23099.7515
23966.9021
23956.6862
23958.3716
23957.4374
23949.2229
23232.1975
22987.3918
23029.0773
22994.101
23975.4338
23939.9025
23145.4102
22957.928
23035.2445
23949.9307
23959.5854
23148.5888
23199.5982
23967.7359
23957.7176
23961.1269
23345.3346
23127.8937
23167.7893
23967.6594
23958.9404
23355.9645
23088.7433
23235.6049
23964.5871
23968.195
23957.0658
23381.4676
23109.8255
23198.7279
23004.9697
23031.9314
23970.705
23963.95
23968.3472
23963.5783
23304.8538
23091.6765
23120.1072
23969.4439
23964.1244
23310.6643
23038.4102
23182.2376
23965.6091
23965.417
23958.9427
23337.7758
23097.994
23227.4487
23968.5623
23964.7938
23964.7617
23381.1275
23228.8457
23242.8307
23210.0921
23975.9814
23962.1284
23275.1484
23165.9156
23102.3852
23104.3709
23974.8765
23956.9597
23967.0718
23959.3338
23347.0384
23158.418
23153.1557
23095.1432
23975.4639
23951.8391
23183.6942
22956.0683
22981.7325
23956.4952
23959.9696
23955.906
23961.2632
23397.1175
23131.843
23135.3878
23122.3599
23962.7304
23954.2108
23096.7727
23120.7304
23965.2682
23951.4068
23958.4041
23317.3315
23019.4704
23045.6457
23953.799
23956.8108
23256.5823
22977.7462
23019.5748
23958.964
23955.9208
23962.5862
23959.4531
23384.9639
23031.4653
23150.2069
22918.287
22925.7246
23967.5787
23971.4154
23973.5001
23977.9816
23280.4882
22982.4466
23105.1371
23988.1196
23997.2415
23997.2702
23274.87
23087.4715
23092.8076
24026.1354
24037.7306
23270.1212
23140.5874
24077.3914
24074.389
23266.6849
23075.3332
23033.6928
22975.376
24178.1254
24179.6695
23050.4553
22684.0088
22811.1692
24159.8176
24183.9293
24153.0074
24172.4166
24140.2755
24155.2232
24115.0189
22725.4174
22523.9958
24002.6363
23983.6101
23926.3795
23939.0972
23876.3548
23929.3181
23907.3744
23973.4839
23995.1314
24063.003
24122.1537
24209.2093
24342.3351
24527.5029
24613.7852
24485.1295
24337.3981
24234.678
24124.8236
24054.1435
23987.3943
23953.1525
23869.3306
23809.7038
23866.9541
23790.3401
23714.2354
23690.6522
23650.6881
23673.1402
23659.7415
23566.3468
23410.1336
23306.9054
23168.0686
23045.676
23303.4468
24713.9195
24481.0326
24242.7507
23991.6135
23748.7735
23477.7019
23211.5891
22902.5574
22664.4092
22712.1715
22763.9051
22812.9067
22872.5438
22907.2128
24737.9663
25884.2828
28337.8572
29798.21
31777.5499
33454.9093
34844.8821
36614.8417
38896.3293
41161.9675
42163.9836
43469.5233
44738.7463
46242.3562
47666.1435
49438.2534
51065.5611
52862.2784
54366.1582
56032.3448
57307.9588
58698.8146
60211.8782
61624.8014
61960.6612
63196.5544
64938.572
65998.6104
66015.8956
67009.716
68798.8955
69501.7203
69712.2441
70415.6954
71387.6371
72002.4265
72628.6553
73263.9208
73497.6273
73996.8737
74373.5418
74934.3413
74915.0628
75371.1711
75653.604
76440.5592
76035.804
76652.9753
76805.7841
77629.2493
77643.7905
78536.9624
77918.55
78346.987
79169.1347
79904.6376
78515.6459
79402.8933
79948.5266
80217.5229
79440.0294
79925.7036
80480.0745
80864.0673
80165.6183
80510.3625
81203.1494
81290.1977
80706.9974
80982.2226
81454.4341
81686.5137
81558.9669
81346.7703
81386.0822
82005.5749
82113.0244
81656.5718
81699.5334
82332.8672
82279.3259
81903.9956
)
;

boundaryField
{
    closed
    {
        type            calculated;
        value           nonuniform List<scalar> 0();
    }
    open
    {
        type            calculated;
        value           nonuniform List<scalar> 0();
    }
    sides
    {
        type            empty;
    }
    procBoundary4to3
    {
        type            processor;
        value           uniform 23203.8906;
    }
    procBoundary4to5
    {
        type            processor;
        value           uniform 81952.6579;
    }
}


// ************************************************************************* //
