/*--------------------------------*- C++ -*----------------------------------*\
| =========                 |                                                 |
| \\      /  F ield         | OpenFOAM: The Open Source CFD Toolbox           |
|  \\    /   O peration     | Version:  2306                                  |
|   \\  /    A nd           | Website:  www.openfoam.com                      |
|    \\/     M anipulation  |                                                 |
\*---------------------------------------------------------------------------*/
FoamFile
{
    version     2.0;
    format      ascii;
    arch        "LSB;label=32;scalar=64";
    class       volScalarField;
    location    "2e-05";
    object      rho;
}
// * * * * * * * * * * * * * * * * * * * * * * * * * * * * * * * * * * * * * //

dimensions      [1 -3 0 0 0 0 0];

internalField   nonuniform List<scalar> 
531
(
0.934248142
0.934248142
0.934248142
0.934248142
0.934248142
0.934248142
0.934248142
0.934248142
0.934248142
0.934248142
0.934248142
0.934248142
0.934248142
0.934248142
0.934248142
0.934248142
0.934248142
0.934248142
0.934248142
0.934248142
0.934248142
0.934248142
0.934248142
0.934248142
0.934248142
0.934248142
0.934248142
0.934248142
0.934248142
0.934248142
0.934248142
0.934248142
0.934248142
0.934248142
0.934248142
0.934248142
0.934248142
0.934248142
0.934248142
0.934248142
0.934248142
0.934248142
0.934248142
0.934248142
0.934248142
0.934248142
0.934248142
0.934248142
0.934248142
0.934248142
0.934248142
0.934248142
0.934248142
0.934248142
0.934248142
0.934248142
0.934248142
0.934248142
0.934248142
0.934248142
0.934248142
0.934248142
0.934248142
0.934248142
0.934248142
0.934248142
0.934248142
0.934248142
0.934248142
0.934248142
0.934248142
0.934248142
0.934248142
0.934248142
0.934248142
0.934248142
0.934248142
0.934248142
0.934248142
0.934248142
0.934248142
0.934248142
0.934248142
0.934248142
0.934248142
0.934248142
0.934248142
0.934248142
0.934248142
0.934248142
0.934248142
0.934248142
0.934248142
0.934248142
0.934248142
0.934248142
0.934248142
0.934248142
0.934248142
0.934248142
0.934248142
0.934248142
0.934248142
0.934248142
0.934248142
0.934248142
0.934248142
0.934248142
0.934248142
0.934248142
0.934248142
0.934248142
0.934248142
0.934248142
0.934248142
0.934248142
0.934248142
0.934248142
0.934248142
0.934248142
0.934248142
0.934248142
0.934248142
0.934248142
0.934248142
0.934248142
0.934248142
0.934248142
0.934248142
0.934248142
0.934248142
0.934248142
0.934248142
0.934248142
0.934248142
0.934248142
0.934248142
0.934248142
0.934248142
0.934248142
0.934248142
0.934248142
0.934248142
0.934248142
0.934248142
0.934248142
0.934248142
0.934248142
0.934248142
0.934248142
0.934248142
0.934248142
0.934248142
0.934248142
0.934248142
0.934248142
0.934248142
0.934248142
0.934248142
0.934248142
0.934248142
0.934248142
0.934248142
0.934248142
0.934248142
0.934248142
0.934248142
0.934248142
0.934248142
0.934248142
0.934248142
0.934248142
0.934248142
0.934248142
0.934248142
0.934248142
0.934248142
0.934248142
0.934248142
0.934248142
0.934248142
0.934248142
0.934248142
0.934248142
0.934248142
0.934248142
0.934248142
0.934248142
0.934248142
0.934248142
0.934248142
0.934248142
0.934248142
0.934248142
0.934248142
0.934248142
0.934248142
0.934248141
0.934248141
0.934248141
0.934248141
0.934248141
0.934248141
0.934248141
0.934248141
0.934248141
0.934248141
0.934248141
0.93424814
0.93424814
0.93424814
0.934248139
0.934248139
0.934248138
0.934248137
0.934248136
0.934248135
0.934248133
0.934248131
0.934248129
0.934248126
0.934248123
0.934248119
0.934248114
0.934248108
0.934248101
0.934248092
0.934248082
0.93424807
0.934248055
0.934248037
0.934248016
0.934247991
0.934247962
0.934247926
0.934247885
0.934247835
0.934247777
0.934247708
0.934247627
0.934247533
0.934247422
0.934247292
0.93424714
0.934246963
0.934246758
0.934246519
0.934246243
0.934245923
0.934245554
0.934245128
0.934244639
0.934244077
0.934243433
0.934242697
0.934241857
0.9342409
0.934239812
0.934238578
0.934237181
0.934235603
0.934233823
0.934231821
0.934229572
0.934227053
0.934224236
0.934221094
0.934217595
0.93421371
0.934209403
0.934204641
0.934199387
0.934193605
0.934187255
0.934180299
0.934172697
0.934164411
0.9341554
0.934145626
0.934135054
0.934123647
0.934111373
0.934098204
0.934084113
0.934069081
0.934053094
0.934036142
0.934018226
0.933999353
0.933979542
0.93395882
0.933937228
0.933914817
0.933891654
0.933867819
0.933843408
0.933818535
0.933793328
0.933767935
0.933742521
0.933717271
0.933692389
0.933668095
0.933644631
0.933622256
0.933601246
0.933581894
0.933564508
0.93354941
0.933536933
0.933527423
0.933521229
0.933518705
0.93352021
0.933526095
0.93353671
0.933552391
0.933573462
0.933600226
0.933632965
0.93367193
0.933717341
0.933769377
0.933828178
0.933893832
0.93396638
0.934045803
0.934132027
0.934224909
0.934324201
0.934429527
0.934540798
0.934657577
0.934779401
0.93490579
0.935036192
0.935169991
0.93530653
0.935445114
0.935585009
0.935725454
0.935865672
0.936004878
0.936142286
0.936277121
0.936408627
0.936536072
0.936658765
0.936776056
0.936887348
0.936992102
0.937089843
0.937180168
0.937262744
0.937337318
0.937403712
0.937461828
0.937511647
0.937553226
0.937586698
0.937612267
0.937630207
0.937640857
0.937644611
0.937641921
0.937633281
0.937619227
0.93760033
0.937577185
0.937550409
0.937520631
0.937488486
0.93745461
0.937419629
0.937384159
0.937348793
0.937314101
0.937280622
0.937248862
0.937219285
0.937192314
0.937168324
0.93714764
0.937130537
0.937117233
0.937107893
0.937102624
0.937101476
0.937104446
0.937111471
0.937122437
0.937137179
0.93715548
0.937177076
0.937201662
0.937228889
0.937258375
0.937289704
0.937322434
0.9373561
0.937390217
0.937424289
0.93745781
0.937490271
0.937521167
0.937549996
0.93757627
0.937599517
0.937619284
0.937635146
0.937646703
0.93765359
0.937655478
0.937652075
0.937643132
0.937628443
0.937607848
0.937581235
0.937548538
0.937509742
0.93746488
0.937414033
0.937357333
0.937294957
0.93722713
0.93715412
0.937076238
0.936993836
0.936907303
0.936817062
0.936723567
0.936627302
0.936528772
0.936428506
0.936327048
0.936224955
0.936122791
0.936021126
0.935920527
0.935821559
0.935724775
0.935630715
0.935539903
0.935452838
0.935369995
0.935291819
0.93521872
0.935151071
0.935089204
0.93503341
0.934983932
0.934940966
0.934904656
0.934875098
0.934852333
0.934836351
0.93482709
0.934824436
0.934828225
0.934838244
0.934854235
0.934875895
0.934902885
0.934934828
0.934971318
0.935011924
0.935056196
0.935103669
0.935153873
0.935206336
0.935260594
0.935316194
0.935372705
0.935429719
0.935486862
0.935543795
0.935600221
0.935655888
0.935710594
0.935764187
0.935816568
0.935867691
0.935917563
0.935966241
0.936013831
0.936060485
0.936106394
0.936151786
0.936196915
0.93624206
0.936287514
0.936333576
0.936380543
0.936428705
0.936478328
0.936529656
0.936582895
0.936638209
0.936695712
0.936755463
0.936817459
0.936881633
0.936947851
0.937015907
0.937085531
0.93715638
0.937228051
0.937300079
0.937371944
0.937443081
0.937512886
0.937580726
0.937645949
0.937707893
0.937765903
0.937819334
0.937867571
0.937910033
0.937946187
0.937975557
0.937997735
0.938012385
0.938019251
0.938018165
0.938009046
0.93799191
0.937966864
0.937934111
0.937893946
0.937846751
0.937793003
)
;

boundaryField
{
    closed
    {
        type            calculated;
        value           nonuniform List<scalar> 0();
    }
    open
    {
        type            calculated;
        value           nonuniform List<scalar> 0();
    }
    sides
    {
        type            empty;
    }
    procBoundary3to2
    {
        type            processor;
        value           uniform 0.934248142;
    }
    procBoundary3to4
    {
        type            processor;
        value           uniform 0.937733261;
    }
}


// ************************************************************************* //
