/*--------------------------------*- C++ -*----------------------------------*\
| =========                 |                                                 |
| \\      /  F ield         | OpenFOAM: The Open Source CFD Toolbox           |
|  \\    /   O peration     | Version:  2306                                  |
|   \\  /    A nd           | Website:  www.openfoam.com                      |
|    \\/     M anipulation  |                                                 |
\*---------------------------------------------------------------------------*/
FoamFile
{
    version     2.0;
    format      ascii;
    arch        "LSB;label=32;scalar=64";
    class       volScalarField;
    location    "0.00144";
    object      alpha;
}
// * * * * * * * * * * * * * * * * * * * * * * * * * * * * * * * * * * * * * //

dimensions      [1 -1 -1 0 0 0 0];

internalField   nonuniform List<scalar> 
530
(
7.64077628e-05
7.65540636e-05
7.65237904e-05
7.65038626e-05
7.65797755e-05
7.66648244e-05
7.66799699e-05
7.66574459e-05
7.67341962e-05
7.67643272e-05
7.67914712e-05
7.67696175e-05
7.68764953e-05
7.68645431e-05
7.69050134e-05
7.68989445e-05
7.69978614e-05
7.69663001e-05
7.70195865e-05
7.70152964e-05
7.71134307e-05
7.70657e-05
7.71267575e-05
7.71230647e-05
7.72201449e-05
7.71652319e-05
7.72387146e-05
7.72321342e-05
7.7322015e-05
7.72620394e-05
7.73443702e-05
7.73379433e-05
7.74222009e-05
7.73628985e-05
7.7448773e-05
7.74438226e-05
7.75191763e-05
7.74606436e-05
7.75378223e-05
7.75500382e-05
7.76178309e-05
7.75565625e-05
7.76231216e-05
7.76479291e-05
7.77096877e-05
7.76516512e-05
7.77114542e-05
7.77373341e-05
7.78004225e-05
7.77460491e-05
7.78043724e-05
7.7830024e-05
7.78751468e-05
7.78389858e-05
7.78880344e-05
7.79144336e-05
7.79493373e-05
7.79302773e-05
7.79635549e-05
7.79917399e-05
7.80241391e-05
7.80085884e-05
7.80363258e-05
7.80658752e-05
7.80977284e-05
7.80849717e-05
7.81077862e-05
7.81371502e-05
7.817017e-05
7.81605834e-05
7.81795445e-05
7.82082794e-05
7.82418017e-05
7.82351832e-05
7.82503798e-05
7.82794002e-05
7.83128485e-05
7.83088953e-05
7.83209905e-05
7.83500798e-05
7.83833558e-05
7.8381986e-05
7.83956796e-05
7.84204919e-05
7.84548059e-05
7.84547188e-05
7.84722082e-05
7.84934375e-05
7.85317574e-05
7.85275907e-05
7.85505106e-05
7.85691208e-05
7.86083765e-05
7.86052919e-05
7.86297225e-05
7.86464785e-05
7.86848567e-05
7.86827756e-05
7.87091092e-05
7.8724891e-05
7.87613302e-05
7.87606284e-05
7.87880225e-05
7.88033183e-05
7.8838129e-05
7.88386209e-05
7.88667474e-05
7.88816476e-05
7.8915717e-05
7.89168822e-05
7.89454832e-05
7.89603533e-05
7.89940668e-05
7.89956919e-05
7.90241876e-05
7.90400599e-05
7.9073604e-05
7.90750858e-05
7.91033012e-05
7.91204017e-05
7.91536937e-05
7.9155436e-05
7.91823539e-05
7.92019689e-05
7.92343557e-05
7.92368e-05
7.92613611e-05
7.92845692e-05
7.93158661e-05
7.93188908e-05
7.93408923e-05
7.93680928e-05
7.93980936e-05
7.94018438e-05
7.94212589e-05
7.94520287e-05
7.94812777e-05
7.94854319e-05
7.95032726e-05
7.95364612e-05
7.95654739e-05
7.95699294e-05
7.95864135e-05
7.96215063e-05
7.96505063e-05
7.96555756e-05
7.96756205e-05
7.97078215e-05
7.97385979e-05
7.97426146e-05
7.97681145e-05
7.97977403e-05
7.98306058e-05
7.98323368e-05
7.98633961e-05
7.98910749e-05
7.99231971e-05
7.99244373e-05
7.99600601e-05
7.99860095e-05
8.0016479e-05
8.00170531e-05
8.00571224e-05
8.00819928e-05
8.01103053e-05
8.01102183e-05
8.01535392e-05
8.01786831e-05
8.0205429e-05
8.02040327e-05
8.02506041e-05
8.02768274e-05
8.03011003e-05
8.02986298e-05
8.03462537e-05
8.03734555e-05
8.03969029e-05
8.03927383e-05
8.04337826e-05
8.04671046e-05
8.0483725e-05
8.04867705e-05
8.05191947e-05
8.05542659e-05
8.05695886e-05
8.05736087e-05
8.0603256e-05
8.06389831e-05
8.06548903e-05
8.06607985e-05
8.06861483e-05
8.07228155e-05
8.07394055e-05
8.07470747e-05
8.07687544e-05
8.08060008e-05
8.08234815e-05
8.08325249e-05
8.08519761e-05
8.08886945e-05
8.09065459e-05
8.09170431e-05
8.09353181e-05
8.09709327e-05
8.09886777e-05
8.10006804e-05
8.10178973e-05
8.10531255e-05
8.10692209e-05
8.10832256e-05
8.11023847e-05
8.11330646e-05
8.11496025e-05
8.11648906e-05
8.11846196e-05
8.12156111e-05
8.1231018e-05
8.12454758e-05
8.12702601e-05
8.12976609e-05
8.13115059e-05
8.13267837e-05
8.13550269e-05
8.1379647e-05
8.13899217e-05
8.14065077e-05
8.14373585e-05
8.14602134e-05
8.14677152e-05
8.14841553e-05
8.15142954e-05
8.15371418e-05
8.15442188e-05
8.15593805e-05
8.15902154e-05
8.16102307e-05
8.16188352e-05
8.16327989e-05
8.16653575e-05
8.16824661e-05
8.16928814e-05
8.17051385e-05
8.17416777e-05
8.17526461e-05
8.17659794e-05
8.1775451e-05
8.18167541e-05
8.18254984e-05
8.18370943e-05
8.18459103e-05
8.18900078e-05
8.18978323e-05
8.19046903e-05
8.19177423e-05
8.19611465e-05
8.19662355e-05
8.19711421e-05
8.19850365e-05
8.20267259e-05
8.20309242e-05
8.2035783e-05
8.20495046e-05
8.20908537e-05
8.20926122e-05
8.20985567e-05
8.21130068e-05
8.21521329e-05
8.21525456e-05
8.21592353e-05
8.21748648e-05
8.22125208e-05
8.22115628e-05
8.22181563e-05
8.22350525e-05
8.22733693e-05
8.22705713e-05
8.22753154e-05
8.22939389e-05
8.23316261e-05
8.23293841e-05
8.23294215e-05
8.23526134e-05
8.23835974e-05
8.23869616e-05
8.23807609e-05
8.24089652e-05
8.24323118e-05
8.24405327e-05
8.24313019e-05
8.2459741e-05
8.24798033e-05
8.2490692e-05
8.24825457e-05
8.25093533e-05
8.25304972e-05
8.25385227e-05
8.2534249e-05
8.25580272e-05
8.25817278e-05
8.25844735e-05
8.25843e-05
8.26043448e-05
8.26268857e-05
8.26289017e-05
8.26296688e-05
8.26484591e-05
8.26685648e-05
8.26728134e-05
8.26737529e-05
8.2692983e-05
8.27123889e-05
8.27156145e-05
8.27168143e-05
8.27377216e-05
8.27581945e-05
8.27575278e-05
8.27582698e-05
8.27795754e-05
8.27991237e-05
8.27973898e-05
8.27958915e-05
8.28199693e-05
8.28360411e-05
8.28353095e-05
8.28331397e-05
8.28565241e-05
8.28703886e-05
8.28710697e-05
8.28703135e-05
8.28901291e-05
8.29020747e-05
8.29048309e-05
8.2904903e-05
8.2923831e-05
8.2934487e-05
8.29372813e-05
8.2938723e-05
8.29556073e-05
8.29662328e-05
8.29684775e-05
8.29711961e-05
8.29877479e-05
8.29979855e-05
8.29984777e-05
8.30007608e-05
8.30175588e-05
8.30262582e-05
8.30272588e-05
8.30288828e-05
8.30458055e-05
8.30528773e-05
8.30543156e-05
8.3055388e-05
8.30720225e-05
8.30780515e-05
8.30798302e-05
8.30808911e-05
8.30965826e-05
8.31020652e-05
8.31038701e-05
8.31049769e-05
8.31197854e-05
8.31245388e-05
8.31266865e-05
8.31273781e-05
8.31411169e-05
8.31444453e-05
8.31478691e-05
8.31480278e-05
8.3161426e-05
8.31642052e-05
8.31674597e-05
8.31684597e-05
8.31796713e-05
8.31829204e-05
8.31856336e-05
8.31876106e-05
8.31973059e-05
8.32006931e-05
8.32029271e-05
8.32052144e-05
8.32140329e-05
8.32172375e-05
8.3219229e-05
8.32215924e-05
8.32296832e-05
8.32326655e-05
8.32344945e-05
8.32368555e-05
8.32442957e-05
8.32470484e-05
8.32487454e-05
8.32510359e-05
8.32579409e-05
8.32603853e-05
8.32620284e-05
8.3264123e-05
8.32706426e-05
8.32727374e-05
8.32743607e-05
8.32762452e-05
8.32823744e-05
8.32841857e-05
8.32857876e-05
8.32874898e-05
8.32932544e-05
8.32947842e-05
8.32963685e-05
8.32978522e-05
8.330332e-05
8.33045823e-05
8.33061507e-05
8.33074451e-05
8.33125917e-05
8.33136266e-05
8.3315177e-05
8.33162717e-05
8.33211586e-05
8.33219459e-05
8.33235035e-05
8.33243623e-05
8.33290419e-05
8.33295836e-05
8.33311498e-05
8.33317708e-05
8.33362655e-05
8.33366127e-05
8.33381399e-05
8.33386321e-05
8.33428183e-05
8.33430868e-05
8.33445126e-05
8.33449572e-05
8.33487958e-05
8.33490345e-05
8.33503245e-05
8.33507424e-05
8.3354243e-05
8.3354467e-05
8.33556253e-05
8.33560255e-05
8.33591989e-05
8.33594579e-05
8.33604542e-05
8.33608721e-05
8.33636815e-05
8.33643092e-05
8.33650915e-05
8.33656266e-05
8.33678571e-05
8.33699269e-05
8.33702309e-05
8.33701288e-05
8.33721293e-05
8.33757111e-05
8.33768159e-05
8.33761557e-05
8.33775415e-05
8.33786009e-05
8.33799741e-05
8.33807203e-05
8.33820499e-05
8.33829972e-05
8.33842749e-05
8.33853398e-05
8.33866181e-05
8.33877221e-05
8.33890116e-05
8.33900852e-05
8.33913609e-05
8.33923702e-05
8.33935976e-05
8.3394514e-05
8.3395654e-05
8.33964523e-05
8.33974651e-05
8.3398127e-05
8.33989765e-05
8.33994941e-05
8.34001541e-05
8.3400531e-05
8.34009929e-05
8.34012433e-05
8.34015223e-05
8.34016675e-05
8.34018016e-05
8.34018682e-05
8.34019086e-05
8.34019265e-05
8.34019242e-05
8.34019211e-05
8.34018852e-05
8.34018016e-05
8.3401734e-05
8.34016925e-05
8.34016631e-05
8.34016439e-05
8.34016333e-05
8.3401628e-05
8.34016254e-05
8.34016243e-05
8.34016238e-05
8.34016237e-05
8.34016236e-05
8.34016236e-05
8.34016236e-05
8.34016236e-05
8.34016236e-05
8.34016236e-05
8.34016236e-05
8.34016236e-05
8.34016236e-05
8.34016236e-05
8.34016236e-05
8.34016236e-05
8.34016236e-05
8.34016236e-05
8.34016236e-05
8.34016236e-05
8.34016236e-05
8.34016236e-05
8.34016236e-05
8.34016236e-05
8.34016236e-05
8.34016236e-05
8.34016236e-05
8.34016236e-05
8.34016236e-05
8.34016236e-05
8.34016236e-05
)
;

boundaryField
{
    closed
    {
        type            calculated;
        value           nonuniform List<scalar> 0();
    }
    open
    {
        type            calculated;
        value           uniform 8.34016236e-05;
    }
    sides
    {
        type            empty;
    }
    procBoundary5to4
    {
        type            processor;
        value           uniform 7.63343427e-05;
    }
}


// ************************************************************************* //
