/*--------------------------------*- C++ -*----------------------------------*\
| =========                 |                                                 |
| \\      /  F ield         | OpenFOAM: The Open Source CFD Toolbox           |
|  \\    /   O peration     | Version:  2306                                  |
|   \\  /    A nd           | Website:  www.openfoam.com                      |
|    \\/     M anipulation  |                                                 |
\*---------------------------------------------------------------------------*/
FoamFile
{
    version     2.0;
    format      ascii;
    arch        "LSB;label=32;scalar=64";
    class       volScalarField;
    location    "0.00144";
    object      p;
}
// * * * * * * * * * * * * * * * * * * * * * * * * * * * * * * * * * * * * * //

dimensions      [1 -1 -2 0 0 0 0];

internalField   nonuniform List<scalar> 
530
(
101626.076
101623.436
101624.147
101617.662
101607.962
101605.725
101607.698
101602.904
101594.254
101592.186
101593.415
101588.658
101580.655
101578.498
101579.908
101575.894
101568.446
101566.407
101568.031
101564.48
101557.25
101555.099
101556.799
101553.763
101547.007
101545.095
101547.092
101544.375
101537.72
101535.551
101537.405
101534.661
101528.047
101526.23
101528.4
101526.112
101519.961
101518.194
101520.676
101519.228
101513.759
101512.227
101515.076
101514.747
101510.521
101509.856
101513.623
101514.477
101511.562
101511.884
101516.348
101517.565
101514.823
101515.579
101520.318
101521.622
101519.23
101520.22
101524.722
101525.849
101523.513
101524.376
101528.647
101529.677
101527.266
101527.833
101531.663
101532.364
101529.753
101530.004
101533.354
101533.67
101530.829
101530.776
101533.707
101533.702
101530.687
101530.333
101532.805
101532.462
101529.28
101528.765
101530.926
101530.239
101526.896
101526.239
101528.11
101527.198
101523.716
101522.869
101524.565
101523.545
101520.036
101519.178
101520.809
101519.741
101516.257
101515.465
101517.15
101516.13
101512.711
101512.012
101513.8
101512.877
101509.569
101508.99
101510.882
101510.115
101507.02
101506.588
101508.567
101507.974
101505.109
101504.811
101506.862
101506.435
101503.774
101503.577
101505.668
101505.343
101502.831
101502.716
101504.833
101504.589
101502.165
101502.058
101504.173
101503.992
101501.619
101501.475
101503.555
101503.414
101501.068
101500.866
101502.887
101502.768
101500.46
101500.176
101502.048
101501.881
101499.565
101499.139
101500.781
101500.47
101498.052
101497.485
101498.906
101498.307
101495.674
101494.925
101496.116
101495.298
101492.457
101491.541
101492.615
101491.652
101488.668
101487.703
101488.786
101487.77
101484.696
101483.746
101484.933
101483.99
101480.984
101480.158
101481.517
101480.798
101478.012
101477.395
101479.037
101478.663
101476.236
101476.021
101478.111
101478.295
101476.455
101476.605
101478.996
101479.614
101478.235
101478.783
101481.355
101482.108
101480.936
101481.617
101484.254
101485.104
101484.054
101484.763
101487.301
101488.073
101487.023
101487.648
101489.982
101490.631
101489.573
101490.107
101492.215
101492.689
101491.573
101492.015
101493.907
101494.194
101493
101493.35
101495.028
101495.118
101493.849
101494.159
101495.709
101495.582
101494.214
101494.503
101495.913
101495.554
101493.981
101494.192
101495.53
101495.078
101493.443
101493.721
101495.123
101494.708
101493.197
101493.871
101495.723
101495.744
101494.663
101495.772
101498.063
101498.484
101497.692
101498.81
101501.098
101501.464
101500.607
101501.542
101503.694
101504.048
101503.157
101504.01
101506.009
101506.208
101505.163
101505.784
101507.545
101507.616
101506.465
101506.992
101508.679
101508.735
101507.679
101508.442
101510.264
101510.368
101509.372
101510.105
101511.813
101511.814
101510.736
101511.297
101512.81
101512.769
101511.738
101512.239
101513.586
101513.402
101512.259
101512.518
101513.518
101512.985
101511.55
101511.509
101512.174
101511.347
101509.691
101509.497
101510.033
101509.097
101507.412
101507.292
101507.845
101506.838
101505.127
101505.018
101505.546
101504.504
101502.791
101502.645
101503.153
101502.202
101500.611
101500.51
101501.055
101500.245
101498.814
101498.76
101499.325
101498.643
101497.331
101497.163
101497.532
101496.685
101495.278
101494.941
101495.117
101494.163
101492.717
101492.309
101492.357
101491.302
101489.806
101489.348
101489.263
101488.042
101486.429
101485.896
101485.712
101484.429
101482.885
101482.529
101482.443
101481.251
101479.824
101479.493
101479.417
101478.346
101477.01
101476.595
101476.427
101475.357
101474.068
101473.616
101473.383
101472.329
101471.075
101470.572
101470.266
101469.217
101467.97
101467.407
101466.989
101465.887
101464.66
101464.156
101463.788
101462.805
101461.73
101461.337
101461.027
101460.092
101459.074
101458.698
101458.397
101457.516
101456.56
101456.213
101455.942
101455.136
101454.259
101453.957
101453.73
101453.005
101452.211
101451.953
101451.778
101451.15
101450.487
101450.327
101450.232
101449.691
101449.087
101448.898
101448.787
101448.288
101447.722
101447.521
101447.392
101446.913
101446.377
101446.177
101446.041
101445.583
101445.074
101444.87
101444.724
101444.285
101443.8
101443.596
101443.446
101443.029
101442.573
101442.375
101442.228
101441.836
101441.412
101441.228
101441.087
101440.721
101440.326
101440.152
101440.016
101439.673
101439.304
101439.137
101439.004
101438.68
101438.335
101438.179
101438.055
101437.753
101437.435
101437.292
101437.176
101436.899
101436.606
101436.475
101436.366
101436.104
101435.828
101435.701
101435.592
101435.342
101435.082
101434.963
101434.858
101434.62
101434.371
101434.249
101434.138
101433.903
101433.656
101433.523
101433.398
101433.158
101432.904
101432.753
101432.606
101432.347
101432.07
101431.878
101431.679
101431.363
101431.015
101430.729
101430.423
101429.989
101429.503
101429.074
101428.647
101428.105
101427.543
101427.23
101427.108
101426.939
101426.72
101426.571
101426.48
101426.396
101426.312
101426.228
101426.137
101426.033
101425.909
101425.762
101425.586
101425.376
101425.127
101424.831
101424.481
101424.068
101423.583
101423.014
101422.349
101421.575
101420.678
101419.644
101418.459
101417.111
101415.589
101413.888
101412.004
101409.945
101407.724
101405.365
101402.904
101400.391
101397.883
101395.447
101393.154
101391.067
101389.236
101387.688
101386.419
101385.393
101384.545
101383.794
101383.058
101382.289
101381.509
101380.839
101380.488
101380.683
101381.538
101382.941
101384.558
101385.968
101386.8
101386.701
101385.266
101382.207
101377.652
101372.074
101365.954
101359.894
101354.911
101352.168
101352.161
101354.429
101357.816
101361.319
101364.551
101365.885
101364.521
101363.442
101366.222
101369.845
101368.932
101363.333
)
;

boundaryField
{
    closed
    {
        type            zeroGradient;
    }
    open
    {
        type            waveTransmissive;
        gamma           1.25;
        fieldInf        101325;
        lInf            1;
        value           uniform 101362.75;
    }
    sides
    {
        type            empty;
    }
    procBoundary5to4
    {
        type            processor;
        value           uniform 101635.985;
    }
}


// ************************************************************************* //
