/*--------------------------------*- C++ -*----------------------------------*\
| =========                 |                                                 |
| \\      /  F ield         | OpenFOAM: The Open Source CFD Toolbox           |
|  \\    /   O peration     | Version:  2306                                  |
|   \\  /    A nd           | Website:  www.openfoam.com                      |
|    \\/     M anipulation  |                                                 |
\*---------------------------------------------------------------------------*/
FoamFile
{
    version     2.0;
    format      ascii;
    arch        "LSB;label=32;scalar=64";
    class       volScalarField;
    location    "0.00144";
    object      prefDZ_T;
}
// * * * * * * * * * * * * * * * * * * * * * * * * * * * * * * * * * * * * * //

dimensions      [1 -1 -1 -1 0 0 0];

internalField   nonuniform List<scalar> 
530
(
-9.37130336e-11
-9.515252e-11
-8.7796048e-11
-8.76991492e-11
-9.37294685e-11
-9.4036497e-11
-8.7847049e-11
-8.77477988e-11
-9.37349514e-11
-9.28217469e-11
-8.78115004e-11
-8.77652965e-11
-9.40478175e-11
-9.19782951e-11
-8.78242034e-11
-8.77942199e-11
-9.39684339e-11
-9.14895288e-11
-8.78350164e-11
-8.78119622e-11
-9.36461928e-11
-9.12958733e-11
-8.78366138e-11
-8.78193475e-11
-9.33066059e-11
-9.11043916e-11
-8.78402228e-11
-8.78225312e-11
-9.30109088e-11
-9.08992954e-11
-8.78374037e-11
-8.78189678e-11
-9.28754557e-11
-9.06168138e-11
-8.78493068e-11
-8.78134032e-11
-9.26901953e-11
-9.04848802e-11
-8.78657413e-11
-8.78058553e-11
-9.25547371e-11
-9.03109168e-11
-8.79300443e-11
-8.77898678e-11
-9.2377828e-11
-9.02341596e-11
-8.78926614e-11
-8.77657661e-11
-9.21820624e-11
-9.02672621e-11
-8.77809929e-11
-8.77441355e-11
-9.18894583e-11
-9.03474141e-11
-8.77065144e-11
-8.77145726e-11
-9.17067779e-11
-9.03090551e-11
-8.76672036e-11
-8.76801052e-11
-9.15517021e-11
-9.02984645e-11
-8.76263145e-11
-8.7642342e-11
-9.14063583e-11
-9.02676084e-11
-8.75857058e-11
-8.76020034e-11
-9.12829473e-11
-9.02107944e-11
-8.7545941e-11
-8.75615197e-11
-9.11696857e-11
-9.01420047e-11
-8.75062018e-11
-8.75213573e-11
-9.10608061e-11
-9.00644145e-11
-8.74661956e-11
-8.74811318e-11
-9.09774926e-11
-8.99830242e-11
-8.74287337e-11
-8.74411799e-11
-9.08846962e-11
-8.98997406e-11
-8.73933026e-11
-8.74030844e-11
-9.07553436e-11
-8.98310667e-11
-8.73597196e-11
-8.73673547e-11
-9.06333783e-11
-8.97364598e-11
-8.73273669e-11
-8.73336134e-11
-9.0520012e-11
-8.96460534e-11
-8.72958871e-11
-8.73014548e-11
-9.04114749e-11
-8.95592287e-11
-8.72650477e-11
-8.72702926e-11
-9.03069762e-11
-8.94784546e-11
-8.72345323e-11
-8.72395701e-11
-9.02026281e-11
-8.94036259e-11
-8.72047976e-11
-8.72100029e-11
-9.01062884e-11
-8.93310459e-11
-8.71761334e-11
-8.71821795e-11
-9.00119343e-11
-8.92551967e-11
-8.71487399e-11
-8.71560234e-11
-8.99308818e-11
-8.91735748e-11
-8.71224433e-11
-8.71317978e-11
-8.98648364e-11
-8.90889888e-11
-8.7097327e-11
-8.71095836e-11
-8.98105024e-11
-8.90065452e-11
-8.70737701e-11
-8.70892207e-11
-8.97619744e-11
-8.89307739e-11
-8.70520343e-11
-8.70702104e-11
-8.97125085e-11
-8.88624053e-11
-8.70322799e-11
-8.70526379e-11
-8.96579202e-11
-8.87991556e-11
-8.70148915e-11
-8.70367761e-11
-8.96119321e-11
-8.874357e-11
-8.70020703e-11
-8.70227577e-11
-8.95619014e-11
-8.86891025e-11
-8.69931406e-11
-8.70119368e-11
-8.94888096e-11
-8.86375021e-11
-8.698768e-11
-8.70048476e-11
-8.94126501e-11
-8.85791522e-11
-8.69847705e-11
-8.70006777e-11
-8.93388389e-11
-8.85214465e-11
-8.69835946e-11
-8.69987066e-11
-8.92709746e-11
-8.84666997e-11
-8.69831685e-11
-8.69988094e-11
-8.92034497e-11
-8.84147005e-11
-8.69847508e-11
-8.70016075e-11
-8.91512946e-11
-8.83618758e-11
-8.69874883e-11
-8.70054366e-11
-8.90860423e-11
-8.83285106e-11
-8.69874961e-11
-8.70095155e-11
-8.90640006e-11
-8.82987011e-11
-8.69883947e-11
-8.70124456e-11
-8.90382299e-11
-8.829768e-11
-8.69909183e-11
-8.70156939e-11
-8.90147612e-11
-8.82861594e-11
-8.69953127e-11
-8.70205123e-11
-8.90004275e-11
-8.827473e-11
-8.70014667e-11
-8.70270031e-11
-8.89824319e-11
-8.82637579e-11
-8.70106116e-11
-8.70356298e-11
-8.8954058e-11
-8.82475439e-11
-8.70226079e-11
-8.70465253e-11
-8.89236847e-11
-8.82205394e-11
-8.70367356e-11
-8.70597577e-11
-8.8893079e-11
-8.81919561e-11
-8.70544194e-11
-8.70738803e-11
-8.88756398e-11
-8.81569784e-11
-8.70725701e-11
-8.70918593e-11
-8.88447859e-11
-8.81314127e-11
-8.70952969e-11
-8.71114685e-11
-8.87849968e-11
-8.80894872e-11
-8.71196183e-11
-8.71330963e-11
-8.87581874e-11
-8.8046137e-11
-8.71437502e-11
-8.71560503e-11
-8.8728763e-11
-8.80369588e-11
-8.71649348e-11
-8.71782938e-11
-8.86938295e-11
-8.80532513e-11
-8.71871226e-11
-8.71993061e-11
-8.86603399e-11
-8.80806163e-11
-8.72114549e-11
-8.72214168e-11
-8.86025398e-11
-8.81061826e-11
-8.7238397e-11
-8.72434031e-11
-8.85277476e-11
-8.81235487e-11
-8.72654328e-11
-8.72688142e-11
-8.846211e-11
-8.80893917e-11
-8.7293098e-11
-8.72953753e-11
-8.84623942e-11
-8.80498973e-11
-8.73210187e-11
-8.73208607e-11
-8.84557766e-11
-8.80644925e-11
-8.73459709e-11
-8.73450619e-11
-8.8423858e-11
-8.80867328e-11
-8.73714515e-11
-8.73685448e-11
-8.83912443e-11
-8.81064671e-11
-8.73965576e-11
-8.73922376e-11
-8.83720202e-11
-8.81229751e-11
-8.74227252e-11
-8.74169975e-11
-8.83447738e-11
-8.81350763e-11
-8.74507284e-11
-8.74433648e-11
-8.83158626e-11
-8.81382625e-11
-8.74781305e-11
-8.74710932e-11
-8.83447532e-11
-8.81280532e-11
-8.75021051e-11
-8.74990699e-11
-8.84105877e-11
-8.81261362e-11
-8.7524764e-11
-8.75253282e-11
-8.84404936e-11
-8.81546879e-11
-8.75474748e-11
-8.75503385e-11
-8.84301207e-11
-8.81802362e-11
-8.7573821e-11
-8.75747933e-11
-8.8413164e-11
-8.81967966e-11
-8.76016842e-11
-8.75990786e-11
-8.8394603e-11
-8.82148006e-11
-8.76260984e-11
-8.76229937e-11
-8.84013781e-11
-8.82344012e-11
-8.76491173e-11
-8.76476951e-11
-8.84021185e-11
-8.82370039e-11
-8.76750356e-11
-8.76726756e-11
-8.83947481e-11
-8.82243286e-11
-8.77035059e-11
-8.76980777e-11
-8.83877225e-11
-8.82178162e-11
-8.77292196e-11
-8.77226231e-11
-8.84004887e-11
-8.82089559e-11
-8.77526727e-11
-8.77467616e-11
-8.83998026e-11
-8.82152534e-11
-8.77745515e-11
-8.77701836e-11
-8.83867599e-11
-8.82305285e-11
-8.77950584e-11
-8.77925872e-11
-8.83808947e-11
-8.82322627e-11
-8.78170546e-11
-8.78148784e-11
-8.83683474e-11
-8.82359332e-11
-8.78391347e-11
-8.78368968e-11
-8.83537623e-11
-8.8224768e-11
-8.78621286e-11
-8.78584056e-11
-8.83488699e-11
-8.8218748e-11
-8.78830785e-11
-8.7879671e-11
-8.83436682e-11
-8.82133551e-11
-8.7903173e-11
-8.79001793e-11
-8.83398674e-11
-8.82115274e-11
-8.79225735e-11
-8.79200558e-11
-8.83326742e-11
-8.82116517e-11
-8.79414951e-11
-8.79392588e-11
-8.83258097e-11
-8.82114904e-11
-8.79596099e-11
-8.79579201e-11
-8.83219244e-11
-8.8215094e-11
-8.79760777e-11
-8.79755461e-11
-8.83215373e-11
-8.82173695e-11
-8.79926769e-11
-8.79924414e-11
-8.83133007e-11
-8.82257789e-11
-8.80086697e-11
-8.800848e-11
-8.83052944e-11
-8.82298281e-11
-8.80243521e-11
-8.80240039e-11
-8.83002399e-11
-8.82317992e-11
-8.80393773e-11
-8.80390055e-11
-8.82962075e-11
-8.82334596e-11
-8.80537484e-11
-8.80533997e-11
-8.82925202e-11
-8.8234878e-11
-8.80674858e-11
-8.80671834e-11
-8.82894719e-11
-8.82359435e-11
-8.80805611e-11
-8.80803329e-11
-8.82873941e-11
-8.8236864e-11
-8.80929947e-11
-8.80928638e-11
-8.82857349e-11
-8.82381264e-11
-8.81047966e-11
-8.81047851e-11
-8.82841867e-11
-8.82392965e-11
-8.81160124e-11
-8.81160865e-11
-8.82830168e-11
-8.82404127e-11
-8.81266631e-11
-8.81268128e-11
-8.82817919e-11
-8.82416078e-11
-8.81367497e-11
-8.81369727e-11
-8.82808228e-11
-8.8242616e-11
-8.81462803e-11
-8.81465903e-11
-8.82802166e-11
-8.82435109e-11
-8.81552718e-11
-8.81556576e-11
-8.82798506e-11
-8.8244589e-11
-8.8163768e-11
-8.81641901e-11
-8.82790104e-11
-8.82461587e-11
-8.81717902e-11
-8.81722041e-11
-8.8277864e-11
-8.82478249e-11
-8.81793516e-11
-8.8179731e-11
-8.82767732e-11
-8.82495301e-11
-8.81864499e-11
-8.81868076e-11
-8.82756824e-11
-8.82512633e-11
-8.81931496e-11
-8.81934762e-11
-8.82742008e-11
-8.82531466e-11
-8.81996813e-11
-8.81999957e-11
-8.82693544e-11
-8.82536934e-11
-8.82067949e-11
-8.82069914e-11
-8.82617135e-11
-8.82492682e-11
-8.8229823e-11
-8.82260889e-11
-8.82433771e-11
-8.82391762e-11
-8.82419193e-11
-8.82388763e-11
-8.82442827e-11
-8.82422088e-11
-8.82464823e-11
-8.82448217e-11
-8.82491648e-11
-8.82475437e-11
-8.8252023e-11
-8.8250398e-11
-8.82549216e-11
-8.82533677e-11
-8.82577781e-11
-8.82564008e-11
-8.82605177e-11
-8.82594204e-11
-8.82630666e-11
-8.82623267e-11
-8.82653556e-11
-8.82650049e-11
-8.82673275e-11
-8.82673372e-11
-8.82689449e-11
-8.82692207e-11
-8.82701933e-11
-8.82705916e-11
-8.82710779e-11
-8.82714479e-11
-8.82716185e-11
-8.82718556e-11
-8.82718543e-11
-8.82719269e-11
-8.8271856e-11
-8.82718306e-11
-8.82718868e-11
-8.82719225e-11
-8.82719359e-11
-8.82719416e-11
-8.82719421e-11
-8.8271941e-11
-8.82719395e-11
-8.82719384e-11
-8.82719377e-11
-8.82719374e-11
-8.82719372e-11
-8.82719371e-11
-8.82719371e-11
-8.82719371e-11
-8.82719371e-11
-8.82719371e-11
-8.82719371e-11
-8.82719371e-11
-8.82719371e-11
-8.82719371e-11
-8.82719371e-11
-8.82719371e-11
-8.82719371e-11
-8.82719371e-11
-8.82719371e-11
-8.82719371e-11
-8.82719371e-11
-8.82719371e-11
-8.82719371e-11
-8.82719371e-11
-8.82719371e-11
-8.82719371e-11
-8.82719371e-11
-8.82719371e-11
-8.82719371e-11
-8.82719371e-11
-8.82719371e-11
-8.82719371e-11
)
;

boundaryField
{
    closed
    {
        type            calculated;
        value           nonuniform List<scalar> 0();
    }
    open
    {
        type            calculated;
        value           uniform -8.82719371e-11;
    }
    sides
    {
        type            empty;
    }
    procBoundary5to4
    {
        type            processor;
        value           uniform -8.76396624e-11;
    }
}


// ************************************************************************* //
