/*--------------------------------*- C++ -*----------------------------------*\
| =========                 |                                                 |
| \\      /  F ield         | OpenFOAM: The Open Source CFD Toolbox           |
|  \\    /   O peration     | Version:  2306                                  |
|   \\  /    A nd           | Website:  www.openfoam.com                      |
|    \\/     M anipulation  |                                                 |
\*---------------------------------------------------------------------------*/
FoamFile
{
    version     2.0;
    format      ascii;
    arch        "LSB;label=32;scalar=64";
    class       volScalarField;
    location    "0.00068";
    object      prefDh_H2;
}
// * * * * * * * * * * * * * * * * * * * * * * * * * * * * * * * * * * * * * //

dimensions      [1 1 -3 0 0 0 0];

internalField   nonuniform List<scalar> 
530
(
37.513414
30.2761697
28.9350848
28.9181511
28.9166226
28.9165886
28.9165867
28.9165866
28.9165866
28.9165866
28.9165866
28.9165866
28.9165866
28.9165866
28.9165866
28.9165866
28.9165866
28.9165866
28.9165866
28.9165866
28.9165866
28.9165866
28.9165866
28.9165866
28.9165866
28.9165866
28.9165866
28.9165866
28.9165866
28.9165866
28.9165866
28.9165866
28.9165866
28.9165866
28.9165866
28.9165866
28.9165866
28.9165866
28.9165866
28.9165866
28.9165866
28.9165866
28.9165866
28.9165866
28.9165866
28.9165866
28.9165866
28.9165866
28.9165866
28.9165866
28.9165866
28.9165866
28.9165866
28.9165866
28.9165866
28.9165866
28.9165866
28.9165866
28.9165866
28.9165866
28.9165866
28.9165866
28.9165866
28.9165866
28.9165866
28.9165866
28.9165866
28.9165866
28.9165866
28.9165867
28.9165867
28.916587
28.9165874
28.9165892
28.9165921
28.9166016
28.916622
28.9166587
28.916735
28.9169414
28.9172612
28.917784
28.9187032
28.9204728
28.9227804
28.9292649
28.9425994
28.9612739
28.91448
28.9105912
29.0278487
29.504329
29.124491
29.3210852
28.784656
38.7578467
38.7188635
28.9038226
25.759513
25.0987222
28.2881507
37.9358761
38.6349809
38.6048669
28.9475183
24.5896006
22.211436
24.6882236
37.8430505
38.5625781
38.2489264
28.8943478
22.7692185
21.5443453
22.7566562
38.0745506
38.0381559
38.1381867
38.1548985
28.8886415
22.671469
25.7799789
38.2814473
38.4166852
28.8666285
22.5015624
25.5482723
38.1304388
38.7789098
27.5657128
26.1764026
38.1305147
38.2661655
28.8655305
22.8906155
25.4982439
37.969567
38.7388481
26.8192304
24.9102969
37.8570485
38.580399
26.5631654
25.0828683
38.1368292
38.1844353
28.8867367
22.4965777
24.9411051
37.9766547
38.7229741
26.7085175
24.731342
37.9501931
38.6349135
26.4298677
25.0899273
38.25606
38.2522963
28.7963639
23.5591991
25.748137
38.2342035
38.7212092
28.3878532
26.6251208
38.353577
38.3130584
28.8016433
24.2875112
26.1525711
38.2696127
38.5386081
29.0747823
26.53424
23.9177619
23.9013212
38.0304638
38.5477182
25.8657701
23.823966
38.0240889
38.5023603
26.2730319
24.8503601
38.2911546
38.1206546
28.900523
23.3753498
25.0101283
38.1662906
38.5736546
28.3797049
26.3386217
38.3226317
38.2543944
29.0246053
23.3027455
24.8081646
38.4506491
38.113138
28.888561
22.4886792
23.5228215
38.0195434
38.5029243
26.5172235
24.3057757
37.8708937
38.4646368
25.9822128
24.155252
37.8250771
38.3996261
25.9668943
24.1645917
37.8199985
38.3729382
25.78805
23.9478782
37.8318111
38.3702728
25.3952312
23.6422504
37.8846846
38.3834779
25.2021118
23.4601099
37.9626176
38.3929742
25.4219381
23.8929892
38.1297373
38.3411187
26.3083213
24.7435694
38.4723197
38.030397
29.0358332
21.5953425
22.8889321
38.1013569
38.4882547
26.4872581
24.4987502
38.2783448
38.4614406
26.626417
25.0681587
38.5696356
38.1571064
28.9113451
22.3217239
23.6124972
38.3697488
38.4950527
27.2548453
25.3240156
38.6888837
38.2225863
28.8188494
22.8759913
24.076993
38.3507339
38.6389717
28.1235607
26.6555104
38.4942299
38.4597367
29.0949395
27.2306343
23.1720013
23.1961564
38.3049756
38.3640247
27.166119
24.2466561
30.8547585
38.0152838
38.4033443
24.9918951
22.5992864
35.0974146
38.1042354
37.5960028
29.1625756
24.5242338
22.8817815
22.9397868
38.2138167
37.8277797
29.0578692
22.7591749
23.876816
32.0563295
37.9742475
37.9974143
24.7087064
21.4256394
38.2966525
37.8441247
29.1641256
23.2662804
23.3079605
38.3914144
38.1120403
28.961618
22.5756479
23.1137088
38.3694769
38.4147407
27.3734999
25.2062154
38.4940094
38.1001589
28.9169236
22.4988385
22.8549797
37.9709784
38.3263723
24.8904091
23.4742383
37.9420884
38.148372
37.8724638
38.1683388
29.6138934
23.3268762
20.6996508
20.7627185
37.7353473
38.1193527
24.5915777
23.4434642
37.9148833
38.1480057
26.5874666
25.2106318
38.2559555
37.9944638
28.9524139
22.9272207
23.3349718
38.149187
38.4952361
26.6403362
24.7001188
38.2667368
38.4817968
26.623594
25.1913176
38.421275
38.322842
28.8954466
23.6311094
24.2933246
38.5029978
38.2506834
29.0483985
22.8407422
26.0545741
38.4815821
29.0651436
23.6166534
34.919271
38.3537635
37.9023319
29.0143452
21.9469127
23.3011163
38.2852309
38.1367728
29.0190677
22.5636765
26.2195074
38.2214248
29.3438312
22.7241497
38.2396737
38.166111
38.1124942
25.6264055
20.3540438
38.4108552
37.8790353
28.8591641
22.4729736
22.9829206
38.1194441
38.3743438
26.4339693
25.1373412
38.4205622
38.1118336
28.7388507
23.2717187
27.1692482
38.2031233
38.8958194
25.0835057
25.028703
38.4898264
28.56965
23.3103032
38.8912395
38.3422412
28.5615525
25.0637006
28.3837623
38.5508822
38.6158052
28.9148943
22.4761059
27.2698778
38.6998343
28.6487716
22.8107971
38.928643
38.5615169
26.1665761
24.7007219
38.9892601
38.5057888
28.5742812
25.2569092
28.754713
38.5979387
38.561177
28.8463198
24.0314706
25.3401864
38.4365958
38.7984405
25.8102049
24.7305356
38.395353
38.3587327
29.4278805
27.3307658
24.6738603
24.6460491
38.5296575
38.4839455
28.8359754
23.867003
24.4343822
38.6572505
38.4561199
28.7633369
24.3658943
24.769336
38.5902445
38.390063
28.8544127
24.6111506
24.603221
38.4237128
38.256599
29.0547513
20.8416426
21.9043085
38.2075417
38.1890132
38.2327099
38.2652141
27.8212286
20.1748848
22.0137833
38.1800301
38.0692809
29.1351805
22.4649756
23.3386615
38.2864593
38.4118963
27.0656756
24.9881282
38.6309344
38.2816365
28.7309136
23.2622083
26.6118933
38.4672384
28.6743989
24.3794275
38.9047119
38.5004898
28.5888312
25.3056953
26.2665423
38.5998517
38.4553664
28.9592878
23.3615436
25.9788916
38.5421254
28.6890985
23.3767718
38.9189146
38.5019589
28.5645535
24.9791768
26.1346405
38.5311974
38.4266541
28.9246347
23.1424376
25.5085717
38.4505499
28.8880275
23.155065
38.9938037
38.469997
28.6062917
25.0447931
26.3009662
38.5190363
38.3758519
28.7572216
22.91094
23.3710809
38.5014994
38.7087168
26.2040394
26.2234249
38.4872879
28.6229041
24.4626516
38.7793405
38.4759522
)
;

boundaryField
{
    closed
    {
        type            calculated;
        value           uniform 248.289171;
    }
    open
    {
        type            calculated;
        value           nonuniform List<scalar> 0();
    }
    sides
    {
        type            empty;
    }
    procBoundary0to1
    {
        type            processor;
        value           uniform 28.6072908;
    }
}


// ************************************************************************* //
