/*--------------------------------*- C++ -*----------------------------------*\
| =========                 |                                                 |
| \\      /  F ield         | OpenFOAM: The Open Source CFD Toolbox           |
|  \\    /   O peration     | Version:  2306                                  |
|   \\  /    A nd           | Website:  www.openfoam.com                      |
|    \\/     M anipulation  |                                                 |
\*---------------------------------------------------------------------------*/
FoamFile
{
    version     2.0;
    format      ascii;
    arch        "LSB;label=32;scalar=64";
    class       volScalarField;
    location    "0.00068";
    object      prefDPV_T;
}
// * * * * * * * * * * * * * * * * * * * * * * * * * * * * * * * * * * * * * //

dimensions      [1 -1 -1 -1 0 0 0];

internalField   nonuniform List<scalar> 
530
(
6.00966675e-10
5.97774275e-10
5.97548664e-10
5.9754973e-10
5.97549776e-10
5.97549775e-10
5.97549775e-10
5.97549775e-10
5.97549775e-10
5.97549775e-10
5.97549775e-10
5.97549775e-10
5.97549775e-10
5.97549775e-10
5.97549775e-10
5.97549775e-10
5.97549775e-10
5.97549775e-10
5.97549775e-10
5.97549775e-10
5.97549775e-10
5.97549775e-10
5.97549775e-10
5.97549775e-10
5.97549775e-10
5.97549775e-10
5.97549775e-10
5.97549775e-10
5.97549775e-10
5.97549775e-10
5.97549775e-10
5.97549775e-10
5.97549775e-10
5.97549775e-10
5.97549775e-10
5.97549775e-10
5.97549775e-10
5.97549775e-10
5.97549775e-10
5.97549775e-10
5.97549775e-10
5.97549775e-10
5.97549775e-10
5.97549775e-10
5.97549775e-10
5.97549775e-10
5.97549775e-10
5.97549775e-10
5.97549775e-10
5.97549775e-10
5.97549775e-10
5.97549775e-10
5.97549775e-10
5.97549775e-10
5.97549775e-10
5.97549775e-10
5.97549775e-10
5.97549775e-10
5.97549775e-10
5.97549775e-10
5.97549775e-10
5.97549775e-10
5.97549775e-10
5.97549775e-10
5.97549775e-10
5.97549775e-10
5.97549775e-10
5.97549775e-10
5.97549775e-10
5.97549775e-10
5.97549775e-10
5.97549775e-10
5.97549775e-10
5.97549775e-10
5.97549774e-10
5.97549777e-10
5.97549784e-10
5.9754976e-10
5.97549755e-10
5.97549862e-10
5.97550014e-10
5.97549686e-10
5.97549517e-10
5.9754936e-10
5.9754767e-10
5.97554214e-10
5.9758875e-10
5.9759921e-10
5.97377343e-10
5.97089194e-10
5.97699006e-10
5.99085431e-10
5.98016784e-10
5.91468979e-10
5.917641e-10
6.09539405e-10
6.09031003e-10
5.94674925e-10
5.90023977e-10
5.90017105e-10
5.90781578e-10
6.09771116e-10
6.07933903e-10
6.08729327e-10
5.94220066e-10
5.89797876e-10
5.89180443e-10
5.89783776e-10
6.10803867e-10
6.08214294e-10
6.0949437e-10
5.93508044e-10
5.89392885e-10
5.88909336e-10
5.89375606e-10
6.10680164e-10
6.09281993e-10
6.09340966e-10
6.09334564e-10
5.94046627e-10
5.89333191e-10
5.90131096e-10
6.09466213e-10
6.08926154e-10
5.92935724e-10
5.89271549e-10
5.90003491e-10
6.09727288e-10
6.08694974e-10
5.90635072e-10
5.90265113e-10
6.09787691e-10
6.0891345e-10
5.92883137e-10
5.89432752e-10
5.89984151e-10
6.09740028e-10
6.08729224e-10
5.90502208e-10
5.8981967e-10
6.1029207e-10
6.08827244e-10
5.90367546e-10
5.89966137e-10
6.09880716e-10
6.09045017e-10
5.92864379e-10
5.8933233e-10
5.89807954e-10
6.0977832e-10
6.08718915e-10
5.9047786e-10
5.89738422e-10
6.10259128e-10
6.08788444e-10
5.9031309e-10
5.8993623e-10
6.09780406e-10
6.08913629e-10
5.93973702e-10
5.89582759e-10
5.90041159e-10
6.09441785e-10
6.08507351e-10
5.90894566e-10
5.90381428e-10
6.09530509e-10
6.08709281e-10
5.94475436e-10
5.89772788e-10
5.90183703e-10
6.09190337e-10
6.08420879e-10
5.94694453e-10
5.90355412e-10
5.8967279e-10
5.89554606e-10
6.09862906e-10
6.08844804e-10
5.90233585e-10
5.89483565e-10
6.10260812e-10
6.08846828e-10
5.90338329e-10
5.89902828e-10
6.09722206e-10
6.08957452e-10
5.94192464e-10
5.89573291e-10
5.89852935e-10
6.09460722e-10
6.08584918e-10
5.90979583e-10
5.903234e-10
6.09498446e-10
6.08789425e-10
5.93903987e-10
5.89462305e-10
5.89904857e-10
6.09164613e-10
6.0896078e-10
5.94653375e-10
5.89312519e-10
5.89404508e-10
6.09724755e-10
6.08801146e-10
5.90545809e-10
5.89646676e-10
6.10203636e-10
6.0881117e-10
5.90444391e-10
5.89628882e-10
6.10242578e-10
6.08844234e-10
5.90458309e-10
5.89649748e-10
6.10241489e-10
6.08862921e-10
5.9041413e-10
5.89584863e-10
6.1026754e-10
6.08889181e-10
5.90292727e-10
5.89483641e-10
6.10283911e-10
6.08914963e-10
5.90216345e-10
5.89422e-10
6.10225083e-10
6.08898677e-10
5.90243993e-10
5.89561995e-10
6.10028359e-10
6.08842043e-10
5.90416958e-10
5.89906977e-10
6.09462545e-10
6.09076899e-10
5.93138448e-10
5.89068753e-10
5.89207113e-10
6.09649706e-10
6.08807351e-10
5.9049194e-10
5.89694524e-10
6.09813569e-10
6.08708095e-10
5.90471612e-10
5.89954221e-10
6.09348777e-10
6.0893109e-10
5.93869758e-10
5.89194585e-10
5.89406823e-10
6.09379284e-10
6.08693523e-10
5.90578846e-10
5.90001935e-10
6.09234052e-10
6.08842909e-10
5.94017461e-10
5.89345727e-10
5.89501206e-10
6.09278908e-10
6.08499743e-10
5.9088992e-10
5.90329782e-10
6.0924006e-10
6.08305102e-10
5.96142037e-10
5.90553687e-10
5.89420405e-10
5.89305457e-10
6.09662146e-10
6.08830127e-10
5.90559433e-10
5.89722294e-10
6.02764135e-10
6.08960366e-10
6.0913006e-10
5.90055813e-10
5.8917721e-10
6.10227158e-10
6.08570869e-10
6.09626616e-10
5.95906368e-10
5.89979448e-10
5.89345162e-10
5.89451246e-10
6.09718032e-10
6.09187763e-10
5.94644205e-10
5.89481464e-10
5.89632637e-10
6.05138832e-10
6.08981654e-10
6.09604096e-10
5.89834277e-10
5.8901614e-10
6.09828468e-10
6.09210622e-10
5.9672401e-10
5.89478343e-10
5.89456941e-10
6.09131698e-10
6.08987553e-10
5.9618608e-10
5.89213381e-10
5.89262817e-10
6.09339473e-10
6.08734372e-10
5.90577701e-10
5.90002096e-10
6.09323776e-10
6.08901046e-10
5.95590231e-10
5.89282996e-10
5.89202842e-10
6.09678261e-10
6.08857024e-10
5.9002302e-10
5.89451913e-10
6.10531259e-10
6.09040213e-10
6.09429532e-10
6.09080546e-10
5.92393771e-10
5.89532813e-10
5.88786892e-10
5.88686342e-10
6.1049377e-10
6.09113102e-10
5.89962705e-10
5.89486203e-10
6.10056373e-10
6.08838738e-10
5.90474979e-10
5.90089071e-10
6.0940203e-10
6.08916913e-10
5.95526099e-10
5.89394588e-10
5.89328014e-10
6.09400758e-10
6.08689221e-10
5.90422421e-10
5.89729909e-10
6.09657925e-10
6.08594226e-10
5.90362367e-10
5.8993881e-10
6.09253486e-10
6.08725047e-10
5.94649581e-10
5.89463757e-10
5.89679821e-10
6.08934135e-10
6.08816185e-10
5.97065815e-10
5.89230586e-10
5.90165719e-10
6.09361079e-10
5.93722717e-10
5.89387605e-10
6.09924349e-10
6.08384003e-10
6.09546043e-10
5.93308194e-10
5.89043955e-10
5.89394538e-10
6.09060506e-10
6.08952592e-10
5.95855909e-10
5.89242866e-10
5.90296378e-10
6.09591079e-10
5.91512181e-10
5.89285594e-10
6.10022304e-10
6.08840275e-10
6.0966517e-10
5.90002427e-10
5.88633667e-10
6.09426545e-10
6.09298136e-10
5.948199e-10
5.89299538e-10
5.89225167e-10
6.09370169e-10
6.08744239e-10
5.90308446e-10
5.89982045e-10
6.0912573e-10
6.08836006e-10
5.93748728e-10
5.89501962e-10
5.90374887e-10
6.09323808e-10
6.0817121e-10
5.8989397e-10
5.89674692e-10
6.09437568e-10
5.94349741e-10
5.8935848e-10
6.0869178e-10
6.08741519e-10
5.93272396e-10
5.89922612e-10
5.90776759e-10
6.08639541e-10
6.0834335e-10
5.96393458e-10
5.88997175e-10
5.90447217e-10
6.09252274e-10
5.92731833e-10
5.89110981e-10
6.08871198e-10
6.08696141e-10
5.8997314e-10
5.89722713e-10
6.08776437e-10
6.08578391e-10
5.92790746e-10
5.89945563e-10
5.90893406e-10
6.08546715e-10
6.08258935e-10
5.95663466e-10
5.89546684e-10
5.89854476e-10
6.09022356e-10
6.08516176e-10
5.90111853e-10
5.89712728e-10
6.09152481e-10
6.08401887e-10
5.98504192e-10
5.90559001e-10
5.89800028e-10
5.897026e-10
6.08897229e-10
6.08655099e-10
5.93436346e-10
5.89476135e-10
5.89631644e-10
6.08609962e-10
6.08633317e-10
5.94464376e-10
5.89642422e-10
5.89744873e-10
6.08597211e-10
6.08623858e-10
5.94659696e-10
5.89766703e-10
5.89761527e-10
6.08648392e-10
6.08783989e-10
5.93488404e-10
5.88715321e-10
5.88976982e-10
6.09628576e-10
6.09250513e-10
6.0903711e-10
6.09206407e-10
5.90795393e-10
5.88534533e-10
5.89047851e-10
6.09051757e-10
6.09102111e-10
5.92566026e-10
5.89234714e-10
5.89334724e-10
6.09116698e-10
6.0870401e-10
5.9045648e-10
5.89892235e-10
6.08865933e-10
6.08750997e-10
5.949777e-10
5.8937683e-10
5.90218526e-10
6.09139002e-10
5.95460896e-10
5.89619179e-10
6.08598632e-10
6.08558474e-10
5.94259373e-10
5.89926677e-10
5.90160507e-10
6.08605719e-10
6.08516801e-10
5.96917548e-10
5.89324148e-10
5.90011627e-10
6.09163607e-10
5.95936107e-10
5.89286265e-10
6.08655587e-10
6.08658993e-10
5.93998934e-10
5.89842985e-10
5.90122574e-10
6.08630905e-10
6.08557197e-10
5.96430736e-10
5.89281575e-10
5.89900749e-10
6.09229507e-10
5.97036511e-10
5.89233387e-10
6.08807317e-10
6.08706785e-10
5.93675802e-10
5.89885803e-10
5.90219017e-10
6.08598978e-10
6.0859943e-10
5.95070055e-10
5.89208524e-10
5.89215162e-10
6.09090567e-10
6.08449181e-10
5.9012297e-10
5.9010614e-10
6.09113966e-10
5.93549062e-10
5.89637507e-10
6.08638396e-10
6.08586799e-10
)
;

boundaryField
{
    closed
    {
        type            calculated;
        value           uniform 7.28572857e-10;
    }
    open
    {
        type            calculated;
        value           nonuniform List<scalar> 0();
    }
    sides
    {
        type            empty;
    }
    procBoundary0to1
    {
        type            processor;
        value           uniform 5.94215741e-10;
    }
}


// ************************************************************************* //
