/*--------------------------------*- C++ -*----------------------------------*\
| =========                 |                                                 |
| \\      /  F ield         | OpenFOAM: The Open Source CFD Toolbox           |
|  \\    /   O peration     | Version:  2306                                  |
|   \\  /    A nd           | Website:  www.openfoam.com                      |
|    \\/     M anipulation  |                                                 |
\*---------------------------------------------------------------------------*/
FoamFile
{
    version     2.0;
    format      ascii;
    arch        "LSB;label=32;scalar=64";
    class       volScalarField;
    location    "0.00068";
    object      PV;
}
// * * * * * * * * * * * * * * * * * * * * * * * * * * * * * * * * * * * * * //

dimensions      [0 0 0 0 0 0 0];

internalField   nonuniform List<scalar> 
530
(
-0.00715819113
-0.00712531388
-0.00711470083
-0.00711451383
-0.00711449603
-0.00711449553
-0.0071144955
-0.0071144955
-0.00711449549
-0.00711449544
-0.0071144952
-0.00711449491
-0.00711449452
-0.00711449411
-0.00711449398
-0.00711449377
-0.00711449376
-0.00711449404
-0.00711449406
-0.00711449436
-0.00711449435
-0.00711449454
-0.00711449464
-0.00711449468
-0.00711449467
-0.00711449462
-0.00711449452
-0.00711449443
-0.00711449431
-0.0071144943
-0.00711449415
-0.00711449414
-0.00711449412
-0.0071144941
-0.00711449415
-0.0071144941
-0.00711449415
-0.00711449415
-0.00711449416
-0.0071144941
-0.00711449415
-0.00711449399
-0.00711449407
-0.00711449387
-0.00711449384
-0.00711449372
-0.00711449362
-0.00711449351
-0.00711449334
-0.00711449324
-0.00711449308
-0.00711449303
-0.00711449295
-0.00711449293
-0.00711449295
-0.007114493
-0.00711449306
-0.00711449316
-0.0071144932
-0.00711449332
-0.00711449336
-0.00711449339
-0.00711449346
-0.0071144935
-0.00711449352
-0.00711449353
-0.00711449356
-0.00711449357
-0.00711449359
-0.00711449358
-0.0071144936
-0.00711449359
-0.00711449361
-0.00711449362
-0.00711449368
-0.00711449377
-0.00711449402
-0.00711449494
-0.00711449625
-0.0071144982
-0.00711450142
-0.00711451438
-0.00711453164
-0.0071145628
-0.00711462287
-0.00711464071
-0.00711438997
-0.00711455437
-0.00711675194
-0.00712048698
-0.0071142682
-0.00710327552
-0.00711141196
-0.00718952927
-0.00717997119
-0.00698805162
-0.00698799622
-0.00714935938
-0.00721360193
-0.00722197632
-0.00719687924
-0.00699511244
-0.00698825607
-0.00698863305
-0.00715514242
-0.00722380601
-0.00724070289
-0.0072221306
-0.00699590812
-0.00698886583
-0.00699186133
-0.00716241909
-0.00723783466
-0.00724380793
-0.00723776539
-0.00699428147
-0.0069946331
-0.00699369028
-0.00699372526
-0.00715668762
-0.00723910308
-0.00721619207
-0.00699223871
-0.00699102618
-0.00716849085
-0.00723996222
-0.00721622712
-0.00699398339
-0.0069874302
-0.00720424711
-0.00721434021
-0.00699367357
-0.00699264511
-0.00716910401
-0.00723866211
-0.00721652748
-0.00699573678
-0.00698783002
-0.00721143612
-0.00722111049
-0.0069967209
-0.00698960901
-0.00721161777
-0.00722221363
-0.00699368599
-0.00699363788
-0.00716960318
-0.00724158306
-0.00721998248
-0.00699579339
-0.00698803129
-0.00721242514
-0.00722177741
-0.00699592499
-0.00698920518
-0.00721223987
-0.00722163922
-0.00699269674
-0.00699307817
-0.00715636865
-0.0072338224
-0.00721480707
-0.00699336832
-0.00698816635
-0.00719941676
-0.00721119976
-0.00699171582
-0.00699213313
-0.00715050285
-0.00722826092
-0.00721215149
-0.006992338
-0.0069890025
-0.00715166247
-0.0072106936
-0.00723007906
-0.00722701904
-0.00699431201
-0.00698885737
-0.00721712943
-0.00722721151
-0.0069944408
-0.00698978674
-0.00721411859
-0.0072234149
-0.00699180928
-0.00699386394
-0.00715479841
-0.0072355295
-0.00721994738
-0.00699372654
-0.00698931552
-0.00720131062
-0.00721353561
-0.00699195796
-0.00699266282
-0.00715991261
-0.0072341459
-0.00722372623
-0.00699061559
-0.00699388078
-0.00714959562
-0.00724112638
-0.00722939681
-0.0069951712
-0.00698993273
-0.00721621967
-0.00722511072
-0.00699666987
-0.00699059394
-0.00722086719
-0.00722684937
-0.00699718181
-0.00699135784
-0.00722143569
-0.00722725612
-0.006997308
-0.00699165893
-0.00722279961
-0.00722864492
-0.00699721356
-0.00699167038
-0.0072251561
-0.00723036125
-0.00699667789
-0.00699152702
-0.00722592361
-0.00723135144
-0.00699586061
-0.00699144371
-0.00722367481
-0.00722884846
-0.00699414958
-0.00699197733
-0.0072159351
-0.00722536832
-0.00699048861
-0.00699516032
-0.00716833448
-0.00724730957
-0.00723325799
-0.00699450944
-0.00699011481
-0.00721547894
-0.00722373651
-0.00699273395
-0.00699068295
-0.0072130184
-0.0072221962
-0.00698957838
-0.00699388361
-0.00715877371
-0.00724111822
-0.00722841238
-0.00699189138
-0.0069900943
-0.00720723912
-0.00721976334
-0.00698843749
-0.00699311114
-0.00715587105
-0.00723730632
-0.0072244308
-0.00699199116
-0.00698852061
-0.00720267475
-0.00720924561
-0.00699033593
-0.00699000329
-0.00713525148
-0.00720624521
-0.0072343755
-0.00723105884
-0.00699174892
-0.00699093989
-0.00720722429
-0.00722736059
-0.0070708473
-0.00699471428
-0.00699070637
-0.0072247572
-0.0072366385
-0.0070209581
-0.00699358668
-0.00699809239
-0.00713882274
-0.00722810142
-0.00723607283
-0.00723659987
-0.00699205955
-0.00699565414
-0.00715126898
-0.00724003823
-0.00722931544
-0.00705488716
-0.00699467888
-0.00699427815
-0.00722367763
-0.00724704342
-0.00699174419
-0.0069962041
-0.00712873514
-0.00723466541
-0.00723304375
-0.00699086903
-0.00699379431
-0.00713237455
-0.00723816127
-0.0072315806
-0.00699164096
-0.00699077783
-0.0072055431
-0.00722125363
-0.0069901989
-0.0069943208
-0.00713908895
-0.00724075315
-0.00723370405
-0.00699572772
-0.00699169679
-0.00722584864
-0.00723179013
-0.00699607501
-0.00699404114
-0.00699654706
-0.00699335669
-0.00718347986
-0.00723411702
-0.0072515444
-0.00724796787
-0.00699708898
-0.00699287489
-0.00722741953
-0.00723205345
-0.00699544635
-0.00699318163
-0.00721318038
-0.00722295771
-0.00699221728
-0.00699528397
-0.00714030228
-0.00723782939
-0.00723032389
-0.00699409843
-0.00699015779
-0.00721219558
-0.00722211429
-0.00699293542
-0.00699062331
-0.00721088608
-0.00722051012
-0.00699104171
-0.00699242159
-0.00714994293
-0.0072306169
-0.00722563446
-0.00699035534
-0.00699256284
-0.00712320646
-0.00723515033
-0.00721368776
-0.00699030733
-0.00716317429
-0.00722848134
-0.00702315448
-0.00699134285
-0.00699629311
-0.00716624903
-0.00724249098
-0.00723187392
-0.0069920782
-0.00699342621
-0.00713746625
-0.00723851885
-0.00721416427
-0.00699268888
-0.00719003774
-0.00723730823
-0.00699286957
-0.0069939507
-0.00699394062
-0.00721640008
-0.00725299557
-0.00699102999
-0.00699651531
-0.00714736751
-0.00724133323
-0.00723261404
-0.00699419611
-0.00699128361
-0.00721223779
-0.00722187409
-0.0069911206
-0.00699422996
-0.00715831191
-0.00723557562
-0.00720352312
-0.00699350635
-0.00698641829
-0.00722052383
-0.00721706055
-0.00699012245
-0.0071501662
-0.00723160073
-0.00698692723
-0.00699207829
-0.00716154052
-0.00722209577
-0.00719636798
-0.0069901984
-0.00698914486
-0.0071299955
-0.00723507027
-0.0072042809
-0.00698829711
-0.00716937578
-0.00723276698
-0.00698680379
-0.00698979818
-0.00720855994
-0.00722221342
-0.00698592566
-0.00699080739
-0.00716703596
-0.00722028745
-0.00719409455
-0.00698977639
-0.0069898065
-0.00713776404
-0.0072272531
-0.00721615202
-0.00699121823
-0.00698728875
-0.0072159669
-0.00722113087
-0.00699114076
-0.00699116004
-0.00711034447
-0.00720520703
-0.00722344174
-0.0072211973
-0.00698918719
-0.00698989435
-0.0071620491
-0.00722708572
-0.00722216656
-0.00698802731
-0.00699006799
-0.00714967182
-0.00722427635
-0.00722041524
-0.00698874704
-0.00699076207
-0.00714878866
-0.00722380923
-0.00722301598
-0.00699028986
-0.00699227136
-0.0071644358
-0.00724913174
-0.00724054311
-0.00699299345
-0.00699335316
-0.00699267396
-0.00699261536
-0.00720363006
-0.00725339489
-0.00724030418
-0.00699247262
-0.00699393216
-0.00717515997
-0.0072396116
-0.00722974242
-0.00699209728
-0.00699038132
-0.00720680838
-0.00722139949
-0.00698876089
-0.00699225065
-0.00714389931
-0.007232874
-0.00720753661
-0.0069903617
-0.00713816064
-0.00722369545
-0.00698666878
-0.00699060331
-0.00715060429
-0.00721918282
-0.00721079237
-0.00698962794
-0.00699076692
-0.00712399123
-0.00723083746
-0.00721166092
-0.00698977655
-0.00713278485
-0.00722946078
-0.00698663995
-0.0069906167
-0.00715329624
-0.00722151457
-0.00721167458
-0.00699015805
-0.00699101807
-0.0071294924
-0.0072326555
-0.00721527127
-0.00699056955
-0.00712181632
-0.00723104937
-0.00698603697
-0.006990819
-0.00715751087
-0.00722142638
-0.00721162146
-0.0069901015
-0.00699159866
-0.00714329111
-0.00723433195
-0.00722781762
-0.006990452
-0.00698832957
-0.00721088771
-0.00721087872
-0.00699007882
-0.00716003226
-0.00722305684
-0.00698793279
-0.00699089385
)
;

boundaryField
{
    closed
    {
        type            zeroGradient;
    }
    open
    {
        type            zeroGradient;
    }
    sides
    {
        type            empty;
    }
    procBoundary0to1
    {
        type            processor;
        value           uniform -0.00715143164;
    }
}


// ************************************************************************* //
