/*--------------------------------*- C++ -*----------------------------------*\
| =========                 |                                                 |
| \\      /  F ield         | OpenFOAM: The Open Source CFD Toolbox           |
|  \\    /   O peration     | Version:  2306                                  |
|   \\  /    A nd           | Website:  www.openfoam.com                      |
|    \\/     M anipulation  |                                                 |
\*---------------------------------------------------------------------------*/
FoamFile
{
    version     2.0;
    format      ascii;
    arch        "LSB;label=32;scalar=64";
    class       volScalarField;
    location    "0.00124";
    object      prefDh_H2O;
}
// * * * * * * * * * * * * * * * * * * * * * * * * * * * * * * * * * * * * * //

dimensions      [1 1 -3 0 0 0 0];

internalField   nonuniform List<scalar> 
530
(
92.757597
92.2492395
92.3788458
88.5413138
87.8119257
87.5808643
87.5582055
92.9271595
92.4399173
88.1003437
87.8303629
92.9252519
92.4045313
88.0279698
87.8472718
92.9989423
92.4208207
92.5285772
87.9164203
87.5553148
93.1172017
92.4991191
92.6072422
92.461513
89.0164928
87.8604675
87.9767965
87.6893651
87.670212
92.8509727
92.3155384
92.3866037
88.7288168
88.0582156
92.6912775
92.2652451
89.1120298
88.1100757
87.8474479
87.8317073
92.8100247
92.2645172
92.3488989
88.518734
87.976896
92.7110829
92.2665713
89.2843976
88.119027
88.1012559
88.0765021
87.8128199
87.8052837
92.7945424
92.2969916
92.3573415
88.7407758
88.0496756
92.7422974
92.4311667
89.1274289
87.6233522
87.5937335
92.9782855
92.4486823
92.466979
87.8637222
87.500883
90.7906078
92.5104794
92.5045829
88.1559275
87.6562524
93.1109412
92.3663302
92.485465
88.4545567
87.8281588
87.6093261
87.6058445
92.9559768
92.4862995
88.9097002
87.8019392
87.7956438
92.7353187
92.3123538
92.3606058
88.6110762
88.0503323
92.8010955
92.3084651
88.9231443
88.0567796
87.7724711
87.74388
93.0265767
92.445512
92.559891
92.4638569
89.3583434
87.6411545
87.5950447
92.9618264
92.4098406
88.2727777
87.8590789
92.9828597
92.3896186
88.3170597
87.8826269
92.929664
92.485271
88.980239
87.5258293
87.4988547
92.7726472
92.5223049
92.625119
92.4871808
88.3300999
87.6684802
92.9938247
92.513433
88.7297734
87.5837892
87.5541329
92.9987781
92.4546387
88.3726242
87.9043633
92.9453036
92.4598979
89.1929675
87.7057562
87.6559752
92.9938899
92.4058618
88.3214662
87.8709338
93.0549676
92.3575177
88.3038182
87.9082913
93.0555251
92.3479085
88.3373667
87.9518703
93.0417768
92.3437361
88.3698583
87.9779957
93.0229159
92.3556388
88.4164421
87.9620177
92.9832777
92.4303926
89.3481423
87.7084004
87.68538
91.9000924
92.4743692
92.5167252
92.4011366
90.263528
88.0039483
88.0275399
87.7277851
87.7167446
92.9725555
89.081677
87.8077759
93.0515228
92.3933044
88.4110982
87.998506
93.0380426
92.3182329
88.4980621
88.085281
92.986652
92.2728722
89.5207633
88.2413367
87.8835489
87.8420896
92.2576192
92.3826516
92.5883352
92.2960482
92.3371193
89.586026
88.0187204
87.6181662
87.6006657
93.0790821
92.5068893
88.8724324
87.5912853
87.5480787
92.9233222
92.3961623
88.3945773
88.1021674
93.0953377
89.0022407
87.8856847
93.1514959
92.3559428
92.4238286
88.6132056
88.1314699
93.0731659
92.2583525
92.3680612
89.6026461
88.2032638
87.9041618
87.8746984
92.9815401
92.330007
89.8186798
88.2505447
87.8868831
87.8518246
93.0613632
92.4383553
90.2462955
87.8479143
87.7928378
91.5776153
92.4589485
88.4795446
87.8539365
91.4274421
92.3839496
92.4219456
88.5060592
87.802982
92.3329735
92.4275872
89.240508
88.0879064
87.8026294
87.782065
92.062877
92.3865558
92.4486277
88.575849
87.8497523
92.1695298
92.4595319
88.5345428
87.8371035
90.8436428
92.5186498
92.3858859
92.4224679
90.1055252
87.9691039
87.9478141
87.6366511
87.6104143
92.0642258
92.366899
92.4401703
89.4940039
87.844564
87.7992208
93.0293017
92.4503487
89.3064935
87.754795
87.7241521
93.074405
92.3735721
92.50354
90.539509
87.8985552
87.8637313
93.0131106
88.8681077
87.7920694
93.1846202
92.317011
92.4768642
89.280593
87.7262873
88.0147971
92.7523463
89.1978975
87.9028683
93.0507886
92.298415
90.500862
88.4175562
87.8719446
87.823477
93.0064875
92.2837052
92.4174529
89.1344734
87.6157762
87.5649605
91.9502145
92.4566208
88.3090763
87.7986517
92.1557249
92.4015611
88.3023499
87.8970642
92.4362054
92.287613
92.3937185
89.1580295
87.8070668
87.7466713
92.9491394
92.3250549
88.5446252
88.1090246
93.0246981
92.2283267
92.3397534
88.9935253
88.0646718
87.7766586
87.7832952
92.95009
89.0190749
87.808259
93.0694355
92.36738
88.3325458
88.0162054
93.090657
92.2543187
92.3902888
89.6611038
88.0858311
88.096106
87.9035487
87.8644773
92.91743
92.3343757
89.7224541
87.9475123
87.9330149
92.8842265
92.3536405
89.5229359
87.9305629
87.8720234
92.9216266
92.2672668
88.6726752
88.0985261
92.9412596
92.2365281
88.4841402
88.1214494
93.0230267
92.220681
91.0211075
88.5546607
87.9051775
87.8713842
92.9110939
88.8471604
87.8194987
93.1007806
92.3548875
92.4068441
88.2171181
87.7122957
93.0568607
92.4413429
89.3481602
87.7916389
87.7608253
92.9809195
92.3215557
89.9095766
88.2613015
87.9858326
87.9689758
92.8842101
89.3533073
87.9004258
93.0324693
92.345231
88.2485512
88.0187391
93.1332195
92.2487029
92.4552858
88.9471664
87.7134439
87.6777106
92.9077524
92.400118
89.376612
87.9244607
87.8961246
92.8706733
92.3846083
89.375059
87.9016029
87.8601723
92.8985409
92.3578707
88.420678
87.9026457
92.9269881
92.4059811
89.1716247
87.7667335
87.740414
92.9616536
92.4597853
90.5699284
87.7783095
87.7330981
93.0184626
92.4254058
88.1061121
87.8134853
93.0664599
92.4054027
92.4483284
88.0250203
87.5837708
93.1108098
92.4757841
88.2005749
87.8314905
92.9998889
92.4474972
89.7791239
87.8053748
87.7588373
92.9705406
92.3899931
88.339949
87.9013535
92.9260713
92.3997954
89.8066669
87.7945543
87.7518307
92.9716128
92.3344219
88.3179711
87.9895153
92.9121442
92.2378064
90.2505718
88.3526472
87.9911345
87.9747935
92.7438335
89.2410948
88.0128428
92.9799798
92.2430837
91.6839585
88.4814084
87.8313891
87.8066158
92.6794119
89.3897503
87.879172
92.8372553
92.3044415
88.3285888
87.9964262
92.8214753
92.2566619
88.3427626
88.0923408
92.7903682
92.2125237
89.9189452
88.2893932
87.9624131
87.9400009
92.7283013
89.5234392
87.8856129
92.7969024
92.2986531
88.3947415
88.0245956
92.7480242
92.2513464
89.2379972
88.0969093
87.8451361
87.8125446
92.8089318
92.2854555
88.2246793
88.1309336
92.8217172
89.2902494
87.8053014
92.7815434
92.3241411
88.3438436
88.0656288
92.7383769
92.2353906
89.844399
88.1855589
87.8682743
87.8157028
92.7742716
92.2971284
88.1717271
88.0101429
92.8633694
92.2168291
92.3819591
89.0424728
87.8268397
87.7878777
92.7284368
92.371848
)
;

boundaryField
{
    closed
    {
        type            calculated;
        value           nonuniform List<scalar> 0();
    }
    open
    {
        type            calculated;
        value           nonuniform List<scalar> 0();
    }
    sides
    {
        type            empty;
    }
    procBoundary2to1
    {
        type            processor;
        value           uniform 88.1108045;
    }
    procBoundary2to3
    {
        type            processor;
        value           uniform 89.021431;
    }
}


// ************************************************************************* //
