/*--------------------------------*- C++ -*----------------------------------*\
| =========                 |                                                 |
| \\      /  F ield         | OpenFOAM: The Open Source CFD Toolbox           |
|  \\    /   O peration     | Version:  2306                                  |
|   \\  /    A nd           | Website:  www.openfoam.com                      |
|    \\/     M anipulation  |                                                 |
\*---------------------------------------------------------------------------*/
FoamFile
{
    version     2.0;
    format      ascii;
    arch        "LSB;label=32;scalar=64";
    class       volScalarField;
    location    "0.00124";
    object      prefDZ_H2;
}
// * * * * * * * * * * * * * * * * * * * * * * * * * * * * * * * * * * * * * //

dimensions      [1 -1 -1 0 0 0 0];

internalField   nonuniform List<scalar> 
530
(
6.34843439e-05
6.35516242e-05
6.35428985e-05
6.23518873e-05
6.15183269e-05
6.10853691e-05
6.10916484e-05
6.33813599e-05
6.35173797e-05
6.19304587e-05
6.15455628e-05
6.33606507e-05
6.35099258e-05
6.18045457e-05
6.15619192e-05
6.33767615e-05
6.34845897e-05
6.34610233e-05
6.16629677e-05
6.1061679e-05
6.3375345e-05
6.3500725e-05
6.34628287e-05
6.35112236e-05
6.23362083e-05
6.15743353e-05
6.181204e-05
6.12691433e-05
6.12856008e-05
6.34215498e-05
6.35335778e-05
6.35334258e-05
6.23370277e-05
6.19679761e-05
6.34961418e-05
6.35865997e-05
6.23238493e-05
6.20716838e-05
6.1590026e-05
6.16025513e-05
6.34812024e-05
6.35813713e-05
6.35771269e-05
6.2314558e-05
6.18555102e-05
6.35197633e-05
6.35997333e-05
6.23156311e-05
6.2090985e-05
6.20367912e-05
6.20001794e-05
6.15148774e-05
6.15210965e-05
6.34539737e-05
6.35300811e-05
6.35222117e-05
6.23586669e-05
6.19070414e-05
6.34548496e-05
6.34837064e-05
6.2353724e-05
6.11074136e-05
6.11247848e-05
6.33739483e-05
6.35081366e-05
6.34816223e-05
6.16670201e-05
6.09513809e-05
6.2524382e-05
6.34630316e-05
6.3546016e-05
6.20820992e-05
6.12482809e-05
6.33810631e-05
6.35200035e-05
6.3466198e-05
6.23715145e-05
6.14836482e-05
6.11272442e-05
6.11204333e-05
6.34041875e-05
6.34737692e-05
6.23610416e-05
6.14382534e-05
6.14602455e-05
6.34494269e-05
6.35142963e-05
6.3518775e-05
6.23627178e-05
6.19426428e-05
6.34653573e-05
6.35686644e-05
6.23510135e-05
6.195373e-05
6.1395012e-05
6.14057584e-05
6.33883961e-05
6.35086641e-05
6.34594881e-05
6.34926763e-05
6.23390143e-05
6.11550951e-05
6.11850077e-05
6.33767235e-05
6.35544273e-05
6.22269828e-05
6.16238025e-05
6.33744792e-05
6.35426953e-05
6.23027177e-05
6.16283578e-05
6.33971814e-05
6.34789212e-05
6.23684427e-05
6.09236455e-05
6.09640052e-05
6.31902505e-05
6.34906626e-05
6.3420419e-05
6.35137816e-05
6.23670217e-05
6.12677491e-05
6.34291565e-05
6.34897177e-05
6.23562547e-05
6.10233324e-05
6.10689225e-05
6.3349918e-05
6.35089506e-05
6.23918633e-05
6.16527254e-05
6.34095584e-05
6.34801939e-05
6.23536088e-05
6.12344145e-05
6.12625308e-05
6.33593402e-05
6.35512563e-05
6.22840248e-05
6.16581718e-05
6.33544074e-05
6.3577735e-05
6.22500043e-05
6.17269669e-05
6.33502553e-05
6.35754607e-05
6.23040936e-05
6.17934141e-05
6.3354062e-05
6.3570599e-05
6.23624585e-05
6.18301606e-05
6.33641352e-05
6.35605693e-05
6.24578593e-05
6.17802583e-05
6.34034755e-05
6.3511945e-05
6.2363654e-05
6.12994924e-05
6.1307682e-05
6.28706729e-05
6.35119364e-05
6.34864599e-05
6.35275388e-05
6.24455535e-05
6.18487163e-05
6.18891799e-05
6.13236358e-05
6.13439671e-05
6.3389153e-05
6.23483676e-05
6.14718385e-05
6.33831412e-05
6.35387517e-05
6.24474256e-05
6.18625663e-05
6.33678637e-05
6.35789998e-05
6.24565734e-05
6.2020605e-05
6.3393927e-05
6.35820931e-05
6.238692e-05
6.22776636e-05
6.1575855e-05
6.15952871e-05
6.2999467e-05
6.35470423e-05
6.34686518e-05
6.35711075e-05
6.35267339e-05
6.23471952e-05
6.18999611e-05
6.11659766e-05
6.11696803e-05
6.34376451e-05
6.3504285e-05
6.23231337e-05
6.10572449e-05
6.11047368e-05
6.32522224e-05
6.35634538e-05
6.24218785e-05
6.20395391e-05
6.33423282e-05
6.23119488e-05
6.15669418e-05
6.34006785e-05
6.34970507e-05
6.34908302e-05
6.23973187e-05
6.20771967e-05
6.33952568e-05
6.35731817e-05
6.34888992e-05
6.2356371e-05
6.21868414e-05
6.16254464e-05
6.16255238e-05
6.34100532e-05
6.35454659e-05
6.24049054e-05
6.22722961e-05
6.15597483e-05
6.15670144e-05
6.33839116e-05
6.34943599e-05
6.24504853e-05
6.15537869e-05
6.1501113e-05
6.27618875e-05
6.35320468e-05
6.23293391e-05
6.16099119e-05
6.27133384e-05
6.35395289e-05
6.35314539e-05
6.23455014e-05
6.15143238e-05
6.30292946e-05
6.35265649e-05
6.23587249e-05
6.19732689e-05
6.14522916e-05
6.14467694e-05
6.29291876e-05
6.35068216e-05
6.34961628e-05
6.23611465e-05
6.15785585e-05
6.29680115e-05
6.35231203e-05
6.23244443e-05
6.15543909e-05
6.25417027e-05
6.34882688e-05
6.35633492e-05
6.35113456e-05
6.24143658e-05
6.17752684e-05
6.17687711e-05
6.1180871e-05
6.11985115e-05
6.29293976e-05
6.35386787e-05
6.34577797e-05
6.23426336e-05
6.14763001e-05
6.15027399e-05
6.33854065e-05
6.35008125e-05
6.23625459e-05
6.13376565e-05
6.13562152e-05
6.33569263e-05
6.35119606e-05
6.34078434e-05
6.2496416e-05
6.15907133e-05
6.16022073e-05
6.33808175e-05
6.23311682e-05
6.1456883e-05
6.33753384e-05
6.35695692e-05
6.34676287e-05
6.23074235e-05
6.13415757e-05
6.18830505e-05
6.3467051e-05
6.23263975e-05
6.16842537e-05
6.34121435e-05
6.35653541e-05
6.24959906e-05
6.23301675e-05
6.15407328e-05
6.15647764e-05
6.33715623e-05
6.3567222e-05
6.34528748e-05
6.23062246e-05
6.1132131e-05
6.11644211e-05
6.28874053e-05
6.35547793e-05
6.2345325e-05
6.1533985e-05
6.29588783e-05
6.35648388e-05
6.23181121e-05
6.17160523e-05
6.30656205e-05
6.35895799e-05
6.34761573e-05
6.23007101e-05
6.14270535e-05
6.14488696e-05
6.33445951e-05
6.35682642e-05
6.24371611e-05
6.20723641e-05
6.33915625e-05
6.36014438e-05
6.34985697e-05
6.23052773e-05
6.19410717e-05
6.14469209e-05
6.14530255e-05
6.34176628e-05
6.23459699e-05
6.14940231e-05
6.33649261e-05
6.35550011e-05
6.23291771e-05
6.19133097e-05
6.33747148e-05
6.35978786e-05
6.34870011e-05
6.23342309e-05
6.19906262e-05
6.20572043e-05
6.16464889e-05
6.1656098e-05
6.34001194e-05
6.35599802e-05
6.23722902e-05
6.17532022e-05
6.17501707e-05
6.34446055e-05
6.35421465e-05
6.23294741e-05
6.1689635e-05
6.16956297e-05
6.33893372e-05
6.36171044e-05
6.24034529e-05
6.2086809e-05
6.33904726e-05
6.36263595e-05
6.24290771e-05
6.21096215e-05
6.33664556e-05
6.35947593e-05
6.26078088e-05
6.2311646e-05
6.16064978e-05
6.16339377e-05
6.3390584e-05
6.23307524e-05
6.15079264e-05
6.33927848e-05
6.35385481e-05
6.35232707e-05
6.22130984e-05
6.13745311e-05
6.34074163e-05
6.35296645e-05
6.23378203e-05
6.14383344e-05
6.14645653e-05
6.33695575e-05
6.35555474e-05
6.24057638e-05
6.23004405e-05
6.17650734e-05
6.17781818e-05
6.33985933e-05
6.23621666e-05
6.16587903e-05
6.33418391e-05
6.35536063e-05
6.21814647e-05
6.19139001e-05
6.33596415e-05
6.3591632e-05
6.34857298e-05
6.22964027e-05
6.1292358e-05
6.13203961e-05
6.33485624e-05
6.3515241e-05
6.2356592e-05
6.16695485e-05
6.16653229e-05
6.34083007e-05
6.35184289e-05
6.2345446e-05
6.16264251e-05
6.1629085e-05
6.33721689e-05
6.35569379e-05
6.24053684e-05
6.16983457e-05
6.34012248e-05
6.35277073e-05
6.23470397e-05
6.13879503e-05
6.13848253e-05
6.33697109e-05
6.34717226e-05
6.25073524e-05
6.13744127e-05
6.13862857e-05
6.32798869e-05
6.35211523e-05
6.19279135e-05
6.15244708e-05
6.33127873e-05
6.35109429e-05
6.34941597e-05
6.18546102e-05
6.11168849e-05
6.33287891e-05
6.35017677e-05
6.2119881e-05
6.15255715e-05
6.33583169e-05
6.34782954e-05
6.23875016e-05
6.1437934e-05
6.14470027e-05
6.336374e-05
6.35495264e-05
6.23776195e-05
6.16853613e-05
6.34012963e-05
6.35210416e-05
6.23745203e-05
6.14560369e-05
6.14756394e-05
6.3375003e-05
6.35944954e-05
6.23544322e-05
6.1883748e-05
6.34151075e-05
6.35972684e-05
6.24398208e-05
6.23183242e-05
6.181566e-05
6.18264804e-05
6.34404909e-05
6.23347026e-05
6.18857438e-05
6.33843164e-05
6.35769855e-05
6.27920127e-05
6.23051196e-05
6.15160266e-05
6.15356598e-05
6.34794076e-05
6.23332875e-05
6.16776658e-05
6.34397431e-05
6.36000699e-05
6.23774476e-05
6.19034993e-05
6.34464165e-05
6.36151925e-05
6.23730615e-05
6.20606463e-05
6.34588692e-05
6.36033005e-05
6.23862786e-05
6.23194547e-05
6.17755453e-05
6.17785399e-05
6.34743542e-05
6.23362969e-05
6.16857062e-05
6.34567619e-05
6.35976696e-05
6.23614467e-05
6.19451799e-05
6.34728466e-05
6.36063672e-05
6.2325478e-05
6.20686641e-05
6.15836389e-05
6.15911135e-05
6.34567955e-05
6.36006967e-05
6.22202931e-05
6.2112587e-05
6.34498977e-05
6.23132434e-05
6.15259595e-05
6.346241e-05
6.35741774e-05
6.23728405e-05
6.19964895e-05
6.34645071e-05
6.35937076e-05
6.2383128e-05
6.22168361e-05
6.15966871e-05
6.15927701e-05
6.34558484e-05
6.36006874e-05
6.21172155e-05
6.19220685e-05
6.34420618e-05
6.36003491e-05
6.35164336e-05
6.22945558e-05
6.15211118e-05
6.15312083e-05
6.34543766e-05
6.35507657e-05
)
;

boundaryField
{
    closed
    {
        type            calculated;
        value           nonuniform List<scalar> 0();
    }
    open
    {
        type            calculated;
        value           nonuniform List<scalar> 0();
    }
    sides
    {
        type            empty;
    }
    procBoundary2to1
    {
        type            processor;
        value           uniform 6.2033987e-05;
    }
    procBoundary2to3
    {
        type            processor;
        value           uniform 6.23287219e-05;
    }
}


// ************************************************************************* //
