/*--------------------------------*- C++ -*----------------------------------*\
| =========                 |                                                 |
| \\      /  F ield         | OpenFOAM: The Open Source CFD Toolbox           |
|  \\    /   O peration     | Version:  2306                                  |
|   \\  /    A nd           | Website:  www.openfoam.com                      |
|    \\/     M anipulation  |                                                 |
\*---------------------------------------------------------------------------*/
FoamFile
{
    version     2.0;
    format      ascii;
    arch        "LSB;label=32;scalar=64";
    class       volScalarField;
    location    "0.002";
    object      prefDZ_T;
}
// * * * * * * * * * * * * * * * * * * * * * * * * * * * * * * * * * * * * * //

dimensions      [1 -1 -1 -1 0 0 0];

internalField   nonuniform List<scalar> 
530
(
-1.02282516e-10
-1.02112083e-10
-1.01979191e-10
-1.0181742e-10
-1.0169001e-10
-1.01536405e-10
-1.01414189e-10
-1.01268284e-10
-1.01150993e-10
-1.01012343e-10
-1.00899725e-10
-1.0076791e-10
-1.00659725e-10
-1.00534348e-10
-1.0043037e-10
-1.0031354e-10
-1.0021974e-10
-1.00112858e-10
-1.00022552e-10
-9.99206947e-11
-9.98337439e-11
-9.97366487e-11
-9.96529204e-11
-9.95603364e-11
-9.94797042e-11
-9.93913925e-11
-9.93137356e-11
-9.92294687e-11
-9.91546706e-11
-9.90742317e-11
-9.90021806e-11
-9.8925363e-11
-9.88554512e-11
-9.87812599e-11
-9.87135071e-11
-9.86425212e-11
-9.85771702e-11
-9.85092064e-11
-9.84461556e-11
-9.83810389e-11
-9.83248682e-11
-9.82681494e-11
-9.82147374e-11
-9.8160228e-11
-9.81085724e-11
-9.80561709e-11
-9.80062256e-11
-9.79558355e-11
-9.79075538e-11
-9.78590832e-11
-9.78124183e-11
-9.77657796e-11
-9.77206845e-11
-9.76757943e-11
-9.76322217e-11
-9.75890002e-11
-9.7546903e-11
-9.7505274e-11
-9.74646048e-11
-9.74244958e-11
-9.73852072e-11
-9.73465485e-11
-9.73085931e-11
-9.72713183e-11
-9.72346486e-11
-9.71986942e-11
-9.71632626e-11
-9.71285677e-11
-9.70943269e-11
-9.70608329e-11
-9.70277358e-11
-9.69953864e-11
-9.69633859e-11
-9.69321269e-11
-9.69011764e-11
-9.68709551e-11
-9.68410084e-11
-9.68110229e-11
-9.6780949e-11
-9.67511017e-11
-9.67250796e-11
-9.67007895e-11
-9.66772459e-11
-9.66536819e-11
-9.66309105e-11
-9.66080437e-11
-9.65860154e-11
-9.65638175e-11
-9.65425042e-11
-9.65209481e-11
-9.65003224e-11
-9.64793817e-11
-9.64594168e-11
-9.64390659e-11
-9.64197361e-11
-9.63999502e-11
-9.63812303e-11
-9.63619851e-11
-9.63438507e-11
-9.63251229e-11
-9.63075501e-11
-9.6289317e-11
-9.62722826e-11
-9.62545223e-11
-9.62380034e-11
-9.62206948e-11
-9.62046689e-11
-9.61877916e-11
-9.61722369e-11
-9.61557713e-11
-9.6140666e-11
-9.61245934e-11
-9.61099161e-11
-9.60942184e-11
-9.60799483e-11
-9.60646082e-11
-9.60507245e-11
-9.60357253e-11
-9.60222077e-11
-9.60075335e-11
-9.59943618e-11
-9.59799975e-11
-9.59671519e-11
-9.59530829e-11
-9.59405437e-11
-9.59267561e-11
-9.59145042e-11
-9.59009844e-11
-9.58890008e-11
-9.58757361e-11
-9.58640023e-11
-9.58509802e-11
-9.58394779e-11
-9.58266863e-11
-9.58153978e-11
-9.58028251e-11
-9.57917332e-11
-9.57793675e-11
-9.57684558e-11
-9.57562857e-11
-9.57455382e-11
-9.57335521e-11
-9.57229539e-11
-9.57111398e-11
-9.57006767e-11
-9.56890227e-11
-9.56786817e-11
-9.56671752e-11
-9.56569442e-11
-9.56455722e-11
-9.56354403e-11
-9.56241893e-11
-9.56141469e-11
-9.56030026e-11
-9.55930413e-11
-9.55819888e-11
-9.55721014e-11
-9.55611252e-11
-9.55513057e-11
-9.55403897e-11
-9.5530633e-11
-9.55197608e-11
-9.55100628e-11
-9.54992177e-11
-9.54895751e-11
-9.54787401e-11
-9.54691504e-11
-9.54583084e-11
-9.54487695e-11
-9.54379034e-11
-9.5428414e-11
-9.54175064e-11
-9.54080657e-11
-9.5397099e-11
-9.53877071e-11
-9.5376663e-11
-9.53673209e-11
-9.53561802e-11
-9.53468904e-11
-9.53390757e-11
-9.53326962e-11
-9.53248087e-11
-9.53183435e-11
-9.53104324e-11
-9.53034538e-11
-9.52957106e-11
-9.52882448e-11
-9.52806386e-11
-9.52727117e-11
-9.5265213e-11
-9.52568498e-11
-9.52494311e-11
-9.52406543e-11
-9.52332908e-11
-9.52241205e-11
-9.52167903e-11
-9.5207521e-11
-9.52000123e-11
-9.51905147e-11
-9.51825902e-11
-9.51731465e-11
-9.51648116e-11
-9.51554122e-11
-9.51466748e-11
-9.51373082e-11
-9.51281782e-11
-9.51188314e-11
-9.51093201e-11
-9.50999792e-11
-9.50900987e-11
-9.50807494e-11
-9.50705123e-11
-9.50611403e-11
-9.50505591e-11
-9.50411506e-11
-9.50302375e-11
-9.5020779e-11
-9.50095457e-11
-9.50000248e-11
-9.49884824e-11
-9.49788873e-11
-9.49670461e-11
-9.49573661e-11
-9.49452357e-11
-9.49354608e-11
-9.49230502e-11
-9.49131714e-11
-9.49004889e-11
-9.48904979e-11
-9.4877551e-11
-9.48674406e-11
-9.48542363e-11
-9.48439997e-11
-9.48305446e-11
-9.48201759e-11
-9.48064758e-11
-9.47959699e-11
-9.47820303e-11
-9.47713825e-11
-9.47572084e-11
-9.47464147e-11
-9.47320109e-11
-9.47210678e-11
-9.47064386e-11
-9.4695343e-11
-9.46804927e-11
-9.46692418e-11
-9.46541745e-11
-9.46427658e-11
-9.46274858e-11
-9.46159166e-11
-9.46004286e-11
-9.45886959e-11
-9.45730054e-11
-9.45611056e-11
-9.4545219e-11
-9.45331479e-11
-9.45170727e-11
-9.45048253e-11
-9.44885692e-11
-9.44761414e-11
-9.44597108e-11
-9.44471011e-11
-9.44304978e-11
-9.44177112e-11
-9.44009282e-11
-9.43879635e-11
-9.4371028e-11
-9.435816e-11
-9.43408709e-11
-9.43276316e-11
-9.43103789e-11
-9.42967655e-11
-9.4279529e-11
-9.42655748e-11
-9.42483291e-11
-9.42340611e-11
-9.42167864e-11
-9.42022265e-11
-9.41849077e-11
-9.41700742e-11
-9.41526999e-11
-9.41376077e-11
-9.4120169e-11
-9.41048308e-11
-9.40873211e-11
-9.40717477e-11
-9.40541618e-11
-9.40383627e-11
-9.40206966e-11
-9.40046804e-11
-9.39869312e-11
-9.39707058e-11
-9.39528709e-11
-9.39364437e-11
-9.39185213e-11
-9.39018995e-11
-9.38838882e-11
-9.38670785e-11
-9.38489773e-11
-9.38319863e-11
-9.38137944e-11
-9.37966285e-11
-9.37783458e-11
-9.3761011e-11
-9.37426374e-11
-9.37251397e-11
-9.37066755e-11
-9.36890207e-11
-9.36704666e-11
-9.36526601e-11
-9.36340171e-11
-9.36160645e-11
-9.35973337e-11
-9.35792402e-11
-9.35604229e-11
-9.35421938e-11
-9.35232581e-11
-9.35041877e-11
-9.34844707e-11
-9.34652678e-11
-9.34454609e-11
-9.34261305e-11
-9.34062358e-11
-9.33867826e-11
-9.33668026e-11
-9.33472316e-11
-9.33271686e-11
-9.33074845e-11
-9.32873412e-11
-9.32675488e-11
-9.32473279e-11
-9.32274319e-11
-9.32071361e-11
-9.31871413e-11
-9.31667736e-11
-9.31466846e-11
-9.31262479e-11
-9.31060695e-11
-9.3085567e-11
-9.30653038e-11
-9.30447385e-11
-9.30243951e-11
-9.30037704e-11
-9.29833515e-11
-9.29626706e-11
-9.29421808e-11
-9.29214471e-11
-9.2900891e-11
-9.28801078e-11
-9.28594901e-11
-9.28386609e-11
-9.28179862e-11
-9.27971144e-11
-9.27763873e-11
-9.27554764e-11
-9.27347017e-11
-9.27137553e-11
-9.26929375e-11
-9.2671959e-11
-9.2651103e-11
-9.2630096e-11
-9.26092064e-11
-9.25881746e-11
-9.25672556e-11
-9.25460465e-11
-9.25249492e-11
-9.25037364e-11
-9.2482628e-11
-9.24614158e-11
-9.24403006e-11
-9.24190921e-11
-9.23979744e-11
-9.23767729e-11
-9.23556569e-11
-9.23344657e-11
-9.23133556e-11
-9.22921781e-11
-9.22710779e-11
-9.22499175e-11
-9.22288313e-11
-9.22076917e-11
-9.21866234e-11
-9.21655079e-11
-9.21444615e-11
-9.21233739e-11
-9.21023533e-11
-9.2081297e-11
-9.20603061e-11
-9.20392848e-11
-9.20183273e-11
-9.19973446e-11
-9.19764244e-11
-9.19554839e-11
-9.19346048e-11
-9.191371e-11
-9.18928757e-11
-9.18720303e-11
-9.18512446e-11
-9.1830452e-11
-9.18097185e-11
-9.17889823e-11
-9.17683048e-11
-9.17476286e-11
-9.17270106e-11
-9.17063978e-11
-9.16858429e-11
-9.16652971e-11
-9.16448089e-11
-9.16243334e-11
-9.16039155e-11
-9.15835138e-11
-9.15631697e-11
-9.15428449e-11
-9.15225784e-11
-9.15023336e-11
-9.14821483e-11
-9.14619867e-11
-9.14418862e-11
-9.14218108e-11
-9.14017988e-11
-9.13818125e-11
-9.13615539e-11
-9.13407693e-11
-9.13200498e-11
-9.1299361e-11
-9.12787357e-11
-9.12581456e-11
-9.12376183e-11
-9.12171299e-11
-9.11967044e-11
-9.11763207e-11
-9.11560005e-11
-9.11357247e-11
-9.11155131e-11
-9.10953483e-11
-9.10752488e-11
-9.10551981e-11
-9.10352137e-11
-9.10152802e-11
-9.09954141e-11
-9.09756007e-11
-9.0955856e-11
-9.09361657e-11
-9.09165452e-11
-9.08969809e-11
-9.08774875e-11
-9.08580521e-11
-9.08386886e-11
-9.08193847e-11
-9.0800154e-11
-9.07809843e-11
-9.07618687e-11
-9.07421166e-11
-9.07210469e-11
-9.06985652e-11
-9.06746006e-11
-9.06490504e-11
-9.06218376e-11
-9.05928522e-11
-9.0562012e-11
-9.05292014e-11
-9.04943339e-11
-9.04572924e-11
-9.04179864e-11
-9.03763056e-11
-9.03321538e-11
-9.02854426e-11
-9.02360648e-11
-9.01838956e-11
-9.01285854e-11
-9.00704414e-11
-9.00094061e-11
-8.99454794e-11
-8.98786837e-11
-8.98090654e-11
-8.97367291e-11
-8.96618076e-11
-8.95845038e-11
-8.95050695e-11
-8.94238308e-11
-8.93411859e-11
-8.92576074e-11
-8.91712666e-11
-8.90843546e-11
-8.89984397e-11
-8.89143232e-11
-8.88328615e-11
-8.87549305e-11
-8.86814066e-11
-8.86131091e-11
-8.85507789e-11
-8.84949976e-11
-8.84461847e-11
-8.84045004e-11
-8.83698971e-11
-8.83420194e-11
-8.83202945e-11
-8.83041221e-11
-8.82914154e-11
-8.82847972e-11
-8.82793769e-11
-8.82757409e-11
-8.8273766e-11
-8.8272751e-11
-8.82722967e-11
-8.82721108e-11
-8.82719962e-11
-8.82719589e-11
-8.82719441e-11
-8.82719392e-11
-8.82719377e-11
-8.82719372e-11
-8.82719371e-11
-8.82719371e-11
-8.82719371e-11
-8.82719371e-11
-8.82719371e-11
-8.82719371e-11
-8.82719371e-11
-8.82719371e-11
-8.82719371e-11
-8.82719371e-11
-8.82719371e-11
-8.82719371e-11
-8.82719371e-11
-8.82719371e-11
-8.82719371e-11
-8.82719371e-11
-8.82719371e-11
)
;

boundaryField
{
    closed
    {
        type            calculated;
        value           nonuniform List<scalar> 0();
    }
    open
    {
        type            calculated;
        value           uniform -8.82719371e-11;
    }
    sides
    {
        type            empty;
    }
    procBoundary5to4
    {
        type            processor;
        value           uniform -1.02421198e-10;
    }
}


// ************************************************************************* //
