/*--------------------------------*- C++ -*----------------------------------*\
| =========                 |                                                 |
| \\      /  F ield         | OpenFOAM: The Open Source CFD Toolbox           |
|  \\    /   O peration     | Version:  2306                                  |
|   \\  /    A nd           | Website:  www.openfoam.com                      |
|    \\/     M anipulation  |                                                 |
\*---------------------------------------------------------------------------*/
FoamFile
{
    version     2.0;
    format      ascii;
    arch        "LSB;label=32;scalar=64";
    class       volScalarField;
    location    "0.002";
    object      prefDh_H;
}
// * * * * * * * * * * * * * * * * * * * * * * * * * * * * * * * * * * * * * //

dimensions      [1 1 -3 0 0 0 0];

internalField   nonuniform List<scalar> 
530
(
92043.9332
92102.1276
92157.462
92213.7795
92267.0215
92321.5609
92372.8574
92425.7152
92475.2038
92526.4745
92574.2844
92624.0609
92670.3138
92718.6878
92763.4991
92809.6907
92850.956
92894.2949
92934.2826
92976.4488
93015.2294
93056.2708
93093.9111
93133.8749
93170.4385
93209.3706
93244.9179
93282.8639
93317.4525
93354.4574
93388.1422
93424.2505
93457.0228
93492.1866
93524.1242
93558.4916
93589.6891
93623.3057
93653.813
93686.724
93715.5009
93746.3312
93774.2345
93804.4045
93831.6824
93861.212
93887.888
93916.7968
93942.8929
93971.2009
93996.7378
94024.4646
94049.4622
94076.6272
94101.1045
94127.7267
94151.7021
94177.8003
94201.2915
94226.8841
94249.9086
94275.0137
94297.5885
94322.2237
94344.3655
94368.5486
94390.2739
94414.022
94435.3473
94458.6776
94479.6193
94502.5485
94523.123
94545.668
94565.892
94588.0694
94607.9595
94630.1113
94650.1712
94672.3407
94691.7469
94713.036
94731.893
94752.809
94771.3071
94791.855
94810.0003
94830.1856
94847.9835
94867.8113
94885.2669
94904.7423
94921.8602
94940.9881
94957.7725
94976.5578
94993.0127
95011.4598
95027.5888
95045.7021
95061.5088
95079.2923
95094.7799
95112.2374
95127.4091
95144.5441
95159.4029
95176.2187
95190.7673
95207.2671
95221.5083
95237.6949
95251.6311
95267.5073
95281.141
95296.7091
95310.0427
95325.3051
95338.3407
95353.2995
95366.0393
95380.6963
95393.1424
95407.4994
95419.6539
95433.7123
95445.5773
95459.3385
95470.916
95484.3809
95495.6732
95508.8427
95519.852
95532.7266
95543.4554
95556.0352
95566.4862
95578.771
95588.9471
95600.9365
95610.841
95622.534
95632.1704
95643.5657
95652.9379
95664.034
95673.1461
95683.9411
95692.7973
95703.2895
95711.894
95722.0818
95730.4385
95740.3208
95748.433
95758.0095
95765.8795
95775.1514
95782.7803
95791.75
95799.1374
95807.8094
95814.9531
95823.3338
95830.2298
95838.3275
95844.9706
95852.7948
95859.1789
95866.7398
95872.8585
95880.1664
95886.0136
95893.0785
95898.648
95905.4805
95910.7655
95917.3783
95922.3698
95928.8553
95933.5923
95939.8809
95944.2769
95950.1464
95954.6444
95959.9056
95964.4544
95969.1553
95973.7073
95977.8899
95982.4036
95986.1026
95990.544
95993.7867
95998.1292
96000.9366
96005.0239
96007.468
96011.4551
96013.568
96017.3322
96019.122
96022.6545
96024.1282
96027.4209
96028.585
96031.6308
96032.4906
96035.2831
96035.8435
96038.3772
96038.6423
96040.9123
96040.8858
96042.8879
96042.5728
96044.3035
96043.7024
96045.1588
96044.274
96045.4536
96044.2871
96045.1879
96043.7412
96044.3615
96042.6362
96042.9748
96040.9722
96041.028
96038.7493
96038.5215
96035.9679
96035.456
96032.6284
96031.8321
96028.7315
96027.6507
96024.2781
96022.9128
96019.269
96017.6195
96013.7055
96011.7722
96007.5888
96005.3723
96000.9204
95998.4214
95993.7017
95990.9213
95985.9348
95982.8736
95977.6215
95974.2804
95968.7644
95965.1435
95959.3663
95955.4647
95949.4307
95945.2464
95938.9611
95934.4912
95927.9609
95923.2032
95916.432
95911.3885
95904.3734
95899.0482
95891.7936
95886.3838
95878.767
95872.9422
95865.2142
95858.9931
95851.1303
95844.5423
95836.5233
95829.5916
95821.4006
95814.1437
95805.7695
95798.2016
95789.6365
95781.7692
95773.0075
95764.8502
95755.8883
95747.4489
95738.2842
95729.5699
95720.2006
95711.218
95701.643
95692.3982
95682.6169
95673.1157
95663.1278
95653.3759
95643.1816
95633.1843
95622.7843
95612.5468
95601.9418
95591.4691
95580.6604
95569.9574
95558.9464
95548.0178
95536.8063
95525.6567
95514.2466
95502.8806
95491.2741
95479.6961
95467.8956
95456.11
95444.118
95432.1292
95419.9422
95407.6242
95395.1241
95382.61
95369.9264
95357.2208
95344.357
95331.4641
95318.4235
95305.3478
95292.1338
95278.8798
95265.4959
95252.0679
95238.5179
95224.9204
95211.2079
95197.4454
95183.5744
95169.6513
95155.6256
95141.5463
95127.37
95113.139
95098.8161
95084.4379
95069.9727
95055.4517
95040.8482
95026.1891
95011.4517
94996.6588
94981.7918
94966.8698
94951.8775
94936.8309
94921.7178
94906.5511
94891.3216
94876.0395
94860.6981
94845.3051
94829.8563
94814.357
94798.8054
94783.2045
94767.5546
94751.8567
94736.128
94720.3502
94704.5261
94688.6554
94672.7408
94656.782
94640.7817
94624.7397
94608.6586
94592.5383
94576.3813
94560.1875
94543.9595
94527.6971
94511.403
94495.0768
94478.7214
94462.3362
94445.9244
94429.4852
94413.0218
94396.5334
94380.0232
94363.4904
94346.9382
94330.3658
94313.7765
94297.1691
94280.5474
94263.91
94247.2606
94230.5979
94213.9255
94197.2422
94180.5515
94163.8522
94147.1479
94130.4373
94113.7239
94097.0067
94080.2888
94063.5695
94046.8517
94030.1348
94013.4215
93996.7115
93980.0074
93963.3086
93946.618
93929.9349
93913.2622
93896.599
93879.9486
93863.3096
93846.6858
93830.0751
93813.4823
93796.8363
93780.1018
93763.3861
93746.6938
93730.023
93713.377
93696.7548
93680.1592
93663.5896
93647.0483
93630.5351
93614.0519
93597.5988
93581.1775
93564.7882
93548.4326
93532.1107
93515.8244
93499.5735
93483.3601
93467.1838
93451.0467
93434.9484
93418.891
93402.8742
93386.9
93370.9679
93355.08
93339.2359
93323.4377
93307.6681
93291.3691
93273.9649
93255.3881
93235.5645
93214.4203
93191.8749
93167.8484
93142.2546
93115.0089
93086.0211
93055.203
93022.4642
92987.7149
92950.8702
92911.8421
92870.5598
92826.9534
92781.0065
92732.6086
92681.7388
92628.3851
92572.5679
92514.3385
92453.7846
92391.0402
92326.2883
92259.7693
92191.7881
92122.7136
92052.9929
91982.4358
91912.1024
91842.8924
91775.5151
91710.7108
91649.2289
91591.7946
91539.0694
91491.6136
91449.8359
91413.9682
91384.0209
91359.7951
91340.8656
91326.6218
91316.4359
91308.7922
91305.0557
91302.1625
91300.3592
91299.539
91299.0025
91298.6727
91298.5427
91298.465
91298.4407
91298.4317
91298.4289
91298.4281
91298.4279
91298.4278
91298.4278
91298.4278
91298.4278
91298.4278
91298.4278
91298.4278
91298.4278
91298.4278
91298.4278
91298.4278
91298.4278
91298.4278
91298.4278
91298.4278
91298.4278
91298.4278
)
;

boundaryField
{
    closed
    {
        type            calculated;
        value           nonuniform List<scalar> 0();
    }
    open
    {
        type            calculated;
        value           uniform 91298.4278;
    }
    sides
    {
        type            empty;
    }
    procBoundary5to4
    {
        type            processor;
        value           uniform 91986.3485;
    }
}


// ************************************************************************* //
