/*--------------------------------*- C++ -*----------------------------------*\
| =========                 |                                                 |
| \\      /  F ield         | OpenFOAM: The Open Source CFD Toolbox           |
|  \\    /   O peration     | Version:  2306                                  |
|   \\  /    A nd           | Website:  www.openfoam.com                      |
|    \\/     M anipulation  |                                                 |
\*---------------------------------------------------------------------------*/
FoamFile
{
    version     2.0;
    format      ascii;
    arch        "LSB;label=32;scalar=64";
    class       volScalarField;
    location    "0.00092";
    object      prefDh_H2O;
}
// * * * * * * * * * * * * * * * * * * * * * * * * * * * * * * * * * * * * * //

dimensions      [1 1 -3 0 0 0 0];

internalField   nonuniform List<scalar> 
531
(
92.8208026
88.1420075
87.6485505
87.7892594
92.5359198
92.3575245
88.4268987
87.9603739
92.4519796
92.3597305
88.6755058
87.996043
92.3911259
92.4439535
89.0448009
87.6768331
87.8028462
92.5692353
92.3203819
88.581728
88.0718147
92.961256
92.4020613
88.9802389
87.7492127
87.9195394
92.5507771
92.2860477
88.5281978
88.1510216
92.5811852
92.3539849
88.8928804
87.8049287
88.1484057
92.4731858
92.3118717
88.4741865
87.8966874
87.8431037
88.3376255
92.7044648
92.2435543
92.7652245
92.2533727
92.7875737
88.1848675
87.9225645
87.9692869
87.8396429
88.4772005
92.6884964
92.1465558
92.4035324
88.1979627
87.84902
88.8281248
92.422067
92.47581
88.1844263
87.8226777
88.8560392
92.4327339
92.5497262
88.2033278
87.8958773
87.8693338
88.5759648
92.6383676
92.2705016
92.7675786
92.2888527
92.9045747
88.2263062
87.8898504
87.8575391
88.697269
92.4420261
92.6156683
88.1435706
87.851367
88.9451435
92.4585127
92.5794455
88.1995078
87.9264103
89.1601234
92.4405089
92.5981461
88.2406056
87.9640518
89.2242026
92.4384389
92.6516557
88.2457763
87.888213
87.8722609
89.0757518
92.5038302
92.108584
88.1616494
88.8080975
92.4725349
92.1470521
88.1843308
88.8438956
92.4596233
92.3921102
88.0299613
87.8028726
89.023204
92.5450897
92.8729161
88.2006319
88.2695497
92.5805835
92.2736981
91.0242354
88.2109583
87.9262405
88.4480892
92.5049069
92.3448897
89.5091227
87.9530114
87.7852245
88.5967147
92.7097376
92.0450099
88.0437936
88.3316123
92.7074652
92.4245545
88.0974076
88.3988615
92.6882523
92.3533702
88.14463
88.5465546
92.6566661
92.2898516
88.2159651
88.5827972
92.6160515
92.9668068
88.1206901
87.8176416
88.9749821
92.6646663
92.0905983
88.2963633
88.7995172
92.5825119
92.9256039
88.1719211
87.8960178
89.0713539
92.6365799
92.8626008
88.1363827
87.8860365
89.138347
92.6256451
92.392108
88.4078086
89.0106225
92.5777243
92.8399095
88.1568633
87.994437
89.8870702
92.5430175
92.3744242
88.1756985
88.0449001
90.2935365
92.5037761
91.7025888
88.2050081
87.9492814
87.9509047
89.5466257
92.4747953
92.3029237
90.6826291
88.412543
89.8558862
92.476529
91.2658539
88.1696896
87.9657879
88.0025593
91.0336983
92.4297693
92.3833317
91.0994438
88.1286394
88.0244636
87.9329799
87.9117391
90.7282443
92.5212389
90.0915807
88.0476802
89.669532
92.6017743
90.0365277
88.0217709
90.0020986
92.5773909
89.628974
88.0922006
90.6995743
92.4609927
90.0843638
88.1819395
88.7986833
92.5432924
92.3614411
89.2975618
87.8194273
87.9405553
92.8698326
92.4554993
89.2413209
87.8623055
88.0126773
92.835304
92.4579869
89.0726702
87.8103881
87.9618179
92.8861123
92.4677317
88.7035957
88.2535814
92.9477875
92.4685312
88.7548149
87.7620896
87.975283
92.9800669
92.5570098
88.6059778
88.1921978
92.6285745
92.6040649
88.5794667
88.2372744
92.5910085
92.5309667
88.7404838
87.7802269
88.0848411
93.0321737
92.6739239
88.8440875
88.4614243
92.6314721
92.5870632
88.9396682
87.9609494
88.2948823
93.0182577
92.6227644
89.0788546
88.014397
88.4175893
93.0003602
92.7154931
88.8892089
87.9454434
87.9055702
88.8695552
92.9379012
92.4122813
92.5727636
92.3929798
92.4699951
89.1326419
88.1563547
88.1544999
88.1907669
88.2019994
88.199271
88.1803586
89.3951147
92.8606504
92.8181868
88.5670502
88.0114728
88.8335806
93.0426434
92.1857977
88.524979
88.9236406
93.0664111
91.9415827
88.505393
89.0760342
93.049524
92.2089286
88.1584142
87.9169719
89.1373419
93.0192905
91.5566848
88.6098575
89.437634
92.9612122
92.0703638
88.2015126
88.0123166
89.6263321
92.8824526
92.131546
88.2270886
88.0474126
89.8236726
92.8249714
92.0095048
88.2006899
88.0468732
90.0172666
92.7696757
91.861644
88.1604275
88.0353065
90.217652
92.7097516
91.723224
88.1218595
88.0312309
90.3979354
92.6486361
91.6216904
88.0790348
88.0213009
90.5486139
92.6012929
91.4860433
88.020163
87.9894524
90.6460232
92.5827686
91.2531588
87.9157126
87.9115026
90.7036248
92.5188695
90.8061495
88.3240824
90.0845843
92.4887267
90.9597966
87.8729183
87.9825659
90.9522556
92.4848188
91.1430802
87.8951262
87.9966531
91.1336554
92.4509396
91.0942215
87.8471002
87.9954617
91.2632331
92.3904412
92.4471878
91.0113802
87.6640244
87.782027
91.3316187
92.4618512
90.8969474
87.5037545
87.5880947
91.3060939
92.4110923
90.7649995
87.1706036
87.2740436
92.3586144
91.9410364
92.1104776
91.7934817
91.8375195
91.6491399
89.9245281
86.5151447
89.0604927
90.4505357
90.3226631
90.001817
89.7369867
89.4626083
89.1522098
88.8452326
88.5001724
88.1987496
87.8835697
87.5167787
87.2565599
87.0682788
86.8612516
86.5254021
86.0410073
85.4911626
84.9662243
84.2774553
83.6691282
82.8398678
82.3732817
82.143758
81.6287473
81.1662452
80.3389505
79.2026108
78.4361776
76.6390206
75.7267257
73.8161296
72.766487
73.3046299
73.3498068
71.4711411
69.7837296
67.8383485
65.983412
63.9644036
61.8646344
59.7040682
58.1833957
57.8858545
52.3726241
56.8972644
49.2982864
33.295722
30.1333118
21.4150226
19.4407182
12.7957043
7.68563892
-2.49104663
-12.0713144
-30.375172
-41.3584813
-53.6327047
-67.1423336
-81.1806915
-89.8946843
-97.2660367
-103.281625
-110.594837
-116.313842
-122.321169
-126.93781
-131.895518
-135.701335
-139.803439
-142.990606
-146.42379
-149.093016
-151.932388
-154.124766
-156.360338
-157.936224
-159.605436
-161.022957
-162.643013
-164.054539
-165.570639
-166.94133
-168.378953
-169.64546
-170.931931
-172.023423
-173.201
-174.215826
-175.294928
-176.446341
-177.737774
-178.820817
-179.764946
-180.438843
-181.220719
-181.870078
-182.571669
-183.14658
-183.792292
-184.335902
-184.942287
-185.452927
-186.028608
-186.558088
-187.16441
-187.715675
-188.378376
-188.903795
-189.429715
-189.879202
-190.367041
-190.792984
-191.259576
-191.667191
-192.106809
-192.495903
-192.894435
-193.246935
-193.621132
-193.961133
-194.318465
-194.67091
-195.04896
-195.392585
-195.743545
-196.064379
-196.390462
-196.690431
-196.993745
-197.255981
-197.519293
-197.766637
-198.015718
-198.251148
-198.487126
-198.711402
-198.935314
-199.14395
-199.349215
)
;

boundaryField
{
    closed
    {
        type            calculated;
        value           nonuniform List<scalar> 0();
    }
    open
    {
        type            calculated;
        value           nonuniform List<scalar> 0();
    }
    sides
    {
        type            empty;
    }
    procBoundary4to3
    {
        type            processor;
        value           uniform 92.4424004;
    }
    procBoundary4to5
    {
        type            processor;
        value           uniform -199.546357;
    }
}


// ************************************************************************* //
