/*--------------------------------*- C++ -*----------------------------------*\
| =========                 |                                                 |
| \\      /  F ield         | OpenFOAM: The Open Source CFD Toolbox           |
|  \\    /   O peration     | Version:  2306                                  |
|   \\  /    A nd           | Website:  www.openfoam.com                      |
|    \\/     M anipulation  |                                                 |
\*---------------------------------------------------------------------------*/
FoamFile
{
    version     2.0;
    format      ascii;
    arch        "LSB;label=32;scalar=64";
    class       volScalarField;
    location    "0.00092";
    object      rho;
}
// * * * * * * * * * * * * * * * * * * * * * * * * * * * * * * * * * * * * * //

dimensions      [1 -3 0 0 0 0 0];

internalField   nonuniform List<scalar> 
531
(
0.904800155
0.943636759
0.966036771
0.957653588
0.902856224
0.902166185
0.938032347
0.950617134
0.913408451
0.902512031
0.937677021
0.950080812
0.914140518
0.903461615
0.937719084
0.964170172
0.957383904
0.90353296
0.902763953
0.937438197
0.947282145
0.905096778
0.903621684
0.937786906
0.961708712
0.953358434
0.904074672
0.902853041
0.93844568
0.944448258
0.902850723
0.903589093
0.938886752
0.959401231
0.9445453
0.903745864
0.902431661
0.939364409
0.954217829
0.958741643
0.940693696
0.906178015
0.902825384
0.907810736
0.903043213
0.906492512
0.942253194
0.957426488
0.950774614
0.960047864
0.941489084
0.906375679
0.902574921
0.915720302
0.941982219
0.959574973
0.940064495
0.90419851
0.903364283
0.943240372
0.959775241
0.939521401
0.904423259
0.903359901
0.943609893
0.955906461
0.957836167
0.940233796
0.905767443
0.90290691
0.907881172
0.90333459
0.907000968
0.941633289
0.957324517
0.956790852
0.938493007
0.903190259
0.903750368
0.944529795
0.958725059
0.938259001
0.903663703
0.903392516
0.942443005
0.955485304
0.937426366
0.903624401
0.903514333
0.940848906
0.954028965
0.937077843
0.903776777
0.903702174
0.94140855
0.956050747
0.956596716
0.937878716
0.90362451
0.91749964
0.945242322
0.938266608
0.903153692
0.917182304
0.944111698
0.938045405
0.902779621
0.914853569
0.948735669
0.960436075
0.938141478
0.904067463
0.909745687
0.944383812
0.940735468
0.903523371
0.902912025
0.926768107
0.940778597
0.955202196
0.939524272
0.90274244
0.902347493
0.935807255
0.950918432
0.960129542
0.939294768
0.904201691
0.917857587
0.950876785
0.938697279
0.904429541
0.914494002
0.949030927
0.939003689
0.90489626
0.915854837
0.947645746
0.93981924
0.905638405
0.917441737
0.945471671
0.940257691
0.906285646
0.909717124
0.948215696
0.96416834
0.94256026
0.908649704
0.921985098
0.944494365
0.942853099
0.908765324
0.911901539
0.948711197
0.963175524
0.944350114
0.910509368
0.91630584
0.951187809
0.964017362
0.945037517
0.910957216
0.921436262
0.945626049
0.944770837
0.910521805
0.917082742
0.951128113
0.959535004
0.941785954
0.910914797
0.921671028
0.950306317
0.956754233
0.939038563
0.910341819
0.927790432
0.948821989
0.959184678
0.959452437
0.943435967
0.910037809
0.908424713
0.935908971
0.945706707
0.94121268
0.909375105
0.931284289
0.950214185
0.959129368
0.95745778
0.933322159
0.910929331
0.910192052
0.932888897
0.952056174
0.957024887
0.96022984
0.961890258
0.936272554
0.910562348
0.940853037
0.956876048
0.943616173
0.910766627
0.941559632
0.958282247
0.941899988
0.910514545
0.943898703
0.954828524
0.936904546
0.910404933
0.940799726
0.951445128
0.945679203
0.910828051
0.909455627
0.943754919
0.966073592
0.959730438
0.911542908
0.909325607
0.942691421
0.963517186
0.956296929
0.91054698
0.908340536
0.942511837
0.964718987
0.957509888
0.910716992
0.906722389
0.94187387
0.944869093
0.912567916
0.907035077
0.942672075
0.965768767
0.956471734
0.910921525
0.90640529
0.942323658
0.947479421
0.915684619
0.90676593
0.942544069
0.945573711
0.916079898
0.906840659
0.943515724
0.964715644
0.951885178
0.911706529
0.907350315
0.942267129
0.941615428
0.915952363
0.907286593
0.943054957
0.957649362
0.94258743
0.912109243
0.907472686
0.942503764
0.955586285
0.942517763
0.912367893
0.908067858
0.942997395
0.956712309
0.959168921
0.942923562
0.913117557
0.907246663
0.909168928
0.907157696
0.907062682
0.942538831
0.94878794
0.948218728
0.947429837
0.94661527
0.946855183
0.948397549
0.941463973
0.911254236
0.910635757
0.945090086
0.956273032
0.944628573
0.913086148
0.921853537
0.944386959
0.944631881
0.913435672
0.924924203
0.945096107
0.944994031
0.914474536
0.923240102
0.949981368
0.962119507
0.946181734
0.915123344
0.930202176
0.946459636
0.945299152
0.915479347
0.926177337
0.950259884
0.959803488
0.94529441
0.91592
0.92626771
0.949976456
0.958896841
0.944776152
0.915995078
0.927901674
0.95160707
0.959187883
0.944038176
0.915920833
0.929598306
0.953662758
0.959760118
0.942933382
0.915610007
0.93092506
0.95536013
0.959654863
0.94142743
0.914841982
0.931372326
0.95666203
0.95929508
0.939510448
0.913603858
0.931531666
0.957993927
0.959267531
0.937344131
0.91186536
0.931957391
0.960554094
0.960433149
0.935130294
0.90914467
0.933879044
0.944333218
0.938023206
0.907390716
0.931327835
0.958897989
0.953933478
0.930208761
0.906161183
0.928235137
0.956617507
0.951279463
0.927339467
0.904036298
0.927297661
0.956165087
0.949396982
0.925011004
0.90262654
0.902128087
0.926724977
0.960302976
0.954250106
0.923101797
0.899046929
0.926817557
0.96280351
0.957061317
0.922353129
0.894521181
0.927456896
0.97005609
0.962167493
0.910538662
0.8915895
0.893392665
0.895004512
0.897156336
0.898236246
0.93525183
0.972010178
0.945674522
0.899437894
0.900467302
0.901826215
0.902068686
0.902813015
0.902699432
0.902581582
0.902068431
0.901201791
0.899749172
0.896970724
0.892921448
0.883639368
0.881324286
0.888380179
0.896807405
0.90453276
0.910270146
0.916005046
0.919371661
0.925420241
0.929737539
0.930255599
0.937888057
0.941733315
0.945674026
0.948996611
0.948158945
0.954853822
0.961137111
0.975007545
0.981735468
0.949770125
0.90758782
0.92281692
0.937994899
0.955709978
0.972787071
0.991995035
1.01281675
1.03561155
1.04055477
0.996018231
0.971137782
0.90812313
0.87723925
0.786591317
0.766890654
0.716235943
0.701699731
0.661209616
0.63601955
0.584491492
0.536577423
0.469968424
0.437162705
0.407834349
0.379034355
0.351270466
0.336052909
0.323418581
0.313291769
0.301227868
0.292124056
0.282970773
0.276128108
0.269079114
0.263684059
0.258104426
0.253676435
0.249155391
0.245465662
0.2417698
0.238642207
0.235658979
0.233328833
0.231096787
0.229001389
0.226979003
0.225026398
0.223252695
0.221450867
0.2198485
0.21827614
0.216873529
0.215543596
0.214303268
0.213089656
0.21196932
0.210577727
0.20908584
0.207777805
0.206769116
0.206054669
0.205316227
0.204637033
0.203978929
0.203380622
0.202780397
0.202216676
0.201668244
0.201151264
0.200626464
0.20008882
0.199523969
0.198950009
0.198284549
0.1977199
0.197208986
0.196735614
0.196261526
0.195819455
0.195367809
0.194945071
0.194510876
0.194103544
0.193721319
0.193375558
0.193020668
0.192689458
0.192348212
0.191999091
0.191620282
0.191276116
0.190922406
0.190602567
0.190272176
0.189974565
0.189665767
0.189418891
0.189163193
0.188933381
0.188690086
0.188472566
0.188240794
0.188034432
0.187813364
0.187626084
0.187428477
)
;

boundaryField
{
    closed
    {
        type            calculated;
        value           nonuniform List<scalar> 0();
    }
    open
    {
        type            calculated;
        value           nonuniform List<scalar> 0();
    }
    sides
    {
        type            empty;
    }
    procBoundary4to3
    {
        type            processor;
        value           uniform 0.903673716;
    }
    procBoundary4to5
    {
        type            processor;
        value           uniform 0.187254433;
    }
}


// ************************************************************************* //
