/*--------------------------------*- C++ -*----------------------------------*\
| =========                 |                                                 |
| \\      /  F ield         | OpenFOAM: The Open Source CFD Toolbox           |
|  \\    /   O peration     | Version:  2306                                  |
|   \\  /    A nd           | Website:  www.openfoam.com                      |
|    \\/     M anipulation  |                                                 |
\*---------------------------------------------------------------------------*/
FoamFile
{
    version     2.0;
    format      ascii;
    arch        "LSB;label=32;scalar=64";
    class       volScalarField;
    location    "0.00092";
    object      T;
}
// * * * * * * * * * * * * * * * * * * * * * * * * * * * * * * * * * * * * * //

dimensions      [0 0 0 1 0 0 0];

internalField   nonuniform List<scalar> 
531
(
339.022132
327.573431
319.919716
322.781446
339.89481
340.237848
329.458086
325.228399
336.104436
340.155064
329.461411
325.477274
335.918603
339.82657
329.211916
320.710647
323.036425
339.805229
340.214674
329.789951
326.565894
339.113404
339.923776
329.397432
321.696039
324.555308
339.749412
340.330246
329.573603
327.662175
340.237659
340.08265
329.16109
322.606646
327.69094
340.027282
340.593258
329.381237
324.42185
322.918791
328.98695
339.102309
340.5459
338.496151
340.477639
338.980895
328.560913
323.45983
325.664064
322.556845
328.62914
339.098645
340.736546
335.818312
328.662933
322.732499
328.940332
340.022299
340.300458
328.273275
322.645317
329.127179
339.919091
340.246677
328.14928
323.929325
323.270385
329.005006
339.278301
340.477686
338.420821
340.284203
338.647979
328.693129
323.340501
323.478902
329.456138
340.16288
339.861702
327.598895
322.75664
329.253294
339.901989
339.932576
328.250919
323.807403
329.351877
339.87543
339.838617
328.767903
324.288155
329.426933
339.816298
339.749284
328.605094
323.594641
323.412096
329.257781
339.878576
334.987596
327.340678
329.348861
340.088727
335.10543
327.737084
329.420517
340.232843
335.840271
326.108656
322.125224
329.197386
339.684578
337.44447
327.603479
328.823024
339.819845
340.172991
332.069036
328.712448
323.819694
328.97212
340.084245
340.298825
329.616213
325.220096
322.102561
328.954895
339.484257
334.804706
325.36738
329.509958
339.508179
335.989054
326.14973
329.537304
339.549797
335.757267
326.875214
329.418368
339.603739
335.54597
327.962143
329.64629
339.778326
338.472085
327.379325
322.089585
329.001248
339.420948
334.923143
329.191156
329.484452
339.79798
338.585748
328.051895
323.253017
329.11049
339.505728
337.348221
327.511589
323.229922
329.051591
339.554465
335.87026
329.479202
329.352748
339.784026
337.279838
327.684408
324.85019
329.799836
339.614728
335.766177
327.896597
325.708779
330.465998
339.747508
333.769084
328.306798
324.767311
324.666123
329.186522
339.771388
340.425149
331.245211
329.156771
329.788933
339.983607
332.611012
327.759111
324.745186
325.322395
332.024999
339.497677
339.804014
332.213932
327.23773
325.586116
324.511098
323.984962
331.301848
339.781906
330.049238
325.797263
329.335197
339.759175
329.893783
325.382996
329.80116
339.891197
329.303707
326.537661
331.189314
339.930059
330.090491
327.60114
329.099681
339.593109
340.125314
329.30163
322.37891
324.464753
338.899555
339.831159
329.422464
322.936527
325.322121
338.948787
339.860523
329.257642
322.20943
324.60866
338.577272
340.179062
329.538205
328.758846
337.729348
339.94348
329.048862
321.543637
324.706531
338.230607
340.057626
329.240589
327.746393
336.624394
339.890587
329.165297
328.396695
336.506809
339.91235
328.660746
321.879322
326.271329
337.937289
339.690374
329.119307
329.697656
336.585881
339.769069
328.727312
324.321376
329.401645
337.799978
339.684266
328.846577
325.051481
329.38006
337.735975
339.430156
328.801739
324.639677
323.817069
328.863943
337.510503
339.897135
339.134573
339.960103
339.972642
328.878959
327.441325
327.637434
327.93912
328.227956
328.16936
327.68159
329.270555
338.464212
338.747806
328.604202
325.186713
328.694535
337.956064
335.213546
329.252888
328.905696
338.071865
334.478266
329.294105
328.952771
337.981581
335.24923
328.038608
324.023347
328.814099
338.099301
333.372424
329.351671
329.211063
338.238039
334.821578
328.484958
325.332264
329.35063
338.357311
334.992215
328.791591
325.837787
329.615051
338.539985
334.636544
328.404889
325.890025
329.917194
338.725123
334.214657
327.815773
325.781507
330.277167
338.916431
333.827994
327.240479
325.773222
330.638401
339.099275
333.549576
326.605815
325.656532
330.961667
339.244711
333.18139
325.750473
325.213681
331.179381
339.344704
332.559432
324.300861
324.230824
331.297434
339.728494
331.443261
329.134279
330.103709
339.899292
331.792181
323.768848
325.342281
331.869118
339.774674
332.244579
324.010744
325.715416
332.287343
340.060916
332.096969
323.670001
325.881487
332.592344
340.160178
340.237087
331.796724
321.723695
323.696693
332.746601
340.964455
331.397896
320.44585
322.295169
332.633481
342.29004
330.818486
317.558032
320.110004
336.141007
343.267876
342.475176
341.962268
341.097778
340.730993
327.691293
315.911644
324.079604
340.611956
340.245642
339.836477
339.818934
339.620411
339.754482
339.888986
340.184015
340.592789
341.222311
342.354921
343.913345
347.344815
348.282983
345.877255
343.003499
340.383966
338.453781
336.527843
335.41096
333.517553
332.224185
332.208963
330.192344
329.077519
327.863918
326.683019
326.745322
324.436877
322.531892
318.278334
316.382237
328.918757
342.977107
337.770914
332.761747
326.860383
321.400608
315.498451
309.463733
303.354367
304.221466
319.864681
328.389245
349.861358
363.288169
409.335197
418.096919
449.421477
461.264719
489.219046
511.537312
558.014775
605.31189
691.146033
741.342951
793.673752
853.117477
918.060141
958.784703
995.141276
1026.21549
1066.26781
1098.51868
1132.79244
1160.02168
1189.42619
1212.90345
1238.14388
1258.99229
1281.0604
1299.56889
1318.74035
1335.30825
1351.64772
1364.66386
1377.53892
1389.72438
1401.86136
1413.65443
1424.7377
1436.04033
1446.42471
1456.66093
1466.09543
1475.05063
1483.65023
1492.06676
1500.05158
1509.96676
1520.83431
1530.48931
1538.18143
1543.68754
1549.51973
1554.83425
1560.04933
1564.8229
1569.66499
1574.16866
1578.65324
1582.83099
1587.10957
1591.49259
1596.1404
1600.80681
1606.22758
1610.82469
1615.06066
1618.95223
1622.87945
1626.5433
1630.34464
1633.88104
1637.54013
1640.95686
1644.21087
1647.15003
1650.18547
1653.00955
1655.93459
1658.95277
1662.26694
1665.27674
1668.3813
1671.18958
1674.09903
1676.72274
1679.45113
1681.65692
1683.94793
1686.01322
1688.20083
1690.1644
1692.25572
1694.12663
1696.12833
1697.84761
1699.66386
)
;

boundaryField
{
    closed
    {
        type            fixedValue;
        value           nonuniform List<scalar> 0();
    }
    open
    {
        type            zeroGradient;
    }
    sides
    {
        type            empty;
    }
    procBoundary4to3
    {
        type            processor;
        value           uniform 339.60192;
    }
    procBoundary4to5
    {
        type            processor;
        value           uniform 1701.27481;
    }
}


// ************************************************************************* //
