/*--------------------------------*- C++ -*----------------------------------*\
| =========                 |                                                 |
| \\      /  F ield         | OpenFOAM: The Open Source CFD Toolbox           |
|  \\    /   O peration     | Version:  2306                                  |
|   \\  /    A nd           | Website:  www.openfoam.com                      |
|    \\/     M anipulation  |                                                 |
\*---------------------------------------------------------------------------*/
FoamFile
{
    version     2.0;
    format      ascii;
    arch        "LSB;label=32;scalar=64";
    class       volScalarField;
    location    "0.00164";
    object      prefDZ_H2;
}
// * * * * * * * * * * * * * * * * * * * * * * * * * * * * * * * * * * * * * //

dimensions      [1 -1 -1 0 0 0 0];

internalField   nonuniform List<scalar> 
530
(
0.000190009781
0.000190120857
0.000190229174
0.000190336235
0.000190440432
0.000190541617
0.000190636446
0.000190731225
0.000190822602
0.000190914151
0.00019100228
0.000191090782
0.000191175858
0.00019126149
0.000191343698
0.000191426633
0.000191506143
0.000191586552
0.000191663525
0.000191741575
0.000191816167
0.000191892015
0.000191962508
0.000192032988
0.000192099848
0.000192168375
0.000192233253
0.000192299919
0.000192362894
0.000192427789
0.000192488939
0.000192552147
0.000192611549
0.000192673149
0.000192730882
0.000192790949
0.000192847088
0.000192905695
0.000192960315
0.000193017534
0.000193070706
0.00019312661
0.000193178404
0.000193233062
0.000193283546
0.00019333703
0.000193386694
0.000193439008
0.00019348651
0.000193537536
0.000193583744
0.000193633523
0.000193678469
0.000193727044
0.000193770759
0.000193818167
0.000193860686
0.000193906963
0.000193948317
0.000193993496
0.000194033718
0.000194077831
0.000194116952
0.000194160029
0.00019419808
0.000194240152
0.000194277162
0.000194318257
0.000194354255
0.000194394401
0.000194429415
0.000194468642
0.000194502699
0.000194541032
0.000194574159
0.000194611626
0.000194643849
0.000194680477
0.000194711823
0.000194747637
0.000194778133
0.000194813158
0.000194842831
0.000194877093
0.000194905969
0.000194939494
0.000194967599
0.000195000412
0.000195027773
0.000195059902
0.000195086486
0.000195117086
0.000195142207
0.000195172085
0.000195196454
0.000195225616
0.00019524924
0.000195277693
0.000195300577
0.000195328327
0.000195350478
0.00019537753
0.000195398955
0.000195425314
0.000195446019
0.000195471689
0.000195491679
0.000195516665
0.000195535947
0.000195560253
0.000195578832
0.00019560246
0.000195620342
0.000195643297
0.000195660488
0.00019568277
0.000195699276
0.00019572089
0.000195736715
0.000195757663
0.00019577281
0.0001957931
0.000195807568
0.000195827209
0.000195840991
0.000195860003
0.000195873081
0.000195891494
0.000195903839
0.000195921697
0.000195933265
0.000195950628
0.00019596136
0.000195978294
0.000195988131
0.000196004038
0.000196014203
0.000196028573
0.000196038926
0.000196051894
0.00019606232
0.000196073994
0.000196084403
0.000196094868
0.000196105194
0.000196114517
0.000196124708
0.000196132945
0.000196142954
0.000196150164
0.000196159941
0.000196166183
0.000196175315
0.000196180755
0.000196189708
0.000196194413
0.000196202859
0.000196206858
0.000196214779
0.000196218091
0.000196225479
0.000196228117
0.000196234971
0.000196236945
0.000196243262
0.000196244585
0.000196250363
0.000196251045
0.000196256281
0.000196256334
0.000196261026
0.000196260462
0.000196264606
0.000196263437
0.000196267032
0.00019626527
0.000196268313
0.000196265971
0.000196268462
0.000196265551
0.00019626749
0.00019626402
0.000196265408
0.000196261391
0.000196262231
0.000196257678
0.000196257972
0.000196252893
0.000196252646
0.000196247051
0.000196246268
0.00019624017
0.000196238854
0.000196232265
0.000196230549
0.000196223671
0.000196221465
0.000196214095
0.000196211339
0.000196203482
0.000196200175
0.000196191838
0.000196187981
0.000196179165
0.00019617476
0.00019616547
0.000196160521
0.000196150758
0.000196145269
0.000196135032
0.000196129011
0.000196118299
0.000196111755
0.000196100565
0.000196093505
0.000196081836
0.000196074266
0.000196062117
0.000196054048
0.000196041411
0.000196032866
0.000196020252
0.000196010745
0.000195997624
0.000195987618
0.000195974089
0.000195963513
0.000195949644
0.00019593846
0.000195924278
0.000195912482
0.000195897988
0.000195885593
0.000195870778
0.000195857803
0.000195842658
0.000195829122
0.00019581364
0.000195799562
0.000195783734
0.000195769131
0.000195752953
0.00019573784
0.000195721309
0.000195705701
0.000195688814
0.000195672724
0.000195655482
0.000195638922
0.000195621323
0.000195604307
0.000195586352
0.000195568892
0.000195550582
0.000195532688
0.000195514026
0.000195495709
0.000195476698
0.000195457969
0.000195438611
0.000195419481
0.00019539978
0.000195380259
0.000195360219
0.000195340316
0.000195319943
0.000195299669
0.000195278967
0.000195258331
0.000195237306
0.000195216203
0.000195194517
0.000195172854
0.000195150855
0.000195128859
0.000195106553
0.000195084233
0.000195061628
0.000195038993
0.000195016096
0.000194993156
0.000194969975
0.00019494674
0.000194923282
0.000194899761
0.000194876036
0.000194852239
0.000194828253
0.00019480419
0.000194779952
0.000194755632
0.000194731151
0.000194706585
0.000194681868
0.000194657065
0.000194632123
0.000194607093
0.000194581933
0.000194556686
0.000194531318
0.000194505863
0.000194480296
0.000194454643
0.000194428887
0.000194403046
0.000194377109
0.000194351089
0.000194324981
0.000194298792
0.000194272523
0.000194246174
0.000194219753
0.000194193269
0.000194166716
0.000194140082
0.000194113376
0.000194086593
0.000194059743
0.000194032821
0.000194005838
0.000193978788
0.000193951682
0.000193924513
0.000193897294
0.000193870017
0.000193842694
0.000193815318
0.000193787902
0.000193760437
0.000193732937
0.000193705393
0.000193677819
0.000193650205
0.000193622567
0.000193594893
0.0001935672
0.000193539477
0.000193511737
0.000193483973
0.000193456198
0.000193428402
0.0001934006
0.000193372783
0.000193344963
0.000193317132
0.000193289303
0.000193261469
0.000193233641
0.000193205812
0.000193177993
0.000193150178
0.000193122377
0.000193094585
0.000193066811
0.00019303905
0.000193011312
0.000192983592
0.000192955897
0.000192928226
0.000192900583
0.000192872969
0.000192845183
0.000192817212
0.000192789281
0.000192761395
0.000192733555
0.000192705762
0.00019267802
0.000192650328
0.000192622691
0.000192595107
0.000192567583
0.000192540115
0.00019251271
0.000192485365
0.000192458086
0.000192430872
0.000192403727
0.00019237665
0.000192349645
0.000192322712
0.000192295854
0.000192269072
0.000192242368
0.000192215743
0.000192189199
0.000192162737
0.000192136359
0.000192110067
0.000192083862
0.000192057746
0.000192031719
0.000192005784
0.000191979942
0.000191954194
0.000191928541
0.000191902986
0.000191877529
0.000191852172
0.000191826916
0.000191801762
0.000191776711
0.000191751766
0.000191726926
0.000191702193
0.000191677569
0.000191653054
0.00019162865
0.000191604357
0.000191580178
0.000191556112
0.00019153216
0.000191508326
0.000191484607
0.000191461007
0.000191437524
0.000191414163
0.00019139092
0.000191367802
0.000191344802
0.00019132193
0.000191299179
0.000191276597
0.00019125413
0.000191231791
0.000191209571
0.000191187479
0.00019116551
0.000191143668
0.000191121953
0.000191100365
0.000191078905
0.000191057575
0.000191036374
0.000191015304
0.000190994365
0.000190973557
0.000190952882
0.000190932339
0.00019091193
0.000190891654
0.000190871513
0.000190851507
0.000190831635
0.0001908119
0.0001907923
0.000190772836
0.00019075351
0.00019073432
0.000190715267
0.000190696353
0.000190677575
0.000190658917
0.000190639717
0.000190619315
0.000190597649
0.000190574658
0.00019055028
0.000190524452
0.000190497116
0.000190468211
0.000190437683
0.000190405479
0.000190371553
0.000190335865
0.000190298384
0.000190259092
0.00019021798
0.00019017482
0.000190129204
0.000190081825
0.000190032758
0.000189982103
0.000189929997
0.000189876608
0.000189822145
0.000189766854
0.000189711027
0.000189654994
0.000189599133
0.000189543855
0.00018948961
0.000189436871
0.000189386126
0.000189337865
0.00018929256
0.000189250645
0.000189212493
0.000189178397
0.00018914854
0.00018912299
0.000189101675
0.000189084399
0.000189070833
0.000189060553
0.000189053066
0.000189047849
0.00018904439
0.000189042232
0.000189040967
0.000189040314
0.000189039961
0.000189039531
0.000189039318
0.000189039221
0.00018903918
0.000189039169
0.000189039162
0.00018903916
0.00018903916
0.00018903916
0.00018903916
0.00018903916
0.00018903916
0.00018903916
0.00018903916
0.00018903916
0.00018903916
0.00018903916
0.00018903916
0.00018903916
0.00018903916
0.00018903916
0.00018903916
0.00018903916
0.00018903916
0.00018903916
0.00018903916
0.00018903916
0.00018903916
)
;

boundaryField
{
    closed
    {
        type            calculated;
        value           nonuniform List<scalar> 0();
    }
    open
    {
        type            calculated;
        value           uniform 0.00018903916;
    }
    sides
    {
        type            empty;
    }
    procBoundary5to4
    {
        type            processor;
        value           uniform 0.000189896974;
    }
}


// ************************************************************************* //
