/*--------------------------------*- C++ -*----------------------------------*\
| =========                 |                                                 |
| \\      /  F ield         | OpenFOAM: The Open Source CFD Toolbox           |
|  \\    /   O peration     | Version:  2306                                  |
|   \\  /    A nd           | Website:  www.openfoam.com                      |
|    \\/     M anipulation  |                                                 |
\*---------------------------------------------------------------------------*/
FoamFile
{
    version     2.0;
    format      ascii;
    arch        "LSB;label=32;scalar=64";
    class       volScalarField;
    location    "0.0007";
    object      p;
}
// * * * * * * * * * * * * * * * * * * * * * * * * * * * * * * * * * * * * * //

dimensions      [1 -1 -2 0 0 0 0];

internalField   nonuniform List<scalar> 
531
(
101335.029
101329.803
101323.415
101315.962
101307.079
101296.709
101284.995
101272.047
101257.903
101242.109
101224.273
101204.496
101185.266
101170.402
101156.814
101142.955
101129.096
101115.983
101103.137
101090.634
101078.374
101066.323
101054.769
101044.207
101036.829
101032.236
101031.027
101030.796
101031.257
101032.943
101036.116
101040.688
101045.796
101051.902
101058.112
101064.03
101070.002
101076.123
101081.88
101087.219
101092.01
101096.143
101100.071
101103.92
101107.774
101112.237
101117.624
101124.039
101131.232
101139.083
101147.91
101157.611
101168.277
101179.149
101190.159
101201.822
101213.756
101225.51
101236.418
101246.983
101257.127
101267.006
101276.082
101284.5
101293.062
101301.948
101311.019
101320.067
101329.634
101339.657
101349.822
101359.651
101369.709
101379.94
101390.078
101399.733
101409.368
101418.95
101428.056
101436.241
101443.96
101451.232
101457.914
101463.716
101469.105
101474.105
101479.229
101484.514
101489.871
101495.466
101501.605
101507.228
101512.89
101526.374
101532.484
101539.513
101547.367
101556.16
101565.814
101576.426
101587.162
101597.323
101607.563
101618.063
101628.804
101639.231
101649.886
101660.951
101672.761
101684.606
101695.766
101707.012
101718.424
101729.912
101740.828
101751.696
101762.749
101774.395
101786.091
101797.201
101808.403
101819.914
101831.925
101843.781
101854.77
101865.696
101876.792
101888.272
101899.523
101909.853
101920.189
101930.741
101941.692
101952.4
101961.951
101971.523
101980.938
101990.225
101998.585
102006.92
102015.434
102024.14
102032.331
102039.631
102046.649
102052.999
102058.867
102063.539
102067.952
102072.175
102076.275
102080.035
102082.927
102085.471
102087.904
102089.817
102091.029
102091.387
102091.237
102090.416
102088.761
102086.466
102083.613
102080.439
102076.664
102072.583
102068.318
102064.161
102059.978
102055.816
102051.879
102048.165
102044.684
102040.871
102036.829
102032.516
102028.176
102023.529
102018.637
102013.808
102009.222
102004.914
102000.315
101995.682
101991.336
101987.377
101983.707
101980.33
101977.262
101974.483
101972.18
101970.036
101967.665
101965.103
101962.787
101960.844
101958.769
101955.958
101952.123
101947.533
101942.627
101938.155
101934.628
101931.673
101928.972
101925.971
101923.07
101921.122
101919.152
101916.185
101913.245
101910.876
101908.421
101906.091
101903.67
101901.409
101899.501
101898.284
101897.249
101896.64
101896.153
101895.084
101893.693
101891.962
101890.035
101887.865
101885.516
101882.467
101879.13
101875.767
101871.899
101867.862
101863.979
101860.613
101857.81
101855.562
101853.312
101851.303
101849.275
101847.021
101844.293
101840.635
101836.548
101832.277
101827.517
101822.176
101816.329
101809.908
101803.237
101796.9
101790.122
101782.742
101775.418
101768.956
101761.95
101754.893
101747.726
101741.011
101734.315
101727.031
101719.213
101711.469
101705.534
101699.927
101694.005
101688.161
101682.583
101676.962
101671.097
101665.666
101660.649
101655.724
101650.733
101645.451
101640.545
101635.579
101630.67
101625.954
101621.488
101618.049
101615.041
101611.747
101608.823
101606.09
101603.09
101600.219
101597.499
101594.859
101592.775
101590.924
101589.535
101588.259
101587.329
101586.643
101586.367
101586.313
101586.326
101586.645
101587.114
101587.967
101589.017
101590.082
101591.17
101592.146
101593.253
101594.367
101595.438
101596.541
101597.687
101599.174
101600.916
101602.918
101605.061
101607.722
101610.819
101614.401
101618.437
101622.755
101627.625
101633.224
101639.06
101644.619
101650.472
101656.499
101662.613
101668.383
101673.86
101679.4
101684.804
101690.012
101694.802
101699.161
101703.468
101707.88
101712.045
101715.58
101719.121
101722.48
101725.616
101728.408
101730.768
101733.083
101735.449
101737.729
101739.401
101741.15
101742.719
101744.026
101745.075
101745.606
101745.99
101746.069
101745.83
101745.392
101744.544
101743.561
101742.31
101740.958
101739.196
101737.465
101735.548
101733.438
101731.392
101729.207
101727.014
101724.778
101722.695
101720.579
101718.656
101716.834
101715.032
101713.445
101711.662
101709.859
101708.036
101706.177
101704.585
101702.968
101701.579
101700.522
101699.924
101699.467
101699.35
101699.626
101700.166
101701.049
101702.245
101703.43
101704.887
101706.618
101708.518
101710.557
101712.859
101715.037
101717.394
101720.072
101722.936
101725.967
101729.191
101732.264
101735.703
101739.417
101743.416
101747.626
101751.859
101756.531
101761.932
101767.66
101772.924
101778.467
101784.122
101789.83
101795.292
101800.3
101805.214
101810.076
101814.344
101817.862
101821.93
101826.486
101831.404
101835.328
101838.799
101842.12
101845.944
101850.445
101854.997
101859.55
101864.52
101869.686
101874.461
101879.081
101883.172
101886.87
101890.206
101893.62
101896.493
101900.158
101904.174
101907.96
101912.198
101916.574
101921.086
101925.62
101929.854
101934.373
101938.928
101943.51
101947.975
101951.953
101955.944
101959.771
101963.386
101966.711
101969.863
101972.648
101974.618
101976.752
101978.854
101980.4
101982.126
101983.858
101985.751
101987.678
101989.721
101991.185
101993.163
101994.824
101996.066
101996.384
101996.497
101996.334
101996.698
101998.155
102000.551
102002.441
102004.329
102007.323
102010.437
102013.054
102014.686
102015.739
102016.614
102017.958
102019.449
102021.08
102022.544
102024.183
102025.818
102027.245
102029.024
102030.771
102032.551
102034.123
102035.852
102037.467
102039.049
102040.652
102042.631
102044.743
102047.077
102049.235
102051.137
102052.296
102052.49
102052.01
102050.465
102047.668
102043.595
102038.608
102034.121
102030.965
102028.583
102025.451
102021.348
102016.416
102011.138
102005.762
101999.987
101993.957
101987.751
101981.75
101975.829
101969.574
101963.029
101956.271
101949.793
101943.328
101936.471
101929.166
101922.24
)
;

boundaryField
{
    closed
    {
        type            zeroGradient;
    }
    open
    {
        type            waveTransmissive;
        gamma           1.25;
        fieldInf        101325;
        lInf            1;
        value           nonuniform List<scalar> 0();
    }
    sides
    {
        type            empty;
    }
    procBoundary1to0
    {
        type            processor;
        value           uniform 101339.267;
    }
    procBoundary1to2
    {
        type            processor;
        value           uniform 101915.408;
    }
}


// ************************************************************************* //
