/*--------------------------------*- C++ -*----------------------------------*\
| =========                 |                                                 |
| \\      /  F ield         | OpenFOAM: The Open Source CFD Toolbox           |
|  \\    /   O peration     | Version:  2306                                  |
|   \\  /    A nd           | Website:  www.openfoam.com                      |
|    \\/     M anipulation  |                                                 |
\*---------------------------------------------------------------------------*/
FoamFile
{
    version     2.0;
    format      ascii;
    arch        "LSB;label=32;scalar=64";
    class       volScalarField;
    location    "0.0007";
    object      prefDPV_H2O;
}
// * * * * * * * * * * * * * * * * * * * * * * * * * * * * * * * * * * * * * //

dimensions      [1 -1 -1 0 0 0 0];

internalField   nonuniform List<scalar> 
531
(
-3.67635526e-07
-3.84840805e-07
-3.84084245e-07
-3.68128214e-07
-3.64331571e-07
-3.66926755e-07
-3.85037531e-07
-3.84164242e-07
-3.68028182e-07
-3.64150717e-07
-3.66940511e-07
-3.85277142e-07
-3.86849526e-07
-3.66236057e-07
-3.6747388e-07
-3.84958055e-07
-3.84143456e-07
-3.69366774e-07
-3.64517335e-07
-3.66696302e-07
-3.85593513e-07
-3.85766542e-07
-3.674904e-07
-3.67556584e-07
-3.85552395e-07
-3.8378134e-07
-3.72921058e-07
-3.65908636e-07
-3.65573388e-07
-3.64892402e-07
-3.65826912e-07
-3.86396043e-07
-3.8566088e-07
-3.67508279e-07
-3.66687712e-07
-3.85776518e-07
-3.84437879e-07
-3.71758466e-07
-3.64532319e-07
-3.65445599e-07
-3.86543643e-07
-3.85672354e-07
-3.67708529e-07
-3.66431229e-07
-3.84112156e-07
-3.8567188e-07
-3.67993317e-07
-3.66421644e-07
-3.82910725e-07
-3.84848146e-07
-3.7233313e-07
-3.64513773e-07
-3.64990179e-07
-3.85426629e-07
-3.85803294e-07
-3.68133981e-07
-3.66138842e-07
-3.81045867e-07
-3.8502513e-07
-3.73106856e-07
-3.64565708e-07
-3.64922038e-07
-3.84977782e-07
-3.85987862e-07
-3.67875083e-07
-3.66062815e-07
-3.81694409e-07
-3.85902269e-07
-3.68158718e-07
-3.65970638e-07
-3.80874838e-07
-3.85938252e-07
-3.68058267e-07
-3.65581688e-07
-3.79689995e-07
-3.86374628e-07
-3.68010153e-07
-3.65697994e-07
-3.80092464e-07
-3.85940128e-07
-3.68918171e-07
-3.65828223e-07
-3.77570822e-07
-3.84997288e-07
-3.76478271e-07
-3.64779808e-07
-3.65839237e-07
-3.86129963e-07
-3.80561526e-07
-3.6592136e-07
-3.67918166e-07
-3.86224026e-07
-3.86302573e-07
-3.66589434e-07
-3.65663373e-07
-3.78146237e-07
-3.84782314e-07
-3.77685994e-07
-3.65313055e-07
-3.65202816e-07
-3.83242562e-07
-3.85550305e-07
-3.68889335e-07
-3.65498704e-07
-3.76695298e-07
-3.8492128e-07
-3.77640775e-07
-3.65404526e-07
-3.6529947e-07
-3.84100404e-07
-3.85337805e-07
-3.68941065e-07
-3.65622293e-07
-3.77212694e-07
-3.84791304e-07
-3.78372018e-07
-3.65469849e-07
-3.65003872e-07
-3.80913917e-07
-3.84594228e-07
-3.7641059e-07
-3.6513285e-07
-3.64821573e-07
-3.8251512e-07
-3.84549192e-07
-3.75429973e-07
-3.6493485e-07
-3.64724217e-07
-3.84313452e-07
-3.84506769e-07
-3.7440893e-07
-3.64752295e-07
-3.64595674e-07
-3.86127109e-07
-3.84532718e-07
-3.69166199e-07
-3.65782146e-07
-3.80954296e-07
-3.84478281e-07
-3.74773722e-07
-3.64811533e-07
-3.64766838e-07
-3.86070159e-07
-3.84652506e-07
-3.67097709e-07
-3.66031779e-07
-3.86360732e-07
-3.8408909e-07
-3.73660121e-07
-3.64965265e-07
-3.65139646e-07
-3.8551791e-07
-3.83969097e-07
-3.74551918e-07
-3.65817974e-07
-3.64439703e-07
-3.64941259e-07
-3.85117576e-07
-3.84419491e-07
-3.71236974e-07
-3.64351619e-07
-3.65390519e-07
-3.85068213e-07
-3.85404505e-07
-3.66072083e-07
-3.670263e-07
-3.84276726e-07
-3.84395811e-07
-3.6991791e-07
-3.64387329e-07
-3.65704392e-07
-3.85062435e-07
-3.86084262e-07
-3.65851576e-07
-3.67165781e-07
-3.84272819e-07
-3.84712999e-07
-3.68895804e-07
-3.64349026e-07
-3.65708458e-07
-3.84917675e-07
-3.86256728e-07
-3.66062536e-07
-3.6651496e-07
-3.84699838e-07
-3.84808522e-07
-3.70467239e-07
-3.64718667e-07
-3.65532673e-07
-3.85635073e-07
-3.84952994e-07
-3.71087895e-07
-3.64687123e-07
-3.65384489e-07
-3.86062971e-07
-3.85064904e-07
-3.70694624e-07
-3.64413697e-07
-3.65321873e-07
-3.85466288e-07
-3.85716257e-07
-3.66242688e-07
-3.65800988e-07
-3.85728955e-07
-3.85553876e-07
-3.6632389e-07
-3.65820681e-07
-3.85773792e-07
-3.85301796e-07
-3.66693596e-07
-3.65756976e-07
-3.81783024e-07
-3.84869781e-07
-3.73314384e-07
-3.64435498e-07
-3.6529246e-07
-3.85373093e-07
-3.85407491e-07
-3.66535026e-07
-3.65640286e-07
-3.80781751e-07
-3.84887396e-07
-3.73521293e-07
-3.64458361e-07
-3.65591575e-07
-3.84974861e-07
-3.85355403e-07
-3.66413619e-07
-3.65645169e-07
-3.81718835e-07
-3.84960262e-07
-3.71912296e-07
-3.64640517e-07
-3.67188913e-07
-3.84271018e-07
-3.85060738e-07
-3.66381376e-07
-3.65720231e-07
-3.75931157e-07
-3.84298127e-07
-3.84509316e-07
-3.65208448e-07
-3.65314516e-07
-3.80695135e-07
-3.84480346e-07
-3.78267399e-07
-3.65394347e-07
-3.6447404e-07
-3.65117871e-07
-3.84462057e-07
-3.85339641e-07
-3.66573251e-07
-3.6536929e-07
-3.86539994e-07
-3.85164566e-07
-3.66452774e-07
-3.65353011e-07
-3.86754674e-07
-3.85030452e-07
-3.66270136e-07
-3.65354033e-07
-3.85967251e-07
-3.84911051e-07
-3.6606416e-07
-3.65490951e-07
-3.85259369e-07
-3.84942734e-07
-3.6612861e-07
-3.65944321e-07
-3.85059555e-07
-3.84603114e-07
-3.70009652e-07
-3.64247667e-07
-3.65512177e-07
-3.84500668e-07
-3.84588701e-07
-3.69862501e-07
-3.64232111e-07
-3.65220568e-07
-3.84601954e-07
-3.84728514e-07
-3.65838109e-07
-3.659501e-07
-3.84349869e-07
-3.84412337e-07
-3.69585583e-07
-3.64388215e-07
-3.65360395e-07
-3.84617059e-07
-3.84537379e-07
-3.65914008e-07
-3.65929839e-07
-3.8452071e-07
-3.84287999e-07
-3.70437536e-07
-3.64421091e-07
-3.65314145e-07
-3.84588548e-07
-3.84271801e-07
-3.71596902e-07
-3.6438043e-07
-3.65121166e-07
-3.84560315e-07
-3.84329868e-07
-3.69979797e-07
-3.64087503e-07
-3.64907192e-07
-3.84891826e-07
-3.84336196e-07
-3.65747512e-07
-3.65453739e-07
-3.84889697e-07
-3.84186045e-07
-3.67890998e-07
-3.64651039e-07
-3.67951844e-07
-3.84764228e-07
-3.84110143e-07
-3.65321928e-07
-3.64433152e-07
-3.85550999e-07
-3.84304486e-07
-3.70223708e-07
-3.6445263e-07
-3.655433e-07
-3.84718934e-07
-3.84014898e-07
-3.68337151e-07
-3.64521965e-07
-3.66392095e-07
-3.84879552e-07
-3.83865721e-07
-3.66166856e-07
-3.65321075e-07
-3.85513363e-07
-3.84152384e-07
-3.69073105e-07
-3.6433805e-07
-3.65513914e-07
-3.84963347e-07
-3.84301345e-07
-3.66290646e-07
-3.66002059e-07
-3.85133793e-07
-3.83922243e-07
-3.69102289e-07
-3.64627812e-07
-3.65988134e-07
-3.84802097e-07
-3.83976648e-07
-3.68604275e-07
-3.64060956e-07
-3.65236325e-07
-3.85121032e-07
-3.8446069e-07
-3.66187729e-07
-3.65775656e-07
-3.85406226e-07
-3.84101075e-07
-3.68510026e-07
-3.64155302e-07
-3.65440691e-07
-3.851534e-07
-3.84567257e-07
-3.6631904e-07
-3.65976504e-07
-3.85415703e-07
-3.83985169e-07
-3.6927774e-07
-3.64619459e-07
-3.65933596e-07
-3.85033684e-07
-3.83978053e-07
-3.69292547e-07
-3.64348553e-07
-3.65431316e-07
-3.85270119e-07
-3.84337709e-07
-3.66641873e-07
-3.66039797e-07
-3.85976538e-07
-3.83702986e-07
-3.74162889e-07
-3.66075093e-07
-3.65475563e-07
-3.68246336e-07
-3.84780368e-07
-3.83797819e-07
-3.69520664e-07
-3.64893295e-07
-3.64540034e-07
-3.66338227e-07
-3.86136136e-07
-3.83447846e-07
-3.83955634e-07
-3.67940368e-07
-3.64167167e-07
-3.65759172e-07
-3.85694001e-07
-3.84087441e-07
-3.69463167e-07
-3.64450693e-07
-3.66052826e-07
-3.85734461e-07
-3.84807888e-07
-3.66320241e-07
-3.65454039e-07
-3.87020508e-07
-3.84294889e-07
-3.6935659e-07
-3.64561237e-07
-3.66103424e-07
-3.85827866e-07
-3.8475537e-07
-3.66546213e-07
-3.65277329e-07
-3.85652629e-07
-3.84443335e-07
-3.66820891e-07
-3.64866043e-07
-3.85477183e-07
-3.84417935e-07
-3.71191697e-07
-3.64959677e-07
-3.66864425e-07
-3.85609112e-07
-3.86641827e-07
-3.6584614e-07
-3.65902175e-07
-3.86058563e-07
-3.84033672e-07
-3.69861083e-07
-3.64391656e-07
-3.66831152e-07
-3.85675246e-07
-3.85591924e-07
-3.65924379e-07
-3.66065309e-07
-3.85592801e-07
-3.83937805e-07
-3.7024322e-07
-3.64665749e-07
-3.66063455e-07
-3.85728376e-07
-3.83838678e-07
-3.70392057e-07
-3.65104959e-07
-3.66973441e-07
-3.85449968e-07
-3.83663132e-07
-3.71388586e-07
-3.65478327e-07
-3.64763434e-07
-3.66305622e-07
-3.85702546e-07
-3.84628665e-07
-3.6561051e-07
-3.65870377e-07
-3.85530214e-07
-3.84002121e-07
-3.69597969e-07
-3.64306492e-07
-3.67319659e-07
-3.85581036e-07
-3.84073681e-07
-3.65512962e-07
-3.67433726e-07
-3.85414513e-07
-3.81762166e-07
-3.65467021e-07
-3.68459871e-07
-3.85244952e-07
-3.80504815e-07
-3.65678253e-07
-3.66525533e-07
-3.85363644e-07
-3.84040712e-07
-3.68563286e-07
-3.63718788e-07
-3.68935492e-07
-3.85500953e-07
-3.7603937e-07
-3.65144889e-07
-3.72324468e-07
-3.84893076e-07
-3.75098022e-07
-3.65553747e-07
-3.6894046e-07
-3.84983676e-07
-3.84365668e-07
-3.66795786e-07
-3.63643432e-07
-3.73144125e-07
-3.85088804e-07
-3.7046823e-07
-3.64877381e-07
-3.79341745e-07
-3.84495513e-07
-3.7070781e-07
-3.65302296e-07
-3.70731042e-07
-3.84745423e-07
-3.84321845e-07
-3.66162017e-07
-3.6402592e-07
-3.73368591e-07
-3.85030335e-07
-3.86804068e-07
-3.64445754e-07
-3.64069496e-07
-3.869211e-07
-3.84539542e-07
-3.76102359e-07
-3.6431214e-07
-3.64248051e-07
-3.86244074e-07
-3.84450566e-07
-3.75704754e-07
-3.64256832e-07
-3.64240934e-07
-3.85785343e-07
-3.84415226e-07
-3.75849893e-07
-3.64219487e-07
-3.64248412e-07
-3.85403995e-07
-3.84403674e-07
-3.76124707e-07
-3.64133552e-07
-3.64202731e-07
-3.84998648e-07
)
;

boundaryField
{
    closed
    {
        type            calculated;
        value           nonuniform List<scalar> 0();
    }
    open
    {
        type            calculated;
        value           nonuniform List<scalar> 0();
    }
    sides
    {
        type            empty;
    }
    procBoundary1to0
    {
        type            processor;
        value           uniform -3.64431224e-07;
    }
    procBoundary1to2
    {
        type            processor;
        value           uniform -3.84302951e-07;
    }
}


// ************************************************************************* //
