/*--------------------------------*- C++ -*----------------------------------*\
| =========                 |                                                 |
| \\      /  F ield         | OpenFOAM: The Open Source CFD Toolbox           |
|  \\    /   O peration     | Version:  2306                                  |
|   \\  /    A nd           | Website:  www.openfoam.com                      |
|    \\/     M anipulation  |                                                 |
\*---------------------------------------------------------------------------*/
FoamFile
{
    version     2.0;
    format      ascii;
    arch        "LSB;label=32;scalar=64";
    class       volScalarField;
    location    "0.0007";
    object      prefDZ_T;
}
// * * * * * * * * * * * * * * * * * * * * * * * * * * * * * * * * * * * * * //

dimensions      [1 -1 -1 -1 0 0 0];

internalField   nonuniform List<scalar> 
531
(
-1.19278565e-09
-1.22905649e-09
-1.2271722e-09
-1.19378089e-09
-1.18711904e-09
-1.19136308e-09
-1.22954087e-09
-1.22736837e-09
-1.19354964e-09
-1.18681663e-09
-1.19143027e-09
-1.23014021e-09
-1.23402576e-09
-1.19013162e-09
-1.19256475e-09
-1.22934539e-09
-1.22731789e-09
-1.19628398e-09
-1.18744396e-09
-1.19095225e-09
-1.23092992e-09
-1.23133502e-09
-1.19254613e-09
-1.19274428e-09
-1.23082786e-09
-1.22642806e-09
-1.20375396e-09
-1.18966964e-09
-1.18898241e-09
-1.18812956e-09
-1.18973881e-09
-1.23292209e-09
-1.23107738e-09
-1.1925842e-09
-1.19117171e-09
-1.23166385e-09
-1.22805209e-09
-1.20129549e-09
-1.18757805e-09
-1.18908613e-09
-1.23335865e-09
-1.23110441e-09
-1.19298201e-09
-1.19083096e-09
-1.22799142e-09
-1.23110842e-09
-1.19356067e-09
-1.19078708e-09
-1.22535648e-09
-1.22906938e-09
-1.20250357e-09
-1.18759783e-09
-1.18840922e-09
-1.23089601e-09
-1.23143437e-09
-1.19385373e-09
-1.19037196e-09
-1.22126428e-09
-1.22951025e-09
-1.20414149e-09
-1.1877043e-09
-1.18832799e-09
-1.22990596e-09
-1.23189254e-09
-1.19334212e-09
-1.19030885e-09
-1.22268202e-09
-1.23168058e-09
-1.19389083e-09
-1.19014105e-09
-1.22088879e-09
-1.23176911e-09
-1.19365479e-09
-1.18951404e-09
-1.21830168e-09
-1.23285141e-09
-1.19355523e-09
-1.18971313e-09
-1.21917971e-09
-1.23177382e-09
-1.1954127e-09
-1.18981389e-09
-1.21369199e-09
-1.22944397e-09
-1.21133636e-09
-1.18797924e-09
-1.18953722e-09
-1.2324711e-09
-1.22020179e-09
-1.18996504e-09
-1.19336616e-09
-1.23248906e-09
-1.23267997e-09
-1.19084545e-09
-1.18952563e-09
-1.2149406e-09
-1.22891255e-09
-1.21394371e-09
-1.18881938e-09
-1.18872793e-09
-1.22609458e-09
-1.23080408e-09
-1.19535949e-09
-1.18920541e-09
-1.21179497e-09
-1.2292583e-09
-1.21384601e-09
-1.18902522e-09
-1.18890174e-09
-1.22798462e-09
-1.23027846e-09
-1.1954925e-09
-1.1894237e-09
-1.21291527e-09
-1.2289397e-09
-1.21542632e-09
-1.18908501e-09
-1.1883053e-09
-1.22098771e-09
-1.22844877e-09
-1.21120288e-09
-1.18856791e-09
-1.1879985e-09
-1.22450925e-09
-1.22833713e-09
-1.20910774e-09
-1.18827406e-09
-1.18783293e-09
-1.22848086e-09
-1.228231e-09
-1.20693595e-09
-1.18800685e-09
-1.18760527e-09
-1.23247962e-09
-1.22828496e-09
-1.19602839e-09
-1.18957221e-09
-1.22107662e-09
-1.22816237e-09
-1.20770361e-09
-1.18806865e-09
-1.18792947e-09
-1.23209542e-09
-1.22857783e-09
-1.1919262e-09
-1.18999453e-09
-1.23280607e-09
-1.22719772e-09
-1.20534974e-09
-1.1883289e-09
-1.18843664e-09
-1.23072423e-09
-1.22689505e-09
-1.20725257e-09
-1.18953499e-09
-1.18746159e-09
-1.18816734e-09
-1.22972302e-09
-1.22801569e-09
-1.2002563e-09
-1.18730065e-09
-1.18888996e-09
-1.22961051e-09
-1.2304391e-09
-1.19016829e-09
-1.19169182e-09
-1.22764949e-09
-1.22795633e-09
-1.1974994e-09
-1.18735595e-09
-1.18932689e-09
-1.22959532e-09
-1.23212384e-09
-1.18978715e-09
-1.19196411e-09
-1.22763889e-09
-1.22874283e-09
-1.19540184e-09
-1.18729735e-09
-1.18926092e-09
-1.22923698e-09
-1.23255901e-09
-1.19021428e-09
-1.19072354e-09
-1.22869166e-09
-1.22898438e-09
-1.19866381e-09
-1.18797662e-09
-1.18897182e-09
-1.23100805e-09
-1.22934063e-09
-1.1999618e-09
-1.18793372e-09
-1.1887664e-09
-1.2320711e-09
-1.22961795e-09
-1.19914443e-09
-1.18746676e-09
-1.18859304e-09
-1.23059236e-09
-1.23122372e-09
-1.19067299e-09
-1.18959033e-09
-1.23124274e-09
-1.23082403e-09
-1.19078343e-09
-1.18959802e-09
-1.23135072e-09
-1.23019797e-09
-1.19122142e-09
-1.18954816e-09
-1.22287612e-09
-1.22913348e-09
-1.20457704e-09
-1.18744729e-09
-1.18850928e-09
-1.23035817e-09
-1.23045667e-09
-1.19097926e-09
-1.18939508e-09
-1.22067965e-09
-1.22917767e-09
-1.20501098e-09
-1.18746414e-09
-1.18896736e-09
-1.22937274e-09
-1.23032705e-09
-1.19077989e-09
-1.18941514e-09
-1.22273373e-09
-1.22935675e-09
-1.2016138e-09
-1.18769797e-09
-1.19186771e-09
-1.22763522e-09
-1.22959373e-09
-1.19059344e-09
-1.18948956e-09
-1.2101743e-09
-1.22771537e-09
-1.2288974e-09
-1.18870311e-09
-1.18892634e-09
-1.22047946e-09
-1.22817027e-09
-1.21520147e-09
-1.18902179e-09
-1.18752831e-09
-1.18842592e-09
-1.22877243e-09
-1.23028701e-09
-1.19108091e-09
-1.18895118e-09
-1.23339089e-09
-1.22985445e-09
-1.19092656e-09
-1.18889511e-09
-1.23378886e-09
-1.22952098e-09
-1.19067919e-09
-1.18887981e-09
-1.23183174e-09
-1.22922465e-09
-1.19033268e-09
-1.18909282e-09
-1.23007829e-09
-1.22930439e-09
-1.19038481e-09
-1.18987319e-09
-1.2295803e-09
-1.22847318e-09
-1.19773116e-09
-1.18707156e-09
-1.18898675e-09
-1.22819956e-09
-1.22843326e-09
-1.19741051e-09
-1.18704152e-09
-1.18851892e-09
-1.22845837e-09
-1.22876784e-09
-1.18964553e-09
-1.18988205e-09
-1.22782687e-09
-1.22799851e-09
-1.19683565e-09
-1.18728729e-09
-1.18876063e-09
-1.22849731e-09
-1.22829501e-09
-1.1897252e-09
-1.18984378e-09
-1.22825366e-09
-1.22769196e-09
-1.19859478e-09
-1.18729934e-09
-1.18872075e-09
-1.22842153e-09
-1.22764934e-09
-1.20100026e-09
-1.18717579e-09
-1.18840515e-09
-1.22835155e-09
-1.22779174e-09
-1.19763824e-09
-1.1867408e-09
-1.18798991e-09
-1.2291774e-09
-1.22779577e-09
-1.18935965e-09
-1.18897269e-09
-1.22917419e-09
-1.22743481e-09
-1.19333956e-09
-1.18774319e-09
-1.19347409e-09
-1.22887224e-09
-1.22723603e-09
-1.18867348e-09
-1.18725403e-09
-1.23080355e-09
-1.22773082e-09
-1.19813842e-09
-1.18732659e-09
-1.18905432e-09
-1.22874961e-09
-1.22700862e-09
-1.19425685e-09
-1.18747939e-09
-1.19039227e-09
-1.22915378e-09
-1.22663196e-09
-1.19010931e-09
-1.18867683e-09
-1.2307139e-09
-1.22735261e-09
-1.19579072e-09
-1.18716917e-09
-1.18904883e-09
-1.22935704e-09
-1.22770522e-09
-1.19027077e-09
-1.18986752e-09
-1.22977743e-09
-1.22678313e-09
-1.19583547e-09
-1.18760781e-09
-1.18976861e-09
-1.22895607e-09
-1.22691432e-09
-1.19483174e-09
-1.18668213e-09
-1.18861212e-09
-1.22974549e-09
-1.22809976e-09
-1.19015659e-09
-1.18952493e-09
-1.23044878e-09
-1.22722574e-09
-1.19464886e-09
-1.18687746e-09
-1.18896433e-09
-1.22982578e-09
-1.22836262e-09
-1.19038358e-09
-1.18986704e-09
-1.23047321e-09
-1.22693828e-09
-1.19619813e-09
-1.18761463e-09
-1.18967565e-09
-1.22952815e-09
-1.22691674e-09
-1.19623358e-09
-1.18716629e-09
-1.18891627e-09
-1.23011316e-09
-1.22779398e-09
-1.19090027e-09
-1.18989131e-09
-1.2318633e-09
-1.22623964e-09
-1.20640879e-09
-1.18980916e-09
-1.18900152e-09
-1.19405151e-09
-1.22890689e-09
-1.22646415e-09
-1.19670734e-09
-1.18782389e-09
-1.18759185e-09
-1.190347e-09
-1.23226021e-09
-1.22560566e-09
-1.2268641e-09
-1.19337145e-09
-1.18701792e-09
-1.18940771e-09
-1.23117106e-09
-1.22718729e-09
-1.1965839e-09
-1.18740468e-09
-1.19003512e-09
-1.23127065e-09
-1.22895926e-09
-1.19040633e-09
-1.18905498e-09
-1.23445322e-09
-1.22770483e-09
-1.19637485e-09
-1.18763547e-09
-1.19013335e-09
-1.23150617e-09
-1.22883202e-09
-1.19084525e-09
-1.18877148e-09
-1.23142409e-09
-1.22806401e-09
-1.19128879e-09
-1.18796955e-09
-1.23107352e-09
-1.22800952e-09
-1.20016435e-09
-1.1882675e-09
-1.19136513e-09
-1.23096189e-09
-1.23351449e-09
-1.18963378e-09
-1.18985894e-09
-1.2320727e-09
-1.22705411e-09
-1.19734943e-09
-1.18719494e-09
-1.19121609e-09
-1.23112394e-09
-1.23127895e-09
-1.18977249e-09
-1.19007628e-09
-1.23091836e-09
-1.22681554e-09
-1.19814824e-09
-1.18766233e-09
-1.18982679e-09
-1.23125628e-09
-1.22656968e-09
-1.19847843e-09
-1.18840405e-09
-1.19147331e-09
-1.23057446e-09
-1.22613558e-09
-1.2005928e-09
-1.18880327e-09
-1.18785772e-09
-1.19046272e-09
-1.23119191e-09
-1.22913483e-09
-1.18924246e-09
-1.18978612e-09
-1.23076295e-09
-1.22697666e-09
-1.19680799e-09
-1.18706835e-09
-1.1921796e-09
-1.23089554e-09
-1.22792067e-09
-1.18910122e-09
-1.19245919e-09
-1.23048223e-09
-1.22283025e-09
-1.18896187e-09
-1.19448698e-09
-1.23006209e-09
-1.22007261e-09
-1.18932946e-09
-1.19067653e-09
-1.23035227e-09
-1.22706655e-09
-1.19462691e-09
-1.18602519e-09
-1.19538068e-09
-1.23069666e-09
-1.21039017e-09
-1.18846157e-09
-1.20244649e-09
-1.22919163e-09
-1.20837817e-09
-1.18916027e-09
-1.1954744e-09
-1.22941615e-09
-1.22786691e-09
-1.19101113e-09
-1.18595784e-09
-1.20418233e-09
-1.22967639e-09
-1.19863973e-09
-1.18802308e-09
-1.2175492e-09
-1.22820516e-09
-1.19914528e-09
-1.18878588e-09
-1.19916065e-09
-1.22882845e-09
-1.22776162e-09
-1.18985018e-09
-1.18672359e-09
-1.20469068e-09
-1.22954807e-09
-1.23393443e-09
-1.18748999e-09
-1.18690802e-09
-1.23425966e-09
-1.22832361e-09
-1.21054976e-09
-1.18716625e-09
-1.18708453e-09
-1.23252755e-09
-1.22809988e-09
-1.20969335e-09
-1.18702884e-09
-1.1870414e-09
-1.2313894e-09
-1.22801185e-09
-1.21000035e-09
-1.18694742e-09
-1.18705111e-09
-1.23044193e-09
-1.22798337e-09
-1.21058574e-09
-1.18679378e-09
-1.18696249e-09
-1.22943285e-09
)
;

boundaryField
{
    closed
    {
        type            calculated;
        value           nonuniform List<scalar> 0();
    }
    open
    {
        type            calculated;
        value           nonuniform List<scalar> 0();
    }
    sides
    {
        type            empty;
    }
    procBoundary1to0
    {
        type            processor;
        value           uniform -1.18734359e-09;
    }
    procBoundary1to2
    {
        type            processor;
        value           uniform -1.22773345e-09;
    }
}


// ************************************************************************* //
