/*--------------------------------*- C++ -*----------------------------------*\
| =========                 |                                                 |
| \\      /  F ield         | OpenFOAM: The Open Source CFD Toolbox           |
|  \\    /   O peration     | Version:  2306                                  |
|   \\  /    A nd           | Website:  www.openfoam.com                      |
|    \\/     M anipulation  |                                                 |
\*---------------------------------------------------------------------------*/
FoamFile
{
    version     2.0;
    format      ascii;
    arch        "LSB;label=32;scalar=64";
    class       volScalarField;
    location    "0.00098";
    object      H2;
}
// * * * * * * * * * * * * * * * * * * * * * * * * * * * * * * * * * * * * * //

dimensions      [0 0 0 0 0 0 0];

internalField   nonuniform List<scalar> 
531
(
0.0106711223
0.0107841923
0.0110067934
0.0110587703
0.0106676345
0.0106696744
0.0107768919
0.0110087
0.0110631594
0.0106664496
0.0106690692
0.0107557108
0.0110068868
0.011079697
0.0106871599
0.010736199
0.0110070448
0.0110753664
0.0106642515
0.010669407
0.0107571384
0.0110087934
0.0110750862
0.0106897594
0.0107391255
0.0110095533
0.0110747906
0.0106595583
0.0106638941
0.010761106
0.0110167697
0.0110742236
0.01065742
0.0106601952
0.0107559492
0.0110171876
0.011075616
0.0106644028
0.0106682575
0.0107585722
0.0110139784
0.0110389005
0.0106874105
0.0107305371
0.0110143186
0.0110108162
0.0106778763
0.0107290176
0.0110170866
0.0110472747
0.0106604049
0.0106657793
0.0107829898
0.0110219736
0.0110108213
0.0106814819
0.0107522838
0.0110432545
0.0107714694
0.0106631265
0.0107310396
0.0110215622
0.0110028769
0.0106688703
0.0107091333
0.0110193163
0.0110428283
0.0106655193
0.0106722909
0.0108580954
0.011025997
0.0109313996
0.0106758673
0.0107611918
0.0110361288
0.01080529
0.0106756624
0.0108818803
0.0110655407
0.0106905908
0.0106878915
0.0110242297
0.0110561952
0.010673992
0.0106585117
0.0107222674
0.0110132708
0.0110788118
0.0106813044
0.0107107289
0.0110092484
0.0110463913
0.0106685491
0.0106667749
0.0107536381
0.0110136827
0.0110764482
0.0106674265
0.0106853523
0.0110123242
0.0110426261
0.0106719118
0.010665948
0.0107416947
0.0110127177
0.0110609014
0.0106691663
0.0106810838
0.011009224
0.0110306504
0.0106810483
0.0106727044
0.0107482158
0.0110052274
0.0110237469
0.0106803338
0.0106616454
0.0107243946
0.0110064068
0.0110201847
0.0106807223
0.0106613348
0.0107184242
0.0110071295
0.011016716
0.0106830593
0.0106605778
0.0107089746
0.0110087309
0.0110132533
0.0106850688
0.0106591927
0.0106992865
0.0110107618
0.0110091075
0.0106885803
0.0106612346
0.0106947943
0.0110170665
0.0110021368
0.0107001816
0.0106851755
0.0110371204
0.011009845
0.0106953976
0.0106623816
0.0106836989
0.0110365228
0.0110046661
0.0107261532
0.0106909268
0.0110762172
0.0110137124
0.0107229223
0.0106632318
0.010675778
0.0110672327
0.0110156585
0.0107490985
0.0106708624
0.0106672255
0.0106876632
0.0110586077
0.0110163055
0.0108079179
0.0106761292
0.0106739139
0.0109676593
0.0110227549
0.01083163
0.0106981987
0.0108489982
0.0110500446
0.0108686036
0.0106782042
0.010671557
0.0108594699
0.0110453056
0.0109018782
0.0106932942
0.0107561464
0.0110615364
0.010894168
0.0106835101
0.0107175641
0.0110437212
0.0110412017
0.0107307502
0.0106875759
0.0107544066
0.0110660036
0.0110229062
0.0107034188
0.0106760396
0.0107329538
0.0110564446
0.0110508946
0.0107148597
0.010678253
0.0107245315
0.011047312
0.0110596659
0.0107298329
0.0106850227
0.0107370475
0.0110548549
0.0110648411
0.0107175933
0.0106635647
0.010668925
0.0109154878
0.0110337966
0.0110425424
0.0107396503
0.0106786232
0.0106973373
0.0110127663
0.0110468729
0.0107380696
0.0107167939
0.0109884566
0.0110560525
0.010753766
0.0106835488
0.0107132337
0.0110572058
0.0110745564
0.010734714
0.010683693
0.0107290109
0.0110716557
0.0110652576
0.0107236557
0.0106807691
0.0107255885
0.0110693428
0.0110669629
0.0107149401
0.0106733281
0.0107093054
0.0110722375
0.0110728438
0.0107039637
0.0107077248
0.0110706278
0.011063907
0.010700788
0.0106772496
0.0107542486
0.0110432005
0.0110593082
0.0107327003
0.0106950491
0.0106917891
0.0106916422
0.0106877252
0.0108596984
0.01102027
0.0110269005
0.0106911156
0.010719592
0.011043771
0.0110035459
0.0106913864
0.0107273558
0.0110367994
0.0110107377
0.0106866791
0.0106739868
0.0108025602
0.0110245701
0.0110155696
0.0106830329
0.0106720014
0.0107910389
0.0110308481
0.0109924051
0.0106788854
0.0106758431
0.0108517819
0.0110369249
0.0108801956
0.0106874866
0.0107567292
0.0110500309
0.010878897
0.0106777485
0.0107239067
0.0110410131
0.0110661404
0.0106958789
0.0106877549
0.0108277899
0.0110328535
0.0109902627
0.0106758912
0.010678325
0.0108331248
0.0110344922
0.0109753317
0.0106733213
0.0106766468
0.0108326106
0.0110376882
0.0109489698
0.0106735997
0.0106775383
0.0108500955
0.0110412848
0.0108781477
0.0106931969
0.0107846846
0.0110414103
0.0109211148
0.0106687707
0.0106729659
0.0108309607
0.0110403673
0.0108935775
0.0106946603
0.0107895791
0.0110365453
0.0109254828
0.0106663321
0.010671407
0.0108336154
0.0110391928
0.0108949157
0.0106945596
0.0108010394
0.0110436844
0.0108534094
0.0106651822
0.0106731693
0.0108899336
0.0110393203
0.0108497615
0.0106908644
0.0107978677
0.0110331127
0.0109219002
0.0106671177
0.0106732951
0.0108725202
0.0110366788
0.0108603497
0.0106947469
0.0108227024
0.0110351253
0.0108609701
0.0106648523
0.0106720091
0.0108846379
0.0110363805
0.0108644829
0.0106678553
0.0106751636
0.0109367995
0.0110375117
0.01079761
0.0106942412
0.0108820839
0.0110386016
0.0107894286
0.0106660238
0.0106774626
0.0110169528
0.0110368919
0.0107554488
0.0106945273
0.0109476244
0.0110517166
0.0107227577
0.0106703821
0.0107673698
0.0110212025
0.0110530078
0.0106756806
0.0106703787
0.0107925732
0.0110196827
0.0110527698
0.0106794676
0.0106757958
0.0108036451
0.0110195054
0.011056407
0.0106772118
0.0106746675
0.0108020319
0.0110230953
0.0110614546
0.0106707322
0.0106637428
0.010680737
0.0107839364
0.0110105185
0.0110078717
0.0110413981
0.0106695513
0.0106731537
0.010801937
0.0110268614
0.0110563428
0.0106635601
0.010668859
0.0108813746
0.0110442426
0.0108020063
0.0106935322
0.0108448026
0.0110280885
0.010893722
0.0106604939
0.0106684514
0.0108914472
0.0110443611
0.0107823447
0.010693725
0.0109224799
0.0110364101
0.0107669684
0.0106907887
0.0108884237
0.0110311389
0.0108254972
0.0106623412
0.0106703876
0.0108969427
0.0110365601
0.0107977686
0.0106943603
0.0108794933
0.0110287727
0.0108434462
0.0106667143
0.0106718143
0.0108967762
0.0110311992
0.0108264782
0.0106962804
0.010856857
0.0110261995
0.01088164
0.0106734146
0.010674187
0.0108599572
0.0110280917
0.0109637729
0.0106740809
0.0106739945
0.0108800303
0.0110340257
0.0108851978
0.0106735219
0.0106663042
0.0106734086
0.0109219639
0.0110294924
0.0108276375
0.0106912016
0.0108404636
0.0110369768
0.0108588115
0.0106725365
0.0106672048
0.0110420562
0.0110165492
0.0108577455
0.010714113
0.0107268474
0.0107080994
0.0107069916
0.0110731591
0.0110175027
0.0108306713
0.0106717423
0.0106662918
0.011021526
0.0110218488
0.010741644
0.0106801495
0.0109667042
0.0110262344
0.0108148719
0.0106672563
0.0106591079
0.0109879688
0.0110174825
0.0107440337
0.0106722866
0.0109518362
0.0110201216
0.0107398779
0.0106746127
0.0109436273
0.0110253695
0.0108485663
0.0106725159
0.0106677287
0.0109863887
0.0110239327
0.0108673838
0.0106732842
0.0106703158
0.0109725205
0.0110275638
0.0108771485
0.0106745305
0.0106735209
0.0109604721
0.0110311778
0.0108865712
0.0106743525
0.0106745915
0.0109455763
0.0110354912
0.0108887338
0.0106742142
0.0106756264
0.0109355536
0.0110384522
0.0108913643
0.0106744646
0.0106766922
0.0109287544
0.0110406069
0.0108921855
0.0106736775
0.0106751062
0.0109237307
)
;

boundaryField
{
    closed
    {
        type            calculated;
        value           nonuniform List<scalar> 0();
    }
    open
    {
        type            calculated;
        value           nonuniform List<scalar> 0();
    }
    sides
    {
        type            empty;
    }
    procBoundary1to0
    {
        type            processor;
        value           uniform 0.0106690679;
    }
    procBoundary1to2
    {
        type            processor;
        value           uniform 0.0110478803;
    }
}


// ************************************************************************* //
