/*--------------------------------*- C++ -*----------------------------------*\
| =========                 |                                                 |
| \\      /  F ield         | OpenFOAM: The Open Source CFD Toolbox           |
|  \\    /   O peration     | Version:  2306                                  |
|   \\  /    A nd           | Website:  www.openfoam.com                      |
|    \\/     M anipulation  |                                                 |
\*---------------------------------------------------------------------------*/
FoamFile
{
    version     2.0;
    format      ascii;
    arch        "LSB;label=32;scalar=64";
    class       volScalarField;
    location    "0.00098";
    object      prefDh_H;
}
// * * * * * * * * * * * * * * * * * * * * * * * * * * * * * * * * * * * * * //

dimensions      [1 1 -3 0 0 0 0];

internalField   nonuniform List<scalar> 
531
(
23169.1419
23394.3391
23963.2721
23861.4831
23148.7633
23148.0475
23391.282
23960.622
23851.816
23133.1985
23131.9228
23388.8333
23964.4373
23834.0762
23355.3284
23404.1564
23978.2907
23821.1186
23118.3568
23114.5827
23390.08
23957.2285
23816.3418
23368.953
23405.3443
23971.4735
23821.2777
23060.5527
23056.1846
23387.8952
23945.492
23830.3531
23027.3073
23023.1983
23387.4845
23945.3524
23813.8254
23092.1179
23087.8278
23390.7497
23943.146
23745.7732
23325.4547
23398.1809
23963.5223
23693.9871
23241.0472
23397.6104
23959.3512
23758.7596
23055.8317
23053.7914
23397.1986
23929.7861
23695.6875
23234.175
23379.7028
23892.3407
23375.692
23057.4166
23370.8496
23941.0107
23681.0947
23150.1275
23389.6394
23959.9763
23750.7933
23101.4037
23125.8142
23459.9459
23915.9341
23556.3932
23182.3213
23380.6027
23903.9724
23394.635
23181.6345
23486.5708
23842.0442
23346.248
23359.7732
23977.2454
23860.1345
23172.1675
23007.1202
23378.916
23951.8072
23821.4378
23279.8154
23388.8542
23973.0136
23875.7324
23139.855
23105.4562
23381.5825
23952.1494
23829.5794
23146.828
23338.8259
23969.4149
23883.5521
23171.8262
23091.8048
23376.7993
23952.6876
23861.1249
23165.5706
23311.0382
23976.1704
23912.1237
23271.2868
23177.9009
23375.2075
23965.9891
23930.08
23273.2848
23086.5673
23369.2369
23973.8483
23940.6508
23282.7287
23083.1952
23370.5605
23973.6741
23948.3913
23308.052
23070.6714
23373.3099
23972.7995
23957.9973
23331.8307
23052.1594
23377.8794
23971.533
23969.2785
23371.3716
23065.2456
23378.3548
23950.0928
23998.6138
23403.2126
23324.9826
23929.3728
23965.6522
23380.5823
23056.7694
23305.1459
23899.7366
23989.6285
23397.2408
23371.98
23827.5832
23957.6613
23373.2685
23051.5305
23187.6373
23830.0739
23967.2935
23369.7839
23174.1405
23113.4534
23276.9686
23777.3672
23949.6751
23405.4306
23190.9023
23154.2682
23615.589
23943.5765
23430.4094
23396.7533
23438.137
23876.1112
23468.0308
23231.0241
23122.6753
23454.9878
23888.65
23513.491
23395.6266
23361.1355
23787.5595
23499.4548
23314.2251
23331.8409
23750.814
23743.4096
23370.9414
23282.5099
23369.6359
23792.1467
23711.3677
23356.0264
23177.9592
23360.6365
23775.1291
23763.72
23353.494
23196.2379
23368.7929
23757.7619
23780.255
23356.0336
23256.2088
23370.1896
23770.7854
23788.9339
23352.605
23041.7682
23177.5931
23533.0744
23904.8884
23877.7131
23364.5622
23172.8605
23407.8907
23695.1467
23759.4101
23370.6448
23385.2564
23652.3819
23774.7995
23363.383
23235.6268
23384.1145
23777.1865
23815.7812
23361.0314
23230.946
23376.2954
23827.7609
23840.3337
23361.5166
23193.0009
23377.0993
23833.6118
23833.2925
23363.4363
23115.1255
23377.4275
23838.809
23810.756
23397.9471
23389.2993
23852.0178
23791.7474
23373.7094
23184.991
23373.6508
23888.3217
23855.5828
23374.0964
23367.5796
23383.6483
23354.0652
23329.7379
23458.617
23948.9705
23721.2645
23385.1662
23377.6098
23923.5971
23680.7386
23348.9066
23376.3242
23927.8124
23691.6513
23333.0781
23148.6293
23402.5603
23937.4809
23699.1598
23310.4115
23112.6587
23391.6366
23925.1451
23658.5337
23237.2247
23155.8376
23447.8362
23918.1865
23480.3909
23267.4388
23368.8344
23900.6162
23477.8713
23172.6291
23370.1279
23925.5138
23863.6171
23365.5281
23236.9226
23427.539
23916.561
23655.2434
23180.9721
23180.5707
23430.1683
23918.5515
23629.6049
23153.4999
23161.9367
23429.4368
23910.1548
23585.2148
23151.7221
23176.7594
23447.0212
23903.9776
23477.073
23342.8471
23387.265
23917.2986
23540.7696
23100.845
23136.1048
23427.4508
23906.4919
23498.8735
23364.6458
23392.8609
23927.3848
23547.4502
23083.2292
23119.1298
23430.8965
23903.4593
23500.8042
23355.7241
23399.6017
23913.265
23444.9117
23078.1705
23170.9361
23497.9606
23902.5168
23440.7864
23328.6039
23399.5518
23929.4709
23541.7419
23096.1237
23146.321
23475.3086
23906.8381
23454.0894
23371.2694
23418.7954
23925.035
23454.8587
23088.868
23160.003
23490.4746
23914.0489
23459.4126
23107.209
23194.3741
23565.4702
23908.2447
23392.7566
23363.4135
23484.6514
23914.566
23383.8613
23070.7038
23254.2225
23701.7917
23911.7478
23384.5689
23341.5876
23583.0338
23891.5831
23371.822
23101.3881
23377.7351
23953.5492
23906.359
23172.8494
23101.2489
23402.7071
23945.4002
23897.6373
23201.131
23149.206
23411.6673
23942.4929
23890.4313
23173.4107
23129.9201
23410.9504
23934.7082
23892.0638
23089.8176
23050.5691
23230.3477
23394.0141
23941.4378
23958.1744
23750.5382
23129.1833
23108.9956
23407.6421
23936.4754
23783.4196
23056.8288
23054.302
23485.071
23900.7966
23395.4364
23343.0651
23440.1326
23937.5889
23498.4923
23045.9471
23101.2093
23498.1983
23908.785
23381.838
23344.0983
23542.9062
23924.2932
23374.5695
23334.5214
23493.2433
23933.7495
23413.1071
23064.5385
23152.5974
23506.0804
23925.7893
23393.432
23368.025
23481.9334
23930.8202
23434.1336
23106.0675
23166.2502
23506.2388
23929.7152
23418.8421
23401.1176
23454.7244
23929.567
23483.2029
23174.0258
23181.1112
23461.6525
23918.0882
23610.0581
23178.6597
23153.9794
23484.0912
23902.4465
23488.8689
23176.5799
23106.7587
23164.4859
23542.3735
23926.7776
23420.9499
23368.7014
23431.2316
23900.9451
23453.8582
23142.9996
23133.7496
23753.1587
23955.411
23457.4858
23383.8491
23378.3597
23400.2843
23394.5559
23835.3396
23941.8117
23430.0467
23150.695
23115.0861
23713.3107
23945.6448
23383.9706
23257.3675
23616.3438
23920.8711
23418.4386
23097.4975
23049.8065
23651.9048
23949.0099
23389.1203
23196.07
23590.6926
23947.2146
23388.7183
23197.4514
23576.8283
23921.9081
23451.6829
23141.3031
23107.0268
23649.7997
23917.2186
23472.4377
23157.1303
23135.4036
23625.5507
23911.7287
23482.9897
23172.5831
23169.0093
23604.6452
23905.3318
23494.1885
23172.2434
23179.0573
23579.7317
23898.3651
23496.3774
23169.0243
23188.5042
23563.4625
23893.8332
23499.4656
23168.6453
23195.4595
23552.7253
23889.3038
23500.4716
23158.1371
23182.754
23544.6841
)
;

boundaryField
{
    closed
    {
        type            calculated;
        value           nonuniform List<scalar> 0();
    }
    open
    {
        type            calculated;
        value           nonuniform List<scalar> 0();
    }
    sides
    {
        type            empty;
    }
    procBoundary1to0
    {
        type            processor;
        value           uniform 23169.547;
    }
    procBoundary1to2
    {
        type            processor;
        value           uniform 23882.943;
    }
}


// ************************************************************************* //
