/*--------------------------------*- C++ -*----------------------------------*\
| =========                 |                                                 |
| \\      /  F ield         | OpenFOAM: The Open Source CFD Toolbox           |
|  \\    /   O peration     | Version:  2306                                  |
|   \\  /    A nd           | Website:  www.openfoam.com                      |
|    \\/     M anipulation  |                                                 |
\*---------------------------------------------------------------------------*/
FoamFile
{
    version     2.0;
    format      ascii;
    arch        "LSB;label=32;scalar=64";
    class       volScalarField;
    location    "0.00098";
    object      prefDZ_T;
}
// * * * * * * * * * * * * * * * * * * * * * * * * * * * * * * * * * * * * * //

dimensions      [1 -1 -1 -1 0 0 0];

internalField   nonuniform List<scalar> 
531
(
-1.18852993e-09
-1.20170208e-09
-1.2267055e-09
-1.23224933e-09
-1.18818168e-09
-1.18837581e-09
-1.20084696e-09
-1.22690825e-09
-1.23271795e-09
-1.18805674e-09
-1.18830631e-09
-1.1983259e-09
-1.22671472e-09
-1.23447587e-09
-1.19021355e-09
-1.19589266e-09
-1.22672363e-09
-1.2340228e-09
-1.18783563e-09
-1.18832696e-09
-1.19848826e-09
-1.22691997e-09
-1.23397895e-09
-1.19047067e-09
-1.19623405e-09
-1.22699232e-09
-1.2339618e-09
-1.18734529e-09
-1.18776042e-09
-1.19897808e-09
-1.22776859e-09
-1.23389802e-09
-1.18711852e-09
-1.18738447e-09
-1.19836358e-09
-1.2278128e-09
-1.2340461e-09
-1.18783166e-09
-1.18819974e-09
-1.1986553e-09
-1.22747507e-09
-1.23007427e-09
-1.19020684e-09
-1.19525632e-09
-1.22749994e-09
-1.22703026e-09
-1.18923053e-09
-1.19507877e-09
-1.22779458e-09
-1.23098641e-09
-1.18742375e-09
-1.18794123e-09
-1.20153734e-09
-1.22832653e-09
-1.22703003e-09
-1.1895666e-09
-1.19797772e-09
-1.23059415e-09
-1.20030547e-09
-1.18768706e-09
-1.19549662e-09
-1.22827718e-09
-1.22616827e-09
-1.1883006e-09
-1.19275926e-09
-1.22802976e-09
-1.23050424e-09
-1.18794506e-09
-1.18861112e-09
-1.21014167e-09
-1.22875867e-09
-1.21837449e-09
-1.18899232e-09
-1.19903837e-09
-1.22983526e-09
-1.20424305e-09
-1.18897227e-09
-1.21283493e-09
-1.23297417e-09
-1.19052551e-09
-1.19028656e-09
-1.22853941e-09
-1.23197755e-09
-1.18880587e-09
-1.18721286e-09
-1.19439577e-09
-1.22739569e-09
-1.23438665e-09
-1.18958919e-09
-1.19295457e-09
-1.22695927e-09
-1.23093365e-09
-1.18826226e-09
-1.18806827e-09
-1.19812706e-09
-1.22743899e-09
-1.23413381e-09
-1.18816035e-09
-1.1900273e-09
-1.22728607e-09
-1.23053191e-09
-1.18860724e-09
-1.18797992e-09
-1.19673055e-09
-1.2273368e-09
-1.23247493e-09
-1.18834084e-09
-1.18959907e-09
-1.22695492e-09
-1.22925225e-09
-1.18955719e-09
-1.18868745e-09
-1.19752133e-09
-1.22653867e-09
-1.22851369e-09
-1.18949164e-09
-1.18756327e-09
-1.19471343e-09
-1.22665877e-09
-1.22813186e-09
-1.1895371e-09
-1.18753113e-09
-1.19399181e-09
-1.22673518e-09
-1.22776136e-09
-1.18978129e-09
-1.18744997e-09
-1.19284619e-09
-1.22690474e-09
-1.22739047e-09
-1.18999356e-09
-1.1873047e-09
-1.19166128e-09
-1.22711989e-09
-1.22694648e-09
-1.19036324e-09
-1.18750959e-09
-1.19112273e-09
-1.22779746e-09
-1.22619382e-09
-1.19160524e-09
-1.18999663e-09
-1.2299273e-09
-1.22702636e-09
-1.19118034e-09
-1.18761483e-09
-1.18983853e-09
-1.22987898e-09
-1.22646603e-09
-1.19473948e-09
-1.19058286e-09
-1.23411019e-09
-1.22743914e-09
-1.19451105e-09
-1.18769381e-09
-1.18898778e-09
-1.23315831e-09
-1.22763939e-09
-1.19766377e-09
-1.18850911e-09
-1.18811688e-09
-1.19018756e-09
-1.23221973e-09
-1.22771732e-09
-1.20447925e-09
-1.18902371e-09
-1.18878561e-09
-1.22232322e-09
-1.22840181e-09
-1.20715842e-09
-1.19141038e-09
-1.20921673e-09
-1.23131976e-09
-1.21136462e-09
-1.18925299e-09
-1.18853864e-09
-1.21035618e-09
-1.23081277e-09
-1.21506664e-09
-1.19083334e-09
-1.19856768e-09
-1.23252403e-09
-1.21425036e-09
-1.18982971e-09
-1.19414504e-09
-1.23060465e-09
-1.23033795e-09
-1.19546143e-09
-1.19018387e-09
-1.19830058e-09
-1.2330174e-09
-1.22834878e-09
-1.19229573e-09
-1.18900559e-09
-1.19579352e-09
-1.23198081e-09
-1.2313827e-09
-1.19367831e-09
-1.18923017e-09
-1.19473272e-09
-1.23099297e-09
-1.23233179e-09
-1.19545105e-09
-1.18992037e-09
-1.19621915e-09
-1.23181234e-09
-1.23289458e-09
-1.19401075e-09
-1.18772055e-09
-1.18832772e-09
-1.21657749e-09
-1.22958832e-09
-1.23052583e-09
-1.19656821e-09
-1.1892491e-09
-1.19121877e-09
-1.22724395e-09
-1.23093971e-09
-1.19633831e-09
-1.19370122e-09
-1.22459809e-09
-1.23193734e-09
-1.19826673e-09
-1.18976422e-09
-1.19328401e-09
-1.23206154e-09
-1.23393926e-09
-1.19600139e-09
-1.18977438e-09
-1.19521819e-09
-1.23362732e-09
-1.23294496e-09
-1.19467619e-09
-1.1894681e-09
-1.19480418e-09
-1.23338009e-09
-1.2331284e-09
-1.19362258e-09
-1.18870429e-09
-1.19285889e-09
-1.23368423e-09
-1.23374058e-09
-1.19208958e-09
-1.19259354e-09
-1.23350817e-09
-1.23278097e-09
-1.19186721e-09
-1.18912621e-09
-1.19825418e-09
-1.23059036e-09
-1.23230887e-09
-1.19567349e-09
-1.19096442e-09
-1.19067563e-09
-1.19063175e-09
-1.19024053e-09
-1.21035103e-09
-1.22813643e-09
-1.22877809e-09
-1.19061446e-09
-1.19408501e-09
-1.23063338e-09
-1.22624075e-09
-1.19060275e-09
-1.19502033e-09
-1.22989417e-09
-1.22702331e-09
-1.19014568e-09
-1.18878876e-09
-1.20385377e-09
-1.22859679e-09
-1.22754984e-09
-1.18978115e-09
-1.18857512e-09
-1.20254513e-09
-1.22926654e-09
-1.22502789e-09
-1.18932277e-09
-1.18897144e-09
-1.2094734e-09
-1.22991231e-09
-1.2126893e-09
-1.19016315e-09
-1.19858446e-09
-1.2313067e-09
-1.21255257e-09
-1.18916521e-09
-1.19464929e-09
-1.2303408e-09
-1.23302814e-09
-1.19104038e-09
-1.19016586e-09
-1.20671492e-09
-1.22948282e-09
-1.22479465e-09
-1.18899361e-09
-1.18922582e-09
-1.20734213e-09
-1.22965501e-09
-1.22316622e-09
-1.18872837e-09
-1.18905251e-09
-1.20728549e-09
-1.22999701e-09
-1.22028084e-09
-1.18875379e-09
-1.18914795e-09
-1.20927353e-09
-1.23038026e-09
-1.21246662e-09
-1.19076721e-09
-1.20181181e-09
-1.23038693e-09
-1.21721715e-09
-1.18825706e-09
-1.18868256e-09
-1.2071008e-09
-1.23028203e-09
-1.21418139e-09
-1.19092512e-09
-1.2023605e-09
-1.22986753e-09
-1.21770208e-09
-1.18801151e-09
-1.18852198e-09
-1.20739594e-09
-1.23015936e-09
-1.21432994e-09
-1.19090726e-09
-1.20369221e-09
-1.23062937e-09
-1.20969982e-09
-1.18789769e-09
-1.18872645e-09
-1.21372567e-09
-1.2301733e-09
-1.20928723e-09
-1.19053462e-09
-1.20331009e-09
-1.22950365e-09
-1.21730999e-09
-1.18809513e-09
-1.18872093e-09
-1.2117803e-09
-1.22989197e-09
-1.21047339e-09
-1.19093964e-09
-1.20616649e-09
-1.22971864e-09
-1.21054306e-09
-1.18787271e-09
-1.1886076e-09
-1.21313987e-09
-1.22985685e-09
-1.21093576e-09
-1.18817315e-09
-1.18893444e-09
-1.21893135e-09
-1.22997931e-09
-1.20332909e-09
-1.19088462e-09
-1.2128814e-09
-1.23009137e-09
-1.2024077e-09
-1.18797432e-09
-1.18920327e-09
-1.22770001e-09
-1.22991205e-09
-1.1983235e-09
-1.19089136e-09
-1.22013395e-09
-1.23148931e-09
-1.19450091e-09
-1.18841248e-09
-1.19979899e-09
-1.22823249e-09
-1.23161877e-09
-1.18896762e-09
-1.18841206e-09
-1.20264972e-09
-1.22807631e-09
-1.23159781e-09
-1.18934962e-09
-1.18896256e-09
-1.20391729e-09
-1.22805913e-09
-1.23198597e-09
-1.1891144e-09
-1.18884206e-09
-1.20372822e-09
-1.22844245e-09
-1.23251924e-09
-1.18843949e-09
-1.18774261e-09
-1.1894928e-09
-1.20167363e-09
-1.22711067e-09
-1.22682215e-09
-1.23034437e-09
-1.18835056e-09
-1.18868391e-09
-1.20374107e-09
-1.22883941e-09
-1.23194953e-09
-1.18772855e-09
-1.18823957e-09
-1.21278743e-09
-1.23069453e-09
-1.20383998e-09
-1.19079896e-09
-1.20868434e-09
-1.22896849e-09
-1.21420486e-09
-1.18742628e-09
-1.18822658e-09
-1.2139159e-09
-1.23070314e-09
-1.20156922e-09
-1.19081805e-09
-1.21736709e-09
-1.22985481e-09
-1.1997729e-09
-1.19053295e-09
-1.21358854e-09
-1.22929283e-09
-1.20655133e-09
-1.18761567e-09
-1.18844729e-09
-1.21452434e-09
-1.22986991e-09
-1.20334323e-09
-1.19090024e-09
-1.21258431e-09
-1.2290443e-09
-1.20856949e-09
-1.18806286e-09
-1.18859368e-09
-1.21450077e-09
-1.22930129e-09
-1.2066247e-09
-1.19111309e-09
-1.21003622e-09
-1.22877307e-09
-1.21284114e-09
-1.18875218e-09
-1.18883118e-09
-1.21035529e-09
-1.22897888e-09
-1.22190392e-09
-1.18881921e-09
-1.18879314e-09
-1.21262891e-09
-1.22961375e-09
-1.2132286e-09
-1.18876434e-09
-1.18802398e-09
-1.18874455e-09
-1.21730327e-09
-1.22912244e-09
-1.20674882e-09
-1.19060515e-09
-1.20822883e-09
-1.22992637e-09
-1.21028522e-09
-1.188646e-09
-1.18812931e-09
-1.23041285e-09
-1.22773996e-09
-1.21012073e-09
-1.1933906e-09
-1.1949462e-09
-1.19256736e-09
-1.19247224e-09
-1.23378325e-09
-1.22784797e-09
-1.20704483e-09
-1.18857536e-09
-1.18802852e-09
-1.22819242e-09
-1.228305e-09
-1.19667652e-09
-1.18945982e-09
-1.22223336e-09
-1.22878123e-09
-1.20522126e-09
-1.18810933e-09
-1.18729505e-09
-1.22454539e-09
-1.22784198e-09
-1.19692774e-09
-1.18866237e-09
-1.2206104e-09
-1.2281217e-09
-1.19643388e-09
-1.18888447e-09
-1.21971691e-09
-1.22868932e-09
-1.20904632e-09
-1.18864287e-09
-1.18816087e-09
-1.22437429e-09
-1.22853994e-09
-1.21117136e-09
-1.18872738e-09
-1.18842809e-09
-1.22286248e-09
-1.22892633e-09
-1.21227979e-09
-1.18885758e-09
-1.18875858e-09
-1.22154434e-09
-1.22931138e-09
-1.2133427e-09
-1.18884034e-09
-1.18886819e-09
-1.21991112e-09
-1.22977063e-09
-1.21359164e-09
-1.18882478e-09
-1.18897399e-09
-1.21880863e-09
-1.23008578e-09
-1.21389012e-09
-1.18884843e-09
-1.18908082e-09
-1.21805748e-09
-1.23031572e-09
-1.21398291e-09
-1.1887657e-09
-1.18892006e-09
-1.21750961e-09
)
;

boundaryField
{
    closed
    {
        type            calculated;
        value           nonuniform List<scalar> 0();
    }
    open
    {
        type            calculated;
        value           nonuniform List<scalar> 0();
    }
    sides
    {
        type            empty;
    }
    procBoundary1to0
    {
        type            processor;
        value           uniform -1.18833467e-09;
    }
    procBoundary1to2
    {
        type            processor;
        value           uniform -1.2310877e-09;
    }
}


// ************************************************************************* //
