/*--------------------------------*- C++ -*----------------------------------*\
| =========                 |                                                 |
| \\      /  F ield         | OpenFOAM: The Open Source CFD Toolbox           |
|  \\    /   O peration     | Version:  2306                                  |
|   \\  /    A nd           | Website:  www.openfoam.com                      |
|    \\/     M anipulation  |                                                 |
\*---------------------------------------------------------------------------*/
FoamFile
{
    version     2.0;
    format      ascii;
    arch        "LSB;label=32;scalar=64";
    class       volVectorField;
    location    "0.00098";
    object      U;
}
// * * * * * * * * * * * * * * * * * * * * * * * * * * * * * * * * * * * * * //

dimensions      [0 1 -1 0 0 0 0];

internalField   nonuniform List<vector> 
531
(
(-0.776941873 0 0)
(-0.772920898 0 0)
(-0.784001801 0 0)
(-0.787879833 0 0)
(-0.767019869 0 0)
(-0.754229269 0 0)
(-0.75411224 0 0)
(-0.767219667 0 0)
(-0.767778301 0 0)
(-0.749439346 0 0)
(-0.7429619 0 0)
(-0.745882118 0 0)
(-0.759259036 0 0)
(-0.752815031 0 0)
(-0.730810269 0 0)
(-0.726031387 0 0)
(-0.735351097 0 0)
(-0.726594284 0 0)
(-0.704549173 0 0)
(-0.699246778 0 0)
(-0.700603808 0 0)
(-0.710353329 0 0)
(-0.699102646 0 0)
(-0.6754509 0 0)
(-0.670769099 0 0)
(-0.676693973 0 0)
(-0.666418117 0 0)
(-0.649435513 0 0)
(-0.648241187 0 0)
(-0.653954242 0 0)
(-0.667768607 0 0)
(-0.667710302 0 0)
(-0.65338726 0 0)
(-0.649844832 0 0)
(-0.659823061 0 0)
(-0.674815412 0 0)
(-0.675478217 0 0)
(-0.662815207 0 0)
(-0.660981277 0 0)
(-0.672624366 0 0)
(-0.686377535 0 0)
(-0.690726147 0 0)
(-0.684967228 0 0)
(-0.688260729 0 0)
(-0.696215308 0 0)
(-0.704674512 0 0)
(-0.703909301 0 0)
(-0.704276269 0 0)
(-0.712307105 0 0)
(-0.7206955 0 0)
(-0.717416163 0 0)
(-0.710378942 0 0)
(-0.720342716 0 0)
(-0.735359835 0 0)
(-0.747234707 0 0)
(-0.752168766 0 0)
(-0.762976791 0 0)
(-0.766606347 0 0)
(-0.7733123 0 0)
(-0.776954985 0 0)
(-0.785716326 0 0)
(-0.803867288 0 0)
(-0.820237511 0 0)
(-0.825136742 0 0)
(-0.831269747 0 0)
(-0.848431667 0 0)
(-0.864158989 0 0)
(-0.867121079 0 0)
(-0.865238336 0 0)
(-0.87000129 0 0)
(-0.875578613 0 0)
(-0.889738825 0 0)
(-0.894724187 0 0)
(-0.89932992 0 0)
(-0.903588645 0 0)
(-0.908489017 0 0)
(-0.911006315 0 0)
(-0.906380744 0 0)
(-0.890726333 0 0)
(-0.888560663 0 0)
(-0.886400585 0 0)
(-0.877609112 0 0)
(-0.862117704 0 0)
(-0.863685006 0 0)
(-0.874016483 0 0)
(-0.875918214 0 0)
(-0.887469485 0 0)
(-0.874891094 0 0)
(-0.853687278 0 0)
(-0.855412972 0 0)
(-0.863288873 0 0)
(-0.850527713 0 0)
(-0.843360284 0 0)
(-0.851136123 0 0)
(-0.855680555 0 0)
(-0.866308598 0 0)
(-0.850088227 0 0)
(-0.828568459 0 0)
(-0.822976472 0 0)
(-0.823076355 0 0)
(-0.81263695 0 0)
(-0.81113289 0 0)
(-0.824453295 0 0)
(-0.83180007 0 0)
(-0.845560631 0 0)
(-0.833902411 0 0)
(-0.812565509 0 0)
(-0.801690671 0 0)
(-0.795556509 0 0)
(-0.780944661 0 0)
(-0.773669999 0 0)
(-0.779395532 0 0)
(-0.776324265 0 0)
(-0.779328459 0 0)
(-0.760044301 0 0)
(-0.747404474 0 0)
(-0.746633248 0 0)
(-0.740096033 0 0)
(-0.739071472 0 0)
(-0.711891635 0 0)
(-0.691338399 0 0)
(-0.681621173 0 0)
(-0.665088027 0 0)
(-0.649320512 0 0)
(-0.605299987 0 0)
(-0.56897945 0 0)
(-0.541054919 0 0)
(-0.506549218 0 0)
(-0.464505075 0 0)
(-0.394906567 0 0)
(-0.336157271 0 0)
(-0.282941912 0 0)
(-0.222893434 0 0)
(-0.144325458 0 0)
(-0.0429122189 0 0)
(0.0419908201 0 0)
(0.127431546 0 0)
(0.22560937 0 0)
(0.351488285 0 0)
(0.483105263 0 0)
(0.595189036 0 0)
(0.711776611 0 0)
(0.878746971 0 0)
(1.06165504 0 0)
(1.20846595 0 0)
(1.37892853 0 0)
(1.55324823 0 0)
(1.79414167 0 0)
(2.07849846 0 0)
(2.29299514 0 0)
(2.55474174 0 0)
(2.91625107 0 0)
(3.26819239 0 0)
(3.5432295 0 0)
(3.86653904 0 0)
(4.17019344 0 0)
(4.58969065 0 0)
(5.04112978 0 0)
(5.32949186 0 0)
(5.71677276 0 0)
(6.1399722 0 0)
(6.42524985 0 0)
(6.74478099 0 0)
(7.10689559 0 0)
(7.35486016 0 0)
(7.70079062 0 0)
(8.03951545 0 0)
(8.28862126 0 0)
(8.39069211 0 0)
(8.44117597 0 0)
(8.56558664 0 0)
(8.654085 0 0)
(8.75979589 0 0)
(8.75999978 0 0)
(8.81569734 0 0)
(8.834626 0 0)
(8.79599748 0 0)
(8.64738563 0 0)
(8.4576134 0 0)
(8.33748439 0 0)
(8.21566577 0 0)
(8.05129745 0 0)
(7.77363724 0 0)
(7.56684001 0 0)
(7.45786667 0 0)
(7.33510555 0 0)
(7.04009725 0 0)
(6.75982768 0 0)
(6.46126159 0 0)
(6.31233135 0 0)
(6.08576476 0 0)
(5.83205853 0 0)
(5.59222797 0 0)
(5.30485656 0 0)
(5.16718996 0 0)
(4.94991385 0 0)
(4.70845943 0 0)
(4.50870835 0 0)
(4.2621424 0 0)
(4.15891652 0 0)
(3.98445107 0 0)
(3.73462041 0 0)
(3.56549467 0 0)
(3.38645269 0 0)
(3.30791448 0 0)
(3.13524798 0 0)
(2.9107015 0 0)
(2.72609104 0 0)
(2.54551418 0 0)
(2.41243958 0 0)
(2.20850433 0 0)
(2.03113054 0 0)
(1.85393321 0 0)
(1.73516164 0 0)
(1.60256431 0 0)
(1.52596454 0 0)
(1.37000414 0 0)
(1.20154923 0 0)
(1.13182116 0 0)
(1.10469577 0 0)
(0.97934235 0 0)
(0.835884007 0 0)
(0.815619217 0 0)
(0.736527847 0 0)
(0.742460494 0 0)
(0.679943449 0 0)
(0.631668669 0 0)
(0.650945891 0 0)
(0.589039527 0 0)
(0.595159821 0 0)
(0.534131794 0 0)
(0.498426527 0 0)
(0.511088715 0 0)
(0.45891093 0 0)
(0.473598246 0 0)
(0.434974305 0 0)
(0.439911631 0 0)
(0.47763737 0 0)
(0.4646344 0 0)
(0.521765836 0 0)
(0.52053795 0 0)
(0.60043633 0 0)
(0.689324291 0 0)
(0.77274081 0 0)
(0.777280198 0 0)
(0.837689147 0 0)
(0.896187799 0 0)
(0.865701849 0 0)
(0.876908574 0 0)
(0.837820035 0 0)
(0.82778819 0 0)
(0.838060288 0 0)
(0.779841376 0 0)
(0.731867687 0 0)
(0.693972008 0 0)
(0.663844866 0 0)
(0.637888133 0 0)
(0.576427187 0 0)
(0.588944303 0 0)
(0.589943562 0 0)
(0.591592589 0 0)
(0.56639893 0 0)
(0.59302643 0 0)
(0.5891806 0 0)
(0.576246955 0 0)
(0.563485737 0 0)
(0.580875692 0 0)
(0.581703208 0 0)
(0.541143871 0 0)
(0.52302898 0 0)
(0.494435173 0 0)
(0.503331989 0 0)
(0.503541677 0 0)
(0.460287546 0 0)
(0.442882289 0 0)
(0.423220395 0 0)
(0.433648663 0 0)
(0.435623104 0 0)
(0.400033103 0 0)
(0.385613756 0 0)
(0.377865283 0 0)
(0.375161312 0 0)
(0.353767033 0 0)
(0.328158692 0 0)
(0.332570464 0 0)
(0.328465299 0 0)
(0.300610998 0 0)
(0.275354099 0 0)
(0.268779309 0 0)
(0.278456883 0 0)
(0.266665197 0 0)
(0.199492268 0 0)
(0.161167756 0 0)
(0.128185524 0 0)
(0.113319989 0 0)
(0.0805175974 0 0)
(0.0213478944 0 0)
(-0.0293262615 0 0)
(-0.0756252943 0 0)
(-0.135019203 0 0)
(-0.19547582 0 0)
(-0.24976818 0 0)
(-0.305507009 0 0)
(-0.367091731 0 0)
(-0.450438482 0 0)
(-0.524308582 0 0)
(-0.583259054 0 0)
(-0.638153712 0 0)
(-0.699196343 0 0)
(-0.782118834 0 0)
(-0.844163717 0 0)
(-0.899912177 0 0)
(-0.954116803 0 0)
(-1.02702382 0 0)
(-1.08302501 0 0)
(-1.11044841 0 0)
(-1.13626206 0 0)
(-1.16940508 0 0)
(-1.21512985 0 0)
(-1.24407726 0 0)
(-1.26510088 0 0)
(-1.29445796 0 0)
(-1.33830394 0 0)
(-1.36493582 0 0)
(-1.36693237 0 0)
(-1.37268866 0 0)
(-1.39053018 0 0)
(-1.42229243 0 0)
(-1.44501425 0 0)
(-1.46033201 0 0)
(-1.48718775 0 0)
(-1.51997366 0 0)
(-1.54507601 0 0)
(-1.55893373 0 0)
(-1.56462164 0 0)
(-1.57690057 0 0)
(-1.60407258 0 0)
(-1.63647651 0 0)
(-1.65938325 0 0)
(-1.70304154 0 0)
(-1.75451674 0 0)
(-1.78719808 0 0)
(-1.80103758 0 0)
(-1.81188944 0 0)
(-1.83370222 0 0)
(-1.86029969 0 0)
(-1.89107943 0 0)
(-1.90291759 0 0)
(-1.94101144 0 0)
(-1.96547372 0 0)
(-1.98386681 0 0)
(-1.98567623 0 0)
(-1.97938972 0 0)
(-1.98780484 0 0)
(-1.99937194 0 0)
(-2.01043141 0 0)
(-2.00367996 0 0)
(-1.97403677 0 0)
(-1.94636187 0 0)
(-1.91879409 0 0)
(-1.91577864 0 0)
(-1.88536607 0 0)
(-1.87212932 0 0)
(-1.83687487 0 0)
(-1.82338723 0 0)
(-1.8112669 0 0)
(-1.75343016 0 0)
(-1.68529829 0 0)
(-1.63740857 0 0)
(-1.6232337 0 0)
(-1.5864536 0 0)
(-1.53903276 0 0)
(-1.48057074 0 0)
(-1.44492167 0 0)
(-1.43364072 0 0)
(-1.45023362 0 0)
(-1.4294179 0 0)
(-1.39378317 0 0)
(-1.39438604 0 0)
(-1.37425194 0 0)
(-1.37952127 0 0)
(-1.35462491 0 0)
(-1.314645 0 0)
(-1.30627547 0 0)
(-1.27673717 0 0)
(-1.27127718 0 0)
(-1.23954253 0 0)
(-1.19320229 0 0)
(-1.17646462 0 0)
(-1.14261319 0 0)
(-1.12984484 0 0)
(-1.09181615 0 0)
(-1.04326001 0 0)
(-1.02588414 0 0)
(-0.981828309 0 0)
(-0.933479525 0 0)
(-0.910908864 0 0)
(-0.883879756 0 0)
(-0.82269298 0 0)
(-0.770898867 0 0)
(-0.737143727 0 0)
(-0.697582154 0 0)
(-0.663193982 0 0)
(-0.617581548 0 0)
(-0.564345217 0 0)
(-0.522710008 0 0)
(-0.4743607 0 0)
(-0.408665396 0 0)
(-0.365005103 0 0)
(-0.319645146 0 0)
(-0.272332581 0 0)
(-0.203762568 0 0)
(-0.156997227 0 0)
(-0.107534222 0 0)
(-0.0572219192 0 0)
(0.000411878998 0 0)
(0.0918561235 0 0)
(0.149888302 0 0)
(0.195227908 0 0)
(0.247649425 0 0)
(0.354218419 0 0)
(0.409760696 0 0)
(0.465155423 0 0)
(0.520960457 0 0)
(0.620746257 0 0)
(0.678789176 0 0)
(0.746288937 0 0)
(0.801723922 0 0)
(0.859021566 0 0)
(0.966990325 0 0)
(1.01649798 0 0)
(1.08183205 0 0)
(1.13270528 0 0)
(1.23135613 0 0)
(1.28780985 0 0)
(1.36026583 0 0)
(1.4159389 0 0)
(1.4671691 0 0)
(1.57469837 0 0)
(1.61801445 0 0)
(1.6968846 0 0)
(1.74794498 0 0)
(1.84583217 0 0)
(1.91036068 0 0)
(1.99836854 0 0)
(2.06035058 0 0)
(2.10649015 0 0)
(2.21476619 0 0)
(2.32498525 0 0)
(2.43425597 0 0)
(2.52800149 0 0)
(2.59902179 0 0)
(2.69921787 0 0)
(2.78430537 0 0)
(2.89656185 0 0)
(3.01090669 0 0)
(3.0498291 0 0)
(3.09674848 0 0)
(3.2103847 0 0)
(3.2403076 0 0)
(3.32197695 0 0)
(3.35661342 0 0)
(3.42449068 0 0)
(3.43320848 0 0)
(3.46829203 0 0)
(3.49786664 0 0)
(3.48459659 0 0)
(3.38444401 0 0)
(3.32831378 0 0)
(3.326849 0 0)
(3.30729032 0 0)
(3.27568536 0 0)
(3.19839626 0 0)
(3.15672628 0 0)
(3.04031162 0 0)
(2.89665144 0 0)
(2.79500365 0 0)
(2.70751949 0 0)
(2.57353306 0 0)
(2.34937196 0 0)
(2.14368371 0 0)
(1.97343276 0 0)
(1.81563668 0 0)
(1.57834347 0 0)
(1.36827753 0 0)
(1.18240835 0 0)
(1.01628758 0 0)
(0.825599537 0 0)
(0.573851148 0 0)
(0.368720236 0 0)
(0.182919258 0 0)
(0.00308937461 0 0)
(-0.229845745 0 0)
(-0.411867096 0 0)
(-0.594077407 0 0)
(-0.759858846 0 0)
(-0.949420949 0 0)
(-1.11429807 0 0)
(-1.29037171 0 0)
(-1.42129119 0 0)
(-1.53751437 0 0)
(-1.67084076 0 0)
(-1.785304 0 0)
(-1.9090683 0 0)
(-1.97964747 0 0)
(-2.02631066 0 0)
(-2.10748904 0 0)
(-2.19137492 0 0)
(-2.2601484 0 0)
(-2.27343659 0 0)
(-2.28753302 0 0)
(-2.34749628 0 0)
(-2.41941665 0 0)
(-2.46137969 0 0)
(-2.4390519 0 0)
(-2.4217879 0 0)
(-2.45886428 0 0)
(-2.49929789 0 0)
(-2.51302776 0 0)
(-2.4699327 0 0)
(-2.41340221 0 0)
(-2.40620819 0 0)
(-2.41368908 0 0)
(-2.40401856 0 0)
(-2.34684844 0 0)
(-2.27649998 0 0)
(-2.25059716 0 0)
(-2.23700853 0 0)
(-2.21589101 0 0)
(-2.16133523 0 0)
(-2.08983866 0 0)
)
;

boundaryField
{
    closed
    {
        type            noSlip;
    }
    open
    {
        type            inletOutlet;
        inletValue      nonuniform List<vector> 0();
        value           nonuniform List<vector> 0();
    }
    sides
    {
        type            empty;
    }
    procBoundary1to0
    {
        type            processor;
        value           uniform (-0.790314984 0 0);
    }
    procBoundary1to2
    {
        type            processor;
        value           uniform (-2.05057236 0 0);
    }
}


// ************************************************************************* //
