/*--------------------------------*- C++ -*----------------------------------*\
| =========                 |                                                 |
| \\      /  F ield         | OpenFOAM: The Open Source CFD Toolbox           |
|  \\    /   O peration     | Version:  2306                                  |
|   \\  /    A nd           | Website:  www.openfoam.com                      |
|    \\/     M anipulation  |                                                 |
\*---------------------------------------------------------------------------*/
FoamFile
{
    version     2.0;
    format      ascii;
    arch        "LSB;label=32;scalar=64";
    class       volScalarField;
    location    "2e-05";
    object      H2;
}
// * * * * * * * * * * * * * * * * * * * * * * * * * * * * * * * * * * * * * //

dimensions      [0 0 0 0 0 0 0];

internalField   nonuniform List<scalar> 
3816
(
0.0108042888
0.010803581
0.0108034603
0.0108034603
0.0108034603
0.0108034603
0.0108034603
0.0108034603
0.0108034603
0.0108034603
0.0108034603
0.0108034603
0.0108034603
0.0108034603
0.0108034603
0.0108034603
0.0108034603
0.0108034603
0.0108034603
0.0108034603
0.0108034603
0.0108034603
0.0108034603
0.0108034603
0.0108034603
0.0108034603
0.0108034603
0.0108034603
0.0108034603
0.0108034603
0.0108034603
0.0108034603
0.0108034603
0.0108034603
0.0108034603
0.0108034603
0.0108034603
0.0108034603
0.0108034603
0.0108034603
0.0108034603
0.0108034603
0.0108034603
0.0108034603
0.0108034603
0.0108034603
0.0108034603
0.0108034603
0.0108034603
0.0108034603
0.0108034603
0.0108034603
0.0108034603
0.0108034603
0.0108034603
0.0108034603
0.0108034603
0.0108034603
0.0108034603
0.0108034603
0.0108034603
0.0108034603
0.0108034603
0.0108034603
0.0108034603
0.0108034603
0.0108034603
0.0108034603
0.0108034603
0.0108034603
0.0108034603
0.0108034603
0.0108034603
0.0108034603
0.0108034603
0.0108034603
0.0108034603
0.0108034603
0.0108034603
0.0108034603
0.0108034603
0.0108034603
0.0108034603
0.0108034603
0.0108034603
0.0108034603
0.0108034603
0.0108034603
0.0108034603
0.0108034603
0.0108034603
0.0108034603
0.0108034603
0.0108034603
0.0108034603
0.0108034603
0.0108034603
0.0108034603
0.0108034603
0.0108034603
0.0108034603
0.0108034603
0.0108034603
0.0108034603
0.0108034603
0.0108034604
0.0108034605
0.0108034608
0.0108034615
0.0108034629
0.0108034649
0.010803474
0.0108034981
0.0108034589
0.01080332
0.0108040333
0.0108054626
0.0108008667
0.0107931589
0.0108146364
0.0108327526
0.0107568584
0.0106939928
0.0107796046
0.0110028763
0.0110655105
0.0106461648
0.0106530907
0.0107655084
0.0110241785
0.0110056707
0.0110458593
0.0106439958
0.0106414705
0.0107481462
0.0110170978
0.0110123907
0.0106691572
0.0106812168
0.0110116119
0.0110157973
0.0106674201
0.0106734456
0.0110107021
0.0110152938
0.0106656666
0.0106697625
0.011011636
0.0110130269
0.0106639931
0.0106692388
0.0110161674
0.0110046966
0.0106467739
0.0107649327
0.0110165985
0.0106863176
0.0106707406
0.0110090848
0.0110122991
0.0106661193
0.0106626895
0.0106802318
0.0107394569
0.0110051774
0.0110076368
0.0106693363
0.0106604581
0.0107337511
0.0110102078
0.011015563
0.0106737588
0.0106763569
0.0110082564
0.0110335089
0.010668083
0.0106758433
0.0110096245
0.0110482327
0.0106649955
0.0106792703
0.0110113798
0.0110620726
0.010664403
0.0106842754
0.0110144576
0.0110752282
0.0106605086
0.0106885277
0.0110221
0.0110585178
0.0106351968
0.0107193241
0.0110556273
0.0106661738
0.0106913843
0.0110249296
0.0110184548
0.0110205311
0.0106532213
0.0107485361
0.0110486687
0.0106827262
0.0107049153
0.0110122241
0.0110301429
0.0106713207
0.0107088059
0.0110149561
0.0110198394
0.0106674359
0.0107096827
0.0110154335
0.0110164255
0.0106669
0.0107112423
0.0110151816
0.0110171513
0.0106676508
0.0107133245
0.0110149884
0.0110218384
0.0106674174
0.0107207234
0.0110192656
0.0109524645
0.010655941
0.0106607999
0.010783293
0.0110190039
0.0110748117
0.0106717928
0.0107212511
0.011020072
0.0109844451
0.0106540889
0.0106578344
0.0107759874
0.011019151
0.0110756583
0.0106695079
0.0107101571
0.0110155379
0.0110394842
0.0106664207
0.0107076366
0.0110158943
0.0110089205
0.0106638041
0.0107077124
0.0110164914
0.0109973076
0.0106624248
0.0107072526
0.0110166129
0.010998763
0.0106621315
0.010705354
0.0110162218
0.0110110957
0.0106623034
0.0107021882
0.0110155896
0.0110358686
0.010662403
0.0106986029
0.0110161329
0.0110746184
0.01066115
0.0106968188
0.0110240226
0.0110134249
0.0106388648
0.0107785038
0.0110422835
0.0106857175
0.010682664
0.0110181524
0.0110318481
0.0106703866
0.0106822084
0.0110214589
0.0110303351
0.0106675791
0.0106790428
0.011022448
0.0110253823
0.0106681842
0.0106758315
0.0110244412
0.0110211467
0.0106699301
0.0106720555
0.0110257971
0.0110144723
0.0106706626
0.0106829371
0.0110182757
0.0109446347
0.0106625608
0.0106578812
0.0107023307
0.011021867
0.0110001449
0.0106810371
0.010667289
0.0110297152
0.0110086074
0.0106794064
0.0106660503
0.0110311612
0.0110100613
0.0106767723
0.0106658649
0.01103048
0.0110117913
0.0106736533
0.0106695756
0.0110251681
0.0110433877
0.0106627495
0.0106474973
0.0106864027
0.0110253418
0.0109983713
0.0106778802
0.0106642036
0.01102376
0.0110064291
0.0106735023
0.0106615277
0.0110206008
0.0110088452
0.0106686695
0.0106603553
0.0110165984
0.011010034
0.0106654388
0.0106598349
0.0110139355
0.0110140643
0.0106616267
0.0106617731
0.0110162545
0.0110119254
0.0106473736
0.0107059887
0.0110207501
0.0106895391
0.0106642742
0.0110058909
0.0110269368
0.0106670159
0.0106693446
0.0110133537
0.0110232269
0.0106503612
0.0107074494
0.011023612
0.0106856861
0.0106686439
0.0110037024
0.0110330389
0.0106661783
0.0106734869
0.0110091776
0.0110347846
0.0106627401
0.0106727663
0.0110100259
0.0110351447
0.0106621529
0.0106734317
0.0110097746
0.0110345092
0.0106628052
0.0106751935
0.011009081
0.0110334802
0.0106637896
0.0106783788
0.0110082828
0.01103316
0.0106626036
0.010675899
0.0110076224
0.0110272995
0.0106589992
0.0106510528
0.010704322
0.011014496
0.0110205669
0.0106703831
0.0106804614
0.0110080105
0.0110222081
0.0106613137
0.010649718
0.0106938706
0.0110142751
0.0110190892
0.0106685916
0.0106772058
0.0110087251
0.0110253089
0.0106645017
0.0106715879
0.0110090783
0.0110274274
0.0106604061
0.0106696158
0.0110098255
0.0110280938
0.0106588196
0.0106689143
0.0110102198
0.0110282411
0.0106581528
0.0106686165
0.0110103534
0.0110283002
0.0106579856
0.0106687331
0.011010258
0.0110283786
0.0106582958
0.0106692864
0.0110099297
0.0110284228
0.0106591672
0.0106705314
0.0110093635
0.0110284139
0.0106604894
0.010672554
0.011008659
0.0110285364
0.0106612663
0.010674732
0.0110082635
0.0110291961
0.0106593726
0.0106744901
0.0110089633
0.01102495
0.010652173
0.0106496188
0.010696995
0.0110149311
0.0110175482
0.0106679102
0.010680674
0.0110078795
0.0110239421
0.0106682081
0.0106776999
0.0110060169
0.0110267093
0.0106643852
0.0106792343
0.0110067019
0.0110217664
0.0106553783
0.0106552883
0.0107157823
0.0110121367
0.0110188591
0.0106690487
0.0106822934
0.0110078212
0.0110262796
0.0106667229
0.0106669826
0.0106794944
0.0107153274
0.0110021196
0.0110212893
0.0106790867
0.0106894744
0.011002286
0.011028588
0.0106711496
0.0106842282
0.0110041844
0.0110330268
0.0106654489
0.0106851404
0.0110078302
0.0110259617
0.0106521429
0.0106554862
0.0107282583
0.0110133287
0.0110323414
0.0106590555
0.0106620126
0.0107187458
0.0110117705
0.0110373896
0.0106652119
0.010692188
0.0110134123
0.0110426637
0.0106539185
0.0107412194
0.0110531624
0.0106788888
0.0106868661
0.0110058993
0.0110552064
0.0106671043
0.0106872933
0.0110086035
0.0110596643
0.0106632703
0.0106888708
0.0110096664
0.0110623079
0.0106630776
0.0106911074
0.0110100502
0.0110637313
0.0106635694
0.0106926064
0.0110107514
0.0110644869
0.0106618645
0.0106943704
0.0110147015
0.0110596903
0.0106439451
0.0106507025
0.0107267797
0.0110190112
0.0110533275
0.010665541
0.0106962069
0.0110128482
0.0110571447
0.0106644977
0.0106899388
0.0110117028
0.0110570527
0.0106616915
0.0106868386
0.0110116487
0.0110542041
0.0106602844
0.0106849793
0.0110116269
0.0110497129
0.0106601757
0.0106833436
0.0110115043
0.0110443631
0.0106606679
0.0106814743
0.0110115226
0.0110386742
0.0106608871
0.0106793721
0.0110125741
0.0110321498
0.010659561
0.0106794608
0.0110183722
0.0110205078
0.0106405102
0.010723789
0.011026465
0.0106843915
0.010673719
0.0110141446
0.0110124933
0.0106502767
0.0107193053
0.0110214706
0.0106834844
0.0106720464
0.0110080781
0.011016322
0.0106685393
0.0106697412
0.0110106139
0.0110154956
0.0106624662
0.0106661945
0.011010894
0.0110148227
0.0106596295
0.0106639009
0.0110105935
0.0110150344
0.0106585822
0.0106628538
0.0110108458
0.0110160852
0.0106586008
0.0106626872
0.0110111607
0.0110175206
0.0106591785
0.0106630424
0.0110112971
0.0110191088
0.0106599232
0.0106635529
0.0110116308
0.011020679
0.0106604511
0.0106639546
0.011012835
0.0110211013
0.0106582242
0.0106676078
0.0110150147
0.0110163998
0.0106419276
0.0107040974
0.0110222039
0.010678895
0.010666698
0.0110064883
0.0110270387
0.0106668632
0.0106702737
0.0110093643
0.01103029
0.0106621255
0.010670275
0.0110101191
0.0110327507
0.0106600069
0.0106706757
0.0110105066
0.0110344028
0.0106595348
0.0106715526
0.0110108315
0.0110353756
0.0106598813
0.0106723637
0.0110114185
0.011035688
0.010660085
0.0106730962
0.0110127991
0.0110348341
0.0106577131
0.0106769029
0.0110163651
0.0110294541
0.0106438686
0.0107131084
0.0110317587
0.0106753024
0.0106741007
0.0110078071
0.0110348173
0.0106667516
0.0106756618
0.0110096211
0.0110364547
0.0106616948
0.0106750292
0.0110106331
0.0110374418
0.0106594608
0.0106745875
0.0110111703
0.0110379934
0.0106586887
0.0106744719
0.0110114456
0.0110383199
0.0106585322
0.0106745159
0.0110116055
0.0110385654
0.0106585028
0.0106745277
0.0110117361
0.0110388322
0.010658379
0.0106744041
0.0110118699
0.0110391582
0.0106581519
0.0106742036
0.011011997
0.0110395325
0.0106579377
0.0106740661
0.0110120897
0.0110399482
0.0106578565
0.0106741157
0.0110121308
0.0110404356
0.0106579478
0.0106743999
0.0110121307
0.0110410703
0.010658145
0.0106748586
0.011012116
0.0110419388
0.0106583631
0.0106754389
0.0110121149
0.0110431069
0.0106585199
0.0106761149
0.0110121432
0.0110446072
0.0106585911
0.0106768762
0.011012195
0.011046436
0.0106586038
0.010677735
0.0110122552
0.0110485609
0.0106585728
0.0106786899
0.0110123095
0.0110509226
0.0106585016
0.0106797232
0.0110123423
0.011053427
0.0106584079
0.0106808234
0.0110123318
0.0110559365
0.0106583533
0.0106820112
0.0110122454
0.0110582641
0.0106584758
0.0106833717
0.0110120366
0.011060173
0.0106590104
0.0106850815
0.0110116454
0.011061386
0.0106602868
0.0106873882
0.0110110379
0.0110616767
0.0106624709
0.0106904219
0.0110103344
0.0110610374
0.0106649829
0.0106942338
0.0110101084
0.0110596477
0.010665415
0.0107002648
0.0110129209
0.0110559495
0.0106511789
0.0106573485
0.0107498001
0.0110184454
0.0110487486
0.0106554424
0.0106592779
0.0107470015
0.0110202256
0.011053693
0.0106533026
0.0108191049
0.0110588729
0.010683299
0.0106935509
0.0110066364
0.0110549939
0.0106699641
0.010692139
0.0110103932
0.0110532823
0.0106629718
0.0106907398
0.0110178588
0.0110489335
0.0106420137
0.010746461
0.0110471829
0.010680316
0.0106846763
0.0110054585
0.0110477156
0.0106684539
0.0106871567
0.0110072616
0.0110463063
0.0106660341
0.0106874038
0.0110076717
0.0110455474
0.0106658564
0.0106876155
0.0110082032
0.0110452588
0.0106651648
0.0106872799
0.0110109205
0.0110459013
0.010656415
0.0106606851
0.010683005
0.0107426811
0.0110059496
0.0110351029
0.0106729763
0.0106944348
0.0110142857
0.0110399834
0.0106468844
0.0107807443
0.0110445111
0.0106832821
0.0106833965
0.0110124555
0.0110402806
0.0106489534
0.0107526812
0.0110388253
0.0106804568
0.0106833188
0.011005508
0.0110405129
0.0106686176
0.0106834423
0.0110075565
0.0110386729
0.0106642751
0.0106820049
0.0110085975
0.0110356279
0.0106628315
0.0106812671
0.011009843
0.0110311682
0.0106601079
0.0106838864
0.0110144279
0.0110271624
0.0106417045
0.0106437852
0.0107142176
0.0110195742
0.0110106831
0.0106620689
0.0106781823
0.0110128908
0.0110158653
0.010662475
0.0106719854
0.011010857
0.011016792
0.0106618727
0.0106695327
0.0110100742
0.0110158502
0.0106622154
0.0106692542
0.011009522
0.0110141544
0.0106629868
0.0106705558
0.0110098069
0.0110127874
0.0106605183
0.010675053
0.0110124804
0.0110175647
0.010647141
0.0106448876
0.0106977968
0.0110174737
0.011003095
0.010661864
0.0106714862
0.0110126006
0.0110125876
0.0106621632
0.0106665367
0.0110104645
0.011017949
0.0106609569
0.0106657271
0.0110098485
0.0110213128
0.0106608402
0.0106667433
0.0110100927
0.0110232851
0.0106612452
0.0106684694
0.0110115144
0.011023908
0.0106581728
0.0106716673
0.0110140173
0.0110198172
0.0106420839
0.0107255023
0.0110212761
0.0106790002
0.010673883
0.0110050784
0.0110270649
0.0106694265
0.0106817217
0.0110090758
0.0110229592
0.0106514088
0.0106533995
0.0107126925
0.0110138996
0.0110198956
0.0106668452
0.0106853511
0.0110108104
0.01102541
0.0106637951
0.0106835065
0.011011736
0.0110227941
0.0106473176
0.0106503837
0.0107034458
0.0110151039
0.0110224358
0.0106616635
0.0106815777
0.0110112554
0.0110282283
0.0106625884
0.0106760826
0.0110100175
0.0110310618
0.0106624257
0.0106751786
0.0110100554
0.0110319948
0.0106622332
0.0106757617
0.0110114489
0.0110317256
0.0106587874
0.0106787266
0.0110160873
0.0110270413
0.0106416801
0.0107232467
0.0110332601
0.0106784535
0.010675771
0.0110113289
0.0110262669
0.0106508311
0.01072195
0.0110297697
0.0106761006
0.0106767202
0.0110066136
0.0110324084
0.0106673296
0.0106760799
0.0110083596
0.0110345848
0.0106618318
0.010675067
0.0110093915
0.0110360914
0.0106594304
0.0106745629
0.0110098583
0.0110370672
0.010659091
0.0106750849
0.0110100464
0.0110375969
0.0106601175
0.0106764917
0.0110103001
0.0110378414
0.010661226
0.0106783517
0.011011459
0.0110377582
0.0106590889
0.0106825618
0.0110160853
0.0110346008
0.0106433277
0.0107309756
0.0110421474
0.0106818668
0.0106813237
0.0110105769
0.011036351
0.0106547914
0.0107489093
0.0110427737
0.0106851807
0.0106906015
0.0110069028
0.0110388568
0.0106543858
0.0106597909
0.0107270895
0.0110137623
0.0110391085
0.0106683613
0.0106942925
0.01100993
0.0110468102
0.010667766
0.0106915196
0.0110096565
0.0110518174
0.0106638876
0.0106951294
0.0110129433
0.0110535664
0.0106466582
0.0106531164
0.0107201747
0.011017749
0.0110529864
0.0106629
0.01069528
0.0110133222
0.0110601024
0.0106627268
0.0106905123
0.0110125209
0.0110639061
0.0106613137
0.0106889485
0.0110126115
0.0110653465
0.01066007
0.0106884581
0.0110128226
0.0110650423
0.0106593593
0.0106880735
0.0110129434
0.0110633665
0.0106590717
0.0106874717
0.011012944
0.0110605796
0.0106590914
0.0106866125
0.0110128493
0.0110568598
0.0106594502
0.010685592
0.0110127247
0.0110523687
0.0106601842
0.0106845158
0.0110127924
0.0110473363
0.0106608188
0.0106835224
0.0110139689
0.0110416165
0.0106592587
0.0106838743
0.0110201145
0.0110313377
0.010639013
0.0107219733
0.0110329595
0.0106787792
0.0106751543
0.0110076172
0.011030319
0.0106665713
0.0106757641
0.0110093654
0.0110279446
0.0106619228
0.0106733716
0.0110099072
0.0110263422
0.0106597541
0.0106715773
0.0110098623
0.0110249699
0.0106595066
0.0106711827
0.0110094141
0.0110237059
0.0106609759
0.0106725185
0.0110087655
0.0110225287
0.0106633716
0.0106757644
0.0110086896
0.0110214762
0.0106628298
0.0106824002
0.0110111211
0.0110223674
0.0106480289
0.0106494298
0.0106998634
0.01101794
0.0110074753
0.0106437113
0.0107397531
0.011022499
0.0106768965
0.0106720307
0.0110044749
0.0110253292
0.0106672498
0.0106722452
0.0110072084
0.0110268583
0.0106617091
0.0106707537
0.0110084279
0.0110284707
0.0106592167
0.0106700938
0.011008898
0.0110295965
0.0106587276
0.0106707966
0.0110088342
0.0110300857
0.0106598202
0.0106728667
0.0110084825
0.0110299495
0.0106616997
0.0106763759
0.0110084847
0.0110291718
0.0106611266
0.0106826354
0.0110105891
0.0110240254
0.0106477124
0.0106531347
0.0107030864
0.011015364
0.0110197796
0.0106665125
0.0106853667
0.0110102919
0.0110246688
0.0106661436
0.0106870215
0.011010703
0.0110244018
0.0106501608
0.0106554158
0.0107062332
0.0110160581
0.0110207002
0.0106622981
0.0106853788
0.0110163928
0.0110225584
0.0106463345
0.0107222395
0.0110313928
0.0106742972
0.0106762631
0.0110048644
0.0110313459
0.0106683433
0.0106776209
0.0110061074
0.0110318308
0.0106659577
0.0106790398
0.0110065935
0.0110317082
0.0106665141
0.0106808163
0.0110071477
0.0110318405
0.0106660312
0.0106809334
0.0110092083
0.0110330293
0.0106592871
0.0106624733
0.0106748801
0.0107061893
0.0110065851
0.0110246483
0.0106695214
0.0106853286
0.0110074662
0.0110307389
0.0106645287
0.0106789342
0.0110086257
0.0110340056
0.0106612512
0.0106760508
0.0110096735
0.0110359633
0.0106591909
0.01067452
0.0110104852
0.0110372217
0.0106580167
0.0106737088
0.0110110678
0.0110380844
0.0106574234
0.0106733586
0.0110114566
0.0110386927
0.0106572779
0.0106733921
0.0110116726
0.0110391095
0.0106575123
0.0106737576
0.0110117532
0.0110394025
0.0106579592
0.0106743041
0.0110117663
0.0110396596
0.0106583823
0.0106748246
0.011011782
0.0110399532
0.010658613
0.0106751662
0.0110118418
0.0110403117
0.0106586047
0.0106752839
0.0110119529
0.0110407179
0.0106584132
0.0106752285
0.0110120892
0.0110411149
0.0106581871
0.0106751279
0.0110121998
0.0110414239
0.0106581097
0.0106751376
0.0110122375
0.0110415856
0.0106582649
0.0106753296
0.0110121924
0.0110416014
0.0106585528
0.010675616
0.0110120952
0.0110415288
0.0106587642
0.0106758124
0.0110119891
0.0110414342
0.0106587248
0.0106757737
0.0110118896
0.0110413294
0.0106584555
0.010675534
0.0110117574
0.0110411359
0.0106582358
0.010675367
0.0110115178
0.0110407078
0.0106584893
0.0106756726
0.0110111424
0.011039906
0.0106595062
0.0106767303
0.0110108091
0.0110386332
0.0106609936
0.0106785872
0.0110113296
0.0110366348
0.010660531
0.010681987
0.0110156506
0.0110318828
0.010645728
0.0107010706
0.0110360174
0.0106750313
0.0106742184
0.0110075479
0.0110354207
0.0106679377
0.0106779003
0.0110086279
0.0110352559
0.0106654159
0.0106794679
0.011009884
0.0110344244
0.0106626315
0.0106819305
0.0110145654
0.0110305289
0.0106471595
0.0106989119
0.0110347252
0.0106746411
0.010673789
0.0110073559
0.0110344496
0.0106676859
0.0106771405
0.0110085581
0.0110343119
0.010665085
0.0106785597
0.0110098305
0.0110334123
0.0106623848
0.010681162
0.0110143363
0.0110293817
0.0106475142
0.0106962114
0.0110336171
0.0106736875
0.0106721735
0.0110077359
0.0110332802
0.0106661947
0.0106743528
0.0110088766
0.0110335998
0.0106624712
0.0106737508
0.0110093149
0.0110337856
0.0106602473
0.0106729142
0.011009349
0.0110334727
0.0106593419
0.0106727486
0.0110090227
0.011032536
0.0106597506
0.0106736438
0.0110084771
0.0110308883
0.0106612432
0.0106760037
0.0110083375
0.0110281957
0.0106621129
0.0106809438
0.0110111644
0.0110228578
0.0106517118
0.0106987305
0.0110268115
0.0106812272
0.0106773549
0.011006637
0.0110203753
0.0106627209
0.0106944571
0.0110226382
0.0106722986
0.0106924101
0.0110211211
0.0106792165
0.0106786216
0.0110020383
0.0110217546
0.0106720782
0.0106787192
0.0110029843
0.0110219938
0.0106703658
0.0106798192
0.0110031506
0.0110216954
0.0106705301
0.0106814534
0.0110040113
0.0110216823
0.0106670496
0.0106701212
0.0106740085
0.0106929331
0.0110043225
0.0110164681
0.0106701238
0.0106868172
0.0110077007
0.0110176552
0.0106568702
0.0106936635
0.0110238047
0.0106757337
0.0106709253
0.0110062659
0.0110245659
0.0106671044
0.0106711819
0.0110080388
0.011027232
0.0106626012
0.010670041
0.0110092222
0.0110296004
0.0106600009
0.0106693825
0.011010004
0.0110317919
0.0106587414
0.0106694007
0.0110105081
0.0110339547
0.0106583511
0.0106700081
0.0110108329
0.0110363005
0.0106583155
0.0106710085
0.0110110646
0.011038987
0.0106583472
0.0106722587
0.0110112388
0.0110420612
0.0106583932
0.0106737295
0.0110113581
0.0110454608
0.0106584599
0.0106754408
0.0110114132
0.011049029
0.0106585569
0.0106774049
0.0110113707
0.0110524981
0.0106587797
0.0106796661
0.0110111671
0.0110554566
0.0106593396
0.0106823853
0.0110107887
0.0110573987
0.0106602974
0.010685784
0.0110105526
0.0110578153
0.010661131
0.0106902594
0.0110134528
0.0110557405
0.010653487
0.010701687
0.0110582721
0.0106750095
0.0106840786
0.0110075178
0.0110539771
0.010668576
0.0106877614
0.0110076116
0.0110507243
0.0106671843
0.0106895401
0.0110068172
0.0110458274
0.0106670506
0.0106921659
0.0110077836
0.011034551
0.010657326
0.010663823
0.0106961749
0.011012088
0.0110255088
0.0106713356
0.0106889897
0.0110086968
0.0110225214
0.010660531
0.0106631613
0.0106922171
0.0110113501
0.0110149614
0.0106701524
0.0106806116
0.0110069621
0.0110163951
0.0106685616
0.0106812166
0.0110085356
0.0110158979
0.0106572095
0.0106585479
0.0106810129
0.0110153285
0.0110076316
0.0106675372
0.0106677584
0.0110108791
0.0110125868
0.0106655142
0.0106653307
0.0110112719
0.0110134637
0.0106627421
0.0106632525
0.0110119411
0.0110132285
0.0106608705
0.0106618821
0.0110119614
0.0110126727
0.0106601029
0.0106616781
0.0110116219
0.0110118226
0.010660178
0.0106625491
0.0110109862
0.0110108197
0.0106609965
0.0106640438
0.0110103538
0.0110095555
0.010661304
0.0106671766
0.0110123231
0.0110063494
0.010650143
0.0106809546
0.011012272
0.0106760145
0.010657134
0.0110080172
0.011010289
0.0106673047
0.0106610873
0.0110093469
0.0110111431
0.0106636266
0.0106615626
0.0110097035
0.011012338
0.0106612593
0.0106613796
0.0110099075
0.0110133448
0.0106599676
0.0106616097
0.0110099173
0.0110138147
0.0106595756
0.0106628006
0.0110097412
0.0110139773
0.0106600695
0.0106645471
0.011009589
0.011013577
0.0106600334
0.0106688
0.0110106456
0.0110117328
0.0106520471
0.0106803351
0.011012478
0.0106734219
0.0106583779
0.0110077446
0.0110148971
0.0106666387
0.0106630613
0.0110086339
0.0110160823
0.010663204
0.0106646114
0.011008614
0.0110168541
0.0106613617
0.0106657746
0.0110085062
0.0110170187
0.0106607526
0.0106673938
0.0110084033
0.0110164458
0.0106600709
0.0106715272
0.0110090667
0.0110145859
0.0106539322
0.0106806637
0.0110137333
0.0106708552
0.0106603948
0.0110077571
0.0110165945
0.0106659408
0.0106641099
0.0110080591
0.0110172824
0.010662303
0.0106652657
0.0110081032
0.0110176231
0.0106601583
0.0106656653
0.011007899
0.0110175254
0.0106592943
0.0106668392
0.0110071612
0.0110170479
0.0106602243
0.0106693986
0.0110057262
0.0110163915
0.0106626138
0.010672827
0.0110044584
0.0110140801
0.0106610865
0.0106647276
0.010671745
0.0110094133
0.0110089326
0.0106728235
0.0106746045
0.0110064675
0.0110085714
0.010669827
0.0106834095
0.0110116137
0.010674661
0.0106809135
0.0110103003
0.0106743242
0.0106687351
0.0110054081
0.011013104
0.010668325
0.0106680075
0.0110064322
0.0110147958
0.0106633903
0.0106662073
0.0110073297
0.0110159495
0.0106603315
0.0106645773
0.011007892
0.0110165111
0.0106591312
0.0106644202
0.0110079486
0.0110164794
0.0106597326
0.0106658536
0.0110072091
0.0110158485
0.0106624533
0.0106690548
0.0110058293
0.0110147859
0.0106662348
0.0106725177
0.0110048094
0.0110117404
0.0106673959
0.0106668515
0.010673455
0.0110067933
0.0110108486
0.0106700029
0.0106647424
0.0106729487
0.0110090409
0.0110116847
0.010670125
0.0106695475
0.0110072615
0.0110141724
0.010665507
0.0106670823
0.0110079457
0.0110157
0.0106615092
0.0106644151
0.0110088292
0.0110166478
0.0106592306
0.0106626128
0.0110094258
0.0110171199
0.0106581774
0.0106617679
0.0110097261
0.0110172077
0.0106578201
0.0106615331
0.0110097709
0.01101701
0.0106580345
0.0106617176
0.0110095346
0.0110165204
0.01065893
0.0106625384
0.0110089179
0.0110156409
0.0106610101
0.0106646371
0.0110077646
0.0110142548
0.0106645067
0.010668662
0.0110061264
0.0110124627
0.0106695286
0.0106736087
0.0110045432
0.0110092297
0.0106739142
0.0106704401
0.0106691616
0.0106710222
0.011006637
0.011012009
0.0106697193
0.0106712561
0.0110069375
0.01101277
0.0106651456
0.0106672767
0.0110083779
0.0110139804
0.0106615173
0.0106635226
0.0110096084
0.0110149722
0.0106596688
0.0106613885
0.011010525
0.0110156022
0.0106589786
0.0106604387
0.0110112059
0.0110160633
0.0106589303
0.0106601473
0.0110116492
0.0110164633
0.0106590872
0.0106602093
0.0110119381
0.0110170464
0.0106592661
0.010660603
0.0110121384
0.0110179082
0.010659203
0.0106610649
0.0110120109
0.0110193205
0.010659006
0.010661896
0.0110116061
0.0110212734
0.0106586523
0.0106636353
0.0110112569
0.0110248417
0.0106589421
0.0106665632
0.0110111068
0.0110295183
0.0106595689
0.0106706871
0.0110108594
0.0110351064
0.0106605382
0.0106760931
0.0110105708
0.0110412732
0.0106614267
0.010682829
0.0110114345
0.0110461096
0.0106590271
0.0106944472
0.0110468101
0.0106736294
0.0106744516
0.0110096232
0.011061669
0.0106669151
0.0106868963
0.0110113201
0.011066178
0.0106655279
0.0106898136
0.0110124668
0.0110698072
0.0106645613
0.0106917616
0.0110129003
0.0110711571
0.0106643413
0.0106939884
0.0110128207
0.0110695441
0.0106647797
0.0106963215
0.0110139338
0.0110640751
0.0106624233
0.0107023711
0.0110599597
0.0106754961
0.0106816718
0.0110087239
0.0110553319
0.0106689208
0.0106876988
0.0110086492
0.0110444549
0.0106672663
0.01068656
0.0110085603
0.0110320894
0.0106632428
0.0106863597
0.0110221855
0.0106742903
0.0106698573
0.0110060562
0.011011186
0.0106690445
0.0106702456
0.011009515
0.0110055576
0.0106607355
0.0106776179
0.011017364
0.0106822008
0.0106623574
0.0110295194
0.0110107057
0.0106809651
0.0106637986
0.0110415841
0.0110118353
0.0106825097
0.0106640655
0.0110511671
0.0110126576
0.0106843821
0.0106647591
0.0110580942
0.0110128803
0.0106868053
0.0106661775
0.0110627903
0.0110121327
0.0106887739
0.0106675335
0.0110667961
0.011010357
0.0106779334
0.0106754179
0.0110541
0.010705187
0.0106649076
0.0110590966
0.0110119876
0.0106933436
0.0106693798
0.0110580245
0.0110097907
0.0106893031
0.0106722679
0.0110530468
0.0110139015
0.0106820063
0.0106560996
0.010663014
0.0110348112
0.0110063733
0.0106861248
0.0106628432
0.0110456351
0.0110084162
0.0106811853
0.0106613803
0.0110418069
0.0110094696
0.0106760972
0.0106605422
0.0110376524
0.0110094704
0.0106730366
0.0106607808
0.0110333007
0.0110088004
0.0106718896
0.0106622744
0.0110292455
0.0110075219
0.0106711078
0.0106653885
0.0110265201
0.0110046676
0.0106613476
0.0106775005
0.0110152793
0.0106867958
0.0106616845
0.0110146144
0.0110071957
0.0106752436
0.0106701474
0.0110134629
0.0110103526
0.0106695775
0.0106591947
0.0106685556
0.0110147236
0.0110027553
0.0106729566
0.0106657018
0.0110131482
0.0110044659
0.0106714097
0.0106666343
0.0110111561
0.0110060752
0.0106678322
0.0106689625
0.0110087584
0.0110108266
0.010665412
0.0106573878
0.0106652138
0.0110131526
0.0110037969
0.010669563
0.0106632832
0.0110099759
0.0110054009
0.0106678686
0.0106632063
0.0110084539
0.011006621
0.0106653557
0.0106657507
0.0110075208
0.011008386
0.0106640689
0.0106682928
0.0110056846
0.0110130995
0.0106643008
0.0106557635
0.0106640782
0.0110126221
0.0110065791
0.0106682582
0.0106623402
0.0110095679
0.011008529
0.0106652589
0.0106603091
0.0110096128
0.0110099794
0.0106617455
0.0106593018
0.0110100462
0.0110112694
0.0106597622
0.0106587928
0.0110105836
0.0110121406
0.0106588673
0.0106586374
0.011010921
0.0110125729
0.0106584564
0.0106587763
0.0110110557
0.0110127882
0.0106583961
0.0106591526
0.011010995
0.0110128012
0.0106588554
0.0106600873
0.0110107467
0.011012513
0.0106597988
0.0106617979
0.0110103099
0.0110119585
0.0106610032
0.0106641946
0.0110096549
0.0110112875
0.0106612065
0.01066817
0.0110090801
0.0110101176
0.0106568941
0.010675043
0.011009537
0.010676361
0.0106562728
0.011007577
0.011009651
0.0106681068
0.0106608793
0.0110090582
0.0110094595
0.0106644042
0.0106619516
0.011009773
0.0110094229
0.0106629107
0.0106626775
0.0110101489
0.0110097509
0.0106629896
0.0106645192
0.0110096468
0.0110095527
0.0106635895
0.010666608
0.0110081979
0.011011468
0.0106645387
0.0106616769
0.0106601181
0.0110129657
0.0110053559
0.0106709458
0.0106625913
0.0110132299
0.0110058548
0.0106699414
0.010664111
0.0110134732
0.0110061555
0.0106666536
0.0106666558
0.0110135427
0.0110053604
0.0106600916
0.0106736363
0.0110098733
0.0106784077
0.0106577861
0.0110123253
0.0110064064
0.0106707976
0.010662478
0.0110128531
0.0110059351
0.0106684436
0.010665172
0.0110119019
0.0110049315
0.0106671074
0.0106692032
0.0110080458
0.0110018766
0.0106631402
0.0106830658
0.0110071987
0.0106852112
0.01066627
0.0110030811
0.0110074574
0.0106785364
0.0106649457
0.0106772386
0.0110068824
0.0110060117
0.0106729042
0.0106642942
0.0106730348
0.0110087601
0.01100499
0.0106700971
0.0106680725
0.0110066404
0.011008863
0.0106647905
0.0106651323
0.0110072474
0.0110119128
0.0106608007
0.0106633424
0.0110081589
0.0110139536
0.0106590973
0.0106631407
0.0110086542
0.0110151758
0.0106588577
0.0106642883
0.0110086341
0.0110157675
0.0106594096
0.0106667586
0.0110083373
0.0110157071
0.0106592948
0.0106708603
0.0110087472
0.0110137016
0.0106546958
0.0106817046
0.0110126608
0.0106739716
0.0106601275
0.0110054248
0.0110175863
0.0106674915
0.010669041
0.0110053734
0.0110174914
0.0106650243
0.0106733517
0.0110045106
0.0110176925
0.0106652742
0.0106761071
0.0110031096
0.011015344
0.0106668849
0.0106624464
0.0106744303
0.0110079481
0.0110155178
0.0106725218
0.0106790584
0.0110026417
0.0110144284
0.0106714129
0.0106641442
0.0106790625
0.011006917
0.0110188839
0.0106711507
0.010681389
0.0110023424
0.0110180007
0.0106679954
0.0106623395
0.0106748355
0.0110098591
0.0110242902
0.0106709587
0.010676633
0.011006557
0.0110291458
0.0106670866
0.0106782596
0.0110074574
0.0110324862
0.0106641511
0.0106810366
0.0110092775
0.011033843
0.010659028
0.0106900603
0.0110252855
0.010673329
0.010666809
0.0110079567
0.0110429794
0.0106658434
0.010676733
0.0110103457
0.011043958
0.010663661
0.0106765843
0.0110118827
0.0110450822
0.0106621874
0.010675795
0.0110126981
0.0110451578
0.0106614089
0.0106751422
0.0110130721
0.0110436396
0.0106611936
0.0106743263
0.0110130671
0.0110404186
0.0106613738
0.0106734025
0.0110128133
0.0110354137
0.0106619098
0.0106726244
0.0110122094
0.0110287333
0.0106628106
0.0106720649
0.0110108759
0.0110210791
0.0106636453
0.0106704611
0.0110071585
0.0110145117
0.0106686881
0.010662178
0.0106596948
0.011011094
0.0110051439
0.0106772372
0.0106672241
0.0110174305
0.0110034182
0.0106804749
0.0106706413
0.0110253684