/*--------------------------------*- C++ -*----------------------------------*\
| =========                 |                                                 |
| \\      /  F ield         | OpenFOAM: The Open Source CFD Toolbox           |
|  \\    /   O peration     | Version:  2306                                  |
|   \\  /    A nd           | Website:  www.openfoam.com                      |
|    \\/     M anipulation  |                                                 |
\*---------------------------------------------------------------------------*/
FoamFile
{
    version     2.0;
    format      ascii;
    arch        "LSB;label=32;scalar=64";
    class       volScalarField;
    location    "2e-05";
    object      prefDh_H;
}
// * * * * * * * * * * * * * * * * * * * * * * * * * * * * * * * * * * * * * //

dimensions      [1 1 -3 0 0 0 0];

internalField   nonuniform List<scalar> 
3816
(
23400.9029
23394.711
23393.1166
23393.1163
23393.1163
23393.1163
23393.1163
23393.1163
23393.1163
23393.1163
23393.1163
23393.1163
23393.1163
23393.1163
23393.1163
23393.1163
23393.1163
23393.1163
23393.1163
23393.1163
23393.1163
23393.1163
23393.1163
23393.1163
23393.1163
23393.1163
23393.1163
23393.1163
23393.1163
23393.1163
23393.1163
23393.1163
23393.1163
23393.1163
23393.1163
23393.1163
23393.1163
23393.1163
23393.1163
23393.1163
23393.1163
23393.1163
23393.1163
23393.1163
23393.1163
23393.1163
23393.1163
23393.1163
23393.1163
23393.1163
23393.1163
23393.1163
23393.1163
23393.1163
23393.1163
23393.1163
23393.1163
23393.1163
23393.1163
23393.1163
23393.1163
23393.1163
23393.1163
23393.1163
23393.1163
23393.1163
23393.1163
23393.1163
23393.1163
23393.1163
23393.1163
23393.1163
23393.1163
23393.1163
23393.1163
23393.1163
23393.1163
23393.1163
23393.1163
23393.1163
23393.1163
23393.1163
23393.1163
23393.1163
23393.1163
23393.1163
23393.1163
23393.1163
23393.1163
23393.1163
23393.1163
23393.1163
23393.1163
23393.1163
23393.1163
23393.1163
23393.1163
23393.1163
23393.1163
23393.1163
23393.1163
23393.1163
23393.1163
23393.1164
23393.1165
23393.1171
23393.1185
23393.1221
23393.1302
23393.1492
23393.1847
23393.2638
23393.4094
23393.5918
23393.7581
23394.8997
23396.6301
23393.7823
23389.0684
23406.8639
23424.7169
23375.4364
23379.8667
23399.7449
23973.1449
23870.794
22961.3656
22932.5598
23383.6533
23902.142
23953.3656
23934.7479
22921.0812
22839.148
23387.4531
23922.3978
23983.0124
23137.1827
23256.0255
23944.0358
23972.2127
23145.9486
23182.0417
23951.4983
23971.411
23135.5268
23153.2884
23950.0796
23973.5018
23109.9272
23165.493
23943.48
23988.3196
22952.8851
23384.3093
23969.8576
23317.784
23166.5502
23949.0153
23958.7714
23128.9797
23088.7027
23253.6176
23387.6734
23954.803
23957.1419
23176.8959
23061.6561
23372.3427
23942.9381
23948.0935
23186.4821
23256.9619
23952.6713
23911.3092
23149.094
23232.5731
23955.2556
23877.1673
23119.0311
23246.8085
23948.9463
23845.8902
23102.509
23274.3754
23937.1764
23819.4806
23050.8998
23302.8067
23921.887
23782.2013
22776.1606
23388.6453
23780.0838
23116.3067
23358.0878
23918.1699
23920.5852
23713.9889
22932.9986
23389.2632
23764.145
23267.8269
23435.103
23939.3507
23730.1126
23162.6955
23431.6096
23941.9303
23711.1257
23130.6632
23428.3089
23944.0555
23704.9483
23127.2982
23428.5812
23944.812
23706.178
23133.8138
23430.9824
23944.5869
23714.862
23129.0002
23420.717
23936.9511
23591.1014
23016.9254
23010.5678
23411.1438
23916.1254
23867.2479
23140.0045
23432.579
23926.8168
23646.1822
22986.2528
22980.7401
23410.0697
23919.5657
23867.8553
23127.3697
23445.1115
23939.271
23748.9594
23115.6761
23429.2826
23943.6438
23691.4437
23094.7336
23418.4912
23944.0278
23670.1101
23081.2309
23416.3591
23943.4239
23672.5927
23076.5201
23421.0065
23942.8004
23694.9023
23075.5939
23417.4962
23941.7969
23740.831
23072.5996
23352.862
23936.2369
23856.5808
23047.95
23346.3466
23915.0338
23698.281
22816.5221
23396.6569
23927.087
23314.6765
23192.198
23923.7672
23938.7713
23166.2793
23195.2452
23923.4657
23939.8822
23140.3957
23173.9345
23923.8453
23945.9374
23143.2279
23158.8932
23921.3597
23951.1509
23156.3531
23148.0512
23921.9349
23963.1455
23168.9531
23241.6265
23947.4867
23577.6603
23118.0144
22998.7892
23378.4172
23923.0281
23989.2508
23240.4895
23162.3677
23914.3395
23968.0082
23221.4649
23131.1476
23915.1788
23960.7861
23198.9755
23122.5604
23919.1613
23942.0189
23183.107
23088.3586
23932.0402
23903.0672
23128.5468
22852.831
23353.8861
23908.5921
23983.3978
23203.0931
23144.9313
23924.683
23969.9488
23173.5531
23101.0138
23935.5835
23960.5396
23131.922
23082.2661
23943.2454
23956.1987
23099.3992
23077.0457
23946.5778
23948.2887
23064.333
23106.019
23949.9858
23943.7883
22944.7001
23392.1412
23953.302
23339.6213
23113.8172
23956.4509
23919.0301
23128.854
23167.0981
23953.5046
23920.2101
22974.529
23389.7902
23945.1396
23310.8417
23151.2526
23963.5904
23904.673
23136.7481
23182.8683
23957.7644
23904.0413
23099.9646
23172.6343
23955.7452
23906.1711
23094.4357
23175.0865
23955.7203
23908.2502
23101.4422
23186.4466
23956.106
23907.9973
23112.727
23205.9627
23958.1699
23903.7766
23108.8055
23181.3173
23960.9329
23915.6567
23076.126
22934.9744
23391.0227
23930.9401
23936.3294
23152.389
23253.1021
23951.4058
23932.6012
23090.5776
22938.362
23395.2265
23937.4925
23943.4291
23136.4188
23226.8294
23947.6076
23935.2535
23112.4583
23163.1064
23952.2598
23929.2217
23078.9365
23136.562
23952.6544
23925.9465
23064.3765
23125.6682
23952.1119
23924.6958
23057.9196
23121.1233
23951.895
23924.2833
23056.5375
23121.7586
23952.1151
23924.0194
23060.0082
23127.122
23952.6495
23923.6433
23068.9748
23138.8809
23953.5686
23922.6313
23082.7184
23156.4214
23955.2396
23920.2528
23093.2161
23174.4933
23958.4529
23918.7139
23081.4209
23175.4669
23961.6392
23920.6985
23020.8439
22930.4417
23384.1493
23935.2244
23950.0556
23128.5765
23275.0015
23949.494
23939.4399
23153.155
23234.3453
23960.5806
23932.2611
23131.7981
23243.6355
23966.8476
23931.9257
23056.1148
23000.5458
23374.3065
23941.999
23949.9598
23145.5591
23297.0205
23951.4825
23938.8665
23137.7144
23137.908
23252.403
23385.912
23957.5557
23938.9983
23259.92
23348.5719
23964.8487
23928.1839
23196.7493
23290.6787
23967.5832
23920.8643
23144.885
23299.0081
23964.0358
23925.3115
23011.4581
23003.4884
23384.3388
23943.561
23913.4759
23063.2373
23060.2477
23389.3345
23943.2862
23911.9293
23109.4117
23364.8334
23941.7507
23902.9361
22980.6759
23386.4583
23886.1425
23251.115
23281.7241
23955.6349
23878.8876
23145.3332
23275.5863
23955.5544
23868.3794
23110.0262
23277.8455
23954.514
23860.8645
23105.977
23288.9116
23952.8964
23856.7504
23108.162
23297.4657
23951.3868
23857.4817
23087.9089
23313.4399
23945.4758
23859.5371
22912.6924
22897.9593
23397.1016
23920.1231
23893.2859
23092.8838
23354.7481
23940.0923
23885.1272
23101.8718
23281.1241
23946.9587
23886.0393
23083.4233
23243.719
23949.4833
23890.992
23072.3642
23222.1357
23949.6174
23898.976
23070.5523
23206.6297
23948.6891
23908.9615
23073.0933
23192.9107
23946.9847
23920.3636
23070.9634
23181.9432
23942.0876
23934.372
23044.7423
23203.9104
23928.5764
23959.7985
22854.9605
23403.6995
23958.1187
23265.6748
23176.3606
23924.2267
23973.4127
22951.3958
23395.3708
23957.2148
23280.3455
23156.7663
23942.5385
23955.5313
23150.2147
23136.8869
23947.0873
23954.104
23096.8941
23106.8277
23949.7249
23952.699
23070.7175
23088.0492
23951.3021
23949.3253
23059.9187
23080.9853
23950.4853
23944.5889
23058.0711
23081.4023
23949.0697
23939.5588
23060.9078
23086.1536
23947.4518
23934.8941
23064.427
23093.2258
23944.6141
23931.9171
23062.9611
23103.309
23938.9676
23933.0052
23034.3298
23149.2362
23939.6936
23933.5352
22888.0311
23396.4179
23947.0981
23234.3148
23132.9402
23945.6219
23919.8494
23127.8245
23154.8083
23947.5564
23912.9467
23088.5654
23147.5882
23948.8075
23908.0162
23070.4373
23146.0249
23948.2187
23905.3411
23064.9531
23150.4269
23946.5963
23904.7404
23064.7153
23156.6068
23943.4661
23906.635
23060.3329
23166.2431
23939.1141
23911.391
23031.4502
23208.2414
23935.8335
23916.8724
22897.2561
23402.0241
23927.2421
23195.5946
23181.7773
23941.6981
23915.6216
23125.6
23179.3541
23946.0973
23909.2865
23083.2036
23166.668
23947.1679
23906.7523
23063.425
23158.5734
23946.9634
23905.1578
23055.7005
23154.8212
23946.2992
23903.9053
23053.2568
23153.4816
23945.6173
23902.8136
23052.0858
23152.5771
23945.0799
23901.7907
23050.3062
23150.9838
23944.703
23900.7872
23047.8062
23149.0688
23944.4425
23899.7576
23045.5521
23147.9268
23944.2438
23898.6246
23044.5559
23148.5055
23944.0694
23897.2754
23045.1428
23151.0872
23943.909
23895.593
23046.7129
23155.0295
23943.7608
23893.4836
23048.5082
23159.8045
23943.6369
23890.8856
23049.815
23165.176
23943.5645
23887.7907
23050.4575
23171.0842
23943.5769
23884.2488
23050.7406
23177.707
23943.7263
23880.3689
23050.8866
23185.1334
23944.0839
23876.3276
23051.0261
23193.332
23944.7191
23872.3649
23051.3946
23202.3183
23945.6721
23868.764
23052.5508
23212.3626
23946.9202
23865.8155
23055.6231
23224.242
23948.3446
23863.7717
23062.4495
23239.4717
23949.7032
23862.8008
23075.5478
23260.1327
23950.6641
23862.9515
23095.918
23287.2784
23950.9515
23864.0854
23117.9832
23321.3701
23950.4705
23865.6091
23119.2999
23377.147
23948.3547
23869.9185
22980.9933
22968.9828
23396.1172
23920.7934
23896.3312
22998.6022
22993.4806
23399.733
23913.5575
23897.4394
22948.1274
23424.5587
23878.6069
23274.104
23309.4626
23949.7024
23887.6609
23160.5448
23304.7562
23948.2945
23895.5495
23085.0703
23305.6966
23933.1259
23913.6079
22859.2241
23390.3878
23918.7485
23250.8076
23248.6875
23956.022
23905.988
23158.9642
23270.4014
23959.213
23905.6929
23137.8744
23273.6762
23958.9827
23904.2317
23134.7818
23277.0595
23956.8825
23903.4467
23123.0578
23278.705
23951.0871
23900.4843
23033.0612
23026.8055
23273.9756
23402.1374
23944.7739
23920.0403
23174.5543
23373.3937
23938.4989
23918.9923
22920.8745
23399.9095
23913.6383
23264.2403
23262.1559
23933.6515
23922.956
22934.7314
23389.8286
23924.0695
23250.3442
23249.8542
23952.1941
23915.2908
23156.5325
23241.7648
23956.5852
23917.3019
23118.5636
23225.0973
23955.6966
23922.3266
23102.2274
23217.7691
23952.4933
23929.3335
23070.6539
23244.1007
23949.3839
23927.2131
22905.1344
22859.3496
23387.4826
23920.9329
23976.7239
23056.5814
23236.5614
23938.4111
23965.2396
23084.2009
23166.2538
23947.0712
23958.9224
23088.4255
23139.0823
23950.1151
23956.1057
23093.5748
23136.5425
23950.5843
23954.8411
23098.2835
23150.9674
23949.2528
23951.1448
23073.0016
23187.1839
23953.4575
23932.2434
22969.6862
22883.3557
23382.6341
23928.2311
23974.4152
23054.4875
23210.4015
23938.1262
23959.1252
23079.149
23148.6639
23947.6285
23945.5883
23078.5798
23131.9606
23950.5418
23936.8111
23078.6947
23137.4401
23948.6594
23932.4174
23076.8344
23155.5832
23944.1897
23932.9159
23043.8893
23192.8141
23945.5149
23933.037
22902.1726
23387.4256
23948.6589
23238.4573
23202.1902
23947.9398
23922.2412
23158.2626
23260.6243
23955.9973
23922.5127
23006.4431
22973.1176
23382.0934
23933.0583
23938.2114
23111.1223
23317.4737
23941.6324
23931.3831
23098.1937
23288.2818
23952.428
23929.2013
22964.039
22950.8578
23387.16
23937.8886
23939.0801
23070.6375
23278.6473
23945.0872
23933.8263
23089.176
23215.1683
23948.4325
23927.3148
23091.1183
23196.5648
23947.8866
23923.5346
23085.9115
23198.1325
23944.2739
23923.3315
23047.2027
23228.2667
23939.4191
23926.0463
22881.1813
23397.3516
23934.4458
23225.4273
23207.9193
23938.5388
23932.6407
22962.7399
23394.0999
23932.7473
23210.378
23207.0514
23948.0822
23923.1936
23139.0053
23191.9966
23952.165
23917.4612
23093.3014
23178.283
23953.9582
23914.4212
23072.8611
23171.7914
23954.0093
23912.3794
23068.7741
23175.7944
23952.6101
23910.7773
23074.8341
23189.1202
23949.8059
23909.8403
23079.4416
23208.9759
23945.6822
23910.1469
23051.4524
23255.4137
23939.233
23912.578
22890.073
23395.5268
23915.3515
23258.1809
23250.8291
23937.4443
23913.2746
22990.8571
23390.3656
23904.0829
23302.1277
23321.3694
23952.9356
23894.5563
23024.1789
23018.08
23387.5055
23932.9435
23907.793
23130.445
23373.7721
23945.4965
23893.9806
23137.9759
23332.7928
23949.878
23881.6987
23107.1354
23353.1151
23951.476
23870.0758
22949.6958
22938.3169
23392.6032
23926.7201
23886.2745
23074.237
23362.2983
23940.9304
23872.5679
23085.6729
23299.6292
23944.8183
23865.1203
23077.1477
23271.8521
23946.1957
23861.7581
23067.2095
23257.7613
23946.5625
23862.1965
23060.7686
23247.9703
23946.4721
23865.854
23057.6058
23238.9475
23946.1975
23871.9827
23056.9301
23229.9002
23945.685
23879.939
23058.7584
23221.6363
23944.5925
23889.247
23062.7526
23215.462
23942.3281
23899.625
23063.0472
23213.6992
23936.817
23912.1788
23033.7359
23236.0418
23922.3175
23938.2041
22826.5295
23402.8142
23942.0832
23221.5093
23163.256
23943.3914
23934.3889
23125.9316
23167.9157
23949.0288
23936.376
23088.3927
23150.9528
23951.5528
23937.8018
23072.0654
23139.7878
23953.3261
23938.2116
23071.8255
23141.2638
23954.083
23937.4016
23085.456
23157.2962
23953.67
23935.0561
23105.5663
23188.5324
23952.217
23929.7372
23098.8461
23242.9921
23955.7647
23916.1193
22979.6254
22908.6127
23378.4506
23924.164
23966.675
22881.9471
23376.3921
23937.4938
23233.12
23168.2252
23954.5415
23926.7967
23146.0244
23169.9092
23956.6715
23924.716
23098.0249
23156.6669
23957.5802
23923.1122
23076.1942
23149.8273
23957.7968
23921.6568
23071.865
23154.6962
23957.6415
23920.506
23081.1388
23171.7685
23956.959
23919.5368
23096.5443
23201.6783
23956.0943
23918.1384
23090.7301
23258.0613
23958.836
23919.0789
22974.785
22962.1445
23383.6723
23931.5037
23944.4493
23106.6396
23315.5134
23942.4913
23934.4735
23121.1761
23313.409
23953.4374
23920.8529
22993.892
22985.3405
23382.7428
23929.8482
23947.4708
23060.9017
23326.5407
23936.0497
23944.1032
22920.6772
23382.9048
23931.0527
23210.6913
23210.6611
23956.999
23927.8966
23159.3316
23216.9968
23958.8414
23923.6475
23138.5124
23225.1172
23958.1307
23921.0566
23140.5077
23237.1925
23955.2741
23918.4169
23131.2347
23235.4205
23952.038
23917.8835
23064.2455
23061.6842
23200.1289
23407.5534
23951.1218
23929.5748
23160.3587
23286.5158
23954.2813
23922.7192
23118.684
23218.3807
23954.3782
23916.6682
23088.6577
23184.3755
23953.1886
23912.162
23068.2082
23165.1019
23951.6131
23909.0302
23055.4048
23154.047
23950.0457
23906.7514
23047.9364
23148.1933
23948.6422
23904.9834
23044.759
23146.448
23947.4432
23903.523
23045.2983
23148.0955
23946.456
23902.2405
23048.0576
23151.6254
23945.6814
23901.0675
23050.9004
23155.0994
23945.0998
23899.9818
23052.2601
23157.1098
23944.6644
23898.9831
23051.6426
23157.2378
23944.3194
23898.0828
23049.4695
23155.9457
23944.0149
23897.3019
23047.0177
23154.3899
23943.7193
23896.6624
23045.9229
23153.9741
23943.4492
23896.1848
23047.0057
23155.38
23943.2875
23895.9008
23049.5212
23157.8948
23943.3575
23895.8637
23051.7633
23159.9843
23943.7715
23896.1426
23052.2855
23160.4682
23944.5753
23896.8048
23051.2729
23159.7126
23945.6991
23897.8777
23051.0354
23160.1422
23946.9182
23899.3237
23054.9102
23165.2863
23947.7921
23901.1115
23064.5951
23177.8454
23947.5008
23903.4981
23075.6642
23199.6354
23944.5063
23907.8388
23062.686
23242.4877
23936.6376
23917.3297
22908.7598
23407.2738
23928.2476
23194.9185
23181.7688
23944.3952
23917.9565
23138.7755
23206.9901
23947.6626
23913.9942
23117.0839
23219.192
23946.3166
23914.3351
23084.9676
23248.6886
23939.1025
23921.2751
22925.6169
23406.1143
23931.168
23193.8931
23180.8054
23945.6448
23920.1061
23137.7716
23202.4161
23948.257
23916.0171
23114.8353
23212.5201
23946.7723
23916.025
23083.5972
23242.0369
23939.7753
23922.8255
22930.7624
23404.3216
23932.8689
23185.1972
23167.3284
23945.4133
23922.8257
23124.8969
23178.2843
23949.5446
23919.1359
23095.8883
23169.6142
23952.3423
23918.2369
23079.5692
23161.4929
23954.7232
23918.834
23074.6095
23161.1972
23956.7003
23920.4652
23080.6228
23171.8299
23957.8416
23922.9085
23094.2753
23197.4152
23956.8773
23926.6841
23097.0095
23251.1706
23951.9142
23933.5527
22989.6831
23402.796
23949.1331
23262.0578
23237.1238
23948.7626
23942.9884
23088.9181
23400.1625
23949.9072
23182.9713
23390.2609
23951.2983
23260.8828
23252.4348
23963.2688
23945.0912
23202.7903
23247.0888
23966.1311
23941.447
23189.2827
23252.6774
23966.38
23938.4145
23189.7808
23263.6569
23964.926
23936.1988
23154.654
23154.2516
23209.6969
23384.3524
23961.0538
23943.0234
23175.9679
23319.9251
23958.1128
23938.2948
23046.4692
23387.7748
23949.9576
23213.2679
23180.3816
23950.7933
23937.2985
23138.1813
23169.9509
23951.6946
23928.7168
23098.4016
23151.0032
23951.6992
23921.3653
23074.5027
23138.5919
23950.8773
23914.871
23061.7882
23134.0133
23949.6552
23908.7532
23056.6079
23135.9217
23948.4318
23902.5883
23054.8405
23142.0792
23947.48
23896.1179
23054.1768
23150.8463
23946.8957
23889.2833
23054.222
23161.702
23946.7025
23882.2069
23055.0723
23174.6494
23946.9526
23875.1984
23056.8949
23189.7
23947.723
23868.7733
23060.6063
23207.2227
23949.0254
23863.6311
23067.9552
23228.7343
23950.6592
23860.5618
23078.6962
23256.5268
23951.533
23860.3481
23083.5224
23297.838
23942.8307
23869.8108
22971.9289
23404.4961
23881.813
23204.8329
23253.0705
23949.5019
23884.4135
23152.943
23279.0525
23954.5183
23889.2336
23147.5188
23289.0941
23959.3031
23897.7846
23150.8894
23314.6324
23960.6238
23913.7947
23060.1762
23045.0796
23392.49
23933.6034
23954.593
23164.3636
23314.6216
23950.52
23941.5565
23080.8229
23054.5988
23380.7885
23937.6136
23971.2686
23159.6838
23240.9808
23953.46
23956.899
23159.4644
23233.6661
23957.7567
23943.1653
23066.0868
23009.066
23288.9109
23927.3361
23982.4305
23121.8025
23148.3739
23942.1561
23964.5036
23118.7718
23111.513
23946.0686
23957.3918
23097.6401
23090.3975
23947.9173
23954.9235
23081.3438
23078.7366
23949.382
23953.5626
23074.5898
23078.2616
23950.7315
23952.558
23075.4012
23087.4967
23951.8556
23951.5118
23082.2664
23102.7911
23951.0158
23951.8156
23080.5363
23136.4039
23949.9431
23950.9026
22986.3446
23254.7769
23970.8225
23202.7099
23060.6389
23942.9365
23958.8962
23127.5824
23088.5144
23946.6442
23952.1323
23099.7279
23088.0995
23949.4623
23947.5205
23081.9565
23083.5581
23951.165
23944.4944
23072.4269
23084.0001
23952.1018
23942.3668
23070.0935
23093.6968
23952.6093
23940.4399
23074.7102
23109.1304
23951.8861
23939.4274
23074.19
23147.1524
23954.7638
23935.073
23010.5513
23247.1119
23965.8875
23176.9384
23076.4326
23941.9403
23948.561
23124.2384
23105.9476
23947.7264
23941.6458
23101.0692
23112.9942
23952.3328
23938.3389
23089.7272
23120.4441
23955.0246
23936.949
23086.8719
23133.8729
23956.3925
23936.3336
23083.252
23169.2951
23960.2739
23933.7826
23033.9245
23251.5626
23963.9492
23157.0381
23096.5905
23944.5489
23950.2852
23123.6063
23114.2926
23951.5374
23943.5805
23098.9384
23117.7078
23956.3009
23940.9643
23085.4969
23118.3151
23959.9084
23939.9513
23082.6777
23126.8876
23963.4228
23938.7538
23096.6018
23146.3456
23967.3647
23936.4685
23124.1892
23173.1883
23971.5648
23934.1392
23118.2057
23085.0311
23219.8167
23939.7495
23965.1722
23178.0998
23226.0283
23948.1112
23956.6279
23159.3461
23300.1347
23953.7664
23216.1209
23267.3084
23961.3452
23201.8367
23169.713
23952.7827
23955.1019
23154.4215
23153.2713
23957.1034
23949.2564
23114.9279
23131.8279
23959.498
23947.0255
23089.5012
23115.1925
23960.2629
23945.9265
23079.1099
23112.2662
23960.457
23944.833
23084.978
23123.2204
23961.1219
23943.5162
23111.1579
23149.632
23962.3137
23942.5836
23146.174
23180.4244
23961.4504
23943.0331
23155.4411
23119.0325
23211.0982
23949.5803
23948.749
23173.006
23095.8384
23209.7197
23942.9351
23954.6123
23157.5608
23164.714
23949.8539
23947.3812
23124.8049
23135.6886
23953.7271
23944.6321
23091.8269
23109.1684
23954.5111
23943.3804
23071.3812
23091.7739
23954.2583
23942.7503
23061.3657
23083.7212
23954.0261
23942.5208
23057.8496
23081.87
23954.095
23942.7676
23059.9648
23084.498
23954.4561
23943.4255
23068.6993
23093.4355
23955.2148
23944.3416
23088.7123
23113.7731
23956.4942
23944.9071
23122.1395
23150.428
23957.8656
23944.5361
23167.8486
23195.1711
23956.1121
23945.9668
23202.0637
23160.0283
23152.6074
23175.4323
23951.2173
23943.3815
23162.3844
23173.25
23954.4586
23942.2716
23123.5664
23138.0659
23955.1491
23942.1139
23089.8453
23104.3465
23953.9407
23941.1602
23070.3864
23084.1305
23952.0313
23939.6959
23060.8035
23074.1172
23950.0162
23937.9704
23057.3105
23069.9401
23948.2923
23936.2643
23056.3613
23069.1756
23947.0076
23934.3649
23056.619
23071.6832
23946.1491
23932.1413
23055.9356
23074.7523
23946.0286
23929.1751
23055.3574
23081.0597
23946.5517
23925.378
23053.4534
23094.4395
23947.5709
23919.2204
23057.5386
23116.783
23948.7281
23910.3356
23064.6597
23148.6176
23950.2912
23898.7833
23075.7273
23190.4932
23952.4916
23884.9015
23085.9742
23244.9835
23951.9326
23875.262
23046.3548
23382.5906
23894.2816
23176.1883
23182.1936
23945.1594
23856.2651
23130.1964
23267.6677
23949.3992
23844.7003
23116.6216
23291.5418
23949.8318
23840.11
23108.1845
23304.7301
23951.4212
23838.4394
23108.026
23320.3797
23953.8022
23841.1679
23112.9772
23340.3204
23949.502
23855.5228
23052.8848
23410.402
23878.2808
23203.8566
23227.1824
23953.8409
23876.1127
23155.9699
23275.0455
23957.7928
23892.0254
23145.1115
23274.4797
23958.3395
23912.1132
23098.963
23297.7061
23946.9736
23192.4777
23162.3787
23949.0826
23955.6949
23153.7424
23166.2843
23949.1839
23957.8147
23085.448
23223.5485
23960.1062
23262.854
23098.4106
23908.8888
23962.013
23234.5368
23108.7202
23890.9495
23958.7703
23241.5453
23106.0081
23876.6433
23955.7968
23253.331
23109.2517
23864.8392
23954.0501
23270.7394
23121.8191
23853.6627
23954.4923
23279.9022
23138.848
23846.9944
23953.9575
23206.216
23195.2197
23885.949
23404.7399
23088.7974
23858.5273
23952.0942
23335.9532
23155.0385
23859.2599
23952.936
23307.9373
23171.8949
23878.2443
23935.0075
23294.5466
22980.5883
23104.9154
23893.4113
23967.9065
23280.6524
23120.8342
23878.4792
23965.355
23236.9584
23096.9994
23890.4837
23959.5125
23198.0065
23085.5228
23900.8842
23957.954
23174.975
23087.5886
23909.6657
23957.9899
23166.4301
23102.806
23915.9951
23959.1963
23159.6414
23132.4445
23925.7538
23954.9746
23090.3127
23227.277
23962.1288
23320.2779
23097.6874
23939.1234
23955.6937
23215.5226
23160.6872
23952.3534
23941.7623
23188.298
23035.5765
23179.2775
23936.534
23970.6545
23178.151
23152.4846
23943.2241
23967.2965
23175.1953
23148.5929
23953.0413
23955.7434
23156.887
23149.4582
23965.6917
23941.2847
23154.8424
23020.8104
23152.9363
23939.8263
23970.359
23147.2374
23129.4751
23949.0524
23966.8639
23142.5286
23119.6162
23956.3529
23959.0771
23127.8824
23129.7773
23961.8787
23947.304
23126.5978
23133.6725
23969.6169
23934.1585
23141.2125
22998.0619
23138.0499
23936.7394
23963.1907
23128.5143
23112.9893
23944.8914
23959.0337
23111.8637
23087.8011
23949.0804
23954.2504
23084.3766
23072.0202
23950.5242
23950.175
23067.6868
23063.1486
23950.4498
23947.9328
23059.354
23059.2901
23950.2113
23946.745
23055.2126
23059.2014
23950.1155
23945.9637
23054.6096
23061.9023
23950.2753
23945.4733
23059.0309
23070.0465
23950.6989
23945.0808
23068.0931
23085.2713
23951.4964
23944.418
23080.6216
23105.4665
23954.0109
23942.0476
23088.5434
23135.7394
23960.7394
23936.3036
23062.133
23191.5668
23970.7139
23204.4083
23057.7313
23945.6462
23958.084
23137.2117
23089.355
23949.6781
23952.6206
23107.4002
23093.7457
23952.5136
23950.1209
23097.3082
23095.7568
23954.9757
23946.5454
23103.1211
23106.6385
23959.2048
23943.2398
23117.4807
23116.7442
23967.5733
23936.6171
23144.9516
23056.048
23105.3487
23936.3754
23969.4061
23154.5346
23120.0696
23941.5495
23965.0173
23154.8574
23126.4731
23946.8603
23960.2968
23138.3005
23142.5936
23954.6778
23954.6159
23098.8091
23194.1221
23974.2468
23240.4892
23081.0837
23941.9619
23970.2033
23174.9645
23118.1573
23947.2117
23967.0734
23162.0365
23139.3021
23951.6194
23965.8357
23157.0934
23172.8642
23962.9671
23964.5767
23130.1401
23293.6053
23975.0286
23314.7839
23149.9728
23953.1308
23961.1131
23263.105
23112.625
23247.6968
23953.3827
23958.0893
23208.9666
23100.3899
23216.5012
23946.8952
23970.1829
23163.4612
23163.2041
23954.1157
23962.7629
23125.1543
23127.6736
23958.6467
23956.7369
23091.8983
23106.0115
23958.6869
23952.1938
23075.4893
23100.0724
23957.8045
23948.5119
23072.3431
23107.0799
23957.6768
23945.2838
23078.0306
23126.4152
23959.0791
23942.4973
23079.6344
23162.7185
23961.9214
23941.8681
23042.1219
23265.2712
23969.5254
23190.8479
23088.8514
23951.2962
23948.9307
23150.9936
23151.5306
23962.2146
23940.4776
23139.4701
23185.1659
23968.9897
23936.6155
23150.008
23207.747
23971.4814
23936.6316
23163.8054
23071.7349
23234.4397
23949.5982
23949.5949
23197.0209
23249.0293
23964.7489
23940.9892
23196.4611
23093.8972
23269.6546
23955.4811
23938.7831
23193.4571
23260.6681
23970.774
23930.2542
23172.2654
23063.1679
23240.1996
23943.8612
23936.5244
23170.902
23223.4196
23956.9694
23920.1645
23146.1975
23227.2236
23960.6475
23910.0825
23120.7181
23244.8822
23960.3897
23903.9102
23066.01
23343.9365
23947.6084
23173.0053
23129.5769
23950.6769
23893.708
23124.8804
23194.0953
23952.5106
23888.3311
23100.1703
23193.5464
23950.9677
23887.2698
23084.3205
23185.3764
23950.9728
23886.9565
23076.5508
23179.2023
23951.7428
23889.4155
23074.8676
23173.8066
23953.1107
23894.9693
23077.6829
23170.0115
23955.0889
23903.2085
23084.6951
23169.35
23957.8904
23913.1484
23097.3011
23170.0889
23963.2492
23922.7604
23116.9509
23154.1555
23975.7262
23931.9211
23180.5987
23058.767
23100.9347
23943.1581
23968.3307
23205.6409
23164.1712
23941.8416
23967.1286
23231.7354
23189.9825
23931.0778
23961.9821
23246.8383
23235.9371
23924.3871
23348.5704
23212.0743
23921.3751
23402.4949
23122.6425
23900.0797
23955.7475
23328.288
23168.8705
23883.7986
23960.8099
23313.7596
23163.8568
23877.0191
23956.9603
23303.2158
23166.9704
23885.3888
23941.5206
23335.3412
23027.2044
23034.9117
23895.4444
23966.3751
23333.7666
23143.0567
23866.5724
23965.4
23311.1347
23155.1197
23873.2831
23958.4351
23288.7044
23171.7905
23891.4913
23944.1706
23288.3787
23062.4008
23109.3685
23910.9875
23966.9898
23281.6476
23165.182
23899.8296
23960.3427
23244.0929
23171.746
23919.9697
23943.183
23210.7821
23055.8289
23125.4552
23922.1285
23970.1817
23192.6926
23124.9168
23918.8512
23965.5452
23169.2261
23110.929
23928.986
23958.8283
23145.7138
23116.5987
23937.2371
23953.6315
23121.6568
23128.9806
23946.838
23946.5635
23063.012
23185.0529
23970.1037
23206.8318
23061.0474
23935.6761
23963.0946
23143.5173
23083.178
23940.6513
23957.6974
23108.4648
23076.4322
23944.837
23954.3224
23083.8302
23065.9281
23947.8338
23952.2269
23066.7795
23060.3241
23950.223
23950.9288
23060.2221
23063.3638
23952.2344
23948.838
23061.2234
23073.9391
23953.2456
23946.0856
23071.025
23092.1471
23955.0574
23942.1456
23085.9591
23117.8261
23959.1759
23935.272
23099.5904
23129.7778
23965.2749
23928.9375
23104.4246
23041.8682
23127.0289
23932.5004
23955.7076
23117.7576
23120.7483
23940.7054
23948.0044
23112.0677
23108.4842
23945.1777
23942.0751
23090.9857
23097.0211
23947.0718
23937.1936
23074.6197
23090.6076
23947.6506
23932.9743
23064.5241
23089.3406
23947.5557
23928.8983
23057.7025
23090.2057
23947.1961
23924.794
23052.0442
23091.7614
23947.0316
23920.6415
23046.754
23094.3613
23947.1689
23916.5138
23043.9816
23100.313
23947.5624
23912.4695
23046.9129
23113.5145
23948.2522
23908.6037
23057.4676
23136.374
23949.6535
23904.5661
23072.9618
23167.351
23952.8184
23899.5257
23084.3963
23206.624
23956.8583
23896.8825
23055.7602
23281.0015
23926.6139
23176.416
23147.0366
23942.5626
23914.808
23130.0765
23167.4628
23948.6489
23910.6615
23106.0421
23167.7316
23951.6802
23911.3215
23090.6585
23165.5383
23954.2322
23913.6408
23085.8087
23166.3725
23956.6359
23915.6878
23091.3687
23170.8858
23959.7773
23917.8278
23099.6848
23171.3455
23962.4199
23923.6919
23058.7778
23028.8122
23185.0274
23931.8232
23957.973
23091.415
23134.3012
23939.8039
23954.3719
23096.7226
23102.6008
23944.1749
23954.6026
23082.4926
23078.0704
23945.6607
23952.084
23079.2124
23068.9591
23941.7762
23949.9718
23078.471
23065.1667
23937.0342
23948.6118
23079.102
23062.4194
23932.5641
23947.5328
23080.2257
23059.4615
23929
23946.7742
23081.0738
23057.1488
23926.4366
23946.5553
23081.553
23056.7135
23925.0616
23946.7326
23084.8864
23059.667
23925.1168
23947.2463
23089.8006
23067.967
23926.5253
23948.022
23096.5496
23081.5411
23929.0229
23949.0036
23105.4111
23101.1992
23932.1854
23950.3268
23106.6167
23130.5972
23946.4004
23949.1555
23047.2492
23237.4367
23965.933
23210.4227
23085.7187
23930.7573
23964.766
23168.666
23124.8582
23938.059
23960.3912
23134.8216
23155.4199
23952.7689
23954.4909
23055.4526
23251.0249
23972.197
23202.3265
23079.717
23941.3432
23967.6446
23148.0039
23099.7405
23947.1483
23962.7192
23128.9578
23108.4039
23951.4882
23960.6983
23123.4839
23119.052
23952.6313
23960.8194
23118.5981
23158.7837
23959.6141
23955.4655
23071.7396
23269.2164
23976.3239
23221.9257
23135.6154
23950.9916
23962.3072
23107.4558
23258.4416
23972.1655
23212.1287
23097.1778
23947.9455
23967.0602
23147.3846
23105.0351
23951.5064
23962.0348
23115.7931
23100.7628
23954.617
23959.7851
23102.6853
23099.2404
23955.3191
23959.3674
23104.5026
23109.531
23957.3184
23959.3746
23110.6016
23154.4584
23960.6778
23954.6634
23087.7465
23248.0705
23973.3
23202.3496
23135.2294
23950.4892
23960.2242
23123.9755
23236.2839
23971.5312
23195.8611
23104.3996
23945.6649
23965.6615
23143.2478
23109.2784
23951.9775
23959.2475
23110.1226
23102.9704
23956.4925
23954.8782
23090.1537
23103.6172
23958.7706
23951.8184
23083.6376
23118.3789
23960.9679
23949.1205
23080.8147
23151.2543
23964.7665
23946.2756
23051.5512
23234.2857
23974.7523
23179.6426
23083.9641
23948.8295
23959.6906
23150.4618
23140.8465
23957.1634
23952.8382
23128.7116
23181.502
23962.0259
23951.3674
23073.3083
23276.6431
23971.4407
23214.7793
23097.8833
23956.6769
23952.8564
23166.6934
23167.902
23968.4012
23941.3226
23153.6234
23186.208
23971.1789
23934.9325
23145.3573
23015.4668
23167.7827
23939.3566
23961.3125
23133.8325
23142.7297
23952.6262
23950.3592
23116.4867
23133.1754
23958.8857
23945.9063