/*--------------------------------*- C++ -*----------------------------------*\
| =========                 |                                                 |
| \\      /  F ield         | OpenFOAM: The Open Source CFD Toolbox           |
|  \\    /   O peration     | Version:  2306                                  |
|   \\  /    A nd           | Website:  www.openfoam.com                      |
|    \\/     M anipulation  |                                                 |
\*---------------------------------------------------------------------------*/
FoamFile
{
    version     2.0;
    format      ascii;
    arch        "LSB;label=32;scalar=64";
    class       volScalarField;
    location    "2e-05";
    object      Z;
}
// * * * * * * * * * * * * * * * * * * * * * * * * * * * * * * * * * * * * * //

dimensions      [0 0 0 0 0 0 0];

internalField   nonuniform List<scalar> 
3816
(
0.0144643369
0.0144623441
0.014461707
0.0144617069
0.0144617069
0.0144617069
0.0144617069
0.0144617069
0.0144617069
0.0144617069
0.0144617069
0.0144617069
0.0144617069
0.0144617069
0.0144617069
0.0144617069
0.0144617069
0.0144617069
0.0144617069
0.0144617069
0.0144617069
0.0144617069
0.0144617069
0.0144617069
0.0144617069
0.0144617069
0.0144617069
0.0144617069
0.0144617069
0.0144617069
0.0144617069
0.0144617069
0.0144617069
0.0144617069
0.0144617069
0.0144617069
0.0144617069
0.0144617069
0.0144617069
0.0144617069
0.0144617069
0.0144617069
0.0144617069
0.0144617069
0.0144617069
0.0144617069
0.0144617069
0.0144617069
0.0144617069
0.0144617069
0.0144617069
0.0144617069
0.0144617069
0.0144617069
0.0144617069
0.0144617069
0.0144617069
0.0144617069
0.0144617069
0.0144617069
0.0144617069
0.0144617069
0.0144617069
0.0144617069
0.0144617069
0.0144617069
0.0144617069
0.0144617069
0.0144617069
0.0144617069
0.0144617069
0.0144617069
0.0144617069
0.0144617069
0.0144617069
0.0144617069
0.0144617069
0.0144617069
0.0144617069
0.0144617069
0.0144617069
0.0144617069
0.0144617069
0.0144617069
0.0144617069
0.0144617069
0.0144617069
0.0144617069
0.0144617069
0.0144617069
0.0144617069
0.0144617069
0.0144617069
0.0144617069
0.0144617069
0.0144617069
0.0144617069
0.0144617069
0.0144617069
0.0144617069
0.0144617069
0.0144617069
0.0144617069
0.0144617069
0.014461707
0.0144617072
0.0144617077
0.0144617092
0.0144617122
0.0144617198
0.0144617355
0.0144617607
0.014461792
0.0144619731
0.014462349
0.0144615245
0.014459564
0.0144673825
0.0144805806
0.0144465095
0.0144195915
0.0145483724
0.0146845248
0.0145149015
0.0140674188
0.0141319968
0.01484933
0.0148727676
0.0145350414
0.0140965562
0.0140731238
0.0141055901
0.0148661917
0.0149017443
0.0145738998
0.0140874279
0.0140726572
0.0147946435
0.0147518448
0.0140792721
0.014077112
0.0147871925
0.0147781343
0.0140772046
0.0140768923
0.0147898044
0.0147871943
0.0140781586
0.0140748533
0.0148005296
0.0147798481
0.0140827281
0.0140660404
0.0148544114
0.0145366361
0.0140781282
0.0147271181
0.014781811
0.0140764702
0.0140770306
0.0147939992
0.0148094698
0.0147513991
0.0145924429
0.0140724902
0.014073888
0.0147738999
0.0148198758
0.0145953138
0.0140784393
0.0140814174
0.0147763045
0.0147425185
0.0140751756
0.0141014779
0.014786628
0.0147550607
0.0140757097
0.0141187617
0.0147973884
0.0147533966
0.0140781811
0.0141349017
0.0148050389
0.0147473218
0.0140826641
0.0141495612
0.014825403
0.0147394817
0.014091185
0.0141698657
0.0149230461
0.0146358423
0.0141753101
0.0148007045
0.0147141197
0.0140939615
0.0140887734
0.014207759
0.0148727304
0.0145741577
0.0141793862
0.0147481132
0.014696946
0.0140806061
0.0141971805
0.0147848153
0.0146846541
0.0140821319
0.0142069774
0.0147952583
0.0146807418
0.0140820817
0.0142103159
0.0147961484
0.0146775676
0.0140817544
0.0142095305
0.0147939596
0.0146745837
0.014081655
0.0142051276
0.0147960967
0.0146524424
0.0140862298
0.0142727595
0.0148357026
0.0148458045
0.0145138158
0.014090039
0.0141390095
0.0147974147
0.0146585859
0.0140887562
0.0142403047
0.0148482575
0.0148561326
0.0145285459
0.0140894806
0.0141394473
0.0148002938
0.0146900826
0.0140830617
0.0141896678
0.0148014259
0.0146857266
0.0140824972
0.0142177112
0.0148081103
0.0146789202
0.0140828621
0.0142286724
0.0148128995
0.0146785934
0.014083065
0.0142271177
0.0148148586
0.0146855195
0.0140828962
0.014215146
0.0148155973
0.014701544
0.0140826222
0.0141918633
0.0148172773
0.0147305307
0.0140840735
0.0141411361
0.0148278441
0.0147308209
0.0140939141
0.0142121093
0.0149090104
0.0145154074
0.0141045889
0.014727727
0.0147879813
0.0140879383
0.0140949522
0.0147813615
0.0147856842
0.0140904131
0.01409366
0.0147903871
0.0147915421
0.0140910598
0.0140889549
0.014789891
0.0147941343
0.014092988
0.0140849114
0.0147858556
0.0147936739
0.014093858
0.0140778151
0.0147804043
0.0147626129
0.014083514
0.0142796334
0.0147939508
0.0148474516
0.0146658335
0.0140907948
0.0140624891
0.0147599289
0.014778214
0.0140981637
0.0140726086
0.0147672929
0.0147927466
0.0140990373
0.0140750095
0.0147747631
0.0147969492
0.0140977699
0.0140797837
0.0147779188
0.0148201883
0.0140914528
0.0141101135
0.0147886668
0.0149026654
0.0147067837
0.0140961322
0.0140622044
0.0147744519
0.0147823396
0.0140918509
0.0140706418
0.0147827146
0.0148012219
0.0140874632
0.0140741563
0.0147965948
0.0148091253
0.014083088
0.0140758377
0.0148082731
0.0148110104
0.0140805074
0.0140802812
0.0148202952
0.0147989915
0.0140815687
0.0140795502
0.0148592756
0.0146664288
0.0140842199
0.0147209804
0.0147989502
0.0140727177
0.0140952459
0.014795523
0.01477917
0.0140787844
0.0140923295
0.0148487654
0.0146618696
0.0140878297
0.0147298102
0.0147864171
0.0140697742
0.0141024534
0.0147900038
0.0147777652
0.0140749146
0.0141038266
0.0148037151
0.014781975
0.0140759157
0.0141036609
0.0148056553
0.0147817893
0.0140757346
0.014102796
0.0148030497
0.0147787356
0.01407515
0.0141021111
0.0147987379
0.0147737751
0.0140741772
0.0141027179
0.0147988743
0.0147826061
0.0140731782
0.0140961656
0.0148101713
0.0148689502
0.0146693034
0.0140838771
0.0140872963
0.0147886893
0.0147520901
0.0140752281
0.0140892016
0.0148063271
0.0148655465
0.0146942306
0.0140824699
0.0140848725
0.0147941257
0.0147605977
0.0140764659
0.0140909382
0.0148000266
0.0147850415
0.0140758615
0.0140936244
0.0148109292
0.0147957069
0.0140763414
0.0140947369
0.0148159628
0.014800228
0.0140767339
0.0140950851
0.0148182495
0.0148021001
0.014076873
0.0140952076
0.0148187009
0.0148019574
0.0140767615
0.0140953152
0.0148173977
0.0148000692
0.0140764193
0.0140954199
0.0148141349
0.0147959762
0.0140758296
0.0140956101
0.0148091024
0.0147901295
0.0140749979
0.0140961608
0.0148048781
0.0147842549
0.0140741106
0.0140969352
0.014808009
0.0147833451
0.0140740411
0.0140934849
0.0148281061
0.0148692168
0.01468074
0.0140833827
0.0140825006
0.0147971126
0.0147404406
0.0140754863
0.0140891514
0.0147846841
0.0147573921
0.0140720508
0.014092522
0.0147896584
0.0147550596
0.0140714104
0.0140890101
0.0148148671
0.014842911
0.01463466
0.0140800426
0.0140834739
0.014790085
0.0147311765
0.0140750733
0.0140909466
0.0147903914
0.0147907168
0.0147507427
0.0146426945
0.0140696962
0.0140873133
0.0147458779
0.0147158171
0.0140684858
0.0140946592
0.0147663025
0.0147382969
0.0140694046
0.0140992592
0.0147844661
0.0147353711
0.0140727619
0.0140933229
0.0148328423
0.0148417371
0.0146142116
0.0140806277
0.0141002168
0.0148169134
0.0148229468
0.0146374944
0.0140795301
0.0141041177
0.0148027476
0.0147118595
0.0140810301
0.0141096306
0.0148507551
0.0145879743
0.0141203552
0.0147503608
0.0147479592
0.0140728746
0.0141232581
0.014786994
0.0147520237
0.0140748985
0.0141285072
0.014799313
0.0147535771
0.0140758783
0.0141318933
0.0148011204
0.0147515754
0.0140764626
0.0141337337
0.01480077
0.0147496343
0.0140772618
0.0141340951
0.0148085827
0.0147441981
0.0140812772
0.0141303763
0.0148701988
0.0148859005
0.0146251016
0.0140892705
0.014119014
0.0148117681
0.0147250971
0.0140809269
0.0141233118
0.0148055184
0.0147536894
0.0140787913
0.0141230616
0.014810628
0.0147681509
0.0140782792
0.0141200863
0.0148141283
0.0147763117
0.0140782381
0.0141153562
0.0148148909
0.0147816588
0.0140783211
0.0141096219
0.0148143492
0.014785699
0.0140786534
0.0141033665
0.0148157812
0.0147879531
0.0140803488
0.0140960133
0.0148270887
0.0147766706
0.0140871759
0.0140828292
0.014893244
0.0146354944
0.0140874341
0.0147522469
0.0147815958
0.014084901
0.014074479
0.0148599987
0.0146399804
0.0140840085
0.0147426293
0.0147891216
0.014076933
0.0140805811
0.0147867922
0.0147957401
0.0140779626
0.0140802432
0.014804876
0.0148056391
0.014077677
0.0140800127
0.014813957
0.014811697
0.0140771608
0.014080799
0.0148178857
0.0148136905
0.0140774995
0.014082459
0.0148188614
0.0148132189
0.0140779963
0.01408446
0.0148182973
0.0148113334
0.0140783994
0.014086507
0.0148176416
0.014808493
0.0140791775
0.0140882206
0.0148192003
0.0148039124
0.0140811295
0.0140883198
0.0148303388
0.0147857622
0.0140825974
0.0140847831
0.014879402
0.0146730925
0.014086441
0.0147595119
0.014792864
0.0140751723
0.01409516
0.0147958138
0.0147872379
0.0140769496
0.01409885
0.0148086544
0.0147910275
0.0140772751
0.0141015855
0.0148146881
0.0147924957
0.0140776718
0.0141032961
0.0148167733
0.0147916251
0.0140782154
0.0141041094
0.0148174296
0.0147897228
0.0140792362
0.0141039561
0.0148199802
0.0147858834
0.0140810753
0.0141024073
0.0148310285
0.0147700602
0.0140843205
0.0140974803
0.0148775214
0.0146572732
0.0140971127
0.0147740718
0.0147793736
0.0140768887
0.0141015624
0.014796795
0.0147832426
0.0140774126
0.0141039764
0.0148107464
0.0147888233
0.0140779617
0.0141051798
0.0148174427
0.0147923043
0.0140783971
0.014105888
0.0148202089
0.0147940562
0.0140787249
0.0141063688
0.0148212174
0.0147948169
0.0140789707
0.0141067604
0.0148217698
0.0147953015
0.014079168
0.0141071535
0.014822488
0.0147959239
0.0140793375
0.014107585
0.0148234156
0.0147965889
0.0140794802
0.0141080559
0.0148242373
0.014796957
0.0140795859
0.0141085771
0.0148246205
0.0147967387
0.014079649
0.0141091924
0.0148244605
0.0147958641
0.014079679
0.0141099791
0.0148239611
0.0147945677
0.014079696
0.0141110171
0.0148233788
0.0147930368
0.0140797185
0.0141123655
0.0148229521
0.014791352
0.014079753
0.0141140486
0.0148227334
0.0147895276
0.0140797889
0.0141160535
0.0148226086
0.014787492
0.0140798052
0.0141183345
0.0148224872
0.0147851968
0.0140797782
0.014120813
0.0148223078
0.0147826296
0.0140796831
0.0141233728
0.0148219775
0.0147797626
0.0140794965
0.0141258584
0.0148213046
0.0147764885
0.0140791988
0.0141280792
0.0148199224
0.0147725406
0.0140787782
0.0141298196
0.0148172481
0.0147674168
0.0140782357
0.0141308552
0.0148124923
0.0147604344
0.014077608
0.0141310228
0.0148053906
0.0147512486
0.0140770346
0.014130347
0.0147979163
0.0147396884
0.0140769571
0.0141290742
0.0147979261
0.0147203267
0.0140794279
0.0141256273
0.0148467244
0.0148611076
0.0145755855
0.0140887263
0.0141152187
0.0148440924
0.0148519712
0.0145836901
0.0140914329
0.0141184244
0.014865657
0.0144470809
0.0141258413
0.0147457148
0.0147448801
0.0140745227
0.0141213112
0.0147836961
0.0147449053
0.0140775738
0.0141185234
0.0148117798
0.0147419003
0.0140859304
0.0141118852
0.0148931151
0.0145792255
0.0141096492
0.0147530802
0.0147618484
0.0140724747
0.0141125578
0.0147820068
0.0147545645
0.0140732274
0.0141116335
0.0147891696
0.0147532427
0.0140735742
0.0141113951
0.0147905116
0.0147517991
0.0140743561
0.0141113502
0.0147955526
0.0147503227
0.0140774425
0.0141123939
0.0148282806
0.0148376842
0.0147452545
0.0145943134
0.0140749285
0.014100899
0.0147813113
0.0147113662
0.0140822872
0.0141045595
0.0148701744
0.0145126109
0.0141087965
0.014751057
0.0147523894
0.0140818554
0.0141039908
0.014866269
0.0145657275
0.0141027472
0.0147535824
0.0147588769
0.0140732193
0.0141056619
0.0147835751
0.0147634084
0.0140739312
0.0141039671
0.0147964646
0.0147697902
0.0140748677
0.0141008249
0.0148026825
0.0147724096
0.0140763843
0.0140962857
0.0148147335
0.0147629292
0.0140803431
0.0140938214
0.0148708601
0.0148952342
0.0146460184
0.0140895262
0.0140725474
0.0148248789
0.014757041
0.0140812757
0.0140784457
0.0148114523
0.0147840422
0.0140781454
0.0140802925
0.0148083283
0.0147942612
0.0140769981
0.0140801293
0.0148062015
0.0147951337
0.0140765018
0.0140791232
0.0148049821
0.0147897177
0.0140769609
0.0140788081
0.0148141639
0.0147781109
0.014078151
0.0140858834
0.0148465686
0.0148854155
0.0146780974
0.0140865838
0.0140673518
0.0148256254
0.0147594433
0.0140811154
0.0140771771
0.0148135613
0.0147842761
0.0140777509
0.0140836333
0.0148119759
0.0147917882
0.0140767515
0.0140877469
0.0148117342
0.0147905697
0.0140772833
0.0140900182
0.0148133237
0.0147838315
0.0140791712
0.0140903737
0.0148254364
0.0147693342
0.0140807671
0.0140873783
0.0148728041
0.0146219447
0.0140854743
0.0147574558
0.0147681121
0.014073688
0.0140947141
0.0147840084
0.0147502417
0.0140751663
0.014091689
0.0148342923
0.0148537262
0.0146459822
0.0140830343
0.0140864493
0.014804453
0.0147254673
0.0140791308
0.0140917538
0.0148063095
0.0147382955
0.0140777944
0.0140902794
0.0148496439
0.0148604062
0.0146688076
0.0140830046
0.0140881297
0.0148171433
0.0147400817
0.0140788114
0.0140933133
0.0148090669
0.0147649339
0.01407727
0.0140966005
0.0148078071
0.0147733453
0.0140773999
0.0140980017
0.0148101936
0.0147735012
0.014079107
0.0140978489
0.0148246835
0.0147624779
0.0140834367
0.0140939597
0.0148823499
0.0146327833
0.0140967895
0.0147635299
0.0147682911
0.0140800973
0.0140921302
0.0148552312
0.0146335674
0.0140946261
0.0147675402
0.0147703828
0.0140748071
0.0140983635
0.0147907092
0.0147772896
0.0140753462
0.0141010358
0.0148057345
0.0147828215
0.014075778
0.0141027047
0.01481254
0.0147853907
0.0140761139
0.0141038001
0.0148141197
0.0147841552
0.014076513
0.0141044924
0.0148125958
0.0147794937
0.0140772228
0.0141048512
0.0148119523
0.0147721343
0.0140788503
0.0141047315
0.0148229828
0.01475456
0.0140834705
0.014102007
0.0148802443
0.0146152107
0.0141068
0.0147518299
0.0147548546
0.0140797468
0.014103115
0.0148469854
0.0145740275
0.0141094788
0.0147337166
0.0147330972
0.0140741209
0.0141086197
0.0148297414
0.014840701
0.014618616
0.0140829549
0.0141061544
0.0147968667
0.0147108782
0.0140777539
0.0141143402
0.0147919658
0.0147284998
0.014076733
0.0141203319
0.0148018159
0.014723993
0.014078861
0.0141239439
0.0148558252
0.0148700789
0.01463644
0.0140870753
0.0141202063
0.014817205
0.014719188
0.0140811184
0.014127936
0.0148110883
0.014744775
0.0140797961
0.0141320917
0.0148132692
0.0147569047
0.0140796045
0.0141337793
0.0148164428
0.0147635148
0.0140796913
0.01413348
0.0148186463
0.0147680014
0.0140797972
0.0141315698
0.0148198221
0.0147717026
0.0140798492
0.0141283848
0.0148201972
0.0147749789
0.0140798755
0.0141241822
0.0148198128
0.0147775795
0.0140799888
0.0141191717
0.014818898
0.014779009
0.0140804645
0.0141135697
0.0148197181
0.0147782907
0.0140823723
0.0141070544
0.014832165
0.0147671793
0.0140896538
0.0140946972
0.0149046053
0.0146388286
0.014095108
0.0147661923
0.0147907956
0.0140764302
0.014094703
0.0147963303
0.0147893684
0.0140766757
0.0140926201
0.0148084244
0.0147942887
0.0140766067
0.0140911952
0.0148134564
0.0147971825
0.0140762437
0.0140901279
0.0148131939
0.0147957875
0.0140757716
0.0140893693
0.0148084512
0.0147896155
0.0140753679
0.0140889647
0.0148018068
0.0147785898
0.0140755814
0.0140892187
0.01480444
0.0147609559
0.0140767206
0.0140924985
0.0148428638
0.0148793242
0.0146711195
0.0140877063
0.0140720152
0.0148845871
0.0145850364
0.0140884777
0.0147566364
0.0147830777
0.0140720141
0.014092579
0.0147868695
0.0147825458
0.0140736568
0.0140940853
0.0148030773
0.0147870518
0.0140743936
0.0140955575
0.0148104789
0.0147895586
0.0140747017
0.0140966494
0.0148119536
0.0147881576
0.0140746832
0.0140972247
0.0148088649
0.0147825989
0.0140745489
0.0140973159
0.0148038351
0.014772658
0.0140747105
0.01409703
0.0148059503
0.0147532583
0.0140757593
0.0140931289
0.0148448371
0.0148586926
0.0146674381
0.0140844089
0.0140851823
0.0148062363
0.0147265969
0.0140785855
0.0140906254
0.0147981221
0.014730874
0.0140768443
0.0140930576
0.0148387945
0.0148505675
0.0146601532
0.0140852352
0.0140852807
0.0148230466
0.014720407
0.0140842997
0.0140872643
0.0148695366
0.0146261436
0.0140961137
0.0147642422
0.0147676684
0.0140718515
0.0140966909
0.0147816249
0.0147666126
0.0140724381
0.0140978626
0.0147887053
0.0147647111
0.0140729306
0.0140982797
0.0147885706
0.0147613151
0.01407387
0.0140988898
0.0147926696
0.0147624677
0.0140759991
0.0140998438
0.0148167538
0.0148229157
0.014770934
0.0146754563
0.0140742209
0.0140915511
0.0147830555
0.0147425917
0.0140742904
0.0140972619
0.0147968135
0.0147681281
0.0140751329
0.0141007786
0.0148072254
0.0147812537
0.0140761296
0.0141030589
0.0148145669
0.0147888093
0.0140770229
0.014104572
0.0148193295
0.0147932309
0.0140777455
0.0141056359
0.0148222411
0.0147956921
0.0140782946
0.0141064184
0.0148236403
0.0147966446
0.0140786783
0.0141070045
0.0148237215
0.0147963793
0.0140789226
0.0141074677
0.0148229951
0.0147954344
0.0140790775
0.014107884
0.0148221904
0.0147944773
0.0140791981
0.0141083089
0.0148218488
0.0147939885
0.014079324
0.0141087624
0.0148221508
0.0147941107
0.0140794707
0.01410923
0.0148229659
0.0147946871
0.0140796285
0.0141096673
0.0148238699
0.0147953266
0.0140797657
0.0141100139
0.0148243092
0.0147955556
0.0140798443
0.0141102241
0.0148239937
0.0147951393
0.0140798414
0.0141102923
0.0148231514
0.0147943035
0.0140797564
0.0141102486
0.0148223319
0.0147935425
0.0140796003
0.0141101256
0.014822006
0.0147932315
0.014079376
0.0141099186
0.014822112
0.0147932366
0.0140790676
0.0141095666
0.0148218984
0.0147927472
0.0140786622
0.0141089742
0.0148203076
0.014790582
0.0140782215
0.0141080496
0.0148169128
0.0147857844
0.0140780296
0.014106672
0.0148135341
0.0147774587
0.0140789752
0.0141043911
0.0148194626
0.0147605091
0.0140836433
0.0140991328
0.0148744558
0.0146862377
0.0140999472
0.0147739718
0.0147795749
0.0140761908
0.0141015333
0.0147918269
0.0147724226
0.0140763835
0.0141021947
0.0147990844
0.0147686081
0.0140775664
0.0141015354
0.0148113023
0.0147570786
0.0140823789
0.0140973926
0.0148682581
0.0146901449
0.0140984641
0.0147738554
0.0147793655
0.0140758144
0.0141004214
0.014791942
0.014773562
0.0140762208
0.0141011247
0.0147997246
0.0147706068
0.0140774416
0.0141004816
0.014811622
0.0147593149
0.0140820832
0.0140962679
0.0148662499
0.0146972687
0.0140973478
0.0147768668
0.014783788
0.0140761405
0.0140990573
0.0147962614
0.0147816366
0.0140762171
0.0141000058
0.0148054065
0.0147851943
0.0140760214
0.0141003143
0.0148103525
0.0147880707
0.0140756046
0.0140999742
0.014811497
0.0147879543
0.0140749968
0.0140989868
0.0148090229
0.0147838553
0.0140743818
0.0140973321
0.0148042888
0.0147742922
0.0140744565
0.0140946673
0.0148042527
0.0147539975
0.0140774685
0.0140894909
0.0148431652
0.0146884905
0.0140893763
0.0147485729
0.0147552678
0.014074698
0.0140858919
0.014809408
0.0146961577
0.0140862249
0.014775701
0.0146977696
0.0140848651
0.0147455828
0.0147491556
0.0140685888
0.014086495
0.0147646455
0.0147522601
0.014068774
0.0140873592
0.0147689867
0.0147511746
0.0140688528
0.0140877194
0.0147690024
0.0147481052
0.0140697606
0.0140881321
0.0147819418
0.0147872792
0.0147642763
0.0147022077
0.0140707017
0.0140830345
0.0147757466
0.0147268613
0.0140737561
0.0140847982
0.0148221464
0.0147016928
0.0140870577
0.0147653518
0.0147747479
0.0140740442
0.0140900107
0.014790773
0.0147807465
0.0140751955
0.0140935811
0.0148043069
0.0147888549
0.0140760723
0.014096709
0.0148125846
0.0147942737
0.0140768041
0.0140995495
0.014817172
0.0147966845
0.0140774047
0.0141023007
0.014819227
0.01479667
0.0140778732
0.0141051961
0.014820077
0.0147950849
0.0140782224
0.0141083985
0.0148204648
0.0147925511
0.0140784604
0.0141119517
0.0148205122
0.0147892921
0.0140785847
0.0141157854
0.0148201797
0.0147853387
0.0140785786
0.0141197238
0.0148193963
0.0147807057
0.014078403
0.0141234717
0.0148178376
0.0147752732
0.0140780093
0.0141265962
0.0148149284
0.0147685131
0.0140774249
0.0141285818
0.0148108829
0.0147595867
0.0140770877
0.0141289142
0.014809697
0.0147452913
0.0140808566
0.0141255052
0.014854427
0.0146832097
0.0141247677
0.0147686356
0.0147584761
0.014075216
0.0141212729
0.0147854096
0.0147509851
0.0140743546
0.0141180328
0.0147859679
0.0147487249
0.0140728808
0.0141128849
0.0147839521
0.0147396196
0.0140733546
0.014101732
0.014815807
0.0148331985
0.0146876178
0.0140815926
0.0140874107
0.0147839603
0.0147338455
0.0140759022
0.0140877208
0.0148101497
0.0148274992
0.0147028333
0.0140802876
0.014076676
0.0147844653
0.0147589217
0.0140740679
0.0140803795
0.0147819214
0.0147638948
0.0140744408
0.01408259
0.0148125644
0.0148433607
0.0147333188
0.0140851786
0.0140692677
0.0148000324
0.0147864699
0.0140790833
0.0140761827
0.014798362
0.0148018468
0.0140786397
0.014078142
0.0148049272
0.0148094791
0.0140787877
0.0140784282
0.014810414
0.0148133365
0.0140785288
0.0140782729
0.014812699
0.0148132634
0.0140780265
0.014077834
0.0148123978
0.0148098715
0.0140773478
0.0140772889
0.014810135
0.0148043229
0.014077037
0.0140762975
0.0148115101
0.0147918269
0.0140786906
0.0140740861
0.0148425637
0.0147520572
0.0140747907
0.0147714937
0.0148152687
0.0140768131
0.0140755267
0.0147966541
0.0148070402
0.0140771071
0.0140774121
0.0148052486
0.0148080077
0.0140768453
0.0140791547
0.0148107076
0.0148100692
0.0140766791
0.0140804641
0.0148136029
0.0148102021
0.014076512
0.0140812104
0.0148141945
0.0148070647
0.0140762873
0.0140816934
0.0148125848
0.014801833
0.0140763092
0.0140815898
0.0148127967
0.0147888384
0.0140765556
0.0140810513
0.0148331595
0.0147551214
0.014075848
0.0147807957
0.0148090289
0.0140767968
0.0140808416
0.0147973233
0.0148011096
0.014076376
0.014083012
0.0148038806
0.0147999233
0.0140755038
0.0140842034
0.0148068452
0.0147979091
0.0140749245
0.0140845877
0.0148073628
0.0147935102
0.014074595
0.0140842847
0.0148081637
0.0147816724
0.0140743691
0.0140834025
0.0148240822
0.0147532877
0.0140771257
0.014787024
0.0148017142
0.0140763178
0.0140817611
0.0147965252
0.0147984361
0.0140752397
0.0140835252
0.0148035513
0.0147985168
0.0140743894
0.0140842688
0.0148071348
0.0147988438
0.014073572
0.0140843891
0.0148072298
0.0147962644
0.0140723785
0.0140842667
0.0148014328
0.0147902457
0.0140705916
0.0140842192
0.0147907623
0.0147817837
0.014068884
0.0140829621
0.0147914118
0.0148145161
0.0147547231
0.0140784491
0.0140733688
0.0147791792
0.0147564337
0.0140746929
0.014074676
0.0147841022
0.0147315264
0.0140774551
0.0147619359
0.0147451266
0.0140750827
0.0147690637
0.0147767341
0.0140730358
0.0140783035
0.014784207
0.0147842872
0.0140730001
0.0140806369
0.0147969355
0.0147926458
0.0140732254
0.0140819011
0.0148053233
0.0147987204
0.0140735015
0.0140825189
0.0148088291
0.0147999957
0.0140735077
0.0140827016
0.014806728
0.0147965857
0.0140728369
0.0140824877
0.0147973936
0.0147879524
0.0140715929
0.0140818837
0.0147850968
0.0147774294
0.014070992
0.0140795554
0.0147821052
0.0148003731
0.0147625457
0.0140746623
0.0140778255
0.0147771275
0.0148090126
0.014762405
0.0140775743
0.0140773501
0.0147855414
0.0147807839
0.0140749599
0.0140805308
0.0147951928
0.0147920484
0.0140747492
0.0140821685
0.0148059883
0.014801602
0.014075259
0.0140830988
0.0148129921
0.0148077631
0.0140757477
0.0140835631
0.0148165163
0.0148105941
0.0140760129
0.0140836707
0.0148177719
0.0148111809
0.0140760333
0.0140834794
0.0148170158
0.0148101143
0.0140757915
0.014082997
0.0148139072
0.0148067855
0.0140751943
0.0140821799
0.0148068148
0.0147995582
0.0140741025
0.014081056
0.0147949625
0.0147868829
0.0140726321
0.0140798062
0.0147790804
0.0147714108
0.0140717753
0.0140771468
0.0147682342
0.0147847615
0.0147865596
0.0147775601
0.0140742418
0.0140796883
0.0147823113
0.0147791182
0.0140738647
0.0140804586
0.0147952544
0.0147911167
0.0140748064
0.01408138
0.0148070306
0.0148026842
0.0140759418
0.0140822891
0.0148141887
0.0148097874
0.0140769745
0.0140830285
0.0148180431
0.0148134664
0.0140778529
0.0140836936
0.0148197563
0.0148151614
0.0140785022
0.0140843107
0.014820481
0.0148156498
0.0140789558
0.0140850993
0.0148206228
0.0148149726
0.0140792644
0.0140861544
0.0148208749
0.0148141132
0.0140791929
0.0140877547
0.014820869
0.0148121648
0.0140787961
0.0140899092
0.0148213004
0.0148079966
0.0140783475
0.0140936935
0.0148196578
0.0148010794
0.0140780202
0.014098808
0.0148169764
0.0147911611
0.0140775457
0.0141051033
0.0148127922
0.0147781053
0.0140769226
0.0141122827
0.014808894
0.0147606338
0.0140776643
0.0141176638
0.014825474
0.0147061887
0.0141142792
0.0147815376
0.0147797405
0.0140775896
0.0141324245
0.0147946571
0.0147555725
0.0140780524
0.0141379639
0.0147995054
0.0147478922
0.0140788172
0.0141414148
0.0148023474
0.0147442486
0.0140788396
0.0141426884
0.0148020783
0.0147397833
0.0140783372
0.0141410091
0.0148002027
0.0147331926
0.0140799582
0.014134228
0.0148272622
0.014685379
0.0141266541
0.014769995
0.0147681223
0.0140753053
0.0141239172
0.0147843801
0.0147530256
0.0140745182
0.0141130838
0.0147873805
0.0147513274
0.0140743514
0.0141003043
0.0148050361
0.0147383295
0.0140864512
0.0147740136
0.0147825454
0.0140742056
0.0140767814
0.0147857655
0.0147811223
0.0140767576
0.014072218
0.0148080752
0.0147630888
0.0140804892
0.0147498833
0.0148039133
0.0140990936
0.0140752584
0.0147629954
0.0148008468
0.0141112779
0.0140766896
0.0147619189
0.0148026871
0.0141209183
0.0140778461
0.014758864
0.0148021087
0.0141281661
0.0140783348
0.0147537686
0.0147978413
0.014133743
0.0140777024
0.0147523078
0.0147911266
0.0141378949
0.0140764922
0.0147728889
0.0147744668
0.0141210437
0.0146758719
0.0148128741
0.01413018
0.014078042
0.0147301317
0.0147856372
0.014129287
0.0140762632
0.0147380858
0.0147815343
0.0141218952
0.0140826656
0.0147320238
0.0148538282
0.0148015727
0.0141059671
0.0140709731
0.0147472185
0.0147929228
0.0141166701
0.0140729534
0.0147620805
0.0148030858
0.0141115294
0.0140748076
0.0147741364
0.0148077303
0.0141064973
0.0140750962
0.0147811897
0.014807035
0.0141016532
0.0140745938
0.0147837902
0.0148014863
0.0140975018
0.0140734236
0.0147860716
0.0147909752
0.0140936404
0.014072078
0.0148065186
0.0147608719
0.0140785932
0.0147266238
0.0148032141
0.014082411
0.0140738281
0.0147632808
0.0147839263
0.0140790793
0.0140787674
0.0147681483
0.0148311497
0.0147712659
0.0140829815
0.01406778
0.0147793755
0.0147808235
0.0140805581
0.0140696666
0.0147783417
0.0147844775
0.0140772525
0.0140729855
0.0147820683
0.0147878917
0.0140731447
0.0140792082
0.014779062
0.0148358774
0.0147797508
0.0140812017
0.0140686106
0.0147900471
0.0147890619
0.0140771235
0.0140704413
0.01478974
0.0147941642
0.0140746398
0.0140727766
0.014793328
0.0147929772
0.0140729289
0.0140762707
0.0147918916
0.014795075
0.0140701499
0.014082235
0.0147844986
0.0148448164
0.014785816
0.0140813935
0.0140719891
0.0147977046
0.0147962442
0.0140775988
0.0140742001
0.0148015499
0.0148061743
0.0140768493
0.0140761586
0.0148102208
0.0148127733
0.0140769011
0.0140778702
0.014815722
0.0148165526
0.0140773123
0.0140789319
0.0148186144
0.0148182932
0.0140776061
0.0140794731
0.0148201026
0.0148185525
0.0140777235
0.0140797783
0.0148203185
0.014817748
0.0140776489
0.0140798798
0.0148187614
0.0148150137
0.0140773865
0.0140797411
0.01481557
0.0148098412
0.0140769151
0.0140794564
0.0148109952
0.0148031744
0.0140759631
0.0140794058
0.0148072141
0.0147937963
0.0140742932
0.0140796214
0.0148141204
0.0147757728
0.0140727998
0.0147711791
0.0148154288
0.0140759787
0.0140752056
0.0147929229
0.0148062726
0.0140763269
0.0140760767
0.0148025042
0.0148056939
0.0140763286
0.0140765147
0.0148053675
0.0148058023
0.0140761493
0.014077425
0.0148024696
0.0148030832
0.0140749953
0.014077897
0.0147959174
0.014801171
0.0140723856
0.0140805632
0.014782896
0.0148245601
0.0147966455
0.0140817161
0.0140699441
0.0147884874
0.0147929126
0.0140809337
0.0140711164
0.0147866633
0.014792027
0.0140801145
0.0140722061
0.0147899679
0.0147877008
0.0140787047
0.0140726612
0.0148000566
0.01477202
0.0140724029
0.0147553046
0.0148056536
0.0140801888
0.0140705786
0.0147774293
0.0147937391
0.0140795921
0.0140708
0.0147803504
0.014786979
0.0140780674
0.01407028
0.0147807345
0.0147758407
0.0140731178
0.014068229
0.014788469
0.0147345273
0.0140702875
0.0147267124
0.0147831293
0.0140712318
0.0140730227
0.0147431116
0.0148006525
0.0147492637
0.014074023
0.0140725055
0.0147627367
0.0148059628
0.0147588552
0.0140766248
0.0140695306
0.0147823725
0.0147790976
0.0140737072
0.01407376
0.0147938394
0.014793072
0.0140733213
0.0140771236
0.014804822
0.0148015279
0.0140739899
0.0140794696
0.0148106563
0.0148042978
0.0140745198
0.0140810551
0.0148119102
0.0148024856
0.0140745285
0.0140820953
0.0148098301
0.0147963807
0.0140740497
0.0140825761
0.0148088153
0.0147840389
0.0140738292
0.0140812211
0.0148210414
0.0147476739
0.0140753136
0.0147743408
0.0148053368
0.0140733236
0.0140827397
0.0147846349
0.0147869284
0.0140712719
0.0140842646
0.0147866428
0.0147763162
0.0140693912
0.0140851444
0.014781428
0.0147689613
0.0140678944
0.0140834193
0.0147767497
0.014817784
0.0147514954
0.0140755179
0.0140811027
0.0147685431
0.0147518063
0.0140687701
0.0140819217
0.0147669186
0.0148090745
0.0147404416
0.0140736603
0.0140856031
0.0147680901
0.0147496226
0.0140674499
0.0140865827
0.0147740918
0.014821965
0.0147490456
0.0140780077
0.0140899594
0.0147798662
0.0147614389
0.0140731177
0.0140966162
0.0147865063
0.0147622265
0.0140731084
0.0141009883
0.0147951299
0.0147575629
0.0140745037
0.01410318
0.0148154457
0.0147195505
0.0140885685
0.0147827153
0.014794809
0.0140753237
0.0141117057
0.0147957001
0.0147772765
0.0140767528
0.0141134822
0.0148050739
0.014777317
0.0140781748
0.0141144884
0.0148109417
0.014780303
0.0140787745
0.0141146051
0.0148137237
0.0147824636
0.0140789059
0.0141130383
0.0148142538
0.0147839456
0.0140786472
0.0141096436
0.0148130877
0.0147844114
0.0140780923
0.0141044409
0.0148103141
0.0147834709
0.0140771279
0.0140976905
0.0148052121
0.0147821504
0.0140751559
0.0140902724
0.0147962869
0.0147878899
0.0140701312
0.0140837019
0.0147707797
0.0148239422
0.0147982886
0.0140790541
0.0140699825
0.0147720142
0.0147771331
0.014083962
0.0140689161
0.0147636472
0.0147690863
0.0140917825