/*--------------------------------*- C++ -*----------------------------------*\
| =========                 |                                                 |
| \\      /  F ield         | OpenFOAM: The Open Source CFD Toolbox           |
|  \\    /   O peration     | Version:  2306                                  |
|   \\  /    A nd           | Website:  www.openfoam.com                      |
|    \\/     M anipulation  |                                                 |
\*---------------------------------------------------------------------------*/
FoamFile
{
    version     2.0;
    format      ascii;
    arch        "LSB;label=32;scalar=64";
    class       volScalarField;
    location    "0.00184";
    object      prefDZ_T;
}
// * * * * * * * * * * * * * * * * * * * * * * * * * * * * * * * * * * * * * //

dimensions      [1 -1 -1 -1 0 0 0];

internalField   nonuniform List<scalar> 
531
(
-1.18788609e-09
-1.18771838e-09
-1.22874328e-09
-1.22681471e-09
-1.1967731e-09
-1.18782308e-09
-1.18757132e-09
-1.22894033e-09
-1.22685455e-09
-1.19553136e-09
-1.18751168e-09
-1.18737653e-09
-1.22892766e-09
-1.22714185e-09
-1.19421311e-09
-1.18711135e-09
-1.18674115e-09
-1.22904055e-09
-1.22660688e-09
-1.1905364e-09
-1.1887298e-09
-1.22958565e-09
-1.22633083e-09
-1.19049869e-09
-1.18906492e-09
-1.22917674e-09
-1.22701421e-09
-1.19411945e-09
-1.18709348e-09
-1.18731013e-09
-1.22916591e-09
-1.2261204e-09
-1.2266027e-09
-1.19310212e-09
-1.18715956e-09
-1.1875302e-09
-1.18422676e-09
-1.1839349e-09
-1.23209632e-09
-1.22818458e-09
-1.22897953e-09
-1.22775175e-09
-1.22706719e-09
-1.22727923e-09
-1.20356253e-09
-1.18686841e-09
-1.18668554e-09
-1.22968129e-09
-1.22777184e-09
-1.1915704e-09
-1.18496627e-09
-1.1859604e-09
-1.22976136e-09
-1.22645241e-09
-1.22741144e-09
-1.19082559e-09
-1.18820926e-09
-1.22906387e-09
-1.22634013e-09
-1.19054732e-09
-1.18963751e-09
-1.22873824e-09
-1.22603046e-09
-1.20156033e-09
-1.18981197e-09
-1.18959365e-09
-1.18854953e-09
-1.18810653e-09
-1.18636088e-09
-1.1860476e-09
-1.23034983e-09
-1.22705283e-09
-1.22765225e-09
-1.2265492e-09
-1.19407879e-09
-1.18956281e-09
-1.22832881e-09
-1.2264662e-09
-1.19785163e-09
-1.18830827e-09
-1.18801477e-09
-1.22856479e-09
-1.22689474e-09
-1.19470584e-09
-1.18735108e-09
-1.18713089e-09
-1.22865092e-09
-1.22737759e-09
-1.19405238e-09
-1.18602451e-09
-1.18693875e-09
-1.22910914e-09
-1.2262159e-09
-1.22714487e-09
-1.19303521e-09
-1.18891573e-09
-1.22836019e-09
-1.22642193e-09
-1.1937588e-09
-1.18907443e-09
-1.18788774e-09
-1.18770788e-09
-1.22931606e-09
-1.22677816e-09
-1.19012428e-09
-1.18858679e-09
-1.22875795e-09
-1.2270609e-09
-1.19287908e-09
-1.18764252e-09
-1.18732819e-09
-1.22859242e-09
-1.22734683e-09
-1.19367933e-09
-1.18706361e-09
-1.1868038e-09
-1.22876526e-09
-1.22776818e-09
-1.19218004e-09
-1.18547596e-09
-1.18559005e-09
-1.22935528e-09
-1.22758874e-09
-1.22725284e-09
-1.22726158e-09
-1.19864903e-09
-1.18715364e-09
-1.18685705e-09
-1.22856548e-09
-1.22685006e-09
-1.19065217e-09
-1.18850554e-09
-1.22850752e-09
-1.22700249e-09
-1.19319271e-09
-1.18754958e-09
-1.18723195e-09
-1.22849633e-09
-1.22717466e-09
-1.19423411e-09
-1.18729781e-09
-1.18715321e-09
-1.22840879e-09
-1.22743279e-09
-1.19479093e-09
-1.18668001e-09
-1.18704431e-09
-1.22878428e-09
-1.22609002e-09
-1.22672236e-09
-1.19402245e-09
-1.18774848e-09
-1.18727095e-09
-1.22876058e-09
-1.22660482e-09
-1.19109933e-09
-1.18894586e-09
-1.22854398e-09
-1.22670008e-09
-1.19507328e-09
-1.18806726e-09
-1.18789555e-09
-1.22840225e-09
-1.22701683e-09
-1.19690482e-09
-1.18801599e-09
-1.18763219e-09
-1.2286294e-09
-1.22643402e-09
-1.19190846e-09
-1.18968286e-09
-1.22857441e-09
-1.22617489e-09
-1.19505763e-09
-1.18964635e-09
-1.18818991e-09
-1.18802629e-09
-1.22953062e-09
-1.22762375e-09
-1.19126866e-09
-1.18561463e-09
-1.18580075e-09
-1.22969454e-09
-1.22716873e-09
-1.22750255e-09
-1.18960766e-09
-1.1888942e-09
-1.23062352e-09
-1.1905416e-09
-1.18517946e-09
-1.23122915e-09
-1.22785707e-09
-1.22869542e-09
-1.227229e-09
-1.19006965e-09
-1.18904065e-09
-1.23034914e-09
-1.19074152e-09
-1.18691044e-09
-1.23060042e-09
-1.22667618e-09
-1.22780069e-09
-1.19175109e-09
-1.18617075e-09
-1.18587199e-09
-1.22974128e-09
-1.22828099e-09
-1.19235869e-09
-1.18521947e-09
-1.18582105e-09
-1.23000517e-09
-1.2271731e-09
-1.22758986e-09
-1.19040197e-09
-1.18958862e-09
-1.23030886e-09
-1.19148712e-09
-1.18732683e-09
-1.23058491e-09
-1.22669225e-09
-1.22776477e-09
-1.19238273e-09
-1.18673006e-09
-1.18641695e-09
-1.22978087e-09
-1.2282206e-09
-1.19220772e-09
-1.18591581e-09
-1.1856943e-09
-1.23021407e-09
-1.22902165e-09
-1.19074884e-09
-1.18272762e-09
-1.18298842e-09
-1.23207757e-09
-1.2284879e-09
-1.23016055e-09
-1.22771506e-09
-1.2285205e-09
-1.22670786e-09
-1.22693983e-09
-1.19213209e-09
-1.18772736e-09
-1.1856498e-09
-1.18550839e-09
-1.23147333e-09
-1.22772512e-09
-1.18784545e-09
-1.18735835e-09
-1.23211076e-09
-1.22638246e-09
-1.22893065e-09
-1.19801817e-09
-1.18531515e-09
-1.18748723e-09
-1.23020466e-09
-1.1914278e-09
-1.18618775e-09
-1.2302601e-09
-1.22751907e-09
-1.18904573e-09
-1.18858306e-09
-1.23114247e-09
-1.22615183e-09
-1.22819216e-09
-1.19660154e-09
-1.18669096e-09
-1.18697708e-09
-1.22939824e-09
-1.22640048e-09
-1.22702798e-09
-1.19398717e-09
-1.18784061e-09
-1.1879095e-09
-1.18464258e-09
-1.18429675e-09
-1.23164772e-09
-1.22768213e-09
-1.22917796e-09
-1.22677399e-09
-1.22700702e-09
-1.19091002e-09
-1.18871401e-09
-1.22885611e-09
-1.22687369e-09
-1.19268094e-09
-1.18880643e-09
-1.18728853e-09
-1.18716291e-09
-1.22992343e-09
-1.22726597e-09
-1.18989385e-09
-1.18820288e-09
-1.22911248e-09
-1.22758103e-09
-1.19238785e-09
-1.18703746e-09
-1.18663771e-09
-1.22911068e-09
-1.2272815e-09
-1.19059439e-09
-1.18809859e-09
-1.22892251e-09
-1.22769675e-09
-1.19195938e-09
-1.18622426e-09
-1.18586472e-09
-1.22933132e-09
-1.22731322e-09
-1.18905686e-09
-1.18786237e-09
-1.2303438e-09
-1.22669186e-09
-1.22790616e-09
-1.18980439e-09
-1.18826415e-09
-1.23013374e-09
-1.22606405e-09
-1.22801161e-09
-1.1917487e-09
-1.18605645e-09
-1.1855559e-09
-1.22931667e-09
-1.22725574e-09
-1.19007083e-09
-1.18775165e-09
-1.22970765e-09
-1.22680089e-09
-1.19032515e-09
-1.18851509e-09
-1.22915238e-09
-1.22679714e-09
-1.19254205e-09
-1.18872097e-09
-1.18707404e-09
-1.18673158e-09
-1.23020041e-09
-1.22737532e-09
-1.18931171e-09
-1.18752597e-09
-1.23041307e-09
-1.22714836e-09
-1.18915378e-09
-1.18781735e-09
-1.23108829e-09
-1.22709766e-09
-1.22848196e-09
-1.22690254e-09
-1.19815948e-09
-1.18931118e-09
-1.18774651e-09
-1.18761016e-09
-1.22959302e-09
-1.22809407e-09
-1.19094632e-09
-1.18542561e-09
-1.18502221e-09
-1.23007297e-09
-1.22774809e-09
-1.18931772e-09
-1.18684781e-09
-1.2308909e-09
-1.22727286e-09
-1.18854982e-09
-1.18748872e-09
-1.23127085e-09
-1.22670126e-09
-1.22806779e-09
-1.19055923e-09
-1.18767329e-09
-1.22987822e-09
-1.22728947e-09
-1.19028962e-09
-1.18800051e-09
-1.22948434e-09
-1.22777619e-09
-1.19283043e-09
-1.18667906e-09
-1.18621791e-09
-1.22956017e-09
-1.22736119e-09
-1.19100999e-09
-1.18816174e-09
-1.22958955e-09
-1.22759467e-09
-1.19373277e-09
-1.18701176e-09
-1.18661836e-09
-1.22956124e-09
-1.22733425e-09
-1.1911017e-09
-1.18825915e-09
-1.22967776e-09
-1.2277005e-09
-1.19360032e-09
-1.18677975e-09
-1.18621433e-09
-1.23004416e-09
-1.22717055e-09
-1.19088437e-09
-1.1880796e-09
-1.23072807e-09
-1.2267469e-09
-1.19070624e-09
-1.18843322e-09
-1.23063023e-09
-1.22682393e-09
-1.19083631e-09
-1.18838365e-09
-1.23011434e-09
-1.22761699e-09
-1.1937784e-09
-1.18661125e-09
-1.18602731e-09
-1.23050574e-09
-1.2271705e-09
-1.19075466e-09
-1.18785144e-09
-1.23130861e-09
-1.22668185e-09
-1.1901117e-09
-1.18846127e-09
-1.23156117e-09
-1.22615858e-09
-1.22730933e-09
-1.1915621e-09
-1.188554e-09
-1.2303105e-09
-1.22736163e-09
-1.19574878e-09
-1.18757426e-09
-1.18695737e-09
-1.23043077e-09
-1.22666265e-09
-1.19284461e-09
-1.18950872e-09
-1.23062729e-09
-1.22602602e-09
-1.20035331e-09
-1.19041227e-09
-1.18898656e-09
-1.18850458e-09
-1.2304762e-09
-1.22657728e-09
-1.1965785e-09
-1.18985511e-09
-1.18802228e-09
-1.18784122e-09
-1.23115721e-09
-1.19484496e-09
-1.1867682e-09
-1.23196377e-09
-1.22781013e-09
-1.19133138e-09
-1.18749487e-09
-1.23190881e-09
-1.22828408e-09
-1.19347088e-09
-1.18521225e-09
-1.18463994e-09
-1.23346007e-09
-1.22757581e-09
-1.22981425e-09
-1.22652526e-09
-1.22714775e-09
-1.1963431e-09
-1.18794316e-09
-1.18727361e-09
-1.23169763e-09
-1.22778377e-09
-1.19705576e-09
-1.18624058e-09
-1.18684514e-09
-1.23136509e-09
-1.1930195e-09
-1.18586307e-09
-1.23327399e-09
-1.22809919e-09
-1.18970343e-09
-1.18669262e-09
-1.2348735e-09
-1.22785928e-09
-1.22952278e-09
-1.22760393e-09
-1.19333412e-09
-1.1877625e-09
-1.23215353e-09
-1.22785093e-09
-1.19467231e-09
-1.18643024e-09
-1.18592931e-09
-1.2326035e-09
-1.22675623e-09
-1.22717647e-09
-1.19291611e-09
-1.18839364e-09
-1.18590707e-09
-1.18571672e-09
-1.23376461e-09
-1.22692408e-09
-1.22778883e-09
-1.19394068e-09
-1.18794113e-09
-1.23249791e-09
-1.22693361e-09
-1.19297843e-09
-1.18957649e-09
-1.23205381e-09
-1.22638113e-09
-1.20045171e-09
-1.19040421e-09
-1.18890305e-09
-1.18852954e-09
-1.23227055e-09
-1.22722558e-09
-1.19652262e-09
-1.18818018e-09
-1.18763441e-09
-1.23260443e-09
-1.22733548e-09
-1.1976617e-09
-1.18800052e-09
-1.18757352e-09
-1.23282465e-09
-1.22754503e-09
-1.19715208e-09
-1.18730669e-09
-1.18691007e-09
-1.23300218e-09
-1.22647748e-09
-1.22673143e-09
)
;

boundaryField
{
    closed
    {
        type            calculated;
        value           nonuniform List<scalar> 0();
    }
    open
    {
        type            calculated;
        value           nonuniform List<scalar> 0();
    }
    sides
    {
        type            empty;
    }
    procBoundary3to2
    {
        type            processor;
        value           uniform -1.19734988e-09;
    }
    procBoundary3to4
    {
        type            processor;
        value           uniform -1.1960202e-09;
    }
}


// ************************************************************************* //
