/*--------------------------------*- C++ -*----------------------------------*\
| =========                 |                                                 |
| \\      /  F ield         | OpenFOAM: The Open Source CFD Toolbox           |
|  \\    /   O peration     | Version:  2306                                  |
|   \\  /    A nd           | Website:  www.openfoam.com                      |
|    \\/     M anipulation  |                                                 |
\*---------------------------------------------------------------------------*/
FoamFile
{
    version     2.0;
    format      ascii;
    arch        "LSB;label=32;scalar=64";
    class       volScalarField;
    location    "0.00184";
    object      prefDZ_H2;
}
// * * * * * * * * * * * * * * * * * * * * * * * * * * * * * * * * * * * * * //

dimensions      [1 -1 -1 0 0 0 0];

internalField   nonuniform List<scalar> 
531
(
6.17129117e-05
6.17144845e-05
6.35234689e-05
6.35830646e-05
6.22923988e-05
6.16922393e-05
6.16955384e-05
6.35147559e-05
6.35908491e-05
6.22971382e-05
6.1639128e-05
6.16413642e-05
6.35220788e-05
6.35756449e-05
6.22870078e-05
6.15284265e-05
6.15373584e-05
6.35059378e-05
6.36088193e-05
6.22482571e-05
6.19254671e-05
6.3511034e-05
6.35968952e-05
6.22445569e-05
6.19568448e-05
6.35238329e-05
6.35621725e-05
6.23019562e-05
6.14980597e-05
6.16124278e-05
6.35166851e-05
6.35825637e-05
6.35658552e-05
6.2307328e-05
6.15121824e-05
6.16556869e-05
6.08924147e-05
6.09136019e-05
6.34319506e-05
6.35528248e-05
6.35120705e-05
6.35661883e-05
6.35609538e-05
6.35652491e-05
6.23527784e-05
6.14925176e-05
6.14970303e-05
6.35136593e-05
6.35717855e-05
6.23141822e-05
6.10887388e-05
6.13540338e-05
6.35397834e-05
6.35903285e-05
6.35828479e-05
6.23190144e-05
6.18023799e-05
6.3551495e-05
6.35962763e-05
6.22692977e-05
6.20842716e-05
6.35572578e-05
6.35817313e-05
6.23256621e-05
6.21125208e-05
6.20918509e-05
6.18366502e-05
6.17880744e-05
6.13556976e-05
6.136771e-05
6.34975808e-05
6.35803364e-05
6.35279628e-05
6.35903437e-05
6.23275968e-05
6.20649162e-05
6.35603819e-05
6.35700154e-05
6.23009538e-05
6.17692145e-05
6.17727507e-05
6.35498005e-05
6.35812313e-05
6.23030458e-05
6.15838742e-05
6.15890232e-05
6.35528159e-05
6.35766817e-05
6.23035069e-05
6.1316691e-05
6.15443915e-05
6.35564202e-05
6.35815673e-05
6.35750995e-05
6.23164413e-05
6.19300332e-05
6.3564465e-05
6.35810897e-05
6.23184354e-05
6.19527063e-05
6.16847107e-05
6.16877825e-05
6.35339772e-05
6.35770807e-05
6.21481566e-05
6.18473724e-05
6.35532297e-05
6.35540932e-05
6.23177568e-05
6.15979874e-05
6.16048497e-05
6.3536387e-05
6.35551044e-05
6.23244125e-05
6.14857859e-05
6.14931569e-05
6.35364556e-05
6.35568891e-05
6.23349318e-05
6.11716988e-05
6.12398255e-05
6.35321623e-05
6.35542668e-05
6.35578749e-05
6.35588351e-05
6.23064307e-05
6.15293958e-05
6.15369273e-05
6.35393047e-05
6.35874684e-05
6.22673238e-05
6.18421978e-05
6.35662297e-05
6.35629154e-05
6.2307461e-05
6.15938457e-05
6.16007851e-05
6.35454004e-05
6.3569217e-05
6.23177832e-05
6.15609374e-05
6.15642989e-05
6.35566235e-05
6.35576267e-05
6.23030333e-05
6.14281222e-05
6.15691477e-05
6.35466674e-05
6.35928125e-05
6.35584124e-05
6.22898326e-05
6.16297656e-05
6.16385564e-05
6.3526417e-05
6.35973655e-05
6.23421203e-05
6.19381804e-05
6.35521093e-05
6.35686699e-05
6.23091195e-05
6.17153522e-05
6.17176456e-05
6.35507365e-05
6.35557427e-05
6.23021586e-05
6.16860169e-05
6.16924266e-05
6.3522745e-05
6.35913343e-05
6.23612266e-05
6.20864682e-05
6.35362636e-05
6.35772264e-05
6.23290011e-05
6.20556129e-05
6.17261477e-05
6.17284489e-05
6.35196367e-05
6.35480756e-05
6.23452749e-05
6.11829495e-05
6.12654632e-05
6.35183528e-05
6.3543043e-05
6.35479829e-05
6.20426505e-05
6.18904658e-05
6.35155314e-05
6.22466467e-05
6.1105199e-05
6.34875295e-05
6.35391666e-05
6.35066982e-05
6.3564012e-05
6.21129762e-05
6.19343428e-05
6.35096194e-05
6.23037122e-05
6.14531732e-05
6.351714e-05
6.35419931e-05
6.35373315e-05
6.23464882e-05
6.1262065e-05
6.12758794e-05
6.34817808e-05
6.352595e-05
6.23577205e-05
6.10714558e-05
6.12417993e-05
6.34955165e-05
6.35257753e-05
6.3528621e-05
6.21808334e-05
6.20036332e-05
6.35011508e-05
6.23598664e-05
6.15168836e-05
6.34952212e-05
6.35259312e-05
6.35171669e-05
6.23570844e-05
6.13481783e-05
6.13611642e-05
6.34648082e-05
6.35079158e-05
6.23751281e-05
6.11797854e-05
6.11924139e-05
6.34624697e-05
6.34888065e-05
6.22521111e-05
6.04949014e-05
6.0656747e-05
6.3416777e-05
6.35155345e-05
6.34540562e-05
6.3538768e-05
6.34992186e-05
6.35534504e-05
6.35424345e-05
6.23507403e-05
6.16204208e-05
6.11833112e-05
6.11902077e-05
6.34520957e-05
6.35405572e-05
6.16007997e-05
6.15852454e-05
6.3442897e-05
6.35509567e-05
6.34797423e-05
6.23279453e-05
6.10607128e-05
6.1591856e-05
6.34927713e-05
6.23560921e-05
6.12841634e-05
6.3491071e-05
6.35293774e-05
6.18736071e-05
6.18179938e-05
6.34692367e-05
6.35510021e-05
6.34987927e-05
6.23228542e-05
6.13563507e-05
6.15039531e-05
6.34979718e-05
6.35556589e-05
6.35273567e-05
6.23219839e-05
6.16025339e-05
6.17098217e-05
6.09413648e-05
6.09666627e-05
6.34560813e-05
6.35460013e-05
6.35046947e-05
6.35585636e-05
6.35493725e-05
6.23224448e-05
6.18488605e-05
6.35461094e-05
6.35556621e-05
6.23404959e-05
6.18544138e-05
6.15328416e-05
6.15356049e-05
6.3504322e-05
6.35469276e-05
6.20848117e-05
6.1728297e-05
6.35395027e-05
6.35250683e-05
6.23290898e-05
6.14365808e-05
6.14506825e-05
6.35035267e-05
6.35565838e-05
6.22192956e-05
6.17144681e-05
6.35450663e-05
6.35287393e-05
6.23307978e-05
6.12761162e-05
6.1300894e-05
6.3515247e-05
6.35677822e-05
6.18997288e-05
6.17054091e-05
6.35341487e-05
6.35570392e-05
6.35423241e-05
6.20890393e-05
6.17861991e-05
6.35376593e-05
6.3588009e-05
6.35201729e-05
6.23053442e-05
6.12315857e-05
6.12750843e-05
6.35135397e-05
6.35845263e-05
6.20768891e-05
6.16998736e-05
6.35083206e-05
6.35786331e-05
6.21265503e-05
6.18366103e-05
6.35257785e-05
6.35652689e-05
6.23794536e-05
6.18446646e-05
6.14410548e-05
6.14526193e-05
6.34923152e-05
6.35529039e-05
6.18925702e-05
6.16238009e-05
6.34866825e-05
6.35580833e-05
6.18398401e-05
6.16786544e-05
6.34773652e-05
6.35462808e-05
6.34824789e-05
6.35502337e-05
6.2356951e-05
6.19606726e-05
6.16067817e-05
6.16100598e-05
6.35474724e-05
6.35140724e-05
6.23347541e-05
6.10733745e-05
6.11215455e-05
6.34922802e-05
6.35590953e-05
6.18836554e-05
6.1498385e-05
6.34855161e-05
6.35658866e-05
6.17313297e-05
6.16272601e-05
6.3510351e-05
6.35470215e-05
6.35212566e-05
6.22044218e-05
6.16208162e-05
6.35321493e-05
6.35492914e-05
6.21375416e-05
6.16857735e-05
6.35534191e-05
6.35167895e-05
6.23308854e-05
6.1339188e-05
6.136379e-05
6.35127149e-05
6.35607958e-05
6.22590377e-05
6.1730402e-05
6.35382868e-05
6.35228212e-05
6.23366772e-05
6.14144987e-05
6.14316609e-05
6.35169801e-05
6.35552122e-05
6.22848113e-05
6.17419554e-05
6.35426294e-05
6.35166065e-05
6.23257104e-05
6.13498747e-05
6.13764503e-05
6.34949662e-05
6.3579621e-05
6.21960275e-05
6.17685316e-05
6.34839782e-05
6.35857804e-05
6.21623098e-05
6.18344539e-05
6.34960641e-05
6.35754167e-05
6.22214036e-05
6.17884638e-05
6.35385967e-05
6.35275691e-05
6.23188273e-05
6.13222808e-05
6.13516674e-05
6.34925903e-05
6.35895706e-05
6.21710299e-05
6.17394763e-05
6.34798374e-05
6.35984178e-05
6.20513826e-05
6.18611303e-05
6.35080668e-05
6.35819684e-05
6.35311742e-05
6.23535172e-05
6.18189283e-05
6.35463611e-05
6.35352702e-05
6.23067618e-05
6.15263838e-05
6.15461553e-05
6.34889417e-05
6.3593245e-05
6.24118011e-05
6.20635335e-05
6.34828293e-05
6.35883493e-05
6.23601075e-05
6.22378567e-05
6.18258862e-05
6.18317513e-05
6.35012616e-05
6.35663028e-05
6.23430531e-05
6.20820375e-05
6.16434579e-05
6.16495559e-05
6.34816516e-05
6.23442261e-05
6.13877422e-05
6.34494405e-05
6.35268651e-05
6.22946446e-05
6.15730339e-05
6.34610062e-05
6.3507627e-05
6.23400973e-05
6.09863572e-05
6.10346249e-05
6.33822076e-05
6.35512631e-05
6.34186316e-05
6.3574295e-05
6.349433e-05
6.22994412e-05
6.15645366e-05
6.15834549e-05
6.34351376e-05
6.3537181e-05
6.23576635e-05
6.12732124e-05
6.14227021e-05
6.34597646e-05
6.23640561e-05
6.1203045e-05
6.33999072e-05
6.35232613e-05
6.19222282e-05
6.14359273e-05
6.33435484e-05
6.35380903e-05
6.34323348e-05
6.35503521e-05
6.23780479e-05
6.16557668e-05
6.34330244e-05
6.35277169e-05
6.23351635e-05
6.12783347e-05
6.13022935e-05
6.34051384e-05
6.35685427e-05
6.35172747e-05
6.23170517e-05
6.17699764e-05
6.12295867e-05
6.12392098e-05
6.34132914e-05
6.3548194e-05
6.35364586e-05
6.23575909e-05
6.17063829e-05
6.33967638e-05
6.35600785e-05
6.24016117e-05
6.20345949e-05
6.34009886e-05
6.35586772e-05
6.23540834e-05
6.22116626e-05
6.18162541e-05
6.18201143e-05
6.34073298e-05
6.35373878e-05
6.23261065e-05
6.16447643e-05
6.16567031e-05
6.33685202e-05
6.3544857e-05
6.23372934e-05
6.16232726e-05
6.16325197e-05
6.33593548e-05
6.35381157e-05
6.23332516e-05
6.14919078e-05
6.15028002e-05
6.33518502e-05
6.35650026e-05
6.35316576e-05
)
;

boundaryField
{
    closed
    {
        type            calculated;
        value           nonuniform List<scalar> 0();
    }
    open
    {
        type            calculated;
        value           nonuniform List<scalar> 0();
    }
    sides
    {
        type            empty;
    }
    procBoundary3to2
    {
        type            processor;
        value           uniform 6.22971504e-05;
    }
    procBoundary3to4
    {
        type            processor;
        value           uniform 6.23033963e-05;
    }
}


// ************************************************************************* //
