/*--------------------------------*- C++ -*----------------------------------*\
| =========                 |                                                 |
| \\      /  F ield         | OpenFOAM: The Open Source CFD Toolbox           |
|  \\    /   O peration     | Version:  2306                                  |
|   \\  /    A nd           | Website:  www.openfoam.com                      |
|    \\/     M anipulation  |                                                 |
\*---------------------------------------------------------------------------*/
FoamFile
{
    version     2.0;
    format      ascii;
    arch        "LSB;label=32;scalar=64";
    class       volScalarField;
    location    "0.00146";
    object      H2O;
}
// * * * * * * * * * * * * * * * * * * * * * * * * * * * * * * * * * * * * * //

dimensions      [0 0 0 0 0 0 0];

internalField   nonuniform List<scalar> 
531
(
0.00100583834
0.00598612598
0.0077819175
0.00771817624
0.000929920189
0.00108131259
0.00348239768
0.00645807529
0.00662147777
0.00639788404
0.00686735435
0.00686687536
0.000992682429
0.00112780276
0.00547355908
0.00633127681
0.000959827082
0.00115425303
0.00398150334
0.00622900734
0.00721110632
0.00721051141
0.000960781506
0.00107507119
0.00520229721
0.00695349046
0.00679580928
0.00744200939
0.00743240382
0.000882209702
0.000995817436
0.00768847925
0.0080457584
0.000753329971
0.0010073134
0.000968787801
0.00104841967
0.00580291788
0.00687617783
0.000952327177
0.00110333213
0.00519207125
0.00679961323
0.00758431887
0.00758605821
0.000846319131
0.00107898704
0.000998422253
0.00648466483
0.00716049548
0.000893979748
0.00108253347
0.00679417459
0.0067960956
0.000873801483
0.00614934792
0.00741751099
0.000838283348
0.00110109059
0.00100504884
0.00582124573
0.00729514834
0.00753866766
0.00753942602
0.000853435781
0.0011019921
0.00103755497
0.00538983584
0.00735520669
0.00735079148
0.000945793556
0.00104024316
0.00553921431
0.00754658956
0.00732920285
0.000916346572
0.00511750597
0.00743011412
0.000905979388
0.00104909711
0.00468654309
0.00729640454
0.00729131356
0.000904631536
0.00106672608
0.00104352742
0.00280628673
0.0067192822
0.00752456398
0.00749545349
0.000895287171
0.00109762438
0.00106680285
0.00592622153
0.00739531262
0.00738296779
0.000916015918
0.00102759861
0.00585181817
0.00770949015
0.00743484164
0.000892398904
0.00552388306
0.00755911305
0.000896254491
0.00103637751
0.00553182288
0.00728040528
0.00651692863
0.000983075809
0.00114705785
0.00113603617
0.00633556088
0.00708792175
0.00810360261
0.00809307083
0.000705512061
0.000981099838
0.000917395765
0.00099071879
0.0070348237
0.00770725437
0.000724842018
0.00102896525
0.000964577192
0.00106631981
0.0040969771
0.00671461915
0.00715230236
0.00716839414
0.000929230084
0.00127399899
0.00703290169
0.00815630389
0.00809290893
0.000785756284
0.00103547936
0.000974430791
0.00699105751
0.00781396453
0.000715802277
0.00101563273
0.000979737626
0.0010421655
0.00548403468
0.00705551457
0.00772353829
0.00771275285
0.000754404607
0.00107649344
0.000988831641
0.00637755043
0.00841407727
0.00838205313
0.000774975998
0.000993439653
0.000999183233
0.00103782319
0.00474136896
0.00707956811
0.00679694545
0.007330399
0.00705253153
0.000919281933
0.00109616648
0.00105908598
0.00109308181
0.00445218464
0.00701142889
0.00690385188
0.00747139157
0.00747026915
0.000863571239
0.00105741238
0.00104668923
0.00106472976
0.00565496939
0.00714327202
0.00796458875
0.00794782133
0.000695002721
0.000991894126
0.000966277997
0.00101570005
0.00565348097
0.00726901388
0.00750972981
0.00749769574
0.000805368482
0.00104452651
0.00652944366
0.0071031475
0.000847589708
0.00106537442
0.00644514387
0.007087686
0.000856526509
0.00106311901
0.00501949301
0.00734174599
0.00733642592
0.000820298682
0.00106169341
0.00103090181
0.00108011252
0.00482575227
0.00689577296
0.00675572122
0.00725458634
0.00724776206
0.0008535113
0.00106907154
0.00650244392
0.0069628875
0.0008363738
0.00109634206
0.0037461412
0.00682076461
0.00692520272
0.00774175203
0.00772783869
0.000740609493
0.00100476338
0.00099280678
0.000998522542
0.00589885201
0.00800750715
0.00799293317
0.000824652056
0.00106455161
0.0010471769
0.00407411356
0.0073605893
0.00703955954
0.000899162848
0.00617560454
0.00739176496
0.000764393953
0.00109605621
0.00103901135
0.00593664414
0.00730986394
0.00778443705
0.0077728362
0.000719702044
0.00101906233
0.000997131639
0.00104419084
0.0054014531
0.00708339277
0.00757032726
0.00757319691
0.000761086654
0.00108290693
0.00101043362
0.0064081809
0.00714528234
0.000785520585
0.00110836989
0.00105606904
0.00526087609
0.0069174667
0.00670680734
0.00656396497
0.00697576878
0.00697733674
0.0008691731
0.00107379769
0.00671605542
0.00721049869
0.000787608785
0.00104996538
0.00704637236
0.00735270381
0.000721114276
0.00106763359
0.00102781948
0.00675274084
0.00729125881
0.000751687335
0.00109642208
0.00105654861
0.00487794727
0.00688691952
0.00675665107
0.00679749163
0.00709994434
0.0070946913
0.000882462086
0.0010929421
0.00591761599
0.00672636969
0.000802247172
0.00111173539
0.0014899174
0.00677051129
0.00728493816
0.00794674478
0.00794840238
0.000708769374
0.00100272828
0.000958800196
0.00102523366
0.002801916
0.00740010834
0.0074077505
0.000884965886
0.0052179466
0.00730876776
0.000843754621
0.00107980815
0.00404285166
0.00676833391
0.00738536683
0.00738439503
0.000775636249
0.00106672593
0.00154277084
0.00707336346
0.00707752894
0.000822155644
0.00622957322
0.00736685461
0.000766734377
0.00109163925
0.00102046807
0.0064475908
0.00743427599
0.000721763975
0.00102237091
0.00567400177
0.00740411311
0.00741173733
0.000923028616
0.00105969778
0.00609736264
0.00709922493
0.000864247005
0.00105336694
0.00568810933
0.00732753027
0.00726679867
0.000958403498
0.00107940432
0.00626768815
0.00695549191
0.000843259892
0.00106984395
0.00700935057
0.00728080545
0.000750572062
0.00109462779
0.00104677489
0.00626688623
0.00774390207
0.00773480636
0.000851884771
0.00100834449
0.00624986351
0.00774603406
0.00772005951
0.000854596253
0.00103770342
0.00647125477
0.0071465186
0.000839749531
0.00105960609
0.00688128545
0.00733440228
0.000788150945
0.00105228202
0.00700221539
0.00716064646
0.000788302285
0.00542457044
0.00753536307
0.000862707076
0.00103752938
0.00519327307
0.00743469604
0.00742502059
0.00088716098
0.00110558866
0.00110786747
0.00533460645
0.00659303891
0.000919723799
0.00113968905
0.00472141371
0.00644032416
0.00725876366
0.00726384665
0.000850469315
0.00102872071
0.00552930851
0.00771258965
0.00771685244
0.000849859676
0.000999128466
0.00557399011
0.00785550418
0.00786973772
0.000846889775
0.000995943341
0.00593571416
0.00778343679
0.00778326494
0.000878517685
0.00104179732
0.00105451504
0.00107330552
0.00533979062
0.00686132264
0.000911857107
0.00108580094
0.0064314461
0.00698696531
0.000887745086
0.00109223033
0.00453093393
0.00683544314
0.00732177312
0.0073130052
0.000861265523
0.00105540064
0.00637089209
0.00704896745
0.000897839318
0.00108753248
0.00466399417
0.00686859202
0.0073158816
0.00731743232
0.000870856339
0.0010605562
0.00641418621
0.00697030239
0.000887135481
0.00111246607
0.0038664338
0.00653217357
0.00729024927
0.00697094459
0.000933757577
0.00581450484
0.00730250284
0.000761863467
0.00109836269
0.000889414879
0.00632342096
0.00781598362
0.00667651825
0.000936182071
0.00586072661
0.00719469564
0.000780680665
0.00111374661
0.000781238087
0.0062624601
0.00775838779
0.00712214864
0.00092210369
0.0060528797
0.00727792797
0.000820351326
0.00110496287
0.000994366179
0.00613878305
0.0073095248
0.000895774829
0.00106247645
0.00659004463
0.0070311681
0.000905942431
0.00109068735
0.00467408764
0.00688915826
0.00693021665
0.00753833971
0.00753866247
0.000863638054
0.00104878845
0.00681030068
0.0070844858
0.000824700238
0.00110431531
0.00103226428
0.00653132092
0.0073196614
0.000882491368
0.00105526019
0.00667641086
0.00711983523
0.000899842869
0.00109607602
0.00480331473
0.00670577946
0.00732376361
0.00747110185
0.000839182018
0.000920539329
0.00729889126
0.00627324683
0.000976725059
0.00408464915
0.00714260451
0.00616237114
0.00102738564
0.00110991877
0.00574883861
0.00699219879
0.000905906901
0.00108504537
0.00486729496
0.00690195063
0.00746137938
0.00745605534
0.000840490863
0.00104144995
0.00649929089
0.00715940142
0.000882108009
0.00106523177
0.00543185163
0.00710901246
0.00663588973
0.00100365812
0.00112211153
0.00627024726
0.00674635269
0.0007868835
)
;

boundaryField
{
    closed
    {
        type            calculated;
        value           nonuniform List<scalar> 0();
    }
    open
    {
        type            calculated;
        value           nonuniform List<scalar> 0();
    }
    sides
    {
        type            empty;
    }
    procBoundary3to2
    {
        type            processor;
        value           uniform 0.00111926064;
    }
    procBoundary3to4
    {
        type            processor;
        value           uniform 0.00113160838;
    }
}


// ************************************************************************* //
