/*--------------------------------*- C++ -*----------------------------------*\
| =========                 |                                                 |
| \\      /  F ield         | OpenFOAM: The Open Source CFD Toolbox           |
|  \\    /   O peration     | Version:  2306                                  |
|   \\  /    A nd           | Website:  www.openfoam.com                      |
|    \\/     M anipulation  |                                                 |
\*---------------------------------------------------------------------------*/
FoamFile
{
    version     2.0;
    format      ascii;
    arch        "LSB;label=32;scalar=64";
    class       volScalarField;
    location    "0.00146";
    object      prefDPV_T;
}
// * * * * * * * * * * * * * * * * * * * * * * * * * * * * * * * * * * * * * //

dimensions      [1 -1 -1 -1 0 0 0];

internalField   nonuniform List<scalar> 
531
(
6.09370663e-10
5.92609915e-10
5.88575727e-10
5.88374303e-10
6.09999487e-10
6.08426748e-10
6.01415694e-10
5.91079884e-10
5.91063052e-10
5.91294654e-10
5.90482691e-10
5.90209763e-10
6.0927362e-10
6.07991293e-10
5.94381349e-10
5.91510225e-10
6.09538541e-10
6.07805464e-10
5.99550542e-10
5.91881804e-10
5.89686193e-10
5.89612513e-10
6.09479403e-10
6.08694357e-10
5.95251014e-10
5.90342187e-10
5.90575972e-10
5.89399438e-10
5.89219386e-10
6.10709289e-10
6.09311561e-10
5.88880772e-10
5.87798969e-10
6.12385627e-10
6.09301019e-10
6.10027841e-10
6.08892543e-10
5.93423868e-10
5.90351056e-10
6.09664256e-10
6.08374511e-10
5.95320577e-10
5.90517879e-10
5.88870894e-10
5.88832193e-10
6.10487454e-10
6.08656927e-10
6.09318962e-10
5.91227672e-10
5.89766077e-10
6.10224427e-10
6.08557792e-10
5.90702726e-10
5.90550008e-10
6.10442977e-10
5.92175055e-10
5.8939246e-10
6.10592936e-10
6.08600481e-10
6.09390319e-10
5.93308591e-10
5.89608281e-10
5.89078715e-10
5.89044513e-10
6.10663622e-10
6.08544334e-10
6.09272972e-10
5.94680878e-10
5.89561069e-10
5.89411255e-10
6.09769162e-10
6.09080178e-10
5.94172776e-10
5.89078752e-10
5.89396094e-10
6.1011793e-10
5.95547731e-10
5.89278801e-10
6.10022129e-10
6.09041349e-10
5.97047022e-10
5.89631366e-10
5.89576994e-10
6.10252472e-10
6.09009018e-10
6.09149907e-10
6.04004083e-10
5.90689343e-10
5.89180875e-10
5.8900236e-10
6.1023714e-10
6.08408493e-10
6.08888838e-10
5.92862322e-10
5.89421275e-10
5.89244346e-10
6.10075881e-10
6.09123765e-10
5.93147639e-10
5.88716988e-10
5.89135665e-10
6.1035228e-10
5.94172848e-10
5.89034234e-10
6.10078722e-10
6.09154516e-10
5.94121091e-10
5.89696799e-10
5.91004754e-10
6.0956869e-10
6.07918607e-10
6.08233662e-10
5.91622639e-10
5.90049564e-10
5.87911146e-10
5.87843228e-10
6.12257747e-10
6.09678498e-10
6.10594499e-10
6.09530776e-10
5.9040933e-10
5.88648516e-10
6.12140375e-10
6.09167982e-10
6.10152778e-10
6.08836088e-10
5.99211252e-10
5.90840271e-10
5.900634e-10
5.9010276e-10
6.10365007e-10
6.10142619e-10
5.90171963e-10
5.87999702e-10
5.87909396e-10
6.11386013e-10
6.09286949e-10
6.09801059e-10
5.90381648e-10
5.88507231e-10
6.1223837e-10
6.09438356e-10
6.10066357e-10
6.09201666e-10
5.94527459e-10
5.90217687e-10
5.88862223e-10
5.88733118e-10
6.11744831e-10
6.08817567e-10
6.09768294e-10
5.91549438e-10
5.87360782e-10
5.87171603e-10
6.11797051e-10
6.09570702e-10
6.09697111e-10
6.09156125e-10
5.96871162e-10
5.90057918e-10
5.90512656e-10
5.89565238e-10
5.90013837e-10
6.1018775e-10
6.0846338e-10
6.08944509e-10
6.08444186e-10
5.97856169e-10
5.90043411e-10
5.90255489e-10
5.89194317e-10
5.89074381e-10
6.10790795e-10
6.08825486e-10
6.09109029e-10
6.08698852e-10
5.93817903e-10
5.89761888e-10
5.88178452e-10
5.87995903e-10
6.12294405e-10
6.09357677e-10
6.09927484e-10
6.09139495e-10
5.93850736e-10
5.89532964e-10
5.89198834e-10
5.8901502e-10
6.11353604e-10
6.08907945e-10
5.91371945e-10
5.89897473e-10
6.10998881e-10
6.08755495e-10
5.91500981e-10
5.89974462e-10
6.10829477e-10
6.08911018e-10
5.95932224e-10
5.89614437e-10
5.89403247e-10
6.11251505e-10
6.08831494e-10
6.09349924e-10
6.08683929e-10
5.96565909e-10
5.90422304e-10
5.90588606e-10
5.89793929e-10
5.8953882e-10
6.10990962e-10
6.08704761e-10
5.91428295e-10
5.90231073e-10
6.11156201e-10
6.0861075e-10
6.00459643e-10
5.90613186e-10
5.9039502e-10
5.88798008e-10
5.88628773e-10
6.12121107e-10
6.09452524e-10
6.09767522e-10
6.09516036e-10
5.93023325e-10
5.88156161e-10
5.87984289e-10
6.11234565e-10
6.088658e-10
6.09187117e-10
5.9923716e-10
5.89498224e-10
5.90143021e-10
6.1040347e-10
5.92160323e-10
5.8938506e-10
6.11645139e-10
6.08573918e-10
6.0909046e-10
5.92909099e-10
5.89567257e-10
5.88599002e-10
5.88528149e-10
6.12283124e-10
6.0931744e-10
6.09728049e-10
6.09077301e-10
5.94671234e-10
5.90062571e-10
5.89049566e-10
5.8896914e-10
6.11702166e-10
6.08699322e-10
6.09312858e-10
5.91452812e-10
5.89812129e-10
6.11429137e-10
6.08353911e-10
6.08807212e-10
5.95052384e-10
5.90219959e-10
5.90731971e-10
5.90986178e-10
5.90342481e-10
5.90095569e-10
6.10855445e-10
6.0858701e-10
5.90930074e-10
5.89574862e-10
6.1165116e-10
6.08827566e-10
5.9024027e-10
5.89293027e-10
6.12162644e-10
6.08730317e-10
6.09116057e-10
5.90668577e-10
5.89449363e-10
6.11795228e-10
6.08442688e-10
6.08876583e-10
5.96346835e-10
5.90293279e-10
5.90568435e-10
5.90477636e-10
5.89980685e-10
5.89839197e-10
6.10721719e-10
6.08446599e-10
5.93112789e-10
5.90657101e-10
6.11809584e-10
6.08376185e-10
6.09258985e-10
5.90499808e-10
5.89830789e-10
5.88223721e-10
5.88205603e-10
6.12541489e-10
6.09508829e-10
6.10229582e-10
6.09302091e-10
6.04024406e-10
5.89359472e-10
5.89388168e-10
6.10678743e-10
5.9527756e-10
5.89565091e-10
6.11183213e-10
6.08736537e-10
5.99367142e-10
5.90607921e-10
5.89559781e-10
5.89325725e-10
6.12065249e-10
6.08856617e-10
6.09043027e-10
5.89976006e-10
5.90176662e-10
6.11347397e-10
5.92002941e-10
5.89402937e-10
6.11769052e-10
6.0857498e-10
6.09149457e-10
5.91320877e-10
5.89163996e-10
6.11818647e-10
6.09099131e-10
5.93731138e-10
5.89303041e-10
5.89187626e-10
6.102372e-10
6.08690384e-10
5.92341453e-10
5.89797637e-10
6.10667037e-10
6.08786628e-10
5.93564413e-10
5.89482477e-10
5.89363175e-10
6.09970644e-10
6.08419391e-10
5.91968145e-10
5.90056462e-10
6.1117845e-10
6.08588503e-10
5.90275451e-10
5.89408446e-10
6.11956173e-10
6.08491513e-10
6.09065565e-10
5.91834887e-10
5.88761874e-10
5.88570322e-10
6.11325076e-10
6.09463718e-10
5.91974995e-10
5.88848348e-10
5.88597559e-10
6.11435284e-10
6.09108386e-10
5.9160056e-10
5.89894183e-10
6.11405618e-10
6.08895004e-10
5.90659114e-10
5.89388438e-10
6.11785999e-10
6.08840542e-10
5.90365728e-10
5.89690737e-10
6.11789644e-10
5.94516435e-10
5.89173761e-10
6.10887145e-10
6.09144368e-10
5.95299523e-10
5.89276893e-10
5.89119074e-10
6.10637482e-10
6.08372512e-10
6.08387119e-10
5.94860955e-10
5.9095238e-10
6.10338866e-10
6.0814933e-10
5.96943774e-10
5.91333176e-10
5.89685447e-10
5.89541467e-10
6.11015247e-10
6.09134182e-10
5.94221806e-10
5.88755315e-10
5.88515642e-10
6.1114518e-10
6.0934509e-10
5.94112273e-10
5.88388908e-10
5.88232761e-10
6.11061345e-10
6.0943891e-10
5.92907022e-10
5.88590043e-10
5.88407581e-10
6.10750177e-10
6.0894158e-10
6.09027371e-10
6.08596499e-10
5.94863606e-10
5.90269163e-10
6.10349643e-10
6.08383272e-10
5.91347865e-10
5.89979953e-10
6.10489956e-10
6.0832156e-10
5.97576518e-10
5.90225435e-10
5.89449623e-10
5.89201568e-10
6.1077317e-10
6.08573554e-10
5.9154544e-10
5.89830739e-10
6.10415153e-10
6.08367273e-10
5.97115128e-10
5.90178519e-10
5.89479797e-10
5.89225056e-10
6.10687673e-10
6.0856424e-10
5.91457358e-10
5.90030863e-10
6.10580838e-10
6.08212899e-10
5.99986063e-10
5.90976473e-10
5.89580056e-10
5.90224938e-10
6.09997643e-10
5.93383015e-10
5.8946634e-10
6.12012386e-10
6.08443978e-10
6.10531632e-10
5.91544579e-10
5.88802249e-10
5.90839042e-10
6.10261156e-10
5.93216255e-10
5.89842329e-10
6.11927148e-10
6.08448064e-10
6.12173792e-10
5.91804178e-10
5.88962178e-10
5.89875267e-10
6.10350357e-10
5.9251299e-10
5.89654903e-10
6.11026363e-10
6.08481625e-10
6.09395149e-10
5.92233943e-10
5.89486963e-10
6.10350193e-10
6.08818047e-10
5.9096875e-10
5.90111661e-10
6.10231298e-10
6.086427e-10
5.97064532e-10
5.90453331e-10
5.90182866e-10
5.8912102e-10
5.88851289e-10
6.10797901e-10
6.0879261e-10
5.9065422e-10
5.89859586e-10
6.10992234e-10
6.08373277e-10
6.08989224e-10
5.91065785e-10
5.89405824e-10
6.1045886e-10
6.087968e-10
5.90818048e-10
5.89841694e-10
6.10336384e-10
6.08524821e-10
5.96672266e-10
5.90811166e-10
5.89635174e-10
5.89201016e-10
6.11216771e-10
6.09777421e-10
5.89578414e-10
5.91758882e-10
6.09765538e-10
5.99115682e-10
5.89948242e-10
5.91927456e-10
6.09289885e-10
6.07944592e-10
5.93544369e-10
5.89843693e-10
6.10288666e-10
6.08352368e-10
5.96428853e-10
5.90155185e-10
5.89178548e-10
5.88983443e-10
6.10844633e-10
6.08810549e-10
5.91147935e-10
5.89716167e-10
6.10316684e-10
6.08739855e-10
5.9439122e-10
5.89991901e-10
5.906093e-10
6.09545518e-10
6.07916997e-10
5.92021403e-10
5.90428246e-10
6.11384282e-10
)
;

boundaryField
{
    closed
    {
        type            calculated;
        value           nonuniform List<scalar> 0();
    }
    open
    {
        type            calculated;
        value           nonuniform List<scalar> 0();
    }
    sides
    {
        type            empty;
    }
    procBoundary3to2
    {
        type            processor;
        value           uniform 6.08170753e-10;
    }
    procBoundary3to4
    {
        type            processor;
        value           uniform 6.08028372e-10;
    }
}


// ************************************************************************* //
