/*--------------------------------*- C++ -*----------------------------------*\
| =========                 |                                                 |
| \\      /  F ield         | OpenFOAM: The Open Source CFD Toolbox           |
|  \\    /   O peration     | Version:  2306                                  |
|   \\  /    A nd           | Website:  www.openfoam.com                      |
|    \\/     M anipulation  |                                                 |
\*---------------------------------------------------------------------------*/
FoamFile
{
    version     2.0;
    format      ascii;
    arch        "LSB;label=32;scalar=64";
    class       volScalarField;
    location    "0.00092";
    object      H;
}
// * * * * * * * * * * * * * * * * * * * * * * * * * * * * * * * * * * * * * //

dimensions      [0 0 0 0 0 0 0];

internalField   nonuniform List<scalar> 
531
(
1.2395965e-09
1.26278262e-09
3.48219727e-08
4.55666759e-08
4.55261495e-08
1.11482118e-09
1.11371407e-09
1.20233556e-09
1.09978817e-09
4.07921127e-08
4.99294697e-08
4.72692641e-08
4.71453163e-08
1.12184605e-09
1.23447656e-09
4.07923038e-08
4.38457533e-08
1.20968612e-09
1.28279938e-09
3.81648416e-08
4.24607306e-08
1.28432095e-09
1.28025445e-09
3.46346035e-08
4.29661751e-08
4.25439944e-08
1.26718569e-09
1.33426819e-09
3.57991233e-08
4.09775576e-08
1.30358029e-09
1.31814499e-09
3.26416835e-08
4.16740273e-08
4.14751824e-08
1.30432249e-09
1.31115053e-09
3.00286022e-08
4.33439243e-08
4.0777592e-08
1.25166219e-09
1.39346631e-09
1.3405561e-09
3.05484414e-08
4.09160177e-08
4.14586989e-08
4.35510121e-08
1.22133025e-09
1.23591198e-09
3.80795677e-08
4.83989385e-08
4.60631064e-08
1.14406759e-09
1.30900262e-09
1.22969975e-09
3.94951829e-08
4.76718614e-08
4.72038997e-08
1.15560052e-09
1.25767046e-09
4.15982081e-08
4.53142068e-08
1.14967952e-09
1.26949493e-09
4.2129848e-08
4.44772969e-08
1.16307271e-09
1.27356264e-09
4.14219668e-08
4.38956902e-08
1.1980805e-09
1.27078372e-09
3.94956936e-08
4.34448982e-08
1.25544439e-09
1.25381383e-09
3.63891345e-08
4.38776793e-08
4.36038582e-08
1.26375444e-09
1.26432316e-09
3.48479489e-08
4.37601119e-08
4.35182686e-08
1.25713384e-09
1.25461349e-09
3.61375041e-08
4.56297509e-08
4.48503557e-08
1.21938691e-09
1.2749132e-09
1.32894727e-09
1.30772025e-09
3.07680426e-08
4.29666453e-08
4.07521278e-08
4.73475571e-08
4.69956156e-08
1.153475e-09
1.2597989e-09
4.25221397e-08
4.50805988e-08
1.16487065e-09
1.28067484e-09
4.19727278e-08
4.3527068e-08
1.19379868e-09
1.29492736e-09
4.06666589e-08
4.2506755e-08
1.23971748e-09
1.29733214e-09
3.86345668e-08
4.20564129e-08
1.30536772e-09
1.28279012e-09
3.507022e-08
4.2817336e-08
4.25038162e-08
1.30178116e-09
1.30824132e-09
3.28351262e-08
4.27662054e-08
4.26453711e-08
1.32424138e-09
1.29562416e-09
3.50317639e-08
4.42348786e-08
4.36455293e-08
1.26695803e-09
1.3310698e-09
3.78589944e-08
4.1263924e-08
1.29162667e-09
1.34986687e-09
3.72409909e-08
3.96709888e-08
1.33962972e-09
1.35325935e-09
3.2639618e-08
3.94559554e-08
4.08003521e-08
4.14377302e-08
1.29470019e-09
1.29650642e-09
3.66697673e-08
4.3994608e-08
4.36935741e-08
1.29338911e-09
1.31034643e-09
3.70868317e-08
4.21552724e-08
1.35330385e-09
1.30123391e-09
3.4291729e-08
4.32219291e-08
4.24867219e-08
1.30181326e-09
1.35113313e-09
3.62064177e-08
3.9815908e-08
1.35229975e-09
1.36081189e-09
3.25705723e-08
3.94074591e-08
4.11176572e-08
4.12474004e-08
1.27557006e-09
1.32884177e-09
3.84422965e-08
4.13708671e-08
1.3450419e-09
1.30563098e-09
3.43208237e-08
4.2463792e-08
4.22026891e-08
1.32916653e-09
1.3169079e-09
3.28361213e-08
4.25184873e-08
4.22247699e-08
1.33699071e-09
1.32850685e-09
3.4580734e-08
4.35975112e-08
4.34088275e-08
1.28409343e-09
1.2781222e-09
3.73846155e-08
4.68244401e-08
4.55357098e-08
1.24117871e-09
1.27195246e-09
1.34385424e-09
1.29803711e-09
3.11236733e-08
4.50871066e-08
4.19332362e-08
4.99576859e-08
4.86536633e-08
1.15636787e-09
1.28271076e-09
1.22788065e-09
1.35940579e-09
1.31060007e-09
3.38777596e-08
4.07940063e-08
4.1368096e-08
4.23477147e-08
1.28692357e-09
1.2812974e-09
3.69135655e-08
4.36404934e-08
4.34142895e-08
1.3016994e-09
1.29551749e-09
3.37816766e-08
4.31727596e-08
4.26856042e-08
1.33221577e-09
1.32434269e-09
3.46005142e-08
4.3686373e-08
4.29996335e-08
1.29554153e-09
1.31898794e-09
3.68175406e-08
4.15494739e-08
1.34418486e-09
1.33140312e-09
3.38592609e-08
4.22029381e-08
4.19950781e-08
1.34488492e-09
1.33561639e-09
3.11154197e-08
4.19051984e-08
4.14320815e-08
1.33116558e-09
1.33475144e-09
3.26540602e-08
4.06924949e-08
4.2737267e-08
4.27875522e-08
1.18001356e-09
1.29362914e-09
4.38876744e-08
4.38310921e-08
1.15837095e-09
1.28487362e-09
1.14472007e-09
1.30236459e-09
1.22593842e-08
4.19501771e-08
4.46470538e-08
4.63761151e-08
4.6513396e-08
1.21450756e-09
1.19915913e-09
3.95927409e-08
4.81549997e-08
4.62632996e-08
1.1990175e-09
1.28985636e-09
4.17913504e-08
4.16247777e-08
1.24035208e-09
1.36871037e-09
1.25600089e-09
3.36886564e-08
4.41988851e-08
4.32318742e-08
1.31453097e-09
1.29779988e-09
3.43965095e-08
4.54723442e-08
4.15771627e-08
1.20838343e-09
1.38238881e-09
1.27245548e-09
3.23261871e-08
4.42482061e-08
4.14357198e-08
4.85625135e-08
4.84062348e-08
1.21289905e-09
1.2353885e-09
1.31608996e-09
1.28341187e-09
3.57573729e-08
4.50133256e-08
4.44613115e-08
1.29828601e-09
1.28652001e-09
3.62884358e-08
4.70376074e-08
4.30000842e-08
1.19559612e-09
1.35659255e-09
1.26024162e-09
3.55411857e-08
4.51085042e-08
4.20288282e-08
1.23690582e-09
1.37336162e-09
1.31458557e-09
2.86442141e-08
4.00593119e-08
4.07371041e-08
4.13582165e-08
1.27422064e-09
1.30177673e-09
3.75464424e-08
4.2118786e-08
4.48171235e-08
4.47581066e-08
1.20785652e-09
1.26083719e-09
1.31645061e-09
1.2955869e-09
3.35750902e-08
4.29269433e-08
4.3017553e-08
4.5412408e-08
1.2391902e-09
1.20995011e-09
4.08641885e-08
5.02829294e-08
4.88999761e-08
1.18793331e-09
1.21810696e-09
1.29757928e-09
1.24658939e-09
3.2730923e-08
4.31490838e-08
4.38544164e-08
4.42149076e-08
1.19036989e-09
1.26744705e-09
4.44339706e-08
4.36784825e-08
1.20784016e-09
1.31536099e-09
1.20413169e-09
3.69401318e-08
4.67213623e-08
4.5746122e-08
1.24740784e-09
1.21945068e-09
3.87800962e-08
4.85924341e-08
4.70810354e-08
1.21503867e-09
1.21375445e-09
1.30999709e-09
1.23047083e-09
3.38258256e-08
4.67682195e-08
4.30420738e-08
5.14074645e-08
5.09080247e-08
1.1886571e-09
1.18744499e-09
1.2856618e-09
1.21814689e-09
3.73938234e-08
4.87653867e-08
4.41122599e-08
1.21604769e-09
1.36802788e-09
1.27105062e-09
3.77176096e-08
4.50875895e-08
4.38389979e-08
1.3638894e-09
1.38710893e-09
3.82243186e-08
4.17484464e-08
1.50306919e-09
1.44156484e-09
3.28953162e-08
4.25473123e-08
4.46036338e-08
4.63704815e-08
1.53085454e-09
1.43724924e-09
4.4256619e-08
5.86134397e-08
5.35849881e-08
1.60282366e-09
2.05325405e-09
2.31596728e-09
2.81769027e-09
3.13290317e-09
3.71543253e-09
4.09683593e-09
5.04203911e-08
5.51227259e-08
6.24828117e-09
6.72785191e-09
7.45159055e-09
4.70362454e-08
5.08176643e-08
9.6752479e-09
1.04576783e-08
1.1127322e-08
1.16776833e-08
1.23423607e-08
1.27922024e-08
1.32965836e-08
1.34927616e-08
1.35126913e-08
1.28123286e-08
1.10339997e-08
8.79373674e-09
9.12367474e-09
9.57635842e-09
1.00551464e-08
1.06886908e-08
1.13304164e-08
1.2179931e-08
1.2999978e-08
1.44862631e-08
1.5328678e-08
1.31786249e-08
1.1117032e-08
1.06500606e-08
1.08214941e-08
1.18089405e-08
1.30236918e-08
1.4841903e-08
1.49436655e-08
1.50389419e-08
1.4980242e-08
1.4682406e-08
1.43200576e-08
8.70167531e-09
1.4946864e-09
1.50714238e-09
1.57895355e-09
1.61900679e-09
1.68141191e-09
1.75262592e-09
1.90379254e-09
2.08993238e-09
1.85405002e-09
1.26643673e-09
8.31689773e-10
4.45159513e-10
2.59240663e-10
5.9284287e-10
4.81957722e-09
7.55377094e-09
2.69954532e-08
7.3831862e-08
1.23391359e-07
1.77508075e-07
3.11170877e-07
1.23362065e-06
1.38905559e-06
1.74386952e-06
2.20413624e-06
3.02244048e-06
3.90322123e-06
5.35944465e-06
7.10539787e-06
1.03633063e-05
1.32928551e-05
1.76127942e-05
2.14028761e-05
2.69734584e-05
3.06851846e-05
3.63720076e-05
4.22240611e-05
4.89318558e-05
5.04399416e-05
5.53101996e-05
6.77112747e-05
7.57207851e-05
6.61529381e-05
6.94150656e-05
8.5733893e-05
9.10049334e-05
7.56940723e-05
7.70256134e-05
9.40997749e-05
9.63095887e-05
8.76736003e-05
8.80454197e-05
9.08497635e-05
9.08913969e-05
8.5874222e-05
8.51987721e-05
8.31413795e-05
8.47991713e-05
7.60009754e-05
6.99724394e-05
7.809268e-05
9.218174e-05
5.76165275e-05
3.33109113e-05
8.13326859e-05
0.000105190212
2.34296824e-05
1.07116079e-06
7.34221255e-05
8.106802e-05
4.19741725e-07
7.63881201e-11
5.04405022e-05
6.35026408e-05
9.01245784e-11
1.06910471e-10
3.5830053e-05
5.10014976e-05
1.26361347e-10
1.3463893e-10
2.71452926e-05
4.05635964e-05
4.24042957e-06
1.64727906e-10
1.17369416e-05
3.316752e-05
1.79070316e-05
1.93602332e-10
3.10691977e-07
2.63870666e-05
1.86397181e-05
2.19403513e-10
2.14381987e-10
2.1517769e-05
)
;

boundaryField
{
    closed
    {
        type            calculated;
        value           nonuniform List<scalar> 0();
    }
    open
    {
        type            calculated;
        value           nonuniform List<scalar> 0();
    }
    sides
    {
        type            empty;
    }
    procBoundary4to3
    {
        type            processor;
        value           uniform 4.24148138e-08;
    }
    procBoundary4to5
    {
        type            processor;
        value           uniform 1.76824577e-05;
    }
}


// ************************************************************************* //
