/*--------------------------------*- C++ -*----------------------------------*\
| =========                 |                                                 |
| \\      /  F ield         | OpenFOAM: The Open Source CFD Toolbox           |
|  \\    /   O peration     | Version:  2306                                  |
|   \\  /    A nd           | Website:  www.openfoam.com                      |
|    \\/     M anipulation  |                                                 |
\*---------------------------------------------------------------------------*/
FoamFile
{
    version     2.0;
    format      ascii;
    arch        "LSB;label=32;scalar=64";
    class       volScalarField;
    location    "0.00092";
    object      Z;
}
// * * * * * * * * * * * * * * * * * * * * * * * * * * * * * * * * * * * * * //

dimensions      [0 0 0 0 0 0 0];

internalField   nonuniform List<scalar> 
531
(
0.0140772747
0.0140747666
0.0146907622
0.0148207875
0.014820137
0.0140876777
0.0140877543
0.0140809183
0.0140870444
0.0147612263
0.0148730226
0.0148384131
0.0148386213
0.0140854616
0.0140776189
0.0147612746
0.0147976101
0.0140774228
0.0140726489
0.0147288822
0.0147812347
0.0140702217
0.0140733379
0.0146798943
0.014788448
0.0147785971
0.0140738187
0.0140665985
0.0147019649
0.0147623216
0.014069391
0.0140695373
0.0146451019
0.0147719204
0.0147673901
0.0140697725
0.0140696753
0.0145985483
0.0147909023
0.0147592949
0.0140735439
0.0140634145
0.0140671173
0.0146086246
0.014761976
0.0147681939
0.0147928856
0.0140758247
0.0140763024
0.0147272269
0.0148528831
0.0148211868
0.0140841709
0.0140698086
0.0140782745
0.0147437854
0.0148454591
0.0148343833
0.0140842498
0.0140732668
0.0147725454
0.0148133109
0.0140838903
0.0140731342
0.0147782041
0.0148040314
0.0140822374
0.014073241
0.0147691788
0.0147977936
0.014078925
0.0140739907
0.0147457159
0.0147935386
0.0140738768
0.0140761335
0.0147085187
0.0148001145
0.0147937897
0.0140746762
0.0140746277
0.0146884247
0.0147983817
0.0147931145
0.0140752499
0.0140751627
0.0147066969
0.0148201139
0.0148091751
0.0140777375
0.0140742684
0.0140690788
0.0140718133
0.0146126222
0.0147889828
0.0147591597
0.0148409271
0.0148323013
0.0140838043
0.0140732544
0.014782985
0.0148104657
0.014082248
0.0140721523
0.0147759566
0.0147926454
0.0140793944
0.0140713752
0.014759752
0.0147811501
0.0140750081
0.0140715478
0.0147346809
0.0147766513
0.014068902
0.0140732095
0.0146891927
0.0147865197
0.0147791727
0.0140707655
0.0140695031
0.0146502357
0.0147836912
0.0147819312
0.0140673338
0.0140710111
0.0146871742
0.0148026127
0.014791115
0.0140735687
0.014066382
0.0147258056
0.014764575
0.014070093
0.014065862
0.0147174846
0.0147469019
0.0140656185
0.014066443
0.0146441977
0.0147451045
0.014758944
0.0147677607
0.0140689103
0.0140708124
0.0147096915
0.0147989978
0.0147922735
0.0140705553
0.0140687657
0.0147153003
0.0147765666
0.0140639746
0.0140707168
0.0146724939
0.0147903336
0.0147771497
0.0140704622
0.0140647784
0.014705974
0.0147479604
0.0140650864
0.0140653921
0.0146436998
0.0147439012
0.0147633323
0.0147648142
0.0140709823
0.0140679516
0.0147309685
0.014767468
0.0140649477
0.0140704836
0.0146741737
0.0147810627
0.0147750855
0.014068046
0.0140686319
0.0146491716
0.0147806746
0.0147761902
0.0140668498
0.0140678775
0.0146803096
0.014794247
0.0147897253
0.0140721444
0.0140718497
0.0147200465
0.0148320936
0.0148158234
0.0140745493
0.0140731441
0.0140666299
0.0140711752
0.0146180694
0.014812242
0.0147727048
0.0148692682
0.014851838
0.0140813065
0.0140717739
0.0140760074
0.01406593
0.0140700162
0.0146683759
0.0147618963
0.0147661524
0.0147794705
0.0140704314
0.0140726952
0.0147132137
0.0147954676
0.0147898751
0.0140710775
0.014070479
0.0146671352
0.0147885772
0.0147820714
0.0140672927
0.0140683626
0.0146801273
0.0147954552
0.0147843913
0.0140709934
0.0140681384
0.0147126308
0.0147691642
0.0140660564
0.0140679527
0.0146667544
0.014777178
0.0147733259
0.0140663269
0.0140675811
0.0146170386
0.0147740171
0.014766428
0.0140683351
0.0140674567
0.0146471748
0.0147595245
0.0147841119
0.014783635
0.0140809071
0.0140716755
0.0147975851
0.0147972605
0.0140822746
0.0140734535
0.0140849659
0.0140720919
0.0143105578
0.0147737881
0.0148103672
0.0148258759
0.014830659
0.01407725
0.0140804876
0.0147449736
0.0148504948
0.0148234712
0.0140804629
0.0140711693
0.0147727404
0.014770851
0.0140746488
0.01406645
0.0140736993
0.0146662322
0.0148015797
0.0147889322
0.0140697768
0.0140708357
0.0146779849
0.0148176746
0.0147686575
0.0140788732
0.0140644502
0.0140737584
0.0146407501
0.0148032718
0.0147676025
0.014852845
0.0148497701
0.0140767577
0.0140755545
0.0140686898
0.0140711855
0.014700575
0.0148108591
0.0148026823
0.0140709017
0.0140710722
0.0147069141
0.0148355033
0.014785486
0.0140791281
0.0140666356
0.014074004
0.0146985511
0.0148133061
0.0147746108
0.0140759333
0.0140656693
0.01406984
0.0145757189
0.0147526006
0.0147602448
0.0147675025
0.0140727095
0.0140714048
0.0147221799
0.0147782038
0.0148078813
0.0148085943
0.0140771405
0.0140751254
0.0140692052
0.0140718815
0.01466394
0.0147879319
0.0147864853
0.0148167074
0.0140750353
0.0140791028
0.0147608146
0.0148751462
0.0148558505
0.0140805656
0.0140778397
0.0140723146
0.0140757142
0.0146507637
0.014790158
0.0147980059
0.0148019264
0.014079532
0.0140747674
0.0148035872
0.0147964015
0.0140773901
0.0140719146
0.0140786811
0.0147165273
0.0148333634
0.0148197585
0.0140768354
0.0140782574
0.0147387365
0.0148551499
0.0148363071
0.0140781054
0.0140794495
0.0140709131
0.0140780423
0.0146697271
0.0148341638
0.0147873488
0.0148873488
0.0148798283
0.0140785326
0.0140794689
0.0140710731
0.0140767026
0.0147192419
0.0148553249
0.0147966574
0.0140759872
0.0140633104
0.0140715038
0.0147202343
0.0148087792
0.0147899924
0.0140611303
0.0140581429
0.0147228744
0.0147640998
0.0140456803
0.0140521161
0.0146331862
0.0147692173
0.0147879467
0.0148095178
0.0140367328
0.0140443692
0.0147751583
0.0149391933
0.0148736812
0.0140305212
0.0140174543
0.0140292746
0.0140136651
0.0140245925
0.0140103117
0.0140192519
0.0147908815
0.0148344567
0.0140136292
0.0140048498
0.0140054925
0.0147117028
0.014739732
0.0139775979
0.0139692767
0.0139559063
0.0139340219
0.013919425
0.0138919041
0.0138707599
0.01383639
0.0138017986
0.0137474811
0.0136752728
0.0135853286
0.0135508077
0.0135107162
0.0134757004
0.0134353701
0.0134018238
0.0133616624
0.0133303239
0.0132874149
0.0132351237
0.0130954822
0.0129753602
0.0128716619
0.0128000178
0.0127143468
0.0126555322
0.0125931566
0.0125832852
0.0125694737
0.0125532201
0.0125550307
0.01251605
0.0122645353
0.0117437169
0.0117597799
0.0117449624
0.011750364
0.0117603786
0.0117715446
0.0118148169
0.0118489334
0.0118387744
0.0117205768
0.011662303
0.011558187
0.0114786066
0.0113853786
0.0111855597
0.0112913514
0.0115749439
0.011688129
0.0117867134
0.0119268987
0.012125293
0.0126024254
0.0126158434
0.0126793699
0.0127361043
0.0128316652
0.0129069855
0.0130142656
0.0131095894
0.0132508804
0.0133499524
0.0134755964
0.0135821788
0.0137098528
0.0137451541
0.0138309966
0.0140055638
0.0141330693
0.0140243869
0.0140881632
0.01440928
0.0145141802
0.0142053761
0.0142424659
0.0145854878
0.0146500925
0.0143523021
0.0143843861
0.0146673198
0.014697075
0.0145940839
0.0146103145
0.0146562304
0.0146637162
0.0146108243
0.0146106198
0.0145862711
0.0146071061
0.0145011053
0.0144317734
0.0145424293
0.0147197474
0.0142821773
0.0140368074
0.0146038967
0.0148433795
0.0139669775
0.0137449819
0.014536848
0.0146841203
0.0137783134
0.0137421065
0.0143594969
0.014529875
0.013784174
0.0138150677
0.014250992
0.0144301977
0.0138497334
0.0138549093
0.0141822285
0.0143515626
0.0139832996
0.0138830663
0.014070179
0.0142922266
0.0141277542
0.0139042689
0.0139340359
0.0142343892
0.0141488956
0.0139205433
0.0139065454
0.014186299
)
;

boundaryField
{
    closed
    {
        type            zeroGradient;
    }
    open
    {
        type            zeroGradient;
    }
    sides
    {
        type            empty;
    }
    procBoundary4to3
    {
        type            processor;
        value           uniform 0.0147792406;
    }
    procBoundary4to5
    {
        type            processor;
        value           uniform 0.0141456146;
    }
}


// ************************************************************************* //
