/*--------------------------------*- C++ -*----------------------------------*\
| =========                 |                                                 |
| \\      /  F ield         | OpenFOAM: The Open Source CFD Toolbox           |
|  \\    /   O peration     | Version:  2306                                  |
|   \\  /    A nd           | Website:  www.openfoam.com                      |
|    \\/     M anipulation  |                                                 |
\*---------------------------------------------------------------------------*/
FoamFile
{
    version     2.0;
    format      ascii;
    arch        "LSB;label=32;scalar=64";
    class       surfaceScalarField;
    location    "0.00036";
    object      phi;
}
// * * * * * * * * * * * * * * * * * * * * * * * * * * * * * * * * * * * * * //

dimensions      [1 0 -1 0 0 0 0];

oriented        oriented;

internalField   nonuniform List<scalar> 
529
(
4.10844591e-07
7.79594345e-07
1.04404563e-06
8.0059668e-07
3.44759725e-07
2.5741492e-08
-1.8429033e-07
-2.75074543e-07
-2.69833216e-07
-2.43951899e-07
-1.65825966e-07
2.1812752e-08
3.2855224e-07
6.3905153e-07
7.67586069e-07
6.61984871e-07
5.19057797e-07
6.20264695e-07
1.09052116e-06
1.52193806e-06
1.55480426e-06
1.51798561e-06
1.71064643e-06
1.85599905e-06
1.792601e-06
1.87189222e-06
2.18823471e-06
2.23353863e-06
1.6990387e-06
1.01849336e-06
6.23155851e-07
7.25102707e-07
1.06732864e-06
1.26151486e-06
1.07004895e-06
7.23291618e-07
3.7869736e-07
4.24496465e-08
-2.40588898e-07
-3.63685468e-07
-3.31664418e-07
-3.60519574e-07
-6.34170946e-07
-1.04720861e-06
-1.32344655e-06
-1.31402617e-06
-1.07278407e-06
-7.60300683e-07
-4.70277371e-07
-2.74190351e-07
-2.19767882e-07
-2.97661732e-07
-3.95473335e-07
-4.04717903e-07
-3.00868234e-07
-1.67980603e-07
-7.16057482e-08
-6.32885903e-08
-1.66522067e-07
-3.22941387e-07
-5.22010421e-07
-7.38047223e-07
-9.33099931e-07
-1.0676821e-06
-1.12006687e-06
-1.09639706e-06
-1.02927464e-06
-9.55254627e-07
-8.84382158e-07
-8.10984235e-07
-7.33745677e-07
-6.45603936e-07
-5.35221947e-07
-3.97500901e-07
-2.3282478e-07
-4.57353554e-08
1.56472571e-07
3.70140747e-07
5.89956241e-07
8.03307054e-07
1.00035843e-06
1.17772265e-06
1.3394142e-06
1.49018993e-06
1.63064485e-06
1.75773691e-06
1.86835124e-06
1.96184422e-06
2.04032283e-06
2.10720637e-06
2.16565218e-06
2.21790783e-06
2.26540929e-06
2.30909553e-06
2.3496958e-06
2.38779339e-06
2.42376875e-06
2.45838267e-06
2.49337893e-06
2.52895106e-06
2.56113958e-06
2.58981739e-06
2.62479818e-06
2.66825579e-06
2.69340046e-06
2.70523612e-06
2.72077429e-06
2.79302315e-06
2.81265381e-06
2.82602516e-06
2.80661756e-06
2.93541153e-06
2.9930876e-06
2.89429238e-06
2.88092415e-06
2.9807578e-06
3.18996929e-06
3.11694929e-06
2.82000171e-06
2.82530504e-06
3.08223296e-06
3.08286945e-06
2.8998817e-06
2.88313277e-06
3.16798157e-06
3.20466409e-06
3.06765541e-06
3.07994262e-06
3.08375351e-06
3.14796733e-06
3.13127012e-06
3.11398653e-06
3.11756619e-06
3.21260689e-06
3.23491707e-06
3.21879931e-06
3.2257975e-06
3.26114243e-06
3.27874117e-06
3.32219571e-06
3.24647229e-06
3.24226759e-06
3.3556699e-06
3.38408675e-06
3.36659566e-06
3.36250668e-06
3.39384946e-06
3.40801988e-06
3.23018755e-06
3.22556378e-06
3.21966345e-06
3.34127717e-06
3.33078537e-06
3.32528138e-06
3.31527489e-06
3.32156151e-06
3.25399995e-06
3.18672637e-06
3.28015323e-06
3.28686351e-06
3.29817302e-06
3.25378161e-06
3.34209615e-06
3.36624464e-06
3.27891123e-06
3.2635466e-06
3.23892737e-06
3.28254624e-06
3.25792076e-06
3.24504704e-06
3.22291692e-06
3.22949625e-06
3.21578262e-06
2.97273135e-06
2.9511595e-06
2.95378922e-06
3.01168532e-06
2.95420088e-06
2.97489067e-06
2.93438371e-06
2.88366466e-06
2.84623936e-06
2.85138428e-06
2.81474877e-06
2.79682458e-06
2.75931909e-06
2.59255541e-06
2.5908084e-06
2.55866356e-06
2.55555821e-06
2.52074999e-06
2.56986578e-06
2.5430278e-06
2.52452498e-06
2.48594614e-06
2.40734307e-06
2.37906835e-06
2.54123614e-06
2.452938e-06
2.45854261e-06
2.49824077e-06
2.83508571e-06
2.74282111e-06
2.64334083e-06
2.73341965e-06
2.97743716e-06
2.81704823e-06
2.60256412e-06
2.68835022e-06
2.73818209e-06
2.68908087e-06
2.55606911e-06
2.52088661e-06
2.49111817e-06
2.4910813e-06
2.41779384e-06
2.37640726e-06
2.35862634e-06
2.62893543e-06
2.50808189e-06
2.20387707e-06
2.32523502e-06
2.41543588e-06
2.38053853e-06
2.18758955e-06
2.14999522e-06
2.21939595e-06
2.21295517e-06
2.10947201e-06
2.06409125e-06
2.04968976e-06
2.07168293e-06
2.02426882e-06
1.98414324e-06
1.9740047e-06
2.31143693e-06
2.22433591e-06
2.10514388e-06
2.14596167e-06
2.11987906e-06
2.01409539e-06
1.99267736e-06
2.14314258e-06
2.13607215e-06
2.13320699e-06
2.10862091e-06
1.93318708e-06
1.97108115e-06
2.02723075e-06
2.0642921e-06
1.90196442e-06
1.91405197e-06
2.22065264e-06
2.24307355e-06
2.27634373e-06
2.28672341e-06
2.32182439e-06
2.3508654e-06
2.37893793e-06
2.43883234e-06
2.48895612e-06
2.46356114e-06
2.44970927e-06
2.50096396e-06
2.63628957e-06
2.67140532e-06
2.68949156e-06
2.74803098e-06
3.10005017e-06
3.16285155e-06
3.12733803e-06
3.14064514e-06
3.18416456e-06
3.24574387e-06
3.31452416e-06
3.25860202e-06
3.30770584e-06
3.36312437e-06
3.41877698e-06
3.40943318e-06
3.4517694e-06
3.55470622e-06
3.63340272e-06
3.65165826e-06
3.52392793e-06
3.54098797e-06
3.56033305e-06
3.59550951e-06
3.61660329e-06
3.6378564e-06
3.7057606e-06
3.69541629e-06
3.71161646e-06
3.73865839e-06
3.77280721e-06
3.83979585e-06
3.90000756e-06
3.94563326e-06
3.96458962e-06
4.11964806e-06
4.36128417e-06
4.32507864e-06
4.31113273e-06
4.32948518e-06
4.40536606e-06
4.36667496e-06
4.34364187e-06
4.50029232e-06
4.77230568e-06
4.8085911e-06
4.84877862e-06
4.85650675e-06
4.97101559e-06
5.04692342e-06
5.07669762e-06
5.09408095e-06
5.12696348e-06
5.18770319e-06
5.25053192e-06
5.29121033e-06
5.32765609e-06
5.35969142e-06
5.40641288e-06
5.46530669e-06
5.53494416e-06
5.60254341e-06
5.66738625e-06
5.72634578e-06
5.82688053e-06
5.94879451e-06
6.0524396e-06
6.11580175e-06
6.09145747e-06
6.18842441e-06
6.34668933e-06
6.31812285e-06
6.01180812e-06
6.06674073e-06
6.18722925e-06
6.42229883e-06
6.36689071e-06
6.11043634e-06
6.11437781e-06
6.21795668e-06
6.2887384e-06
5.96806858e-06
5.96368842e-06
5.97095947e-06
6.2842873e-06
6.28680975e-06
5.93965149e-06
5.90152251e-06
5.97890492e-06
5.98628934e-06
5.67145552e-06
5.62077375e-06
5.57016843e-06
5.58769011e-06
5.57652104e-06
5.40704826e-06
5.35768623e-06
5.63880488e-06
5.63298216e-06
5.4321849e-06
5.22738743e-06
5.41940212e-06
5.40936457e-06
5.36152864e-06
5.25218039e-06
5.20178256e-06
5.18406721e-06
5.11316842e-06
5.03072465e-06
4.96369389e-06
4.90506499e-06
4.84335443e-06
4.77299772e-06
4.70047589e-06
4.63337338e-06
4.57186299e-06
4.51037612e-06
4.43623382e-06
4.35392399e-06
4.31061142e-06
4.28560788e-06
4.21849632e-06
4.13491772e-06
4.13254026e-06
4.16871932e-06
4.11144827e-06
3.92479744e-06
3.7777126e-06
3.80738704e-06
3.84852764e-06
3.74556474e-06
3.7193382e-06
3.69121663e-06
4.24084424e-06
4.19084419e-06
4.02179309e-06
3.95990519e-06
3.9119429e-06
3.90697157e-06
3.85413422e-06
3.72759456e-06
3.68861936e-06
3.88368959e-06
3.80403865e-06
3.67568805e-06
3.58314535e-06
3.52408161e-06
3.49485546e-06
3.37993601e-06
3.24923958e-06
3.21963478e-06
3.36511609e-06
3.2342941e-06
3.21052534e-06
3.23098665e-06
3.41223835e-06
3.37081569e-06
3.33494034e-06
3.25021924e-06
3.26457832e-06
3.24927079e-06
3.19944652e-06
3.13877194e-06
3.1346351e-06
3.12982877e-06
3.09349951e-06
3.04017642e-06
3.07037529e-06
3.12333334e-06
3.10941677e-06
3.10423641e-06
3.12958623e-06
3.35062155e-06
3.35087571e-06
3.2139665e-06
3.12453073e-06
3.10928312e-06
3.3230614e-06
3.24928129e-06
3.15026925e-06
3.10223024e-06
3.06986765e-06
3.0715621e-06
3.0065487e-06
2.95088819e-06
2.93424805e-06
3.249081e-06
3.18055604e-06
2.95045861e-06
2.89182565e-06
3.16646957e-06
3.16609055e-06
3.17407051e-06
3.12296608e-06
3.16498398e-06
3.21049327e-06
3.19652645e-06
3.17201853e-06
3.18174189e-06
3.21311988e-06
3.21027601e-06
3.20228273e-06
3.20010117e-06
3.21057383e-06
3.21687416e-06
3.21612526e-06
3.21593569e-06
3.21982505e-06
3.22267246e-06
3.22200875e-06
3.22067972e-06
3.22098988e-06
3.22024403e-06
3.21529122e-06
3.20959533e-06
3.21494983e-06
3.22332629e-06
3.21440381e-06
3.19239771e-06
3.2050939e-06
3.21825589e-06
3.21943422e-06
3.0978352e-06
3.05339394e-06
3.0910422e-06
3.14479151e-06
3.06632209e-06
3.08169024e-06
3.05944175e-06
3.07753234e-06
3.0720592e-06
3.06867515e-06
3.08100353e-06
3.14293716e-06
3.15717611e-06
3.1805614e-06
3.18742526e-06
3.10192555e-06
3.11189395e-06
3.56827307e-06
3.59293602e-06
3.36977889e-06
3.41384737e-06
3.43263191e-06
3.59146566e-06
3.7449023e-06
3.59077612e-06
3.74757819e-06
3.88959359e-06
3.95764791e-06
3.98762281e-06
3.98854233e-06
4.05518824e-06
4.187861e-06
4.23285493e-06
4.22743549e-06
4.17599555e-06
4.186117e-06
4.60473128e-06
4.66384627e-06
4.43132539e-06
4.4645922e-06
4.46249987e-06
4.60303421e-06
4.63222867e-06
)
;

boundaryField
{
    closed
    {
        type            calculated;
        value           uniform 0;
    }
    open
    {
        type            calculated;
        value           nonuniform List<scalar> 0();
    }
    sides
    {
        type            empty;
        value           nonuniform List<scalar> 0();
    }
    procBoundary0to1
    {
        type            processor;
        value           uniform 4.55743118e-06;
    }
}


// ************************************************************************* //
