/*--------------------------------*- C++ -*----------------------------------*\
| =========                 |                                                 |
| \\      /  F ield         | OpenFOAM: The Open Source CFD Toolbox           |
|  \\    /   O peration     | Version:  2306                                  |
|   \\  /    A nd           | Website:  www.openfoam.com                      |
|    \\/     M anipulation  |                                                 |
\*---------------------------------------------------------------------------*/
FoamFile
{
    version     2.0;
    format      ascii;
    arch        "LSB;label=32;scalar=64";
    class       volScalarField;
    location    "0.001";
    object      p;
}
// * * * * * * * * * * * * * * * * * * * * * * * * * * * * * * * * * * * * * //

dimensions      [1 -1 -2 0 0 0 0];

internalField   nonuniform List<scalar> 
531
(
101430.774
101431.25
101431.123
101430.731
101430.2
101429.644
101429.144
101428.498
101427.924
101427.533
101427.472
101427.603
101427.833
101428.479
101429.473
101430.677
101432.03
101433.728
101435.684
101437.745
101439.91
101442.339
101444.928
101447.618
101450.33
101453.09
101456.045
101459.101
101462.184
101465.295
101468.357
101471.445
101474.57
101477.717
101480.821
101483.892
101486.825
101489.523
101491.936
101493.975
101495.561
101496.78
101497.543
101497.812
101497.632
101496.984
101495.885
101494.414
101492.527
101490.225
101487.802
101485.167
101482.492
101479.693
101476.873
101474.203
101471.831
101469.608
101467.636
101466.074
101465.081
101464.747
101465.158
101466.304
101468.258
101471.177
101474.818
101479.171
101484.254
101490.32
101495.964
101503.113
101510.837
101518.9
101527.015
101535.535
101544.943
101554.731
101564.609
101573.543
101583.023
101592.841
101602.525
101611.916
101619.933
101628.181
101636.41
101644.311
101652.013
101658.36
101664.907
101671.263
101677.248
101683.095
101687.791
101692.83
101697.839
101702.763
101707.871
101712.142
101716.932
101721.7
101726.222
101730.657
101733.992
101737.479
101740.585
101743.235
101745.902
101747.858
101750.314
101752.749
101755.004
101757.566
101760.253
101762.2
101764.304
101766.482
101768.333
101770.056
101771.502
101771.971
101772.625
101773.241
101773.994
101775.034
101775.64
101776.788
101777.725
101778.003
101778.451
101777.436
101776.428
101775.246
101774.412
101773.515
101773.237
101772.903
101772.592
101772.772
101772.938
101773.736
101774.466
101775.289
101776.782
101776.496
101775.742
101774.51
101773.161
101771.39
101769.272
101766.203
101762.477
101758.379
101754.01
101749.265
101743.687
101737.667
101731.462
101725.371
101719.016
101712.028
101704.83
101697.641
101690.817
101683.853
101676.388
101668.777
101660.818
101652.139
101643.143
101633.883
101626.536
101615.739
101605.201
101594.435
101583.501
101571.861
101559.516
101547.855
101535.957
101524.081
101512.485
101501.142
101491.313
101481.769
101472.585
101463.615
101454.537
101446.315
101437.713
101428.879
101419.843
101410.184
101400.637
101390.074
101378.35
101365.062
101351.527
101336.224
101319.255
101300.128
101278.288
101255.661
101231.048
101206.235
101182.976
101159.805
101135.907
101111.583
101087.188
101060.223
101027.517
100991.803
100952.446
100913.147
100874.023
100833.436
100795.264
100756.503
100709.497
100648.997
100630.26
100601.354
100565.812
100527.015
100487.709
100450.073
100414.452
100380.909
100347.646
100317.668
100289.638
100263.848
100240.64
100220.4
100204.137
100192.548
100185.095
100183.058
100184.194
100215.893
100253.132
100295.882
100340.857
100391.306
100445.554
100504.41
100564.202
100624.533
100687.716
100752.969
100822.036
100892.651
100968.178
101047.264
101128.121
101205.427
101280.582
101352.738
101422.354
101487.349
101550.755
101613.408
101675.813
101734.684
101789.743
101841.928
101891.472
101938.137
101980.395
102019.236
102055.353
102088.864
102118.628
102144.751
102168.777
102192.749
102216.453
102237.742
102256.018
102272.345
102288.876
102306.691
102325.465
102343.939
102360.808
102376.174
102389.718
102400.037
102407.125
102413.564
102421.719
102431.364
102441.528
102450.346
102458.257
102465.342
102470.87
102476.05
102481.821
102490.372
102500.556
102509.853
102517.089
102519.641
102517.979
102513.69
102509.91
102509.914
102517.115
102522.728
102531.281
102541.915
102548.901
102551.79
102550.902
102548.837
102548.468
102547.853
102547.128
102548.477
102553.595
102549.94
102542.098
102531.867
102520.609
102507.782
102492.326
102474.978
102456.295
102437.792
102416.154
102392.004
102365.545
102342.39
102313.386
102279.601
102245.246
102210.051
102171.943
102128.522
102081.829
102032.464
101980.841
101927.492
101873.409
101819.046
101763.708
101705.511
101644.557
101583.077
101520.278
101455.214
101384.944
101312.513
101238.917
101163.433
101084.171
101006.319
100931.712
100857.097
100773.456
100695.211
100617.794
100537.038
100454.846
100368.513
100282.427
100195.75
100113.03
100071.357
99991.132
99923.4562
99868.9974
99827.43
99794.5668
99773.576
99761.9528
99760.7946
99768.2102
99784.8457
99808.3866
99835.6045
99866.9482
99901.1963
99936.8617
99972.7238
100011.979
100056.037
100103.82
100149.185
100195.884
100250.128
100316.326
100378.982
100473.027
100551.367
100622.655
100681.171
100730.392
100769.946
100805.757
100837.526
100864.304
100880.678
100894.279
100935.695
100977.163
101008.846
101036.667
101061.138
101083.269
101104.879
101123.926
101142.731
101161.148
101179.564
101194.893
101210.059
101224.866
101239.948
101253.521
101266.872
101279.738
101292.414
101305.282
101317.269
101329.004
101340.546
101351.814
101363.037
101374.117
101385.249
101396.504
101407.965
101419.18
101429.21
101438.912
101448.411
101457.735
101466.836
101472.861
101480.404
101487.852
101494.855
101502.037
101507.632
101513.903
101519.386
101525.491
101529.21
101533.343
101536.406
101539.334
101541.363
101543.084
101544.208
101544.613
101544.513
101544.103
101543.161
101541.874
101540.294
101538.427
101536.231
101533.808
101531.311
101528.697
101525.609
101522.176
101518.535
101514.664
101509.915
101505.003
101500.175
101495.143
101489.601
101483.998
101478.013
101472.31
101466.612
101460.67
101454.711
101448.491
101442.57
101436.572
101430.182
101423.691
101416.996
101410.833
101404.759
101398.688
101392.307
101386.417
101380.18
101373.86
101367.55
101361.82
101356.097
101350.391
101344.698
101338.922
101333.737
101328.567
101323.521
101318.586
101313.691
101309.446
101305.271
101301.312
101297.484
101293.705
101290.481
101287.286
101284.324
101281.479
101278.676
101276.34
101273.995
101271.89
101269.923
101268.069
101266.745
101265.518
101264.701
101264.171
101263.852
101263.996
101264.176
101264.606
)
;

boundaryField
{
    closed
    {
        type            zeroGradient;
    }
    open
    {
        type            waveTransmissive;
        gamma           1.25;
        fieldInf        101325;
        lInf            1;
        value           nonuniform List<scalar> 0();
    }
    sides
    {
        type            empty;
    }
    procBoundary3to2
    {
        type            processor;
        value           uniform 101429.84;
    }
    procBoundary3to4
    {
        type            processor;
        value           uniform 101265.245;
    }
}


// ************************************************************************* //
