/*--------------------------------*- C++ -*----------------------------------*\
| =========                 |                                                 |
| \\      /  F ield         | OpenFOAM: The Open Source CFD Toolbox           |
|  \\    /   O peration     | Version:  2306                                  |
|   \\  /    A nd           | Website:  www.openfoam.com                      |
|    \\/     M anipulation  |                                                 |
\*---------------------------------------------------------------------------*/
FoamFile
{
    version     2.0;
    format      ascii;
    arch        "LSB;label=32;scalar=64";
    class       volScalarField;
    location    "0.0013";
    object      h;
}
// * * * * * * * * * * * * * * * * * * * * * * * * * * * * * * * * * * * * * //

dimensions      [0 2 -2 0 0 0 0];

internalField   nonuniform List<scalar> 
530
(
-1227.6391
-687.858666
-278.844647
247.218604
646.003889
1160.05107
1550.51164
2054.09334
2438.18631
2932.67942
3251.75733
3654.21218
3944.06838
4338.87885
4622.81514
5010.35676
5289.30391
5670.14899
5944.88948
6319.7051
6590.97228
6960.47404
7228.98753
7604.5971
7895.81526
8288.09297
8575.63665
8924.49136
9145.83798
9462.46732
9679.88288
9988.7007
10202.2207
10503.8498
10713.6331
11008.6048
11214.8604
11503.6743
11706.6319
11989.7771
12189.6793
12467.6406
12664.744
12938.0033
13132.5807
13401.619
13593.9619
13859.2604
14049.683
14311.7206
14500.5718
14759.8094
14947.5034
15204.3383
15371.1413
15580.2011
15722.5652
15928.3574
16067.85
16270.3603
16407.1137
16606.3998
16740.5088
16936.6444
17068.1993
17261.2559
17390.3494
17580.3963
17707.1196
17894.2324
18018.6663
18202.9406
18325.1423
18506.7109
18626.6992
18805.7508
18923.4907
19100.2857
19215.6783
19390.5528
19503.4444
19676.7799
19787.0195
19959.1187
20066.7295
20237.4643
20343.0287
20500.0083
20611.0817
20763.2583
20880.0795
21025.3482
21152.1003
21285.0043
21420.0432
21542.5874
21684.5443
21798.4318
21946.1852
22052.8913
22205.445
22284.5015
22411.3724
22481.3355
22609.3156
22674.5383
22802.563
22864.0412
22991.0315
23049.6525
23168.7317
23225.5802
23346.8842
23402.9555
23520.3442
23576.0427
23689.0275
23744.6075
23852.924
23908.4854
24012.0466
24067.5582
24166.4042
24221.7435
24315.9902
24370.9844
24460.7802
24515.2376
24600.7349
24654.4644
24735.8052
24788.625
24865.9365
24917.6772
24991.0724
25041.5767
25111.1568
25160.2782
25226.1353
25273.7371
25335.9558
25381.9104
25440.5688
25484.7568
25539.9276
25582.238
25633.9879
25674.3179
25722.7085
25760.9638
25806.0506
25842.146
25883.9785
25917.8383
25956.4597
25988.0178
26023.4651
26052.6651
26084.9704
26111.7644
26140.9565
26165.3026
26191.4104
26213.2697
26236.326
26255.6589
26275.7037
26292.4673
26309.549
26323.6998
26337.8711
26349.3724
26360.678
26369.5048
26377.9619
26384.0751
26389.6666
26392.9658
26395.6898
26396.2104
26396.2106
26396.3176
26393.8039
26390.2411
26382.5868
26377.9314
26366.8512
26360.3455
26346.2443
26337.6705
26320.5753
26309.9239
26289.8738
26277.1375
26254.2609
26239.3911
26213.868
26196.8044
26168.8222
26149.5233
26119.2552
26097.711
26065.3129
26041.5447
26007.1584
25981.2144
25944.9751
25912.266
25863.6875
25820.7043
25769.7413
25724.1072
25670.8013
25622.5319
25566.9208
25516.0378
25458.1574
25404.6875
25344.5735
25288.547
25226.5936
25169.171
25105.7309
25045.9008
24980.3354
24918.1309
24850.4799
24785.9379
24716.2405
24649.4016
24577.6968
24508.6049
24434.9312
24363.6334
24288.0296
24214.5751
24137.0803
24061.5204
23982.1743
23904.562
23823.4052
23743.7949
23660.8688
23579.3162
23494.6633
23411.2249
23324.8888
23239.6219
23151.6477
23064.6094
22975.0443
22886.2911
22795.185
22704.7712
22612.1779
22520.1556
22426.1325
22332.5521
22237.8419
22143.8172
22047.9955
21952.3733
21855.0664
21757.9029
21659.176
21560.5322
21460.4479
21360.3883
21259.0077
21157.599
21054.9826
20952.2921
20848.5006
20744.5962
20639.6906
20534.6403
20428.682
20322.5538
20215.6047
20108.4665
20000.589
19892.5084
19783.765
19674.8094
19565.2632
19455.4993
19345.2137
19234.7072
19123.7466
19012.5618
18900.9917
18789.191
18677.0783
18564.7223
18452.1354
18339.2829
18226.2917
18113.0012
17999.96
17887.4952
17775.0679
17662.4371
17549.8398
17437.0859
17324.3791
17211.5477
17098.7887
16985.9278
16873.1712
16760.33
16647.628
16534.8566
16422.2596
16309.6079
16197.1648
16084.6823
15972.4411
15860.1765
15748.1842
15636.1853
15524.4878
15412.8014
15301.444
15190.1159
15079.1428
14968.2177
14857.6722
14747.1937
14637.1183
14527.1289
14417.5649
14308.106
14199.094
14090.2059
13981.785
13873.507
13765.7156
13658.0858
13550.9609
13444.0164
13337.5939
13231.3709
13125.6852
13020.219
12915.3032
12810.6284
12706.514
12602.6645
12499.3814
12396.3905
12293.967
12191.8668
12090.3305
11989.1503
11888.53
11788.2918
11688.6216
11589.3344
11491.4573
11394.0793
11297.2612
11200.8235
11104.9608
11009.4853
10914.6092
10820.1226
10726.258
10632.7873
10539.9566
10447.5274
10355.7518
10264.3879
10173.6879
10083.4112
9993.80665
9904.63733
9816.14704
9728.10397
9640.74559
9553.84617
9467.63628
9381.89659
9296.85057
9212.28543
9128.41744
9045.04045
8962.36347
8880.18704
8798.71284
8717.74819
8637.48739
8557.74457
8478.70667
8400.19453
8322.38801
8245.11414
8168.54651
8092.51725
8017.19513
7942.41545
7868.34466
7794.81818
7722.0037
7649.73263
7578.1786
7507.11951
7436.67001
7366.77544
7297.59858
7228.98615
7161.08291
7093.74996
7027.11977
6961.06321
6895.70417
6830.92039
6766.82938
6703.3142
6640.4871
6578.23569
6516.66746
6455.6743
6395.35909
6335.61796
6276.54915
6218.05313
6160.22342
6102.96487
6046.36628
5990.33689
5934.9608
5880.15162
5825.98878
5772.39024
5719.43081
5667.03274
5615.26631
5564.05799
5513.4736
5463.44376
5414.02994
5365.16679
5316.91158
5269.20287
5222.09382
5175.52684
5129.55106
5084.11265
5039.25686
4994.93346
4951.18395
4907.96164
4865.25941
4821.53244
4775.35287
4726.5933
4675.21313
4621.09691
4564.22127
4504.4921
4441.91119
4376.41789
4308.04892
4236.79181
4162.72991
4085.9166
4006.49472
3924.60306
3840.45755
3754.30227
3666.4382
3577.23229
3487.07814
3396.47565
3305.90977
3216.00953
3127.33514
3040.61883
2956.45892
2875.63485
2798.72059
2726.4531
2659.29621
2597.82756
2542.30656
2493.03039
2449.98309
2413.09637
2382.07474
2356.48216
2335.83497
2319.43739
2306.77171
2297.09273
2289.93332
2284.76208
2281.16818
2278.37273
2276.27928
2274.89241
2274.15246
2273.98342
2273.90221
2273.88962
2273.89046
2273.89258
2273.89381
2273.89436
2273.89454
2273.89459
2273.89461
2273.89461
2273.89461
2273.89461
2273.89461
2273.89461
2273.89461
2273.89461
2273.89461
2273.89461
2273.89461
2273.89461
2273.89461
2273.89461
2273.89461
2273.89461
2273.89461
2273.89461
2273.89461
2273.89461
)
;

boundaryField
{
    closed
    {
        type            lookUpEnthalpy;
        h0              nonuniform List<scalar> 0();
        value           nonuniform List<scalar> 0();
    }
    open
    {
        type            zeroGradient;
    }
    sides
    {
        type            empty;
    }
    procBoundary5to4
    {
        type            processor;
        value           uniform -1648.74398;
    }
}


// ************************************************************************* //
