/*--------------------------------*- C++ -*----------------------------------*\
| =========                 |                                                 |
| \\      /  F ield         | OpenFOAM: The Open Source CFD Toolbox           |
|  \\    /   O peration     | Version:  2306                                  |
|   \\  /    A nd           | Website:  www.openfoam.com                      |
|    \\/     M anipulation  |                                                 |
\*---------------------------------------------------------------------------*/
FoamFile
{
    version     2.0;
    format      ascii;
    arch        "LSB;label=32;scalar=64";
    class       volScalarField;
    location    "0.00138";
    object      H;
}
// * * * * * * * * * * * * * * * * * * * * * * * * * * * * * * * * * * * * * //

dimensions      [0 0 0 0 0 0 0];

internalField   nonuniform List<scalar> 
530
(
1.37165913e-08
2.19054808e-08
2.22881691e-08
2.22517719e-08
2.22483147e-08
2.22482516e-08
2.22482495e-08
2.22482494e-08
2.22482494e-08
2.22482494e-08
2.22482494e-08
2.22482494e-08
2.22482494e-08
2.22482494e-08
2.22482494e-08
2.22482494e-08
2.22482494e-08
2.22482494e-08
2.22482494e-08
2.22482494e-08
2.22482494e-08
2.22482494e-08
2.22482494e-08
2.22482494e-08
2.22482494e-08
2.22482494e-08
2.22482494e-08
2.22482494e-08
2.22482494e-08
2.22482494e-08
2.22482494e-08
2.22482494e-08
2.22482494e-08
2.22482494e-08
2.22482494e-08
2.22482494e-08
2.22482494e-08
2.22482494e-08
2.22482494e-08
2.22482494e-08
2.22482494e-08
2.22482494e-08
2.22482494e-08
2.22482494e-08
2.22482494e-08
2.22482494e-08
2.22482494e-08
2.22482494e-08
2.22482494e-08
2.22482494e-08
2.22482494e-08
2.22482494e-08
2.22482494e-08
2.22482494e-08
2.22482494e-08
2.22482494e-08
2.22482494e-08
2.22482494e-08
2.22482494e-08
2.22482494e-08
2.22482494e-08
2.22482495e-08
2.22482495e-08
2.22482497e-08
2.22482499e-08
2.22482518e-08
2.22482524e-08
2.22482632e-08
2.22482574e-08
2.22483406e-08
2.2248396e-08
2.22480822e-08
2.22481035e-08
2.2251884e-08
2.22524173e-08
2.22347653e-08
2.22017197e-08
2.22555031e-08
2.26354501e-08
2.26153892e-08
2.08782284e-08
2.07737312e-08
2.46036542e-08
2.53628338e-08
2.0988654e-08
2.06961328e-08
2.74182139e-08
4.2457354e-08
3.44039802e-08
7.59130855e-10
1.45583728e-09
1.0360436e-09
3.13213882e-08
5.21772119e-08
4.92863887e-08
5.9267771e-09
1.28983156e-09
1.02534455e-09
3.1091221e-08
5.65016594e-08
5.39091102e-08
7.79380939e-10
1.139766e-09
9.27449124e-10
1.21828568e-09
1.10778838e-09
3.80703089e-08
4.69843837e-08
5.43764734e-08
5.37907748e-08
9.28348428e-10
1.18032271e-09
1.04595926e-09
3.77039177e-08
4.33339929e-08
1.08761132e-09
1.31302759e-09
1.17013938e-09
2.43292691e-08
4.19589101e-08
4.19055916e-08
4.41663125e-08
4.66004076e-08
5.18000422e-08
3.12717016e-08
1.0892159e-09
1.43277648e-09
1.21850995e-09
1.376182e-09
3.60906471e-08
3.9003264e-08
9.98861012e-10
1.35888805e-09
1.08756946e-09
3.53182884e-08
4.77376642e-08
5.28209283e-08
5.26756774e-08
9.51568014e-10
1.13814308e-09
4.28984553e-08
4.61535137e-08
1.13967959e-09
1.19882086e-09
3.264284e-08
4.53365834e-08
3.00686117e-08
1.16311981e-09
1.34769423e-09
1.29342313e-09
1.26499517e-09
3.19052626e-08
4.51347804e-08
4.37998116e-08
4.99398891e-08
2.56452371e-08
1.10042672e-09
2.59243118e-08
4.56650863e-08
2.8504929e-08
1.20864539e-09
1.40339192e-09
3.47831343e-08
4.33839514e-08
1.0707836e-09
1.27799541e-09
4.17083418e-08
4.47834706e-08
9.55481718e-10
1.24174772e-09
4.47774598e-08
4.43310604e-08
8.24446923e-10
1.2125977e-09
1.00375743e-09
4.3956266e-08
4.9036096e-08
1.05239631e-09
1.17594585e-09
3.04795395e-08
4.09472542e-08
5.04848856e-08
5.03205005e-08
9.34091613e-10
1.18032101e-09
4.28790694e-08
4.56944886e-08
9.89587679e-10
1.23281547e-09
4.0573321e-08
4.30676878e-08
1.08644227e-09
1.18183772e-09
2.18308574e-08
4.89530653e-08
4.86400339e-08
1.05366797e-09
1.2094076e-09
4.08091007e-08
4.28854991e-08
9.97384063e-10
1.21688542e-09
1.38950649e-08
4.57419802e-08
4.57454137e-08
1.0937474e-09
1.29408445e-09
2.23943369e-08
3.70225516e-08
4.8201022e-08
4.14150223e-08
8.54132891e-10
3.29817236e-08
4.87942277e-08
1.10514493e-09
1.22949216e-09
3.99435803e-08
4.21950693e-08
1.009376e-09
1.32928735e-09
4.20041858e-08
4.05452515e-08
8.29983193e-10
1.37916267e-09
8.78487068e-10
3.20638326e-08
5.76579228e-08
5.09151774e-08
8.0496629e-10
1.27341805e-09
9.6789948e-10
3.21829282e-08
5.41173034e-08
5.23715544e-08
1.00121773e-09
1.20315105e-09
3.96695249e-08
4.2587819e-08
1.05511329e-09
1.27946098e-09
3.95688351e-08
4.18327701e-08
1.07225283e-09
1.18812723e-09
1.69191203e-08
5.01099603e-08
4.97769481e-08
1.02392233e-09
1.20692877e-09
4.2510366e-08
4.46180057e-08
1.05312665e-09
1.26114433e-09
4.09226842e-08
4.28717655e-08
1.13982678e-09
1.18884743e-09
2.18115541e-08
4.99852675e-08
4.92882088e-08
1.07203927e-09
1.21537186e-09
4.20840684e-08
4.29442477e-08
1.07515138e-09
1.1933147e-09
1.62308506e-08
4.87884428e-08
4.82589527e-08
1.07188329e-09
1.2512688e-09
4.08014358e-08
4.06287716e-08
1.18028414e-09
1.30902464e-09
2.51417377e-08
4.056319e-08
4.7013199e-08
4.71018404e-08
1.12767654e-09
1.12296394e-09
2.45349472e-08
5.047721e-08
4.82438906e-08
9.73835811e-10
1.27967405e-09
1.02648622e-08
3.61709557e-08
4.98658909e-08
4.12192722e-08
1.039366e-09
1.16147652e-09
1.1771222e-09
1.10135284e-09
3.78641614e-08
5.31361628e-08
3.35842304e-08
1.0267556e-09
7.03131203e-10
4.85399765e-08
5.36795898e-08
1.4681294e-08
1.12284751e-09
3.76761471e-08
4.35229831e-08
1.18978572e-09
1.14663741e-09
2.44218743e-08
5.08301065e-08
4.95381077e-08
1.04024115e-09
1.19286122e-09
4.13870078e-08
4.25641131e-08
1.15446938e-09
1.17686797e-09
2.54113992e-08
5.00971172e-08
4.91387584e-08
1.07328694e-09
1.14916006e-09
1.62305236e-08
4.65306935e-08
4.60613097e-08
1.19386174e-09
1.22797494e-09
2.55324894e-08
4.09631424e-08
4.01186134e-08
4.92708486e-08
4.46063829e-08
1.06915151e-09
1.27680411e-09
1.19638942e-09
1.3428866e-09
3.49606992e-08
3.44094532e-08
1.224429e-09
3.01733428e-08
4.72826265e-08
1.15793843e-09
1.2326552e-09
4.39359162e-08
4.46465582e-08
1.19615926e-09
1.15940917e-09
2.65322947e-08
5.17353372e-08
4.98509492e-08
1.06250613e-09
1.21585819e-09
4.2668794e-08
4.23691145e-08
1.14955219e-09
1.28780505e-09
1.94490773e-08
4.18981534e-08
4.45270952e-08
2.30429315e-08
1.18020894e-09
1.33922937e-09
4.151174e-08
4.23432661e-08
8.00811946e-10
1.34632722e-09
5.37021583e-10
3.33255686e-08
4.59245246e-08
4.1462509e-08
4.42306821e-08
4.78335535e-08
2.97563891e-08
1.17077683e-09
1.38492998e-09
3.92914843e-08
4.18714911e-08
1.02747816e-09
1.24253853e-09
1.11922386e-09
1.23917291e-09
2.46003547e-08
4.22641726e-08
4.23368443e-08
4.46730972e-08
5.21858494e-08
2.51690964e-08
1.12861048e-09
3.82190162e-08
4.31771248e-08
9.82408147e-10
1.31293722e-09
1.0566819e-09
3.80494758e-08
4.20070631e-08
1.21239741e-09
1.2695683e-09
3.92873506e-08
3.99527322e-08
1.23793684e-09
1.33996649e-09
2.45725588e-08
3.88467992e-08
4.65799258e-08
4.67605516e-08
8.2028408e-09
1.219056e-09
3.96030325e-08
4.30728602e-08
1.16232853e-09
6.30606249e-09
4.3377414e-08
2.75565778e-08
1.31840954e-09
1.1191105e-09
3.67182245e-08
5.44015045e-08
4.13162683e-08
9.01257473e-10
1.36951861e-09
1.02671212e-09
1.40313298e-09
1.19989767e-09
3.02429422e-08
4.31819324e-08
4.28296103e-08
4.45392922e-08
4.93177356e-08
3.73570812e-08
1.19101329e-09
1.38727405e-09
3.55564784e-08
3.47494433e-08
1.2693277e-09
1.40702474e-09
1.88960226e-08
3.76530761e-08
4.92197286e-08
4.75579274e-08
9.61106232e-10
1.15353329e-09
3.20162697e-08
4.64780319e-08
2.51245263e-08
1.06991328e-09
1.38844221e-09
1.16534468e-09
3.89645537e-08
4.82613074e-08
1.55688304e-08
1.08845438e-09
1.61483695e-08
4.92335033e-08
4.91497619e-08
1.1144894e-09
1.13436958e-09
2.62470011e-08
4.94075145e-08
4.87464765e-08
1.1488894e-09
1.14869444e-09
2.5237783e-08
4.79099126e-08
4.69921761e-08
1.13785759e-09
1.25396494e-09
2.71260298e-08
4.27308095e-08
5.00371693e-08
4.76688907e-08
7.42582569e-10
1.2848952e-09
8.38693036e-10
3.60169794e-08
3.77531309e-08
1.01111837e-09
1.38041969e-09
1.02792605e-08
3.62874732e-08
4.45257544e-08
3.40449275e-08
1.54881617e-08
3.41883785e-08
3.96152705e-08
1.07178973e-09
1.2432336e-09
4.07736341e-08
4.15274831e-08
1.05417307e-09
1.18942041e-09
4.00178048e-08
4.13278872e-08
1.07663472e-09
1.19237517e-09
2.2808931e-08
5.03170285e-08
5.00086515e-08
8.31921721e-10
1.13891515e-09
4.27400513e-08
4.19208663e-08
1.08899763e-09
1.03950286e-09
4.11985526e-08
4.18101636e-08
1.07949023e-09
1.19160079e-09
2.37925047e-08
5.00424247e-08
4.97509015e-08
7.84689911e-10
1.11438543e-09
4.2571823e-08
4.00472581e-08
1.07591831e-09
8.85939481e-10
4.12343164e-08
4.08818269e-08
1.08754996e-09
1.19775529e-09
2.34756627e-08
5.08113264e-08
5.03826959e-08
5.4001154e-10
1.06721992e-09
4.29125221e-08
3.78999181e-08
1.03711333e-09
3.3989987e-09
4.18605677e-08
3.56636617e-08
)
;

boundaryField
{
    closed
    {
        type            calculated;
        value           uniform 2.47049307e-12;
    }
    open
    {
        type            calculated;
        value           nonuniform List<scalar> 0();
    }
    sides
    {
        type            empty;
    }
    procBoundary0to1
    {
        type            processor;
        value           uniform 1.05823064e-09;
    }
}


// ************************************************************************* //
