/*--------------------------------*- C++ -*----------------------------------*\
| =========                 |                                                 |
| \\      /  F ield         | OpenFOAM: The Open Source CFD Toolbox           |
|  \\    /   O peration     | Version:  2306                                  |
|   \\  /    A nd           | Website:  www.openfoam.com                      |
|    \\/     M anipulation  |                                                 |
\*---------------------------------------------------------------------------*/
FoamFile
{
    version     2.0;
    format      ascii;
    arch        "LSB;label=32;scalar=64";
    class       volScalarField;
    location    "0.00138";
    object      prefDPV_H2O;
}
// * * * * * * * * * * * * * * * * * * * * * * * * * * * * * * * * * * * * * //

dimensions      [1 -1 -1 0 0 0 0];

internalField   nonuniform List<scalar> 
530
(
-3.83195838e-07
-3.73738098e-07
-3.730485e-07
-3.7306503e-07
-3.73066646e-07
-3.73066669e-07
-3.73066669e-07
-3.73066669e-07
-3.73066669e-07
-3.73066669e-07
-3.73066669e-07
-3.73066669e-07
-3.73066669e-07
-3.73066669e-07
-3.73066669e-07
-3.73066669e-07
-3.73066669e-07
-3.73066669e-07
-3.73066669e-07
-3.73066669e-07
-3.73066669e-07
-3.73066669e-07
-3.73066669e-07
-3.73066669e-07
-3.73066669e-07
-3.73066669e-07
-3.73066669e-07
-3.73066669e-07
-3.73066669e-07
-3.73066669e-07
-3.73066669e-07
-3.73066669e-07
-3.73066669e-07
-3.73066669e-07
-3.73066669e-07
-3.73066669e-07
-3.73066669e-07
-3.73066669e-07
-3.73066669e-07
-3.73066669e-07
-3.73066669e-07
-3.73066669e-07
-3.73066669e-07
-3.73066669e-07
-3.73066669e-07
-3.73066669e-07
-3.73066669e-07
-3.73066669e-07
-3.73066669e-07
-3.73066669e-07
-3.73066669e-07
-3.73066669e-07
-3.73066669e-07
-3.73066669e-07
-3.73066669e-07
-3.73066669e-07
-3.73066669e-07
-3.73066669e-07
-3.73066669e-07
-3.73066669e-07
-3.73066669e-07
-3.73066669e-07
-3.73066669e-07
-3.73066669e-07
-3.73066669e-07
-3.73066669e-07
-3.73066669e-07
-3.73066667e-07
-3.7306667e-07
-3.73066642e-07
-3.73066612e-07
-3.7306685e-07
-3.73066855e-07
-3.73064872e-07
-3.73064708e-07
-3.73074771e-07
-3.73093709e-07
-3.73063567e-07
-3.72852677e-07
-3.72863327e-07
-3.73843418e-07
-3.73903494e-07
-3.7178864e-07
-3.71384472e-07
-3.73780083e-07
-3.73944295e-07
-3.70278314e-07
-3.65446168e-07
-3.66781133e-07
-3.85874071e-07
-3.83284963e-07
-3.84789177e-07
-3.68309219e-07
-3.63407069e-07
-3.63569197e-07
-3.83231101e-07
-3.83855566e-07
-3.84815975e-07
-3.68553081e-07
-3.62389985e-07
-3.62680938e-07
-3.8581162e-07
-3.84417774e-07
-3.85232871e-07
-3.84103264e-07
-3.84515099e-07
-3.66198425e-07
-3.64486182e-07
-3.6262204e-07
-3.62893364e-07
-3.85274554e-07
-3.84232865e-07
-3.8479516e-07
-3.66241528e-07
-3.65127267e-07
-3.8466931e-07
-3.83725877e-07
-3.84304252e-07
-3.71961506e-07
-3.65401386e-07
-3.65148418e-07
-3.64940008e-07
-3.63974145e-07
-3.63240438e-07
-3.68278304e-07
-3.84622909e-07
-3.83382123e-07
-3.84101228e-07
-3.83576968e-07
-3.66626698e-07
-3.65798688e-07
-3.85018812e-07
-3.83558068e-07
-3.84645334e-07
-3.66703904e-07
-3.64267026e-07
-3.62966393e-07
-3.63084891e-07
-3.85179251e-07
-3.844207e-07
-3.65097363e-07
-3.64457633e-07
-3.84479389e-07
-3.84187883e-07
-3.67767216e-07
-3.64684748e-07
-3.68992543e-07
-3.84337206e-07
-3.83655468e-07
-3.83833041e-07
-3.83966394e-07
-3.68115005e-07
-3.64680048e-07
-3.64607424e-07
-3.63653287e-07
-3.71191432e-07
-3.84569253e-07
-3.7104478e-07
-3.6461907e-07
-3.69684586e-07
-3.84140877e-07
-3.83476029e-07
-3.66917294e-07
-3.64777371e-07
-3.84721026e-07
-3.83919531e-07
-3.65454363e-07
-3.6461883e-07
-3.8513802e-07
-3.84029188e-07
-3.64945358e-07
-3.64860825e-07
-3.85654934e-07
-3.84110609e-07
-3.84940516e-07
-3.64925787e-07
-3.63993827e-07
-3.84784812e-07
-3.84243372e-07
-3.68939437e-07
-3.65692521e-07
-3.63597393e-07
-3.63524317e-07
-3.85228454e-07
-3.84271877e-07
-3.65246063e-07
-3.64492513e-07
-3.85019263e-07
-3.84059466e-07
-3.65686371e-07
-3.65163244e-07
-3.84656083e-07
-3.84232076e-07
-3.73314395e-07
-3.63895172e-07
-3.63869809e-07
-3.84778176e-07
-3.8415084e-07
-3.65622241e-07
-3.65186868e-07
-3.84994163e-07
-3.84095976e-07
-3.7796258e-07
-3.64537673e-07
-3.64537002e-07
-3.84635834e-07
-3.8381871e-07
-3.73012783e-07
-3.66292383e-07
-3.64193578e-07
-3.65374084e-07
-3.8555524e-07
-3.6764627e-07
-3.63971617e-07
-3.84604022e-07
-3.84079506e-07
-3.65801747e-07
-3.65128317e-07
-3.84925834e-07
-3.83717623e-07
-3.65633148e-07
-3.65488661e-07
-3.85606466e-07
-3.83487613e-07
-3.85385078e-07
-3.68084614e-07
-3.62277182e-07
-3.63303262e-07
-3.85682682e-07
-3.83894221e-07
-3.85039788e-07
-3.6806317e-07
-3.62952359e-07
-3.62975693e-07
-3.84939597e-07
-3.8419588e-07
-3.65995345e-07
-3.65121012e-07
-3.84758116e-07
-3.83887923e-07
-3.65933224e-07
-3.65399846e-07
-3.84708059e-07
-3.84204749e-07
-3.76124299e-07
-3.63619976e-07
-3.63609308e-07
-3.84912831e-07
-3.84179369e-07
-3.65263715e-07
-3.64659079e-07
-3.84784459e-07
-3.83968445e-07
-3.65582984e-07
-3.65145161e-07
-3.844622e-07
-3.84211315e-07
-3.73322563e-07
-3.63632426e-07
-3.6366967e-07
-3.84722342e-07
-3.84140617e-07
-3.65341595e-07
-3.65159447e-07
-3.84701821e-07
-3.84183563e-07
-3.76533743e-07
-3.63910294e-07
-3.63929737e-07
-3.84729622e-07
-3.8401238e-07
-3.65632155e-07
-3.65530015e-07
-3.84283427e-07
-3.83760997e-07
-3.71563261e-07
-3.65649225e-07
-3.64289525e-07
-3.64298951e-07
-3.84506493e-07
-3.84453897e-07
-3.71861759e-07
-3.63662499e-07
-3.63932665e-07
-3.85063067e-07
-3.83870639e-07
-3.80210373e-07
-3.66494134e-07
-3.63915139e-07
-3.65517044e-07
-3.84812059e-07
-3.84327211e-07
-3.84280478e-07
-3.84571963e-07
-3.66059281e-07
-3.63116047e-07
-3.67472332e-07
-3.84835992e-07
-3.86083367e-07
-3.63938157e-07
-3.6293817e-07
-3.77524562e-07
-3.84477526e-07
-3.66184567e-07
-3.6516003e-07
-3.84279851e-07
-3.84354686e-07
-3.71924786e-07
-3.63556805e-07
-3.6367846e-07
-3.8483612e-07
-3.84215395e-07
-3.65549348e-07
-3.65298595e-07
-3.84393745e-07
-3.84247099e-07
-3.71429659e-07
-3.63651567e-07
-3.63860393e-07
-3.84717291e-07
-3.84359613e-07
-3.76535823e-07
-3.64367383e-07
-3.64515593e-07
-3.84279154e-07
-3.84057855e-07
-3.7131754e-07
-3.65651842e-07
-3.65649762e-07
-3.63824458e-07
-3.64677873e-07
-3.84732387e-07
-3.83921582e-07
-3.84216797e-07
-3.83680039e-07
-3.6676978e-07
-3.66991083e-07
-3.84153842e-07
-3.68970861e-07
-3.6402219e-07
-3.84470284e-07
-3.8410612e-07
-3.64795331e-07
-3.64729779e-07
-3.84268761e-07
-3.84326847e-07
-3.70815775e-07
-3.63290879e-07
-3.6352352e-07
-3.84762699e-07
-3.84152911e-07
-3.65239966e-07
-3.65195858e-07
-3.84423721e-07
-3.83847317e-07
-3.74645967e-07
-3.65150988e-07
-3.64892083e-07
-3.72623105e-07
-3.84226885e-07
-3.8371506e-07
-3.65719558e-07
-3.65119626e-07
-3.85713605e-07
-3.83604621e-07
-3.8667339e-07
-3.67517918e-07
-3.6488087e-07
-3.65426263e-07
-3.64852442e-07
-3.64115926e-07
-3.69132331e-07
-3.84289638e-07
-3.83523174e-07
-3.66015515e-07
-3.65242301e-07
-3.84914918e-07
-3.84023828e-07
-3.84508587e-07
-3.84034984e-07
-3.71848908e-07
-3.65256411e-07
-3.65327468e-07
-3.64652143e-07
-3.63095169e-07
-3.71507123e-07
-3.8452552e-07
-3.66078128e-07
-3.65017062e-07
-3.85084843e-07
-3.83737676e-07
-3.8476262e-07
-3.66064245e-07
-3.65411288e-07
-3.84188823e-07
-3.83954399e-07
-3.65825493e-07
-3.65655324e-07
-3.84085401e-07
-3.8365139e-07
-3.71841474e-07
-3.65903866e-07
-3.64404205e-07
-3.64175106e-07
-3.81724316e-07
-3.84133729e-07
-3.65884087e-07
-3.6521356e-07
-3.8439167e-07
-3.82927872e-07
-3.64897139e-07
-3.70306043e-07
-3.83763167e-07
-3.8454345e-07
-3.66112793e-07
-3.62892549e-07
-3.6515879e-07
-3.85337162e-07
-3.8358203e-07
-3.84845576e-07
-3.83448179e-07
-3.84164711e-07
-3.68908057e-07
-3.65081507e-07
-3.65029135e-07
-3.64665723e-07
-3.63702292e-07
-3.66070253e-07
-3.84252598e-07
-3.83568317e-07
-3.66622114e-07
-3.66764018e-07
-3.83934396e-07
-3.83405984e-07
-3.74959381e-07
-3.66135552e-07
-3.63925518e-07
-3.64119713e-07
-3.85176463e-07
-3.84356842e-07
-3.68116746e-07
-3.64544812e-07
-3.71507e-07
-3.84682883e-07
-3.83494865e-07
-3.84305479e-07
-3.65723036e-07
-3.6413725e-07
-3.7700966e-07
-3.84588587e-07
-3.76589762e-07
-3.63830931e-07
-3.6385388e-07
-3.845732e-07
-3.84429425e-07
-3.70972875e-07
-3.63738159e-07
-3.63903486e-07
-3.84441617e-07
-3.84373376e-07
-3.71470053e-07
-3.64120766e-07
-3.64127956e-07
-3.84448894e-07
-3.84012084e-07
-3.70570749e-07
-3.65059064e-07
-3.6380143e-07
-3.64045125e-07
-3.85930665e-07
-3.83840656e-07
-3.85574663e-07
-3.66615533e-07
-3.66431836e-07
-3.84904149e-07
-3.83493515e-07
-3.80230178e-07
-3.66201097e-07
-3.6489938e-07
-3.67101023e-07
-3.77016564e-07
-3.67077524e-07
-3.65753424e-07
-3.84728599e-07
-3.84092284e-07
-3.65514012e-07
-3.65388254e-07
-3.84763039e-07
-3.84283532e-07
-3.65692175e-07
-3.65534823e-07
-3.8468575e-07
-3.8419013e-07
-3.72781607e-07
-3.6368117e-07
-3.63560546e-07
-3.85621745e-07
-3.84469649e-07
-3.65280298e-07
-3.65495355e-07
-3.84616736e-07
-3.8484638e-07
-3.65476852e-07
-3.65536164e-07
-3.84667485e-07
-3.84192671e-07
-3.72256721e-07
-3.63759985e-07
-3.63651583e-07
-3.85786994e-07
-3.84563491e-07
-3.65348045e-07
-3.65973006e-07
-3.84659996e-07
-3.85412584e-07
-3.65516436e-07
-3.6580039e-07
-3.84631024e-07
-3.84170726e-07
-3.72430272e-07
-3.6366026e-07
-3.63537363e-07
-3.86694676e-07
-3.84752191e-07
-3.65348714e-07
-3.66354281e-07
-3.84803566e-07
-3.8492576e-07
-3.65445992e-07
-3.66855377e-07
)
;

boundaryField
{
    closed
    {
        type            calculated;
        value           uniform -5.12924894e-07;
    }
    open
    {
        type            calculated;
        value           nonuniform List<scalar> 0();
    }
    sides
    {
        type            empty;
    }
    procBoundary0to1
    {
        type            processor;
        value           uniform -3.84726971e-07;
    }
}


// ************************************************************************* //
