/*--------------------------------*- C++ -*----------------------------------*\
| =========                 |                                                 |
| \\      /  F ield         | OpenFOAM: The Open Source CFD Toolbox           |
|  \\    /   O peration     | Version:  2306                                  |
|   \\  /    A nd           | Website:  www.openfoam.com                      |
|    \\/     M anipulation  |                                                 |
\*---------------------------------------------------------------------------*/
FoamFile
{
    version     2.0;
    format      ascii;
    arch        "LSB;label=32;scalar=64";
    class       volVectorField;
    location    "0.00138";
    object      U;
}
// * * * * * * * * * * * * * * * * * * * * * * * * * * * * * * * * * * * * * //

dimensions      [0 1 -1 0 0 0 0];

internalField   nonuniform List<vector> 
530
(
(0.29743476 0 0)
(0.587429462 0 0)
(0.698787033 0 0)
(0.698828458 0 0)
(0.586284231 0 0)
(0.405348939 0 0)
(0.143110984 0 0)
(-0.0879731428 0 0)
(-0.251975908 0 0)
(-0.325631406 0 0)
(-0.355554092 0 0)
(-0.351169453 0 0)
(-0.318533025 0 0)
(-0.2419443 0 0)
(-0.111216708 0 0)
(0.0370768477 0 0)
(0.145465706 0 0)
(0.221259785 0 0)
(0.272074888 0 0)
(0.323521948 0 0)
(0.367326208 0 0)
(0.403152267 0 0)
(0.431851617 0 0)
(0.461233358 0 0)
(0.48479685 0 0)
(0.501995992 0 0)
(0.503938545 0 0)
(0.487425831 0 0)
(0.450159603 0 0)
(0.398408846 0 0)
(0.339975309 0 0)
(0.282687895 0 0)
(0.228394846 0 0)
(0.182208301 0 0)
(0.148747015 0 0)
(0.124969877 0 0)
(0.105515641 0 0)
(0.0868117447 0 0)
(0.0683175088 0 0)
(0.0477293678 0 0)
(0.0275027718 0 0)
(0.00809520649 0 0)
(-0.0083695439 0 0)
(-0.0208572356 0 0)
(-0.0269661951 0 0)
(-0.0268063926 0 0)
(-0.0207575665 0 0)
(-0.00961016737 0 0)
(0.00287051898 0 0)
(0.0145120242 0 0)
(0.0251939441 0 0)
(0.0329557458 0 0)
(0.0378788596 0 0)
(0.0403938927 0 0)
(0.0405750316 0 0)
(0.0394598546 0 0)
(0.037234037 0 0)
(0.0348194275 0 0)
(0.0324135513 0 0)
(0.0301698701 0 0)
(0.0282346836 0 0)
(0.0267893032 0 0)
(0.0257937448 0 0)
(0.0252763872 0 0)
(0.0253652383 0 0)
(0.0259044103 0 0)
(0.0267213576 0 0)
(0.0278388744 0 0)
(0.0292203494 0 0)
(0.0307485906 0 0)
(0.0323997537 0 0)
(0.0341523406 0 0)
(0.0359734205 0 0)
(0.0378359756 0 0)
(0.0397250197 0 0)
(0.0416254493 0 0)
(0.0435330312 0 0)
(0.0454258375 0 0)
(0.0472323783 0 0)
(0.0489891832 0 0)
(0.0506585248 0 0)
(0.0526930115 0 0)
(0.0547505437 0 0)
(0.0561269993 0 0)
(0.0573618116 0 0)
(0.058712012 0 0)
(0.0596876903 0 0)
(0.0592448799 0 0)
(0.0581807472 0 0)
(0.0621138042 0 0)
(0.0690505824 0 0)
(0.0679175462 0 0)
(0.0670834052 0 0)
(0.0648394683 0 0)
(0.0657630513 0 0)
(0.0720865068 0 0)
(0.0785752357 0 0)
(0.0776078745 0 0)
(0.074474072 0 0)
(0.0717485653 0 0)
(0.0744430172 0 0)
(0.0807961136 0 0)
(0.0864138941 0 0)
(0.0887172789 0 0)
(0.0897478327 0 0)
(0.0885444052 0 0)
(0.0832462283 0 0)
(0.0764216265 0 0)
(0.0758634632 0 0)
(0.0806901552 0 0)
(0.0859982338 0 0)
(0.0907659384 0 0)
(0.091250091 0 0)
(0.0877256226 0 0)
(0.0834651859 0 0)
(0.0834762593 0 0)
(0.0862048752 0 0)
(0.0869125072 0 0)
(0.0862891707 0 0)
(0.083854929 0 0)
(0.0826765496 0 0)
(0.082934278 0 0)
(0.0871773217 0 0)
(0.094548179 0 0)
(0.0982889656 0 0)
(0.100757436 0 0)
(0.103222038 0 0)
(0.104566915 0 0)
(0.103756357 0 0)
(0.0983761325 0 0)
(0.0943858011 0 0)
(0.0973654517 0 0)
(0.101901141 0 0)
(0.102935202 0 0)
(0.0992776789 0 0)
(0.0930706356 0 0)
(0.0925549127 0 0)
(0.0988116347 0 0)
(0.105308296 0 0)
(0.107444183 0 0)
(0.10246692 0 0)
(0.0985667054 0 0)
(0.100754122 0 0)
(0.103300689 0 0)
(0.101734901 0 0)
(0.0997324942 0 0)
(0.100078451 0 0)
(0.102748957 0 0)
(0.106128065 0 0)
(0.107733844 0 0)
(0.107323842 0 0)
(0.105548994 0 0)
(0.103784366 0 0)
(0.107627869 0 0)
(0.114683213 0 0)
(0.117265715 0 0)
(0.117507477 0 0)
(0.118756114 0 0)
(0.118854649 0 0)
(0.11932402 0 0)
(0.121557979 0 0)
(0.122503181 0 0)
(0.120896249 0 0)
(0.122025337 0 0)
(0.12603821 0 0)
(0.127416646 0 0)
(0.12289242 0 0)
(0.120564249 0 0)
(0.124482045 0 0)
(0.125867328 0 0)
(0.119174305 0 0)
(0.111849769 0 0)
(0.114724027 0 0)
(0.121861052 0 0)
(0.119931419 0 0)
(0.118743241 0 0)
(0.120307302 0 0)
(0.122713463 0 0)
(0.125446553 0 0)
(0.122813818 0 0)
(0.116712405 0 0)
(0.115488639 0 0)
(0.119188168 0 0)
(0.124645176 0 0)
(0.127829887 0 0)
(0.121721972 0 0)
(0.117532823 0 0)
(0.120461354 0 0)
(0.12219437 0 0)
(0.116974462 0 0)
(0.112548944 0 0)
(0.114311748 0 0)
(0.116947358 0 0)
(0.113625678 0 0)
(0.109725048 0 0)
(0.111781366 0 0)
(0.115984586 0 0)
(0.117182645 0 0)
(0.111435729 0 0)
(0.106262867 0 0)
(0.107348138 0 0)
(0.110264993 0 0)
(0.109637639 0 0)
(0.107634499 0 0)
(0.105849605 0 0)
(0.107420816 0 0)
(0.110428494 0 0)
(0.10716492 0 0)
(0.100829143 0 0)
(0.0975898483 0 0)
(0.09875453 0 0)
(0.10342588 0 0)
(0.107192237 0 0)
(0.103970079 0 0)
(0.101043587 0 0)
(0.101134995 0 0)
(0.095558871 0 0)
(0.09058135 0 0)
(0.0918195619 0 0)
(0.0922201148 0 0)
(0.0843228931 0 0)
(0.0760002369 0 0)
(0.0769842177 0 0)
(0.0815193505 0 0)
(0.0815191447 0 0)
(0.0789271971 0 0)
(0.0741100668 0 0)
(0.0751521218 0 0)
(0.0805958945 0 0)
(0.0847448502 0 0)
(0.083099901 0 0)
(0.0794026641 0 0)
(0.0760178792 0 0)
(0.0790630913 0 0)
(0.0836506339 0 0)
(0.0849896911 0 0)
(0.0788831542 0 0)
(0.0719432584 0 0)
(0.0713168206 0 0)
(0.0719093008 0 0)
(0.0654972307 0 0)
(0.0583448655 0 0)
(0.0576979873 0 0)
(0.0602631844 0 0)
(0.0573032387 0 0)
(0.0532000739 0 0)
(0.0532242362 0 0)
(0.0543457783 0 0)
(0.055126408 0 0)
(0.0486710055 0 0)
(0.0411102627 0 0)
(0.0408475221 0 0)
(0.0424776652 0 0)
(0.0366480492 0 0)
(0.0290300505 0 0)
(0.0279601625 0 0)
(0.0309059814 0 0)
(0.0279984142 0 0)
(0.0237536933 0 0)
(0.0260253494 0 0)
(0.0282489161 0 0)
(0.02896311 0 0)
(0.02288895 0 0)
(0.0141482653 0 0)
(0.0128070976 0 0)
(0.0163675918 0 0)
(0.0143464079 0 0)
(0.0106896687 0 0)
(0.0108486736 0 0)
(0.0116496892 0 0)
(0.0128917278 0 0)
(0.00743891872 0 0)
(-0.000615737705 0 0)
(-0.000887781778 0 0)
(0.00224178199 0 0)
(0.000612621407 0 0)
(-0.00478626481 0 0)
(-0.00476247904 0 0)
(-0.000422725602 0 0)
(0.00135097356 0 0)
(0.0051936962 0 0)
(0.00283164937 0 0)
(-0.00302714765 0 0)
(4.27908401e-06 0 0)
(0.00455151243 0 0)
(0.00671128108 0 0)
(0.00710269489 0 0)
(0.00344086621 0 0)
(-0.00105092196 0 0)
(-0.00440501961 0 0)
(-0.00557056342 0 0)
(-0.00263678195 0 0)
(-0.00145054191 0 0)
(-0.00255800298 0 0)
(-0.00386083831 0 0)
(-0.00450241338 0 0)
(-0.0070044644 0 0)
(-0.00838502175 0 0)
(0.00851110904 0 0)
(0.0250719058 0 0)
(0.0152579094 0 0)
(0.00697557112 0 0)
(0.00630668852 0 0)
(0.00220007062 0 0)
(-0.00559043821 0 0)
(-0.00750246901 0 0)
(-0.00296404598 0 0)
(-0.00490084556 0 0)
(-0.00897382095 0 0)
(-0.0048114938 0 0)
(-0.0003459988 0 0)
(0.00219205724 0 0)
(-0.00377917998 0 0)
(-0.0135512049 0 0)
(-0.0135353361 0 0)
(-0.0082368274 0 0)
(-0.00963331814 0 0)
(-0.0138410624 0 0)
(-0.00911588959 0 0)
(-0.00386307596 0 0)
(-0.000295704312 0 0)
(-0.0012980534 0 0)
(-0.00525722318 0 0)
(-0.00503282088 0 0)
(-0.00361511615 0 0)
(-0.000935971678 0 0)
(-0.00137810236 0 0)
(-0.00702760575 0 0)
(-0.0101735554 0 0)
(-0.00778920222 0 0)
(-0.00537778509 0 0)
(-0.0042120859 0 0)
(-0.000615469527 0 0)
(0.00137670874 0 0)
(0.00165214011 0 0)
(0.00317231432 0 0)
(0.00256442215 0 0)
(0.00205983933 0 0)
(0.00416632676 0 0)
(0.00321323665 0 0)
(0.00347236803 0 0)
(0.00660578996 0 0)
(0.00152285419 0 0)
(-0.00638279093 0 0)
(-0.00497855642 0 0)
(0.00073000809 0 0)
(-0.000800591954 0 0)
(-0.00523011043 0 0)
(5.27857645e-05 0 0)
(0.00695743324 0 0)
(0.00958634016 0 0)
(0.00326296411 0 0)
(-0.00478229704 0 0)
(-0.00216813246 0 0)
(0.00262935689 0 0)
(0.00093115585 0 0)
(0.000108551515 0 0)
(0.00446698462 0 0)
(0.00607783432 0 0)
(0.00620411028 0 0)
(0.00922940616 0 0)
(0.00084951862 0 0)
(-0.00585690687 0 0)
(-0.000531798284 0 0)
(-0.00596455786 0 0)
(0.00900281436 0 0)
(0.0301311966 0 0)
(0.019584794 0 0)
(0.0114285694 0 0)
(0.0164935895 0 0)
(0.0234384198 0 0)
(0.0270563658 0 0)
(0.0290984362 0 0)
(0.0303178331 0 0)
(0.0241813381 0 0)
(0.0181347381 0 0)
(0.0206309625 0 0)
(0.0261621377 0 0)
(0.0310006892 0 0)
(0.0339837943 0 0)
(0.0336499993 0 0)
(0.0309861758 0 0)
(0.0302818544 0 0)
(0.0349801967 0 0)
(0.0424605951 0 0)
(0.0447605647 0 0)
(0.0441638353 0 0)
(0.0420449401 0 0)
(0.0372404252 0 0)
(0.0385248499 0 0)
(0.0442895324 0 0)
(0.0473591236 0 0)
(0.0474788412 0 0)
(0.0410234104 0 0)
(0.0379140785 0 0)
(0.0394672397 0 0)
(0.0371578947 0 0)
(0.0333414499 0 0)
(0.0338253963 0 0)
(0.0363071151 0 0)
(0.0354194414 0 0)
(0.0310067326 0 0)
(0.0284477306 0 0)
(0.0306866029 0 0)
(0.0425092768 0 0)
(0.0517442938 0 0)
(0.0441966772 0 0)
(0.0286245801 0 0)
(0.0216297179 0 0)
(0.0431962546 0 0)
(0.0612801491 0 0)
(0.0565159124 0 0)
(0.0550102868 0 0)
(0.0584726714 0 0)
(0.0596361722 0 0)
(0.0575565917 0 0)
(0.0562007779 0 0)
(0.0581264412 0 0)
(0.0621351837 0 0)
(0.0647888424 0 0)
(0.0658355282 0 0)
(0.0653228171 0 0)
(0.0648931923 0 0)
(0.0637835397 0 0)
(0.0646446602 0 0)
(0.0695132222 0 0)
(0.0758280512 0 0)
(0.0740400081 0 0)
(0.0708599773 0 0)
(0.0720273266 0 0)
(0.0703534106 0 0)
(0.0676983361 0 0)
(0.0680074105 0 0)
(0.0698020073 0 0)
(0.0697398892 0 0)
(0.0659803001 0 0)
(0.0635149911 0 0)
(0.0653941086 0 0)
(0.0736182388 0 0)
(0.0816932405 0 0)
(0.0805500132 0 0)
(0.0764600033 0 0)
(0.0753284042 0 0)
(0.0781643519 0 0)
(0.0822080904 0 0)
(0.0828322191 0 0)
(0.0830111483 0 0)
(0.083368623 0 0)
(0.0846711094 0 0)
(0.0872019784 0 0)
(0.089600317 0 0)
(0.0900022365 0 0)
(0.0908350157 0 0)
(0.0935415682 0 0)
(0.0979833946 0 0)
(0.0974991252 0 0)
(0.0959955204 0 0)
(0.100437451 0 0)
(0.106455214 0 0)
(0.111148879 0 0)
(0.110896437 0 0)
(0.109863389 0 0)
(0.114057246 0 0)
(0.120189256 0 0)
(0.124639844 0 0)
(0.124698609 0 0)
(0.122950934 0 0)
(0.123725744 0 0)
(0.128005757 0 0)
(0.136055769 0 0)
(0.14546707 0 0)
(0.154546251 0 0)
(0.1587948 0 0)
(0.1517692 0 0)
(0.148442817 0 0)
(0.151818983 0 0)
(0.159262273 0 0)
(0.168270794 0 0)
(0.172371837 0 0)
(0.175561549 0 0)
(0.18047085 0 0)
(0.183827508 0 0)
(0.185532964 0 0)
(0.190468143 0 0)
(0.196227491 0 0)
(0.198125352 0 0)
(0.197493722 0 0)
(0.201101372 0 0)
(0.206899752 0 0)
(0.210281928 0 0)
(0.212384837 0 0)
(0.216959795 0 0)
(0.221369522 0 0)
(0.220767163 0 0)
(0.219046676 0 0)
(0.221217077 0 0)
(0.233151187 0 0)
(0.243660933 0 0)
(0.24400142 0 0)
(0.234674721 0 0)
(0.231903358 0 0)
(0.240902008 0 0)
(0.248564791 0 0)
(0.251114376 0 0)
(0.253044023 0 0)
(0.255055808 0 0)
(0.253326466 0 0)
(0.250940934 0 0)
(0.251875484 0 0)
(0.26437027 0 0)
(0.276035815 0 0)
(0.276721135 0 0)
(0.263408044 0 0)
(0.256203851 0 0)
(0.273441815 0 0)
(0.284605333 0 0)
(0.279856938 0 0)
(0.277143775 0 0)
(0.276717319 0 0)
(0.273569126 0 0)
(0.268111002 0 0)
(0.266381843 0 0)
(0.283010633 0 0)
(0.300850171 0 0)
(0.302157248 0 0)
(0.283312888 0 0)
(0.271226938 0 0)
(0.306908118 0 0)
(0.33780474 0 0)
(0.316734601 0 0)
)
;

boundaryField
{
    closed
    {
        type            noSlip;
    }
    open
    {
        type            inletOutlet;
        inletValue      nonuniform List<vector> 0();
        value           nonuniform List<vector> 0();
    }
    sides
    {
        type            empty;
    }
    procBoundary0to1
    {
        type            processor;
        value           uniform (0.300996749 0 0);
    }
}


// ************************************************************************* //
