/*--------------------------------*- C++ -*----------------------------------*\
| =========                 |                                                 |
| \\      /  F ield         | OpenFOAM: The Open Source CFD Toolbox           |
|  \\    /   O peration     | Version:  2306                                  |
|   \\  /    A nd           | Website:  www.openfoam.com                      |
|    \\/     M anipulation  |                                                 |
\*---------------------------------------------------------------------------*/
FoamFile
{
    version     2.0;
    format      ascii;
    arch        "LSB;label=32;scalar=64";
    class       volScalarField;
    location    "0.002";
    object      H2;
}
// * * * * * * * * * * * * * * * * * * * * * * * * * * * * * * * * * * * * * //

dimensions      [0 0 0 0 0 0 0];

internalField   nonuniform List<scalar> 
531
(
0.0110719299
0.0110120333
0.0110235002
0.0108005628
0.0106719054
0.0106644697
0.0110606898
0.0110069648
0.0107793258
0.0106855399
0.0106665912
0.0106617221
0.0110586974
0.0110135854
0.0107840695
0.0106657334
0.010663164
0.011052015
0.011012187
0.0108018524
0.0106698429
0.0106676377
0.0110468093
0.0110105254
0.0108050394
0.0106703762
0.0106688345
0.0110418699
0.011010625
0.0107992807
0.0106691731
0.0106683971
0.0110374573
0.0110124911
0.0107820333
0.010662544
0.010663616
0.011034589
0.0110179415
0.010753623
0.0106501147
0.010650634
0.0110378242
0.0110116901
0.0110237989
0.0110101815
0.0108112426
0.010673257
0.0106561183
0.0106571765
0.0110282375
0.0110215899
0.0106865782
0.0106764119
0.0110211815
0.01102433
0.0107093604
0.0106513509
0.010660275
0.0110228349
0.0110308448
0.0106938878
0.0106871499
0.0110156306
0.0110255388
0.0107177115
0.0106600722
0.0106709749
0.0110198726
0.0110479393
0.0106924675
0.0106987391
0.0110183047
0.0109963026
0.011037651
0.0107447207
0.0106761275
0.0106731086
0.0106577674
0.0106766023
0.0110182049
0.0110387948
0.0107084289
0.0106587835
0.0106783521
0.0110181874
0.0110640986
0.0106897021
0.0107085652
0.0110183894
0.0110006664
0.0110367832
0.0107914667
0.0106785233
0.0106724242
0.0106607716
0.0106851922
0.011013872
0.0110379913
0.0107063064
0.0106622274
0.0106935129
0.0110117367
0.0110327598
0.0107234348
0.0106658458
0.0106978866
0.0110101644
0.0109989643
0.0110327898
0.0107726983
0.0106734523
0.0106636201
0.0106954634
0.0110086957
0.0110350063
0.0106983517
0.0106621317
0.0106959626
0.0110082417
0.0110222109
0.0107419281
0.0106798569
0.0107151303
0.0108117672
0.0106904068
0.0107243482
0.0110057797
0.0109936106
0.0110459963
0.0106960986
0.0106497438
0.0106801362
0.0110158334
0.0110563343
0.0106762058
0.0106938272
0.0110065192
0.011037545
0.0106752889
0.0106496209
0.0106819603
0.011014546
0.0110503993
0.0106781076
0.0106964461
0.011004897
0.0110352324
0.0106764615
0.0106503063
0.0106800057
0.0110154092
0.0110491748
0.0106731216
0.010687735
0.0110097705
0.0110487938
0.0106690746
0.0106898448
0.0110084589
0.0110427861
0.0106715816
0.0107021417
0.011002375
0.0110078315
0.0107847545
0.0106796084
0.0106670302
0.0107596795
0.0110285913
0.0107007757
0.0107022282
0.0110093753
0.0109939581
0.0110289323
0.0107174436
0.0106702396
0.0106750829
0.010653786
0.0107035625
0.0110383053
0.0106846345
0.0106862009
0.0110167918
0.0109974118
0.0110393413
0.0106987295
0.0106388282
0.010716058
0.011036773
0.0106867164
0.010688159
0.0110145003
0.0109962363
0.0110356642
0.0107055424
0.0106411521
0.0107152149
0.0110329273
0.0106856255
0.0106871943
0.0110117625
0.0109953914
0.0110266397
0.0107252692
0.0106586604
0.0107051837
0.010868592
0.010683965
0.0107049067
0.0110105878
0.010992336
0.0110277939
0.0107021399
0.0106511185
0.0106902843
0.0110054612
0.0110132862
0.0107000934
0.0106624337
0.0107034935
0.0110029361
0.0110082306
0.010710902
0.0106733595
0.0106674867
0.0106930991
0.0110008936
0.0110136194
0.0106861974
0.0106584388
0.0106925006
0.0110038493
0.0110111726
0.0106979486
0.0106592842
0.010693626
0.0110029727
0.0110101268
0.0107029663
0.0106598725
0.0106937534
0.01100264
0.0110081015
0.0107309608
0.0106592624
0.0107193489
0.0110138692
0.01069066
0.0106871596
0.01100973
0.0109934793
0.0110213991
0.0106969827
0.0106493725
0.0106823541
0.0110062831
0.0110104949
0.0106911093
0.010655802
0.0106859835
0.0110026859
0.0110100452
0.0107013289
0.0106534005
0.010682013
0.0110148
0.0109929368
0.0110138614
0.0107122327
0.0106697629
0.0106589172
0.010687881
0.0110126481
0.0106876017
0.0106673596
0.0109970214
0.0110102508
0.0106721094
0.0106852801
0.0109946696
0.0110087505
0.0106965101
0.0106598946
0.0106833443
0.0110027301
0.0109969337
0.0107630268
0.0106790411
0.0106690757
0.010697928
0.0110052904
0.0107377582
0.0106789503
0.0109951214
0.0110033607
0.0106769077
0.0106894942
0.0109936609
0.0110051761
0.0107137657
0.0106626861
0.0106828216
0.0110012574
0.0110045434
0.0107082884
0.0106556079
0.0106789042
0.0110014746
0.0110087331
0.0106941571
0.0106458667
0.0106700033
0.0110159291
0.0109938892
0.0110116006
0.0107195866
0.0106707264
0.0106840039
0.0106656509
0.0106834311
0.0110117325
0.0109949491
0.0110059892
0.0106807824
0.0106911923
0.0110005855
0.0107279099
0.0106689438
0.0109928493
0.011001345
0.0106997092
0.0106768452
0.0106613679
0.0106857022
0.0110089415
0.0106919218
0.0106610789
0.0110010686
0.0110052089
0.0106656265
0.0106797729
0.0110095493
0.0110021387
0.0110095351
0.0108410267
0.0106657087
0.010648577
0.0106786535
0.0110137468
0.0106824205
0.0106545853
0.01099951
0.0110080293
0.0106664625
0.0106701652
0.0110001517
0.0110022643
0.0106732109
0.0106836961
0.0109945019
0.0109987987
0.0107026986
0.010679866
0.0106649946
0.0106863645
0.011006712
0.0107201105
0.010664425
0.0109942037
0.0110068092
0.0106696243
0.010678475
0.0109936338
0.0110080323
0.0107332267
0.0106586636
0.0106718459
0.0110044127
0.011002394
0.0106790521
0.0106817777
0.0109968045
0.0110032402
0.010689773
0.0106732139
0.010656806
0.0106715142
0.0110136472
0.0109973737
0.011017628
0.0107401996
0.0106443174
0.0106678405
0.01100389
0.0110123082
0.0106972724
0.0106534438
0.0106686039
0.0110114166
0.0110089649
0.010670454
0.0106799276
0.0110240951
0.0110041973
0.0110303969
0.010673875
0.0106463375
0.0106552807
0.0106626079
0.011006424
0.0110148239
0.0106709696
0.0106773625
0.0109990167
0.0110066802
0.0106802217
0.0106895309
0.0109926595
0.0109996767
0.0107096068
0.0106827078
0.0106644589
0.0106840139
0.011007682
0.0107033894
0.0106584408
0.0109952535
0.0110104166
0.0106654687
0.0106695939
0.0109992207
0.0110081596
0.0106720687
0.0106829902
0.0109942528
0.0110026989
0.0107315445
0.0106818629
0.0106642165
0.0106743198
0.0110205799
0.0110067585
0.0110272027
0.010655211
0.0106505262
0.010999268
0.0110201723
0.0107312949
0.0106561489
0.0106704215
0.0110079456
0.0110065929
0.0106700123
0.0106704634
0.0109975442
0.0110096995
0.0106992642
0.010655984
0.0106696939
0.0110012072
0.0110076956
0.0107096845
0.0106530912
0.0106701834
0.01100084
0.0110092397
0.0107027547
0.0106488656
0.0106676758
0.0110079557
0.0110050574
0.010671241
0.0106715095
0.0109988137
0.0110121008
0.010714477
0.010648391
0.0106648154
0.0110171966
0.0110162642
0.0110142539
0.0110216175
0.0106673609
0.0106308287
0.0106629335
0.0110076237
0.0110140224
0.0107308395
0.010654705
0.0106854653
0.0110148857
0.0107300477
0.0106640781
0.010991338
0.0110137729
0.0107019687
0.0106489284
0.0106616715
0.0110146238
0.0110044611
0.0106675702
0.0106601003
0.0110128656
0.0110014312
0.0106619946
0.0106873365
0.0110151053
0.0109979149
0.0110169774
0.0106825658
0.0106455899
0.0106639908
0.0110058291
0.011010087
0.0107394064
0.0106553525
0.0106741804
0.0110024374
0.0110064277
0.0107320312
0.0106565151
0.0106720159
0.0110017065
0.0110078032
0.0107146189
0.0106509596
0.0106666308
0.0110086848
0.0110035179
0.0106737093
)
;

boundaryField
{
    closed
    {
        type            calculated;
        value           nonuniform List<scalar> 0();
    }
    open
    {
        type            calculated;
        value           nonuniform List<scalar> 0();
    }
    sides
    {
        type            empty;
    }
    procBoundary1to0
    {
        type            processor;
        value           uniform 0.0106368082;
    }
    procBoundary1to2
    {
        type            processor;
        value           uniform 0.0106719574;
    }
}


// ************************************************************************* //
