/*--------------------------------*- C++ -*----------------------------------*\
| =========                 |                                                 |
| \\      /  F ield         | OpenFOAM: The Open Source CFD Toolbox           |
|  \\    /   O peration     | Version:  2306                                  |
|   \\  /    A nd           | Website:  www.openfoam.com                      |
|    \\/     M anipulation  |                                                 |
\*---------------------------------------------------------------------------*/
FoamFile
{
    version     2.0;
    format      ascii;
    arch        "LSB;label=32;scalar=64";
    class       volScalarField;
    location    "0.00076";
    object      p;
}
// * * * * * * * * * * * * * * * * * * * * * * * * * * * * * * * * * * * * * //

dimensions      [1 -1 -2 0 0 0 0];

internalField   nonuniform List<scalar> 
530
(
101433.72
101470.501
101496.55
101461
101429.638
101396.189
101350.441
101331.549
101318.479
101318.466
101382.807
101509.742
101586.948
101525.159
101366.899
101202.246
101153.36
101289.535
101491.711
101577.747
101563.457
101645.802
101865.51
101986.775
101663.035
101025.441
100967.003
101536.846
101591.344
100950.284
100785.727
100829.633
100928.004
101304.187
101787.3
101868.401
101456.588
100998.191
100822.932
100608.003
100387.731
100546.51
101180.379
101810.432
101923.094
101645.46
101464.463
101595.995
101772.768
101735.47
101663.186
101632.909
101617.012
101635.844
101668.406
101684.393
101668.339
101613.922
101526.678
101429.942
101341.843
101293.969
101305.967
101379.496
101500.446
101640.283
101760.415
101824.79
101822.592
101775.252
101719.018
101675.958
101648.198
101631.093
101619.198
101608.913
101598.781
101588.288
101577.231
101565.595
101553.481
101541.052
101528.476
101515.912
101503.508
101491.384
101479.628
101468.303
101457.45
101447.092
101437.249
101427.919
101419.096
101410.803
101403.086
101396.033
101389.258
101382.899
101376.88
101371.328
101366.237
101361.487
101357.072
101353.22
101349.146
101344.979
101340.947
101336.796
101332.751
101328.771
101324.765
101321.44
101317.587
101313.794
101310.167
101306.891
101303.889
101300.995
101298.314
101295.634
101293.101
101290.751
101288.69
101286.717
101285.158
101283.543
101282.298
101281.232
101280.43
101279.728
101279.202
101278.878
101278.541
101279.166
101278.484
101278.865
101279.183
101280.099
101280.566
101281.591
101282.626
101283.965
101284.869
101286.101
101287.276
101288.681
101289.715
101291.035
101292.326
101293.878
101295.111
101296.628
101298.115
101299.77
101301.179
101302.769
101304.257
101305.765
101307.43
101309.115
101310.65
101312.049
101313.595
101314.642
101315.927
101316.964
101317.979
101318.994
101319.962
101320.677
101321.109
101321.59
101321.346
101321.194
101320.654
101320.06
101318.873
101317.664
101316.225
101314.801
101312.844
101310.769
101308.395
101305.875
101302.738
101299.352
101295.749
101291.963
101287.47
101282.636
101277.412
101272.125
101266.047
101259.624
101252.839
101245.834
101238.571
101230.311
101221.458
101212.343
101202.768
101192.081
101180.611
101168.7
101156.443
101143.026
101128.452
101113.182
101097.54
101081.13
101063.014
101043.983
101024.527
101003.962
100981.686
100956.141
100929.326
100901.152
100871.314
100838.235
100803.175
100767.364
100729.837
100688.386
100644.413
100599.536
100552.707
100501.379
100447.6
100393.478
100337.822
100277.799
100215.714
100152.938
100089.676
100026.151
99955.8926
99886.7495
99817.5678
99749.0111
99676.7356
99605.4415
99536.7678
99471.0579
99404.0104
99340.1
99280.4298
99226.7629
99177.366
99135.7748
99108.2257
99098.943
99114.5475
99147.3938
99192.5748
99246.9794
99307.6486
99375.4965
99446.4138
99521.8564
99598.1195
99678.1772
99759.4652
99843.2127
99924.68
100006.651
100088.46
100169.128
100246.411
100315.813
100381.98
100443.71
100500.175
100548.595
100591.629
100632.26
100678.611
100723.635
100766.366
100807.355
100845.37
100883.134
100921.754
100962.191
101004.417
101043.185
101080.919
101119.129
101159.689
101193.767
101226.942
101257.337
101284.713
101308.803
101332.084
101355.206
101377.418
101398.683
101419.173
101438.706
101456.094
101471.094
101484.93
101497.702
101508.871
101518.819
101526.175
101532.745
101538.206
101542.945
101546.585
101550.699
101555.116
101559.542
101562.901
101564.663
101566.446
101568.126
101569.636
101571.11
101572.027
101573.126
101573.909
101574.453
101574.413
101574.969
101576.15
101578.099
101580.2
101581.945
101584.126
101586.742
101590.168
101594.158
101598.35
101603.266
101608.912
101615.52
101622.529
101629.175
101635.087
101645.678
101656.054
101666.373
101675.952
101684.204
101692.507
101701.603
101710.835
101719.871
101728.295
101736.788
101744.926
101752.613
101759.817
101765.692
101771.503
101777.499
101784.479
101790.746
101797.111
101803.528
101809.916
101815.215
101820.005
101824.55
101828.581
101831.948
101833.951
101835.294
101835.722
101835.758
101835.501
101833.901
101831.593
101828.453
101825.115
101820.807
101816.201
101810.907
101805.728
101801.084
101796.016
101791.049
101786.174
101782.168
101778.197
101774.878
101771.924
101769.989
101769.15
101768.45
101768.392
101768.67
101769.834
101771.775
101773.246
101774.824
101776.184
101777.868
101779.867
101780.557
101780.709
101780.159
101779.746
101777.711
101774.747
101770.727
101766.391
101760.079
101751.766
101740.926
101728.205
101715.99
101703.361
101689.89
101675.232
101661.662
101654.849
101647.207
101639.212
101632.254
101626.618
101622.964
101620.278
101618.635
101610.987
101607.93
101603.248
101598.237
101593.852
101588.784
101583.975
101578.661
101573.045
101569.232
101566.198
101563.802
101562.315
101560.541
101558.354
101555.553
101552.127
101548.38
101544.269
101539.906
101534.602
101529.045
101524.252
101520.138
101516.328
101512.967
101510.241
101508.014
101506.043
101504.401
101503.587
101503.239
101503.268
101503.518
101503.967
101504.465
101505.526
101507.061
101509.251
101512.101
101515.218
101517.675
101522.238
101524.625
101528.049
101531.211
101534.296
101537.759
101541.314
101545.149
101549.137
101553.429
101558.07
101563.02
101568.209
101573.621
101579.193
101584.549
101589.794
101594.665
101599.559
101604.281
101608.786
101613.225
101617.877
101622.623
101627.658
101632.372
101636.735
101640.247
101645.989
101648.629
101651.812
101654.592
101657.148
101659.43
101661.451
101663.085
101664.504
101665.42
101665.829
101665.856
101665.663
101664.484
101662.985
101661.061
101658.817
101656.285
101653.644
101650.536
101647.181
101643.718
101640.192
101636.722
101632.861
101628.79
101624.804
101621.262
101617.178
101613.099
101608.93
101604.796
101600.674
101596.679
)
;

boundaryField
{
    closed
    {
        type            zeroGradient;
    }
    open
    {
        type            waveTransmissive;
        gamma           1.25;
        fieldInf        101325;
        lInf            1;
        value           nonuniform List<scalar> 0();
    }
    sides
    {
        type            empty;
    }
    procBoundary0to1
    {
        type            processor;
        value           uniform 101592.277;
    }
}


// ************************************************************************* //
