/*--------------------------------*- C++ -*----------------------------------*\
| =========                 |                                                 |
| \\      /  F ield         | OpenFOAM: The Open Source CFD Toolbox           |
|  \\    /   O peration     | Version:  2306                                  |
|   \\  /    A nd           | Website:  www.openfoam.com                      |
|    \\/     M anipulation  |                                                 |
\*---------------------------------------------------------------------------*/
FoamFile
{
    version     2.0;
    format      ascii;
    arch        "LSB;label=32;scalar=64";
    class       volScalarField;
    location    "0.00076";
    object      Z;
}
// * * * * * * * * * * * * * * * * * * * * * * * * * * * * * * * * * * * * * //

dimensions      [0 0 0 0 0 0 0];

internalField   nonuniform List<scalar> 
530
(
0.0145607942
0.0144875516
0.0144622599
0.0144617525
0.0144617079
0.014461707
0.0144617069
0.0144617069
0.0144617069
0.0144617069
0.0144617069
0.0144617069
0.0144617069
0.0144617069
0.0144617069
0.0144617069
0.0144617069
0.0144617069
0.0144617069
0.0144617069
0.0144617069
0.0144617069
0.0144617069
0.0144617069
0.0144617069
0.0144617069
0.0144617069
0.0144617069
0.0144617069
0.0144617069
0.0144617069
0.0144617069
0.0144617069
0.0144617069
0.0144617069
0.0144617069
0.0144617069
0.0144617069
0.0144617069
0.0144617069
0.0144617069
0.0144617069
0.0144617069
0.0144617069
0.0144617069
0.0144617069
0.0144617069
0.0144617069
0.0144617069
0.0144617069
0.0144617069
0.0144617069
0.0144617069
0.0144617069
0.0144617069
0.0144617069
0.0144617069
0.0144617069
0.0144617069
0.0144617069
0.0144617069
0.0144617069
0.0144617069
0.0144617069
0.0144617069
0.0144617069
0.0144617069
0.0144617069
0.0144617069
0.0144617069
0.0144617069
0.0144617069
0.0144617069
0.014461707
0.014461707
0.0144617073
0.0144617079
0.0144617084
0.0144617094
0.0144617156
0.0144617269
0.0144617315
0.0144617358
0.0144617767
0.0144618804
0.0144619372
0.0144621295
0.0144627058
0.0144630573
0.0144594095
0.0144534262
0.0144624215
0.0145149088
0.0145371875
0.014406081
0.0142812388
0.0144128624
0.0147244823
0.0147484457
0.0146755911
0.0142922045
0.0140846554
0.014077468
0.0141193042
0.0148110558
0.0148421251
0.0147602588
0.0147595953
0.0144712392
0.0140820763
0.0140659246
0.0141090013
0.0147723156
0.0148428696
0.0147378595
0.0145025374
0.0140770118
0.0140673744
0.0141030606
0.0147639398
0.0148305007
0.0147640041
0.0145741684
0.0140714232
0.0141296039
0.014731218
0.0146569704
0.0140764049
0.0141035259
0.0148406952
0.0148736553
0.0145817861
0.0140861549
0.0141625933
0.0147624672
0.0146561472
0.0140789666
0.0142133496
0.0147743946
0.0146392374
0.0140805569
0.0142320871
0.0147805396
0.0146329194
0.0140817363
0.0142433998
0.0147809417
0.0146256202
0.0140822358
0.0142469473
0.0147753222
0.0146094618
0.0140832544
0.0142658097
0.0147804379
0.0146501089
0.0140865568
0.0141046248
0.0148446013
0.0148925531
0.0145551627
0.0140951865
0.0142522232
0.0147802192
0.0146471837
0.0140882303
0.0141123987
0.0148452958
0.0148969502
0.014547176
0.0140945922
0.0142742329
0.0147846194
0.0145814829
0.0140844543
0.0143065619
0.0147846312
0.014564171
0.0140820652
0.0143199765
0.0147857001
0.014554702
0.0140804811
0.0143245297
0.0147828369
0.0145366953
0.0140805542
0.0143456143
0.0147902869
0.0146055809
0.0140818836
0.0141326779
0.0148469573
0.0148932348
0.0145110425
0.0140897532
0.0143154961
0.0147784629
0.0145215543
0.0140816451
0.0143554485
0.0147813011
0.0145880562
0.0140817287
0.0141006513
0.0148407575
0.0148800535
0.014487903
0.0140932362
0.0143417222
0.0147847671
0.0145970129
0.0140866527
0.0140990244
0.0148431841
0.014887081
0.0145056066
0.0140969239
0.0143377581
0.0147821609
0.0145303282
0.0140900378
0.0143470902
0.014771711
0.0145267545
0.014090901
0.0143398175
0.0147649797
0.0145221716
0.0140955249
0.0143486245
0.0147735936
0.0146303392
0.0141062069
0.0140945909
0.0147722361
0.0148917852
0.0145887409
0.0141231618
0.0142738622
0.0147587072
0.0146167657
0.0141257723
0.0142473312
0.0147304114
0.0146157873
0.0141365274
0.0142407179
0.0147320604
0.0147283267
0.0141695203
0.0140885246
0.0145626295
0.0148503448
0.0147517474
0.0141906997
0.0141539737
0.0146272103
0.0146843071
0.0142231188
0.0141557942
0.0146168252
0.0147356735
0.014339846
0.0140992489
0.014363736
0.0147627817
0.0147784707
0.0142747346
0.014117375
0.0144714348
0.0147252743
0.0144283434
0.0141167712
0.0141832117
0.0146941904
0.014801886
0.0148043914
0.0148087516
0.0143967757
0.0141045482
0.014323333
0.0147507956
0.0147844975
0.0143083042
0.0141019137
0.0144422988
0.0146721118
0.0143405966
0.0141047432
0.014448279
0.0147106412
0.0144257399
0.0140964738
0.0141287167
0.0146808542
0.0148179876
0.0147926224
0.0148095198
0.0147956523
0.0142804717
0.0140818304
0.0140928925
0.0145498031
0.0146495054
0.014260244
0.0141087506
0.0145242595
0.0147250621
0.014391972
0.0140976853
0.0142392307
0.0147662246
0.0148282977
0.014424723
0.0141112945
0.0143168373
0.014789996
0.0147812135
0.0142722222
0.0141223101
0.014525896
0.0147488453
0.0144291622
0.014099585
0.0141653258
0.0147755339
0.0148284602
0.0144402088
0.0141042195
0.0141791825
0.0147837336
0.0148165935
0.0144243683
0.0141007176
0.0141585997
0.0147706786
0.0147979249
0.0144121438
0.0140976459
0.0141526295
0.0147564445
0.0148200325
0.0147752844
0.0143815623
0.0141055519
0.0142770777
0.0147935772
0.0147860052
0.0143501661
0.0141144223
0.0143750212
0.0147978099
0.0147584041
0.0142444551
0.0141258674
0.0145480634
0.0146805678
0.014258212
0.0141256557
0.0145578993
0.0147187992
0.0143516574
0.0141017949
0.0143045182
0.0148096437
0.0147891832
0.0143200754
0.0141211225
0.0144383222
0.0148114403
0.0147473562
0.0142228281
0.0141323896
0.014577495
0.0147178431
0.0143083856
0.0141158529
0.0144343814
0.0148069852
0.0147380823
0.0142096475
0.0141337501
0.0145890663
0.0147081334
0.0142879206
0.0141128121
0.0144257643
0.0148066193
0.014747345
0.0142522327
0.0141247887
0.0144939018
0.0148168171
0.0147387515
0.0142250238
0.0141297612
0.0145431802
0.0148306942
0.0147281964
0.0141718305
0.0141352827
0.0146502985
0.0146978863
0.0141792101
0.0141350445
0.0146696837
0.0147177332
0.0142043705
0.0141271051
0.0145725166
0.0148414233
0.0147290518
0.01414559
0.0141331026
0.0146939281
0.0147117735
0.0141480736
0.0141313578
0.0147067236
0.0147273815
0.0141774575
0.0141216814
0.0145801882
0.0148440203
0.0147268695
0.0141276845
0.0141263972
0.0147162573
0.0147309841
0.0141559412
0.0141184904
0.0145962778
0.0148500556
0.0147283665
0.0141217595
0.0141227418
0.0147330121
0.0147364732
0.0141299305
0.0141165471
0.0146191112
0.0148630598
0.014739389
0.0141213098
0.0141231258
0.0147391539
0.014728058
0.014109108
0.0141267772
0.0147444465
0.0147213163
0.0141044855
0.0141224088
0.0147580322
0.0147494822
0.0141324467
0.014104572
0.0145538698
0.0148568099
0.0147373403
0.0141032563
0.0141037748
0.0146727287
0.0147692285
0.0144722247
0.0140829381
0.014117962
0.0148373631
0.0148443747
0.0144072519
0.0140987646
0.0143165011
0.0148603564
0.0147871312
0.0141131806
0.0141060563
0.0146476726
0.0147763977
0.0145269827
0.0140817053
0.0141155881
0.0148121042
0.0148020266
0.0141373279
0.0141049287
0.0146395741
0.014779655
0.0145379677
0.0140758171
0.0141025855
0.0147423745
0.0148363115
0.0145351023
0.0140898456
0.0141274284
0.0148593143
0.0148675441
0.0145090708
0.0140881991
0.0140938427
0.0140806794
0.0141225852
0.0147267816
0.0148420891
0.0147850376
0.0148201255
0.014743785
0.0142026475
0.0140943439
0.0145272101
0.0147322265
0.0144915901
0.0140690804
0.0141063469
0.0147186735
0.0147851316
0.0144740958
0.0140742488
0.0141138241
0.0147641598
0.0148771064
0.0147468773
0.0141798978
0.0140990244
0.0145757628
0.0147489957
0.0144924519
0.0140692472
0.0141108187
)
;

boundaryField
{
    closed
    {
        type            zeroGradient;
    }
    open
    {
        type            zeroGradient;
    }
    sides
    {
        type            empty;
    }
    procBoundary0to1
    {
        type            processor;
        value           uniform 0.0147442841;
    }
}


// ************************************************************************* //
