/*--------------------------------*- C++ -*----------------------------------*\
| =========                 |                                                 |
| \\      /  F ield         | OpenFOAM: The Open Source CFD Toolbox           |
|  \\    /   O peration     | Version:  2306                                  |
|   \\  /    A nd           | Website:  www.openfoam.com                      |
|    \\/     M anipulation  |                                                 |
\*---------------------------------------------------------------------------*/
FoamFile
{
    version     2.0;
    format      ascii;
    arch        "LSB;label=32;scalar=64";
    class       volScalarField;
    location    "0.00122";
    object      alpha;
}
// * * * * * * * * * * * * * * * * * * * * * * * * * * * * * * * * * * * * * //

dimensions      [1 -1 -1 0 0 0 0];

internalField   nonuniform List<scalar> 
530
(
3.75167568e-05
3.60778199e-05
3.58386473e-05
3.58342873e-05
3.58339012e-05
3.5833888e-05
3.5833887e-05
3.5833887e-05
3.5833887e-05
3.5833887e-05
3.5833887e-05
3.5833887e-05
3.5833887e-05
3.5833887e-05
3.5833887e-05
3.5833887e-05
3.5833887e-05
3.5833887e-05
3.5833887e-05
3.5833887e-05
3.5833887e-05
3.5833887e-05
3.5833887e-05
3.5833887e-05
3.5833887e-05
3.5833887e-05
3.5833887e-05
3.5833887e-05
3.5833887e-05
3.5833887e-05
3.5833887e-05
3.5833887e-05
3.5833887e-05
3.5833887e-05
3.5833887e-05
3.5833887e-05
3.5833887e-05
3.5833887e-05
3.5833887e-05
3.5833887e-05
3.5833887e-05
3.5833887e-05
3.5833887e-05
3.5833887e-05
3.5833887e-05
3.5833887e-05
3.5833887e-05
3.5833887e-05
3.5833887e-05
3.5833887e-05
3.5833887e-05
3.5833887e-05
3.5833887e-05
3.5833887e-05
3.5833887e-05
3.5833887e-05
3.5833887e-05
3.5833887e-05
3.5833887e-05
3.5833887e-05
3.5833887e-05
3.5833887e-05
3.5833887e-05
3.5833887e-05
3.58338871e-05
3.58338872e-05
3.58338875e-05
3.58338881e-05
3.583389e-05
3.58338926e-05
3.58338998e-05
3.58339148e-05
3.58339395e-05
3.58339864e-05
3.58340699e-05
3.58342405e-05
3.58343632e-05
3.58346477e-05
3.58352068e-05
3.58359467e-05
3.58364911e-05
3.58365347e-05
3.58358952e-05
3.58383756e-05
3.58560481e-05
3.58639949e-05
3.58535738e-05
3.5734403e-05
3.57181055e-05
3.60858349e-05
3.6806743e-05
3.63370062e-05
3.57010957e-05
3.55339683e-05
3.54221308e-05
3.54784233e-05
3.59747988e-05
3.6825075e-05
3.68237379e-05
3.67348002e-05
3.58666869e-05
3.53239546e-05
3.53293572e-05
3.53181316e-05
3.53915359e-05
3.59117575e-05
3.68254126e-05
3.68217474e-05
3.67917562e-05
3.68138795e-05
3.67130532e-05
3.57513147e-05
3.51690222e-05
3.52156719e-05
3.53796827e-05
3.54205134e-05
3.56982675e-05
3.63489627e-05
3.68200235e-05
3.67084365e-05
3.57768136e-05
3.53789793e-05
3.5430615e-05
3.56967234e-05
3.65154066e-05
3.68297283e-05
3.66793018e-05
3.57277058e-05
3.53926827e-05
3.54707087e-05
3.57108249e-05
3.65122696e-05
3.66964114e-05
3.57564093e-05
3.57514209e-05
3.64319849e-05
3.66377121e-05
3.56845376e-05
3.53531461e-05
3.56984904e-05
3.66394194e-05
3.66396667e-05
3.57207115e-05
3.57282444e-05
3.64724896e-05
3.6398229e-05
3.57849496e-05
3.58425625e-05
3.6012371e-05
3.5738479e-05
3.57371196e-05
3.67185592e-05
3.67387699e-05
3.57109368e-05
3.55162417e-05
3.5762429e-05
3.6759657e-05
3.66177818e-05
3.57572123e-05
3.57745436e-05
3.67258353e-05
3.6659292e-05
3.57026323e-05
3.54350066e-05
3.55474963e-05
3.5589491e-05
3.55977143e-05
3.57058291e-05
3.58785278e-05
3.68087732e-05
3.65491493e-05
3.57490903e-05
3.57625365e-05
3.67444191e-05
3.66132174e-05
3.55864366e-05
3.531381e-05
3.5739496e-05
3.68095127e-05
3.68004287e-05
3.57483532e-05
3.57492469e-05
3.57342443e-05
3.57423016e-05
3.58048765e-05
3.68176548e-05
3.65113983e-05
3.57552164e-05
3.57413881e-05
3.67698168e-05
3.65158336e-05
3.57610979e-05
3.57541756e-05
3.67677163e-05
3.67315527e-05
3.56268092e-05
3.52687602e-05
3.57321628e-05
3.66684954e-05
3.63879758e-05
3.55950339e-05
3.57019834e-05
3.65016742e-05
3.64694222e-05
3.57376514e-05
3.57423811e-05
3.66602093e-05
3.67552149e-05
3.5709453e-05
3.52936099e-05
3.5746592e-05
3.65448211e-05
3.6664511e-05
3.57348975e-05
3.56954779e-05
3.62266306e-05
3.67448493e-05
3.57501283e-05
3.53224303e-05
3.54779e-05
3.62860835e-05
3.66080143e-05
3.57443035e-05
3.56968639e-05
3.59552404e-05
3.65213781e-05
3.57781338e-05
3.57382465e-05
3.59294543e-05
3.66245122e-05
3.5841336e-05
3.57729367e-05
3.59020307e-05
3.66744844e-05
3.59050322e-05
3.57808614e-05
3.58653181e-05
3.67139473e-05
3.60691392e-05
3.55667119e-05
3.54198205e-05
3.58971692e-05
3.65641008e-05
3.58841758e-05
3.5702127e-05
3.57534828e-05
3.64124333e-05
3.59145761e-05
3.57456738e-05
3.57784189e-05
3.66625895e-05
3.60588311e-05
3.57702783e-05
3.57850181e-05
3.67233805e-05
3.63065529e-05
3.57087334e-05
3.54441277e-05
3.58121471e-05
3.67444791e-05
3.63060365e-05
3.5675566e-05
3.53715251e-05
3.57836472e-05
3.67407322e-05
3.61687198e-05
3.57706081e-05
3.57753439e-05
3.67302419e-05
3.61299635e-05
3.57539163e-05
3.57434406e-05
3.67393849e-05
3.63098831e-05
3.56150077e-05
3.52874232e-05
3.57590331e-05
3.67550465e-05
3.6206676e-05
3.57734781e-05
3.57637081e-05
3.67722789e-05
3.63026113e-05
3.56610505e-05
3.54573215e-05
3.54584568e-05
3.5403606e-05
3.57778237e-05
3.67907114e-05
3.65500896e-05
3.57179707e-05
3.54240279e-05
3.58112827e-05
3.67959423e-05
3.63105444e-05
3.57694884e-05
3.57903875e-05
3.68132056e-05
3.62468492e-05
3.57651095e-05
3.57636211e-05
3.68250885e-05
3.63220324e-05
3.56478782e-05
3.53777654e-05
3.53678732e-05
3.57953833e-05
3.68204838e-05
3.6688756e-05
3.57224766e-05
3.54757377e-05
3.58408484e-05
3.68197512e-05
3.67527925e-05
3.5728145e-05
3.55383588e-05
3.58829164e-05
3.68296158e-05
3.66700148e-05
3.57324981e-05
3.54425585e-05
3.54684551e-05
3.583983e-05
3.68364398e-05
3.67492722e-05
3.57101556e-05
3.53553163e-05
3.58079011e-05
3.68216654e-05
3.64004514e-05
3.57535093e-05
3.57785177e-05
3.68504886e-05
3.65640712e-05
3.55683147e-05
3.52357255e-05
3.57718588e-05
3.68348584e-05
3.66266478e-05
3.55754299e-05
3.52525101e-05
3.57787777e-05
3.68321403e-05
3.66395757e-05
3.55640526e-05
3.52450099e-05
3.57814409e-05
3.68284637e-05
3.65578121e-05
3.56354019e-05
3.53850978e-05
3.54091369e-05
3.57999278e-05
3.68392244e-05
3.67760954e-05
3.56593203e-05
3.53131679e-05
3.58002849e-05
3.68284257e-05
3.67779113e-05
3.56357546e-05
3.52813564e-05
3.58053622e-05
3.68222999e-05
3.64543633e-05
3.57483053e-05
3.57812848e-05
3.68485632e-05
3.63621913e-05
3.56297233e-05
3.57682395e-05
3.68583474e-05
3.65465985e-05
3.54655652e-05
3.51393459e-05
3.57662582e-05
3.68380648e-05
3.6668918e-05
3.55025166e-05
3.51778059e-05
3.57854392e-05
3.68244637e-05
3.63942729e-05
3.56299606e-05
3.57745206e-05
3.68560198e-05
3.66090658e-05
3.54784139e-05
3.51471966e-05
3.57735372e-05
3.68252666e-05
3.64078643e-05
3.55891302e-05
3.57693702e-05
3.68544743e-05
3.6580531e-05
3.54569124e-05
3.51104649e-05
3.5764366e-05
3.68334765e-05
3.67102654e-05
3.54812952e-05
3.51193846e-05
3.5770534e-05
3.68269076e-05
3.67591379e-05
3.5502614e-05
3.51323221e-05
3.57748671e-05
3.68184973e-05
3.64705524e-05
3.56083118e-05
3.576137e-05
3.68437749e-05
3.63952264e-05
3.55365472e-05
3.57607762e-05
3.68549072e-05
3.66403189e-05
3.54075668e-05
3.50632887e-05
3.57541418e-05
3.68297568e-05
3.64940208e-05
3.5556146e-05
3.57558669e-05
3.68505909e-05
3.64794236e-05
3.55596137e-05
3.57719702e-05
3.68546205e-05
3.68065144e-05
3.54943128e-05
3.51460966e-05
3.57838589e-05
3.68249261e-05
3.68237513e-05
3.55438187e-05
3.52807398e-05
3.5500263e-05
3.52568017e-05
3.56876491e-05
3.68468565e-05
3.68554118e-05
3.60226359e-05
3.56927124e-05
3.57767042e-05
3.68727086e-05
3.68130628e-05
3.54620848e-05
3.50613605e-05
3.57632287e-05
3.68223802e-05
3.66738486e-05
3.55380608e-05
3.57670651e-05
3.68524166e-05
3.66012697e-05
3.54882464e-05
3.5757816e-05
3.68525239e-05
3.65231589e-05
3.54365185e-05
3.57729965e-05
3.68608303e-05
3.67722053e-05
3.53755359e-05
3.49867501e-05
3.57482435e-05
3.68297982e-05
3.68342581e-05
3.54364028e-05
3.5081318e-05
3.57680589e-05
3.68234463e-05
3.68337508e-05
3.54650703e-05
3.51237434e-05
3.57785333e-05
3.68233379e-05
3.68303236e-05
3.54391664e-05
3.51270224e-05
3.57974371e-05
3.68139726e-05
3.65313913e-05
3.55456827e-05
3.57721519e-05
3.68573651e-05
3.6801221e-05
3.53490771e-05
3.50654674e-05
3.57876098e-05
3.68130979e-05
3.64838212e-05
3.55243356e-05
3.57728145e-05
3.68524807e-05
3.67857399e-05
3.53299395e-05
3.50768983e-05
3.5782065e-05
3.68139143e-05
3.68170146e-05
3.53810647e-05
3.5319953e-05
3.60338433e-05
3.68035033e-05
3.68149183e-05
3.60514573e-05
3.53701943e-05
3.53018825e-05
3.53802864e-05
3.5196464e-05
3.56983752e-05
3.68386626e-05
3.68399656e-05
3.63450587e-05
3.54918777e-05
3.53382327e-05
3.58884098e-05
3.68151827e-05
3.681425e-05
3.54506896e-05
3.51746132e-05
3.54715267e-05
3.6099674e-05
3.68321315e-05
3.68105283e-05
3.55150876e-05
)
;

boundaryField
{
    closed
    {
        type            calculated;
        value           uniform 5.14108066e-05;
    }
    open
    {
        type            calculated;
        value           nonuniform List<scalar> 0();
    }
    sides
    {
        type            empty;
    }
    procBoundary0to1
    {
        type            processor;
        value           uniform 3.5251341e-05;
    }
}


// ************************************************************************* //
