/*--------------------------------*- C++ -*----------------------------------*\
| =========                 |                                                 |
| \\      /  F ield         | OpenFOAM: The Open Source CFD Toolbox           |
|  \\    /   O peration     | Version:  2306                                  |
|   \\  /    A nd           | Website:  www.openfoam.com                      |
|    \\/     M anipulation  |                                                 |
\*---------------------------------------------------------------------------*/
FoamFile
{
    version     2.0;
    format      ascii;
    arch        "LSB;label=32;scalar=64";
    class       volScalarField;
    location    "0.00122";
    object      rho;
}
// * * * * * * * * * * * * * * * * * * * * * * * * * * * * * * * * * * * * * //

dimensions      [1 -3 0 0 0 0 0];

internalField   nonuniform List<scalar> 
530
(
0.882166703
0.928190501
0.937192019
0.938036908
0.937106181
0.935030816
0.935172953
0.935978782
0.93517095
0.93330518
0.932952399
0.937201177
0.938719889
0.934743866
0.934165142
0.936586376
0.936848624
0.936955148
0.937099331
0.934586808
0.931176449
0.93148993
0.93828435
0.944560013
0.941807175
0.936022391
0.932385022
0.929770471
0.928161512
0.929332104
0.933779462
0.938875091
0.940432046
0.937633897
0.934283412
0.934749922
0.93726853
0.937907994
0.936235219
0.936190531
0.937309864
0.937285577
0.936950877
0.93727413
0.93734281
0.937246905
0.937286383
0.937218088
0.937100196
0.937012143
0.936926285
0.936886762
0.936919927
0.93697912
0.937019601
0.936971145
0.936752058
0.93624494
0.935167542
0.933035148
0.929221344
0.923429424
0.916803303
0.911774894
0.910567277
0.914130887
0.921010584
0.927789983
0.932668761
0.935743705
0.937489186
0.938373442
0.938732516
0.938815943
0.938775968
0.938699399
0.938636379
0.93859893
0.938589602
0.938614626
0.938688022
0.938821694
0.939027401
0.939190903
0.938939207
0.939068189
0.93983745
0.944164325
0.945241689
0.93416068
0.911399046
0.927508644
0.948433133
0.955139284
0.959799457
0.958762013
0.942860871
0.91562622
0.916276876
0.920340968
0.94879169
0.967993001
0.968276844
0.969033423
0.966959292
0.949548365
0.919764458
0.920055258
0.921392955
0.920661234
0.924673397
0.955349334
0.975721839
0.973933761
0.96811113
0.966585304
0.956596469
0.935658797
0.919409441
0.923575341
0.953060758
0.96669273
0.964506303
0.954701689
0.928327787
0.91688649
0.922294617
0.952025396
0.963450166
0.960204678
0.951265347
0.92540332
0.919117725
0.94840046
0.948138292
0.926111358
0.919211863
0.948949392
0.960416813
0.947810862
0.91777667
0.917437253
0.946129123
0.945587399
0.921785331
0.923868583
0.942980794
0.940937931
0.935366367
0.943875868
0.943726744
0.91263585
0.911709186
0.944019473
0.950893194
0.942065742
0.910222526
0.914851347
0.94177783
0.941040904
0.910871589
0.912844863
0.942765505
0.952016013
0.947720654
0.946147929
0.945605721
0.941733904
0.935951856
0.905906185
0.914510184
0.939449738
0.938786655
0.907653382
0.911660597
0.944100666
0.953411071
0.938337112
0.903988944
0.90423121
0.937370035
0.937110361
0.937257117
0.936743857
0.934416731
0.901868356
0.911713009
0.935091094
0.93512014
0.902372119
0.910174775
0.933457995
0.933161959
0.900773964
0.901622652
0.935917894
0.947787921
0.931008074
0.901223066
0.909094924
0.933329289
0.92835137
0.902503115
0.902397809
0.923875212
0.922525484
0.892558265
0.888516016
0.919829262
0.933178145
0.916809002
0.891563624
0.887390146
0.915530729
0.916930469
0.900261895
0.884473572
0.915190646
0.930081147
0.925226707
0.899799644
0.890306436
0.917111387
0.91924837
0.911424328
0.894551096
0.917825334
0.919777018
0.914241486
0.893451362
0.91801038
0.920771082
0.91716483
0.893907205
0.918053094
0.922509406
0.920231668
0.894529231
0.914813337
0.931407079
0.936969594
0.921392641
0.901198089
0.922584388
0.928844041
0.927445076
0.907433172
0.923214733
0.928980345
0.928211126
0.901147954
0.920173701
0.929602968
0.929341226
0.900480906
0.913702023
0.932682804
0.942263909
0.929917253
0.901047368
0.915122649
0.935219539
0.946199821
0.932261657
0.902659972
0.920833648
0.933685668
0.933728634
0.90422818
0.923191607
0.935442824
0.935864841
0.904978378
0.91867337
0.941044656
0.952781962
0.936643763
0.905532753
0.923039348
0.936924096
0.937292758
0.905575499
0.920667224
0.941180078
0.948336754
0.948335476
0.950478041
0.937593523
0.90541935
0.913535413
0.939705159
0.950156478
0.936791288
0.905412223
0.92119053
0.93827464
0.937542213
0.90487511
0.923197949
0.93841629
0.938370693
0.904441894
0.920818364
0.942334247
0.951514014
0.951950867
0.937215819
0.904313538
0.909152242
0.939429397
0.948134947
0.935558511
0.90404279
0.906687905
0.939041166
0.945792434
0.934076789
0.903528655
0.909406999
0.938815116
0.948894389
0.947946446
0.935368327
0.903257252
0.906702729
0.939490909
0.952023728
0.936381371
0.903872302
0.91783754
0.938231259
0.937411703
0.902913336
0.912803034
0.944534494
0.956194113
0.937647984
0.903518132
0.910861056
0.944300791
0.955606595
0.937385
0.903536574
0.910370588
0.944591672
0.955729566
0.937151105
0.903501396
0.912751036
0.94208809
0.950617351
0.949763406
0.936387959
0.902864503
0.905410446
0.94101433
0.953155628
0.936345916
0.903252188
0.905383894
0.941909092
0.954361945
0.936319981
0.90363833
0.916048815
0.938301956
0.937266109
0.902837455
0.919075662
0.942503483
0.937777907
0.902554105
0.913335623
0.947984403
0.959335544
0.93766904
0.903104358
0.90925088
0.946419005
0.957680734
0.936635981
0.903128819
0.917350837
0.941655461
0.936637592
0.901602887
0.910303479
0.946372991
0.957897474
0.936266326
0.902441353
0.916332189
0.942529622
0.936393401
0.901374517
0.911016057
0.947031279
0.959185848
0.936771398
0.902456076
0.907315972
0.946625285
0.959379832
0.937082556
0.903182263
0.906083388
0.946442115
0.959499986
0.937439903
0.903942158
0.915772809
0.94333363
0.938179842
0.903252475
0.918344723
0.945937115
0.938365303
0.902984704
0.910759916
0.950283159
0.962330747
0.938509479
0.903849683
0.915248214
0.94521495
0.938402599
0.902948781
0.915614991
0.944958026
0.937829751
0.902707443
0.904754286
0.947065439
0.959250058
0.9373144
0.903694254
0.904040502
0.945355534
0.954662741
0.946808242
0.955375362
0.94031304
0.902959605
0.902418961
0.929745072
0.940141164
0.937537162
0.901923239
0.904426346
0.948082755
0.962131
0.937986677
0.903854883
0.90946029
0.94570575
0.93803
0.902860141
0.911870538
0.947529104
0.938493026
0.903066248
0.914531259
0.94954851
0.938304395
0.903054347
0.906740896
0.951900485
0.965575427
0.939416592
0.904574507
0.904715368
0.950291931
0.96271811
0.939170868
0.905130896
0.905052283
0.949679365
0.961591453
0.939143173
0.905405064
0.905442213
0.950795847
0.961678404
0.938718451
0.905887364
0.915669973
0.947228888
0.939615917
0.904322448
0.906692373
0.95388017
0.963792142
0.938958847
0.90582603
0.916977485
0.947706222
0.939275796
0.904135404
0.906862065
0.954048788
0.962822282
0.938486094
0.905096237
0.905188921
0.951881855
0.953892181
0.929997282
0.90482989
0.90433751
0.929088845
0.951392755
0.953738488
0.950712427
0.957073731
0.939528611
0.902636974
0.902362018
0.91889773
0.946197782
0.951511485
0.932845988
0.902748012
0.903071147
0.947156416
0.956637168
0.94610438
0.925633012
0.901533775
0.902572775
0.944358395
)
;

boundaryField
{
    closed
    {
        type            calculated;
        value           uniform 0.57687915;
    }
    open
    {
        type            calculated;
        value           nonuniform List<scalar> 0();
    }
    sides
    {
        type            empty;
    }
    procBoundary0to1
    {
        type            processor;
        value           uniform 0.95346383;
    }
}


// ************************************************************************* //
