/*--------------------------------*- C++ -*----------------------------------*\
| =========                 |                                                 |
| \\      /  F ield         | OpenFOAM: The Open Source CFD Toolbox           |
|  \\    /   O peration     | Version:  2306                                  |
|   \\  /    A nd           | Website:  www.openfoam.com                      |
|    \\/     M anipulation  |                                                 |
\*---------------------------------------------------------------------------*/
FoamFile
{
    version     2.0;
    format      ascii;
    arch        "LSB;label=32;scalar=64";
    class       volScalarField;
    location    "0.00024";
    object      prefDPV_T;
}
// * * * * * * * * * * * * * * * * * * * * * * * * * * * * * * * * * * * * * //

dimensions      [1 -1 -1 -1 0 0 0];

internalField   nonuniform List<scalar> 
530
(
5.97160843e-10
5.98854965e-10
5.98085493e-10
5.96870323e-10
5.97129665e-10
5.97876901e-10
5.97817836e-10
5.97407697e-10
5.97413038e-10
5.97598703e-10
5.97609654e-10
5.97537844e-10
5.97525874e-10
5.97551195e-10
5.97558386e-10
5.97550398e-10
5.97547156e-10
5.9754926e-10
5.97550248e-10
5.97549856e-10
5.97549874e-10
5.97550186e-10
5.97549646e-10
5.97549082e-10
5.97549558e-10
5.97550522e-10
5.97550398e-10
5.97549224e-10
5.97549022e-10
5.97549842e-10
5.97550473e-10
5.97550155e-10
5.9754925e-10
5.9754928e-10
5.97549986e-10
5.97550146e-10
5.97549783e-10
5.97549588e-10
5.97549741e-10
5.97549843e-10
5.97549715e-10
5.97549675e-10
5.97549938e-10
5.9755e-10
5.97549604e-10
5.9754942e-10
5.97549833e-10
5.97550192e-10
5.97549886e-10
5.97549378e-10
5.9754952e-10
5.9755009e-10
5.97550066e-10
5.97549579e-10
5.97549533e-10
5.97549863e-10
5.97549953e-10
5.97549733e-10
5.97549637e-10
5.97549807e-10
5.97549912e-10
5.97549753e-10
5.97549608e-10
5.97549749e-10
5.97549972e-10
5.9754989e-10
5.97549571e-10
5.97549587e-10
5.97549922e-10
5.97549977e-10
5.97549725e-10
5.97549598e-10
5.97549748e-10
5.97549903e-10
5.97549834e-10
5.97549692e-10
5.97549717e-10
5.97549828e-10
5.97549822e-10
5.97549734e-10
5.97549735e-10
5.97549804e-10
5.9754981e-10
5.97549756e-10
5.97549745e-10
5.97549784e-10
5.97549796e-10
5.97549769e-10
5.97549757e-10
5.97549776e-10
5.97549792e-10
5.97549784e-10
5.97549757e-10
5.97549754e-10
5.97549773e-10
5.97549809e-10
5.97549807e-10
5.97549741e-10
5.97549708e-10
5.97549775e-10
5.9754987e-10
5.97549841e-10
5.97549668e-10
5.9754966e-10
5.97549827e-10
5.97549914e-10
5.97549819e-10
5.97549643e-10
5.97549658e-10
5.9754984e-10
5.975499e-10
5.97549818e-10
5.9754967e-10
5.97549677e-10
5.97549813e-10
5.97549873e-10
5.97549807e-10
5.97549695e-10
5.97549708e-10
5.97549823e-10
5.97549836e-10
5.97549762e-10
5.97549729e-10
5.97549768e-10
5.97549803e-10
5.97549787e-10
5.97549759e-10
5.97549764e-10
5.97549782e-10
5.97549781e-10
5.97549772e-10
5.97549771e-10
5.97549775e-10
5.97549776e-10
5.97549774e-10
5.97549774e-10
5.97549774e-10
5.97549775e-10
5.97549775e-10
5.97549774e-10
5.97549775e-10
5.97549775e-10
5.97549775e-10
5.97549775e-10
5.97549775e-10
5.97549775e-10
5.97549775e-10
5.97549775e-10
5.97549775e-10
5.97549775e-10
5.97549775e-10
5.97549775e-10
5.97549775e-10
5.97549775e-10
5.97549775e-10
5.97549775e-10
5.97549775e-10
5.97549775e-10
5.97549775e-10
5.97549775e-10
5.97549775e-10
5.97549775e-10
5.97549775e-10
5.97549775e-10
5.97549775e-10
5.97549775e-10
5.97549775e-10
5.97549775e-10
5.97549775e-10
5.97549775e-10
5.97549775e-10
5.97549775e-10
5.97549775e-10
5.97549775e-10
5.97549775e-10
5.97549775e-10
5.97549775e-10
5.97549775e-10
5.97549775e-10
5.97549775e-10
5.97549775e-10
5.97549775e-10
5.97549775e-10
5.97549775e-10
5.97549775e-10
5.97549775e-10
5.97549775e-10
5.97549775e-10
5.97549775e-10
5.97549775e-10
5.97549775e-10
5.97549775e-10
5.97549775e-10
5.97549775e-10
5.97549775e-10
5.97549775e-10
5.97549774e-10
5.97549774e-10
5.97549775e-10
5.97549775e-10
5.97549774e-10
5.97549774e-10
5.97549775e-10
5.97549777e-10
5.97549776e-10
5.9754977e-10
5.97549768e-10
5.9754978e-10
5.97549789e-10
5.97549775e-10
5.97549748e-10
5.97549755e-10
5.97549813e-10
5.97549818e-10
5.97549742e-10
5.97549702e-10
5.97549775e-10
5.9754987e-10
5.97549833e-10
5.9754967e-10
5.97549673e-10
5.97549844e-10
5.97549893e-10
5.97549766e-10
5.97549663e-10
5.97549728e-10
5.97549859e-10
5.97549846e-10
5.97549728e-10
5.97549715e-10
5.9754978e-10
5.97549814e-10
5.97549791e-10
5.97549754e-10
5.97549757e-10
5.97549782e-10
5.97549785e-10
5.97549776e-10
5.97549769e-10
5.97549771e-10
5.97549777e-10
5.97549777e-10
5.97549774e-10
5.97549773e-10
5.97549774e-10
5.97549775e-10
5.97549775e-10
5.97549774e-10
5.97549774e-10
5.97549775e-10
5.97549775e-10
5.97549775e-10
5.97549775e-10
5.97549775e-10
5.97549775e-10
5.97549775e-10
5.97549775e-10
5.97549775e-10
5.97549775e-10
5.97549775e-10
5.97549775e-10
5.97549775e-10
5.97549775e-10
5.97549775e-10
5.97549775e-10
5.97549775e-10
5.97549775e-10
5.97549775e-10
5.97549775e-10
5.97549775e-10
5.97549775e-10
5.97549775e-10
5.97549775e-10
5.97549775e-10
5.97549775e-10
5.97549775e-10
5.97549775e-10
5.97549775e-10
5.97549775e-10
5.97549775e-10
5.97549775e-10
5.97549775e-10
5.97549775e-10
5.97549775e-10
5.97549775e-10
5.97549775e-10
5.97549775e-10
5.97549775e-10
5.97549775e-10
5.97549775e-10
5.97549775e-10
5.97549775e-10
5.97549775e-10
5.97549775e-10
5.97549775e-10
5.97549775e-10
5.97549775e-10
5.97549775e-10
5.97549775e-10
5.97549775e-10
5.97549775e-10
5.97549775e-10
5.97549775e-10
5.97549775e-10
5.97549775e-10
5.97549775e-10
5.97549775e-10
5.97549775e-10
5.97549775e-10
5.97549775e-10
5.97549775e-10
5.97549775e-10
5.97549775e-10
5.97549775e-10
5.97549775e-10
5.97549775e-10
5.97549775e-10
5.97549775e-10
5.97549775e-10
5.97549775e-10
5.97549775e-10
5.97549775e-10
5.97549775e-10
5.97549775e-10
5.97549775e-10
5.97549775e-10
5.97549775e-10
5.97549775e-10
5.97549775e-10
5.97549775e-10
5.97549775e-10
5.97549775e-10
5.97549775e-10
5.97549775e-10
5.97549775e-10
5.97549775e-10
5.97549775e-10
5.97549775e-10
5.97549775e-10
5.97549775e-10
5.97549775e-10
5.97549775e-10
5.97549775e-10
5.97549775e-10
5.97549775e-10
5.97549775e-10
5.97549775e-10
5.97549775e-10
5.97549775e-10
5.97549775e-10
5.97549775e-10
5.97549775e-10
5.97549775e-10
5.97549775e-10
5.97549775e-10
5.97549775e-10
5.97549775e-10
5.97549775e-10
5.97549775e-10
5.97549775e-10
5.97549775e-10
5.97549775e-10
5.97549775e-10
5.97549775e-10
5.97549775e-10
5.97549775e-10
5.97549775e-10
5.97549775e-10
5.97549775e-10
5.97549775e-10
5.97549775e-10
5.97549775e-10
5.97549775e-10
5.97549775e-10
5.97549775e-10
5.97549775e-10
5.97549775e-10
5.97549775e-10
5.97549775e-10
5.97549775e-10
5.97549775e-10
5.97549775e-10
5.97549775e-10
5.97549775e-10
5.97549775e-10
5.97549775e-10
5.97549775e-10
5.97549775e-10
5.97549775e-10
5.97549775e-10
5.97549775e-10
5.97549775e-10
5.97549775e-10
5.97549775e-10
5.97549775e-10
5.97549775e-10
5.97549775e-10
5.97549775e-10
5.97549775e-10
5.97549775e-10
5.97549775e-10
5.97549775e-10
5.97549774e-10
5.97549774e-10
5.97549774e-10
5.97549775e-10
5.97549775e-10
5.97549774e-10
5.97549773e-10
5.97549775e-10
5.97549778e-10
5.97549775e-10
5.97549768e-10
5.9754977e-10
5.97549784e-10
5.97549786e-10
5.97549766e-10
5.97549755e-10
5.97549776e-10
5.975498e-10
5.97549786e-10
5.97549746e-10
5.9754975e-10
5.97549799e-10
5.97549802e-10
5.97549763e-10
5.97549748e-10
5.97549775e-10
5.97549795e-10
5.97549781e-10
5.9754976e-10
5.97549766e-10
5.97549783e-10
5.97549782e-10
5.9754977e-10
5.9754977e-10
5.97549776e-10
5.97549777e-10
5.97549774e-10
5.97549773e-10
5.97549774e-10
5.97549775e-10
5.97549775e-10
5.97549774e-10
5.97549774e-10
5.97549775e-10
5.97549775e-10
5.97549775e-10
5.97549775e-10
5.97549775e-10
5.97549775e-10
5.97549775e-10
5.97549775e-10
5.97549775e-10
5.97549775e-10
5.97549775e-10
5.97549775e-10
5.97549775e-10
5.97549775e-10
5.97549775e-10
5.97549775e-10
5.97549775e-10
5.97549775e-10
5.97549775e-10
5.97549775e-10
5.97549775e-10
5.97549775e-10
5.97549775e-10
5.97549775e-10
5.97549775e-10
5.97549774e-10
5.97549774e-10
5.97549775e-10
5.97549775e-10
5.97549774e-10
5.97549774e-10
5.97549774e-10
5.97549776e-10
5.97549776e-10
5.97549773e-10
5.9754977e-10
5.97549773e-10
5.97549792e-10
5.97549792e-10
5.9754973e-10
5.97549684e-10
5.97549839e-10
5.97550143e-10
5.97549961e-10
5.97548483e-10
5.97548468e-10
5.97552941e-10
5.97555516e-10
5.97545117e-10
5.97529909e-10
5.97544755e-10
5.97606224e-10
5.97600177e-10
5.97429761e-10
5.97370058e-10
5.9770223e-10
5.98036079e-10
5.97589378e-10
5.96491943e-10
5.96688729e-10
5.99492242e-10
5.99702142e-10
5.95619996e-10
5.93442496e-10
5.97714425e-10
6.07156358e-10
6.01276473e-10
5.91121545e-10
5.9101647e-10
6.05386765e-10
6.09712385e-10
5.9671919e-10
5.8982647e-10
5.93367509e-10
6.0919507e-10
6.10901004e-10
5.90327118e-10
5.90250103e-10
6.01705893e-10
6.09922677e-10
5.9981421e-10
5.90829007e-10
5.93946702e-10
6.050591e-10
6.02233133e-10
)
;

boundaryField
{
    closed
    {
        type            calculated;
        value           nonuniform List<scalar> 0();
    }
    open
    {
        type            calculated;
        value           nonuniform List<scalar> 0();
    }
    sides
    {
        type            empty;
    }
    procBoundary2to1
    {
        type            processor;
        value           uniform 5.95497646e-10;
    }
    procBoundary2to3
    {
        type            processor;
        value           uniform 5.9379829e-10;
    }
}


// ************************************************************************* //
