/*--------------------------------*- C++ -*----------------------------------*\
| =========                 |                                                 |
| \\      /  F ield         | OpenFOAM: The Open Source CFD Toolbox           |
|  \\    /   O peration     | Version:  2306                                  |
|   \\  /    A nd           | Website:  www.openfoam.com                      |
|    \\/     M anipulation  |                                                 |
\*---------------------------------------------------------------------------*/
FoamFile
{
    version     2.0;
    format      ascii;
    arch        "LSB;label=32;scalar=64";
    class       volScalarField;
    location    "0.00024";
    object      PV;
}
// * * * * * * * * * * * * * * * * * * * * * * * * * * * * * * * * * * * * * //

dimensions      [0 0 0 0 0 0 0];

internalField   nonuniform List<scalar> 
530
(
-0.00715655716
-0.00714086743
-0.0071477485
-0.0071594844
-0.00715687166
-0.00714970331
-0.00715025041
-0.00715415392
-0.00715410251
-0.00715231539
-0.00715221213
-0.0071528961
-0.00715301134
-0.00715276805
-0.00715269948
-0.00715277569
-0.00715280678
-0.00715278659
-0.00715277715
-0.00715278089
-0.00715278073
-0.00715277774
-0.00715278292
-0.00715278832
-0.00715278377
-0.00715277456
-0.00715277575
-0.00715278698
-0.00715278892
-0.00715278108
-0.00715277505
-0.0071527781
-0.00715278676
-0.00715278648
-0.00715277973
-0.00715277821
-0.00715278169
-0.00715278356
-0.0071527821
-0.00715278113
-0.00715278237
-0.00715278274
-0.00715278024
-0.00715277965
-0.00715278345
-0.00715278521
-0.00715278126
-0.00715277783
-0.00715278077
-0.00715278564
-0.00715278429
-0.00715277883
-0.00715277907
-0.00715278374
-0.00715278418
-0.00715278103
-0.00715278018
-0.00715278229
-0.00715278321
-0.00715278159
-0.00715278059
-0.00715278212
-0.00715278351
-0.00715278216
-0.00715278004
-0.00715278083
-0.00715278389
-0.00715278374
-0.00715278054
-0.00715278002
-0.00715278244
-0.00715278366
-0.00715278223
-0.00715278075
-0.00715278142
-0.00715278278
-0.00715278254
-0.00715278149
-0.00715278156
-0.0071527824
-0.0071527824
-0.00715278174
-0.00715278169
-0.00715278222
-0.00715278232
-0.00715278195
-0.00715278185
-0.00715278211
-0.00715278223
-0.00715278205
-0.00715278191
-0.00715278199
-0.00715278226
-0.00715278229
-0.00715278211
-0.00715278177
-0.0071527818
-0.00715278243
-0.00715278275
-0.00715278211
-0.00715278122
-0.00715278149
-0.00715278316
-0.00715278324
-0.00715278165
-0.00715278081
-0.00715278174
-0.00715278342
-0.00715278328
-0.00715278155
-0.00715278097
-0.00715278177
-0.00715278319
-0.00715278312
-0.00715278183
-0.00715278126
-0.0071527819
-0.00715278297
-0.00715278285
-0.00715278176
-0.00715278164
-0.00715278235
-0.00715278267
-0.0071527823
-0.00715278197
-0.00715278213
-0.0071527824
-0.00715278236
-0.00715278219
-0.0071527822
-0.0071527823
-0.00715278231
-0.00715278227
-0.00715278227
-0.00715278229
-0.0071527823
-0.0071527823
-0.0071527823
-0.00715278231
-0.00715278231
-0.00715278231
-0.00715278232
-0.00715278232
-0.00715278233
-0.00715278233
-0.00715278234
-0.00715278234
-0.00715278235
-0.00715278235
-0.00715278236
-0.00715278236
-0.00715278237
-0.00715278237
-0.00715278238
-0.00715278238
-0.00715278239
-0.00715278239
-0.0071527824
-0.0071527824
-0.00715278241
-0.00715278241
-0.00715278242
-0.00715278242
-0.00715278243
-0.00715278244
-0.00715278244
-0.00715278245
-0.00715278245
-0.00715278246
-0.00715278247
-0.00715278247
-0.00715278248
-0.00715278248
-0.00715278249
-0.00715278249
-0.0071527825
-0.00715278251
-0.00715278251
-0.00715278252
-0.00715278253
-0.00715278253
-0.00715278254
-0.00715278254
-0.00715278255
-0.00715278256
-0.00715278256
-0.00715278257
-0.00715278257
-0.00715278258
-0.00715278259
-0.00715278259
-0.0071527826
-0.0071527826
-0.00715278261
-0.00715278261
-0.00715278262
-0.00715278263
-0.00715278263
-0.00715278263
-0.00715278264
-0.00715278265
-0.00715278266
-0.00715278265
-0.00715278264
-0.00715278265
-0.00715278272
-0.00715278273
-0.00715278263
-0.00715278255
-0.00715278269
-0.00715278295
-0.00715278289
-0.00715278233
-0.00715278229
-0.00715278302
-0.00715278341
-0.00715278272
-0.00715278181
-0.00715278217
-0.00715278374
-0.00715278371
-0.00715278208
-0.00715278161
-0.00715278284
-0.00715278383
-0.00715278321
-0.00715278196
-0.00715278208
-0.00715278322
-0.00715278335
-0.00715278274
-0.00715278241
-0.00715278264
-0.007152783
-0.00715278297
-0.00715278274
-0.00715278271
-0.0071527828
-0.00715278287
-0.00715278286
-0.00715278281
-0.00715278281
-0.00715278284
-0.00715278285
-0.00715278285
-0.00715278284
-0.00715278285
-0.00715278286
-0.00715278286
-0.00715278286
-0.00715278287
-0.00715278287
-0.00715278288
-0.00715278288
-0.00715278288
-0.00715278289
-0.00715278289
-0.0071527829
-0.0071527829
-0.00715278291
-0.00715278291
-0.00715278292
-0.00715278292
-0.00715278292
-0.00715278293
-0.00715278293
-0.00715278294
-0.00715278294
-0.00715278295
-0.00715278295
-0.00715278295
-0.00715278296
-0.00715278296
-0.00715278297
-0.00715278297
-0.00715278298
-0.00715278298
-0.00715278299
-0.00715278299
-0.007152783
-0.007152783
-0.00715278301
-0.00715278301
-0.00715278302
-0.00715278302
-0.00715278303
-0.00715278303
-0.00715278304
-0.00715278304
-0.00715278305
-0.00715278305
-0.00715278306
-0.00715278306
-0.00715278307
-0.00715278307
-0.00715278308
-0.00715278309
-0.00715278309
-0.0071527831
-0.0071527831
-0.00715278311
-0.00715278312
-0.00715278312
-0.00715278313
-0.00715278313
-0.00715278314
-0.00715278315
-0.00715278315
-0.00715278316
-0.00715278317
-0.00715278317
-0.00715278318
-0.00715278319
-0.00715278319
-0.0071527832
-0.00715278321
-0.00715278321
-0.00715278322
-0.00715278322
-0.00715278323
-0.00715278324
-0.00715278325
-0.00715278325
-0.00715278326
-0.00715278327
-0.00715278327
-0.00715278328
-0.00715278329
-0.00715278329
-0.0071527833
-0.0071527833
-0.00715278331
-0.00715278332
-0.00715278332
-0.00715278333
-0.00715278334
-0.00715278334
-0.00715278335
-0.00715278335
-0.00715278336
-0.00715278337
-0.00715278337
-0.00715278338
-0.00715278338
-0.00715278339
-0.00715278339
-0.0071527834
-0.00715278341
-0.00715278341
-0.00715278342
-0.00715278342
-0.00715278343
-0.00715278343
-0.00715278344
-0.00715278344
-0.00715278345
-0.00715278345
-0.00715278345
-0.00715278346
-0.00715278346
-0.00715278347
-0.00715278347
-0.00715278348
-0.00715278348
-0.00715278348
-0.00715278349
-0.00715278349
-0.0071527835
-0.0071527835
-0.0071527835
-0.00715278351
-0.00715278351
-0.00715278352
-0.00715278352
-0.00715278353
-0.00715278353
-0.00715278354
-0.00715278354
-0.00715278354
-0.00715278355
-0.00715278355
-0.00715278356
-0.00715278356
-0.00715278357
-0.00715278357
-0.00715278358
-0.00715278358
-0.00715278359
-0.0071527836
-0.0071527836
-0.00715278361
-0.00715278361
-0.00715278362
-0.00715278363
-0.00715278363
-0.00715278364
-0.00715278365
-0.00715278365
-0.00715278366
-0.00715278367
-0.00715278368
-0.00715278368
-0.00715278369
-0.0071527837
-0.00715278371
-0.00715278371
-0.00715278372
-0.00715278374
-0.00715278375
-0.00715278374
-0.00715278373
-0.00715278376
-0.00715278384
-0.00715278383
-0.0071527837
-0.00715278369
-0.0071527839
-0.007152784
-0.00715278381
-0.00715278359
-0.00715278374
-0.00715278413
-0.0071527841
-0.00715278365
-0.00715278362
-0.00715278401
-0.00715278415
-0.00715278391
-0.00715278373
-0.00715278388
-0.00715278408
-0.00715278403
-0.00715278388
-0.0071527839
-0.00715278403
-0.00715278403
-0.00715278399
-0.00715278399
-0.00715278402
-0.00715278404
-0.00715278404
-0.00715278404
-0.00715278406
-0.00715278407
-0.00715278407
-0.00715278408
-0.00715278409
-0.0071527841
-0.00715278411
-0.00715278412
-0.00715278413
-0.00715278413
-0.00715278414
-0.00715278415
-0.00715278416
-0.00715278417
-0.00715278417
-0.00715278418
-0.00715278419
-0.0071527842
-0.0071527842
-0.00715278422
-0.00715278422
-0.00715278423
-0.00715278424
-0.00715278425
-0.00715278425
-0.00715278426
-0.00715278427
-0.00715278427
-0.00715278428
-0.00715278429
-0.0071527843
-0.0071527843
-0.00715278431
-0.00715278432
-0.00715278433
-0.00715278432
-0.00715278433
-0.00715278437
-0.0071527844
-0.00715278437
-0.0071527842
-0.00715278421
-0.00715278482
-0.00715278526
-0.00715278379
-0.00715278091
-0.00715278268
-0.00715279691
-0.00715279712
-0.00715275452
-0.00715273009
-0.00715283015
-0.00715297664
-0.00715283597
-0.00715225115
-0.00715231255
-0.00715395478
-0.00715454325
-0.00715138136
-0.00714827201
-0.00715253778
-0.00716344148
-0.00716160361
-0.00713547984
-0.00713402784
-0.00717315321
-0.00720036476
-0.00715217236
-0.0070789943
-0.00712116753
-0.00723861492
-0.00723226442
-0.00709151861
-0.00703169859
-0.00715917006
-0.00726396159
-0.00719855041
-0.00702725555
-0.00703805878
-0.00725753483
-0.00726097022
-0.0071190083
-0.00703164868
-0.00713152757
-0.00724525363
-0.00719227247
-0.00709360321
-0.00711356278
)
;

boundaryField
{
    closed
    {
        type            zeroGradient;
    }
    open
    {
        type            zeroGradient;
    }
    sides
    {
        type            empty;
    }
    procBoundary2to1
    {
        type            processor;
        value           uniform -0.00717404889;
    }
    procBoundary2to3
    {
        type            processor;
        value           uniform -0.00719564704;
    }
}


// ************************************************************************* //
