/*--------------------------------*- C++ -*----------------------------------*\
| =========                 |                                                 |
| \\      /  F ield         | OpenFOAM: The Open Source CFD Toolbox           |
|  \\    /   O peration     | Version:  2306                                  |
|   \\  /    A nd           | Website:  www.openfoam.com                      |
|    \\/     M anipulation  |                                                 |
\*---------------------------------------------------------------------------*/
FoamFile
{
    version     2.0;
    format      ascii;
    arch        "LSB;label=32;scalar=64";
    class       volScalarField;
    location    "0.00194";
    object      alpha;
}
// * * * * * * * * * * * * * * * * * * * * * * * * * * * * * * * * * * * * * //

dimensions      [1 -1 -1 0 0 0 0];

internalField   nonuniform List<scalar> 
530
(
3.4835125e-05
3.50856799e-05
3.67936777e-05
3.68119289e-05
3.68010612e-05
3.57006948e-05
3.49753764e-05
3.50251643e-05
3.67887049e-05
3.68231915e-05
3.54020627e-05
3.52105053e-05
3.68005984e-05
3.68128358e-05
3.53044398e-05
3.53003313e-05
3.68038454e-05
3.68046201e-05
3.68081849e-05
3.56774882e-05
3.51517274e-05
3.49340107e-05
3.49450662e-05
3.68215402e-05
3.68083137e-05
3.68222448e-05
3.68131768e-05
3.57192355e-05
3.49849237e-05
3.50678262e-05
3.6799967e-05
3.68223029e-05
3.53538924e-05
3.53138443e-05
3.68092596e-05
3.68052335e-05
3.68112281e-05
3.56312664e-05
3.5170773e-05
3.49179537e-05
3.49364104e-05
3.68169316e-05
3.68014949e-05
3.68169409e-05
3.54107831e-05
3.49754041e-05
3.68177162e-05
3.67990108e-05
3.68190807e-05
3.67984036e-05
3.58435441e-05
3.5442335e-05
3.52863765e-05
3.52341346e-05
3.68037573e-05
3.68118373e-05
3.56243072e-05
3.50669323e-05
3.50711729e-05
3.67911059e-05
3.68048308e-05
3.56495489e-05
3.48604442e-05
3.51009293e-05
3.67954044e-05
3.67955094e-05
3.6798586e-05
3.56490542e-05
3.49339156e-05
3.50084049e-05
3.67849675e-05
3.68022494e-05
3.52561117e-05
3.50279694e-05
3.68030415e-05
3.68038648e-05
3.68024926e-05
3.68088987e-05
3.56913931e-05
3.50032066e-05
3.50076349e-05
3.67870809e-05
3.68013051e-05
3.54826827e-05
3.47396741e-05
3.48035205e-05
3.67954074e-05
3.68070862e-05
3.51277818e-05
3.49406609e-05
3.68107242e-05
3.68064148e-05
3.68103392e-05
3.6808207e-05
3.56221878e-05
3.51932312e-05
3.49829498e-05
3.49929775e-05
3.6817449e-05
3.68057825e-05
3.68181279e-05
3.53623139e-05
3.50995996e-05
3.68259708e-05
3.68024696e-05
3.6830218e-05
3.5520126e-05
3.54214534e-05
3.68252679e-05
3.56478569e-05
3.51544723e-05
3.68183187e-05
3.68071727e-05
3.68225423e-05
3.57338105e-05
3.52086606e-05
3.51040549e-05
3.51081951e-05
3.68206235e-05
3.68101133e-05
3.68217538e-05
3.56673596e-05
3.50855537e-05
3.68162961e-05
3.68082069e-05
3.57176744e-05
3.50048991e-05
3.52941007e-05
3.68130456e-05
3.54707024e-05
3.51308772e-05
3.68176804e-05
3.67981968e-05
3.68190761e-05
3.57352265e-05
3.49311473e-05
3.51220748e-05
3.68034653e-05
3.68097717e-05
3.53373267e-05
3.53692932e-05
3.68282514e-05
3.57314808e-05
3.4935608e-05
3.68039627e-05
3.68057356e-05
3.52885847e-05
3.50781326e-05
3.68086558e-05
3.68017558e-05
3.51533725e-05
3.50789085e-05
3.68104217e-05
3.68034839e-05
3.5003722e-05
3.50174992e-05
3.68097124e-05
3.68076756e-05
3.6809235e-05
3.6806828e-05
3.68025242e-05
3.57776408e-05
3.51769675e-05
3.53591081e-05
3.48998187e-05
3.49202596e-05
3.6804568e-05
3.68009139e-05
3.68072842e-05
3.53584617e-05
3.53852082e-05
3.68182502e-05
3.57043538e-05
3.48890343e-05
3.68026888e-05
3.67996086e-05
3.52056425e-05
3.50000434e-05
3.68140908e-05
3.68024706e-05
3.51223864e-05
3.49550976e-05
3.61739971e-05
3.67952146e-05
3.68070444e-05
3.67988304e-05
3.68010678e-05
3.54093965e-05
3.49089211e-05
3.46326781e-05
3.4638672e-05
3.68229884e-05
3.68032478e-05
3.68193897e-05
3.6804186e-05
3.54685409e-05
3.50826423e-05
3.68084657e-05
3.67968783e-05
3.55778555e-05
3.50095277e-05
3.51224415e-05
3.67990552e-05
3.68167493e-05
3.53086805e-05
3.53173322e-05
3.68197115e-05
3.54645802e-05
3.50476324e-05
3.68185994e-05
3.6800769e-05
3.68266288e-05
3.55660005e-05
3.46509361e-05
3.4918579e-05
3.67988659e-05
3.68108661e-05
3.67815496e-05
3.68072021e-05
3.55076118e-05
3.53771326e-05
3.67373722e-05
3.6777693e-05
3.67639614e-05
3.54159078e-05
3.50136106e-05
3.50188513e-05
3.50763241e-05
3.68139915e-05
3.67669256e-05
3.6816293e-05
3.54988669e-05
3.54961581e-05
3.68022692e-05
3.57722475e-05
3.48345911e-05
3.6800129e-05
3.68005972e-05
3.53938278e-05
3.44007589e-05
3.47186946e-05
3.68002231e-05
3.68064095e-05
3.68065956e-05
3.68028428e-05
3.68090405e-05
3.52447741e-05
3.52499864e-05
3.68162217e-05
3.57204624e-05
3.48623125e-05
3.68095573e-05
3.67881471e-05
3.57274535e-05
3.50107605e-05
3.52792681e-05
3.46648298e-05
3.47960302e-05
3.67932013e-05
3.68213073e-05
3.67982007e-05
3.68208984e-05
3.67995528e-05
3.58021814e-05
3.51313742e-05
3.52138099e-05
3.68117962e-05
3.68220128e-05
3.55617843e-05
3.53342826e-05
3.68278518e-05
3.68104398e-05
3.57552736e-05
3.52609218e-05
3.53825497e-05
3.49845071e-05
3.50047587e-05
3.68335972e-05
3.68200445e-05
3.68341075e-05
3.54360625e-05
3.54108408e-05
3.68409922e-05
3.55706135e-05
3.51107659e-05
3.68379401e-05
3.68209784e-05
3.68395528e-05
3.56746866e-05
3.51658187e-05
3.68297738e-05
3.68178404e-05
3.55479128e-05
3.53137828e-05
3.68336092e-05
3.68174989e-05
3.57168736e-05
3.52021342e-05
3.53118541e-05
3.50916623e-05
3.4913636e-05
3.57869741e-05
3.68289196e-05
3.68633584e-05
3.68265984e-05
3.68520209e-05
3.68256561e-05
3.57297827e-05
3.50820996e-05
3.50988189e-05
3.68176138e-05
3.68262657e-05
3.54854268e-05
3.49082891e-05
3.49335334e-05
3.68088559e-05
3.68169754e-05
3.54340941e-05
3.51292897e-05
3.68089144e-05
3.67990085e-05
3.5509593e-05
3.51892699e-05
3.49529962e-05
3.49730517e-05
3.68169643e-05
3.68003636e-05
3.68094131e-05
3.68009046e-05
3.68035991e-05
3.57661472e-05
3.53674555e-05
3.5216115e-05
3.51985844e-05
3.68195834e-05
3.68090196e-05
3.51348051e-05
3.51176268e-05
3.68297449e-05
3.68124684e-05
3.68219011e-05
3.68149578e-05
3.57319617e-05
3.53297786e-05
3.52921375e-05
3.51222826e-05
3.68161927e-05
3.68178314e-05
3.5477036e-05
3.47381221e-05
3.49554913e-05
3.68201074e-05
3.6802934e-05
3.68211534e-05
3.54412351e-05
3.5441293e-05
3.68225134e-05
3.57520346e-05
3.48212005e-05
3.68150495e-05
3.68098888e-05
3.54117935e-05
3.45675086e-05
3.483753e-05
3.68045048e-05
3.68200765e-05
3.68023533e-05
3.6813859e-05
3.68009831e-05
3.57188142e-05
3.53588608e-05
3.51550024e-05
3.5170887e-05
3.68245772e-05
3.68019844e-05
3.68193594e-05
3.57288263e-05
3.51358957e-05
3.68168978e-05
3.67997299e-05
3.57214459e-05
3.50355528e-05
3.52544097e-05
3.68007121e-05
3.68100611e-05
3.67964186e-05
3.57664543e-05
3.51255968e-05
3.53102418e-05
3.4774932e-05
3.4781247e-05
3.68081501e-05
3.68068267e-05
3.68075704e-05
3.51784679e-05
3.50176267e-05
3.6823287e-05
3.68005054e-05
3.68199765e-05
3.54227977e-05
3.51747861e-05
3.68234546e-05
3.68010172e-05
3.68205277e-05
3.57347592e-05
3.49814154e-05
3.50339162e-05
3.68053389e-05
3.68162926e-05
3.55897007e-05
3.49427141e-05
3.4947466e-05
3.68063873e-05
3.68185341e-05
3.54678333e-05
3.50187128e-05
3.68104839e-05
3.68100903e-05
3.55077813e-05
3.47380523e-05
3.49877298e-05
3.6814976e-05
3.68079566e-05
3.68138025e-05
3.5569931e-05
3.51125562e-05
3.68167667e-05
3.68011585e-05
3.54894543e-05
3.52572355e-05
3.68215595e-05
3.68002545e-05
3.5554221e-05
3.52705123e-05
3.68219866e-05
3.68013669e-05
3.57230398e-05
3.51837776e-05
3.51865988e-05
3.68033002e-05
3.6814108e-05
3.57007582e-05
3.50509387e-05
3.5061642e-05
3.68021896e-05
3.68121766e-05
3.54709978e-05
3.51395689e-05
3.68107391e-05
3.68025226e-05
3.54643911e-05
3.50730584e-05
3.68109148e-05
3.68030853e-05
3.54526428e-05
3.46257066e-05
3.48145778e-05
3.68046256e-05
3.68068978e-05
3.68020095e-05
3.68021438e-05
3.67977354e-05
3.54640578e-05
3.52052164e-05
3.48467916e-05
3.48579589e-05
3.68197534e-05
3.68009082e-05
3.68114457e-05
3.67996336e-05
3.68046406e-05
3.57420144e-05
3.52387183e-05
3.51035166e-05
3.50984193e-05
3.68101787e-05
3.68024436e-05
3.50972649e-05
3.50409402e-05
3.68119439e-05
3.68031452e-05
3.50630674e-05
3.50524778e-05
3.68167427e-05
3.68021029e-05
3.68038789e-05
3.68035341e-05
3.57460382e-05
3.53200367e-05
3.51362904e-05
3.51345841e-05
3.68143008e-05
3.68024954e-05
3.50697963e-05
3.49992339e-05
3.68226398e-05
3.68090178e-05
3.68130313e-05
3.68131152e-05
3.57283851e-05
3.5046728e-05
3.51131452e-05
3.68077981e-05
3.68155071e-05
3.54314061e-05
3.54350635e-05
3.68277733e-05
3.57016009e-05
3.52723182e-05
3.68293603e-05
3.5515923e-05
3.51270633e-05
3.68153771e-05
3.67979083e-05
3.68049876e-05
3.57611072e-05
3.51931458e-05
3.51013416e-05
3.50884207e-05
3.68123203e-05
3.67958475e-05
3.5036991e-05
3.50578803e-05
3.68189823e-05
3.67945996e-05
3.68101104e-05
3.54181692e-05
3.5176979e-05
3.68222946e-05
3.67861609e-05
)
;

boundaryField
{
    closed
    {
        type            calculated;
        value           nonuniform List<scalar> 0();
    }
    open
    {
        type            calculated;
        value           nonuniform List<scalar> 0();
    }
    sides
    {
        type            empty;
    }
    procBoundary2to1
    {
        type            processor;
        value           uniform 3.57130495e-05;
    }
    procBoundary2to3
    {
        type            processor;
        value           uniform 3.68152684e-05;
    }
}


// ************************************************************************* //
