/*--------------------------------*- C++ -*----------------------------------*\
| =========                 |                                                 |
| \\      /  F ield         | OpenFOAM: The Open Source CFD Toolbox           |
|  \\    /   O peration     | Version:  2306                                  |
|   \\  /    A nd           | Website:  www.openfoam.com                      |
|    \\/     M anipulation  |                                                 |
\*---------------------------------------------------------------------------*/
FoamFile
{
    version     2.0;
    format      ascii;
    arch        "LSB;label=32;scalar=64";
    class       volScalarField;
    location    "0.00194";
    object      prefDPV_H2O;
}
// * * * * * * * * * * * * * * * * * * * * * * * * * * * * * * * * * * * * * //

dimensions      [1 -1 -1 0 0 0 0];

internalField   nonuniform List<scalar> 
530
(
-3.63134036e-07
-3.64004259e-07
-3.85015657e-07
-3.83834806e-07
-3.84364577e-07
-3.66593238e-07
-3.63703332e-07
-3.63729514e-07
-3.84695765e-07
-3.84163507e-07
-3.65416882e-07
-3.64540546e-07
-3.84869669e-07
-3.84038362e-07
-3.64980891e-07
-3.64937743e-07
-3.85016063e-07
-3.83777825e-07
-3.84379079e-07
-3.66505448e-07
-3.64399755e-07
-3.63371784e-07
-3.63492012e-07
-3.85171724e-07
-3.84414941e-07
-3.8418171e-07
-3.84221866e-07
-3.6738173e-07
-3.63684631e-07
-3.63899402e-07
-3.8463731e-07
-3.84081591e-07
-3.65188432e-07
-3.64982068e-07
-3.84943267e-07
-3.83790577e-07
-3.84284507e-07
-3.66321538e-07
-3.64477743e-07
-3.63327901e-07
-3.63470983e-07
-3.85214132e-07
-3.8422731e-07
-3.84756373e-07
-3.65380364e-07
-3.63617938e-07
-3.84777898e-07
-3.84265265e-07
-3.84049539e-07
-3.84047545e-07
-3.72685293e-07
-3.65567216e-07
-3.64891955e-07
-3.64664551e-07
-3.84553208e-07
-3.84236114e-07
-3.66302081e-07
-3.64023193e-07
-3.63970661e-07
-3.8451567e-07
-3.84411982e-07
-3.66429065e-07
-3.63207764e-07
-3.64112716e-07
-3.84923958e-07
-3.83946929e-07
-3.84426507e-07
-3.66444366e-07
-3.63548614e-07
-3.63744678e-07
-3.84719357e-07
-3.84371839e-07
-3.64797461e-07
-3.63844317e-07
-3.84847162e-07
-3.84340998e-07
-3.84138444e-07
-3.84239398e-07
-3.66614744e-07
-3.63770204e-07
-3.63734055e-07
-3.84564201e-07
-3.84502903e-07
-3.65738417e-07
-3.62686281e-07
-3.62880707e-07
-3.8483258e-07
-3.84508869e-07
-3.64226684e-07
-3.6345935e-07
-3.84898823e-07
-3.84358161e-07
-3.84190228e-07
-3.84199443e-07
-3.66292764e-07
-3.64556833e-07
-3.63606797e-07
-3.63685374e-07
-3.85005841e-07
-3.84192997e-07
-3.84590647e-07
-3.65162963e-07
-3.64122211e-07
-3.84656868e-07
-3.84033452e-07
-3.84183179e-07
-3.65853831e-07
-3.65429839e-07
-3.84494096e-07
-3.66383399e-07
-3.64316664e-07
-3.84460835e-07
-3.837911e-07
-3.84242118e-07
-3.67643586e-07
-3.64575794e-07
-3.6409504e-07
-3.64130617e-07
-3.84850329e-07
-3.83889645e-07
-3.84536966e-07
-3.66444205e-07
-3.64076835e-07
-3.83951996e-07
-3.84168791e-07
-3.67256559e-07
-3.63766807e-07
-3.64856374e-07
-3.84594089e-07
-3.65616588e-07
-3.64259367e-07
-3.84687185e-07
-3.83863923e-07
-3.84540474e-07
-3.67097228e-07
-3.63455483e-07
-3.64174826e-07
-3.84501594e-07
-3.84074611e-07
-3.65090559e-07
-3.65262477e-07
-3.84456011e-07
-3.66777309e-07
-3.6342136e-07
-3.84305559e-07
-3.84342977e-07
-3.64881428e-07
-3.64043551e-07
-3.84647455e-07
-3.84293713e-07
-3.64322517e-07
-3.6404496e-07
-3.84808163e-07
-3.84304121e-07
-3.63688836e-07
-3.63755589e-07
-3.84948652e-07
-3.84044945e-07
-3.84548505e-07
-3.836842e-07
-3.8423247e-07
-3.70237682e-07
-3.64504586e-07
-3.65191473e-07
-3.63330047e-07
-3.63363282e-07
-3.84672545e-07
-3.84247429e-07
-3.84295531e-07
-3.65196959e-07
-3.65338626e-07
-3.84677463e-07
-3.66675737e-07
-3.63253671e-07
-3.8432908e-07
-3.84387628e-07
-3.64522757e-07
-3.63726727e-07
-3.84641761e-07
-3.84416081e-07
-3.64164316e-07
-3.63527056e-07
-3.79321859e-07
-3.84326195e-07
-3.84646869e-07
-3.84100388e-07
-3.84584715e-07
-3.65387839e-07
-3.6340306e-07
-3.62106596e-07
-3.62238671e-07
-3.85080891e-07
-3.84696993e-07
-3.84403275e-07
-3.84490125e-07
-3.65622886e-07
-3.64105696e-07
-3.84113208e-07
-3.84236357e-07
-3.66088952e-07
-3.63821638e-07
-3.64147451e-07
-3.84452153e-07
-3.84064938e-07
-3.64982767e-07
-3.65015925e-07
-3.84494641e-07
-3.65628998e-07
-3.63884965e-07
-3.8466012e-07
-3.84022581e-07
-3.84657304e-07
-3.66069543e-07
-3.62278702e-07
-3.63325689e-07
-3.84724161e-07
-3.84335447e-07
-3.84326032e-07
-3.84174941e-07
-3.66007011e-07
-3.65335678e-07
-3.85383624e-07
-3.83954297e-07
-3.85889064e-07
-3.65453309e-07
-3.64081069e-07
-3.63779242e-07
-3.64207249e-07
-3.84663747e-07
-3.84237975e-07
-3.8418473e-07
-3.65889925e-07
-3.65780812e-07
-3.84535889e-07
-3.69786728e-07
-3.63065664e-07
-3.84010774e-07
-3.84679011e-07
-3.65343808e-07
-3.61310969e-07
-3.6250467e-07
-3.85155035e-07
-3.84544214e-07
-3.84826483e-07
-3.84351446e-07
-3.8445444e-07
-3.64723282e-07
-3.64749349e-07
-3.84619453e-07
-3.66713165e-07
-3.63195972e-07
-3.83799553e-07
-3.84438041e-07
-3.67493004e-07
-3.6389096e-07
-3.64808413e-07
-3.62429054e-07
-3.62769951e-07
-3.85005684e-07
-3.84206515e-07
-3.84708495e-07
-3.83796047e-07
-3.84364053e-07
-3.71601736e-07
-3.64274721e-07
-3.64509581e-07
-3.84142548e-07
-3.84006734e-07
-3.66007449e-07
-3.65084985e-07
-3.83835896e-07
-3.83939119e-07
-3.69931806e-07
-3.64770196e-07
-3.65221733e-07
-3.6357699e-07
-3.63639921e-07
-3.84429832e-07
-3.84057754e-07
-3.84099642e-07
-3.65460463e-07
-3.65356038e-07
-3.84371489e-07
-3.66020447e-07
-3.64087618e-07
-3.84337136e-07
-3.83816067e-07
-3.84230512e-07
-3.66462176e-07
-3.64340087e-07
-3.8391893e-07
-3.83988109e-07
-3.65904194e-07
-3.64996616e-07
-3.83820565e-07
-3.83917986e-07
-3.67891458e-07
-3.64479151e-07
-3.64908535e-07
-3.63916039e-07
-3.63246546e-07
-3.71894725e-07
-3.84491868e-07
-3.8339143e-07
-3.84301095e-07
-3.83353879e-07
-3.84092338e-07
-3.69271003e-07
-3.64005845e-07
-3.63995269e-07
-3.84225413e-07
-3.84287601e-07
-3.65684847e-07
-3.63307905e-07
-3.63361384e-07
-3.84416636e-07
-3.84321463e-07
-3.65510619e-07
-3.64255332e-07
-3.84313309e-07
-3.84253018e-07
-3.65819917e-07
-3.64561188e-07
-3.63482838e-07
-3.6361726e-07
-3.84841481e-07
-3.84129824e-07
-3.84513317e-07
-3.8373434e-07
-3.84176674e-07
-3.69509218e-07
-3.65273384e-07
-3.64597818e-07
-3.64525632e-07
-3.84694654e-07
-3.84166434e-07
-3.64209776e-07
-3.64167569e-07
-3.84598587e-07
-3.84133694e-07
-3.83947827e-07
-3.83982159e-07
-3.68159122e-07
-3.65083936e-07
-3.64881854e-07
-3.64187175e-07
-3.84430685e-07
-3.8442664e-07
-3.65675213e-07
-3.62615287e-07
-3.63490077e-07
-3.84735986e-07
-3.84173323e-07
-3.84262655e-07
-3.65555431e-07
-3.65523518e-07
-3.84665592e-07
-3.6914598e-07
-3.6295767e-07
-3.84156495e-07
-3.84481622e-07
-3.65372583e-07
-3.61960021e-07
-3.62935792e-07
-3.85023402e-07
-3.8415814e-07
-3.84552937e-07
-3.838018e-07
-3.8406128e-07
-3.66689761e-07
-3.65268281e-07
-3.64315076e-07
-3.64436284e-07
-3.84708636e-07
-3.83840264e-07
-3.84499943e-07
-3.66972294e-07
-3.642971e-07
-3.83971604e-07
-3.84128924e-07
-3.66902852e-07
-3.63934519e-07
-3.64696e-07
-3.84655383e-07
-3.83659025e-07
-3.8426747e-07
-3.69751866e-07
-3.64292233e-07
-3.64978989e-07
-3.62813274e-07
-3.62770772e-07
-3.84972537e-07
-3.84406606e-07
-3.84605291e-07
-3.64418908e-07
-3.63786849e-07
-3.84987284e-07
-3.84152834e-07
-3.84572895e-07
-3.65459654e-07
-3.64425831e-07
-3.84806117e-07
-3.83791338e-07
-3.84510789e-07
-3.67428645e-07
-3.63651298e-07
-3.63798005e-07
-3.84316945e-07
-3.84397484e-07
-3.66155868e-07
-3.63489002e-07
-3.63434776e-07
-3.84443562e-07
-3.84378395e-07
-3.65652955e-07
-3.63775733e-07
-3.84385606e-07
-3.84402358e-07
-3.65810311e-07
-3.62649735e-07
-3.63608011e-07
-3.8491062e-07
-3.84021229e-07
-3.84505218e-07
-3.66066703e-07
-3.64200533e-07
-3.84288189e-07
-3.8421399e-07
-3.65715072e-07
-3.64815343e-07
-3.84256675e-07
-3.84132611e-07
-3.65978873e-07
-3.64875799e-07
-3.84053665e-07
-3.84165196e-07
-3.67190195e-07
-3.64530348e-07
-3.64428207e-07
-3.84219532e-07
-3.84262088e-07
-3.66639262e-07
-3.63961355e-07
-3.63925092e-07
-3.84394862e-07
-3.84264199e-07
-3.65682287e-07
-3.64302668e-07
-3.84400323e-07
-3.84301728e-07
-3.65638181e-07
-3.64049212e-07
-3.84384157e-07
-3.84431227e-07
-3.65586925e-07
-3.62217421e-07
-3.62895478e-07
-3.8501136e-07
-3.84338936e-07
-3.84578763e-07
-3.8408404e-07
-3.84124093e-07
-3.65645065e-07
-3.64623243e-07
-3.63046754e-07
-3.63137387e-07
-3.84991148e-07
-3.84255195e-07
-3.84735475e-07
-3.83860969e-07
-3.84448021e-07
-3.67226606e-07
-3.64765555e-07
-3.64151903e-07
-3.64132721e-07
-3.84874408e-07
-3.84299432e-07
-3.64125699e-07
-3.63877686e-07
-3.84875867e-07
-3.84311383e-07
-3.63964976e-07
-3.63925259e-07
-3.84785912e-07
-3.84272465e-07
-3.84141198e-07
-3.84162866e-07
-3.67376897e-07
-3.65098902e-07
-3.64291469e-07
-3.64283896e-07
-3.848412e-07
-3.84300429e-07
-3.63977837e-07
-3.63694325e-07
-3.84779367e-07
-3.84303823e-07
-3.84132169e-07
-3.84156059e-07
-3.66818662e-07
-3.63932394e-07
-3.64114727e-07
-3.84399009e-07
-3.84026032e-07
-3.65500737e-07
-3.65523026e-07
-3.8436388e-07
-3.66636989e-07
-3.64859708e-07
-3.84377558e-07
-3.65882643e-07
-3.64218599e-07
-3.84651236e-07
-3.83812437e-07
-3.84438295e-07
-3.68850917e-07
-3.64566401e-07
-3.64145668e-07
-3.64101766e-07
-3.84905948e-07
-3.84314759e-07
-3.63869288e-07
-3.63977117e-07
-3.84905352e-07
-3.84143898e-07
-3.84619526e-07
-3.65457433e-07
-3.64492259e-07
-3.84817276e-07
-3.83911073e-07
)
;

boundaryField
{
    closed
    {
        type            calculated;
        value           nonuniform List<scalar> 0();
    }
    open
    {
        type            calculated;
        value           nonuniform List<scalar> 0();
    }
    sides
    {
        type            empty;
    }
    procBoundary2to1
    {
        type            processor;
        value           uniform -3.66671083e-07;
    }
    procBoundary2to3
    {
        type            processor;
        value           uniform -3.84754586e-07;
    }
}


// ************************************************************************* //
