/*--------------------------------*- C++ -*----------------------------------*\
| =========                 |                                                 |
| \\      /  F ield         | OpenFOAM: The Open Source CFD Toolbox           |
|  \\    /   O peration     | Version:  2306                                  |
|   \\  /    A nd           | Website:  www.openfoam.com                      |
|    \\/     M anipulation  |                                                 |
\*---------------------------------------------------------------------------*/
FoamFile
{
    version     2.0;
    format      ascii;
    arch        "LSB;label=32;scalar=64";
    class       volScalarField;
    location    "0.00194";
    object      prefDZ_T;
}
// * * * * * * * * * * * * * * * * * * * * * * * * * * * * * * * * * * * * * //

dimensions      [1 -1 -1 -1 0 0 0];

internalField   nonuniform List<scalar> 
530
(
-1.18518261e-09
-1.18644707e-09
-1.22948982e-09
-1.22657079e-09
-1.22788177e-09
-1.19081114e-09
-1.18614643e-09
-1.1859495e-09
-1.22870284e-09
-1.22737903e-09
-1.1889716e-09
-1.18737751e-09
-1.22912761e-09
-1.22707313e-09
-1.18819299e-09
-1.18808099e-09
-1.22948731e-09
-1.22643209e-09
-1.22791534e-09
-1.1906831e-09
-1.18728784e-09
-1.18537013e-09
-1.18567303e-09
-1.22986481e-09
-1.22800378e-09
-1.22742422e-09
-1.22752594e-09
-1.19235757e-09
-1.18603801e-09
-1.18622668e-09
-1.22855491e-09
-1.22717714e-09
-1.18854464e-09
-1.18813728e-09
-1.2293061e-09
-1.22646342e-09
-1.22768109e-09
-1.19039562e-09
-1.1874188e-09
-1.18532532e-09
-1.18565649e-09
-1.22997079e-09
-1.22754289e-09
-1.22884299e-09
-1.1887956e-09
-1.18588815e-09
-1.2288958e-09
-1.22763733e-09
-1.22709895e-09
-1.22710004e-09
-1.2032847e-09
-1.1891963e-09
-1.18802252e-09
-1.18762442e-09
-1.22834627e-09
-1.22756149e-09
-1.19038009e-09
-1.18661322e-09
-1.18642741e-09
-1.22825777e-09
-1.22799756e-09
-1.19062787e-09
-1.18527091e-09
-1.186694e-09
-1.2292632e-09
-1.22685243e-09
-1.22803536e-09
-1.19068334e-09
-1.1859029e-09
-1.18609063e-09
-1.2287623e-09
-1.22789932e-09
-1.18790992e-09
-1.18628522e-09
-1.22907131e-09
-1.22782272e-09
-1.22732323e-09
-1.22757048e-09
-1.1909544e-09
-1.18619709e-09
-1.18606255e-09
-1.22837885e-09
-1.22822297e-09
-1.18948764e-09
-1.18434671e-09
-1.18459544e-09
-1.22903793e-09
-1.22823585e-09
-1.18689054e-09
-1.1855984e-09
-1.22919609e-09
-1.22786428e-09
-1.2274487e-09
-1.22747208e-09
-1.19036386e-09
-1.18753282e-09
-1.1858126e-09
-1.18599589e-09
-1.22945757e-09
-1.2274569e-09
-1.22843407e-09
-1.18840786e-09
-1.18673107e-09
-1.22859492e-09
-1.22706403e-09
-1.22742559e-09
-1.18961334e-09
-1.18888622e-09
-1.22819385e-09
-1.19048484e-09
-1.18701296e-09
-1.22811391e-09
-1.22646416e-09
-1.22757317e-09
-1.1929185e-09
-1.18749977e-09
-1.18662099e-09
-1.1867071e-09
-1.22907338e-09
-1.22670672e-09
-1.22830061e-09
-1.19054847e-09
-1.18667198e-09
-1.22685894e-09
-1.22739643e-09
-1.19210397e-09
-1.18617744e-09
-1.18785989e-09
-1.22844414e-09
-1.18916736e-09
-1.1869739e-09
-1.22867221e-09
-1.22664661e-09
-1.22831007e-09
-1.19183401e-09
-1.18563818e-09
-1.18676291e-09
-1.22821905e-09
-1.2271635e-09
-1.18833581e-09
-1.18868435e-09
-1.22809906e-09
-1.19121421e-09
-1.18551123e-09
-1.22773524e-09
-1.22782703e-09
-1.18797508e-09
-1.18661201e-09
-1.22857712e-09
-1.22770669e-09
-1.1870378e-09
-1.1866119e-09
-1.22897274e-09
-1.22773184e-09
-1.18594652e-09
-1.18607296e-09
-1.22931922e-09
-1.22709088e-09
-1.22833293e-09
-1.22620017e-09
-1.22755531e-09
-1.19821151e-09
-1.18746597e-09
-1.1885209e-09
-1.18542911e-09
-1.18541942e-09
-1.2286403e-09
-1.22759272e-09
-1.22770948e-09
-1.18854277e-09
-1.18882758e-09
-1.22864807e-09
-1.19106741e-09
-1.18525775e-09
-1.22779368e-09
-1.22793911e-09
-1.18735111e-09
-1.18608247e-09
-1.22856135e-09
-1.22800841e-09
-1.18672836e-09
-1.18572426e-09
-1.21749832e-09
-1.2277889e-09
-1.22857619e-09
-1.22723039e-09
-1.22842484e-09
-1.18882919e-09
-1.18559939e-09
-1.18318574e-09
-1.18353913e-09
-1.22964063e-09
-1.22870102e-09
-1.22797163e-09
-1.22819053e-09
-1.18920292e-09
-1.18677737e-09
-1.22725916e-09
-1.22756664e-09
-1.189994e-09
-1.18631844e-09
-1.18667549e-09
-1.22809849e-09
-1.22713761e-09
-1.18817227e-09
-1.18822367e-09
-1.22819686e-09
-1.18924992e-09
-1.18629863e-09
-1.2286052e-09
-1.22703769e-09
-1.22859579e-09
-1.19001274e-09
-1.18359575e-09
-1.18531525e-09
-1.22876945e-09
-1.22780688e-09
-1.22779291e-09
-1.22741191e-09
-1.19020088e-09
-1.18886992e-09
-1.23041851e-09
-1.22687608e-09
-1.23165262e-09
-1.18899944e-09
-1.18707833e-09
-1.18613762e-09
-1.18712311e-09
-1.22861559e-09
-1.22758035e-09
-1.22743339e-09
-1.18987643e-09
-1.18953606e-09
-1.22830402e-09
-1.19729598e-09
-1.18498298e-09
-1.22700873e-09
-1.22865754e-09
-1.18878837e-09
-1.18199038e-09
-1.18391985e-09
-1.22983098e-09
-1.22832324e-09
-1.22901916e-09
-1.22784882e-09
-1.22810098e-09
-1.18774484e-09
-1.1877953e-09
-1.22850569e-09
-1.19107587e-09
-1.18522617e-09
-1.22648438e-09
-1.2280672e-09
-1.19260138e-09
-1.18652167e-09
-1.18780056e-09
-1.18396383e-09
-1.18430591e-09
-1.22946541e-09
-1.22748569e-09
-1.22873104e-09
-1.22647262e-09
-1.22788095e-09
-1.20100664e-09
-1.18701864e-09
-1.18725923e-09
-1.2273306e-09
-1.22699247e-09
-1.18983437e-09
-1.18833737e-09
-1.22656917e-09
-1.2268288e-09
-1.19754251e-09
-1.18779381e-09
-1.18846557e-09
-1.18571311e-09
-1.18579106e-09
-1.22803296e-09
-1.22711895e-09
-1.22721843e-09
-1.18888849e-09
-1.18871569e-09
-1.22788701e-09
-1.18981503e-09
-1.18655836e-09
-1.22780316e-09
-1.22652204e-09
-1.22753977e-09
-1.19055536e-09
-1.18701825e-09
-1.22677364e-09
-1.22694766e-09
-1.18958606e-09
-1.18818431e-09
-1.22652982e-09
-1.22677464e-09
-1.19336734e-09
-1.18723499e-09
-1.1879135e-09
-1.18613713e-09
-1.18510327e-09
-1.20155973e-09
-1.22818727e-09
-1.2254633e-09
-1.22771749e-09
-1.225373e-09
-1.22720273e-09
-1.19615547e-09
-1.18647282e-09
-1.18634162e-09
-1.22753339e-09
-1.2276843e-09
-1.18929216e-09
-1.1853174e-09
-1.18534127e-09
-1.22800779e-09
-1.22777055e-09
-1.18906612e-09
-1.18697066e-09
-1.22775285e-09
-1.22760711e-09
-1.18957349e-09
-1.18756989e-09
-1.18560198e-09
-1.185899e-09
-1.22905274e-09
-1.2273026e-09
-1.22824609e-09
-1.2263257e-09
-1.22741727e-09
-1.19672571e-09
-1.18873127e-09
-1.18752389e-09
-1.187403e-09
-1.22869003e-09
-1.22739037e-09
-1.18679636e-09
-1.18676652e-09
-1.22845012e-09
-1.22730855e-09
-1.2268471e-09
-1.22693378e-09
-1.19394126e-09
-1.1883627e-09
-1.18795402e-09
-1.18680008e-09
-1.2280402e-09
-1.22802973e-09
-1.18931771e-09
-1.18414651e-09
-1.18561018e-09
-1.22879174e-09
-1.2274092e-09
-1.22762424e-09
-1.1891651e-09
-1.18906027e-09
-1.22861748e-09
-1.19596348e-09
-1.184732e-09
-1.22736407e-09
-1.22816777e-09
-1.18876345e-09
-1.18307502e-09
-1.18458092e-09
-1.22950517e-09
-1.22736668e-09
-1.22834605e-09
-1.22648874e-09
-1.22713318e-09
-1.19100752e-09
-1.18876951e-09
-1.18700484e-09
-1.18728893e-09
-1.22872294e-09
-1.22658708e-09
-1.22821004e-09
-1.19156791e-09
-1.18706167e-09
-1.22690718e-09
-1.22730056e-09
-1.19140964e-09
-1.186518e-09
-1.18759839e-09
-1.22859924e-09
-1.22613709e-09
-1.22764358e-09
-1.19721136e-09
-1.18710633e-09
-1.1881503e-09
-1.1845425e-09
-1.18438502e-09
-1.2293786e-09
-1.22798367e-09
-1.2284735e-09
-1.18718926e-09
-1.18616771e-09
-1.22940996e-09
-1.22735936e-09
-1.22838974e-09
-1.18897467e-09
-1.18723304e-09
-1.22896353e-09
-1.22646649e-09
-1.22823643e-09
-1.19249281e-09
-1.18595624e-09
-1.18610983e-09
-1.22776292e-09
-1.22795828e-09
-1.19013478e-09
-1.18567671e-09
-1.18548682e-09
-1.22807498e-09
-1.22791052e-09
-1.18930674e-09
-1.18612769e-09
-1.22793074e-09
-1.22797219e-09
-1.18955411e-09
-1.18424783e-09
-1.18578963e-09
-1.22922377e-09
-1.22703224e-09
-1.22822475e-09
-1.18997552e-09
-1.18689821e-09
-1.22768852e-09
-1.22751012e-09
-1.18936456e-09
-1.18795958e-09
-1.22760937e-09
-1.22730951e-09
-1.18979209e-09
-1.18806949e-09
-1.22710831e-09
-1.22738961e-09
-1.19198623e-09
-1.18750612e-09
-1.18716929e-09
-1.22752314e-09
-1.22762491e-09
-1.19096904e-09
-1.18651403e-09
-1.18634184e-09
-1.22795615e-09
-1.2276307e-09
-1.18938182e-09
-1.18705747e-09
-1.22796697e-09
-1.22772623e-09
-1.18928138e-09
-1.18665833e-09
-1.22792703e-09
-1.22804558e-09
-1.18919207e-09
-1.18353983e-09
-1.18458184e-09
-1.22947546e-09
-1.2278167e-09
-1.22840986e-09
-1.22718903e-09
-1.22728925e-09
-1.18930623e-09
-1.18766923e-09
-1.18486312e-09
-1.18507454e-09
-1.22942062e-09
-1.22761189e-09
-1.22879324e-09
-1.2266389e-09
-1.22808652e-09
-1.19211e-09
-1.18791499e-09
-1.18680017e-09
-1.18677035e-09
-1.2291361e-09
-1.22772059e-09
-1.18675533e-09
-1.18631428e-09
-1.22913912e-09
-1.22774987e-09
-1.18645642e-09
-1.18639474e-09
-1.22891586e-09
-1.22765415e-09
-1.22732962e-09
-1.2273832e-09
-1.19242016e-09
-1.18847184e-09
-1.18704189e-09
-1.18702836e-09
-1.22905291e-09
-1.22772303e-09
-1.18645745e-09
-1.18598836e-09
-1.22889786e-09
-1.22772941e-09
-1.22730462e-09
-1.22736356e-09
-1.19126082e-09
-1.18644911e-09
-1.18662866e-09
-1.22796463e-09
-1.22704193e-09
-1.18905169e-09
-1.18910022e-09
-1.22787201e-09
-1.19095496e-09
-1.18800738e-09
-1.22790528e-09
-1.1897378e-09
-1.18686964e-09
-1.22858431e-09
-1.22651951e-09
-1.22806242e-09
-1.19539834e-09
-1.18756323e-09
-1.18679347e-09
-1.18673235e-09
-1.22921312e-09
-1.22776048e-09
-1.18631087e-09
-1.18652316e-09
-1.22920949e-09
-1.2273391e-09
-1.22850779e-09
-1.18899799e-09
-1.18742749e-09
-1.2289914e-09
-1.22676667e-09
)
;

boundaryField
{
    closed
    {
        type            calculated;
        value           nonuniform List<scalar> 0();
    }
    open
    {
        type            calculated;
        value           nonuniform List<scalar> 0();
    }
    sides
    {
        type            empty;
    }
    procBoundary2to1
    {
        type            processor;
        value           uniform -1.19098654e-09;
    }
    procBoundary2to3
    {
        type            processor;
        value           uniform -1.22883912e-09;
    }
}


// ************************************************************************* //
