/*--------------------------------*- C++ -*----------------------------------*\
| =========                 |                                                 |
| \\      /  F ield         | OpenFOAM: The Open Source CFD Toolbox           |
|  \\    /   O peration     | Version:  2306                                  |
|   \\  /    A nd           | Website:  www.openfoam.com                      |
|    \\/     M anipulation  |                                                 |
\*---------------------------------------------------------------------------*/
FoamFile
{
    version     2.0;
    format      ascii;
    arch        "LSB;label=32;scalar=64";
    class       volScalarField;
    location    "0.00156";
    object      H2;
}
// * * * * * * * * * * * * * * * * * * * * * * * * * * * * * * * * * * * * * //

dimensions      [0 0 0 0 0 0 0];

internalField   nonuniform List<scalar> 
531
(
0.0106991864
0.0106603111
0.0106697766
0.0106466992
0.0106457034
0.0110236765
0.0110153938
0.0110141289
0.011013697
0.0108311532
0.0106532223
0.0106548313
0.0110127325
0.0110173954
0.010689556
0.010639508
0.0106502481
0.0110277045
0.0110090496
0.01102094
0.0110041099
0.0110125799
0.0106874761
0.0106575476
0.0106444514
0.0106442783
0.0110270052
0.0110141802
0.0106635857
0.0106596831
0.0110242088
0.0110098681
0.0106638449
0.01066562
0.0110249214
0.0110042622
0.0110172522
0.0106857922
0.0106699255
0.0110197796
0.0109992897
0.0110100134
0.0107548878
0.0106695191
0.0106784015
0.0106642875
0.0106634502
0.0106462384
0.0106434192
0.0110306109
0.0110086375
0.0110207615
0.0110001484
0.0110104056
0.0107470273
0.0106530047
0.0106488189
0.0110202593
0.0110075119
0.0106782906
0.0106674467
0.0110201455
0.0110012326
0.0108035643
0.0106819679
0.0106706894
0.0106680435
0.0110182052
0.0110017821
0.0107773662
0.0106724992
0.0106739037
0.0106699627
0.0106573308
0.0106721644
0.0110189101
0.0109968484
0.0110042906
0.0109960627
0.0107176818
0.0106773085
0.0110150354
0.0109974773
0.0107751432
0.0106793948
0.0106653802
0.0106652273
0.0110214823
0.0110089894
0.0107094256
0.0106610536
0.0106558135
0.0110242877
0.0110033389
0.0106921962
0.0106811131
0.0110542163
0.0109980203
0.0110459054
0.0106852236
0.0106629615
0.0106591113
0.0106647563
0.0110271502
0.0107458393
0.0106586261
0.0110192323
0.0110109549
0.0107576479
0.0106607817
0.0106679896
0.0110219152
0.0109972242
0.0110053729
0.0107612044
0.0106633153
0.0106609657
0.0110233089
0.0110115378
0.0107221621
0.0106553473
0.0106526223
0.0110276655
0.0110115724
0.0106761944
0.0106602818
0.0110385509
0.0110122171
0.0110145275
0.0110121754
0.0107297192
0.0106629449
0.0106707703
0.0106488034
0.0106478834
0.0110293868
0.0110172475
0.0107380248
0.0106576925
0.0106686153
0.0110279023
0.0107933975
0.0106619426
0.0110209823
0.0110157539
0.0107632823
0.0106517073
0.0106525068
0.0110323231
0.0110069633
0.0110190482
0.011001107
0.0110062803
0.0106897677
0.0106463157
0.0106438855
0.0110249863
0.0110107948
0.0107662597
0.0106713656
0.0106781025
0.0106610725
0.0106588968
0.011024117
0.0110083363
0.0106973693
0.0106725825
0.0110182726
0.0110108798
0.0107585778
0.0106531176
0.0106518106
0.0110287427
0.0110070592
0.0110151962
0.0110010957
0.0110016219
0.0106993674
0.010671867
0.0106525205
0.0106536994
0.0110339091
0.0110226358
0.0106856272
0.0106309369
0.0106286891
0.0110413733
0.0110223146
0.0110244573
0.0110188319
0.0106851397
0.0106596143
0.0110253676
0.0110114828
0.0107749209
0.0106781305
0.0106472075
0.0106458733
0.0110423105
0.0110172665
0.0110197582
0.0110145347
0.0107183553
0.0106656394
0.0106629845
0.0106619672
0.0110266724
0.0110084122
0.0107589042
0.0106788627
0.0106596658
0.0106563664
0.0110349637
0.0110113185
0.0106754935
0.0106625001
0.011035168
0.0110089668
0.0106714791
0.0106673379
0.0110372525
0.0110050994
0.0110168381
0.0106822782
0.0106556176
0.0110208118
0.0110177393
0.0107075325
0.0106469479
0.0106438541
0.0110234294
0.0110100259
0.0106854679
0.0106684125
0.0110193373
0.0110021697
0.0107716179
0.0106868992
0.0106686544
0.0106703513
0.0110208577
0.0107352188
0.0106579103
0.0110228527
0.011010043
0.0106809452
0.010665933
0.0110316898
0.0110097905
0.0106658473
0.0106623016
0.0110413993
0.0110111646
0.0110276247
0.0106728779
0.0106420429
0.0110371575
0.0110170766
0.0106627019
0.0106624531
0.0110382569
0.0110057341
0.011023841
0.0107075498
0.0106649477
0.0106418947
0.0106440675
0.0110433106
0.0110159645
0.0110319787
0.0106855753
0.0106518581
0.0110391809
0.0110197116
0.0110224621
0.0110174581
0.0107291627
0.0106702012
0.0106705054
0.0106624894
0.0106258213
0.0106261739
0.0110522278
0.0110290982
0.0110416629
0.0110269107
0.0110232282
0.0110239637
0.0106827477
0.0106424863
0.0110251244
0.0110240804
0.0106960579
0.0106370396
0.0106448577
0.011030574
0.011006481
0.011012269
0.0107381641
0.010677066
0.0106754192
0.0106669054
0.0106349105
0.0106342437
0.01104464
0.01101576
0.011032178
0.011006075
0.0110177456
0.010695254
0.0106422797
0.0106377993
0.0110328169
0.0110140746
0.010677283
0.010666222
0.0110344283
0.0110037973
0.0110178122
0.0106922176
0.0106718806
0.0110172559
0.0110171482
0.0107496449
0.0106401433
0.0106438363
0.0110272638
0.0110057855
0.0110195528
0.0106914118
0.0106438701
0.0106436129
0.0110216249
0.0110169053
0.0107441267
0.010654267
0.0106556402
0.0110176378
0.0110128437
0.0106782669
0.0106546659
0.0110129823
0.0110150612
0.0107147343
0.0106269854
0.0106289418
0.0110168027
0.0110135233
0.0106530038
0.0106293646
0.0110076772
0.0110152786
0.0106594635
0.0105927838
0.0105968614
0.0110161088
0.0110018888
0.0110109461
0.0109943538
0.0109920515
0.0109842748
0.0105877854
0.0105565301
0.0109600161
0.0109423245
0.0109472471
0.0105340079
0.0105062944
0.0109074844
0.0108802993
0.0108805491
0.0108432016
0.0108393281
0.0108021496
0.0107913245
0.0107574839
0.0107407955
0.0107094693
0.0106877815
0.0106588953
0.0106331273
0.0106064367
0.0105782668
0.0105544375
0.0105282581
0.0105106403
0.0105050144
0.0104762446
0.010433061
0.0103900691
0.0103398868
0.0102932986
0.0102363297
0.0101854759
0.0101233252
0.0100671574
0.0100092819
0.00996582248
0.00995167569
0.00989026356
0.00984482854
0.009751507
0.00970371826
0.00958263816
0.00953367104
0.00936992274
0.00929857997
0.0091253211
0.00904490069
0.00889053222
0.00910571883
0.00892452165
0.00881771938
0.00861097976
0.00849329293
0.00828142349
0.00815025175
0.00793423926
0.0077879874
0.00756704503
0.00741961987
0.00726039662
0.00719361845
0.00696431683
0.00688295352
0.00657958622
0.0065629351
0.0061778371
0.00605630536
0.00549024896
0.00541250982
0.00505783848
0.00500338771
0.00478585832
0.00461996602
0.00444574476
0.00420807255
0.00401324609
0.003732252
0.00358637435
0.00338228834
0.00314733664
0.00295003401
0.00277949278
0.00260376198
0.00244675564
0.00228010915
0.00209723614
0.00193708224
0.00176811378
0.00163503422
0.00151384952
0.00140581986
0.00130070264
0.00120852505
0.00111647574
0.00103955014
0.000962472974
0.00090061283
0.000837526437
0.000789007126
0.000735868436
0.00069572635
0.000648207909
0.000615984924
0.000574808302
0.000547194204
0.000511014446
0.000487764333
0.000455018345
0.000435676702
0.000418557878
0.000406424103
0.000393691403
0.00038324996
0.000372569918
0.000363604266
0.000353965205
0.000345714113
0.000337384502
0.000330303208
0.000321622333
0.00031387519
0.000305623357
0.000299406367
0.000293363907
0.000288232993
0.000282640612
0.000278060203
0.000273078533
0.000268846182
0.000264194414
0.000260067717
0.000255524126
0.000251611528
0.000247302058
0.000243267214
0.0002389149
0.000235104336
0.000231081378
0.000227537798
0.000223813852
0.000220339235
0.000216716016
0.000213487513
0.000210145192
0.000207142187
0.000204044324
0.000201142126
0.000198136677
0.000195370184
0.000192533791
0.000189902384
0.000187223592
0.000184692457
0.000181822325
0.000179088698
0.000176340239
0.000173698436
0.000170925403
0.000168123049
0.000165404348
0.000162786262
0.000160250306
0.000157798423
0.000155440248
0.000153150201
0.000150929579
0.000148751409
0.000146646456
0.000144572435
)
;

boundaryField
{
    closed
    {
        type            calculated;
        value           nonuniform List<scalar> 0();
    }
    open
    {
        type            calculated;
        value           nonuniform List<scalar> 0();
    }
    sides
    {
        type            empty;
    }
    procBoundary4to3
    {
        type            processor;
        value           uniform 0.0110123651;
    }
    procBoundary4to5
    {
        type            processor;
        value           uniform 0.000142575109;
    }
}


// ************************************************************************* //
