/*--------------------------------*- C++ -*----------------------------------*\
| =========                 |                                                 |
| \\      /  F ield         | OpenFOAM: The Open Source CFD Toolbox           |
|  \\    /   O peration     | Version:  2306                                  |
|   \\  /    A nd           | Website:  www.openfoam.com                      |
|    \\/     M anipulation  |                                                 |
\*---------------------------------------------------------------------------*/
FoamFile
{
    version     2.0;
    format      ascii;
    arch        "LSB;label=32;scalar=64";
    class       volScalarField;
    location    "0.00094";
    object      H2O;
}
// * * * * * * * * * * * * * * * * * * * * * * * * * * * * * * * * * * * * * //

dimensions      [0 0 0 0 0 0 0];

internalField   nonuniform List<scalar> 
530
(
0.000991951479
0.00268182883
0.00716931049
0.00673330572
0.00100326966
0.000960265942
0.00610966387
0.00736784139
0.00655874193
0.00100487277
0.00100234466
0.00572196628
0.00706425145
0.00588179005
0.001062823
0.00101089227
0.00634460221
0.00704311872
0.00709601528
0.00605927822
0.00100101631
0.0010534814
0.00104284682
0.000965396359
0.00656460344
0.00740697675
0.00631540442
0.0010481584
0.001009363
0.00641929848
0.00710437762
0.00711337996
0.00636646668
0.00103774763
0.000999707068
0.00645344363
0.00732106074
0.00613967435
0.00103006991
0.000995922059
0.00652187462
0.00737637164
0.00628997415
0.00099551774
0.00104013321
0.00104023164
0.000951244628
0.00645103974
0.00718983729
0.00715987296
0.00648754272
0.00102841266
0.00100108608
0.00654571658
0.0071493349
0.00713229204
0.00635370407
0.0010342603
0.00101692073
0.00632662849
0.00722237079
0.00609470896
0.00103763253
0.000990298703
0.00649818621
0.00640206666
0.00102128736
0.000993070278
0.00678346912
0.00750318378
0.00623046077
0.000997900275
0.000921243295
0.00680283788
0.00658368763
0.00101739247
0.000816579689
0.00691757877
0.00658767848
0.0010232054
0.00097284845
0.00692688718
0.00763036625
0.0062275904
0.0009901532
0.000898726215
0.00676190032
0.00652092381
0.00102197867
0.000970315845
0.00691768353
0.00760245529
0.00619668471
0.000984923071
0.000866136205
0.00681625034
0.00657892827
0.00100782639
0.0008476117
0.00680776942
0.00647452806
0.00102773835
0.000956736795
0.00688588685
0.00742627897
0.00583725526
0.00102478961
0.000957980216
0.00678632234
0.00730842784
0.00566108711
0.00102524173
0.000943447833
0.00685322221
0.0073545922
0.00573329583
0.00100786244
0.000817540948
0.00657673289
0.00616094255
0.00102089753
0.000924481266
0.00697803951
0.00735774783
0.005572491
0.00101813887
0.000924891733
0.00685833731
0.00722759224
0.00534217463
0.00102176954
0.000924506364
0.00684546619
0.00722270345
0.00535264147
0.00101129028
0.000915008623
0.00692502013
0.00731982705
0.00553184309
0.000994512751
0.000779579976
0.00657931001
0.00611556137
0.00101476968
0.000926478571
0.00691368657
0.00730204312
0.00548834703
0.000992427548
0.000922834971
0.00689530409
0.00734096419
0.00550454142
0.00098807063
0.000746461916
0.00662466967
0.00610296289
0.000999953712
0.000915678798
0.00688702823
0.00733212165
0.00546616138
0.000983172478
0.000896434751
0.00691334346
0.00735952975
0.00520867187
0.000987459585
0.00153903867
0.00663325481
0.00575799171
0.0010043016
0.000810183055
0.00697336089
0.00726198405
0.00497966352
0.00100554291
0.000804006456
0.0068524035
0.00708724827
0.00443880319
0.00104676853
0.000976890129
0.00647598202
0.00687048657
0.0066065018
0.00668795614
0.00663612139
0.00306921784
0.00105836963
0.00303053118
0.00653221509
0.00448795413
0.00101497617
0.00349362739
0.00673966607
0.00435174451
0.000975341385
0.00378402253
0.0074030534
0.00731681093
0.00349444514
0.000957288768
0.0044449228
0.00683894427
0.00373201065
0.000966079189
0.00473642056
0.00679545311
0.00327665626
0.000945206086
0.00496718143
0.00749521457
0.00708407288
0.00244745128
0.000941779278
0.00522344241
0.00676110598
0.00274287769
0.000943701401
0.00541425728
0.00672260939
0.00230378528
0.000916320157
0.00561314931
0.0075317959
0.00688160846
0.00151626241
0.00092082243
0.00569248246
0.00668826152
0.00195680687
0.000918997639
0.00583136075
0.00665091903
0.00159156827
0.000901392834
0.00586627926
0.00750372142
0.0066962805
0.000783507949
0.000924997679
0.00581606261
0.00650189509
0.00129555833
0.000922615255
0.00572042375
0.00738005164
0.00657165954
0.000834042458
0.000918419793
0.00572266419
0.00737682244
0.00654775563
0.000872870019
0.000926735499
0.00586846751
0.00643600195
0.0011633557
0.000938353601
0.00552826969
0.00728477251
0.00650233157
0.000860571629
0.000938217287
0.00540107266
0.00724282074
0.00649688696
0.00086369032
0.000935315602
0.00535042841
0.00722929291
0.00651325724
0.000864211151
0.000924510017
0.00540318717
0.00724748174
0.00653359718
0.000865152811
0.000897470098
0.00568827995
0.0072688767
0.00640988831
0.000883353876
0.00090680017
0.00577814561
0.00643210606
0.0014859648
0.000908457363
0.00560696094
0.0072242392
0.00634631002
0.000891863905
0.000904854084
0.00580679762
0.0072142003
0.00608554033
0.000918804062
0.000898685819
0.00599278406
0.00722197601
0.00587592596
0.000932003388
0.000881094596
0.00611008088
0.00723729343
0.00559865331
0.000948971812
0.000851909207
0.0062876525
0.00721042437
0.00514186922
0.000975919058
0.000773420812
0.00670459719
0.00717552228
0.00485098159
0.000979855762
0.000779820071
0.00675448868
0.00712202724
0.0059416963
0.000868652305
0.00106728618
0.00147900213
0.00691058254
0.00722401709
0.00578504457
0.000874481625
0.000833203403
0.00654516193
0.00729126931
0.00563532087
0.000901139128
0.000942557952
0.00662190021
0.00724247103
0.00525645732
0.0009520291
0.00205945121
0.00648708431
0.00541123404
0.000937879836
0.000994306283
0.00673916591
0.0072417568
0.00538965822
0.000979518563
0.0016323062
0.00636832975
0.00543015408
0.0009830209
0.000881032774
0.00639199703
0.00698906353
0.00692530913
0.00715944672
0.00615389743
0.00101191252
0.000898056352
0.00650487087
0.00606314256
0.000975632264
0.000944765434
0.00639644244
0.00748497867
0.00679859982
0.000992221186
0.00091506874
0.0068119431
0.00680044609
0.000950331781
0.000948881345
0.00693968687
0.006980016
0.000915369778
0.000954711385
0.00693697596
0.00705362689
0.000864988621
0.000952519411
0.0068510436
0.00704917635
0.000817679342
0.000948859165
0.00670774163
0.00696215637
0.00078169108
0.000959452073
0.00661810589
0.00696155806
0.000721060353
0.00095907194
0.00569175492
0.00766886731
0.00737776338
0.000861980569
0.000966439602
0.00633422546
0.00692706483
0.00119970623
0.000974705546
0.0062793542
0.00692347331
0.00129581127
0.000981977118
0.00617098797
0.00696752352
0.00161080654
0.000968256911
0.00535182214
0.00771706177
0.00749987274
0.000844027747
0.000989067845
0.0060141857
0.00695506464
0.00225139476
0.00100072986
0.00579323689
0.00692808089
0.00201070819
0.00101815369
0.00575487753
0.00685355753
0.00167648767
0.00100452361
0.0051239647
0.00756794432
0.00728984486
0.000793075527
0.00108060413
0.000995248184
0.00501101623
0.00709183665
0.00704577897
0.00741235916
0.00719566322
0.000941178807
0.00108630575
0.000993634558
0.00531909062
0.00666172625
0.00217090304
0.000998948137
0.00486364038
0.00751022279
0.00724793142
0.000852572863
0.00102232884
0.00545685021
0.00663849926
0.00242743912
0.00101460776
0.00450358803
0.00735246906
0.00712305588
0.000856607934
0.00102858588
0.00464697365
0.00727603636
0.00709719967
0.000836794539
0.00103848206
0.00448243668
0.00724883145
0.00710946554
0.000784012494
0.00104237283
0.00437330186
0.00724351658
0.00714802595
0.000781255884
0.00103955029
0.00429963732
0.00726231067
0.00721391174
0.00128903102
0.00103101724
0.00425456588
0.00729055574
0.0072634282
0.00158832466
0.00103764333
0.00502158946
0.00684880079
0.00333565388
0.000998853744
0.00406275794
0.00737516123
0.00737137956
0.0020522011
0.00102416208
0.0050178029
0.00684014451
0.00324328703
0.00101725833
0.00491661749
0.0068160032
0.00295375737
0.00101012582
0.00410178103
0.00728949599
0.00728431983
0.0016040431
0.00102899454
0.00402654971
0.00718131091
0.00717837578
0.00162715784
0.00103459228
0.00393213533
0.00714844061
0.00715518758
0.00168048781
0.00103666593
0.00386950884
0.00712204136
0.00713155627
0.00162771691
0.00104094324
0.00382047035
0.0070914155
0.00710377739
0.00157146737
0.00104235601
0.00385039896
0.00710965004
0.00713499024
)
;

boundaryField
{
    closed
    {
        type            calculated;
        value           nonuniform List<scalar> 0();
    }
    open
    {
        type            calculated;
        value           nonuniform List<scalar> 0();
    }
    sides
    {
        type            empty;
    }
    procBoundary2to1
    {
        type            processor;
        value           uniform 0.00437621494;
    }
    procBoundary2to3
    {
        type            processor;
        value           uniform 0.00162142388;
    }
}


// ************************************************************************* //
