/*--------------------------------*- C++ -*----------------------------------*\
| =========                 |                                                 |
| \\      /  F ield         | OpenFOAM: The Open Source CFD Toolbox           |
|  \\    /   O peration     | Version:  2306                                  |
|   \\  /    A nd           | Website:  www.openfoam.com                      |
|    \\/     M anipulation  |                                                 |
\*---------------------------------------------------------------------------*/
FoamFile
{
    version     2.0;
    format      ascii;
    arch        "LSB;label=32;scalar=64";
    class       volScalarField;
    location    "0.00062";
    object      prefDPV_H2O;
}
// * * * * * * * * * * * * * * * * * * * * * * * * * * * * * * * * * * * * * //

dimensions      [1 -1 -1 0 0 0 0];

internalField   nonuniform List<scalar> 
530
(
-3.84474197e-07
-3.67062852e-07
-3.66305179e-07
-3.81855935e-07
-3.83420527e-07
-3.66595254e-07
-3.66901686e-07
-3.86263905e-07
-3.81991491e-07
-3.66483243e-07
-3.68355018e-07
-3.86955367e-07
-3.8064273e-07
-3.66751761e-07
-3.6850915e-07
-3.86703985e-07
-3.85334921e-07
-3.70665936e-07
-3.64934483e-07
-3.65694947e-07
-3.8398481e-07
-3.85468493e-07
-3.72928368e-07
-3.65291707e-07
-3.6787483e-07
-3.86186943e-07
-3.78457269e-07
-3.66188206e-07
-3.68903346e-07
-3.86551369e-07
-3.86493085e-07
-3.67641978e-07
-3.65572209e-07
-3.71229717e-07
-3.8579669e-07
-3.84595647e-07
-3.73996539e-07
-3.65561236e-07
-3.64435663e-07
-3.69255606e-07
-3.8654748e-07
-3.84154687e-07
-3.66184859e-07
-3.64392917e-07
-3.71018129e-07
-3.86673155e-07
-3.74859551e-07
-3.66031767e-07
-3.72161947e-07
-3.86378251e-07
-3.74931341e-07
-3.66400032e-07
-3.7276346e-07
-3.85584185e-07
-3.84784194e-07
-3.6668453e-07
-3.65075278e-07
-3.72070938e-07
-3.8573742e-07
-3.8393781e-07
-3.66453292e-07
-3.65269319e-07
-3.74906621e-07
-3.85359859e-07
-3.8067141e-07
-3.65804818e-07
-3.64766638e-07
-3.76052352e-07
-3.8527765e-07
-3.79572846e-07
-3.65495447e-07
-3.64509669e-07
-3.77439656e-07
-3.85683206e-07
-3.70133828e-07
-3.65587393e-07
-3.7712643e-07
-3.85638811e-07
-3.69874318e-07
-3.65774595e-07
-3.7912896e-07
-3.85481286e-07
-3.69409716e-07
-3.65847424e-07
-3.79948855e-07
-3.84681998e-07
-3.77959867e-07
-3.65272205e-07
-3.64802608e-07
-3.80817587e-07
-3.8415081e-07
-3.83916886e-07
-3.69553483e-07
-3.67096199e-07
-3.66862471e-07
-3.659319e-07
-3.66044759e-07
-3.86789858e-07
-3.84026035e-07
-3.79333972e-07
-3.65405946e-07
-3.65007364e-07
-3.84368438e-07
-3.85262693e-07
-3.67170707e-07
-3.65533749e-07
-3.83871481e-07
-3.85202171e-07
-3.67530848e-07
-3.65807349e-07
-3.83893613e-07
-3.84342218e-07
-3.77343921e-07
-3.65554631e-07
-3.65276213e-07
-3.8453101e-07
-3.84056734e-07
-3.7858538e-07
-3.66890575e-07
-3.64215284e-07
-3.64193567e-07
-3.86958388e-07
-3.85665772e-07
-3.6648898e-07
-3.65556616e-07
-3.85820489e-07
-3.84513079e-07
-3.73794622e-07
-3.64791221e-07
-3.65045784e-07
-3.86550932e-07
-3.856494e-07
-3.66531116e-07
-3.65916215e-07
-3.86765924e-07
-3.84470194e-07
-3.72954729e-07
-3.64515752e-07
-3.64778116e-07
-3.86699638e-07
-3.85754156e-07
-3.66087177e-07
-3.65595703e-07
-3.86497016e-07
-3.8593222e-07
-3.6632359e-07
-3.65984326e-07
-3.86900839e-07
-3.85908122e-07
-3.66335627e-07
-3.66268386e-07
-3.86419529e-07
-3.86120788e-07
-3.66570547e-07
-3.66411026e-07
-3.8655701e-07
-3.84340061e-07
-3.7368414e-07
-3.64686078e-07
-3.64446122e-07
-3.80180702e-07
-3.83897976e-07
-3.662994e-07
-3.66128535e-07
-3.8684274e-07
-3.86436685e-07
-3.66019363e-07
-3.66017955e-07
-3.86562918e-07
-3.86688431e-07
-3.66157624e-07
-3.66344805e-07
-3.86497826e-07
-3.8694234e-07
-3.66167882e-07
-3.66659149e-07
-3.86160815e-07
-3.86428413e-07
-3.66697411e-07
-3.66456727e-07
-3.86531001e-07
-3.83954605e-07
-3.78374396e-07
-3.66897156e-07
-3.64928466e-07
-3.65377957e-07
-3.79194311e-07
-3.78531665e-07
-3.66119588e-07
-3.67458931e-07
-3.86147849e-07
-3.84019254e-07
-3.66453815e-07
-3.66816286e-07
-3.86223116e-07
-3.84510713e-07
-3.71931646e-07
-3.64641806e-07
-3.66127679e-07
-3.86967147e-07
-3.83412529e-07
-3.66250888e-07
-3.66453448e-07
-3.86567923e-07
-3.84665208e-07
-3.71808994e-07
-3.64570776e-07
-3.65977825e-07
-3.86596696e-07
-3.83153959e-07
-3.65814512e-07
-3.66825452e-07
-3.86718436e-07
-3.82536511e-07
-3.66135877e-07
-3.68103579e-07
-3.86313743e-07
-3.81315682e-07
-3.66446768e-07
-3.67490701e-07
-3.86223774e-07
-3.8470189e-07
-3.71341368e-07
-3.6514669e-07
-3.6644467e-07
-3.86719324e-07
-3.85199168e-07
-3.70091147e-07
-3.64523291e-07
-3.66842691e-07
-3.86880438e-07
-3.8119224e-07
-3.6624582e-07
-3.66615407e-07
-3.86651373e-07
-3.84529659e-07
-3.7365078e-07
-3.65682445e-07
-3.66376933e-07
-3.86621769e-07
-3.84232526e-07
-3.75828694e-07
-3.65838501e-07
-3.64164941e-07
-3.66535539e-07
-3.87050834e-07
-3.79726975e-07
-3.66062052e-07
-3.67380249e-07
-3.86333416e-07
-3.84894226e-07
-3.7011449e-07
-3.64764396e-07
-3.67927456e-07
-3.86571869e-07
-3.78955899e-07
-3.66201475e-07
-3.6873442e-07
-3.85904164e-07
-3.85226807e-07
-3.68465324e-07
-3.6540599e-07
-3.69370585e-07
-3.85763184e-07
-3.8462786e-07
-3.71017054e-07
-3.65333212e-07
-3.66820442e-07
-3.86432584e-07
-3.84724523e-07
-3.72460339e-07
-3.66241466e-07
-3.64752248e-07
-3.64400654e-07
-3.75360344e-07
-3.85080124e-07
-3.77249866e-07
-3.66468071e-07
-3.71719692e-07
-3.85478158e-07
-3.78650964e-07
-3.6634166e-07
-3.68935244e-07
-3.85616987e-07
-3.85091284e-07
-3.68118793e-07
-3.64374302e-07
-3.68038786e-07
-3.86497681e-07
-3.78723524e-07
-3.66128877e-07
-3.68310435e-07
-3.85788655e-07
-3.85235106e-07
-3.68129668e-07
-3.64380689e-07
-3.67941516e-07
-3.86539186e-07
-3.78233053e-07
-3.65642217e-07
-3.69405841e-07
-3.86121819e-07
-3.77794758e-07
-3.65744618e-07
-3.7037162e-07
-3.85887944e-07
-3.76800347e-07
-3.65827781e-07
-3.71170346e-07
-3.85770666e-07
-3.76132409e-07
-3.65912054e-07
-3.72322816e-07
-3.85474139e-07
-3.76359818e-07
-3.66314916e-07
-3.70100754e-07
-3.85111e-07
-3.84404152e-07
-3.70824607e-07
-3.65042567e-07
-3.64122556e-07
-3.69839492e-07
-3.86390623e-07
-3.74196067e-07
-3.65653183e-07
-3.70157421e-07
-3.85250888e-07
-3.85498527e-07
-3.66301993e-07
-3.64439297e-07
-3.72270058e-07
-3.85889047e-07
-3.72920166e-07
-3.65637925e-07
-3.74254583e-07
-3.85412939e-07
-3.72386026e-07
-3.65620528e-07
-3.75311965e-07
-3.85317145e-07
-3.71258571e-07
-3.6564643e-07
-3.77491196e-07
-3.8531405e-07
-3.71093664e-07
-3.65910728e-07
-3.74609565e-07
-3.84601444e-07
-3.84603892e-07
-3.66083165e-07
-3.64298793e-07
-3.71736603e-07
-3.85964949e-07
-3.73239798e-07
-3.65713772e-07
-3.71229334e-07
-3.84831387e-07
-3.85428628e-07
-3.66332573e-07
-3.64260735e-07
-3.71416087e-07
-3.85689039e-07
-3.74545712e-07
-3.65624482e-07
-3.6948897e-07
-3.85101032e-07
-3.85163394e-07
-3.66379399e-07
-3.64717059e-07
-3.737488e-07
-3.85215427e-07
-3.77470098e-07
-3.65653085e-07
-3.66356706e-07
-3.85872138e-07
-3.84139431e-07
-3.74452934e-07
-3.65433365e-07
-3.64527608e-07
-3.70867838e-07
-3.85171015e-07
-3.86832138e-07
-3.65833019e-07
-3.64326e-07
-3.7460399e-07
-3.85616151e-07
-3.70654911e-07
-3.65658898e-07
-3.7744957e-07
-3.85049846e-07
-3.72806433e-07
-3.65701196e-07
-3.70176159e-07
-3.85044463e-07
-3.84956632e-07
-3.67345746e-07
-3.64790424e-07
-3.69348375e-07
-3.85358899e-07
-3.85429947e-07
-3.66794887e-07
-3.64655967e-07
-3.68949487e-07
-3.85544354e-07
-3.85557584e-07
-3.66744759e-07
-3.65014362e-07
-3.72586453e-07
-3.85183086e-07
-3.84178858e-07
-3.66018419e-07
-3.6494232e-07
-3.74509809e-07
-3.85122365e-07
-3.81153255e-07
-3.65506189e-07
-3.64668039e-07
-3.77969661e-07
-3.85627623e-07
-3.6951018e-07
-3.65871917e-07
-3.79008835e-07
-3.84725507e-07
-3.78681857e-07
-3.65296553e-07
-3.64582347e-07
-3.79261533e-07
-3.85645427e-07
-3.69034819e-07
-3.65846933e-07
-3.79718293e-07
-3.8469011e-07
-3.77910671e-07
-3.65214807e-07
-3.64734684e-07
-3.80383619e-07
-3.85614936e-07
-3.68514478e-07
-3.66052542e-07
-3.80808651e-07
-3.84631561e-07
-3.77040887e-07
-3.65078117e-07
-3.64646799e-07
-3.81583327e-07
-3.85809006e-07
-3.68047634e-07
-3.65941573e-07
-3.81952774e-07
-3.84603624e-07
-3.76132005e-07
-3.64954253e-07
-3.64617914e-07
-3.82856566e-07
-3.85847785e-07
-3.67651927e-07
-3.66026896e-07
-3.82601018e-07
-3.84646792e-07
-3.75447164e-07
-3.64774752e-07
-3.64460479e-07
-3.82986743e-07
-3.86160571e-07
-3.67174985e-07
-3.65994985e-07
-3.83713093e-07
-3.86188082e-07
-3.66981418e-07
-3.66269822e-07
-3.84496766e-07
-3.86201071e-07
-3.67165033e-07
-3.66193762e-07
-3.83014337e-07
-3.845834e-07
-3.75411378e-07
-3.64801171e-07
-3.64768567e-07
-3.85024832e-07
-3.8680795e-07
-3.66786025e-07
-3.66045243e-07
-3.84571695e-07
-3.84600737e-07
-3.74860984e-07
-3.64758936e-07
-3.65010502e-07
-3.85816467e-07
-3.85946891e-07
-3.6655546e-07
-3.66163871e-07
-3.85874176e-07
-3.84549499e-07
-3.7402457e-07
-3.64647273e-07
-3.65019387e-07
-3.85484321e-07
-3.8541505e-07
-3.66026995e-07
-3.66519347e-07
-3.86739644e-07
-3.84358629e-07
-3.66003911e-07
-3.66679549e-07
-3.86679079e-07
-3.83938877e-07
-3.6638432e-07
-3.66233267e-07
-3.85088979e-07
-3.84462091e-07
-3.74669136e-07
-3.64801095e-07
-3.65828848e-07
-3.86320673e-07
-3.8289692e-07
-3.6627805e-07
-3.66130078e-07
-3.85596842e-07
-3.84333959e-07
-3.75725453e-07
-3.651202e-07
-3.64490934e-07
-3.79683411e-07
-3.84777342e-07
-3.75783043e-07
-3.65047348e-07
-3.65646307e-07
-3.86632209e-07
)
;

boundaryField
{
    closed
    {
        type            calculated;
        value           nonuniform List<scalar> 0();
    }
    open
    {
        type            calculated;
        value           nonuniform List<scalar> 0();
    }
    sides
    {
        type            empty;
    }
    procBoundary2to1
    {
        type            processor;
        value           uniform -3.81729219e-07;
    }
    procBoundary2to3
    {
        type            processor;
        value           uniform -3.86317979e-07;
    }
}


// ************************************************************************* //
