/*--------------------------------*- C++ -*----------------------------------*\
| =========                 |                                                 |
| \\      /  F ield         | OpenFOAM: The Open Source CFD Toolbox           |
|  \\    /   O peration     | Version:  2306                                  |
|   \\  /    A nd           | Website:  www.openfoam.com                      |
|    \\/     M anipulation  |                                                 |
\*---------------------------------------------------------------------------*/
FoamFile
{
    version     2.0;
    format      ascii;
    arch        "LSB;label=32;scalar=64";
    class       volScalarField;
    location    "0.00062";
    object      prefDh_H;
}
// * * * * * * * * * * * * * * * * * * * * * * * * * * * * * * * * * * * * * //

dimensions      [1 1 -3 0 0 0 0];

internalField   nonuniform List<scalar> 
530
(
23722.2835
23387.9917
23332.5436
23627.9909
23683.1947
23382.4449
23385.3494
23793.3034
23632.8211
23350.5863
23371.5558
23819.9749
23586.8005
23392.0898
23376.9839
23811.6028
23884.3907
23374.6961
23083.7286
23247.2653
23704.2358
23896.3926
23395.8138
23142.2118
23359.7296
23790.3701
23518.0293
23305.422
23358.0289
23822.1908
23824.0106
23384.1812
23190.697
23371.0357
23846.5827
23920.55
23424.396
23214.8471
23019.7068
23343.6831
23825.58
23704.7608
23335.8161
22997.0204
23356.8051
23837.4817
23426.5928
23270.7209
23378.1162
23851.6958
23430.5616
23336.0522
23386.8988
23862.3422
23725.1791
23386.0339
23115.6758
23368.8447
23859.8351
23695.6988
23369.9355
23148.7016
23422.2658
23882.1907
23586.2601
23259.6194
23070.8518
23448.5827
23887.1826
23553.4859
23202.0566
23023.6162
23487.5967
23898.1128
23367.7891
23198.6569
23479.675
23898.9852
23369.036
23228.3955
23538.2649
23912.7921
23372.6205
23250.3824
23564.1259
23921.2575
23508.4712
23162.5657
23099.1211
23593.2901
23955.5624
23695.6124
23367.969
23429.6971
23396.169
23253.6196
23286.5906
23834.0274
23953.2143
23546.5749
23188.6821
23112.9602
23721.745
23935.1931
23395.4176
23191.3911
23701.8535
23932.8612
23402.3682
23242.1648
23703.6714
23930.2911
23494.5046
23193.3343
23164.4093
23727.1423
23954.2653
23527.3285
23393.0192
22957.9607
22961.7412
23832.6104
23906.7907
23349.9923
23186.6204
23777.0022
23922.8942
23425.3187
23062.9264
23102.5876
23847.1841
23908.7535
23356.455
23244.3778
23812.6934
23924.4738
23412.9776
23014.7867
23061.5145
23843.0112
23905.8367
23282.2696
23182.3817
23800.6222
23890.5882
23323.2862
23245.7212
23820.2988
23893.1151
23327.8787
23291.2972
23847.2956
23877.8465
23366.2941
23325.2206
23842.1307
23937.9169
23421.329
23062.5828
23021.6008
23571.7494
23701.3922
23330.4759
23279.8938
23830.0394
23866.5948
23274.1444
23252.8631
23846.6936
23849.5037
23299.0203
23313.4371
23847.453
23819.7529
23298.1485
23366.2062
23864.3568
23859.943
23377.7254
23340.9431
23799.2353
23968.3455
23521.1481
23381.9254
23101.0802
23183.198
23540.9931
23521.498
23297.8333
23387.5402
23867.6823
23705.3159
23346.1317
23410.7238
23858.9812
23944.8067
23386.5672
23036.3654
23308.9092
23825.3119
23683.1538
23300.2197
23342.2642
23842.1705
23936.3746
23386.0264
23020.1842
23282.6456
23806.3605
23674.343
23226.7272
23399.7849
23836.0572
23651.7059
23289.3018
23377.3285
23856.1253
23609.0056
23343.0287
23391.2969
23851.4055
23942.19
23379.325
23119.9978
23357.6955
23831.7684
23918.2349
23366.9895
23012.5025
23378.9969
23830.3102
23605.0844
23301.6459
23385.6397
23828.7376
23949.0739
23414.0752
23207.962
23343.9723
23803.0609
23957.9721
23462.7192
23280.9508
22963.2695
23388.0003
23826.1062
23557.2343
23270.6453
23386.092
23847.2392
23934.0059
23366.8775
23058.2391
23360.632
23847.1582
23533.473
23301.8483
23368.0331
23864.1622
23916.9759
23371.8613
23158.6694
23365.7571
23863.318
23939.1627
23378.6632
23149.8243
23389.9768
23837.0149
23952.7935
23403.3563
23314.0125
23083.7802
23016.1979
23432.1623
23912.1649
23488.2857
23357.905
23376.5458
23904.5912
23524.9087
23334.4212
23375.7493
23887.409
23921.4284
23360.0717
22983.685
23362.5433
23851.5348
23526.5609
23282.6854
23384.4499
23874.9976
23911.8384
23362.5796
22981.2424
23363.5596
23847.0434
23511.8152
23199.6289
23360.0779
23869.6706
23499.4546
23222.4258
23361.4689
23880.8111
23472.8353
23237.1553
23367.8721
23888.3862
23456.6051
23252.9167
23381.829
23902.6219
23464.0533
23323.0391
23377.6674
23897.7371
23955.9577
23393.2867
23138.5815
22961.2716
23362.3367
23866.6609
23412.7786
23201.1017
23373.6526
23899.031
23903.5846
23360.1266
22991.3454
23379.6282
23884.3416
23391.5696
23199.5036
23412.2347
23906.0941
23385.9729
23202.6218
23434.7712
23912.7864
23375.6349
23205.0061
23490.0446
23919.2498
23376.2074
23255.4098
23424.6726
23932.9981
23723.0576
23327.7622
22968.3302
23374.0037
23885.264
23397.1151
23214.5551
23381.0722
23923.2817
23908.375
23368.8529
22960.183
23370.4243
23892.0085
23421.3021
23200.0537
23374.5582
23910.1063
23928.6538
23371.6067
23049.72
23403.6684
23901.7653
23492.742
23199.7255
23339.7469
23878.9536
23953.7476
23436.9629
23206.1622
23037.0017
23375.4102
23907.3434
23813.7614
23277.653
22977.1708
23418.8985
23903.6884
23368.2024
23208.8019
23488.7127
23922.2494
23394.9546
23221.4582
23372.0291
23910.6137
23930.2455
23369.9411
23060.3228
23366.8044
23895.3569
23904.6343
23376.452
23032.2024
23365.5542
23881.471
23896.3001
23384.3857
23095.0513
23384.7836
23894.8209
23706.608
23300.2325
23091.5057
23415.9013
23898.0598
23601.8073
23206.3868
23044.4831
23503.4399
23905.0669
23371.7191
23245.096
23534.6243
23916.3502
23528.3854
23169.8806
23033.3624
23542.3207
23905.6333
23373.8454
23241.0363
23556.8323
23918.1745
23507.9834
23152.4716
23059.4894
23578.4344
23906.7495
23381.0178
23274.6178
23592.4521
23922.1268
23486.6827
23126.193
23040.9737
23619.002
23896.0331
23386.8646
23253.4669
23631.7045
23925.1878
23466.0238
23102.704
23034.7969
23664.0851
23891.7688
23395.4844
23264.6378
23654.3807
23924.1797
23451.5177
23069.9428
23006.4091
23668.7242
23878.974
23393.2469
23249.9616
23694.0656
23872.2006
23400.7697
23297.9246
23722.8855
23866.4292
23405.4493
23294.2101
23668.9318
23932.8796
23448.8169
23075.7024
23055.0631
23744.184
23812.319
23406.2706
23265.3631
23725.9174
23934.534
23437.4175
23065.7389
23098.7395
23774.296
23777.5523
23360.7977
23287.3584
23775.2408
23938.3736
23421.4569
23045.5605
23105.1576
23761.3005
23758.0203
23275.3957
23365.2794
23822.4803
23717.029
23273.9857
23398.5186
23826.378
23700.6459
23333.7635
23311.7754
23744.5053
23946.4038
23431.1348
23080.4523
23257.1252
23793.3849
23663.2883
23312.3848
23298.1761
23762.2946
23951.5619
23457.2201
23142.7792
23036.2417
23555.439
23916.2431
23455.9659
23125.9795
23213.7949
23805.901
)
;

boundaryField
{
    closed
    {
        type            calculated;
        value           nonuniform List<scalar> 0();
    }
    open
    {
        type            calculated;
        value           nonuniform List<scalar> 0();
    }
    sides
    {
        type            empty;
    }
    procBoundary2to1
    {
        type            processor;
        value           uniform 23623.5925;
    }
    procBoundary2to3
    {
        type            processor;
        value           uniform 23868.3496;
    }
}


// ************************************************************************* //
