/*--------------------------------*- C++ -*----------------------------------*\
| =========                 |                                                 |
| \\      /  F ield         | OpenFOAM: The Open Source CFD Toolbox           |
|  \\    /   O peration     | Version:  2306                                  |
|   \\  /    A nd           | Website:  www.openfoam.com                      |
|    \\/     M anipulation  |                                                 |
\*---------------------------------------------------------------------------*/
FoamFile
{
    version     2.0;
    format      ascii;
    arch        "LSB;label=32;scalar=64";
    class       volScalarField;
    location    "0.00124";
    object      h;
}
// * * * * * * * * * * * * * * * * * * * * * * * * * * * * * * * * * * * * * //

dimensions      [0 2 -2 0 0 0 0];

internalField   nonuniform List<scalar> 
531
(
10029.0549
-2828.50896
-4983.56791
-7147.53336
-7053.76024
8722.78071
9808.2871
9069.72317
9816.7452
7952.79166
-7112.06326
-7562.09116
8996.00983
9897.75863
-5221.89364
-5974.28967
9155.395
10061.6768
-5712.97933
-5801.49424
8940.34892
10161.6698
9501.72087
-4356.83159
-7007.09534
9175.43299
9951.57546
-5742.14108
-5725.91762
9080.90206
10482.1703
9694.42174
-1083.17824
-6601.91086
-6103.8879
9839.03057
10022.1612
3059.43516
-5886.84549
-5270.09377
9525.29495
10542.92
10081.5005
-97.4158855
-5607.90543
-5381.00153
10006.1313
10196.3987
-1139.50084
-4316.69982
-5808.72456
-5809.73406
9049.38854
9678.62266
9652.07899
7668.70143
-6119.94143
-5895.81838
9263.56104
-1111.35081
-6048.19348
9748.229
10058.5526
-3599.03796
-5013.97263
9564.64195
10190.4587
-3877.71399
-4795.04462
9572.17482
10214.4963
-3736.8526
-4761.10276
9661.44058
10198.3142
-3235.92246
-4810.1274
9902.4526
10135.0144
106.331596
-5481.38621
-5354.89163
10002.9285
10152.8346
-1966.5657
-4639.91214
-6600.94494
-6563.24978
9065.07753
10134.496
9626.84713
10486.145
10178.7939
-1229.43994
-4331.29602
-6065.86324
-6067.00592
9255.44864
9992.00886
-5124.14789
-5848.28029
9385.20904
10087.8742
-4589.98453
-5160.62108
9542.73111
10203.7974
-4030.00052
-4675.16836
9677.98374
10261.1929
-3646.44318
-4540.3039
9805.5007
10240.1526
-3143.48021
-4679.53227
10040.1595
10137.3088
90.0927541
-5667.61049
-5630.26175
10051.8734
10000.5337
-1023.96934
-7322.70165
-6488.07067
9368.27479
10248.1437
9767.35096
-2882.5716
-5583.39808
9887.45892
10058.931
-3143.09639
-5433.41022
10050.7306
9981.65832
-1400.10081
-7654.56894
-6943.22173
9266.96207
10028.8144
9592.48179
-4749.87589
-7047.04128
9313.31569
9887.16953
-6630.84559
-6453.09729
9116.45023
10222.8973
9498.49168
-3520.99376
-6248.12959
9805.19568
10091.0987
-3686.81326
-4569.5149
10054.1855
10354.3485
-1528.48872
-3656.40315
-5378.34053
-5381.11254
9640.85484
10159.3093
-5202.84365
-5043.82238
9427.75588
10366.6236
9782.9563
-3577.46392
-5977.1811
10098.4867
9898.38351
-653.533326
-7294.56968
-6303.46651
9100.61006
10006.4542
9358.64233
-5908.90472
-7026.55789
9698.64219
9992.13157
-3143.96908
-4932.87144
-7170.51837
-6881.54616
9140.38101
10019.7903
9439.80658
10256.2622
10021.6943
3982.715
-4695.16733
-4701.31849
-7510.61461
-7066.14491
9095.64436
9934.01278
9348.83601
10152.8879
9830.12392
-4149.80867
-6094.20017
9973.33744
9857.61111
-2082.8316
-6539.41471
-6143.87907
9971.91602
9763.39346
-79.5190742
-7891.14283
-6963.85304
9205.88715
10128.5917
9468.55097
-3906.85854
-6822.39924
9509.30423
9911.59449
-6003.55006
-5568.64936
9118.94722
10507.1527
9493.94513
-526.376732
-6790.47632
-6105.4355
9787.07076
10056.704
-3048.66033
-4404.49548
10056.6407
10324.25
-1078.79684
-3879.13265
-5237.42414
-5422.10277
9713.09651
9792.28308
-1956.11526
-8005.81141
-7304.26954
9092.54424
9852.35031
9421.16197
9884.20455
9880.45627
6068.65098
-6069.15489
-6064.31023
9556.97061
9872.0189
-2063.0554
-6653.85397
-6322.98944
9742.12378
9821.64128
-840.303605
-6945.09667
-6257.60589
9420.91439
10368.4172
9992.95579
-1866.61195
-4250.57986
9922.61934
10393.1252
-290.542222
-3626.19943
-5983.59987
-5911.84699
9099.89918
10007.0803
9862.82078
10067.0743
877.85631
-5180.48076
-4447.33527
-7011.68291
-6748.54849
9159.7498
10357.4911
10035.0701
-1025.12578
-3916.94432
9833.52373
10458.8756
337.344601
-3390.47454
-6279.66605
-6257.29536
8711.96693
9882.09239
9338.7484
9879.69455
-5375.46776
-6120.21191
8514.98799
10446.754
9543.01264
557.76803
-6894.53819
-6543.84625
8899.62801
10168.1471
8185.40685
-4328.73887
-5834.25088
-8599.24851
-8554.03928
8293.06589
9705.50829
9050.5317
9936.01945
9871.58668
-4470.83387
-6825.07115
8937.5811
9934.06688
-2481.10101
-4983.27325
-7020.8531
-7013.08775
8531.59466
9848.06174
9682.47744
9934.78158
2925.44655
-6045.5758
-6027.86695
9177.53628
9874.12696
-473.933731
-6689.76358
-6383.12185
9108.33114
10348.5299
10038.6099
-1951.22025
-4726.20879
9244.507
10187.8148
-1699.29827
-4564.72747
-7186.03847
-7190.68791
8187.10534
9911.27472
9249.37783
10176.0011
10114.8787
-2865.68737
-5982.32747
-9626.79117
-9620.01281
7347.66967
9254.16359
8453.80635
9363.93839
9162.96544
-6865.15414
-8739.6283
7249.15024
9779.54191
8954.57196
-3572.85537
-7673.13361
8141.9111
9472.31017
-5623.9669
-7125.16341
7199.31346
9164.32679
8571.88857
-5737.55275
-8387.52107
5795.69518
7733.7593
6821.34014
-6703.04343
-10082.2512
4066.15216
5519.11732
4776.05817
5153.33943
4738.22178
4834.5182
4529.62641
4524.99954
4254.79355
4210.62058
3944.01558
3918.71672
3709.42876
3819.03704
3820.12384
4583.20842
5617.37936
5817.02823
5660.41517
5655.92185
5396.91739
5246.61875
4854.90518
4524.41095
3961.32743
3488.05259
3025.3548
3676.16022
4774.87373
5071.8764
4856.48507
4598.43957
3991.64532
3239.81436
2219.28796
881.761441
-592.635842
-2178.2574
-3943.91492
-5962.84821
-7618.43714
-5915.96481
3363.04243
1710.55558
-233.348764
-2128.59428
-4978.66275
-7446.68076
-11208.3174
-14411.7098
-19990.7633
-22175.0356
-25685.8771
-28100.0245
-31794.4795
-35275.4488
-38932.3691
-43329.0429
-44137.1399
-52472.0887
-53472.229
-58833.656
-71527.6504
-75995.8432
-83944.0737
-87588.1794
-94541.9048
-98359.6284
-104666.399
-108476.438
-113846.345
-117266.525
-121752.824
-124736.352
-128445.961
-131029.717
-134496.232
-137003.335
-140413.769
-142935.674
-146409.27
-149029.369
-152643.666
-155457.858
-159178.395
-162090.623
-165735.269
-168746.163
-172299.931
-175333.524
-178653.853
-181775.902
-184772.577
-187935.571
-190636.69
-193883.656
-196369.293
-199628.538
-201709.487
-205951.264
-208616.32
-211094.005
-211138.621
-221607.821
-229395.986
-219456.105
-206827.64
-243231.285
-261249.366
-213723.866
-189570.078
-270187.666
-289842.168
-218216.556
-202032.254
-289539.091
-291972.205
-234621.098
-211164.29
-285854.931
-280276.416
-239093.862
-212370.404
-273752.846
-269937.236
-238380.782
-213919.031
-262863.566
-260785.773
-235350.251
-213741.743
-253945.495
-253032.27
-231025.721
-213082.111
-246445.413
-246476.074
-226066.211
-212038.38
-240176.472
-240633.773
-220735.086
-210675.438
-235215.923
-235233.549
)
;

boundaryField
{
    closed
    {
        type            lookUpEnthalpy;
        h0              nonuniform List<scalar> 0();
        value           nonuniform List<scalar> 0();
    }
    open
    {
        type            zeroGradient;
    }
    sides
    {
        type            empty;
    }
    procBoundary4to3
    {
        type            processor;
        value           uniform 9577.24158;
    }
    procBoundary4to5
    {
        type            processor;
        value           uniform -215967.84;
    }
}


// ************************************************************************* //
