/*--------------------------------*- C++ -*----------------------------------*\
| =========                 |                                                 |
| \\      /  F ield         | OpenFOAM: The Open Source CFD Toolbox           |
|  \\    /   O peration     | Version:  2306                                  |
|   \\  /    A nd           | Website:  www.openfoam.com                      |
|    \\/     M anipulation  |                                                 |
\*---------------------------------------------------------------------------*/
FoamFile
{
    version     2.0;
    format      ascii;
    arch        "LSB;label=32;scalar=64";
    class       volScalarField;
    location    "0.00124";
    object      prefDh_H2;
}
// * * * * * * * * * * * * * * * * * * * * * * * * * * * * * * * * * * * * * //

dimensions      [1 1 -3 0 0 0 0];

internalField   nonuniform List<scalar> 
531
(
37.5862948
28.1974637
23.8145753
19.2456379
19.4039222
37.0603546
37.3862484
36.8911149
37.417782
35.2378718
19.3476653
18.2576032
37.245344
37.6402175
23.3523029
21.7990889
37.4377481
37.8040183
22.3493648
22.1698845
37.51004
37.8571846
37.7711972
25.1430879
19.6170956
37.6696926
37.8345031
22.3237047
22.3355833
37.7119175
37.944561
37.9683361
29.424919
20.4701019
21.5575474
37.9000699
37.8998719
29.495765
22.0093632
23.301566
38.0273557
38.2286119
38.2510112
29.017662
22.6041293
23.0882954
38.1920752
38.2717138
29.1800777
25.2238643
22.1902523
22.1545153
37.7053192
37.3090526
37.854177
35.0237527
21.5623106
21.9460196
37.8881664
29.2813233
21.7087341
38.1608415
38.31006
26.6190949
23.8282222
38.2294207
38.392312
26.0786573
24.2683802
38.2156867
38.4008983
26.3533449
24.3352385
38.2646073
38.3165105
27.3130926
24.2320425
38.3676517
38.1678855
28.824094
22.8679313
23.1461657
38.251431
38.2869736
29.3272719
24.5719743
20.572693
20.6347273
38.0047321
38.1568206
38.163671
38.2119394
38.1263667
29.305446
25.1943372
21.661086
21.6682126
37.9041768
38.1968131
23.5931822
22.1301527
37.9288651
38.2463245
24.6731457
23.5286558
37.9375131
38.248955
25.7983478
24.5051113
38.022535
38.2276817
26.5554597
24.7749884
38.1735214
38.1650401
27.5207084
24.4908632
38.386611
38.0563954
28.9311327
22.4813351
22.5816444
38.3728771
38.3428452
29.1290479
19.0199179
20.8181069
38.1008085
38.15183
38.0981602
28.0393668
22.6283286
38.2938081
37.9134505
27.5269241
22.9199459
38.2906965
37.8519251
29.3967676
18.1478292
19.8116756
37.7728323
37.8567669
37.776721
24.3481221
19.5256117
38.066487
37.8452934
20.4764227
20.8157338
38.2164664
37.8898655
37.9487831
26.8092254
21.2185771
38.2658247
37.8688415
26.4774597
24.7071184
38.3197224
37.8819279
29.574161
26.5597873
23.0517083
23.0491428
38.1229419
37.9895292
23.4231679
23.7496889
38.322988
38.019193
37.9169539
26.685648
21.7589608
38.6635149
37.5534116
29.1137842
18.8169748
21.1720303
37.6984612
37.8584605
37.6827541
21.9819292
19.490825
38.4253345
37.6648057
27.5694456
23.9488153
19.2758449
19.9082034
38.1649076
37.9277607
37.7319197
38.0029
37.4406088
30.0018766
24.4331724
24.44518
18.4543172
19.556291
37.964724
37.9734744
37.642441
38.0226178
37.5248123
25.5554505
21.5233573
38.7665779
37.7453268
29.472469
20.5719529
21.4930609
38.2838817
37.8707326
29.2997965
17.7008763
19.77351
38.1409817
37.8960261
37.916168
26.0465649
20.0305311
38.4696574
37.9427465
21.7531116
22.6875157
38.2487209
38.1289644
37.537651
29.1791007
19.9888998
21.6069215
38.1117627
38.1455074
27.7650711
25.0467413
38.5508594
37.970014
29.4456736
26.1078444
23.3497213
22.964311
38.5772659
37.7835196
29.5673239
17.3323296
19.0605146
37.8070713
37.7906561
37.4726248
37.6236962
37.4002117
32.2262414
21.600397
21.6336692
38.5463325
38.0160866
29.519872
20.3939118
21.1485349
38.5510208
38.1398237
29.1521778
19.8081741
21.2999697
38.4052702
38.2301171
38.1831239
29.3708355
25.3558338
38.7802962
38.1885513
29.076632
26.6016432
21.8282218
21.9865893
38.4462411
38.1444309
38.1736778
38.1529971
28.9899324
23.4707896
24.9606455
19.6458101
20.2838175
38.2905932
38.1821227
38.0279462
29.3558624
26.0256434
38.4066585
38.0836645
29.268542
27.077375
21.1278409
21.2475826
37.8124488
38.0257801
37.4744613
38.1331159
23.0170614
21.5564663
37.7021177
38.0356468
37.238145
29.2774291
19.5972722
20.5989935
36.7299958
37.5990744
35.2679799
25.1962834
21.9143983
15.9437239
16.0715228
37.2766447
37.6016226
37.231254
37.8047121
37.6799087
24.9102172
19.9848223
37.8364545
37.7532679
28.8861524
23.8376541
19.5421946
19.586172
37.62534
37.8322179
37.687036
37.8886593
29.4561608
21.6604152
21.757549
38.0147628
38.1550899
29.176792
20.3248206
21.0253282
38.0139416
38.2519042
38.1719702
29.4269594
24.4014182
38.0440362
38.2075825
29.3633994
24.7239497
19.2807921
19.324065
37.6273545
38.2427192
37.7891225
38.4431788
38.3095897
28.0236041
21.8483092
14.0642484
14.2302461
37.4731616
38.5811599
37.9870835
38.985742
38.8802334
20.2485311
16.5970288
38.8936333
40.1283761
39.85161
26.2658976
18.8782035
40.5346657
41.6447995
22.5032722
19.8413348
40.4460005
42.5726946
41.9496967
21.4604015
17.4666237
38.9928183
41.2345001
40.2408293
18.439821
14.1590842
37.2066658
39.1130235
38.2494061
38.9311565
38.5118397
38.8929735
38.6622758
38.9928038
38.8771674
39.2677807
39.2703486
39.8537522
40.1321925
41.186555
42.0740544
44.9636414
48.5814684
45.6300865
44.1740249
41.3990677
40.1268798
37.9109818
36.9194368
35.332627
34.6819183
32.7811728
31.758966
31.3899891
31.7546118
30.0418857
29.4387815
28.2323692
27.8929216
27.2356582
26.85713
24.4340235
22.0839581
20.041663
17.3435278
15.7067965
12.7292204
21.4206407
40.1941073
36.9535594
31.7410891
28.2225873
22.9638231
19.0465095
13.525988
9.07781903
2.52852332
1.67249942
1.67501494
1.67723983
1.6798164
1.68233079
1.68484692
1.68767878
39.8925381
44.0972534
55.6018929
58.479603
124.900357
161.618495
208.115
241.075877
282.793721
317.105062
367.292051
410.620568
474.615187
528.427357
606.082956
667.961264
756.905188
823.733907
920.545529
989.48493
1086.49818
1152.22055
1246.69592
1318.80866
1417.95961
1480.87491
1571.72405
1628.05641
1711.89394
1763.46494
1841.37991
1883.82059
1948.21052
1979.24612
2038.81771
2065.08542
2120.28553
2142.22043
2193.25971
2212.32688
2259.66715
2271.23386
2312.74588
2332.86807
2389.65613
2378.34125
2420.72444
2437.31968
2518.71546
2508.51003
2583.77577
2537.11872
2597.44303
2626.18068
2700.04833
2607.7443
2692.1423
2737.76634
2747.35067
2690.83507
2746.3921
2785.45054
2810.01591
2766.32178
2798.47408
2843.56255
2859.36314
2820.89504
2844.58478
2892.71416
2899.86379
2863.33227
2881.47915
2924.2978
2932.21155
2897.0379
2911.17514
2951.08134
2957.83397
2924.62881
2935.42142
2975.3848
2979.5652
2947.41859
2956.07922
2998.46026
2999.08998
)
;

boundaryField
{
    closed
    {
        type            calculated;
        value           nonuniform List<scalar> 0();
    }
    open
    {
        type            calculated;
        value           nonuniform List<scalar> 0();
    }
    sides
    {
        type            empty;
    }
    procBoundary4to3
    {
        type            processor;
        value           uniform 37.6779014;
    }
    procBoundary4to5
    {
        type            processor;
        value           uniform 2967.8483;
    }
}


// ************************************************************************* //
