/*--------------------------------*- C++ -*----------------------------------*\
| =========                 |                                                 |
| \\      /  F ield         | OpenFOAM: The Open Source CFD Toolbox           |
|  \\    /   O peration     | Version:  2306                                  |
|   \\  /    A nd           | Website:  www.openfoam.com                      |
|    \\/     M anipulation  |                                                 |
\*---------------------------------------------------------------------------*/
FoamFile
{
    version     2.0;
    format      ascii;
    arch        "LSB;label=32;scalar=64";
    class       volScalarField;
    location    "0.00188";
    object      prefDZ_H;
}
// * * * * * * * * * * * * * * * * * * * * * * * * * * * * * * * * * * * * * //

dimensions      [1 -1 -1 0 0 0 0];

internalField   nonuniform List<scalar> 
531
(
0.000110147991
0.000110115075
0.000106191819
0.000105873585
0.000110057087
0.000110057186
0.000110033164
0.000110067858
0.000105835554
0.000104936379
0.000110164032
0.00011002337
0.000107859002
0.000105085039
0.000105650756
0.000109991845
0.000108433052
0.000104685332
0.000106739617
0.000110101444
0.000110297909
0.000110140711
0.000110317052
0.000110184091
0.000107633689
0.000106641341
0.000104975563
0.000105010233
0.000110143789
0.000110148624
0.000106126927
0.000106183777
0.000110171497
0.000110180882
0.000110145969
0.000107939435
0.000106897152
0.000105518013
0.00010551971
0.000110152362
0.000110198991
0.000106450471
0.000105920616
0.000110242135
0.000110245442
0.000106720204
0.000106024486
0.000110347041
0.000110274762
0.000107770259
0.000106041279
0.000107096821
0.000110306815
0.000110329452
0.000110325014
0.00010780642
0.000107278893
0.00011035639
0.000110345652
0.000107266568
0.000107313944
0.000110323437
0.000107796657
0.000105805043
0.000110291556
0.000110230394
0.000110217746
0.000108052016
0.000106947727
0.000105630065
0.000105627718
0.000110209509
0.000110148814
0.000107885161
0.000104499477
0.00010463922
0.00011013189
0.000110239342
0.000106430614
0.000105707157
0.000110193684
0.000110274223
0.000106051037
0.000106066252
0.000110264401
0.000110346857
0.000110209932
0.0001077665
0.000106006408
0.000107337566
0.000110186426
0.000110311188
0.00011021292
0.000110285811
0.000107874861
0.000105505963
0.000105535429
0.000110252177
0.000110154796
0.0001078659
0.000105355172
0.000106105585
0.000110174113
0.00010788274
0.000105338101
0.000110246985
0.000110167266
0.000106473413
0.000106496927
0.000110196036
0.000110176355
0.000110149865
0.000108127759
0.000106992096
0.000105406042
0.000105419436
0.000110181026
0.000110194617
0.000106479214
0.00010653452
0.000110254855
0.000107764435
0.000104981342
0.00011026901
0.000110207013
0.000110246332
0.000107252974
0.000106143272
0.000110241177
0.000110222582
0.000110208542
0.000107870078
0.000106773606
0.000110308091
0.000110180112
0.000107834028
0.000107449454
0.000105909803
0.000105957271
0.000110221763
0.000107264389
0.000105090737
0.000110229897
0.000110184392
0.000110181269
0.000107508077
0.000105463131
0.000110214188
0.000109969934
0.000104934795
0.000105803592
0.000110269171
0.000110157865
0.00010803927
0.000106180921
0.000107300277
0.000110301936
0.000110359364
0.000110273625
0.000110366465
0.000110249429
0.000107859667
0.000106838336
0.00010529442
0.00010547301
0.000110228654
0.000107818835
0.000104648272
0.0001102987
0.000110162916
0.000106855516
0.000105856372
0.000110343271
0.000110224345
0.000107807453
0.000106738785
0.000106132996
0.000106330549
0.00011028363
0.000110274981
0.000110273214
0.000107805141
0.000106848064
0.000110410509
0.000110311347
0.000107788325
0.000106955083
0.000106123438
0.000106331069
0.000110242595
0.000109971916
0.000110210124
0.000110059605
0.000107601794
0.000104486234
0.000105077547
0.000110098246
0.000110211214
0.000106651729
0.000106003562
0.000110264824
0.000110213651
0.000106740779
0.000106173444
0.000110382449
0.000110161777
0.000107758297
0.000105927387
0.000107338842
0.000110184779
0.000110366403
0.000110208389
0.000110376683
0.000110256294
0.000107798757
0.000106482913
0.000106576703
0.000106239654
0.000105313478
0.000107235235
0.000110285544
0.000110434532
0.000107304019
0.000106611884
0.000110356242
0.000110329414
0.000110282205
0.000107211248
0.000106221485
0.000110370557
0.000110164508
0.000107821637
0.000105221789
0.000105340015
0.000110257721
0.000110204206
0.000107145599
0.00010621599
0.000110312006
0.000110162161
0.000107869301
0.000105569194
0.000105605828
0.000110309823
0.000110131804
0.000107844662
0.000105275957
0.000105508911
0.00011020172
0.000110209681
0.000106943846
0.000107010559
0.000110277625
0.00010789787
0.000105470472
0.000110337452
0.000110227366
0.000106920247
0.000106464722
0.00011031547
0.00011024695
0.000107264305
0.000106967218
0.000110345513
0.000110221337
0.000107838257
0.000107313849
0.000105313159
0.000105391348
0.00011027436
0.000110213353
0.000110243068
0.00010791024
0.00010617606
0.000110309188
0.000110253629
0.000107088527
0.00010659914
0.000110280477
0.000110308492
0.000106911268
0.000106659727
0.000110280775
0.000110304364
0.000106651992
0.000106760923
0.00011033433
0.000110280069
0.000110240142
0.000107849429
0.000106963149
0.000105066446
0.000105127201
0.000110208078
0.000110175688
0.000110132513
0.000107898234
0.000104140643
0.000104788294
0.000110109451
0.000110181773
0.000110089597
0.00010679714
0.000104982717
0.000110368997
0.00010996249
0.000107747165
0.000109874889
0.000110366682
0.000106886877
0.000106918538
0.000110230727
0.000110240006
0.000107927662
0.000107052539
0.000104948001
0.000104992328
0.000110200901
0.000110112438
0.000110201493
0.00010724532
0.000106454454
0.000110089838
0.000108333752
0.000104055902
0.000107571963
0.000109995509
0.000110264726
0.000110007737
0.000110242294
0.000105664524
0.000104830333
0.000110204835
0.000110091562
0.00010792179
0.000105139699
0.000105185458
0.000110223277
0.000110135275
0.000107879374
0.000104673796
0.000105017159
0.000110158304
0.000110171641
0.000110154737
0.00010755501
0.000106248861
0.00011027472
0.000110124712
0.000107864666
0.000105151174
0.000105349419
0.000110188885
0.000110186983
0.0001101719
0.000107581092
0.000106516834
0.000110273291
0.000110136088
0.000107887635
0.000105736553
0.00010575121
0.000110250812
0.000110167368
0.000107871071
0.000105520635
0.000105531494
0.000110273349
0.000110145946
0.000107842334
0.000105297594
0.000105371699
0.000110238441
0.000110245772
0.000107338752
0.000106566921
0.00011035669
0.000110226494
0.000107750157
0.000106931685
0.000106986412
0.000105606498
0.000107347089
0.000110017993
0.000110331057
0.000109866039
0.000110250454
0.000109942618
0.000105756724
0.000105333507
0.000110174223
0.000110180281
0.000107004765
0.00010648131
0.00011021289
0.000110228863
0.000107404326
0.000106552094
0.000110280874
0.000110169019
0.00010785728
0.00010550514
0.00010555361
0.000110235716
0.000110207031
0.000107395691
0.00010628459
0.000110253892
0.000110150322
0.000107877492
0.00010525317
0.000105256823
0.000110267058
0.00011013971
0.000107848265
0.000110161825
0.000110268531
0.000107908073
0.000106025336
0.000106051252
0.000110264595
0.000110154691
0.00010785592
0.000105381967
0.000105398669
0.000110239387
0.000110166389
0.000107869605
0.000104544468
0.000104748365
0.000110154597
0.000110162611
0.000110156327
0.000107366654
0.000106413173
0.000110131749
0.000110108268
0.000110068883
0.00010841213
0.000105017827
0.000105068066
0.00011018201
0.00011019628
0.000110174357
0.000107870975
0.0001069805
0.000110284942
0.000110250017
0.000107864259
0.000107610414
0.000106054418
0.000106078767
0.000110190183
0.000110282788
0.000107441422
0.000106816443
0.00011022218
0.000110263319
0.000107906466
0.000107237976
0.000105530125
0.000105565065
0.000110118196
0.000110247365
0.000106659466
0.000106131865
0.000110124753
0.000110248975
0.00010644799
0.000106429827
0.000110166211
0.000110215621
0.000110176196
0.000107246311
0.000106147177
0.000110209199
0.000110178566
0.000107237106
0.000105789466
0.000110215315
0.000110114061
0.000107884869
0.000103704766
0.000103940479
0.000110058967
0.000110174319
0.000110096218
0.000110199129
0.000110173722
0.000107843594
0.000107574555
0.000110185075
0.000107871757
0.000105810138
0.000110176677
0.000110187718
0.000110110333
0.000107972304
0.000106426114
0.000106589257
0.000104673178
0.000104742581
0.000110058377
0.000110177049
0.000106138856
0.000106071795
0.000110102222
0.000110168146
0.000110138384
0.000107415154
0.00010629014
0.000110130307
0.000110189649
0.00010686483
0.000106824675
0.000110099505
0.000110153129
0.000110085709
0.000108295393
0.000107357298
0.000105643624
0.000105645637
0.000110179456
0.000110117708
0.000107873352
0.000104732293
0.000104937574
0.000110068914
0.000110231448
0.000110068074
0.000107848392
)
;

boundaryField
{
    closed
    {
        type            calculated;
        value           nonuniform List<scalar> 0();
    }
    open
    {
        type            calculated;
        value           nonuniform List<scalar> 0();
    }
    sides
    {
        type            empty;
    }
    procBoundary1to0
    {
        type            processor;
        value           uniform 0.000105441794;
    }
    procBoundary1to2
    {
        type            processor;
        value           uniform 0.00010502848;
    }
}


// ************************************************************************* //
