/*--------------------------------*- C++ -*----------------------------------*\
| =========                 |                                                 |
| \\      /  F ield         | OpenFOAM: The Open Source CFD Toolbox           |
|  \\    /   O peration     | Version:  2306                                  |
|   \\  /    A nd           | Website:  www.openfoam.com                      |
|    \\/     M anipulation  |                                                 |
\*---------------------------------------------------------------------------*/
FoamFile
{
    version     2.0;
    format      ascii;
    arch        "LSB;label=32;scalar=64";
    class       volScalarField;
    location    "0.00088";
    object      sourcePV;
}
// * * * * * * * * * * * * * * * * * * * * * * * * * * * * * * * * * * * * * //

dimensions      [1 -3 -1 0 0 0 0];

internalField   nonuniform List<scalar> 
530
(
0.0695467499
0.081674901
0.0815784069
0.0815340614
0.0815305034
0.0815304451
0.0815304429
0.0815304428
0.0815304428
0.0815304428
0.0815304428
0.0815304428
0.0815304428
0.0815304428
0.0815304428
0.0815304428
0.0815304428
0.0815304428
0.0815304428
0.0815304428
0.0815304428
0.0815304428
0.0815304428
0.0815304428
0.0815304428
0.0815304428
0.0815304428
0.0815304428
0.0815304428
0.0815304428
0.0815304428
0.0815304428
0.0815304428
0.0815304428
0.0815304428
0.0815304428
0.0815304428
0.0815304428
0.0815304428
0.0815304428
0.0815304428
0.0815304428
0.0815304428
0.0815304428
0.0815304428
0.0815304428
0.0815304428
0.0815304428
0.0815304428
0.0815304428
0.0815304428
0.0815304428
0.0815304428
0.0815304428
0.0815304428
0.0815304428
0.0815304428
0.0815304428
0.0815304428
0.0815304428
0.0815304428
0.0815304428
0.0815304428
0.0815304428
0.0815304428
0.0815304428
0.0815304429
0.081530443
0.0815304432
0.0815304446
0.0815304471
0.0815304539
0.0815304575
0.0815305225
0.0815306582
0.0815306729
0.0815306765
0.0815325161
0.0815306141
0.0815234026
0.0815823092
0.0816855321
0.0812370757
0.0802907531
0.0826381852
0.0888576462
0.0812382453
0.0651547842
0.0815907401
0.136246006
0.117505143
0.00637340449
0.00564533065
0.14597004
0.171730867
0.122247111
0.00570023988
0.00637137322
0.00549043207
0.153230894
0.158452626
0.158430751
0.132202611
0.00607823633
0.00618710593
0.00612323193
0.00585528621
0.150112847
0.150002389
0.146604906
0.126639585
0.00629795183
0.00631512119
0.144574713
0.146588713
0.13508873
0.145386031
0.105726362
0.00631456885
0.00629561425
0.00631715022
0.00583207897
0.144218968
0.165902219
0.131042018
0.00587990656
0.00606343181
0.158353558
0.164285041
0.141381403
0.00592863357
0.00592918087
0.153936319
0.149696218
0.00609934732
0.00576685396
0.154114679
0.150825197
0.00613912727
0.00576172091
0.152756013
0.146315561
0.00611812391
0.00573050813
0.157205427
0.165266203
0.139576456
0.00586798835
0.00604855535
0.152176947
0.145666969
0.00615164335
0.0059345383
0.149012197
0.142506246
0.00619238064
0.00587239433
0.153668293
0.160396399
0.135770698
0.00598795295
0.00618054159
0.147884628
0.140959773
0.00625259507
0.00604595836
0.145389215
0.138719302
0.00629120529
0.00590565326
0.149321824
0.158361051
0.130004283
0.00587313039
0.0061454074
0.153091669
0.150032812
0.151660612
0.135843489
0.00608255128
0.00616812655
0.148514195
0.141183973
0.00620763712
0.00605101707
0.147693725
0.139813271
0.00619557036
0.0059075677
0.153253176
0.159881696
0.13475272
0.00595049199
0.00625291493
0.147664906
0.136867361
0.00611332656
0.00598592672
0.150692274
0.159198263
0.132699815
0.00589450216
0.00602296894
0.157628616
0.162588736
0.139245646
0.00584500445
0.0060049191
0.154977706
0.149007562
0.00599247078
0.0057924962
0.155018018
0.153004915
0.00599988467
0.00568599201
0.157323541
0.155171207
0.00597575666
0.0056282167
0.158766883
0.156355456
0.00596190518
0.00560551157
0.159186995
0.156427688
0.00596819059
0.00561289141
0.158653408
0.155363885
0.00599764698
0.00564922143
0.156976935
0.152667122
0.00602868186
0.00571839101
0.156002885
0.148023053
0.0059686861
0.00564596026
0.162655106
0.170186855
0.141023535
0.00575673387
0.00607598957
0.154705913
0.145689853
0.00606413935
0.00597924716
0.149967147
0.142308016
0.00611061753
0.00585689295
0.155674055
0.162761214
0.134803815
0.00595666516
0.00626922945
0.149706973
0.137323134
0.00615143902
0.00601211846
0.151921731
0.158527575
0.131825833
0.00602300557
0.00637340307
0.147073931
0.136612755
0.00616440851
0.0060764348
0.149913391
0.149533904
0.148175477
0.13208922
0.0062924644
0.00634903383
0.1429241
0.13397234
0.00637375147
0.00616085398
0.145642234
0.153714797
0.119410754
0.00610083533
0.00652941311
0.00606048203
0.146449348
0.148668011
0.14464417
0.130060945
0.0062972456
0.0062647056
0.147161518
0.152552049
0.123870187
0.00616704047
0.00641232176
0.144629746
0.149047825
0.121134778
0.00619994312
0.00634940856
0.144779492
0.151687938
0.124697286
0.00607063468
0.00629003766
0.150033862
0.155805464
0.133089529
0.00602177084
0.00635957151
0.148516767
0.140361785
0.0060760541
0.0059636982
0.156774688
0.165974777
0.140114184
0.00575484494
0.00630678264
0.156933263
0.142813979
0.00584852937
0.00595919429
0.00577591717
0.00574551132
0.16547705
0.166155702
0.160881741
0.148763598
0.00591041698
0.00598202845
0.155203097
0.151508092
0.00606765105
0.00597722939
0.152548318
0.146712769
0.00606619078
0.00585613279
0.157514399
0.164613103
0.139363189
0.00587963408
0.00631529157
0.148831367
0.14301839
0.00624005647
0.00625477436
0.14241338
0.137528269
0.00634497715
0.00618396403
0.143719253
0.150243735
0.122449091
0.00608184818
0.00639066471
0.147660066
0.151758902
0.13905892
0.152739312
0.124096703
0.00609558826
0.00628187298
0.00619315819
0.00596087052
0.14357292
0.159201132
0.126869039
0.00582307253
0.00624103318
0.157054416
0.160463484
0.14795389
0.162590994
0.135864683
0.00582240536
0.00607080899
0.0059512338
0.00591684324
0.151594785
0.149806254
0.00599221091
0.00589767885
0.155989681
0.16435085
0.140095766
0.00581522584
0.00623832707
0.149737382
0.143304382
0.00601548712
0.00594421519
0.153808258
0.164142784
0.138487929
0.00560850086
0.0063677727
0.164161115
0.138050668
0.00577673421
0.153133928
0.147929483
0.00570653422
0.00602009376
0.00573569759
0.157802935
0.150643935
0.0056372522
0.00602467989
0.00554063922
0.154478458
0.168463267
0.147327436
0.161408768
0.138589232
0.00576376229
0.00629386659
0.154688179
0.139653848
0.00574167898
0.00624259209
0.00575536979
0.148116801
0.15184634
0.00600574295
0.00573806826
0.158176739
0.169114682
0.143768891
0.0056577137
0.00620437182
0.158045167
0.143855243
0.00571831515
0.0061499066
0.00559054339
0.152042839
0.170666516
0.138678136
0.00576294369
0.00610928337
0.152731942
0.156621438
0.134684254
0.00600648532
0.00615934187
0.146291581
0.152513897
0.131812464
0.00600709095
0.00620491466
0.147901416
0.154593536
0.135645734
0.00596003842
0.00607277842
0.152393645
0.162858327
0.137648378
0.00588901603
0.0060246261
0.00596197583
0.0057408846
0.152459428
0.167982526
0.140871902
0.00572341083
0.00595840127
0.159608231
0.166988882
0.146546533
0.00579074333
0.00601902227
0.155004742
0.152111768
0.00601826149
0.00589387817
0.15317961
0.151275311
0.00609457464
0.00590332798
0.152329279
0.148844344
0.00607911999
0.0057989024
0.156117405
0.164060537
0.144277778
0.00585383329
0.00612467262
0.150692528
0.147252122
0.00612769602
0.00601072606
0.14910297
0.146296344
0.00614434596
0.00587664776
0.154877179
0.162892878
0.144144439
0.00592538653
0.00618368872
0.150096719
0.146756965
0.00620803054
0.00612250791
0.147047871
0.143951908
0.00626711336
0.00608937316
0.14988222
0.154505197
0.139683619
0.00625764803
0.00618135693
0.138307352
0.159060875
0.101261956
0.00609560739
0.132307686
0.143510205
0.00660269046
0.00620619288
0.139565179
0.140960873
)
;

boundaryField
{
    closed
    {
        type            calculated;
        value           uniform 0;
    }
    open
    {
        type            calculated;
        value           nonuniform List<scalar> 0();
    }
    sides
    {
        type            empty;
    }
    procBoundary0to1
    {
        type            processor;
        value           uniform 0;
    }
}


// ************************************************************************* //
