/*--------------------------------*- C++ -*----------------------------------*\
| =========                 |                                                 |
| \\      /  F ield         | OpenFOAM: The Open Source CFD Toolbox           |
|  \\    /   O peration     | Version:  2306                                  |
|   \\  /    A nd           | Website:  www.openfoam.com                      |
|    \\/     M anipulation  |                                                 |
\*---------------------------------------------------------------------------*/
FoamFile
{
    version     2.0;
    format      ascii;
    arch        "LSB;label=32;scalar=64";
    class       volScalarField;
    location    "0.00174";
    object      prefDZ_T;
}
// * * * * * * * * * * * * * * * * * * * * * * * * * * * * * * * * * * * * * //

dimensions      [1 -1 -1 -1 0 0 0];

internalField   nonuniform List<scalar> 
531
(
-1.18719533e-09
-1.19043213e-09
-1.22924322e-09
-1.22832132e-09
-1.20252184e-09
-1.18728911e-09
-1.18769806e-09
-1.19039994e-09
-1.21905169e-09
-1.22814215e-09
-1.21357895e-09
-1.18736282e-09
-1.18953058e-09
-1.22989247e-09
-1.22918108e-09
-1.20390888e-09
-1.18763955e-09
-1.18951474e-09
-1.23052575e-09
-1.22895998e-09
-1.20531973e-09
-1.18753037e-09
-1.18934684e-09
-1.23052506e-09
-1.2290538e-09
-1.20445943e-09
-1.18748561e-09
-1.1891821e-09
-1.23078203e-09
-1.2289122e-09
-1.20556151e-09
-1.18698139e-09
-1.19039359e-09
-1.22725934e-09
-1.22979e-09
-1.19368721e-09
-1.18822405e-09
-1.19884952e-09
-1.22806009e-09
-1.22771478e-09
-1.22921695e-09
-1.2154033e-09
-1.18636823e-09
-1.18605444e-09
-1.18755151e-09
-1.19178203e-09
-1.22773408e-09
-1.23223196e-09
-1.19028089e-09
-1.19090427e-09
-1.22905835e-09
-1.22925801e-09
-1.19465155e-09
-1.18643113e-09
-1.19117983e-09
-1.22741224e-09
-1.23098628e-09
-1.19042878e-09
-1.19035456e-09
-1.23123693e-09
-1.22818149e-09
-1.20149286e-09
-1.18709956e-09
-1.19103664e-09
-1.22686609e-09
-1.23083636e-09
-1.19029779e-09
-1.19156724e-09
-1.22790388e-09
-1.22811241e-09
-1.19748677e-09
-1.18782873e-09
-1.18817471e-09
-1.18842793e-09
-1.19757495e-09
-1.22624145e-09
-1.22777621e-09
-1.20004037e-09
-1.18806013e-09
-1.18906553e-09
-1.21722602e-09
-1.22690849e-09
-1.23344632e-09
-1.18802031e-09
-1.19100675e-09
-1.22736821e-09
-1.22799466e-09
-1.20766722e-09
-1.18762774e-09
-1.18738729e-09
-1.18857957e-09
-1.1961808e-09
-1.22612151e-09
-1.22795059e-09
-1.19663367e-09
-1.18800579e-09
-1.19632915e-09
-1.22640536e-09
-1.22935844e-09
-1.18885233e-09
-1.187169e-09
-1.19521688e-09
-1.22677584e-09
-1.22599429e-09
-1.22928473e-09
-1.20368801e-09
-1.18574613e-09
-1.18598482e-09
-1.19570411e-09
-1.2272079e-09
-1.22953306e-09
-1.18851124e-09
-1.18759621e-09
-1.20050451e-09
-1.226873e-09
-1.22948285e-09
-1.18869536e-09
-1.18781791e-09
-1.19927748e-09
-1.22681311e-09
-1.23193334e-09
-1.18934963e-09
-1.19588796e-09
-1.22630173e-09
-1.23010487e-09
-1.18782996e-09
-1.18759016e-09
-1.20172761e-09
-1.2272294e-09
-1.2301144e-09
-1.18749627e-09
-1.18724584e-09
-1.2014139e-09
-1.22738028e-09
-1.23069697e-09
-1.18712462e-09
-1.18723219e-09
-1.20026075e-09
-1.22804828e-09
-1.2329497e-09
-1.1871958e-09
-1.19072506e-09
-1.22775818e-09
-1.23072392e-09
-1.18856907e-09
-1.18704854e-09
-1.19811477e-09
-1.22748917e-09
-1.23335521e-09
-1.18877414e-09
-1.19493391e-09
-1.22713211e-09
-1.23308424e-09
-1.18702447e-09
-1.18744878e-09
-1.20088701e-09
-1.22728241e-09
-1.23329222e-09
-1.18942953e-09
-1.19645462e-09
-1.22694405e-09
-1.23326363e-09
-1.18739313e-09
-1.18782656e-09
-1.20271585e-09
-1.2270486e-09
-1.23325515e-09
-1.18992484e-09
-1.19898479e-09
-1.22662904e-09
-1.23182136e-09
-1.18724684e-09
-1.1875928e-09
-1.18874428e-09
-1.18833051e-09
-1.20056073e-09
-1.22717046e-09
-1.23390075e-09
-1.1890436e-09
-1.19623521e-09
-1.22710891e-09
-1.23387764e-09
-1.18716825e-09
-1.18772082e-09
-1.2046141e-09
-1.22749918e-09
-1.23026828e-09
-1.18962137e-09
-1.19742575e-09
-1.22709483e-09
-1.23402122e-09
-1.18704823e-09
-1.1875528e-09
-1.20589987e-09
-1.22763846e-09
-1.2244827e-09
-1.18954673e-09
-1.19877027e-09
-1.22722503e-09
-1.22514419e-09
-1.18731163e-09
-1.18768154e-09
-1.20762157e-09
-1.22760422e-09
-1.22015209e-09
-1.18979791e-09
-1.20041234e-09
-1.22716346e-09
-1.22193107e-09
-1.18816372e-09
-1.18845793e-09
-1.20875326e-09
-1.22750457e-09
-1.23143389e-09
-1.18823705e-09
-1.1884319e-09
-1.21233317e-09
-1.22720329e-09
-1.23105805e-09
-1.18774634e-09
-1.18788966e-09
-1.1895857e-09
-1.2032787e-09
-1.2270985e-09
-1.2272604e-09
-1.1878235e-09
-1.18810411e-09
-1.20691091e-09
-1.22744145e-09
-1.23280143e-09
-1.18818206e-09
-1.18834849e-09
-1.20683232e-09
-1.22736082e-09
-1.23225712e-09
-1.18814125e-09
-1.1882702e-09
-1.2060657e-09
-1.22745004e-09
-1.23370229e-09
-1.18775553e-09
-1.18787767e-09
-1.20610108e-09
-1.22725916e-09
-1.22118316e-09
-1.18999759e-09
-1.20034438e-09
-1.22664754e-09
-1.22783488e-09
-1.18843304e-09
-1.18872024e-09
-1.2053409e-09
-1.22731776e-09
-1.23459867e-09
-1.18840845e-09
-1.18823677e-09
-1.20532608e-09
-1.22738959e-09
-1.22999642e-09
-1.18746778e-09
-1.18720737e-09
-1.20625393e-09
-1.22720361e-09
-1.22786612e-09
-1.20552767e-09
-1.18551063e-09
-1.18581655e-09
-1.18811261e-09
-1.20010336e-09
-1.22739081e-09
-1.21737542e-09
-1.18918117e-09
-1.19994445e-09
-1.22670913e-09
-1.2191876e-09
-1.18988351e-09
-1.20172591e-09
-1.22680879e-09
-1.22152865e-09
-1.18817636e-09
-1.18858287e-09
-1.20594025e-09
-1.22754319e-09
-1.22423258e-09
-1.18754628e-09
-1.18763095e-09
-1.2047339e-09
-1.22738539e-09
-1.21965494e-09
-1.18947911e-09
-1.2001784e-09
-1.22660789e-09
-1.21909308e-09
-1.18984089e-09
-1.20214893e-09
-1.22689332e-09
-1.22000388e-09
-1.18810094e-09
-1.18861582e-09
-1.20670231e-09
-1.22753275e-09
-1.22473384e-09
-1.18809508e-09
-1.1882446e-09
-1.2064899e-09
-1.22765562e-09
-1.22466403e-09
-1.18795808e-09
-1.18812613e-09
-1.20578295e-09
-1.22779098e-09
-1.22569342e-09
-1.18740485e-09
-1.18751974e-09
-1.20415874e-09
-1.227534e-09
-1.22215762e-09
-1.18957146e-09
-1.19894475e-09
-1.2270007e-09
-1.23150133e-09
-1.18709811e-09
-1.18759424e-09
-1.2211584e-09
-1.23040138e-09
-1.19080344e-09
-1.19665091e-09
-1.22689213e-09
-1.22637799e-09
-1.18663879e-09
-1.18693658e-09
-1.19994927e-09
-1.22757727e-09
-1.23230393e-09
-1.18914922e-09
-1.19487584e-09
-1.22643774e-09
-1.23310251e-09
-1.18993608e-09
-1.19799052e-09
-1.22653931e-09
-1.23319116e-09
-1.18804551e-09
-1.18868869e-09
-1.18944754e-09
-1.20134558e-09
-1.22671289e-09
-1.23113267e-09
-1.18699835e-09
-1.1872477e-09
-1.21784359e-09
-1.23442769e-09
-1.19046909e-09
-1.19357298e-09
-1.22606886e-09
-1.23472043e-09
-1.18878976e-09
-1.19435426e-09
-1.22686806e-09
-1.23282247e-09
-1.18623733e-09
-1.18665973e-09
-1.19606253e-09
-1.22756671e-09
-1.23335732e-09
-1.18852228e-09
-1.19191684e-09
-1.22653444e-09
-1.23311264e-09
-1.18882321e-09
-1.19409737e-09
-1.22661227e-09
-1.23122325e-09
-1.18701943e-09
-1.18739274e-09
-1.19673573e-09
-1.22686981e-09
-1.23233702e-09
-1.18993478e-09
-1.1960534e-09
-1.22603478e-09
-1.23037089e-09
-1.18864088e-09
-1.18883129e-09
-1.1891122e-09
-1.19819577e-09
-1.22600671e-09
-1.22981947e-09
-1.18888298e-09
-1.18805454e-09
-1.19896186e-09
-1.22652502e-09
-1.22985283e-09
-1.18872857e-09
-1.18769958e-09
-1.19834788e-09
-1.22634372e-09
-1.22977722e-09
-1.18923826e-09
-1.18810141e-09
-1.19729007e-09
-1.2268043e-09
-1.22994332e-09
-1.18853613e-09
-1.18738146e-09
-1.18793918e-09
-1.19200593e-09
-1.22583771e-09
-1.22537019e-09
-1.23060911e-09
-1.19108718e-09
-1.18642246e-09
-1.20122792e-09
-1.23127089e-09
-1.19123956e-09
-1.19203859e-09
-1.22650463e-09
-1.23013516e-09
-1.18886263e-09
-1.18738592e-09
-1.19352939e-09
-1.22671571e-09
-1.2293277e-09
-1.19272901e-09
-1.18696999e-09
-1.19874048e-09
-1.23055296e-09
-1.19100694e-09
-1.18986539e-09
-1.22721079e-09
-1.23211652e-09
-1.18922453e-09
-1.19006955e-09
-1.22750779e-09
-1.23135863e-09
-1.18998225e-09
-1.19158898e-09
-1.22723372e-09
-1.22887757e-09
-1.19079823e-09
-1.18777523e-09
-1.19076328e-09
-1.22687874e-09
-1.22818835e-09
-1.19372676e-09
-1.18785131e-09
-1.19047012e-09
-1.22685818e-09
-1.22786652e-09
-1.19454262e-09
-1.18774108e-09
-1.18969154e-09
-1.22696325e-09
-1.22793321e-09
-1.19299118e-09
-1.18725129e-09
-1.18907689e-09
-1.22711666e-09
-1.22781079e-09
-1.19305913e-09
-1.18709202e-09
-1.18871961e-09
-1.22719742e-09
-1.22771865e-09
-1.19264949e-09
-1.18685538e-09
-1.18776083e-09
-1.22716398e-09
-1.22686921e-09
-1.19053679e-09
-1.18960556e-09
-1.22716494e-09
-1.22702865e-09
-1.19331085e-09
-1.18708477e-09
-1.18874566e-09
-1.22787894e-09
-1.22564846e-09
-1.22707972e-09
-1.19654709e-09
-1.18872709e-09
-1.18780624e-09
-1.18793245e-09
-1.22784733e-09
-1.22734591e-09
-1.192803e-09
-1.186635e-09
-1.18663649e-09
-1.22817478e-09
-1.22665831e-09
-1.19087266e-09
-1.18900046e-09
-1.22847101e-09
-1.22693963e-09
-1.19328692e-09
-1.18704025e-09
-1.18668316e-09
-1.22864925e-09
-1.22655477e-09
-1.19154044e-09
-1.18903838e-09
-1.22962268e-09
-1.22600578e-09
-1.19158063e-09
-1.18962947e-09
-1.22959946e-09
-1.22650391e-09
-1.19653691e-09
-1.1880172e-09
-1.18786239e-09
-1.22972978e-09
-1.22692024e-09
-1.19914059e-09
-1.1879453e-09
-1.18778935e-09
-1.23019666e-09
-1.22692919e-09
-1.1994412e-09
-1.1880065e-09
-1.18779485e-09
-1.23068257e-09
-1.22691015e-09
-1.19985232e-09
-1.18809783e-09
-1.18786718e-09
-1.23114732e-09
-1.22690634e-09
-1.20044812e-09
-1.18819658e-09
-1.18794307e-09
-1.23156178e-09
)
;

boundaryField
{
    closed
    {
        type            calculated;
        value           nonuniform List<scalar> 0();
    }
    open
    {
        type            calculated;
        value           nonuniform List<scalar> 0();
    }
    sides
    {
        type            empty;
    }
    procBoundary1to0
    {
        type            processor;
        value           uniform -1.19739806e-09;
    }
    procBoundary1to2
    {
        type            processor;
        value           uniform -1.22690487e-09;
    }
}


// ************************************************************************* //
