/*--------------------------------*- C++ -*----------------------------------*\
| =========                 |                                                 |
| \\      /  F ield         | OpenFOAM: The Open Source CFD Toolbox           |
|  \\    /   O peration     | Version:  2306                                  |
|   \\  /    A nd           | Website:  www.openfoam.com                      |
|    \\/     M anipulation  |                                                 |
\*---------------------------------------------------------------------------*/
FoamFile
{
    version     2.0;
    format      ascii;
    arch        "LSB;label=32;scalar=64";
    class       volScalarField;
    location    "0.00086";
    object      prefDZ_H2O;
}
// * * * * * * * * * * * * * * * * * * * * * * * * * * * * * * * * * * * * * //

dimensions      [1 -1 -1 0 0 0 0];

internalField   nonuniform List<scalar> 
530
(
-7.73136576e-07
-7.41411858e-07
-7.37205048e-07
-7.38008511e-07
-7.36762148e-07
-7.36748903e-07
-7.73921425e-07
-7.73028553e-07
-7.37896835e-07
-7.36985927e-07
-7.7445551e-07
-7.73167183e-07
-7.37618181e-07
-7.36671861e-07
-7.742664e-07
-7.73597449e-07
-7.38372162e-07
-7.35579917e-07
-7.36871149e-07
-7.74409714e-07
-7.72693838e-07
-7.73240992e-07
-7.40562952e-07
-7.36106788e-07
-7.37677883e-07
-7.35631836e-07
-7.36712654e-07
-7.74376725e-07
-7.72899567e-07
-7.73216412e-07
-7.38636867e-07
-7.35897771e-07
-7.3630536e-07
-7.73948719e-07
-7.73581074e-07
-7.38867121e-07
-7.35346524e-07
-7.36876183e-07
-7.74394112e-07
-7.72946502e-07
-7.73365408e-07
-7.38913651e-07
-7.35797886e-07
-7.36480602e-07
-7.73857807e-07
-7.73443749e-07
-7.39435161e-07
-7.36433112e-07
-7.37649198e-07
-7.35814215e-07
-7.36818091e-07
-7.74210292e-07
-7.72837133e-07
-7.73084109e-07
-7.40233067e-07
-7.36414683e-07
-7.36941896e-07
-7.73736468e-07
-7.73144826e-07
-7.40103218e-07
-7.36996464e-07
-7.37035946e-07
-7.73542474e-07
-7.73198384e-07
-7.40455809e-07
-7.37023736e-07
-7.36928633e-07
-7.73619806e-07
-7.73104389e-07
-7.40568667e-07
-7.37026986e-07
-7.3734493e-07
-7.73445278e-07
-7.73200079e-07
-7.44384637e-07
-7.37184755e-07
-7.37797199e-07
-7.36401035e-07
-7.36350861e-07
-7.7417233e-07
-7.73243583e-07
-7.37245224e-07
-7.37019346e-07
-7.74862559e-07
-7.73015754e-07
-7.73796963e-07
-7.38910048e-07
-7.34876446e-07
-7.35649048e-07
-7.74340003e-07
-7.74039307e-07
-7.3789612e-07
-7.34518053e-07
-7.35101886e-07
-7.75015959e-07
-7.74023239e-07
-7.74139049e-07
-7.74078679e-07
-7.37680957e-07
-7.34545026e-07
-7.34593753e-07
-7.3446332e-07
-7.75650934e-07
-7.74060365e-07
-7.36410086e-07
-7.35420624e-07
-7.75434148e-07
-7.73946033e-07
-7.36987038e-07
-7.35948853e-07
-7.75002111e-07
-7.74192689e-07
-7.38093403e-07
-7.34912271e-07
-7.35949382e-07
-7.74868155e-07
-7.73296449e-07
-7.73638105e-07
-7.3881804e-07
-7.35981054e-07
-7.36095085e-07
-7.74329556e-07
-7.73942898e-07
-7.38582675e-07
-7.35325112e-07
-7.35444273e-07
-7.74709931e-07
-7.7389668e-07
-7.37365295e-07
-7.35971885e-07
-7.75113762e-07
-7.74282239e-07
-7.37525508e-07
-7.34392599e-07
-7.34358942e-07
-7.75187723e-07
-7.74018562e-07
-7.36808375e-07
-7.35021481e-07
-7.75868485e-07
-7.73982728e-07
-7.36195474e-07
-7.34731367e-07
-7.75983747e-07
-7.74021291e-07
-7.36063658e-07
-7.34860797e-07
-7.75907514e-07
-7.73952356e-07
-7.36485192e-07
-7.35506577e-07
-7.75629617e-07
-7.73852526e-07
-7.37324237e-07
-7.36252147e-07
-7.7503903e-07
-7.74060633e-07
-7.38795808e-07
-7.35619912e-07
-7.36257013e-07
-7.74803306e-07
-7.7311546e-07
-7.7347022e-07
-7.39688395e-07
-7.36386268e-07
-7.36968541e-07
-7.35431078e-07
-7.35109279e-07
-7.75299666e-07
-7.73685622e-07
-7.37773009e-07
-7.35986428e-07
-7.75524585e-07
-7.73558252e-07
-7.37603047e-07
-7.36292214e-07
-7.754621e-07
-7.73594038e-07
-7.3779216e-07
-7.36447934e-07
-7.75097879e-07
-7.74003698e-07
-7.38722983e-07
-7.35208927e-07
-7.35296773e-07
-7.75099712e-07
-7.73936231e-07
-7.73866811e-07
-7.739514e-07
-7.41223814e-07
-7.35580718e-07
-7.36816336e-07
-7.3503703e-07
-7.3496645e-07
-7.75167496e-07
-7.74353913e-07
-7.38815866e-07
-7.35060986e-07
-7.34971185e-07
-7.75163133e-07
-7.73895338e-07
-7.3738952e-07
-7.35787203e-07
-7.76062056e-07
-7.73855329e-07
-7.35767278e-07
-7.35297061e-07
-7.76686512e-07
-7.73750844e-07
-7.74918672e-07
-7.37075784e-07
-7.34385616e-07
-7.75870541e-07
-7.73864867e-07
-7.36713912e-07
-7.36659971e-07
-7.75589173e-07
-7.40584377e-07
-7.35780529e-07
-7.74899932e-07
-7.7361018e-07
-7.41867604e-07
-7.37720377e-07
-7.37562475e-07
-7.37523445e-07
-7.74703483e-07
-7.73573877e-07
-7.42410187e-07
-7.36694009e-07
-7.36393863e-07
-7.7482406e-07
-7.7331807e-07
-7.38792654e-07
-7.36896108e-07
-7.75001506e-07
-7.7362093e-07
-7.39233016e-07
-7.35758371e-07
-7.35638488e-07
-7.74857268e-07
-7.73994846e-07
-7.40298277e-07
-7.34729545e-07
-7.35903698e-07
-7.74984053e-07
-7.73103242e-07
-7.73632119e-07
-7.41181186e-07
-7.34789319e-07
-7.36483167e-07
-7.74926748e-07
-7.3930522e-07
-7.36402544e-07
-7.75486198e-07
-7.73240827e-07
-7.74007236e-07
-7.5049661e-07
-7.37290831e-07
-7.37813615e-07
-7.37363217e-07
-7.36402582e-07
-7.36356445e-07
-7.74812599e-07
-7.73095027e-07
-7.73380156e-07
-7.41803574e-07
-7.36227308e-07
-7.36089409e-07
-7.74795492e-07
-7.73941391e-07
-7.40062646e-07
-7.3487968e-07
-7.35315945e-07
-7.75048523e-07
-7.73444568e-07
-7.73715182e-07
-7.37855462e-07
-7.34181362e-07
-7.33976249e-07
-7.75423886e-07
-7.7400273e-07
-7.37493876e-07
-7.35605868e-07
-7.75424708e-07
-7.74044682e-07
-7.38613317e-07
-7.35507395e-07
-7.35230816e-07
-7.75023854e-07
-7.73566044e-07
-7.39059789e-07
-7.37067295e-07
-7.75069366e-07
-7.73446917e-07
-7.41517315e-07
-7.36979023e-07
-7.36875731e-07
-7.74524057e-07
-7.73331049e-07
-7.48973568e-07
-7.37506784e-07
-7.37664899e-07
-7.36251399e-07
-7.35967721e-07
-7.75149266e-07
-7.73361392e-07
-7.38435121e-07
-7.36666477e-07
-7.75468505e-07
-7.73414726e-07
-7.38075536e-07
-7.36228282e-07
-7.75270803e-07
-7.73890441e-07
-7.39273337e-07
-7.34721931e-07
-7.35254186e-07
-7.7518577e-07
-7.73302416e-07
-7.73790189e-07
-7.39350051e-07
-7.36456876e-07
-7.75083311e-07
-7.73518899e-07
-7.4025683e-07
-7.36852919e-07
-7.36488739e-07
-7.36387671e-07
-7.75301397e-07
-7.73794774e-07
-7.42391269e-07
-7.35655993e-07
-7.37389231e-07
-7.7497228e-07
-7.42637397e-07
-7.3606855e-07
-7.75289592e-07
-7.73473854e-07
-7.38254161e-07
-7.3812309e-07
-7.75809676e-07
-7.42883962e-07
-7.35317534e-07
-7.75176553e-07
-7.74056995e-07
-7.40594623e-07
-7.35867545e-07
-7.35665365e-07
-7.75089636e-07
-7.74132642e-07
-7.40459091e-07
-7.34223289e-07
-7.35316441e-07
-7.75654015e-07
-7.73522909e-07
-7.74462897e-07
-7.38471852e-07
-7.34911832e-07
-7.75855294e-07
-7.74099675e-07
-7.37254111e-07
-7.35209233e-07
-7.75769555e-07
-7.74321182e-07
-7.38347481e-07
-7.347716e-07
-7.34455771e-07
-7.75563722e-07
-7.73821801e-07
-7.38604338e-07
-7.36365376e-07
-7.75555311e-07
-7.73784915e-07
-7.4012338e-07
-7.36281272e-07
-7.3611906e-07
-7.7507509e-07
-7.73750316e-07
-7.41457126e-07
-7.36544706e-07
-7.36325791e-07
-7.74934243e-07
-7.73609015e-07
-7.41534231e-07
-7.36643881e-07
-7.36505182e-07
-7.74900482e-07
-7.73653593e-07
-7.45507683e-07
-7.35954825e-07
-7.37201166e-07
-7.74925238e-07
-7.4522799e-07
-7.35745685e-07
-7.75048641e-07
-7.73728736e-07
-7.41278327e-07
-7.36490221e-07
-7.36257841e-07
-7.74752769e-07
-7.73377397e-07
-7.47694766e-07
-7.36856815e-07
-7.36750164e-07
-7.74739609e-07
-7.73423332e-07
-7.41633629e-07
-7.36681903e-07
-7.36456951e-07
-7.74766888e-07
-7.73424226e-07
-7.41680458e-07
-7.36593236e-07
-7.36430174e-07
-7.74784455e-07
-7.73519012e-07
-7.41134924e-07
-7.36367551e-07
-7.36215677e-07
-7.74947429e-07
-7.7368085e-07
-7.39921388e-07
-7.3587348e-07
-7.35641319e-07
-7.75166437e-07
-7.73610447e-07
-7.38575566e-07
-7.36207316e-07
-7.75236876e-07
-7.73874173e-07
-7.3894828e-07
-7.35561803e-07
-7.3526353e-07
-7.75372919e-07
-7.73704228e-07
-7.38510123e-07
-7.36081426e-07
-7.75381051e-07
-7.73926175e-07
-7.38973715e-07
-7.35568591e-07
-7.35292041e-07
-7.75479075e-07
-7.73748916e-07
-7.38584671e-07
-7.36138559e-07
-7.75435792e-07
-7.7396034e-07
-7.39057877e-07
-7.35599172e-07
-7.35297206e-07
-7.75521987e-07
-7.73779394e-07
-7.38593925e-07
-7.36099793e-07
-7.75530245e-07
-7.74007257e-07
-7.3897639e-07
-7.35452043e-07
-7.35160065e-07
-7.75607867e-07
-7.73900166e-07
-7.38389177e-07
-7.35848883e-07
-7.75664933e-07
-7.74200152e-07
-7.38538476e-07
-7.34860959e-07
-7.34493684e-07
-7.76022244e-07
-7.7391637e-07
-7.37703551e-07
-7.35531724e-07
-7.7631861e-07
-7.73820987e-07
-7.37394946e-07
-7.35797346e-07
-7.76220106e-07
-7.73882269e-07
-7.37698381e-07
-7.35838284e-07
-7.75848203e-07
-7.74199197e-07
-7.38546738e-07
-7.35044594e-07
-7.34686531e-07
-7.76064986e-07
-7.73806753e-07
-7.38157407e-07
-7.36015661e-07
-7.76087559e-07
-7.73613862e-07
-7.38427084e-07
-7.36911695e-07
-7.75667447e-07
-7.73535939e-07
-7.40154314e-07
-7.3782121e-07
-7.36465573e-07
-7.36959104e-07
-7.75515691e-07
-7.4024605e-07
-7.35265373e-07
-7.75983834e-07
-7.73889449e-07
-7.37565331e-07
-7.35693181e-07
-7.76434633e-07
-7.73825316e-07
-7.36269605e-07
-7.35648857e-07
-7.7690608e-07
-7.73293477e-07
-7.7435969e-07
-7.41982508e-07
-7.33468019e-07
-7.35817485e-07
-7.7562408e-07
-7.38493122e-07
-7.3533759e-07
-7.76378274e-07
-7.73454364e-07
-7.74289779e-07
-7.40504212e-07
-7.3511703e-07
-7.34972387e-07
-7.74966057e-07
-7.74006702e-07
-7.39815245e-07
-7.35818077e-07
)
;

boundaryField
{
    closed
    {
        type            calculated;
        value           nonuniform List<scalar> 0();
    }
    open
    {
        type            calculated;
        value           nonuniform List<scalar> 0();
    }
    sides
    {
        type            empty;
    }
    procBoundary2to1
    {
        type            processor;
        value           uniform -7.73786757e-07;
    }
    procBoundary2to3
    {
        type            processor;
        value           uniform -7.3560044e-07;
    }
}


// ************************************************************************* //
