/*--------------------------------*- C++ -*----------------------------------*\
| =========                 |                                                 |
| \\      /  F ield         | OpenFOAM: The Open Source CFD Toolbox           |
|  \\    /   O peration     | Version:  2306                                  |
|   \\  /    A nd           | Website:  www.openfoam.com                      |
|    \\/     M anipulation  |                                                 |
\*---------------------------------------------------------------------------*/
FoamFile
{
    version     2.0;
    format      ascii;
    arch        "LSB;label=32;scalar=64";
    class       volScalarField;
    location    "4e-05";
    object      h;
}
// * * * * * * * * * * * * * * * * * * * * * * * * * * * * * * * * * * * * * //

dimensions      [0 2 -2 0 0 0 0];

internalField   nonuniform List<scalar> 
3810
(
-2774.24081
10138.9702
8755.70559
-4483.08089
-2866.1981
10101.8269
9439.52077
-5655.50936
-5853.85993
-2555.79704
10044.259
9580.56687
-5353.74761
-5362.29146
-2767.43321
10192.7593
9603.97895
-4324.70496
-3628.00091
10316.6975
9776.08458
-4320.14308
-4043.18278
10296.4968
9937.56122
-4498.1367
-4339.72378
10144.7546
9966.07311
-4503.48726
-4487.66763
9893.05085
9944.45359
-4409.4772
-4569.65744
9639.36821
9937.60022
-4319.17786
-4527.13559
9364.50875
10094.7813
-5391.67403
-2831.45234
9204.41261
-2228.06567
-4571.13156
9217.7364
9947.13034
-3106.17127
-4260
8989.32375
9986.65516
-3155.08787
-4253.61772
8879.16791
10019.1058
-3165.49643
-4254.34149
8816.66857
10041.113
-3247.38921
-4325.40481
8791.57348
10025.7606
-3473.9335
-4528.02828
8759.87387
9771.58683
-3711.08661
-6843.46665
-3804.32153
9378.43803
9954.51511
-3126.55699
-6466.47445
-3381.61832
9508.91895
10237.501
-2980.07007
-4153.76821
9167.79527
10039.3995
-3328.89783
-4289.83217
9167.63705
10030.689
-3493.79602
-4401.6527
9163.83363
10053.6683
-3580.25312
-4472.88952
9155.86079
10090.9329
-3599.04115
-4495.09109
9152.35166
10135.8749
-3620.07152
-4521.70391
9161.95061
10165.6414
-3675.23851
-4578.83276
9173.13984
10170.413
-3801.82948
-4688.71616
9176.71698
10164.896
-4044.56442
-4830.95407
9154.86226
10086.7643
-4461.58174
-5570.46472
-4810.60801
-3949.95171
9897.69449
10402.7883
-3303.60968
-4012.01914
9652.87076
10297.2439
-3621.87818
-4259.53918
9705.97545
10253.0021
-3968.7948
-4412.67541
9804.54294
10222.5345
-4223.77708
-4500.17597
9930.66184
10197.7535
-4417.60597
-4510.41762
10050.411
10176.5229
-4618.45785
-4526.16617
10113.7636
10116.9795
-5094.03743
-4857.54214
10074.588
9940.20295
-5549.46458
-6639.9123
-4295.43433
10099.1376
10071.4434
-4547.64012
-4282.54252
10270.121
10010.0373
-4481.59157
-4459.61904
10251.2377
9979.21673
-4683.56572
-4556.52105
10203.3101
9985.66416
-4772.02455
-4618.65308
10181.3955
10016.0669
-4794.00472
-4653.86696
10167.5723
10057.7953
-4787.30135
-4674.3193
10148.3468
10106.494
-4801.93167
-4700.67763
10117.8962
10150.075
-4878.69278
-4768.56288
10080.2937
10187.9341
-4970.36773
-5035.5867
10115.4554
10048.983
-4383.08965
-6133.48951
-5308.84432
10035.304
10188.9343
-4569.66004
-4788.95902
10045.407
10246.5204
-4507.91693
-4810.74513
10007.3529
10233.775
-4502.38401
-4873.41215
9967.70334
10225.1331
-4507.65958
-4880.99373
9937.89674
10228.1075
-4479.93222
-4836.43307
9924.23191
10241.152
-4394.45711
-4740.48258
9927.06494
10264.1839
-4261.50066
-4596.68395
9940.57444
10289.1633
-4108.74868
-4490.21784
9979.08758
10263.6828
-3803.26571
-4746.47336
10125.5566
10127.2177
-2780.6901
-5735.28091
-5406.83775
10085.9239
10156.9463
-3044.38205
-4659.7884
10194.4824
10192.9884
-2400.54462
-5697.96403
-5510.20744
10054.9825
10131.5218
-2992.94313
-4747.65621
10135.0026
10137.1416
-2144.20867
-5885.42129
-5631.33357
9955.82409
10187.8724
-3261.28954
-4136.86473
9848.43522
10427.903
-3710.69513
-3524.34354
9766.82667
-537.385242
-5388.25297
9943.43847
10198.6448
-3604.80762
-4330.02555
9705.92854
10368.3737
-4002.9532
-3772.35555
9617.02836
-782.016011
-5794.42312
9862.04001
10116.5763
-3558.34144
-4694.76085
9640.12621
10255.2124
-3923.91564
-4613.14716
9552.26632
10273.2138
-4224.66154
-4543.98301
9490.15591
10325.9438
-4298.95319
-4116.78152
9509.5712
-1110.30542
-6104.01306
9719.45591
10091.5779
-3854.09046
-4604.28648
9512.37145
10317.0524
-4192.28545
-3979.06397
9474.06365
-952.474194
-6241.88935
9684.25183
10057.4785
-3703.28859
-4787.79301
9481.41096
10248.154
-4098.85301
-4541.44549
9409.05918
10326.5787
-4252.39978
-4089.7426
9494.55066
-908.005998
-6395.78441
9611.61912
10031.1571
-3633.95008
-4795.19935
9452.18492
10218.1203
-3785.55864
-4681.50533
9402.15336
10219.8691
-3844.6888
-4709.54312
9358.78799
10212.4498
-3849.69593
-4713.35039
9315.83459
10211.73
-3847.87976
-4674.20951
9262.86301
10229.8459
-3871.75092
-4483.12121
9202.03713
10342.554
-3931.77817
-3599.14376
9157.83304
-460.522558
-6644.7334
9394.23726
9839.78319
-906.848518
-6448.79508
-6256.20944
9301.26878
10065.0638
-2962.20304
-4457.50557
9028.35321
10228.4191
-3194.91817
-4402.71018
8896.79117
10227.58
-3297.21795
-4351.02214
8763.30789
10312.2211
-3444.6956
-3406.08081
8582.74142
-376.348214
-6308.98003
8616.49427
10035.2912
-2847.11014
-4507.51683
8542.84852
10193.8013
-2942.52052
-4316.38695
8417.93567
10282.5349
-3092.30199
-3425.73959
8252.70876
-365.200517
-6120.83385
8286.38419
10026.9423
-2566.55033
-4626.14027
8248.93747
10129.6046
-2794.79151
-4714.44005
8144.26567
10107.6144
-2947.07223
-4830.32032
8090.45493
10096.4042
-3005.16195
-4855.60063
8097.06711
10110.4481
-2995.85441
-4749.88005
8165.79938
10161.8633
-2915.12408
-4437.66606
8299.82126
10280.606
-2824.51517
-3600.83617
8410.29817
-963.708944
-5179.85737
8740.73484
10167.0732
-1600.70941
-4754.28565
-4765.87082
9124.80457
10306.6232
-2394.67892
-3851.0463
9082.31548
10394.6322
-2598.71427
-3753.93312
9228.0919
10404.6385
-2628.55418
-3795.41421
9416.08235
10380.374
-2228.62267
-3929.9566
-3576.95874
-4126.04968
-4129.57498
9719.55968
10407.5185
-2734.00684
-3628.8842
9772.54979
10431.2833
-3217.47829
-3829.19416
9808.03806
10360.7798
-3791.10381
-4411.41187
9851.77202
10212.7531
-4157.20545
-5244.42788
-4879.45134
10048.8542
10176.5384
-4315.23479
-4711.29394
10077.2592
10171.753
-4321.29553
-4539.10792
10167.5505
10159.6147
-4442.98987
-4461.36241
10221.9211
10137.9554
-4577.26726
-4430.29683
10253.807
10083.0699
-4632.67099
-4401.42226
10264.785
10012.2947
-4702.84729
-4544.12543
10255.3683
9993.64941
-4908.36781
-5627.15777
-4169.79385
10185.7685
9980.08759
-4410.78326
-4213.83393
10353.1408
9998.80273
-4121.21376
-3883.60263
10373.8716
10050.3434
-4161.92288
-3600.09675
10325.7294
10184.2984
-4501.01548
-2522.59344
10076.1269
594.265534
-5080.43275
-3932.09424
-4192.4682
10387.0835
10039.9106
-4009.37237
-3861.45749
10414.0731
10107.0639
-3894.11403
-3680.15325
10407.4283
10116.2849
-4023.16903
-3707.17565
10383.5387
10123.8779
-4098.04701
-3495.11029
10349.292
10246.1316
-4344.26719
-2450.091
10106.7332
-3126.18598
-2479.94566
10246.2067
-583.060597
-4595.6199
-3735.09251
-3749.05819
10371.0226
10180.909
-4362.45012
-2275.71829
10089.4439
-2689.9111
-3904.24178
10566.6876
9968.29503
-3974.19851
-3981.6427
10359.7995
9872.33736
-4403.54641
-4129.71024
10290.1866
9811.17007
-4657.88003
-4261.16202
10250.9704
9761.67637
-4793.79226
-4355.62389
10232.6377
9730.84956
-4852.70256
-4393.3223
10225.7219
9718.00998
-4873.41393
-4394.48206
10225.0814
9717.43701
-4866.64925
-4381.98985
10230.8268
9725.45123
-4825.71138
-4351.38472
10239.4408
9736.55768
-4812.66061
-4489.36328
10223.3772
9843.06982
-5242.26377
-6042.69215
-4251.54487
10098.5028
9756.05296
-4879.38976
-4563.28765
10260.6555
9768.44928
-4629.35438
-4343.27131
10274.7817
9809.63313
-4649.947
-4306.33595
10268.1793
9827.95345
-4666.99319
-4311.73169
10269.8143
9851.70321
-4629.8677
-4263.71615
10285.1445
9897.88828
-4518.75469
-4097.95074
10310.7931
9982.31003
-4374.76905
-3724.69077
10309.4082
10177.7299
-4502.48386
-2478.72279
10032.2059
-657.065995
-5249.61202
-3903.17799
-4713.08055
10364.5649
9983.96734
-4389.63149
-4360.15437
10331.8601
10082.7974
-4360.20008
-4221.45972
10313.495
10108.5513
-4528.56994
-4383.01321
10279.2688
10102.3896
-4681.12543
-4547.34325
10258.4018
10106.4356
-4744.41734
-4626.2757
10254.7897
10126.1638
-4732.54454
-4636.1536
10262.8281
10156.459
-4679.1736
-4588.40091
10276.4354
10195.6739
-4597.64381
-4589.47934
10321.7443
10207.1584
-4306.84772
-4836.93976
10408.3065
10123.659
-4000.41326
-5296.64164
-4531.58311
10266.0897
10233.5324
-4051.48125
-4753.08753
10480.0183
10175.2233
-3578.79328
-5009.72819
-4222.76497
10298.0451
10336.1621
-3977.50959
-4224.6217
10432.481
10326.9337
-3655.57381
-4280.40547
10490.8695
10283.6101
-3491.40246
-4608.50257
-4450.40858
10392.3604
10208.7104
-3484.68436
-5059.80098
-4272.93618
10275.6221
10346.9729
-3943.13022
-3834.78627
10338.5201
10492.9112
-4011.41137
-2988.00408
10215.1691
-2204.04687
-4520.78867
10537.6539
10395.8842
-3852.08965
-3206.9052
10177.573
-2285.34499
-4956.29847
10549.1891
10249.102
-3655.72749
-4062.91564
10311.7425
10465.7245
-4209.69762
-3109.88309
10114.7248
-1298.32977
-5415.96649
10679.0649
10071.1465
-3088.06403
-5441.28316
-4610.28951
10231.1479
10265.5848
-3866.81232
-4413.02691
10414.985
10315.2678
-3602.71162
-4400.36645
10535.2303
10213.6248
-3176.05153
-5097.17008
-4503.60397
10280.4412
10280.8061
-3911.53263
-4393.15218
10384.5899
10278.2224
-4015.48473
-4725.10156
10405.4287
10096.9541
-3879.2376
-5864.3255
-5141.98455
10190.8167
10204.1291
-4035.00803
-4346.36706
10348.5131
10359.6441
-3929.19182
-4018.66824
10324.0861
10333.5213
-4107.38227
-4667.32845
10334.8923
10089.3287
-4029.98691
-6258.46359
-5538.10549
10096.5135
10133.6201
-4313.82937
-4791.5247
10234.1044
10287.3608
-4129.80771
-4308.00589
10204.5247
10361.0646
-4181.4726
-4100.97798
10149.4084
10480.661
-4489.32998
-3307.15123
9950.58679
-2405.04346
-5765.50544
10285.739
10120.7084
-4157.81484
-4883.70691
9995.60567
10237.4849
-4365.62073
-4642.33633
9920.13892
10292.7996
-4300.4125
-4312.07942
9865.68187
10425.3779
-4324.19441
-3532.41113
9832.44085
-2052.1245
-5721.8108
10008.2373
10148.2411
-3846.33745
-4642.13694
9768.80951
10282.3388
-3889.22471
-4411.45241
9746.21531
10287.4455
-3620.36252
-4552.74242
9884.83261
10133.572
-2402.55342
-5601.64272
-5597.7863
10042.7912
10046.013
-2122.32525
-5988.92289
-5595.04779
9836.47693
10161.4402
-3491.07185
-4567.48007
9717.06169
10291.4101
-3670.26777
-4378.77271
9725.09061
10310.2613
-3733.95369
-4376.0421
9748.22932
10304.8355
-3827.03004
-4424.41611
9777.37126
10298.067
-3882.14861
-4415.98246
9828.90297
10300.5604
-3763.25811
-4342.28754
10074.5248
10269.1488
-2282.92077
-4420.51079
-5785.38009
-5727.88803
9804.39554
10114.8364
-4091.84911
-4740.77763
9827.79582
10236.5086
-4045.14402
-4518.93804
9781.15314
10220.9965
-3952.26526
-4466.28912
9641.77845
10178.6299
-3880.49075
-4522.94762
9397.90973
10139.0713
-3760.55427
-4612.00732
9081.51365
10118.4595
-3562.78039
-4692.10466
8725.71635
10116.2046
-3295.1371
-4693.66066
8396.11288
10139.9401
-3056.95038
-4493.11763
8326.9497
10251.8928
-3028.55667
-3369.51534
8516.49164
-921.007868
-4932.71175
8135.08924
-579.739474
-6339.68726
7118.44599
9930.16203
-1887.2473
-4663.57581
7149.97263
10038.4473
-1760.11915
-4534.04808
7153.29534
10040.0646
-1732.04407
-4516.94928
7006.52514
10025.9162
-1663.77429
-4523.30596
6871.42038
10020.277
-1618.72317
-4444.74431
6861.56167
10048.7844
-1662.3013
-4206.88763
6975.50806
10138.2678
-1874.74712
-3485.28016
7105.3951
-1.56603081
-5727.12376
6526.66736
9875.36607
-1480.34508
-4893.46186
6620.78313
9925.02053
-1814.16587
-4896.17224
6747.12585
9952.9361
-1980.32895
-4802.82065
6986.94602
10004.902
-2098.29062
-4668.77961
7293.29005
10069.9749
-2226.25764
-4501.09513
7637.76883
10152.1065
-2290.51146
-4187.62326
8015.36111
10279.6581
-2306.54599
-3560.59264
8444.86556
-1748.73102
-3799.51772
8612.49304
-1805.3435
-4776.49438
8860.38548
10222.6199
-2858.21098
-4475.80149
9129.25182
10255.722
-3156.48156
-4623.18189
9426.1722
10200.1755
-3343.6297
-5265.43954
-4921.09015
9878.9519
10250.2511
-4004.14663
-4680.82923
9830.29523
10275.4963
-4033.8935
-4430.98546
9968.32655
10338.5491
-4112.56477
-4161.2903
10058.3891
10440.3949
-4271.21466
-3608.22708
10099.7547
-2874.26892
-4774.66763
10285.719
10353.0506
-4027.18318
-3716.96079
10083.6157
-2818.02947
-5285.18816
10336.5261
10156.6709
-3787.24887
-4854.21761
10164.2074
10238.3268
-4138.82237
-4707.63002
10143.6878
10223.4514
-3917.03137
-4905.87332
10173.4048
10174.0616
-3859.12628
-5649.99635
-5367.20195
10049.0167
10144.825
-4342.45265
-5087.34656
10010.2268
10206.3848
-4355.05219
-4824.73129
9991.52682
10245.1839
-4344.1748
-4730.56139
9976.47438
10256.1031
-4331.73019
-4709.42204
9962.05887
10258.3945
-4318.91705
-4696.42571
9951.21694
10260.7553
-4280.65136
-4669.93738
9954.16995
10264.263
-4146.83294
-4626.12521
10002.9689
10266.9116
-3710.45655
-4548.66502
10132.3838
10254.0222
-2990.52418
-4591.93106
-5304.80039
-5307.52343
9787.19297
10167.7498
-4497.36121
-4904.21412
9883.34566
10255.7189
-4111.5823
-4487.63593
9932.85604
10317.942
-4016.53756
-4306.90181
9935.31166
10357.69
-4041.63173
-4103.65473
9930.7801
10411.5064
-4090.33138
-3755.26298
9874.07237
-1367.58165
-5921.55918
10143.0294
10114.1702
-3891.68096
-4905.00767
9923.44094
10270.6643
-4099.50851
-4250.19103
9926.84968
10403.2057
-4012.28823
-3646.45624
9911.36933
-1069.7113
-5571.77612
10156.5554
10247.8294
-3952.53608
-3708.7954
9840.98386
-585.235487
-6150.15918
10260.9772
10076.5087
-3314.24069
-5147.2625
10308.0322
10103.1154
-1336.44289
-5756.77529
-5558.23123
10111.0973
10092.8442
-3206.86454
-4954.9991
10377.407
10121.1347
-1132.04571
-5746.39883
-5444.78726
10106.6582
10144.1409
-3541.84153
-4609.90092
10230.348
10255.5449
-3369.61083
-4590.4072
10439.2125
10159.3363
-1032.90496
-5841.8789
-5407.59113
10089.9409
10135.5754
-3770.3882
-4744.43908
10203.0767
10226.8976
-3522.84964
-4756.52392
10406.8005
10148.1293
-1231.67749
-6093.33158
-5467.48646
10009.5108
10164.5548
-4025.85967
-4463.67273
10027.921
10424.4613
-4255.36213
-3387.83097
9886.21988
-370.109432
-6297.3533
10215.3792
10127.0443
-4185.30374
-4963.47099
9970.20274
10236.0437
-4088.71195
-4536.28935
9976.20607
10288.4345
-4076.74853
-4504.79225
9972.62501
10290.8462
-4113.96525
-4504.49966
9999.84871
10303.6543
-3759.26193
-4226.65209
10245.1391
10382.287
59.4518133
-3939.62158
-2808.78426
-4916.46079
-1931.39919
9957.55907
914.723576
-5185.92014
8851.08056
10169.3206
-3759.47888
-4710.22056
9759.36791
10231.6272
-3895.63589
-4675.88664
9703.90224
10228.6585
-3968.26974
-4737.06582
9604.45603
10214.0664
-4053.66657
-4785.28062
9593.28446
10213.9583
-4139.20858
-4731.24201
9681.97264
10256.6898
-4139.41574
-4426.49475
9668.92977
10374.8348
-4191.92465
-3780.50572
9511.58399
3044.46461
-7020.70887
4963.18608
9844.95252
-2728.76067
-5045.84581
9609.96062
10187.4743
-3536.21771
-4643.98641
9455.59325
10209.2745
-3194.47951
-4703.58836
9536.10284
10157.7289
550.604072
-5040.51161
-5125.55261
3483.76922
9943.65614
-2003.6361
-4448.28484
9237.34926
10377.3061
-3384.63205
-3387.87783
9020.66108
691.128602
-6564.6439
9077.1185
10018.9185
-3504.09655
-4600.4498
9071.92703
10365.9653
-3577.37096
-3500.16325
9095.29971
540.648065
-6833.93858
9134.6168
9938.15133
-3721.18318
-5106.30263
9260.28008
10192.9487
-3666.97739
-4679.39248
9395.33826
10243.4079
-3735.83704
-4611.09305
9517.68154
10246.9875
-3744.65704
-4627.71803
9669.69579
10211.5244
-3517.70914
-4849.27679
9981.09601
10049.5231
-293.14941
-6906.30558
-6121.17441
9596.96077
10047.1329
-3977.30265
-4842.84523
9776.84937
10235.7097
-3796.75575
-4512.21615
9835.7958
10242.8816
-3435.41946
-4629.48229
10009.7585
10052.4082
204.917753
-6549.94241
-6126.51131
9619.78711
10202.0094
-3710.91445
-3297.07746
9361.24455
404.919053
-6849.08212
9446.77962
9979.32946
-3614.65668
-4697.89061
9287.47034
10249.9943
-3439.47277
-4171.31554
9195.91101
10401.9321
-3538.47299
-3220.54101
9092.22125
604.421078
-6832.33567
8964.71268
9969.25145
-3404.83801
-4555.22961
8877.79869
10330.4309
-3466.26349
-3266.2081
8785.25907
690.484468
-7037.19029
8482.01538
9888.75996
-3059.86916
-4943.77362
8376.10853
10094.5897
-2951.57695
-4640.09588
8352.57661
10141.6833
-2977.23146
-4392.27975
8378.93023
10270.8854
-3090.04727
-3238.19138
8025.75754
634.10579
-6948.17262
7599.52052
9833.72872
-2496.8025
-5080.13371
7667.77477
10003.7792
-2564.63899
-4893.90429
7753.73662
10027.2479
-2644.01321
-4868.16937
7757.73483
10030.2712
-2709.27734
-4891.18839
7773.41752
10028.6283
-2808.55036
-4927.14934
7837.88442
10028.9419
-2903.63149
-4954.43855
7898.59013
10032.2097
-2962.13105
-4959.48189
7934.0626
10039.43
-2985.08133
-4935.62667
7972.61469
10052.2418
-2981.52631
-4885.97401
8019.53319
10070.8533
-2946.52555
-4808.03883
8051.12577
10093.381
-2876.1202
-4709.59838
8103.2461
10120.8342
-2703.21035
-4562.88962
8224.38629
10176.728
-2231.21158
-4125.12488
8454.10902
10383.7388
-611.43405
-2740.60504
-3771.45303
-3203.96947
9452.27789
266.338528
-4237.85173
8851.71016
10298.7511
-2303.79261
-4055.03669
8883.34459
10301.7778
-2512.91484
-4232.60333
9045.80208
10243.7952
-2286.27199
-4779.94111
-4791.90041
9304.04946
10111.9358
-2733.93875
-5664.52418
-5050.21375
9620.0368
10206.8933
-3926.92782
-4700.61716
9443.37538
10171.6977
-3783.84824
-4444.99461
9594.14784
10169.6875
-3895.16295
-4295.22895
9705.89918
10171.9154
-4080.56672
-4089.02558
9827.58301
10272.7132
-4702.63036
-3058.55189
9793.15535
-3540.02645
-4935.75048
9973.71725
9881.73654
-4382.99312
-4864.92276
9931.03114
9925.99897
-4631.15002
-4631.88356
9987.22678
9979.58491
-4662.99429
-4545.08055
10061.7736
10012.3986
-4665.44123
-4464.74073
10131.2077
10064.3522
-4703.9984
-4119.21697
10117.1177
10240.7999
-5251.19297
-2804.69375
9927.14784
-3941.90856
-4951.15328
10299.8901
9954.08715
-4552.1293
-4839.49909
10251.6686
10031.1385
-4625.19222
-4479.65156
10273.5626
10115.6664
-4511.59568
-4201.21499
10300.6144
10203.15
-4447.64476
-3698.78873
10250.2781
10432.8576
-4858.80921
-2094.33001
10088.6267
-2723.75032
-4409.7203
10538.4202
10133.9737
-4302.09521
-5078.94007
-4686.57594
-4348.64767
10241.7097
10119.671
-4807.28693
-4628.92472
10269.9726
10115.001
-4565.99768
-4408.66175
10299.9645
10140.8823
-4495.8738
-4327.31099
10300.5079
10136.9685
-4529.48004
-4326.77404
10289.3776
10124.3499
-4582.12711
-4301.70507
10275.5578
10149.3901
-4711.66785
-3899.73601
10176.8316
10310.1897
-5297.57537
-2798.15426
9920.87347
-3778.94509
-5284.36616
10366.9105
9983.97969
-4851.26488
-4973.97032
10221.8817
9912.98623
-4933.52979
-4702.65052
10198.0234
9948.43627
-4907.07063
-4632.64698
10204.6222
9965.96988
-4852.88753
-4595.58686
10218.4273
9999.60225
-4766.00349
-4492.29954
10236.0006
10081.0332
-4698.429
-4101.26118
10197.1681
10320.895
-5108.70262
-2845.38071
9996.02298
-3514.63123
-5156.34606
10424.2964
10117.9051
-4466.92342
-4723.1433
10309.1998
10221.8327
-4469.53009
-4334.01521
10320.3429
10317.4598
-4194.32106
-4249.45545
10350.6113
10230.0563
-3918.98809
-5394.73607
-4005.76403
10167.7396
10195.2322
-4095.90579
-5796.83756
-4174.86374
10042.036
10316.4772
-4408.11356
-4458.73135
10152.1798
10288.8906
-4061.70744
-4187.7596
10075.4578
10315.9011
-3914.67226
-4275.21464
10066.9689
10197.7915
-3732.51173
-5738.34807
-4450.65623
9965.2444
10253.7683
-4125.50729
-4528.26728
9913.18346
10238.6634
-3932.97503
-4356.4613
9899.33938
10275.7905
-3884.9527
-4203.41832
9885.14622
10314.0852
-3829.79854
-4061.05645
9892.83544
10333.29
-3638.37656
-4082.17086
9971.78787
10224.2244
-3113.99012
-5368.86178
-4455.20303
10079.4928
10113.6134
-2984.09965
-5824.91215
-4456.3914
9940.03199
10268.1196
-3809.77825
-4462.64032
10043.0485
10179.551
-3006.21171
-5778.51029
-4712.57019
9983.30495
10250.1253
-4066.04937
-4443.05885
10053.5784
10306.5203
-4038.55434
-4199.85023
10190.2585
10334.654
-3991.80552
-3955.92287
10330.2584
10308.0459
-3653.8795
-3912.48925
10597.634
10121.8101
-1795.31792
-5136.68728
-3867.22573
10300.2288
10019.8867
-3756.17006
-2373.98305
9998.69631
196.452209
-4950.42053
10720.0661
9649.02812
-2391.36627
-6247.36569
-4433.57635
10127.17
9521.49165
-4195.8165
-3640.43542
10226.4062
9687.91954
-4503.27455
-2253.49068
9666.70973
-2099.64021
-5146.35016
10440.1419
9446.77525
-4199.11118
-3587.28691
10199.9437
9815.2497
-4390.27436
-1983.2611
9716.65139
-1567.53708
-5041.46826
10428.8377
9781.52171
-4171.62253
-2349.34099
9883.42046
-2213.89064
-3934.24776
9905.89551
-2318.33839
-6199.51136
10248.6471
9944.75991
-4539.62871
-4703.00509
10054.9566
10196.0076
-4445.93315
-4626.4801
10019.6413
10242.4973
-4329.73755
-4636.78792
9955.72983
10253.7363
-4167.06846
-4544.04031
9865.31323
10278.1609
-3905.40769
-4327.09658
9801.92379
10333.8707
-3428.45655
-3872.74701
9843.32188
10482.9887
-333.843856
-2957.29293
-5036.05934
-4828.39554
9389.84003
486.047832
-5400.19414
9253.64537
10162.6679
-2854.05026
-4239.89709
8973.74992
10251.6132
-2853.99052
-4216.62351
8739.51067
10252.0024
-2770.43519
-3979.63649
8574.07348
10360.9144
-2584.9972
-2888.62938
8421.41618
1953.38521
-5681.53715
8258.85397
10209.2665
862.699017
-2723.32721
-5153.13716
-5115.49123
8539.31773
1625.80215
-5295.01953
7852.32254
10060.198
-1716.65055
-4223.98815
7569.7087
10096.4462
-1683.82194
-4416.46012
7126.19479
10040.0042
-1749.19234
-4579.09185
7081.37808
10017.0676
-1974.57943
-4667.82238
7279.49707
10024.3445
-2305.61686
-4688.79107
7697.60122
10066.272
-2657.03354
-4591.2436
8165.50162
10144.2523
-2842.31966
-4285.19859
8262.58881
10293.8746
-3018.83228
-3225.08548
8222.55938
156.43917
-6385.18149
8264.1288
10003.6934
-2672.06051
-4606.71206
8363.90619
10191.7495
-2604.46264
-4297.53641
8444.93608
10240.1509
-2392.12821
-4228.37269
8649.45974
10120.3012
-686.300897
-5528.85186
-5582.48966
8779.73469
9984.44162
-855.510027
-5790.42483
-5820.2965
8939.14595
10153.7604
-2672.50254
-4171.28022
8825.75738
10382.6237
-3156.9882
-3456.9777
8893.56848
-863.71942
-5542.1105
9102.51937
10157.0421
-3028.2054
-4436.13721
9095.9778
10304.3958
-3368.0173
-4141.05475
9150.92041
10389.5863
-3676.30459
-3660.56091
9152.67562
-1739.17934
-5662.67777
9415.74831
10134.1444
-3555.5893
-4805.62449
9353.16357
10223.4942
-3860.39739
-4671.032
9412.35906
10267.5987
-3964.11036
-4398.27532
9480.60763
10355.6204
-4205.38193
-3839.75439
9498.65645
-2686.59338
-5615.97293
9737.93933
10110.6075
-4105.41927
-4974.73556
9678.89524
10145.2624
-4403.04641
-4943.25655
9740.02818
10131.853
-4540.851
-4885.99466
9811.95029
10101.5825
-4636.25457
-4849.88113
9893.27077
10062.0732
-4728.24448
-4809.2267
9992.74082
10007.3136
-4798.77241
-4717.74034
10096.4129
9945.54649
-4844.55456
-4581.72324
10208.2754
9849.00528
-4850.7344
-4264.86505
10248.5014
9693.55746
-4664.82723
-3880.22369
10259.2914
9557.54324
-4642.66025
-3345.09362
10141.534
9510.26158
-5674.94358
-5681.58163
-2419.69139
10110.3185
9260.87557
-4495.65226
-3044.61755
10297.1458
9073.76306
-3962.63307
-2639.58006
10361.0793
9012.1341
-3750.23121
-2274.07968
10252.7709
8863.78637
-5003.08674
-4998.91469
-3768.75222
-227.117181
10140.2911
8853.87718
-5883.91028
-5908.39323
-306.589075
10077.7705
8617.00785
-4288.71326
-2384.36593
10221.3121
8549.01102
-4027.68297
-2318.08621
10240.3488
8574.4928
-4114.46118
-2206.01482
10043.5361
8689.1534
-6215.22248
-6298.11298
174.605584
10002.9126
8685.92939
-4568.77206
-2840.31151
10154.7722
8626.93347
-4436.33376
-2972.8476
10178.2875
8680.6987
-4410.65574
-2980.87383
10193.9398
8792.49775
-4372.27266
-2974.92896
10216.7791
8923.75388
-4298.27988
-2933.18991
10234.5974
9054.42655
-4363.93009
-2823.47895
10028.715
9218.31966
-6466.36743
-6622.00373
20.1816911
10009.9305
9409.01767
-4651.66579
-3125.1042
10028.4934
9387.86746
-6346.56774
-317.566596
9198.13605
-4727.67914
-477.639232
9488.85917
-3321.88254
-3659.47659
10390.547
9455.19357
-4363.08604
-3632.61064
10079.6586
9652.06304
-6254.12567
-49.9345138
9563.94067
-3453.24446
-3841.30497
10194.0436
9755.01679
-6153.5521
-617.892215
9624.79038
-3602.01415
-4166.92424
10378.463
9628.33695
-4443.5861
-4191.16261
10269.5987
9680.96909
-4607.55548
-4060.23437
10258.528
9742.69006
-4572.95712
-3958.54063
10274.2093
9801.96751
-4477.20251
-3827.99235
10280.3786
9889.59227
-4595.12288
-3507.50406
10047.745
9891.28281
-6405.95011
-6751.16228
-2320.60303
9976.70005
10151.9485
-5360.66792
-4040.88497
10161.2531
9995.21592
-4802.0332
-4194.82358
10230.6136
10060.0447
-4779.85305
-3972.90231
10141.0195
10356.9703
-5899.265
-1278.56019
9947.45183
-3780.28524
-4695.47469
10319.5536
10088.2187
-4576.8648
-4720.46561
10179.7269
10182.0634
-4780.82679
-4354.42921
10066.9119
10520.8912
-5659.21447
-2192.66801
9905.00034
-3412.54655
-5001.51644
10042.0819
10178.9533
-4338.44715
-4941.36387
9794.0747
10214.8751
-4279.86783
-4714.15618
9648.11726
10283.8663
-4148.13028
-4404.90636
9493.66718
10537.1411
-4631.03681
-3047.28255
9617.36444
-2252.84438
-5092.40212
9298.20345
10187.4575
-3375.1285
-4698.55474
8978.98475
10257.4838
-3405.4213
-4265.06647
8775.91795
10438.4856
-3437.6543
-3431.22569
9123.42269
-1181.47489
-4841.07777
8710.75696
10209.3607
-2738.91376
-4428.22111
8509.62906
10036.4058
-2138.07861
-6324.9853
-6318.2614
8866.41864
10095.6428
-2620.89955
-4664.03444
8221.85408
10136.3854
-2768.26397
-4649.77782
8189.6589
10141.2041
-2730.60022
-4536.28469
8218.46628
10159.8406
-2719.80124
-4437.19674
8280.9864
10180.3878
-2737.54929
-4345.88798
8379.94879
10188.0097
-2750.2576
-4440.22745
8594.30786
10006.9191
-1047.06399
-6440.78476
-6395.63719
8835.36154
10009.1512
-2855.82555
-4719.94486
8738.87395
10164.4651
-3164.66356
-4523.17738
8884.26318
10218.7985
-3163.18173
-4318.19415
9050.74228
10244.4141
-3035.3164
-4401.42138
9314.09063
10041.4689
-957.004775
-6417.23702
-6303.61084
9343.08525
10054.059
-3010.0822
-4514.5113
9253.36045
10263.5768
-3180.12956
-4254.07531
9318.49147
10283.7238
-2915.39081
-4340.9447
9556.12656
10089.4591
-481.495729
-6117.82424
-6106.43622
9550.87266
9861.70198
-306.450937
-6732.46306
-6661.72348
9534.42305
10011.5185
-3282.33885
-4811.54047
9453.2702
10222.4316
-3629.47391
-4666.70301
9553.33864
10230.9202
-3825.92663
-4729.53134
9670.80014
10185.4638
-1635.21772
-4715.93263
3216.32999
10194.4446
3720.80113
-4758.00095
-1776.29724
10124.8557
8962.58815
-4809.68161
-4417.82521
10092.9156
9787.87714
-4866.98176
-4768.65049
10091.8474
9787.56301
-4949.70427
-4725.18143
10091.4674
9681.58474
-5039.59353
-4658.7529
10113.0045
9544.5925
-5087.27112
-4549.93767
10127.6487
9416.59043
-5081.24363
-4414.69565
10139.1327
9314.16438
-5044.06563
-4273.07863
10149.3164
9236.51369
-4974.14148
-4125.00419
10163.2457
9178.50416
-4849.37367
-3893.11476
10179.2891
9147.7898
-4651.32467
-3389.27906
10167.7418
8448.61483
-4412.09473
437.54273
10003.5114
-658.875743
-3108.07813
9962.58337
10273.2778
-64.3983519
-3458.81801
-5839.76857
-2665.29095
9173.84641
-1268.43625
-5374.32861
10160.5933
9650.34688
-4613.99725
-2362.92607
9694.92567
488.680719
-5948.35045
10237.3927
9569.71793
-4697.00508
-4420.25835
10400.6472
10064.6428
-486.740028
-4707.93672
-2907.58962
10234.5909
10076.0501
-4625.33287
-4653.25013
10116.0028
10074.085
-4525.36951
-4655.44792
10055.5892
10127.879
-4466.517
-4709.72062
9994.92843
10136.3986
-4375.89387
-4858.75693
9822.29352
10263.5539
-4741.14649
-3427.25326
9718.06051
-2092.57267
-6087.92175
9855.93115
10037.2182
-4322.40216
-5145.68555
9554.03365
10159.5235
-4303.47577
-5008.59601
9476.78024
10182.0242
-4138.4034
-4859.12126
9430.24943
10203.7976
-3967.29033
-4712.45982
9404.67713
10227.9549
-3787.09525
-4475.86121
9414.35753
10420.8967
-3368.78734
-2853.63663
7023.92956
-2151.70816
-5056.31757
9443.99683
10213.1704
-3436.26729
-4434.29367
9325.60563
10421.4666
-2753.92635
-2607.04204
5355.84426
-2253.99707
-4424.88178
9295.61082
10262.528
-3380.14739
-4425.35166
9096.49638
10263.443
-3270.18784
-4627.94825
9165.73518
9424.56597
-4183.00748
-316.476366
9818.98442
-182.255293
-4250.81433
9240.27381
10357.8206
428.478736
-3494.62496
-4353.79768
-1034.49801
9704.48937
-383.418563
-4137.53424
9083.39867
10382.5387
-3101.77522
-3254.70959
9008.95877
-176.704653
-5676.7744
9121.90332
10033.4824
-3335.40039
-4596.39362
9096.90272
10173.9569
-3447.16103
-4129.17004
9297.14739
10223.8856
-3391.90798
-3858.48348
9536.67262
10260.4913
-3266.55555
-3729.79286
9868.09332
10199.796
-2373.65914
-5422.97104
-4033.73932
10105.2395
10167.1715
-2862.62244
-4693.15747
-5172.82548
-4820.68141
10033.6608
9935.42937
-4596.8661
-4587.6568
10116.2924
10003.5939
-4515.08145
-4412.04684
10201.4054
10034.6782
-4549.95472
-4400.54187
10221.0978
10037.6643
-4599.34792
-4468.85182
10209.043
10054.0138
-4689.91762
-4594.24357
10179.3937
10079.0728
-4789.14374
-4747.26249
10139.0664
10109.7925
-4869.58585
-4900.60965
10091.3753
10145.7872
-4919.7047
-5029.10238
10029.3385
10159.5163
-4910.62594
-5109.59646
9944.97538
10158.5876
-4853.97602
-5142.19475
9842.51142
10158.5367
-4751.19234
-5125.23276
9728.79053
10163.662
-4573.39493
-5039.83608
9638.02802
10184.5412
-4081.02022
-4806.67744
9753.97475
10151.8781
-1199.72504
-5192.59115
-4944.70771
9804.8621
10199.3023
-3067.46765
-4819.83697
9168.65476
10157.6762
-3822.01222
-4970.81261
8915.53754
10135.5685
-3668.24383
-4967.89767
8759.9903
10130.1122
-3494.7244
-4900.27927
8636.61481
10135.766
-3313.9728
-4800.97006
8548.56829
10148.4846
-3175.9475
-4691.66718
8490.55563
10159.4709
-3107.44904
-4706.30217
8578.97797
9966.28439
-1635.2665
-6609.99069
-6594.10475
8681.14994
9998.36847
-2777.71782
-4791.19159
8498.22482
10134.2031
-3123.21889
-4747.23774
8503.72543
10144.5945
-3125.6977
-4678.22116
8540.1754
10159.4916
-3095.97608
-4604.24619
8566.6923
10172.853
-3039.31793
-4526.40225
8577.26075
10188.9878
-2975.56755
-4411.71802
8565.41825
10211.042
-2938.97375
-4357.01241
8622.81112
10046.8869
-1123.78596
-5963.48436
-3334.25266
9187.00691
-265.448486
-4409.88039
8506.17591
10340.4947
-2754.25967
-3142.38228
8378.02456
-1039.81533
-5573.77277
8193.82324
10048.8207
-2768.81034
-4857.37753