/*--------------------------------*- C++ -*----------------------------------*\
| =========                 |                                                 |
| \\      /  F ield         | OpenFOAM: The Open Source CFD Toolbox           |
|  \\    /   O peration     | Version:  2306                                  |
|   \\  /    A nd           | Website:  www.openfoam.com                      |
|    \\/     M anipulation  |                                                 |
\*---------------------------------------------------------------------------*/
FoamFile
{
    version     2.0;
    format      ascii;
    arch        "LSB;label=32;scalar=64";
    class       surfaceScalarField;
    location    "0.0018";
    object      phi;
}
// * * * * * * * * * * * * * * * * * * * * * * * * * * * * * * * * * * * * * //

dimensions      [1 0 -1 0 0 0 0];

oriented        oriented;

internalField   nonuniform List<scalar> 
530
(
7.52803309e-07
7.55421718e-07
7.64522639e-07
7.63408575e-07
7.66538131e-07
7.87504273e-07
7.94422509e-07
8.09420446e-07
8.1564933e-07
8.21843615e-07
8.00780871e-07
8.00567019e-07
8.18090897e-07
8.23316483e-07
8.0634546e-07
8.02967696e-07
8.20510033e-07
8.3413562e-07
8.37441865e-07
8.43748586e-07
8.43881641e-07
8.39679405e-07
8.40500628e-07
8.4424546e-07
8.40139579e-07
8.26240608e-07
8.43999742e-07
8.36183875e-07
7.90033596e-07
7.77518638e-07
7.87824774e-07
7.74290115e-07
7.11128526e-07
6.9657707e-07
7.06390298e-07
6.87825073e-07
6.65425636e-07
6.03910889e-07
5.62103062e-07
5.74315661e-07
5.47959684e-07
5.28693184e-07
5.01199208e-07
4.69663742e-07
4.34176046e-07
4.06890037e-07
3.68611476e-07
3.27897321e-07
3.21673917e-07
3.33060648e-07
3.07777851e-07
2.84053574e-07
2.59996523e-07
2.14022955e-07
1.93017854e-07
1.64733111e-07
1.76727171e-07
1.95930941e-07
1.82728169e-07
9.02287409e-08
6.81176486e-08
1.08304873e-07
1.01791938e-07
9.21869088e-08
8.26856098e-08
8.11838177e-08
1.0610594e-07
1.39981161e-07
1.48513841e-07
1.5051661e-07
1.63487122e-07
1.66453708e-07
1.92145696e-07
2.00962718e-07
2.46215306e-07
2.9674751e-07
3.26474116e-07
3.67504034e-07
4.00906086e-07
3.81378808e-07
4.18862899e-07
4.64473945e-07
5.04787867e-07
5.59670068e-07
6.03954406e-07
6.45808422e-07
6.90078064e-07
7.35297256e-07
7.79089365e-07
8.07155626e-07
8.47692384e-07
8.81639872e-07
9.11162204e-07
9.45760897e-07
9.80510061e-07
1.00480052e-06
1.00628463e-06
1.02951659e-06
1.06213005e-06
1.10032636e-06
1.11459083e-06
1.13310395e-06
1.13140105e-06
1.12245915e-06
1.134947e-06
1.12798003e-06
1.09699331e-06
1.09274423e-06
1.10394441e-06
1.08885794e-06
1.06223194e-06
1.04789612e-06
1.04006531e-06
1.03919469e-06
1.03033677e-06
1.03254819e-06
1.02455199e-06
1.00349605e-06
9.98208583e-07
1.00124643e-06
9.93554078e-07
9.79986511e-07
9.77840807e-07
9.76485353e-07
9.64830823e-07
9.61186099e-07
9.54696827e-07
9.53933218e-07
9.59456629e-07
9.55537295e-07
9.52820983e-07
9.50525638e-07
9.52393856e-07
9.46075077e-07
9.34931941e-07
9.32985889e-07
9.27407852e-07
9.13387002e-07
9.05066005e-07
8.9993198e-07
8.99336219e-07
8.92445486e-07
8.69507982e-07
8.81696161e-07
8.77436992e-07
8.64532339e-07
8.4568094e-07
8.44611611e-07
8.53820513e-07
8.54155922e-07
8.55337877e-07
8.56484851e-07
8.53382994e-07
8.54610632e-07
8.43539253e-07
8.50007452e-07
8.80473416e-07
8.82812022e-07
8.81541169e-07
8.72027576e-07
8.8028922e-07
8.7703046e-07
8.63163818e-07
9.01948923e-07
9.02492802e-07
8.71673109e-07
8.63190782e-07
8.99144552e-07
9.01415498e-07
8.86666578e-07
8.79008334e-07
8.86158994e-07
9.07766366e-07
9.10342914e-07
9.12372851e-07
9.14544501e-07
9.11037414e-07
9.15171396e-07
9.25862738e-07
9.12207007e-07
9.08423964e-07
9.44718669e-07
9.42149436e-07
9.26310338e-07
9.10699822e-07
9.04864808e-07
9.33695569e-07
9.28630791e-07
9.14864136e-07
9.07595552e-07
8.82024421e-07
8.64674617e-07
9.00596714e-07
8.90711368e-07
8.61167155e-07
8.492607e-07
8.18002027e-07
7.91309064e-07
8.16208613e-07
8.01259463e-07
7.75211713e-07
7.56370978e-07
7.37578515e-07
7.17853802e-07
6.79714163e-07
6.47163147e-07
6.92907734e-07
6.80545949e-07
6.31305768e-07
6.20595181e-07
5.95065605e-07
5.74796861e-07
6.27640779e-07
6.25159351e-07
5.5937318e-07
5.50809666e-07
6.07827084e-07
6.12639383e-07
5.49446261e-07
5.55300367e-07
6.16731678e-07
6.2417384e-07
6.22874985e-07
5.93799816e-07
5.89979189e-07
6.5909491e-07
6.71120121e-07
6.57584993e-07
6.69530771e-07
6.88222975e-07
7.28227086e-07
7.47172174e-07
7.40152906e-07
7.4666995e-07
8.09074983e-07
8.34772205e-07
8.67483086e-07
8.99119874e-07
9.29795794e-07
9.44996873e-07
9.91055771e-07
1.03307463e-06
1.05517984e-06
1.1139806e-06
1.15414764e-06
1.20574708e-06
1.23935902e-06
1.28824619e-06
1.33431847e-06
1.40363965e-06
1.44857678e-06
1.47698955e-06
1.52444495e-06
1.55740054e-06
1.6715158e-06
1.70502865e-06
1.72717484e-06
1.76742137e-06
1.87685647e-06
1.9144878e-06
1.90201236e-06
1.93949022e-06
1.95413537e-06
2.10100738e-06
2.15770813e-06
2.21019712e-06
2.26259168e-06
2.19572591e-06
2.22622984e-06
2.24637957e-06
2.42999196e-06
2.46434926e-06
2.43139439e-06
2.47002728e-06
2.4819319e-06
2.5071655e-06
2.56012912e-06
2.61834742e-06
2.6392399e-06
2.68456155e-06
2.70524092e-06
2.74060559e-06
2.63176995e-06
2.59282342e-06
2.59094392e-06
2.57654479e-06
2.57421848e-06
2.59139568e-06
2.69090475e-06
2.66318959e-06
2.56318675e-06
2.51714488e-06
2.63082084e-06
2.60253348e-06
2.44946413e-06
2.3638314e-06
2.30471756e-06
2.25009088e-06
2.19188558e-06
2.15556469e-06
2.10749232e-06
2.08568609e-06
2.06229173e-06
1.93966277e-06
1.88999595e-06
1.87298053e-06
1.86653003e-06
1.87095476e-06
1.91149364e-06
1.99125005e-06
2.02592369e-06
1.94287448e-06
1.93290387e-06
1.96531709e-06
2.10312366e-06
2.1087513e-06
2.04186642e-06
2.06149902e-06
2.07695266e-06
2.23743179e-06
2.24787669e-06
2.19410544e-06
2.22002765e-06
2.40896348e-06
2.47184639e-06
2.41039383e-06
2.40392609e-06
2.44739604e-06
2.53994668e-06
2.66427374e-06
2.71734683e-06
2.61095525e-06
2.55402704e-06
2.54108965e-06
2.66899532e-06
2.62633352e-06
2.43185912e-06
2.27781408e-06
2.16822267e-06
2.16878571e-06
2.00331159e-06
1.77975066e-06
1.64069359e-06
1.58712614e-06
1.47399113e-06
1.32377112e-06
1.23493921e-06
1.20787158e-06
1.25707445e-06
1.26976299e-06
1.28201252e-06
1.36042062e-06
1.53215033e-06
1.65923252e-06
1.70945886e-06
1.76459443e-06
1.82613853e-06
1.85738188e-06
1.84667476e-06
1.78781696e-06
1.68737201e-06
1.56068497e-06
1.32736324e-06
1.0286518e-06
7.343601e-07
4.1754399e-07
8.72780979e-08
-2.41984955e-07
-5.59680172e-07
-8.54041546e-07
-1.1167736e-06
-1.34200074e-06
-1.52578258e-06
-1.66900365e-06
-1.77188572e-06
-1.84193546e-06
-1.8786495e-06
-1.89193122e-06
-1.87324848e-06
-1.82913108e-06
-1.87720098e-06
-1.93037063e-06
-1.99502819e-06
-2.06496383e-06
-2.1507458e-06
-2.24447782e-06
-2.35423845e-06
-2.47420972e-06
-2.60818401e-06
-2.778623e-06
-2.95341619e-06
-3.11608705e-06
-3.35844999e-06
-3.58341506e-06
-3.82575481e-06
-4.06657583e-06
-4.29868709e-06
-4.51873767e-06
-4.69850006e-06
-4.91886742e-06
-5.0553435e-06
-5.11707827e-06
-5.02341965e-06
-4.75971663e-06
-3.54121841e-06
-3.14459771e-06
-2.50997732e-06
-1.90275347e-06
-1.26008118e-06
-7.1656166e-07
-3.1096559e-07
-6.78317404e-08
3.28818384e-08
3.20602304e-08
3.52513179e-08
9.57640328e-08
3.92495768e-07
4.80262017e-07
5.60248662e-07
6.14798647e-07
7.42221187e-07
5.91889234e-07
5.16435532e-07
2.87367846e-07
-1.61545794e-06
-4.91025457e-08
-1.04042523e-06
-1.18231338e-06
-1.23286363e-06
-1.12043434e-06
-1.02289005e-06
-8.60353258e-07
-7.75950482e-07
-3.68540885e-07
-1.50498022e-07
-6.63183362e-08
8.31273675e-08
2.27968418e-07
3.67900867e-07
4.41938139e-07
5.08931989e-07
5.79183813e-07
6.47314644e-07
7.34355592e-07
8.26570068e-07
9.36354761e-07
1.05649831e-06
1.18597159e-06
1.32840172e-06
1.48301453e-06
1.64259403e-06
1.80688905e-06
1.96822355e-06
2.12627546e-06
2.27408102e-06
2.41245584e-06
2.53544284e-06
2.64553042e-06
2.73684659e-06
2.8148174e-06
2.87268556e-06
2.91761824e-06
2.94540861e-06
2.96120827e-06
2.96356261e-06
2.95617245e-06
2.93805563e-06
2.9133718e-06
2.88483395e-06
2.85204211e-06
2.81533349e-06
2.77657103e-06
2.735789e-06
2.6945525e-06
2.6528439e-06
2.61163999e-06
2.57052005e-06
2.53063495e-06
2.49185619e-06
2.45467642e-06
2.41918426e-06
2.38557066e-06
2.35371995e-06
2.32377828e-06
2.29562088e-06
2.26926442e-06
2.24465405e-06
2.22174523e-06
2.20050087e-06
2.18084362e-06
2.16276317e-06
2.1461902e-06
2.1310944e-06
2.11737734e-06
2.105044e-06
2.09391029e-06
2.0840675e-06
2.07545637e-06
2.06807156e-06
2.06182255e-06
2.05670649e-06
2.05263402e-06
2.04959991e-06
2.04751983e-06
2.04636255e-06
2.04604367e-06
2.04652514e-06
2.04771573e-06
2.0495582e-06
2.05195115e-06
2.05481163e-06
2.05802283e-06
2.06148712e-06
2.06506673e-06
2.06864706e-06
2.07207367e-06
2.07521418e-06
2.07790283e-06
2.07999521e-06
2.08132699e-06
2.08171404e-06
2.08102401e-06
2.07910321e-06
2.0758032e-06
2.07098834e-06
2.06453193e-06
2.05632973e-06
2.04628912e-06
2.03434776e-06
2.02045956e-06
)
;

boundaryField
{
    closed
    {
        type            calculated;
        value           nonuniform List<scalar> 0();
    }
    open
    {
        type            calculated;
        value           nonuniform List<scalar> 0();
    }
    sides
    {
        type            empty;
        value           nonuniform List<scalar> 0();
    }
    procBoundary4to3
    {
        type            processor;
        value           uniform -7.46260972e-07;
    }
    procBoundary4to5
    {
        type            processor;
        value           uniform 2.00461802e-06;
    }
}


// ************************************************************************* //
