/*--------------------------------*- C++ -*----------------------------------*\
| =========                 |                                                 |
| \\      /  F ield         | OpenFOAM: The Open Source CFD Toolbox           |
|  \\    /   O peration     | Version:  2306                                  |
|   \\  /    A nd           | Website:  www.openfoam.com                      |
|    \\/     M anipulation  |                                                 |
\*---------------------------------------------------------------------------*/
FoamFile
{
    version     2.0;
    format      ascii;
    arch        "LSB;label=32;scalar=64";
    class       volScalarField;
    location    "0.0018";
    object      prefDh_T;
}
// * * * * * * * * * * * * * * * * * * * * * * * * * * * * * * * * * * * * * //

dimensions      [1 1 -3 -1 0 0 0];

internalField   nonuniform List<scalar> 
531
(
-0.000597235187
-0.000500999484
-0.000517219658
-0.000418935469
-0.000421822608
-0.000738390755
-0.000742635078
-0.000737872474
-0.000743090287
-0.00074039892
-0.000551934855
-0.000492999368
-0.000745515955
-0.000739129267
-0.000574503029
-0.000407432456
-0.000429560189
-0.000736530845
-0.000741467864
-0.000737852328
-0.000741655912
-0.000740738624
-0.000604492636
-0.000529733554
-0.000491486952
-0.000491837027
-0.000736786737
-0.000741503268
-0.000529529171
-0.000499858595
-0.000736714641
-0.000742468
-0.000510106208
-0.000507328634
-0.000739117253
-0.000739977533
-0.0007391866
-0.000559351849
-0.000503220982
-0.000740960839
-0.000739943178
-0.000739776182
-0.000741389882
-0.000598105764
-0.000519490555
-0.000519635164
-0.000489366614
-0.000406370833
-0.00040804513
-0.000738411581
-0.000742577376
-0.000738173965
-0.000745058913
-0.000739089163
-0.000599119412
-0.000504640596
-0.000506149005
-0.000738309841
-0.000745988501
-0.000604475275
-0.000565017515
-0.000742919604
-0.000743448698
-0.000602295697
-0.000560018606
-0.000524576821
-0.000525449584
-0.000742781608
-0.000742002885
-0.000738834733
-0.00059865278
-0.000498955016
-0.000519291857
-0.000428423597
-0.000433891387
-0.000738355346
-0.000743653863
-0.000735576441
-0.000744995001
-0.000560052121
-0.000540534234
-0.000744294812
-0.000742524052
-0.000737809623
-0.000601445011
-0.000487757266
-0.000492423948
-0.000741678811
-0.000739462987
-0.000601194274
-0.000472695962
-0.000479969012
-0.000737898443
-0.000740297541
-0.000538391255
-0.000500933728
-0.000741209067
-0.000737817868
-0.00073873027
-0.000738286893
-0.000605146152
-0.000440939622
-0.000513476677
-0.000737641447
-0.000601470001
-0.000447333432
-0.00074320228
-0.000732231845
-0.000577392505
-0.0004293571
-0.000440685885
-0.000733212305
-0.000738691871
-0.000733502908
-0.000739484165
-0.000569453017
-0.000477773566
-0.000742389917
-0.000735967437
-0.000570019355
-0.000439262403
-0.000448925278
-0.000734147367
-0.000742920162
-0.000521090779
-0.00050465344
-0.000736554078
-0.000742436846
-0.000735893918
-0.000743685898
-0.000739123832
-0.000602585196
-0.000533416335
-0.000507450764
-0.000508430025
-0.000742869581
-0.000737458204
-0.000603119409
-0.000448938063
-0.000527360581
-0.000735129418
-0.000603612053
-0.000457655114
-0.000739692314
-0.000730671799
-0.000569609793
-0.000401180865
-0.000408045505
-0.000726954317
-0.000736926758
-0.000728956526
-0.000738384078
-0.000732574731
-0.000739880188
-0.000518514667
-0.000488050137
-0.0007348809
-0.000738531707
-0.000736395244
-0.000592423187
-0.000467777678
-0.000465455114
-0.000465491594
-0.000733378877
-0.000736842596
-0.000530343553
-0.000492957428
-0.000736270923
-0.000736869104
-0.000576776926
-0.000443039019
-0.000461420688
-0.000733966358
-0.000741823689
-0.000737675286
-0.000743258169
-0.000742020191
-0.000594877358
-0.000554479857
-0.000522087022
-0.000519501995
-0.000738718578
-0.000742348895
-0.000566633882
-0.000435922951
-0.000437937025
-0.000734884895
-0.00074460223
-0.000739238552
-0.000745667566
-0.000602197606
-0.000535614918
-0.000738914323
-0.000743189218
-0.000602628444
-0.000529731688
-0.000498933819
-0.000499005679
-0.000736699909
-0.000742050767
-0.000739487007
-0.000743293155
-0.000594425403
-0.000554646544
-0.000537973086
-0.00053769018
-0.000735790542
-0.000744523063
-0.000594362337
-0.000523228283
-0.00049443378
-0.000494864011
-0.000734851947
-0.000744602906
-0.000536796074
-0.000508803251
-0.000736250157
-0.000745378068
-0.000534003882
-0.000526591331
-0.000737790777
-0.00074429209
-0.000743306707
-0.000591334101
-0.000526737654
-0.000741895564
-0.000742121311
-0.00059561056
-0.000502138626
-0.000504321483
-0.000738028622
-0.000746860658
-0.000595512791
-0.000563825224
-0.00073946537
-0.000743518915
-0.000601893263
-0.00055827366
-0.00052450971
-0.000538433275
-0.000744217667
-0.000594126596
-0.000502704308
-0.00073585105
-0.000744139911
-0.000539893511
-0.000516900758
-0.000736409089
-0.000743974624
-0.000520434186
-0.000520654386
-0.000737361406
-0.000741416632
-0.000742174676
-0.000574853008
-0.00050479102
-0.00073630935
-0.000743084262
-0.000532143736
-0.000531221068
-0.000736391404
-0.000741026735
-0.000741524026
-0.000600812041
-0.000473977661
-0.000466960037
-0.000469625938
-0.000739609155
-0.00074162517
-0.000743841391
-0.000540637989
-0.000491840257
-0.000737881972
-0.000741289186
-0.00074559545
-0.00074277544
-0.000591695883
-0.00053289977
-0.000557338148
-0.000506252558
-0.000511413503
-0.000456534383
-0.000470079798
-0.000738275336
-0.00074476628
-0.000742718611
-0.000744600609
-0.000744538182
-0.000591591068
-0.000545834078
-0.000738519603
-0.000743247791
-0.000597437899
-0.000496705594
-0.000536990588
-0.000737821648
-0.000745156546
-0.000745361368
-0.00059928869
-0.000521061449
-0.000519698198
-0.000488632755
-0.00041729383
-0.000437789164
-0.000738545421
-0.000742806954
-0.000740938538
-0.000742630776
-0.00074400633
-0.00055997935
-0.000457572443
-0.000494738118
-0.000737351935
-0.000745700242
-0.000532755585
-0.000529978995
-0.000741631676
-0.000745126457
-0.000746040924
-0.000577915091
-0.000525904882
-0.000745001034
-0.000747175604
-0.000574803134
-0.000481079833
-0.000527287844
-0.00074724037
-0.000753945976
-0.000754626131
-0.000585794877
-0.000500365621
-0.000519087392
-0.000755729128
-0.000760800157
-0.000575862181
-0.000483510355
-0.000508706286
-0.000764332459
-0.000770928826
-0.00053960672
-0.000512773053
-0.000774773908
-0.000780963867
-0.000549603382
-0.000459738566
-0.000483837525
-0.00079379523
-0.00080121481
-0.000494079135
-0.000459552574
-0.000814242103
-0.000808857269
-0.000475298542
-0.000380844467
-0.000415170935
-0.000791685052
-0.000793699411
-0.000789511079
-0.000788401075
-0.000786996542
-0.000781231557
-0.000397333531
-0.000367964575
-0.000761429129
-0.000763135783
-0.000754277792
-0.000756975969
-0.000749225171
-0.000752176304
-0.000746199147
-0.000749678127
-0.000745618607
-0.00075026149
-0.000749188667
-0.000756311955
-0.000760230812
-0.000773604769
-0.000787796292
-0.000821540385
-0.00087061267
-0.000856562845
-0.000820534576
-0.000783192278
-0.000749529579
-0.000719429318
-0.000691031627
-0.000668001484
-0.00064733769
-0.000632089801
-0.000607321301
-0.000585192622
-0.000576401144
-0.000569905751
-0.000550614778
-0.000527630731
-0.000512841193
-0.000493704872
-0.000484821192
-0.000469957632
-0.000440750296
-0.000396552453
-0.000360035923
-0.000319208783
-0.000284334297
-0.000430101133
-0.000675931862
-0.000611002294
-0.00054459637
-0.000470283713
-0.000409179065
-0.000331255275
-0.000272162286
-0.000191040472
-0.000132635691
-4.51493931e-05
-2.299917e-05
-9.08567115e-05
-0.000126815955
-1.12642839e-05
-3.88042611e-08
-6.73410686e-05
-0.000419123983
-0.000349760031
-0.000414519824
-0.000495368949
-0.000621579058
-0.000769036392
-0.000770283744
-0.000760982659
-0.00075492591
-0.000695687603
-0.000650752996
-0.000503107895
-0.000416943383
-0.000177934843
-0.000141368906
3.24838679e-05
2.34219389e-05
0.000135867712
8.01858306e-05
0.000163002889
8.8043797e-05
0.000155135137
7.04306845e-05
0.000117404509
3.97707987e-06
6.72850849e-05
-2.28149443e-05
6.82309188e-05
1.45310585e-05
0.000121815782
8.6707113e-05
0.000203499059
0.000179970276
0.00029117322
0.00026494663
0.000368567
0.000367784301
0.000511360064
0.000559449369
0.000732549893
0.000820125308
0.00100954603
0.00112850724
0.0013308375
0.00147848353
0.00169862995
0.00188537144
0.00209338312
0.00221894203
0.0023906356
0.00250914539
0.0026717973
0.00278722441
0.00294161024
0.00305377423
0.0032034998
0.00333432307
0.0034977332
0.00363028273
0.00378917145
0.00390741281
0.00404317964
0.00415290292
0.0042749692
0.00437498129
0.00448845164
0.00458239994
0.004687647
0.00477795404
0.00487783945
0.00496394164
0.00505291187
0.00513235952
0.00521655893
0.00529682831
0.00538382785
0.00546615842
0.00554693173
0.00562258693
0.00569623267
0.00576645723
0.0058341208
0.00589635656
0.00595299644
0.00600981506
0.00606344143
0.00611818806
0.00616906863
0.0062218704
0.00626912957
0.00631832497
0.00636286
0.00641068514
0.00645348032
0.00649995825
0.00654113565
0.00658629547
0.00662596758
0.00666912294
0.00670282782
0.00674182405
0.00677561573
0.00681281142
0.00684483817
0.00688032921
0.0069107232
0.00694459759
0.00697348016
0.00700582186
0.00703330272
)
;

boundaryField
{
    closed
    {
        type            calculated;
        value           nonuniform List<scalar> 0();
    }
    open
    {
        type            calculated;
        value           nonuniform List<scalar> 0();
    }
    sides
    {
        type            empty;
    }
    procBoundary4to3
    {
        type            processor;
        value           uniform -0.0007405294;
    }
    procBoundary4to5
    {
        type            processor;
        value           uniform 0.00706419256;
    }
}


// ************************************************************************* //
