/*--------------------------------*- C++ -*----------------------------------*\
| =========                 |                                                 |
| \\      /  F ield         | OpenFOAM: The Open Source CFD Toolbox           |
|  \\    /   O peration     | Version:  2306                                  |
|   \\  /    A nd           | Website:  www.openfoam.com                      |
|    \\/     M anipulation  |                                                 |
\*---------------------------------------------------------------------------*/
FoamFile
{
    version     2.0;
    format      ascii;
    arch        "LSB;label=32;scalar=64";
    class       volScalarField;
    location    "0.0018";
    object      prefDh_H;
}
// * * * * * * * * * * * * * * * * * * * * * * * * * * * * * * * * * * * * * //

dimensions      [1 1 -3 0 0 0 0];

internalField   nonuniform List<scalar> 
531
(
23386.8852
23033.1445
23093.8576
22742.8157
22755.435
23917.0033
23943.0008
23920.8143
23947.1661
23936.8013
23216.8257
23005.578
23949.5911
23928.6624
23297.8542
22701.7042
22782.5745
23911.5694
23940.0724
23922.7291
23944.3399
23940.1499
23406.5587
23135.6161
22999.3108
23001.9359
23913.739
23940.4817
23133.471
23030.9843
23912.4873
23944.5688
23064.9355
23057.4002
23919.157
23936.9216
23928.4657
23241.6449
23041.5914
23928.6795
23934.8939
23932.8918
23940.5946
23394.1218
23099.5794
23100.6396
22993.0812
22699.2735
22706.0852
23916.6361
23943.3462
23922.8158
23956.6207
23933.042
23388.539
23045.2551
23055.3294
23925.309
23959.7944
23400.9202
23263.1989
23943.7296
23951.7828
23402.6451
23244.246
23117.3327
23121.6714
23940.2438
23947.2143
23930.8941
23391.3488
23025.4815
23100.9687
22775.8776
22798.2609
23918.8544
23946.891
23914.6129
23953.8975
23242.6769
23176.0348
23944.4131
23949.5326
23925.1616
23397.4849
22985.5409
23004.6969
23938.8928
23931.7422
23390.7471
22931.7355
22960.2158
23922.4921
23935.6761
23164.9201
23033.5772
23931.7866
23926.0587
23928.9354
23927.0808
23406.5647
22819.2985
23079.4747
23918.1935
23392.4368
22841.4274
23943.5148
23902.1994
23306.0529
22777.207
22820.8594
23901.0012
23927.3889
23908.1476
23930.9077
23276.2728
22950.7857
23938.8112
23917.2647
23280.5753
22812.8246
22851.0067
23905.7666
23944.9085
23102.4459
23048.3536
23910.9947
23946.2925
23915.1104
23953.0551
23933.8615
23398.9317
23148.203
23057.5638
23059.9583
23939.6361
23923.6811
23399.2355
22847.0117
23128.7457
23908.4471
23403.4494
22877.3355
23928.5361
23895.9725
23278.0565
22677.436
22705.1275
23874.3889
23919.1525
23886.5866
23925.2485
23904.1137
23932.2151
23094.1821
22988.1305
23902.228
23931.739
23917.7498
23359.0349
22914.2672
22906.7546
22907.0119
23899.1465
23921.8409
23136.4371
23004.3926
23912.1433
23921.0698
23304.3314
22826.7422
22894.7894
23903.9026
23943.2042
23924.8057
23951.8229
23947.0478
23387.3227
23224.8252
23109.0906
23100.9413
23921.3004
23942.5295
23269.962
22803.3771
22812.9374
23906.351
23950.7584
23931.7386
23956.5044
23395.4781
23158.4815
23925.3265
23948.7442
23397.8073
23136.4102
23027.3498
23027.8911
23913.2261
23943.7589
23933.768
23949.7468
23395.3911
23226.5108
23164.9463
23166.5581
23912.0046
23953.705
23367.0598
23114.0344
23010.4741
23013.9661
23906.1228
23952.2752
23160.7817
23063.6784
23911.1022
23955.8187
23151.2864
23126.9256
23916.2895
23954.9349
23946.3376
23357.9023
23126.2379
23936.8818
23943.4413
23374.3103
23037.3097
23048.6511
23925.0254
23962.5407
23370.6661
23259.0052
23929.0307
23951.3744
23397.8449
23237.354
23118.9478
23166.6521
23946.1371
23365.7859
23041.2313
23912.7311
23950.6555
23172.1901
23091.6422
23913.0629
23950.1427
23103.7693
23104.6794
23915.1939
23943.1385
23939.2937
23298.4547
23048.0394
23914.2791
23946.801
23145.6895
23141.827
23912.7964
23942.9213
23936.7512
23391.9582
22937.922
22914.7553
22922.9918
23924.9812
23941.428
23945.4067
23177.8219
23002.3393
23919.9271
23940.1857
23958.1919
23947.3921
23377.8978
23147.438
23237.2059
23053.0858
23073.6395
22877.3102
22926.648
23922.3126
23954.0001
23943.4483
23955.6554
23953.0658
23359.9822
23193.8334
23927.5875
23948.5514
23382.1271
23018.6184
23164.9614
23923.8907
23959.6043
23957.0091
23390.8
23105.1822
23102.1734
22990.8615
22739.2322
22811.4852
23920.8058
23944.5463
23933.5855
23946.3004
23948.3536
23246.214
22879.6582
23013.7986
23921.5707
23954.6772
23148.5001
23138.9385
23936.3592
23958.1606
23956.0916
23311.7495
23124.2351
23952.7705
23962.1076
23302.6383
22965.5243
23133.4741
23960.2308
23992.2769
23990.8833
23344.4761
23036.937
23106.5225
23995.1041
24013.223
23312.0458
22980.7109
23073.0376
24026.696
24052.7173
23187.0942
23091.4976
24066.1836
24090.1828
23229.8405
22906.7939
22996.3411
24137.6975
24166.4857
23040.7684
22918.5972
24214.3385
24198.1275
22986.3333
22646.4622
22776.4128
24144.0425
24157.4561
24145.089
24145.5793
24144.9529
24127.9915
22761.4518
22665.1962
24067.729
24085.1197
24054.4758
24075.2649
24049.6426
24071.8756
24054.2307
24078.5591
24069.5828
24098.3578
24102.0011
24140.2521
24163.9333
24225.8346
24289.1796
24427.7193
24621.5258
24591.9099
24479.2539
24364.0945
24262.3453
24173.7138
24092.733
24030.7133
23978.6503
23946.5083
23873.0604
23811.1427
23799.4667
23794.2796
23735.1143
23676.1476
23648.6075
23621.2219
23628.2366
23630.1567
23555.1978
23427.6298
23320.9231
23203.5117
23105.2414
23686.8152
24817.8932
24607.902
24389.0958
24148.7422
23945.5627
23691.6773
23494.1027
23227.0485
23030.1585
22738.9816
22704.9599
23083.8854
23303.7217
22927.3087
22889.0086
23602.5661
25957.8197
26056.338
26594.4576
28188.6917
31196.8103
33556.4371
34505.47
35503.5361
36499.7154
38197.3763
40029.5197
42702.8152
45276.9517
49785.9812
51749.831
53987.6333
56286.5397
58526.593
60343.9109
62011.1742
63327.3551
64863.422
66056.5045
67546.245
68835.0823
70113.4907
71218.6183
72185.9316
72927.0008
73794.2855
74479.5733
75259.5286
75900.8247
76605.2203
77198.6956
77818.2906
78357.2586
78891.4302
79404.4517
79854.6674
80348.3393
80776.938
81237.9833
81652.3794
82107.8942
82538.927
83040.1627
83415.8413
83700.5605
83970.3567
84219.0956
84465.5563
84690.4779
84915.5232
85121.7421
85337.3581
85577.97
85827.0622
86072.3763
86321.9322
86545.122
86752.1243
86954.6631
87139.7302
87322.4922
87492.1831
87662.963
87823.0797
87986.5897
88139.0788
88293.4851
88428.311
88568.9379
88697.2587
88840.8716
88984.0317
89142.9359
89283.986
89427.8131
89556.6187
89688.1946
89807.0235
89923.1608
90024.7285
90130.2631
90227.3502
90327.8588
90420.9198
90516.8967
90607.295
90701.2154
90789.9321
90881.1657
90967.868
91056.651
91141.5348
91228.1036
91311.3619
91394.6778
91468.6823
91545.6654
91621.4472
91695.0601
91767.8745
91838.3799
91908.4274
91976.0636
92043.539
92108.5254
92173.6132
)
;

boundaryField
{
    closed
    {
        type            calculated;
        value           nonuniform List<scalar> 0();
    }
    open
    {
        type            calculated;
        value           nonuniform List<scalar> 0();
    }
    sides
    {
        type            empty;
    }
    procBoundary4to3
    {
        type            processor;
        value           uniform 23938.4513;
    }
    procBoundary4to5
    {
        type            processor;
        value           uniform 92236.1516;
    }
}


// ************************************************************************* //
