/*--------------------------------*- C++ -*----------------------------------*\
| =========                 |                                                 |
| \\      /  F ield         | OpenFOAM: The Open Source CFD Toolbox           |
|  \\    /   O peration     | Version:  2306                                  |
|   \\  /    A nd           | Website:  www.openfoam.com                      |
|    \\/     M anipulation  |                                                 |
\*---------------------------------------------------------------------------*/
FoamFile
{
    version     2.0;
    format      ascii;
    arch        "LSB;label=32;scalar=64";
    class       volVectorField;
    location    "0.0002";
    object      U;
}
// * * * * * * * * * * * * * * * * * * * * * * * * * * * * * * * * * * * * * //

dimensions      [0 1 -1 0 0 0 0];

internalField   nonuniform List<vector> 
531
(
(-0.624985708 0 0)
(-0.635319421 0 0)
(-0.646077678 0 0)
(-0.657115344 0 0)
(-0.668297804 0 0)
(-0.67958206 0 0)
(-0.691024096 0 0)
(-0.702630146 0 0)
(-0.714317064 0 0)
(-0.7260563 0 0)
(-0.737859071 0 0)
(-0.74972203 0 0)
(-0.761632259 0 0)
(-0.7735861 0 0)
(-0.785589623 0 0)
(-0.797652759 0 0)
(-0.809787801 0 0)
(-0.822010358 0 0)
(-0.834339323 0 0)
(-0.846795518 0 0)
(-0.85940017 0 0)
(-0.872173689 0 0)
(-0.88513443 0 0)
(-0.898297252 0 0)
(-0.911671989 0 0)
(-0.925261963 0 0)
(-0.939062537 0 0)
(-0.953059696 0 0)
(-0.967228708 0 0)
(-0.981532921 0 0)
(-0.995922758 0 0)
(-1.01033495 0 0)
(-1.02469207 0 0)
(-1.03890237 0 0)
(-1.05286006 0 0)
(-1.06644587 0 0)
(-1.07952811 0 0)
(-1.09196405 0 0)
(-1.10360174 0 0)
(-1.11428219 0 0)
(-1.12384185 0 0)
(-1.13211542 0 0)
(-1.13893894 0 0)
(-1.14415294 0 0)
(-1.14760584 0 0)
(-1.14915731 0 0)
(-1.14868158 0 0)
(-1.14607068 0 0)
(-1.14123742 0 0)
(-1.1341181 0 0)
(-1.12467489 0 0)
(-1.11289779 0 0)
(-1.09880607 0 0)
(-1.08244927 0 0)
(-1.06390759 0 0)
(-1.04329178 0 0)
(-1.02074237 0 0)
(-0.996428427 0 0)
(-0.970545703 0 0)
(-0.943314297 0 0)
(-0.914975829 0 0)
(-0.88579019 0 0)
(-0.856031929 0 0)
(-0.825986319 0 0)
(-0.795945181 0 0)
(-0.766202561 0 0)
(-0.737050346 0 0)
(-0.708773895 0 0)
(-0.681647758 0 0)
(-0.655931571 0 0)
(-0.631866199 0 0)
(-0.609670209 0 0)
(-0.589536733 0 0)
(-0.571630784 0 0)
(-0.556087079 0 0)
(-0.543008408 0 0)
(-0.532464576 0 0)
(-0.524491939 0 0)
(-0.519093533 0 0)
(-0.516239785 0 0)
(-0.515869785 0 0)
(-0.517893076 0 0)
(-0.522191911 0 0)
(-0.528623919 0 0)
(-0.537025101 0 0)
(-0.547213079 0 0)
(-0.558990512 0 0)
(-0.572148593 0 0)
(-0.58647054 0 0)
(-0.601734989 0 0)
(-0.617719231 0 0)
(-0.634202221 0 0)
(-0.650967294 0 0)
(-0.667804579 0 0)
(-0.684513068 0 0)
(-0.700902305 0 0)
(-0.716793725 0 0)
(-0.732021657 0 0)
(-0.746434031 0 0)
(-0.759892821 0 0)
(-0.772274266 0 0)
(-0.783468927 0 0)
(-0.793381625 0 0)
(-0.801931302 0 0)
(-0.809050851 0 0)
(-0.814686956 0 0)
(-0.818799962 0 0)
(-0.821363798 0 0)
(-0.822365961 0 0)
(-0.821807561 0 0)
(-0.819703413 0 0)
(-0.816082155 0 0)
(-0.810986378 0 0)
(-0.804472717 0 0)
(-0.796611877 0 0)
(-0.787488555 0 0)
(-0.777201224 0 0)
(-0.765861741 0 0)
(-0.75359474 0 0)
(-0.740536814 0 0)
(-0.72683544 0 0)
(-0.712647667 0 0)
(-0.698138561 0 0)
(-0.68347942 0 0)
(-0.668845786 0 0)
(-0.654415265 0 0)
(-0.640365259 0 0)
(-0.626870832 0 0)
(-0.614102639 0 0)
(-0.602223419 0 0)
(-0.591383424 0 0)
(-0.58172283 0 0)
(-0.573379293 0 0)
(-0.56647548 0 0)
(-0.561107238 0 0)
(-0.557348725 0 0)
(-0.555259817 0 0)
(-0.554892736 0 0)
(-0.556284937 0 0)
(-0.559448105 0 0)
(-0.564369227 0 0)
(-0.571031752 0 0)
(-0.579406376 0 0)
(-0.589431354 0 0)
(-0.601041545 0 0)
(-0.614165102 0 0)
(-0.628695722 0 0)
(-0.644515554 0 0)
(-0.661508888 0 0)
(-0.679527844 0 0)
(-0.698395432 0 0)
(-0.717938731 0 0)
(-0.737963014 0 0)
(-0.758230175 0 0)
(-0.778487158 0 0)
(-0.798454582 0 0)
(-0.817825504 0 0)
(-0.836282903 0 0)
(-0.853472337 0 0)
(-0.869012961 0 0)
(-0.882504368 0 0)
(-0.893533548 0 0)
(-0.901699465 0 0)
(-0.906583769 0 0)
(-0.907764762 0 0)
(-0.904848301 0 0)
(-0.897471995 0 0)
(-0.885322429 0 0)
(-0.868130867 0 0)
(-0.845691825 0 0)
(-0.817878888 0 0)
(-0.784652255 0 0)
(-0.746080343 0 0)
(-0.702336941 0 0)
(-0.653711056 0 0)
(-0.600613265 0 0)
(-0.543577345 0 0)
(-0.483259811 0 0)
(-0.420434536 0 0)
(-0.355995107 0 0)
(-0.290932386 0 0)
(-0.226318179 0 0)
(-0.163300102 0 0)
(-0.103085999 0 0)
(-0.0469195153 0 0)
(0.00458604473 0 0)
(0.0496885033 0 0)
(0.0873267598 0 0)
(0.116687738 0 0)
(0.136286836 0 0)
(0.145992807 0 0)
(0.14473615 0 0)
(0.132545101 0 0)
(0.109082541 0 0)
(0.0742774182 0 0)
(0.0292392658 0 0)
(-0.0258149223 0 0)
(-0.0893434498 0 0)
(-0.161132522 0 0)
(-0.239901527 0 0)
(-0.32346162 0 0)
(-0.410960103 0 0)
(-0.500074338 0 0)
(-0.590117254 0 0)
(-0.678960675 0 0)
(-0.765274586 0 0)
(-0.848084785 0 0)
(-0.925392833 0 0)
(-0.996769692 0 0)
(-1.06114146 0 0)
(-1.11824172 0 0)
(-1.16728127 0 0)
(-1.20877115 0 0)
(-1.24235825 0 0)
(-1.26861795 0 0)
(-1.28817301 0 0)
(-1.30086923 0 0)
(-1.30781186 0 0)
(-1.30927854 0 0)
(-1.3062741 0 0)
(-1.29915766 0 0)
(-1.28891136 0 0)
(-1.27615104 0 0)
(-1.2610761 0 0)
(-1.24433011 0 0)
(-1.22630944 0 0)
(-1.20707996 0 0)
(-1.18731635 0 0)
(-1.16730887 0 0)
(-1.14663991 0 0)
(-1.12566176 0 0)
(-1.1043348 0 0)
(-1.08259508 0 0)
(-1.06049915 0 0)
(-1.03803302 0 0)
(-1.0151971 0 0)
(-0.991975959 0 0)
(-0.968449866 0 0)
(-0.944547637 0 0)
(-0.920553032 0 0)
(-0.896631018 0 0)
(-0.872572858 0 0)
(-0.848800849 0 0)
(-0.82525742 0 0)
(-0.802523657 0 0)
(-0.780764083 0 0)
(-0.759831625 0 0)
(-0.740056301 0 0)
(-0.721638129 0 0)
(-0.704756037 0 0)
(-0.689463203 0 0)
(-0.675937221 0 0)
(-0.664149037 0 0)
(-0.654187038 0 0)
(-0.646018497 0 0)
(-0.639629178 0 0)
(-0.63493262 0 0)
(-0.631860382 0 0)
(-0.630275504 0 0)
(-0.630080344 0 0)
(-0.631053161 0 0)
(-0.633220071 0 0)
(-0.636434352 0 0)
(-0.640416715 0 0)
(-0.645106494 0 0)
(-0.650405304 0 0)
(-0.656122658 0 0)
(-0.662397746 0 0)
(-0.669066523 0 0)
(-0.676052607 0 0)
(-0.683388792 0 0)
(-0.690785834 0 0)
(-0.698286203 0 0)
(-0.705733074 0 0)
(-0.713222182 0 0)
(-0.720639767 0 0)
(-0.727746164 0 0)
(-0.734501657 0 0)
(-0.740807155 0 0)
(-0.746556911 0 0)
(-0.751658747 0 0)
(-0.756036652 0 0)
(-0.759641476 0 0)
(-0.76245603 0 0)
(-0.7645026 0 0)
(-0.765846763 0 0)
(-0.766596398 0 0)
(-0.766882772 0 0)
(-0.766864071 0 0)
(-0.76685996 0 0)
(-0.767096473 0 0)
(-0.767727413 0 0)
(-0.769029123 0 0)
(-0.77121364 0 0)
(-0.774452249 0 0)
(-0.778848557 0 0)
(-0.784435787 0 0)
(-0.791155799 0 0)
(-0.798857153 0 0)
(-0.807287233 0 0)
(-0.816100063 0 0)
(-0.824863595 0 0)
(-0.833080593 0 0)
(-0.840210766 0 0)
(-0.845703409 0 0)
(-0.849029374 0 0)
(-0.84971897 0 0)
(-0.847395937 0 0)
(-0.841817616 0 0)
(-0.832884821 0 0)
(-0.820667658 0 0)
(-0.805409341 0 0)
(-0.787509853 0 0)
(-0.767522611 0 0)
(-0.746110877 0 0)
(-0.724010597 0 0)
(-0.701981956 0 0)
(-0.680762092 0 0)
(-0.66101619 0 0)
(-0.643298038 0 0)
(-0.628018092 0 0)
(-0.61542679 0 0)
(-0.605609936 0 0)
(-0.598500644 0 0)
(-0.593902627 0 0)
(-0.591525551 0 0)
(-0.591024846 0 0)
(-0.592044765 0 0)
(-0.594256905 0 0)
(-0.597391933 0 0)
(-0.601258743 0 0)
(-0.605750659 0 0)
(-0.610836281 0 0)
(-0.61653751 0 0)
(-0.622896498 0 0)
(-0.629936473 0 0)
(-0.637621568 0 0)
(-0.645820642 0 0)
(-0.654282291 0 0)
(-0.662622547 0 0)
(-0.670331721 0 0)
(-0.676781957 0 0)
(-0.681300852 0 0)
(-0.683224308 0 0)
(-0.681937239 0 0)
(-0.676966396 0 0)
(-0.668051336 0 0)
(-0.655207264 0 0)
(-0.638773957 0 0)
(-0.619448299 0 0)
(-0.598293538 0 0)
(-0.576722602 0 0)
(-0.556451657 0 0)
(-0.539430857 0 0)
(-0.527754647 0 0)
(-0.523538047 0 0)
(-0.52876862 0 0)
(-0.545167539 0 0)
(-0.574045724 0 0)
(-0.616158707 0 0)
(-0.671594776 0 0)
(-0.739678747 0 0)
(-0.81892705 0 0)
(-0.907072669 0 0)
(-1.00114771 0 0)
(-1.09761879 0 0)
(-1.19257367 0 0)
(-1.28195902 0 0)
(-1.36183383 0 0)
(-1.4285733 0 0)
(-1.47906701 0 0)
(-1.51087029 0 0)
(-1.52226196 0 0)
(-1.51225316 0 0)
(-1.48056655 0 0)
(-1.42753067 0 0)
(-1.3539793 0 0)
(-1.26112537 0 0)
(-1.1505339 0 0)
(-1.02400772 0 0)
(-0.883605399 0 0)
(-0.731651199 0 0)
(-0.570723857 0 0)
(-0.403752286 0 0)
(-0.233983736 0 0)
(-0.0649575567 0 0)
(0.0996668756 0 0)
(0.255922842 0 0)
(0.399595807 0 0)
(0.526873994 0 0)
(0.635396183 0 0)
(0.722324874 0 0)
(0.784773912 0 0)
(0.820010254 0 0)
(0.836983351 0 0)
(0.839970331 0 0)
(0.816636178 0 0)
(0.78128343 0 0)
(0.72422298 0 0)
(0.695456878 0 0)
(0.674206442 0 0)
(0.636588104 0 0)
(0.610684414 0 0)
(0.576841357 0 0)
(0.584704798 0 0)
(0.562509317 0 0)
(0.577400022 0 0)
(0.553872452 0 0)
(0.481126603 0 0)
(0.408042843 0 0)
(0.288387075 0 0)
(0.121343669 0 0)
(-0.0968074221 0 0)
(-0.359773429 0 0)
(-0.655285297 0 0)
(-0.978778882 0 0)
(-1.31107142 0 0)
(-1.6189151 0 0)
(-1.88241822 0 0)
(-2.07162789 0 0)
(-2.21725936 0 0)
(-2.25662757 0 0)
(-2.17900373 0 0)
(-2.01140039 0 0)
(-1.81497616 0 0)
(-1.64813691 0 0)
(-1.65389767 0 0)
(-2.08715465 0 0)
(-2.62428431 0 0)
(-2.86317267 0 0)
(-3.10462912 0 0)
(-3.35508352 0 0)
(-3.38636196 0 0)
(-3.51720961 0 0)
(-3.15220952 0 0)
(-2.31660817 0 0)
(-1.35386007 0 0)
(-0.717088929 0 0)
(1.1172707 0 0)
(1.28065792 0 0)
(0.575889179 0 0)
(1.13285001 0 0)
(1.05043315 0 0)
(1.25958281 0 0)
(1.36602747 0 0)
(1.55078332 0 0)
(1.68421568 0 0)
(1.79421393 0 0)
(1.89170675 0 0)
(1.97829043 0 0)
(2.05768412 0 0)
(2.12376184 0 0)
(2.1788155 0 0)
(2.22515905 0 0)
(2.26214084 0 0)
(2.29316474 0 0)
(2.31678339 0 0)
(2.33434611 0 0)
(2.34044692 0 0)
(2.33913173 0 0)
(2.33010236 0 0)
(2.31156105 0 0)
(2.27828832 0 0)
(2.23051873 0 0)
(2.16479087 0 0)
(2.08298033 0 0)
(1.9862624 0 0)
(1.87405158 0 0)
(1.74235764 0 0)
(1.60099319 0 0)
(1.44691958 0 0)
(1.28419786 0 0)
(1.1116348 0 0)
(0.930700591 0 0)
(0.748799686 0 0)
(0.566904816 0 0)
(0.38658223 0 0)
(0.209589203 0 0)
(0.0413291252 0 0)
(-0.116901551 0 0)
(-0.261838006 0 0)
(-0.393456411 0 0)
(-0.509376284 0 0)
(-0.609273699 0 0)
(-0.693052679 0 0)
(-0.761317622 0 0)
(-0.814305589 0 0)
(-0.851591951 0 0)
(-0.875892514 0 0)
(-0.892184524 0 0)
(-0.901393282 0 0)
(-0.905220178 0 0)
(-0.904927303 0 0)
(-0.902412019 0 0)
(-0.899667503 0 0)
(-0.898303109 0 0)
(-0.899307773 0 0)
(-0.903327345 0 0)
(-0.910902103 0 0)
(-0.922414513 0 0)
(-0.937935115 0 0)
(-0.956659749 0 0)
(-0.977963744 0 0)
(-1.00158367 0 0)
(-1.02657819 0 0)
(-1.05184456 0 0)
(-1.07613457 0 0)
(-1.09818086 0 0)
(-1.11666712 0 0)
(-1.13036008 0 0)
(-1.13781688 0 0)
(-1.13820398 0 0)
(-1.13040658 0 0)
(-1.1131402 0 0)
(-1.08606539 0 0)
(-1.04867965 0 0)
(-1.00050708 0 0)
(-0.941326635 0 0)
(-0.871221129 0 0)
(-0.790472808 0 0)
(-0.699682474 0 0)
(-0.599486788 0 0)
(-0.490780426 0 0)
(-0.374446687 0 0)
(-0.251582702 0 0)
(-0.123159518 0 0)
(0.00957974805 0 0)
(0.145358362 0 0)
(0.283006421 0 0)
(0.421356892 0 0)
(0.559298909 0 0)
)
;

boundaryField
{
    closed
    {
        type            noSlip;
    }
    open
    {
        type            inletOutlet;
        inletValue      nonuniform List<vector> 0();
        value           nonuniform List<vector> 0();
    }
    sides
    {
        type            empty;
    }
    procBoundary4to3
    {
        type            processor;
        value           uniform (-0.614957617 0 0);
    }
    procBoundary4to5
    {
        type            processor;
        value           uniform (0.695957215 0 0);
    }
}


// ************************************************************************* //
