/*--------------------------------*- C++ -*----------------------------------*\
| =========                 |                                                 |
| \\      /  F ield         | OpenFOAM: The Open Source CFD Toolbox           |
|  \\    /   O peration     | Version:  2306                                  |
|   \\  /    A nd           | Website:  www.openfoam.com                      |
|    \\/     M anipulation  |                                                 |
\*---------------------------------------------------------------------------*/
FoamFile
{
    version     2.0;
    format      ascii;
    arch        "LSB;label=32;scalar=64";
    class       volScalarField;
    location    "0.0007";
    object      prefDh_T;
}
// * * * * * * * * * * * * * * * * * * * * * * * * * * * * * * * * * * * * * //

dimensions      [1 1 -3 -1 0 0 0];

internalField   nonuniform List<scalar> 
530
(
0.00617313369
0.00621986088
0.00625728847
0.00630260204
0.00633899849
0.00638587538
0.00642155959
0.00646666542
0.00650049072
0.00654395352
0.00657599866
0.0066158636
0.00664412922
0.00668196822
0.00670862496
0.00674431996
0.00677000331
0.00680445437
0.00682972193
0.00686211725
0.00688692605
0.00691742056
0.00694175916
0.00697047672
0.00699435596
0.00702139766
0.00704327644
0.00706652412
0.00708751512
0.00710942296
0.00713008416
0.00715071713
0.00717105634
0.00719048092
0.00721050087
0.00722878422
0.00724848493
0.00726569278
0.00728507497
0.0073012684
0.0073203378
0.00733556891
0.007354341
0.00736864779
0.00738715219
0.00740055316
0.00741751367
0.00742893724
0.00744460914
0.00745572612
0.00747080597
0.00748161268
0.00749612903
0.00750663596
0.00752062113
0.00753087239
0.00754432345
0.00755430304
0.00756721984
0.00757694877
0.00758934151
0.00759883789
0.0076107185
0.00761999695
0.00763137948
0.00764045122
0.0076513517
0.00766022516
0.00767066105
0.00767934258
0.00768933226
0.0076978268
0.00770738906
0.00771570063
0.00772485441
0.00773298619
0.00774105682
0.00774791178
0.00775521126
0.00776192077
0.0077689229
0.00777548758
0.00778220403
0.00778862515
0.00779506687
0.00780134597
0.00780752338
0.00781366221
0.00781958525
0.0078255857
0.00783126389
0.00783712797
0.00784257034
0.00784830024
0.00785351534
0.00785911344
0.00786410934
0.00786957821
0.00787436248
0.0078797049
0.00788428472
0.00788950358
0.00789388583
0.00789898406
0.00790317558
0.00790815592
0.00791216376
0.00791702857
0.00792086028
0.00792561126
0.00792927499
0.00793391307
0.00793741735
0.0079419429
0.00794529621
0.00794970923
0.00795292064
0.00795718892
0.00796030624
0.00796444423
0.00796745407
0.00797144541
0.00797431241
0.00797813368
0.00798090817
0.00798416638
0.00798621933
0.00798896701
0.00799096021
0.00799362254
0.00799556068
0.00799813791
0.00800002481
0.00800251788
0.00800435646
0.00800676695
0.00800855941
0.00801088937
0.00801263736
0.0080148892
0.00801659405
0.00801877037
0.00802043319
0.00802253671
0.00802415855
0.00802619202
0.00802777387
0.00802974007
0.0080312829
0.00803318462
0.00803468936
0.00803652945
0.00803799692
0.00803977837
0.00804122993
0.00804296724
0.00804436489
0.00804602706
0.00804737076
0.00804896173
0.00805025358
0.00805177702
0.00805301923
0.00805447862
0.00805567343
0.00805707211
0.00805822177
0.00805956292
0.00806066969
0.00806195633
0.00806302248
0.00806425749
0.00806528531
0.00806647135
0.00806746317
0.00806860273
0.00806956092
0.00807058664
0.00807142298
0.00807239508
0.0080732138
0.00807416126
0.00807496349
0.00807588734
0.0080766741
0.00807757544
0.00807834767
0.00807922765
0.00807998623
0.00808084603
0.00808159179
0.00808243261
0.00808316636
0.00808398941
0.00808471194
0.00808551843
0.00808623052
0.00808702166
0.00808772404
0.00808850108
0.00808919447
0.00808995864
0.00809064372
0.00809139629
0.00809207372
0.00809281594
0.0080934864
0.00809421946
0.00809488368
0.00809560867
0.0080962675
0.0080969853
0.00809763981
0.00809835097
0.00809900258
0.00809970724
0.00810035775
0.00810092308
0.0081011324
0.00810138341
0.00810160488
0.00810186757
0.00810210187
0.00810237535
0.0081026227
0.0081029065
0.00810316672
0.00810346064
0.00810373329
0.00810403725
0.00810432178
0.00810463576
0.00810493153
0.0081052555
0.0081055619
0.00810589573
0.00810621236
0.0081065557
0.00810688268
0.00810729449
0.00810768996
0.00810810647
0.00810850722
0.00810892648
0.0081093325
0.00810975455
0.00811016568
0.00811059064
0.00811100665
0.00811143465
0.0081118553
0.00811228641
0.00811271144
0.00811314571
0.00811357482
0.0081140123
0.00811444515
0.00811488588
0.00811532213
0.00811571956
0.00811606337
0.00811641526
0.00811676603
0.00811712336
0.00811748055
0.00811784316
0.00811820626
0.00811857391
0.00811894246
0.00811931487
0.00811968845
0.00812006529
0.00812044349
0.00812082442
0.00812120685
0.00812159151
0.00812197776
0.00812236578
0.00812275546
0.00812314649
0.00812353919
0.00812393286
0.00812432816
0.00812472412
0.00812512163
0.00812551951
0.00812591882
0.00812631827
0.00812671899
0.00812711966
0.00812752138
0.00812792293
0.00812832526
0.00812872734
0.00812912991
0.00812953219
0.00812993461
0.00813033676
0.00813073867
0.00813114035
0.0081315414
0.00813194231
0.00813234214
0.00813274196
0.00813314025
0.00813353868
0.00813393508
0.00813433184
0.00813472605
0.00813512083
0.00813551255
0.0081359051
0.00813629402
0.00813668406
0.00813706992
0.0081374572
0.00813783973
0.00813822399
0.00813860293
0.00813898395
0.00813935907
0.00813973661
0.00814010768
0.00814048153
0.00814084833
0.00814121828
0.00814158062
0.00814194648
0.00814230416
0.00814266573
0.00814301859
0.00814337571
0.00814372357
0.00814407606
0.0081444188
0.00814476651
0.00814510397
0.00814544675
0.00814577883
0.00814611653
0.00814644311
0.00814677562
0.00814709661
0.0081474238
0.0081477391
0.00814806087
0.00814837042
0.00814868666
0.00814899041
0.00814930103
0.00814959891
0.00814990383
0.00815019581
0.00815049496
0.00815078101
0.00815107432
0.00815135442
0.00815164184
0.00815191599
0.00815219746
0.00815246566
0.00815274115
0.0081530034
0.00815327288
0.00815352921
0.00815379265
0.00815404308
0.00815430046
0.00815454503
0.00815479636
0.0081550351
0.00815528036
0.00815551334
0.00815575254
0.00815597979
0.00815621296
0.00815643455
0.00815666169
0.00815687769
0.00815709883
0.00815730931
0.00815752448
0.00815772951
0.00815793876
0.00815813841
0.00815834177
0.00815853613
0.00815873367
0.00815892282
0.00815911457
0.0081592986
0.00815948463
0.00815966363
0.00815984401
0.00816001806
0.00816019285
0.00816036204
0.00816053132
0.00816069575
0.00816085959
0.00816101935
0.00816117784
0.00816133301
0.00816148623
0.00816163691
0.00816178496
0.00816193123
0.00816207419
0.00816221614
0.00816235412
0.00816249184
0.00816262494
0.00816275851
0.00816288683
0.00816301634
0.00816313998
0.0081632655
0.00816338459
0.0081635062
0.00816362084
0.00816373863
0.00816384893
0.00816396296
0.00816406906
0.0081641794
0.00816428142
0.00816438813
0.00816448619
0.00816458934
0.00816468358
0.00816478322
0.00816487377
0.00816496997
0.00816505695
0.00816514976
0.00816523333
0.00816532279
0.00816540308
0.00816548924
0.00816556639
0.0081656493
0.00816572344
0.00816580314
0.00816587443
0.00816595095
0.00816601953
0.00816609292
0.00816615891
0.00816622921
0.00816629276
0.00816636
0.00816642125
0.00816648554
0.00816654684
0.00816661481
0.00816668243
0.008166756
0.00816683025
0.00816690896
0.00816699009
0.00816707313
0.00816716131
0.00816724737
0.00816734267
0.00816742993
0.00816753222
0.00816761842
0.00816772715
0.00816780978
0.00816792351
0.00816799958
0.00816811793
0.00816817827
0.00816828741
0.00816836497
0.00816845365
0.00816852959
0.00816860405
0.00816867127
0.00816873252
0.00816878896
0.0081688367
0.00816887984
0.00816891122
0.00816891119
0.00816891091
0.00816891047
0.00816891003
0.00816890965
0.00816890938
0.00816890919
0.00816890908
0.00816890903
0.008168909
0.00816890898
0.00816890897
0.00816890897
0.00816890897
0.00816890897
0.00816890897
0.00816890897
0.00816890897
0.00816890897
0.00816890897
0.00816890897
0.00816890897
0.00816890897
0.00816890897
0.00816890897
0.00816890897
0.00816890897
0.00816890897
0.00816890897
0.00816890897
0.00816890897
0.00816890897
0.00816890897
0.00816890897
0.00816890897
0.00816890897
0.00816890897
0.00816890897
0.00816890897
0.00816890897
0.00816890897
0.00816890897
0.00816890897
0.00816890897
0.00816890897
0.00816890897
)
;

boundaryField
{
    closed
    {
        type            calculated;
        value           nonuniform List<scalar> 0();
    }
    open
    {
        type            calculated;
        value           uniform 0.00816890897;
    }
    sides
    {
        type            empty;
    }
    procBoundary5to4
    {
        type            processor;
        value           uniform 0.00613320012;
    }
}


// ************************************************************************* //
