/*--------------------------------*- C++ -*----------------------------------*\
| =========                 |                                                 |
| \\      /  F ield         | OpenFOAM: The Open Source CFD Toolbox           |
|  \\    /   O peration     | Version:  2306                                  |
|   \\  /    A nd           | Website:  www.openfoam.com                      |
|    \\/     M anipulation  |                                                 |
\*---------------------------------------------------------------------------*/
FoamFile
{
    version     2.0;
    format      ascii;
    arch        "LSB;label=32;scalar=64";
    class       volScalarField;
    location    "0.00094";
    object      alpha;
}
// * * * * * * * * * * * * * * * * * * * * * * * * * * * * * * * * * * * * * //

dimensions      [1 -1 -1 0 0 0 0];

internalField   nonuniform List<scalar> 
531
(
3.68147149e-05
3.68368129e-05
3.55490125e-05
3.52198633e-05
3.52495768e-05
3.6825048e-05
3.68333504e-05
3.68298937e-05
3.68383771e-05
3.53840242e-05
3.50410531e-05
3.51758876e-05
3.51292605e-05
3.68256506e-05
3.683023e-05
3.53772399e-05
3.52829055e-05
3.68317314e-05
3.68300708e-05
3.55074842e-05
3.53670107e-05
3.68369677e-05
3.68310999e-05
3.55852202e-05
3.53906728e-05
3.53998878e-05
3.68260466e-05
3.6857188e-05
3.56389315e-05
3.54369966e-05
3.68278223e-05
3.68460306e-05
3.56849931e-05
3.54681773e-05
3.54637436e-05
3.68307443e-05
3.68481327e-05
3.56974133e-05
3.53524124e-05
3.55525019e-05
3.68427345e-05
3.68422164e-05
3.68515827e-05
3.56951471e-05
3.53892183e-05
3.54872393e-05
3.53201202e-05
3.68308932e-05
3.68354376e-05
3.54649936e-05
3.51059087e-05
3.52540257e-05
3.6826133e-05
3.68436292e-05
3.68366122e-05
3.53908222e-05
3.51240306e-05
3.51743873e-05
3.68132861e-05
3.68486e-05
3.53661165e-05
3.52301051e-05
3.6809921e-05
3.6842016e-05
3.53706242e-05
3.5274596e-05
3.6815943e-05
3.68370298e-05
3.54040898e-05
3.53118568e-05
3.68176956e-05
3.68331692e-05
3.54824139e-05
3.534384e-05
3.68193696e-05
3.68253897e-05
3.55600603e-05
3.53395667e-05
3.53381234e-05
3.68127155e-05
3.68338318e-05
3.56197543e-05
3.53350988e-05
3.5349831e-05
3.6815934e-05
3.68357448e-05
3.55772918e-05
3.52669199e-05
3.53307566e-05
3.68237199e-05
3.68295242e-05
3.68285255e-05
3.6833758e-05
3.56944315e-05
3.53143747e-05
3.54472346e-05
3.51968527e-05
3.51988258e-05
3.68149025e-05
3.68493628e-05
3.53803382e-05
3.52461247e-05
3.68122499e-05
3.68436326e-05
3.54117054e-05
3.53144569e-05
3.68161469e-05
3.68396105e-05
3.5466917e-05
3.53820689e-05
3.68194131e-05
3.68367209e-05
3.55368279e-05
3.54235292e-05
3.68263082e-05
3.68314756e-05
3.56269874e-05
3.53975336e-05
3.53939278e-05
3.68173173e-05
3.68488824e-05
3.56980621e-05
3.5379629e-05
3.54145182e-05
3.68382063e-05
3.68410027e-05
3.56231698e-05
3.5324695e-05
3.5350167e-05
3.68267836e-05
3.68586181e-05
3.55926447e-05
3.54451444e-05
3.68246922e-05
3.68514926e-05
3.56395436e-05
3.55195146e-05
3.68309676e-05
3.68424613e-05
3.5692111e-05
3.54916698e-05
3.54820779e-05
3.54703238e-05
3.68364131e-05
3.68421427e-05
3.55793244e-05
3.53262184e-05
3.53295727e-05
3.68296536e-05
3.6856753e-05
3.56087463e-05
3.54204803e-05
3.68330262e-05
3.68424901e-05
3.56703937e-05
3.53712535e-05
3.54012627e-05
3.6825313e-05
3.68602056e-05
3.56788931e-05
3.55110825e-05
3.68252056e-05
3.68494e-05
3.5700498e-05
3.54924076e-05
3.54775617e-05
3.54762673e-05
3.68300373e-05
3.68483542e-05
3.55745682e-05
3.5456482e-05
3.68355621e-05
3.68398197e-05
3.56684828e-05
3.54144318e-05
3.54096321e-05
3.68227607e-05
3.68493389e-05
3.56966379e-05
3.5396325e-05
3.54172053e-05
3.68355236e-05
3.68408131e-05
3.56584891e-05
3.53424845e-05
3.5342545e-05
3.68222957e-05
3.68479204e-05
3.55756596e-05
3.52040613e-05
3.52630787e-05
3.6833543e-05
3.68401316e-05
3.68363506e-05
3.68428014e-05
3.56865937e-05
3.52126251e-05
3.53999556e-05
3.50670342e-05
3.51688302e-05
3.68305687e-05
3.68447898e-05
3.68369176e-05
3.68442962e-05
3.68462761e-05
3.56866548e-05
3.5406955e-05
3.5445973e-05
3.54160103e-05
3.68315165e-05
3.68337513e-05
3.55734641e-05
3.53483328e-05
3.53462796e-05
3.68199811e-05
3.68472496e-05
3.56957881e-05
3.53633468e-05
3.53913268e-05
3.68374768e-05
3.68396562e-05
3.56536023e-05
3.53559586e-05
3.5369462e-05
3.68290776e-05
3.68525134e-05
3.56295669e-05
3.54380612e-05
3.68322917e-05
3.68431522e-05
3.56895884e-05
3.5432314e-05
3.54301666e-05
3.68337695e-05
3.68417323e-05
3.56973776e-05
3.54479674e-05
3.54474529e-05
3.68279058e-05
3.68459574e-05
3.57096355e-05
3.5431503e-05
3.53901646e-05
3.53776079e-05
3.68082403e-05
3.68319804e-05
3.52647398e-05
3.52614891e-05
3.67942525e-05
3.68179443e-05
3.68139638e-05
3.68232305e-05
3.68309842e-05
3.5397774e-05
3.49115115e-05
3.51549779e-05
3.51347762e-05
3.68258501e-05
3.68058763e-05
3.54200537e-05
3.51044682e-05
3.5185612e-05
3.68143206e-05
3.68408465e-05
3.54037733e-05
3.53893387e-05
3.68284904e-05
3.68276077e-05
3.68386803e-05
3.57004197e-05
3.53094991e-05
3.53710626e-05
3.68305743e-05
3.68347944e-05
3.56683075e-05
3.5256833e-05
3.54589947e-05
3.68345347e-05
3.68336079e-05
3.68401411e-05
3.56950667e-05
3.525304e-05
3.54091054e-05
3.51332775e-05
3.51346379e-05
3.68296179e-05
3.68420712e-05
3.68354595e-05
3.68419163e-05
3.55819288e-05
3.52677188e-05
3.52742553e-05
3.68315472e-05
3.6840216e-05
3.55918195e-05
3.5171864e-05
3.53739287e-05
3.6838712e-05
3.68325127e-05
3.68423779e-05
3.56231758e-05
3.52545888e-05
3.54468358e-05
3.6835859e-05
3.68296782e-05
3.68377612e-05
3.57235537e-05
3.54624376e-05
3.55040338e-05
3.54366721e-05
3.68324192e-05
3.68327757e-05
3.55406018e-05
3.53660402e-05
3.52932751e-05
3.52959496e-05
3.68353832e-05
3.68302333e-05
3.6832604e-05
3.68325759e-05
3.56411031e-05
3.53475583e-05
3.5360745e-05
3.52584561e-05
3.68330311e-05
3.68292035e-05
3.5380676e-05
3.50532705e-05
3.5077787e-05
3.68243435e-05
3.68366864e-05
3.68232534e-05
3.68371446e-05
3.57110344e-05
3.53074932e-05
3.53467742e-05
3.53030703e-05
3.68274236e-05
3.68240414e-05
3.5284965e-05
3.52925349e-05
3.68302423e-05
3.68176993e-05
3.68314459e-05
3.56035116e-05
3.51583842e-05
3.52127009e-05
3.68180541e-05
3.68293787e-05
3.54940144e-05
3.51095365e-05
3.51612937e-05
3.68249383e-05
3.68263572e-05
3.68249638e-05
3.68311361e-05
3.56616608e-05
3.51373238e-05
3.53235459e-05
3.49943961e-05
3.49968565e-05
3.6836958e-05
3.68474158e-05
3.6840193e-05
3.68513918e-05
3.55027756e-05
3.50730715e-05
3.5285402e-05
3.68598391e-05
3.68606428e-05
3.68670179e-05
3.5504667e-05
3.5241943e-05
3.52706632e-05
3.68862985e-05
3.69008453e-05
3.55221451e-05
3.53513545e-05
3.69313397e-05
3.69314656e-05
3.55609668e-05
3.52499961e-05
3.52023345e-05
3.509073e-05
3.70397488e-05
3.70514902e-05
3.51195045e-05
3.4568779e-05
3.47652013e-05
3.70990232e-05
3.70996922e-05
3.70645859e-05
3.70570196e-05
3.70219492e-05
3.70045084e-05
3.69723611e-05
3.465995e-05
3.44727533e-05
3.68482721e-05
3.68000815e-05
3.68018791e-05
3.46009079e-05
3.42486311e-05
3.66616261e-05
3.66684618e-05
3.66566141e-05
3.66654597e-05
3.66580154e-05
3.66855845e-05
3.66979128e-05
3.67743075e-05
3.68535075e-05
3.71031648e-05
3.7228815e-05
3.69699174e-05
3.67728585e-05
3.65401893e-05
3.63670932e-05
3.61803169e-05
3.60384852e-05
3.59078954e-05
3.57527827e-05
3.55932253e-05
3.55426249e-05
3.55114264e-05
3.53252521e-05
3.5235327e-05
3.50647972e-05
3.50273704e-05
3.48816391e-05
3.4694982e-05
3.42917557e-05
3.40714445e-05
3.3674515e-05
3.34187192e-05
3.3552032e-05
3.57124964e-05
3.51733823e-05
3.47504047e-05
3.41642291e-05
3.37181891e-05
3.30950036e-05
3.25922396e-05
3.18927252e-05
3.13833929e-05
3.12862483e-05
3.11929962e-05
3.10893685e-05
3.09845443e-05
3.18405423e-05
3.32073593e-05
3.5732331e-05
3.67017511e-05
3.89542655e-05
4.05404613e-05
4.21887674e-05
4.34513615e-05
4.61214973e-05
4.84385504e-05
4.90264981e-05
4.99909289e-05
5.09243568e-05
5.2081627e-05
5.31381304e-05
5.43918952e-05
5.5617549e-05
5.70527687e-05
5.81184395e-05
5.93863981e-05
6.03233182e-05
6.1417606e-05
6.2274511e-05
6.33027344e-05
6.39017638e-05
6.48054558e-05
6.5622336e-05
6.63731808e-05
6.69472441e-05
6.77131415e-05
6.82214341e-05
6.87288479e-05
6.92745337e-05
6.98002079e-05
6.99723328e-05
7.03293687e-05
7.1088608e-05
7.15111352e-05
7.15426826e-05
7.18326348e-05
7.21283091e-05
7.24540525e-05
7.23737832e-05
7.26372947e-05
7.27576803e-05
7.32747852e-05
7.28435987e-05
7.29360186e-05
7.34403442e-05
7.44140755e-05
7.33800682e-05
7.35428512e-05
7.42624716e-05
7.50413088e-05
7.37191263e-05
7.40117389e-05
7.45629547e-05
7.54218004e-05
7.42650245e-05
7.4235088e-05
7.47862054e-05
7.54743493e-05
7.45364742e-05
7.48351899e-05
7.51379658e-05
7.56804578e-05
7.51346776e-05
7.52015434e-05
7.54282239e-05
7.589486e-05
7.5597589e-05
7.55478041e-05
7.57506358e-05
7.60592525e-05
7.58152504e-05
7.58225957e-05
7.59170745e-05
7.61898797e-05
7.60632744e-05
7.60695551e-05
7.60238317e-05
7.63065228e-05
)
;

boundaryField
{
    closed
    {
        type            calculated;
        value           nonuniform List<scalar> 0();
    }
    open
    {
        type            calculated;
        value           nonuniform List<scalar> 0();
    }
    sides
    {
        type            empty;
    }
    procBoundary4to3
    {
        type            processor;
        value           uniform 3.53922676e-05;
    }
    procBoundary4to5
    {
        type            processor;
        value           uniform 7.62711403e-05;
    }
}


// ************************************************************************* //
