/*--------------------------------*- C++ -*----------------------------------*\
| =========                 |                                                 |
| \\      /  F ield         | OpenFOAM: The Open Source CFD Toolbox           |
|  \\    /   O peration     | Version:  2306                                  |
|   \\  /    A nd           | Website:  www.openfoam.com                      |
|    \\/     M anipulation  |                                                 |
\*---------------------------------------------------------------------------*/
FoamFile
{
    version     2.0;
    format      ascii;
    arch        "LSB;label=32;scalar=64";
    class       volScalarField;
    location    "0.00094";
    object      prefDZ_H;
}
// * * * * * * * * * * * * * * * * * * * * * * * * * * * * * * * * * * * * * //

dimensions      [1 -1 -1 0 0 0 0];

internalField   nonuniform List<scalar> 
531
(
0.000110287387
0.000110366168
0.000107372139
0.00010640524
0.000106495216
0.000110305117
0.000110339035
0.00011033879
0.000110349115
0.000106892637
0.000105883405
0.000106281215
0.000106142603
0.000110293338
0.00011033276
0.000106873659
0.000106591358
0.000110332456
0.000110345054
0.0001072575
0.000106838166
0.000110363522
0.000110355554
0.000107489569
0.000106905484
0.000106946162
0.000110333237
0.000110455014
0.00010763914
0.000107050861
0.000110340052
0.000110417427
0.000107766868
0.000107136695
0.000107130659
0.000110356696
0.000110420926
0.000107741455
0.000106798351
0.000107389827
0.000110377861
0.000110428628
0.000110439307
0.000107749888
0.000106906704
0.000107195638
0.000106704593
0.000110325924
0.000110356738
0.000107134799
0.00010607118
0.000106515391
0.000110290962
0.000110397056
0.000110363184
0.000106917337
0.00010612264
0.00010628211
0.000110252007
0.000110402132
0.000106832904
0.000106443257
0.000110225936
0.000110381434
0.000106847387
0.000106571159
0.000110248281
0.000110367059
0.00010694702
0.000106678716
0.000110259279
0.000110356092
0.000107176678
0.000106770216
0.000110272767
0.000110328203
0.000107408802
0.000106751527
0.000106757282
0.000110267759
0.000110358667
0.00010758149
0.000106739794
0.000106789887
0.000110277835
0.000110363034
0.000107456282
0.000106543079
0.000106731837
0.000110301363
0.000110346663
0.000110358697
0.000110368753
0.000107774594
0.000106679941
0.000107079998
0.000106334214
0.000106352216
0.000110253861
0.000110404406
0.000106875028
0.000106489779
0.000110222392
0.000110387243
0.00010696695
0.000106687765
0.000110241331
0.000110380051
0.000107130103
0.000106885038
0.000110259813
0.000110376047
0.000107336195
0.000107005382
0.000110293987
0.000110356973
0.000107607993
0.000106923487
0.000106925317
0.000110284298
0.000110419369
0.000107798505
0.000106876636
0.000106981961
0.00011036166
0.00011038978
0.000107599885
0.000106713327
0.000106799084
0.000110312981
0.000110457009
0.000107500973
0.000107075922
0.000110288817
0.000110437812
0.000107639029
0.000107290571
0.000110321468
0.000110408734
0.00010777087
0.000107206619
0.000107179296
0.000107146295
0.000110325937
0.000110396168
0.000107471512
0.000106718803
0.00010673924
0.000110323937
0.000110449163
0.000107549841
0.000107002079
0.000110321326
0.00011039615
0.000107737779
0.000106848995
0.000106949852
0.000110313568
0.000110470246
0.000107753322
0.000107269094
0.000110301248
0.000110433275
0.000107785624
0.000107210471
0.000107164438
0.000107165185
0.000110304317
0.000110426374
0.00010745023
0.000107105915
0.000110329909
0.000110390951
0.000107731487
0.000106975496
0.000106972548
0.000110303623
0.000110423272
0.000107783236
0.000106925337
0.0001069905
0.000110354577
0.000110390004
0.000107701191
0.000106764806
0.000106774429
0.000110288951
0.0001104046
0.000107455708
0.000106362931
0.000106538158
0.000110328135
0.000110377196
0.000110382093
0.000110386537
0.000107748212
0.00010638648
0.000106944091
0.000105959215
0.000106266052
0.000110292845
0.000110402077
0.000110349174
0.000110417622
0.000110409279
0.000107780136
0.000106956918
0.000107071616
0.0001069847
0.00011031371
0.000110363524
0.00010745116
0.000106780598
0.00010678606
0.000110288769
0.000110409714
0.000107806123
0.000106828544
0.000106914241
0.000110364904
0.000110385082
0.000107687361
0.000106804934
0.000106854472
0.000110331419
0.000110436719
0.000107610077
0.000107052978
0.000110336412
0.000110403155
0.000107784895
0.000107030132
0.000107030059
0.000110360666
0.000110400192
0.000107753662
0.00010707527
0.000107081267
0.000110341478
0.000110415232
0.000107825747
0.000107029786
0.000106902057
0.000106872633
0.000110216392
0.000110353228
0.00010652789
0.000106528951
0.000110125218
0.000110299294
0.000110207525
0.000110321357
0.000110287347
0.000106931935
0.000105492586
0.00010621736
0.000106146906
0.000110280391
0.000110234638
0.000106998583
0.000106059691
0.000106312523
0.000110256977
0.000110381964
0.000106944082
0.000106906344
0.000110295712
0.000110362524
0.000110367292
0.000107809305
0.000106668006
0.000106853584
0.000110344915
0.000110360394
0.000107726596
0.000106512654
0.00010711264
0.000110334753
0.000110390066
0.000110382252
0.0001077856
0.000106503937
0.000106967855
0.000106153981
0.000106164295
0.000110309683
0.000110373364
0.000110366407
0.000110376257
0.000107474719
0.000106547026
0.000106572097
0.00011034358
0.000110372376
0.000107502152
0.000106266223
0.00010686278
0.000110345771
0.000110375022
0.000110388048
0.000107593768
0.000106507995
0.000107076273
0.000110348003
0.000110378043
0.000110385814
0.000107776367
0.000107119332
0.000107240722
0.000107044961
0.000110338177
0.000110362609
0.000107351702
0.000106834618
0.000106625207
0.000106631163
0.000110334412
0.000110346606
0.000110360868
0.000110358628
0.000107645085
0.000106779694
0.000106821711
0.000106520373
0.000110324615
0.00011032406
0.000106883868
0.000105916951
0.000105995753
0.000110297417
0.000110350073
0.000110330151
0.000110357477
0.000107843139
0.000106661442
0.000106777877
0.000106650198
0.000110297633
0.000110321232
0.000106598974
0.000106617845
0.000110300752
0.000110313409
0.000110320941
0.000107532062
0.000106221468
0.000106387115
0.000110285361
0.000110324515
0.000107209861
0.000106080472
0.000106235254
0.000110303334
0.000110314103
0.000110335765
0.00011033162
0.000107704359
0.000106161721
0.000106715267
0.000105746334
0.000105760605
0.000110332976
0.000110381728
0.000110374334
0.000110404712
0.000107244499
0.000105982921
0.000106610648
0.000110421644
0.00011046857
0.000110475606
0.000107259589
0.000106486269
0.000106579022
0.00011054695
0.000110607554
0.000107321796
0.000106822871
0.000110721721
0.000110722031
0.000107412123
0.000106543012
0.000106418356
0.000106092566
0.000111083217
0.000111115022
0.000106211556
0.000104611816
0.000105204052
0.000111312919
0.000111392967
0.0001112799
0.00011133293
0.000111227368
0.000111250212
0.000111159425
0.00010504558
0.00010452211
0.000110930067
0.000110809385
0.000110913363
0.000104824592
0.000104003836
0.000110652555
0.000110832296
0.000110852405
0.000111019201
0.000111070956
0.000111285014
0.000111410785
0.000111769595
0.000112107111
0.00011298311
0.000113443554
0.000112754205
0.000112247839
0.000111671572
0.000111269679
0.000110864764
0.000110595528
0.000110392052
0.00011010608
0.000109789927
0.000109760649
0.000109734106
0.000109365896
0.000109258786
0.000109063826
0.000109160636
0.000109140518
0.000108836137
0.00010808687
0.000107702098
0.000106980563
0.000106540638
0.000107326821
0.000113961604
0.000112793772
0.000111893277
0.000110638854
0.000109690666
0.000108369095
0.000107297826
0.000105801628
0.000104770388
0.0001050055
0.000105239713
0.000105482192
0.000105749754
0.00010980627
0.000115812777
0.000125157949
0.000130998463
0.000140560539
0.000147508515
0.00015491996
0.000160822546
0.00017291807
0.000183321983
0.000186694663
0.000191437721
0.000196390373
0.000202139602
0.000207774844
0.00021417244
0.000220762971
0.000228250075
0.000234276159
0.00024118191
0.000246400426
0.000252223278
0.000257719701
0.000263489501
0.000265589312
0.000269952159
0.000276624776
0.000280909681
0.000281196409
0.000285048051
0.000292110819
0.000295136065
0.000294970387
0.000297666502
0.000302243868
0.000304412753
0.000306456526
0.00030889465
0.000310369155
0.000312103173
0.000313813911
0.000315724737
0.000315963978
0.000317606479
0.000318531768
0.00032106232
0.000320091502
0.000321553747
0.000322775553
0.000325867118
0.0003253053
0.000328932929
0.000326533958
0.00032812743
0.000330759173
0.000334222586
0.000329171946
0.000332458358
0.000335455155
0.000335341548
0.00033245076
0.00033427645
0.00033660985
0.000337867418
0.00033527624
0.000336383291
0.000339130085
0.000339422511
0.00033726828
0.000338156932
0.000339999922
0.00034089343
0.000340378041
0.000339521751
0.000339692252
0.000342063543
0.000342459288
0.000340665566
0.00034081073
0.000343117438
0.000342934696
0.000341577695
)
;

boundaryField
{
    closed
    {
        type            calculated;
        value           nonuniform List<scalar> 0();
    }
    open
    {
        type            calculated;
        value           nonuniform List<scalar> 0();
    }
    sides
    {
        type            empty;
    }
    procBoundary4to3
    {
        type            processor;
        value           uniform 0.000106917171;
    }
    procBoundary4to5
    {
        type            processor;
        value           uniform 0.000341737706;
    }
}


// ************************************************************************* //
