/*--------------------------------*- C++ -*----------------------------------*\
| =========                 |                                                 |
| \\      /  F ield         | OpenFOAM: The Open Source CFD Toolbox           |
|  \\    /   O peration     | Version:  2306                                  |
|   \\  /    A nd           | Website:  www.openfoam.com                      |
|    \\/     M anipulation  |                                                 |
\*---------------------------------------------------------------------------*/
FoamFile
{
    version     2.0;
    format      ascii;
    arch        "LSB;label=32;scalar=64";
    class       surfaceScalarField;
    location    "0.0007";
    object      phi;
}
// * * * * * * * * * * * * * * * * * * * * * * * * * * * * * * * * * * * * * //

dimensions      [1 0 -1 0 0 0 0];

oriented        oriented;

internalField   nonuniform List<scalar> 
529
(
3.17425259e-06
3.23401078e-06
3.25755722e-06
3.27928029e-06
3.32474168e-06
3.26987964e-06
3.30018838e-06
3.46818134e-06
3.67582567e-06
3.62971135e-06
3.65338236e-06
3.69326145e-06
3.72055442e-06
3.74695734e-06
3.7679756e-06
3.82208555e-06
3.84271867e-06
3.87160933e-06
3.87780437e-06
3.90341226e-06
4.05308098e-06
4.23273776e-06
4.25838439e-06
4.25094768e-06
4.26022201e-06
4.31506985e-06
4.35357881e-06
4.35877966e-06
4.38365766e-06
4.44847309e-06
4.4988131e-06
4.53923942e-06
4.54102144e-06
4.55144912e-06
4.67685056e-06
4.7577544e-06
4.58025678e-06
4.62660955e-06
4.63636976e-06
4.69816402e-06
4.75971743e-06
4.81684177e-06
4.62363451e-06
4.62147664e-06
4.62961145e-06
4.71669346e-06
4.7994152e-06
4.60159188e-06
4.6038535e-06
4.66037181e-06
4.6963907e-06
4.66720191e-06
4.68450392e-06
4.74626505e-06
4.78392779e-06
4.56903546e-06
4.55683221e-06
4.55937766e-06
4.68004332e-06
4.75746561e-06
4.79857914e-06
4.66809973e-06
4.67021441e-06
4.75752335e-06
4.8168841e-06
4.85224764e-06
4.6982993e-06
4.70189639e-06
4.79250143e-06
4.85857514e-06
4.66759057e-06
4.66920142e-06
4.67161656e-06
4.7694593e-06
4.85090859e-06
4.64972769e-06
4.64347004e-06
4.69023422e-06
4.71684801e-06
4.69051714e-06
4.70500846e-06
4.78532767e-06
4.81168484e-06
4.78713178e-06
4.79484757e-06
4.85003123e-06
4.86526829e-06
4.67386871e-06
4.6511034e-06
4.66179075e-06
4.87001172e-06
5.08903155e-06
5.0822071e-06
4.86593293e-06
4.82135369e-06
4.87431879e-06
5.24924938e-06
5.38043468e-06
5.36412919e-06
5.40349225e-06
5.42414055e-06
5.13003833e-06
5.1336329e-06
5.14196978e-06
5.18749204e-06
5.04206859e-06
5.05189706e-06
5.05343797e-06
5.08955537e-06
4.93590768e-06
4.94457894e-06
5.01911233e-06
5.07887852e-06
5.10385716e-06
4.77698163e-06
4.79313022e-06
5.02431418e-06
5.22240396e-06
5.19665252e-06
5.0076893e-06
4.9852173e-06
4.99208187e-06
5.07024757e-06
5.10964047e-06
5.09633345e-06
4.90730626e-06
5.030469e-06
5.26287985e-06
5.18052829e-06
5.05051425e-06
5.02433102e-06
5.13216511e-06
5.21160763e-06
4.90929859e-06
4.9184238e-06
5.37717852e-06
5.4189613e-06
5.09399214e-06
5.09240802e-06
5.07177297e-06
5.20884486e-06
5.29686657e-06
5.10624075e-06
5.12776697e-06
5.20849784e-06
5.2275103e-06
5.00011458e-06
5.00608569e-06
5.00769939e-06
5.03714316e-06
4.84475667e-06
4.85210376e-06
4.85458745e-06
4.87998547e-06
4.69368007e-06
4.70240093e-06
4.82204133e-06
4.8576259e-06
4.87898606e-06
4.65344684e-06
4.64734873e-06
4.68870832e-06
4.80000004e-06
4.88272951e-06
4.88188914e-06
4.92359472e-06
4.94243447e-06
4.7052983e-06
4.71375694e-06
4.72061415e-06
4.74831047e-06
4.62120326e-06
4.63440065e-06
4.64284331e-06
4.67425791e-06
4.54878687e-06
4.56337975e-06
4.57102908e-06
4.600755e-06
4.33052409e-06
4.35544356e-06
4.64613884e-06
4.82370405e-06
4.76091952e-06
4.51693893e-06
4.55544336e-06
4.61948309e-06
4.70425385e-06
4.72493386e-06
4.74967899e-06
4.75099054e-06
4.7827204e-06
4.80014776e-06
4.55354672e-06
4.55486319e-06
4.61053942e-06
4.62466422e-06
4.57706207e-06
4.56815511e-06
4.57904098e-06
4.71689765e-06
4.79077697e-06
4.56397185e-06
4.57912766e-06
4.65064835e-06
4.65972816e-06
4.42277206e-06
4.42038882e-06
4.41601138e-06
4.49229769e-06
4.52812184e-06
4.35710883e-06
4.37467242e-06
4.41109651e-06
4.41093271e-06
4.3033475e-06
4.30708123e-06
4.3074126e-06
4.32543825e-06
4.28257202e-06
4.28766161e-06
4.3271689e-06
4.34188644e-06
4.34213842e-06
4.34125788e-06
4.34202259e-06
4.45402633e-06
4.48660802e-06
4.51335249e-06
4.42564664e-06
4.42519462e-06
4.48655436e-06
4.50832127e-06
4.51831553e-06
4.45544657e-06
4.47151085e-06
4.63265706e-06
4.62218697e-06
4.43908494e-06
4.44725042e-06
4.57719271e-06
4.70211323e-06
4.70706658e-06
4.4612554e-06
4.44939806e-06
4.44153838e-06
4.4982242e-06
4.52470708e-06
4.38711747e-06
4.3856014e-06
4.42872798e-06
4.43349528e-06
4.18327406e-06
4.171179e-06
4.25438463e-06
4.2826578e-06
4.2844376e-06
4.1122513e-06
4.1025037e-06
4.1090654e-06
4.09227431e-06
4.00616457e-06
3.99328737e-06
3.98579989e-06
4.00873538e-06
4.02451353e-06
4.06948255e-06
3.73520991e-06
3.73154087e-06
4.02341805e-06
4.12542519e-06
4.05717956e-06
3.80763756e-06
3.78338462e-06
3.77942292e-06
3.80995759e-06
3.84537817e-06
3.80226266e-06
3.65534674e-06
3.68145444e-06
3.68652669e-06
3.65810898e-06
3.63365484e-06
3.61531158e-06
3.63549447e-06
3.61600164e-06
3.61639862e-06
3.51906222e-06
3.49521422e-06
3.55711352e-06
3.56810064e-06
3.55681242e-06
3.47718701e-06
3.45314212e-06
3.54190472e-06
3.5559197e-06
3.36985211e-06
3.35156961e-06
3.48057109e-06
3.46139194e-06
3.45776358e-06
3.39899925e-06
3.39086633e-06
3.35187481e-06
3.32805931e-06
3.31096552e-06
3.30894014e-06
3.29479718e-06
3.27132463e-06
3.25619901e-06
3.25600908e-06
3.24166642e-06
3.23023392e-06
3.21706768e-06
3.27329919e-06
3.25955334e-06
3.08247359e-06
3.07300798e-06
3.07949572e-06
3.19941086e-06
3.1959327e-06
3.14627571e-06
3.1364398e-06
3.12862912e-06
3.12111133e-06
3.10414755e-06
3.14156333e-06
3.07780805e-06
3.06038178e-06
3.06222815e-06
3.05587293e-06
2.90501873e-06
2.89181816e-06
2.86821952e-06
2.89812885e-06
2.92878377e-06
2.92745473e-06
2.92036618e-06
2.87804562e-06
2.86791722e-06
2.85636637e-06
2.83373518e-06
2.81902123e-06
2.80477478e-06
2.79487303e-06
2.7643259e-06
2.75295468e-06
2.73567637e-06
2.739343e-06
2.80859073e-06
2.90094657e-06
2.8802094e-06
2.76587063e-06
2.75335888e-06
2.75831197e-06
2.78543211e-06
2.8053551e-06
2.78233251e-06
2.77881454e-06
2.78001488e-06
2.76489444e-06
2.75349261e-06
2.75024312e-06
2.81906849e-06
2.85953487e-06
2.83609805e-06
2.71463082e-06
2.70590405e-06
2.70916527e-06
2.69869229e-06
2.69167163e-06
2.68904095e-06
2.75558037e-06
2.75176908e-06
2.73693079e-06
2.7318986e-06
2.72623447e-06
2.73266956e-06
2.71531836e-06
2.61143157e-06
2.6053306e-06
2.60664422e-06
2.67686114e-06
2.79258851e-06
2.80592989e-06
2.59636634e-06
2.5976663e-06
2.85930038e-06
2.93672354e-06
2.86706884e-06
2.73456809e-06
2.72919978e-06
2.76883331e-06
2.77052806e-06
2.77779078e-06
2.78199207e-06
2.83146057e-06
2.83703566e-06
2.68133462e-06
2.69509448e-06
2.82646496e-06
2.95852246e-06
2.93683024e-06
2.78160634e-06
2.79232894e-06
2.8378321e-06
3.07838396e-06
3.08692963e-06
2.85807719e-06
2.86853582e-06
3.13863957e-06
3.25924241e-06
3.19291087e-06
2.92318373e-06
2.91527512e-06
3.30911714e-06
3.33664343e-06
3.25670246e-06
3.23492049e-06
3.23371503e-06
3.26688935e-06
3.27569571e-06
3.30163827e-06
3.25911644e-06
3.2620167e-06
3.29301167e-06
3.29740805e-06
3.27365149e-06
3.27715589e-06
3.33429422e-06
3.350076e-06
3.36752752e-06
3.33044349e-06
3.33398772e-06
3.36943171e-06
3.37573866e-06
3.3506228e-06
3.35498836e-06
3.41543826e-06
3.43211362e-06
3.44950219e-06
3.4152693e-06
3.42009179e-06
3.46022165e-06
3.46827283e-06
3.4411773e-06
3.44649757e-06
3.5183868e-06
3.54072297e-06
3.55406981e-06
3.51927846e-06
3.5247998e-06
3.57384101e-06
3.58398205e-06
3.55647186e-06
3.56204118e-06
3.62846257e-06
3.64961852e-06
3.66850211e-06
3.6352092e-06
3.64144678e-06
3.69580205e-06
3.70734539e-06
3.67810949e-06
3.68405363e-06
3.75256548e-06
3.78968255e-06
3.81068447e-06
3.69208251e-06
3.69823004e-06
3.77013809e-06
3.78338926e-06
3.76274073e-06
3.76974236e-06
3.84628918e-06
3.86175211e-06
3.8406942e-06
3.84853029e-06
3.92608835e-06
3.94133284e-06
3.85798557e-06
3.86386356e-06
3.97184832e-06
4.00605806e-06
4.00401946e-06
3.97926348e-06
3.98241231e-06
4.01696808e-06
4.01596578e-06
4.05320968e-06
3.98133835e-06
3.98408208e-06
4.02414239e-06
4.06655222e-06
4.04106195e-06
4.04113255e-06
4.08094233e-06
4.0746911e-06
4.11212229e-06
4.02899419e-06
4.03274824e-06
4.11433918e-06
4.14403719e-06
4.0677889e-06
4.06948312e-06
4.17058694e-06
4.18660038e-06
4.10275262e-06
4.10523053e-06
4.18585033e-06
4.1976002e-06
4.17915417e-06
4.17610858e-06
4.21612605e-06
4.20790967e-06
4.23684263e-06
4.16139726e-06
4.15967563e-06
4.18901025e-06
4.20900463e-06
4.18690094e-06
4.17967637e-06
4.2246462e-06
4.22227519e-06
4.24398415e-06
4.11575619e-06
4.10763336e-06
4.17033311e-06
4.17875279e-06
)
;

boundaryField
{
    closed
    {
        type            calculated;
        value           nonuniform List<scalar> 0();
    }
    open
    {
        type            calculated;
        value           nonuniform List<scalar> 0();
    }
    sides
    {
        type            empty;
        value           nonuniform List<scalar> 0();
    }
    procBoundary2to1
    {
        type            processor;
        value           uniform -3.0978691e-06;
    }
    procBoundary2to3
    {
        type            processor;
        value           uniform 4.18122145e-06;
    }
}


// ************************************************************************* //
