/*--------------------------------*- C++ -*----------------------------------*\
| =========                 |                                                 |
| \\      /  F ield         | OpenFOAM: The Open Source CFD Toolbox           |
|  \\    /   O peration     | Version:  2306                                  |
|   \\  /    A nd           | Website:  www.openfoam.com                      |
|    \\/     M anipulation  |                                                 |
\*---------------------------------------------------------------------------*/
FoamFile
{
    version     2.0;
    format      ascii;
    arch        "LSB;label=32;scalar=64";
    class       volScalarField;
    location    "0.00116";
    object      p;
}
// * * * * * * * * * * * * * * * * * * * * * * * * * * * * * * * * * * * * * //

dimensions      [1 -1 -2 0 0 0 0];

internalField   nonuniform List<scalar> 
530
(
101552.688
101548.354
101547.092
101540.978
101531.994
101528.309
101528.167
101523.283
101515.085
101511.892
101512.525
101508.677
101501.196
101498.435
101499.494
101495.972
101488.749
101486.113
101487.395
101484.28
101477.325
101474.874
101476.503
101473.846
101467.332
101465.284
101467.255
101464.96
101458.862
101457.221
101459.648
101457.861
101452.268
101451.119
101454.171
101453.115
101448.206
101447.499
101451.057
101450.985
101447.019
101446.681
101450.592
101451.34
101448.199
101448.391
101452.566
101453.599
101451.041
101451.548
101455.715
101456.871
101454.363
101454.618
101458.458
101459.458
101456.829
101456.773
101460.167
101460.829
101457.984
101457.615
101460.575
101460.901
101457.846
101457.144
101459.616
101459.533
101456.26
101455.38
101457.499
101457.028
101453.571
101452.509
101454.346
101453.675
101450.082
101448.9
101450.566
101449.73
101446.101
101444.947
101446.582
101445.679
101442.055
101440.987
101442.683
101441.802
101438.249
101437.311
101439.107
101438.325
101434.944
101434.148
101435.992
101435.328
101432.148
101431.466
101433.326
101432.751
101429.723
101429.102
101430.963
101430.466
101427.531
101426.915
101428.775
101428.354
101425.473
101424.835
101426.7
101426.355
101423.528
101422.868
101424.715
101424.421
101421.653
101420.957
101422.724
101422.47
101419.8
101419.073
101420.734
101420.467
101417.831
101417.075
101418.637
101418.278
101415.604
101414.802
101416.277
101415.83
101413.085
101412.231
101413.652
101413.128
101410.317
101409.455
101410.884
101410.331
101407.507
101406.709
101408.209
101407.736
101405.071
101404.456
101406.12
101405.856
101403.481
101403.195
101405.175
101405.285
101403.347
101403.387
101405.664
101406.168
101404.695
101405.186
101407.764
101408.511
101407.274
101407.938
101410.651
101411.575
101410.511
101411.243
101413.956
101414.974
101414.07
101414.802
101417.393
101418.453
101417.693
101418.368
101420.76
101421.766
101421.081
101421.669
101423.784
101424.644
101423.921
101424.293
101426.048
101426.624
101425.725
101425.872
101427.297
101427.611
101426.518
101426.44
101427.626
101427.729
101426.483
101426.293
101427.366
101427.346
101426.01
101425.786
101426.833
101426.776
101425.458
101425.303
101426.384
101426.333
101425.079
101425.053
101426.218
101426.195
101425.02
101425.143
101426.445
101426.535
101425.499
101425.768
101427.2
101427.439
101426.575
101426.987
101428.543
101428.949
101428.265
101428.776
101430.417
101431.004
101430.497
101431.052
101432.697
101433.359
101432.944
101433.456
101435.008
101435.67
101435.278
101435.702
101437.09
101437.64
101437.211
101437.551
101438.769
101439.146
101438.638
101438.91
101439.963
101440.16
101439.575
101439.817
101440.766
101440.821
101440.175
101440.455
101441.429
101441.483
101440.893
101441.352
101442.435
101442.501
101442.015
101442.715
101443.981
101444.207
101443.799
101444.354
101445.424
101445.507
101444.962
101445.294
101446.069
101445.782
101444.873
101444.941
101445.402
101444.602
101443.177
101442.993
101443.394
101442.317
101440.487
101440.122
101440.472
101439.499
101437.802
101437.379
101437.724
101436.923
101435.362
101434.928
101435.27
101434.603
101433.244
101432.886
101433.216
101432.648
101431.466
101431.173
101431.49
101430.999
101429.96
101429.715
101430.011
101429.575
101428.648
101428.433
101428.701
101428.302
101427.451
101427.24
101427.466
101427.077
101426.269
101426.048
101426.228
101425.835
101425.055
101424.818
101424.95
101424.551
101423.792
101423.539
101423.629
101423.228
101422.496
101422.227
101422.273
101421.871
101421.168
101420.889
101420.897
101420.495
101419.82
101419.535
101419.51
101419.11
101418.464
101418.175
101418.123
101417.73
101417.112
101416.822
101416.749
101416.363
101415.773
101415.485
101415.395
101415.019
101414.458
101414.174
101414.072
101413.708
101413.176
101412.9
101412.79
101412.44
101411.937
101411.67
101411.557
101411.224
101410.751
101410.497
101410.384
101410.069
101409.628
101409.388
101409.279
101408.984
101408.574
101408.35
101408.247
101407.972
101407.593
101407.386
101407.29
101407.037
101406.688
101406.498
101406.411
101406.179
101405.859
101405.687
101405.609
101405.398
101405.106
101404.951
101404.884
101404.693
101404.429
101404.291
101404.233
101404.063
101403.824
101403.703
101403.655
101403.504
101403.29
101403.184
101403.147
101403.013
101402.822
101402.731
101402.704
101402.587
101402.418
101402.341
101402.322
101402.221
101402.071
101402.007
101401.997
101401.91
101401.779
101401.726
101401.722
101401.649
101401.533
101401.491
101401.493
101401.431
101401.329
101401.295
101401.302
101401.248
101401.158
101401.13
101401.138
101401.091
101401.009
101400.983
101400.991
101400.946
101400.868
101400.841
101400.843
101400.796
101400.719
101400.686
101400.68
101400.627
101400.546
101400.504
101400.485
101400.422
101400.329
101400.27
101400.228
101400.14
101400.018
101399.922
101399.835
101399.697
101399.519
101399.363
101399.218
101399.02
101398.795
101398.645
101398.606
101398.569
101398.503
101398.456
101398.431
101398.408
101398.381
101398.348
101398.307
101398.254
101398.186
101398.1
101397.992
101397.858
101397.694
101397.494
101397.253
101396.964
101396.619
101396.211
101395.729
101395.164
101394.504
101393.74
101392.86
101391.853
101390.71
101389.422
101387.985
101386.394
101384.651
101382.76
101380.732
101378.579
101376.32
101373.977
101371.58
101369.163
101366.774
101364.471
101362.334
101360.46
101358.965
101357.966
101357.567
101357.837
101358.801
101360.453
101362.778
101365.764
101369.344
101373.324
101377.429
101381.648
101386.714
101394.061
101404.661
101417.245
101427.873
101432.28
101429.266
101422.234
101417.194
101419.234
101430.282
101447.304
101461.907
101465.158
101453.477
101430.87
101405.756
101385.108
101371.914
101366.43
101363.187
101356.396
)
;

boundaryField
{
    closed
    {
        type            zeroGradient;
    }
    open
    {
        type            waveTransmissive;
        gamma           1.25;
        fieldInf        101325;
        lInf            1;
        value           uniform 101355.192;
    }
    sides
    {
        type            empty;
    }
    procBoundary5to4
    {
        type            processor;
        value           uniform 101562.034;
    }
}


// ************************************************************************* //
