/*--------------------------------*- C++ -*----------------------------------*\
| =========                 |                                                 |
| \\      /  F ield         | OpenFOAM: The Open Source CFD Toolbox           |
|  \\    /   O peration     | Version:  2306                                  |
|   \\  /    A nd           | Website:  www.openfoam.com                      |
|    \\/     M anipulation  |                                                 |
\*---------------------------------------------------------------------------*/
FoamFile
{
    version     2.0;
    format      ascii;
    arch        "LSB;label=32;scalar=64";
    class       volScalarField;
    location    "0.00116";
    object      prefDZ_H;
}
// * * * * * * * * * * * * * * * * * * * * * * * * * * * * * * * * * * * * * //

dimensions      [1 -1 -1 0 0 0 0];

internalField   nonuniform List<scalar> 
530
(
0.000342858357
0.000343209247
0.0003449735
0.000344988601
0.000343474639
0.000343906853
0.000345583768
0.00034558377
0.000344083434
0.000344467586
0.000346102639
0.000346104325
0.000344672108
0.000344998642
0.000346637255
0.000346586612
0.000345250032
0.000345505079
0.000347133715
0.000347078141
0.00034578594
0.000345992369
0.000347612305
0.000347557312
0.000346294864
0.000346512305
0.000348085662
0.00034803076
0.000346786403
0.000347015381
0.000348547951
0.000348501199
0.000347267276
0.000347498773
0.000349000541
0.000348965659
0.000347747551
0.000347963745
0.000349397679
0.000349415548
0.000348229369
0.000348413989
0.000349777849
0.000349854085
0.000348631022
0.000348859758
0.000350122621
0.000350241797
0.000348999817
0.000349270337
0.000350458392
0.000350609262
0.000349371719
0.00034963292
0.000350790867
0.000350963679
0.000349742993
0.000350001665
0.000351134327
0.0003513137
0.000350111748
0.000350374586
0.000351479887
0.000351665122
0.000350481415
0.000350749545
0.00035183184
0.000352014624
0.000350843509
0.000351124357
0.000352202215
0.000352362717
0.000351231453
0.000351494349
0.000352588414
0.000352730011
0.000351642113
0.000351880033
0.000352984004
0.000353107094
0.00035205254
0.000352279868
0.000353385199
0.000353491449
0.000352462639
0.000352680211
0.000353787384
0.000353880358
0.000352873978
0.000353084092
0.000354188692
0.000354272225
0.000353287651
0.000353492895
0.000354587829
0.000354668578
0.000353703011
0.00035390758
0.000354988808
0.000355071409
0.00035412434
0.000354328083
0.000355395449
0.000355487014
0.000354553775
0.00035476192
0.000355807384
0.000355915369
0.000354985573
0.000355206862
0.000356223706
0.000356349551
0.000355420776
0.000355655035
0.000356645813
0.000356785491
0.000355863285
0.000356106864
0.000357074159
0.000357223841
0.000356313955
0.000356562029
0.000357510864
0.000357667223
0.000356769588
0.000357022251
0.000357965567
0.00035811708
0.000357237204
0.000357487836
0.000358429213
0.000358577063
0.000357714095
0.000357961156
0.000358900909
0.000359041956
0.000358195825
0.000358438046
0.000359379654
0.00035951102
0.000358683245
0.000358915996
0.000359863665
0.0003599801
0.000359177166
0.000359395047
0.00036034659
0.000360451698
0.000359675391
0.000359875229
0.000360831012
0.000360925461
0.00036018071
0.000360353988
0.000361288618
0.0003613898
0.000360640103
0.000360824144
0.000361729328
0.000361829034
0.00036108492
0.000361263397
0.000362154512
0.00036226081
0.000361521376
0.000361706886
0.000362568744
0.000362689637
0.00036194648
0.000362153982
0.000362969846
0.000363114569
0.000362363121
0.000362596487
0.00036336668
0.000363526886
0.000362770077
0.000363035613
0.000363753957
0.000363937284
0.000363171292
0.000363468368
0.000364143786
0.000364342528
0.000363571198
0.000363892917
0.000364543206
0.000364746634
0.000363988246
0.000364311735
0.000364949009
0.000365152066
0.00036440363
0.000364728393
0.000365354689
0.000365550741
0.000364814929
0.000365132021
0.00036575444
0.000365938197
0.000365221394
0.000365523002
0.00036614907
0.000366315083
0.000365620222
0.000365903226
0.000366536806
0.000366681771
0.000366010714
0.000366268776
0.000366914677
0.000367036768
0.000366393269
0.00036662299
0.000367274571
0.000367383403
0.000366758834
0.000366971687
0.00036761569
0.000367723661
0.000367103965
0.000367314892
0.000367934273
0.000368057091
0.000367429939
0.000367652605
0.000368236161
0.000368377624
0.000367741703
0.000367976607
0.000368529096
0.000368684726
0.000368049599
0.000368289873
0.000368821264
0.000368974657
0.000368355037
0.000368590013
0.000369114354
0.000369252351
0.00036865647
0.000368877457
0.000369405107
0.000369520684
0.000368952516
0.000369157925
0.000369692109
0.000369786436
0.000369239675
0.000369440213
0.000369966045
0.000370053703
0.000369491204
0.000369732017
0.00037020625
0.000370310875
0.000369696187
0.000369995454
0.000370419452
0.000370546904
0.000369913484
0.000370224384
0.00037062114
0.00037076697
0.000370123667
0.0003704448
0.000370838251
0.000370976453
0.000370354413
0.000370645889
0.000371088375
0.000371176212
0.000370640541
0.000370829934
0.000371381138
0.000371385669
0.000370963661
0.000371013118
0.000371612018
0.000371578655
0.000371258285
0.000371216727
0.000371809768
0.000371771059
0.000371504686
0.000371421772
0.000371988228
0.00037194351
0.000371717242
0.000371624151
0.000372150609
0.000372105942
0.000371906474
0.000371816145
0.000372301018
0.00037226008
0.000372078918
0.00037199594
0.000372441515
0.000372405221
0.000372238119
0.000372163359
0.000372573272
0.000372541407
0.000372386021
0.000372318948
0.000372696972
0.00037266887
0.000372523667
0.000372463625
0.000372812939
0.000372787962
0.000372652205
0.000372598161
0.000372921443
0.000372899054
0.000372772152
0.000372723253
0.000373022561
0.00037300244
0.00037288396
0.000372839513
0.000373116544
0.000373098277
0.000372988029
0.000372947463
0.00037320394
0.000373187261
0.000373084711
0.000373047564
0.000373285039
0.000373269728
0.00037317436
0.000373140239
0.00037336014
0.000373346008
0.000373257338
0.000373225904
0.000373429546
0.000373416428
0.000373334014
0.000373304961
0.000373493569
0.000373481314
0.00037340477
0.000373377802
0.000373552516
0.000373540983
0.000373469957
0.000373444801
0.000373606728
0.000373595747
0.000373529903
0.000373506321
0.00037365645
0.000373645907
0.000373584922
0.000373562717
0.000373701914
0.000373691755
0.000373635279
0.000373614325
0.000373743385
0.000373733576
0.000373681281
0.000373661475
0.000373781132
0.000373771647
0.000373723221
0.00037370448
0.000373815411
0.000373806234
0.000373761388
0.00037374364
0.000373846475
0.00037383759
0.000373796058
0.000373779241
0.000373874562
0.00037386596
0.000373827495
0.000373811557
0.000373899901
0.000373891576
0.000373855952
0.000373840845
0.000373922709
0.000373914658
0.000373881666
0.00037386735
0.000373943194
0.000373935413
0.000373904863
0.000373891299
0.000373961548
0.000373954037
0.000373925753
0.000373912907
0.000373977955
0.000373970714
0.000373944534
0.000373932376
0.000373992586
0.000373985616
0.000373961389
0.000373949894
0.0003740056
0.000373998903
0.000373976491
0.000373965636
0.000374017147
0.000374010725
0.00037399
0.000373979766
0.000374027367
0.000374021223
0.000374002068
0.000373992437
0.000374036387
0.000374030524
0.000374012833
0.00037400379
0.000374044328
0.000374038749
0.000374022427
0.000374013957
0.000374051301
0.000374046008
0.000374030972
0.000374023061
0.000374057409
0.000374052403
0.00037403858
0.000374031214
0.000374062746
0.000374058028
0.000374045358
0.000374038518
0.000374067402
0.000374062973
0.000374051412
0.000374045077
0.000374071509
0.00037406735
0.000374056864
0.00037405101
0.000374075375
0.000374071636
0.000374062654
0.000374057371
0.000374081215
0.000374077573
0.000374068761
0.000374064643
0.000374079664
0.000374080884
0.000374078273
0.000374076654
0.000374080289
0.000374079799
0.000374081792
0.000374081085
0.000374083318
0.00037408268
0.00037408476
0.000374084202
0.000374086078
0.000374085646
0.000374087251
0.000374086969
0.00037408827
0.000374088134
0.000374089136
0.000374089108
0.00037408985
0.000374089866
0.000374090415
0.000374090415
0.000374090833
0.00037409079
0.00037409112
0.000374091054
0.000374091307
0.000374091267
0.000374091449
0.000374091473
0.000374091603
0.000374091433
0.000374091118
0.000374090877
0.000374090713
0.000374090603
0.000374090536
0.000374090496
0.000374090475
0.000374090464
0.000374090459
0.000374090457
0.000374090456
0.000374090455
0.000374090455
0.000374090455
0.000374090455
0.000374090455
0.000374090455
0.000374090455
0.000374090455
0.000374090455
0.000374090455
0.000374090455
0.000374090455
0.000374090455
0.000374090455
0.000374090455
0.000374090455
0.000374090455
0.000374090455
0.000374090455
0.000374090455
0.000374090455
0.000374090455
0.000374090455
0.000374090455
0.000374090455
0.000374090455
0.000374090455
0.000374090455
0.000374090455
0.000374090455
0.000374090455
)
;

boundaryField
{
    closed
    {
        type            calculated;
        value           nonuniform List<scalar> 0();
    }
    open
    {
        type            calculated;
        value           uniform 0.000374090455;
    }
    sides
    {
        type            empty;
    }
    procBoundary5to4
    {
        type            processor;
        value           uniform 0.000344410957;
    }
}


// ************************************************************************* //
