/*--------------------------------*- C++ -*----------------------------------*\
| =========                 |                                                 |
| \\      /  F ield         | OpenFOAM: The Open Source CFD Toolbox           |
|  \\    /   O peration     | Version:  2306                                  |
|   \\  /    A nd           | Website:  www.openfoam.com                      |
|    \\/     M anipulation  |                                                 |
\*---------------------------------------------------------------------------*/
FoamFile
{
    version     2.0;
    format      ascii;
    arch        "LSB;label=32;scalar=64";
    class       volScalarField;
    location    "0.00152";
    object      p;
}
// * * * * * * * * * * * * * * * * * * * * * * * * * * * * * * * * * * * * * //

dimensions      [1 -1 -2 0 0 0 0];

internalField   nonuniform List<scalar> 
530
(
101552.613
101549.476
101549.345
101542.033
101531.853
101529.052
101530.031
101524.311
101515.301
101513.458
101515.721
101511.487
101503.445
101501.929
101504.666
101501.454
101494.509
101493.051
101495.417
101492.45
101485.617
101483.934
101486.169
101483.448
101476.796
101474.979
101477.251
101474.831
101468.307
101466.433
101468.72
101466.392
101460.014
101458.312
101460.743
101458.574
101452.373
101450.867
101453.54
101451.723
101445.822
101444.387
101447.324
101446.185
101440.957
101439.86
101443.166
101442.871
101438.565
101438.04
101441.835
101442.269
101438.696
101438.671
101442.842
101443.543
101440.459
101441.145
101445.646
101446.501
101443.805
101444.711
101449.162
101449.971
101447.224
101447.946
101452.115
101452.713
101449.848
101450.393
101454.254
101454.603
101451.616
101451.965
101455.516
101455.637
101452.545
101452.715
101455.941
101455.788
101452.58
101452.491
101455.282
101454.827
101451.449
101451.108
101453.461
101452.571
101448.945
101448.536
101450.795
101449.908
101446.316
101445.865
101448.05
101447.166
101443.639
101443.049
101445.078
101444.176
101440.706
101440.133
101442.163
101441.346
101437.983
101437.443
101439.476
101438.713
101435.433
101434.916
101436.939
101436.274
101433.175
101432.761
101434.824
101434.289
101431.39
101431.097
101433.215
101432.818
101430.116
101429.918
101432.058
101431.748
101429.186
101429.07
101431.238
101430.98
101428.469
101428.356
101430.509
101430.265
101427.772
101427.636
101429.748
101429.493
101427.001
101426.828
101428.887
101428.621
101426.143
101425.909
101427.848
101427.538
101425.069
101424.748
101426.519
101426.095
101423.546
101423.043
101424.551
101423.878
101421.123
101420.449
101421.737
101420.785
101417.742
101416.804
101417.878
101416.732
101413.509
101412.433
101413.396
101412.117
101408.747
101407.596
101408.565
101407.262
101403.843
101402.718
101403.775
101402.58
101399.284
101398.288
101399.448
101398.305
101395.063
101394.138
101395.39
101394.389
101391.366
101390.784
101392.407
101391.882
101389.354
101389.107
101390.981
101390.772
101388.653
101388.795
101390.933
101390.916
101388.928
101389.141
101391.319
101391.402
101389.547
101389.839
101392.027
101392.157
101390.393
101390.599
101392.587
101392.585
101390.775
101390.859
101392.612
101392.451
101390.626
101390.739
101392.412
101392.233
101390.494
101390.644
101392.248
101392.068
101390.417
101390.573
101392.087
101391.876
101390.289
101390.484
101391.999
101391.82
101390.246
101390.305
101391.652
101391.32
101389.606
101389.464
101390.629
101390.188
101388.375
101388.107
101389.156
101388.626
101386.755
101386.39
101387.324
101386.745
101384.854
101384.408
101385.234
101384.582
101382.642
101382.121
101382.846
101382.13
101380.152
101379.548
101380.193
101379.436
101377.425
101376.782
101377.417
101376.673
101374.668
101374.065
101374.795
101374.155
101372.234
101371.769
101372.696
101372.259
101370.516
101370.243
101371.371
101371.163
101369.677
101369.616
101370.875
101370.814
101369.504
101369.526
101370.784
101370.766
101369.524
101369.506
101370.655
101370.579
101369.322
101369.232
101370.255
101370.092
101368.81
101368.659
101369.575
101369.33
101368.033
101367.885
101368.754
101368.462
101367.184
101367.059
101367.906
101367.629
101366.419
101366.303
101367.113
101366.846
101365.682
101365.55
101366.297
101366.014
101364.862
101364.688
101365.356
101365.033
101363.881
101363.664
101364.222
101363.82
101362.655
101362.399
101362.853
101362.37
101361.189
101360.904
101361.269
101360.708
101359.51
101359.21
101359.506
101358.875
101357.663
101357.362
101357.606
101356.908
101355.677
101355.337
101355.501
101354.8
101353.62
101353.259
101353.358
101352.669
101351.544
101351.173
101351.223
101350.553
101349.491
101349.122
101349.136
101348.491
101347.488
101347.116
101347.092
101346.468
101345.52
101345.154
101345.09
101344.473
101343.595
101343.292
101343.262
101342.724
101341.926
101341.615
101341.553
101341.022
101340.259
101339.95
101339.862
101339.33
101338.591
101338.283
101338.181
101337.663
101336.953
101336.648
101336.534
101336.029
101335.347
101335.046
101334.927
101334.44
101333.785
101333.488
101333.362
101332.9
101332.286
101332.002
101331.875
101331.44
101330.871
101330.606
101330.481
101330.071
101329.539
101329.288
101329.166
101328.783
101328.289
101328.052
101327.933
101327.576
101327.118
101326.896
101326.78
101326.445
101326.023
101325.823
101325.719
101325.412
101325.023
101324.832
101324.729
101324.444
101324.085
101323.911
101323.816
101323.554
101323.226
101323.067
101322.982
101322.746
101322.449
101322.307
101322.231
101322.015
101321.744
101321.612
101321.541
101321.34
101321.087
101320.958
101320.882
101320.687
101320.442
101320.308
101320.222
101320.024
101319.778
101319.632
101319.527
101319.319
101319.063
101318.895
101318.759
101318.521
101318.231
101318.009
101317.804
101317.489
101317.105
101316.768
101316.429
101315.966
101315.418
101314.914
101314.425
101313.816
101313.164
101312.785
101312.654
101312.466
101312.212
101312.052
101311.973
101311.911
101311.856
101311.812
101311.771
101311.726
101311.674
101311.611
101311.535
101311.446
101311.34
101311.216
101311.073
101310.909
101310.721
101310.507
101310.264
101309.99
101309.684
101309.343
101308.967
101308.558
101308.117
101307.651
101307.169
101306.682
101306.206
101305.759
101305.363
101305.039
101304.805
101304.673
101304.644
101304.706
101304.828
101304.966
101305.068
101305.089
101305.007
101304.844
101304.674
101304.608
101304.757
101305.178
101305.831
101306.594
101307.343
101308.06
101308.877
101309.98
101311.458
101313.264
101315.444
101318.424
101322.941
101329.471
101337.579
101345.615
101351.092
101352.152
101348.861
101342.003
101332.458
101324.093
101322.609
101330.954
101346.227
101359.748
101364.764
101361.858
101351.948
101340.316
)
;

boundaryField
{
    closed
    {
        type            zeroGradient;
    }
    open
    {
        type            waveTransmissive;
        gamma           1.25;
        fieldInf        101325;
        lInf            1;
        value           uniform 101338.008;
    }
    sides
    {
        type            empty;
    }
    procBoundary5to4
    {
        type            processor;
        value           uniform 101562.508;
    }
}


// ************************************************************************* //
