/*--------------------------------*- C++ -*----------------------------------*\
| =========                 |                                                 |
| \\      /  F ield         | OpenFOAM: The Open Source CFD Toolbox           |
|  \\    /   O peration     | Version:  2306                                  |
|   \\  /    A nd           | Website:  www.openfoam.com                      |
|    \\/     M anipulation  |                                                 |
\*---------------------------------------------------------------------------*/
FoamFile
{
    version     2.0;
    format      ascii;
    arch        "LSB;label=32;scalar=64";
    class       volScalarField;
    location    "0.00152";
    object      prefDh_H2O;
}
// * * * * * * * * * * * * * * * * * * * * * * * * * * * * * * * * * * * * * //

dimensions      [1 1 -3 0 0 0 0];

internalField   nonuniform List<scalar> 
530
(
-198.584189
-197.429037
-202.625665
-202.634769
-198.865056
-198.125581
-202.817747
-202.83221
-199.120604
-198.770722
-203.035795
-203.014548
-199.272023
-199.410262
-203.188681
-203.162647
-199.321136
-200.004853
-203.319893
-203.31644
-199.415749
-200.414382
-203.463744
-203.459349
-199.683056
-200.664815
-203.606888
-203.595885
-199.987703
-200.880303
-203.746615
-203.730445
-200.250877
-201.115019
-203.883048
-203.864489
-200.491772
-201.32666
-203.997816
-203.998323
-200.729406
-201.521687
-204.0763
-204.129563
-200.92733
-201.730794
-204.143986
-204.253949
-201.126854
-201.891881
-204.271779
-204.370955
-201.382358
-201.972616
-204.445443
-204.469168
-201.604547
-202.093066
-204.572215
-204.578302
-201.793692
-202.181749
-204.668303
-204.671143
-201.960369
-202.259476
-204.761115
-204.761226
-202.102603
-202.357145
-204.852942
-204.850671
-202.232832
-202.47062
-204.943221
-204.941086
-202.354077
-202.611622
-205.033182
-205.027821
-202.472662
-202.735306
-205.11667
-205.113219
-202.580822
-202.871746
-205.204334
-205.199539
-202.66142
-202.997936
-205.293776
-205.28964
-202.791057
-203.120687
-205.385444
-205.381696
-202.93563
-203.236396
-205.473373
-205.474923
-203.061533
-203.375008
-205.565452
-205.569007
-203.194883
-203.503764
-205.658286
-205.661854
-203.325705
-203.622334
-205.74711
-205.750874
-203.458646
-203.744088
-205.837072
-205.840887
-203.593256
-203.866132
-205.927441
-205.931449
-203.727298
-203.987756
-206.01795
-206.022548
-203.85175
-204.108582
-206.108787
-206.114675
-203.971064
-204.227567
-206.200161
-206.207178
-204.087975
-204.347626
-206.29234
-206.300374
-204.204002
-204.467121
-206.384379
-206.393109
-204.32004
-204.586904
-206.474003
-206.483647
-204.436708
-204.707179
-206.564684
-206.575231
-204.555545
-204.827895
-206.65744
-206.667601
-204.664918
-204.948596
-206.756018
-206.763541
-204.797161
-205.069178
-206.856471
-206.863654
-204.937898
-205.203949
-206.959211
-206.966164
-205.082369
-205.338524
-207.063808
-207.069563
-205.226953
-205.469035
-207.163978
-207.168437
-205.370335
-205.613791
-207.266396
-207.267927
-205.511816
-205.746661
-207.366443
-207.367415
-205.644618
-205.877081
-207.465111
-207.467007
-205.804354
-206.007302
-207.557243
-207.560331
-205.909824
-206.127232
-207.644497
-207.649063
-205.999344
-206.211687
-207.726897
-207.734972
-206.086658
-206.304311
-207.809546
-207.817554
-206.183398
-206.398059
-207.88844
-207.897987
-206.271656
-206.509655
-207.967629
-207.978111
-206.359046
-206.624995
-208.04707
-208.057196
-206.461217
-206.731907
-208.124234
-208.134709
-206.555654
-206.838671
-208.19956
-208.210606
-206.633525
-206.93106
-208.274047
-208.28645
-206.724118
-207.021386
-208.348557
-208.361993
-206.817332
-207.109051
-208.423469
-208.436144
-206.922854
-207.191696
-208.497579
-208.507652
-207.032794
-207.273494
-208.567171
-208.575736
-207.142768
-207.359792
-208.635304
-208.643324
-207.245695
-207.454007
-208.701009
-208.70845
-207.348354
-207.551173
-208.764636
-208.772912
-207.451392
-207.653301
-208.827498
-208.836472
-207.555923
-207.756532
-208.889155
-208.898799
-207.65356
-207.858027
-208.948353
-208.959273
-207.733611
-207.954716
-209.003126
-209.016369
-207.786381
-208.044597
-209.053615
-209.070341
-207.824274
-208.121011
-209.101906
-209.121708
-207.871157
-208.188361
-209.150102
-209.170974
-207.937141
-208.249724
-209.198414
-209.217019
-208.019274
-208.308138
-209.245106
-209.261271
-208.106431
-208.368595
-209.291153
-209.303913
-208.193157
-208.42777
-209.33431
-209.345235
-208.268836
-208.487616
-209.374761
-209.385276
-208.3358
-208.547667
-209.413395
-209.424114
-208.399487
-208.608218
-209.450668
-209.461466
-208.462975
-208.670809
-209.486779
-209.496711
-208.528182
-208.731775
-209.521872
-209.530639
-208.596204
-208.791829
-209.556081
-209.563212
-208.666919
-208.850913
-209.589388
-209.594481
-208.737901
-208.908987
-209.621844
-209.624476
-208.81028
-208.96645
-209.650747
-209.653159
-208.884262
-209.024451
-209.678564
-209.680711
-208.956333
-209.082743
-209.705206
-209.70703
-209.025336
-209.138575
-209.730542
-209.732014
-209.091698
-209.193017
-209.754632
-209.75592
-209.154501
-209.256377
-209.778
-209.778594
-209.20799
-209.30838
-209.799495
-209.80019
-209.26624
-209.351427
-209.819171
-209.820576
-209.313704
-209.402118
-209.838122
-209.839973
-209.358385
-209.449901
-209.856132
-209.858295
-209.403224
-209.494255
-209.873208
-209.875487
-209.447131
-209.534975
-209.889365
-209.891591
-209.490492
-209.57261
-209.904149
-209.906151
-209.531958
-209.608707
-209.917812
-209.919731
-209.5702
-209.643037
-209.930593
-209.932422
-209.606554
-209.674456
-209.942562
-209.944262
-209.641648
-209.704049
-209.953717
-209.955317
-209.673816
-209.732725
-209.964075
-209.96561
-209.703099
-209.758942
-209.973698
-209.97515
-209.731869
-209.782836
-209.982632
-209.983987
-209.758285
-209.805675
-209.990903
-209.992173
-209.782741
-209.826676
-209.998539
-209.999731
-209.80579
-209.846248
-210.005604
-210.006695
-209.827379
-209.864218
-210.012132
-210.013102
-209.847896
-209.880845
-210.018149
-210.018992
-209.867038
-209.89635
-210.023681
-210.024398
-209.884957
-209.910653
-210.028758
-210.029352
-209.901778
-209.923904
-210.033414
-210.033886
-209.917557
-209.936207
-210.037686
-210.038053
-209.932452
-209.948012
-210.041775
-210.0421
-209.949428
-209.963063
-210.046411
-210.046617
-209.969293
-209.983719
-210.027494
-210.034268
-210.008966
-210.017756
-210.018956
-210.026871
-210.022159
-210.029336
-210.026686
-210.033197
-210.031246
-210.037184
-210.035866
-210.04141
-210.040396
-210.045882
-210.044958
-210.050281
-210.049451
-210.054503
-210.053777
-210.058424
-210.057845
-210.061935
-210.06156
-210.064955
-210.06483
-210.067452
-210.067581
-210.069438
-210.06977
-210.070969
-210.071404
-210.072127
-210.072556
-210.072999
-210.073359
-210.073657
-210.073853
-210.073776
-210.073721
-210.073683
-210.073661
-210.073647
-210.073638
-210.073635
-210.073633
-210.073632
-210.073632
-210.073632
-210.073632
-210.073632
-210.073632
-210.073632
-210.073632
-210.073632
-210.073632
-210.073632
-210.073632
-210.073632
-210.073632
-210.073632
-210.073632
-210.073632
-210.073632
-210.073632
-210.073632
-210.073632
-210.073632
-210.073632
-210.073632
-210.073632
-210.073632
-210.073632
-210.073632
-210.073632
)
;

boundaryField
{
    closed
    {
        type            calculated;
        value           nonuniform List<scalar> 0();
    }
    open
    {
        type            calculated;
        value           uniform -210.073632;
    }
    sides
    {
        type            empty;
    }
    procBoundary5to4
    {
        type            processor;
        value           uniform -202.417791;
    }
}


// ************************************************************************* //
