/*--------------------------------*- C++ -*----------------------------------*\
| =========                 |                                                 |
| \\      /  F ield         | OpenFOAM: The Open Source CFD Toolbox           |
|  \\    /   O peration     | Version:  2306                                  |
|   \\  /    A nd           | Website:  www.openfoam.com                      |
|    \\/     M anipulation  |                                                 |
\*---------------------------------------------------------------------------*/
FoamFile
{
    version     2.0;
    format      ascii;
    arch        "LSB;label=32;scalar=64";
    class       volScalarField;
    location    "0.00152";
    object      prefDZ_H2;
}
// * * * * * * * * * * * * * * * * * * * * * * * * * * * * * * * * * * * * * //

dimensions      [1 -1 -1 0 0 0 0];

internalField   nonuniform List<scalar> 
530
(
0.000173536303
0.000173630905
0.000174720411
0.000174725462
0.000173899184
0.000173980978
0.000175042553
0.000175027407
0.000174224365
0.000174306723
0.000175337762
0.000175307358
0.000174507408
0.000174619472
0.000175574085
0.000175535953
0.00017474529
0.000174921385
0.000175777859
0.000175773805
0.000174976373
0.000175185183
0.000176006808
0.000176001191
0.000175240518
0.000175413077
0.000176237159
0.000176220701
0.000175499536
0.000175634826
0.00017646248
0.000176437666
0.000175738457
0.000175868675
0.000176682923
0.000176654216
0.000175967991
0.000176094012
0.000176888065
0.000176870726
0.0001761939
0.000176312385
0.00017706858
0.000177083397
0.000176409813
0.000176533579
0.000177241205
0.000177287017
0.000176622059
0.000176740175
0.000177432977
0.000177484441
0.000176843731
0.00017692737
0.000177642192
0.000177663854
0.000177037156
0.000177121123
0.000177825017
0.000177835354
0.000177219042
0.000177288163
0.000177987953
0.000177992833
0.00017739393
0.000177444604
0.000178145259
0.000178145592
0.000177561706
0.000177604341
0.000178300703
0.000178297076
0.000177725024
0.000177766609
0.000178453346
0.000178449935
0.000177884609
0.000177935336
0.000178609605
0.000178600715
0.000178042462
0.000178097753
0.000178756689
0.000178751036
0.000178196816
0.000178262436
0.000178910684
0.000178902694
0.000178344235
0.000178423643
0.000179067471
0.000179060577
0.000178514649
0.000178588974
0.000179227834
0.000179221562
0.000178687732
0.000178755996
0.000179381544
0.000179384328
0.000178855861
0.000178928608
0.000179542121
0.000179548331
0.000179026886
0.000179098456
0.000179703775
0.000179709993
0.000179197342
0.000179265715
0.000179864267
0.0001798711
0.000179368616
0.000179434655
0.000180027367
0.000180034281
0.000179541005
0.000179604157
0.000180190985
0.000180198232
0.000179714202
0.000179774331
0.000180354658
0.000180362951
0.000179885434
0.000179945371
0.000180518737
0.000180529336
0.00018005635
0.000180117198
0.000180683617
0.000180696238
0.000180227898
0.000180290467
0.000180849797
0.000180864254
0.000180400518
0.000180464918
0.000181017202
0.000181033468
0.000180574472
0.000180640727
0.000181185619
0.000181203602
0.000180750081
0.000180818015
0.000181355903
0.000181375595
0.000180927536
0.000180996821
0.00018152999
0.000181548993
0.000181104034
0.000181177104
0.000181714951
0.000181729049
0.000181295492
0.000181362189
0.000181903465
0.000181916954
0.000181492036
0.000181557756
0.000182096367
0.000182109444
0.000181690948
0.000181754085
0.000182292906
0.000182303743
0.000181891155
0.000181950299
0.000182488507
0.000182497246
0.00018209184
0.000182152484
0.000182689406
0.000182692419
0.000182293254
0.000182351111
0.000182885882
0.000182887783
0.000182492934
0.000182549409
0.000183079877
0.000183083586
0.000182699781
0.000182746883
0.000183261215
0.00018326728
0.000182877725
0.000182933597
0.000183433112
0.000183442116
0.000183049846
0.000183104668
0.00018359556
0.000183611567
0.000183220263
0.000183278275
0.000183761121
0.000183777625
0.000183392582
0.000183450811
0.000183923817
0.00018394354
0.000183560367
0.000183627202
0.000184087353
0.000184109055
0.000183725772
0.000183803251
0.000184251683
0.000184272692
0.000183893943
0.000183974663
0.000184411576
0.000184433354
0.000184057801
0.000184143671
0.000184567928
0.000184590962
0.000184215317
0.000184306041
0.00018472282
0.00018474878
0.000184379429
0.000184468668
0.000184878091
0.000184906323
0.00018454178
0.000184629178
0.000185034581
0.000185061313
0.000184705061
0.000184785848
0.000185190857
0.000185212917
0.000184867051
0.000184939396
0.000185343103
0.000185361921
0.000185027028
0.000185092164
0.000185492518
0.000185510195
0.000185181953
0.000185244818
0.000185639233
0.000185656408
0.000185334368
0.000185395779
0.000185783019
0.000185802231
0.00018548433
0.000185545561
0.000185925671
0.000185946618
0.000185632181
0.000185692934
0.000186066146
0.000186088784
0.000185775259
0.000185837078
0.000186201455
0.000186227209
0.000185910069
0.000185978153
0.000186326906
0.00018635823
0.000186032749
0.000186116682
0.000186442739
0.000186482405
0.000186147559
0.000186247114
0.000186553831
0.000186600955
0.000186262621
0.000186371136
0.000186665217
0.000186715043
0.000186380672
0.000186489706
0.000186778918
0.000186825138
0.000186500966
0.000186604169
0.000186892634
0.000186932882
0.000186619693
0.000186716565
0.000187005271
0.00018703707
0.000186735659
0.000186825624
0.00018711116
0.000187138409
0.000186847901
0.000186932071
0.000187210689
0.000187236974
0.000186954009
0.000187035772
0.000187306061
0.000187332936
0.000187055967
0.00018713695
0.000187398411
0.000187425551
0.000187154929
0.000187235863
0.000187488228
0.000187513206
0.000187251603
0.000187331634
0.000187575863
0.000187597888
0.00018734645
0.000187424153
0.000187661635
0.000187679483
0.00018743964
0.000187513493
0.000187745471
0.000187758101
0.00018753039
0.000187599693
0.000187827455
0.000187833788
0.000187619183
0.000187682924
0.000187900671
0.000187906427
0.000187705888
0.000187763634
0.000187971359
0.000187976454
0.000187789541
0.000187841856
0.000188039303
0.000188043589
0.000187869472
0.000187916473
0.000188104135
0.000188107541
0.000187945885
0.000187988027
0.000188165991
0.000188168943
0.000188018445
0.000188061008
0.000188226234
0.000188227372
0.000188084757
0.000188126786
0.000188281805
0.000188283241
0.000188150915
0.000188186499
0.000188332823
0.000188336137
0.000188210311
0.000188247306
0.000188382156
0.000188386649
0.00018826641
0.000188304725
0.00018842919
0.000188434533
0.000188320541
0.000188358639
0.000188473935
0.000188479613
0.000188372223
0.000188409003
0.000188516414
0.000188521987
0.000188421735
0.000188456101
0.000188556457
0.000188561735
0.000188468543
0.000188500672
0.000188594039
0.000188599106
0.00018851216
0.000188542691
0.000188629301
0.000188634139
0.000188553237
0.0001885817
0.000188662417
0.000188666924
0.000188592115
0.000188618268
0.000188693376
0.000188697625
0.000188628142
0.000188652846
0.000188722209
0.000188726289
0.000188661404
0.000188684845
0.000188749077
0.000188752946
0.00018869301
0.000188714384
0.000188774092
0.000188777711
0.000188722203
0.0001887421
0.000188797323
0.000188800719
0.000188749253
0.000188767699
0.000188818836
0.00018882203
0.000188774454
0.000188791449
0.000188838802
0.000188841728
0.000188797847
0.000188813326
0.000188857305
0.000188859909
0.00018881967
0.000188833522
0.000188874413
0.000188876677
0.000188839846
0.000188852195
0.000188890195
0.00018889212
0.000188858512
0.000188869373
0.000188904727
0.000188906319
0.000188875777
0.000188885186
0.000188918099
0.000188919362
0.000188891724
0.000188899732
0.000188930408
0.000188931394
0.000188906474
0.000188913269
0.000188942218
0.000188943103
0.00018892128
0.000188927427
0.000188955568
0.000188956147
0.000188936502
0.000188943242
0.000188963968
0.000188967814
0.000188960203
0.000188965171
0.000188968459
0.000188973361
0.000188974176
0.000188979025
0.000188980687
0.00018898544
0.000188987406
0.000188992003
0.000188994275
0.000188998641
0.000189001157
0.000189005473
0.000189007917
0.000189012084
0.00018901437
0.000189018286
0.000189020326
0.000189023879
0.000189025609
0.000189028684
0.000189030076
0.000189032575
0.00018903363
0.000189035503
0.000189036252
0.00018903751
0.000189038001
0.00018903873
0.000189039019
0.000189039365
0.000189039512
0.00018903964
0.000189039709
0.000189039752
0.000189039719
0.000189039528
0.000189039391
0.000189039293
0.000189039236
0.000189039199
0.000189039178
0.000189039168
0.000189039163
0.000189039161
0.00018903916
0.00018903916
0.00018903916
0.00018903916
0.00018903916
0.00018903916
0.00018903916
0.00018903916
0.00018903916
0.00018903916
0.00018903916
0.00018903916
0.00018903916
0.00018903916
0.00018903916
0.00018903916
0.00018903916
0.00018903916
0.00018903916
0.00018903916
0.00018903916
0.00018903916
0.00018903916
0.00018903916
0.00018903916
0.00018903916
0.00018903916
0.00018903916
)
;

boundaryField
{
    closed
    {
        type            calculated;
        value           nonuniform List<scalar> 0();
    }
    open
    {
        type            calculated;
        value           uniform 0.00018903916;
    }
    sides
    {
        type            empty;
    }
    procBoundary5to4
    {
        type            processor;
        value           uniform 0.000174395023;
    }
}


// ************************************************************************* //
