/*--------------------------------*- C++ -*----------------------------------*\
| =========                 |                                                 |
| \\      /  F ield         | OpenFOAM: The Open Source CFD Toolbox           |
|  \\    /   O peration     | Version:  2306                                  |
|   \\  /    A nd           | Website:  www.openfoam.com                      |
|    \\/     M anipulation  |                                                 |
\*---------------------------------------------------------------------------*/
FoamFile
{
    version     2.0;
    format      ascii;
    arch        "LSB;label=32;scalar=64";
    class       volScalarField;
    location    "0.0014";
    object      h;
}
// * * * * * * * * * * * * * * * * * * * * * * * * * * * * * * * * * * * * * //

dimensions      [0 2 -2 0 0 0 0];

internalField   nonuniform List<scalar> 
530
(
893.879294
9726.52621
10617.1617
10458.3567
1604.81994
-4073.14169
-6140.45718
-5148.02684
9086.89288
6730.68612
-5651.65652
-2636.67657
9389.67753
7042.30209
-5430.89589
-4771.85803
8976.81931
10546.9185
10147.8658
-385.152289
-7503.36314
-7249.29283
8393.94718
9686.03697
9631.85194
9772.58922
2068.57556
-5283.42149
-6455.86728
-3737.56179
9391.35653
10412.8711
338.842038
-3619.51187
8131.54652
10459.1173
2985.50299
-1640.62949
-3842.88986
-5707.93958
-3285.55926
9233.57516
10421.5595
4357.56168
-4204.7422
-558.557811
9452.17464
10501.8693
10406.2113
3187.78978
-3883.17505
-4799.7926
-7396.47528
-6543.83982
8924.60333
10118.8546
1329.38392
-4166.83998
4048.91033
10135.4985
7790.65645
-2468.7303
-6606.80335
-4232.22865
8664.59507
10482.8299
10107.7998
-1284.61977
-6347.69112
-2339.83722
9156.70678
3089.04163
-4667.73814
2595.1369
9312.6549
10389.268
8887.69104
-400.095265
-5659.24264
-6207.43758
123.194516
9362.54756
6597.4262
-4750.51562
-7101.31715
-3335.60729
9190.33033
10393.4913
1267.42863
-3587.98119
6412.33985
10264.143
3843.00706
-2548.0787
-3657.1926
-7270.76815
-7258.24791
7831.95813
9850.20219
9536.04637
10065.1914
2575.79121
-4062.76092
5907.34312
9909.86597
293.342793
-4865.08168
3547.80964
9760.43774
-9.11229543
-4268.20228
6433.48749
10278.1029
3023.28906
-1811.52086
-4596.16879
-5825.40279
-983.146844
9573.04545
10339.0945
1620.34124
-4028.78307
5221.91027
10049.7925
7472.04534
-3419.39474
-6352.24289
-135.40649
9236.32047
1009.41945
-5084.50802
6258.11433
9964.43637
5103.09841
-3657.62408
-6148.47005
-1585.2009
9068.02956
2296.15989
-5036.1369
4398.94511
9765.86733
166.347584
-4605.05086
5110.44795
9878.90232
-416.532646
-4395.69688
6276.37858
10006.32
-1351.91614
-4088.32047
7842.92759
10196.4959
-1607.45825
-3408.09532
7987.05689
10499.3174
3557.49111
-1476.63748
-3239.52804
-5668.61404
-4523.86256
8661.38957
10046.9433
9919.42964
9914.21637
3023.24688
-6736.92992
-6747.37732
5551.84517
3590.72562
-6855.2738
1759.47703
9369.21351
811.542616
-5210.179
3662.49535
9755.87164
-483.905828
-4291.13503
4906.79299
10056.4499
10117.5525
4905.83031
-2554.72221
-4125.76674
-6850.53102
-5389.22496
8268.23568
10123.0011
9212.36153
10135.62
9909.23713
-3558.56485
-6540.56286
2156.45996
9529.64647
5168.238
-4580.44664
-6388.47082
-1195.33228
9257.4519
1149.43749
-3929.03812
4997.10041
4782.63808
-6052.6718
-2207.63841
9238.68028
10270.0502
4242.18316
-5215.11648
-2200.64539
8897.50788
10113.7379
9951.26439
9895.16767
-406.760369
-5794.64026
2621.5912
9773.78901
3791.57406
-2732.40069
-4478.32083
-5805.51914
-1350.43994
9190.19727
10383.3217
6207.8129
-3935.65803
-6287.18878
-31.3784046
9197.75765
-83.0377128
-4891.42792
7483.32275
10054.9994
-2503.71557
-4048.84363
6668.78672
10314.1899
10185.9571
4154.03794
-2068.31536
-6027.78055
-6288.14008
4300.24264
9603.25027
-1385.56611
-5039.73266
7544.23482
10065.1064
4059.5122
-3532.68287
-5884.64324
-3356.3373
8680.89991
10364.7215
9909.39501
10404.9433
4980.36893
-2621.57169
-4939.07833
-6711.17654
-3754.24964
9008.15934
10173.3556
166.599598
-5427.29195
7352.04255
9784.99476
1926.9097
-4964.04215
-7307.59645
-5220.56248
8385.4349
10483.8142
10464.8702
-212.022477
-3279.95423
6047.98377
6011.61786
-7612.4977
-3391.70262
8577.01453
10518.3908
10497.7952
-912.740804
-3310.23429
7192.17225
4091.66203
-7199.39895
-746.974638
9379.82211
10052.8809
4240.8891
-5070.25673
-7746.28215
-4918.3682
8177.86692
9829.69053
9676.87412
9435.58799
-3436.96948
-5887.64281
3173.19509
1449.57122
-5958.73381
6211.60417
9603.15232
3924.09428
-6386.63488
-6827.41525
3215.55243
9863.8185
9868.54719
-207.066455
-4465.0025
7209.66008
9984.24331
-884.1343
-4841.34201
3564.47741
9494.80812
10102.9442
10064.777
1825.06242
-7174.53712
-7264.579
6011.37932
132.281862
-7135.08233
6645.75658
9619.32903
-1166.87587
-5829.29269
1110.0959
9365.61925
10071.4169
10197.2361
6876.2101
-1547.47963
-6728.59497
-6734.76468
7064.35969
9552.75201
1755.54069
-7739.81766
-7852.45696
4195.35291
9881.06025
9621.89979
-904.627032
-5294.44248
7214.8792
9914.68622
-2494.54299
-5101.52971
7488.06042
9908.6158
-720.525255
-5426.03012
449.633718
9285.7067
10449.2656
10473.7343
-900.863792
-4443.13517
3731.51818
-611.315562
-6421.4622
3378.99135
9962.17001
9722.18995
592.591735
-4997.9709
7838.77271
9948.89083
3814.90774
-6118.14926
-6146.31712
7250.28773
10271.5302
5564.78165
-901.143093
-6284.2219
-6251.37067
7831.85431
430.875289
-7105.11574
7467.33372
9695.99075
-2034.60355
-6091.97957
2661.36783
9436.40495
10196.1055
10191.5542
-388.159871
-5190.61708
7919.39403
9842.15075
1856.35095
-6834.7632
-6831.83285
7627.74732
9783.83212
3382.12188
-6305.50527
-6361.23682
7595.40796
9856.43605
-1758.08278
-5113.36694
7985.04091
9799.17337
2258.25003
-7740.82713
-7762.7493
6463.55763
9980.07795
9679.58114
-2322.28522
-5641.93538
7475.50535
9905.88613
-3916.4877
-5453.25822
6980.80159
10163.0169
9928.79906
-2689.94589
-5552.5887
7687.31339
9885.63886
-2344.1427
-5424.89654
7895.38167
9811.41472
1953.38405
-7065.75767
-7086.59673
6410.9844
9729.82427
-2854.3323
-5300.19727
6060.34868
10157.5225
9694.52143
-2281.51756
-5708.1868
7570.65459
9921.19327
-3082.37165
-5089.17159
4347.36893
10108.2183
9903.73435
4747.97438
-6847.07073
-6909.87127
7008.42789
238.666981
-7935.45362
2728.28215
9320.15262
10019.5765
10026.1409
-2532.13545
-4471.11818
6703.011
27.1308567
-7813.57936
7537.26085
9760.49601
-3147.35006
-5082.88495
7788.16483
10098.8953
-3115.96643
-4561.41174
6386.7789
9675.76073
9481.29698
9073.63832
-6054.62693
-6378.43425
7151.96593
1413.50048
-6347.74515
7936.19469
10011.6193
-2014.05961
-3902.49223
8305.68486
10447.7964
1917.62916
-2219.48598
-6114.51573
-6098.75155
7774.7317
9707.03985
-2594.43829
-7351.56848
7861.7406
8756.8106
-1023.28311
7469.32126
10436.0517
-2916.34326
-3791.77244
8223.06422
10392.7357
876.195585
-2655.81151
-6407.79021
-6401.48868
7546.90993
9797.42354
-3218.30911
-6063.18555
5031.49509
9658.10857
9807.8765
9889.58968
-36.0516559
-4879.05289
8278.78085
9918.58338
)
;

boundaryField
{
    closed
    {
        type            lookUpEnthalpy;
        h0              nonuniform List<scalar> 0();
        value           nonuniform List<scalar> 0();
    }
    open
    {
        type            zeroGradient;
    }
    sides
    {
        type            empty;
    }
    procBoundary2to1
    {
        type            processor;
        value           uniform -4179.11395;
    }
    procBoundary2to3
    {
        type            processor;
        value           uniform 1955.23303;
    }
}


// ************************************************************************* //
