/*--------------------------------*- C++ -*----------------------------------*\
| =========                 |                                                 |
| \\      /  F ield         | OpenFOAM: The Open Source CFD Toolbox           |
|  \\    /   O peration     | Version:  2306                                  |
|   \\  /    A nd           | Website:  www.openfoam.com                      |
|    \\/     M anipulation  |                                                 |
\*---------------------------------------------------------------------------*/
FoamFile
{
    version     2.0;
    format      ascii;
    arch        "LSB;label=32;scalar=64";
    class       volScalarField;
    location    "0.00146";
    object      prefDZ_H;
}
// * * * * * * * * * * * * * * * * * * * * * * * * * * * * * * * * * * * * * //

dimensions      [1 -1 -1 0 0 0 0];

internalField   nonuniform List<scalar> 
531
(
0.000110295138
0.000107073809
0.000106414863
0.000106878335
0.000107968919
0.000110347718
0.000110224839
0.000107107895
0.000106632882
0.000107921931
0.000110296707
0.000110225295
0.00010695611
0.000106561157
0.000107915628
0.000110302064
0.00011020095
0.000106815122
0.000106495486
0.00010790881
0.000110298929
0.000110198515
0.000106736335
0.000106626395
0.000107976837
0.000110304416
0.000110173521
0.000106883092
0.000106814425
0.000108042517
0.00011031329
0.0001100962
0.000106615452
0.000106547706
0.000107981912
0.000110152063
0.000110375284
0.000109942424
0.000106997711
0.000106535859
0.000107126648
0.000107184646
0.000108056391
0.000110321788
0.000110066953
0.000106600181
0.000106486628
0.000107935785
0.000110288495
0.000110049721
0.00010631543
0.000106307438
0.000107965327
0.000110285905
0.00010884379
0.000107612027
0.00010786956
0.000110345807
0.000108311517
0.000107538293
0.000107834841
0.00011041371
0.000110054649
0.000106432521
0.000106291648
0.000107894724
0.000110266764
0.000110062964
0.00010611121
0.000105980338
0.000106739422
0.000108012294
0.000110364215
0.000110261412
0.000108015177
0.000106832377
0.0001068839
0.000107942627
0.000110308097
0.000109937828
0.000106746914
0.000106841336
0.000108702447
0.000110225992
0.000109194504
0.00010682836
0.000106209213
0.000106929251
0.000108209396
0.000110325017
0.000110115249
0.000106792219
0.000106376951
0.00010799091
0.000110257047
0.000110183413
0.000106663903
0.000106137382
0.000108073044
0.000110127505
0.000110314847
0.000109042683
0.000106728891
0.000106063231
0.000106629267
0.000108095962
0.000110286978
0.000110179549
0.000106681206
0.000106371057
0.000108123742
0.000110221595
0.000109942852
0.00010684824
0.000106225639
0.000107828345
0.000110300468
0.000110262142
0.000107722889
0.000107902009
0.000110373944
0.000110226749
0.000106599853
0.000106062215
0.000107890684
0.00011020396
0.000109926358
0.000106666503
0.000106189969
0.000107914892
0.000110211055
0.000109773953
0.000106776665
0.000106264532
0.00010790388
0.000110210803
0.000109743902
0.000106872968
0.000106299562
0.000107889804
0.000110196069
0.000109770358
0.000106953145
0.000106337798
0.000107903356
0.000110164504
0.000109700573
0.000106959942
0.000106388568
0.000108056462
0.000110167752
0.000108939788
0.000106841005
0.000106471516
0.000108107022
0.000110253696
0.000108313007
0.000107485621
0.000107916687
0.000110279951
0.000107975787
0.000107312295
0.000107789863
0.000110138329
0.000110139143
0.000106903249
0.000106219354
0.000108178865
0.000110119819
0.000108642982
0.000107018224
0.000106703902
0.000106560276
0.000106644774
0.000108971512
0.000110276253
0.000108348042
0.000107731225
0.00010780726
0.000110079338
0.000109287658
0.000106547821
0.000106263309
0.000108968807
0.000110256495
0.000108042036
0.000107513872
0.000107802815
0.00011008768
0.000108503688
0.0001064036
0.00010633603
0.000109889032
0.000110350799
0.000107801536
0.000107253741
0.000108127438
0.000110165071
0.000108004147
0.000106341118
0.000107021222
0.000109989868
0.000110462089
0.000107766421
0.0001070103
0.000108307274
0.00011012861
0.000108093776
0.000106273377
0.000106263505
0.000109885887
0.00011027572
0.000107885362
0.000106519792
0.000106863852
0.000109986274
0.00011037685
0.000107887153
0.000106793693
0.000106506406
0.000107458984
0.000110041514
0.000110420722
0.000107719415
0.000106763664
0.00010774167
0.000109991892
0.000110457114
0.000107690079
0.000106803148
0.000107725888
0.000110005229
0.000110424343
0.000107667826
0.000106432929
0.000107729665
0.000109937118
0.000110413456
0.000107671956
0.000106237944
0.000107816521
0.000109884678
0.000110450347
0.000107704152
0.000107764345
0.000109416405
0.000110345879
0.000107643585
0.00010623692
0.00010772714
0.000109814897
0.000110430308
0.000107661583
0.00010640675
0.00010773171
0.000109814647
0.000110418923
0.000107686414
0.000106608131
0.000107727871
0.000109819999
0.00011038496
0.000107722119
0.000106644712
0.000107015577
0.000106766127
0.00010753045
0.000109764786
0.000110461866
0.000107739731
0.000107644739
0.000109159865
0.000110396751
0.000107783263
0.000107853894
0.000109279709
0.000110309122
0.000107720518
0.000106319575
0.000107515183
0.00010982361
0.000110403608
0.00010770672
0.000106038803
0.000107397343
0.000109841887
0.000110278468
0.00010780609
0.00010738739
0.000109384022
0.000110318243
0.000107811391
0.000107538318
0.000109295145
0.000110296646
0.000107763739
0.000106305326
0.000107212537
0.000109884123
0.000110358093
0.000107799769
0.000106412242
0.000107230643
0.00010992286
0.000110335073
0.000107806735
0.000106281411
0.000106977514
0.000109944801
0.00011030755
0.000107801432
0.000106016822
0.000106633817
0.000109936067
0.000110382105
0.000107837317
0.00010739542
0.00010897933
0.000110238141
0.000107782755
0.000105912182
0.000106461529
0.000109965527
0.00011038382
0.000107848289
0.000107417347
0.000108934015
0.000110233658
0.000107783291
0.000105786252
0.000106287838
0.000110003385
0.000110371778
0.000107845478
0.000107159866
0.000108818464
0.000110376188
0.000107812934
0.000107419812
0.000109108862
0.000110240183
0.00010779445
0.000106089752
0.000106848289
0.000110123846
0.000110261863
0.0001078335
0.000105975875
0.000106485781
0.000110141456
0.000110362906
0.000107884117
0.000107110556
0.000109086483
0.000110366661
0.000107860131
0.00010711298
0.000109362284
0.000110212077
0.00010780615
0.000105585916
0.000106189956
0.000110185776
0.000110357424
0.000107975074
0.000107035222
0.000109624319
0.000110368989
0.000108013651
0.000107268432
0.000110079178
0.000110242809
0.000107859419
0.00010598762
0.000106576459
0.0001102283
0.00011038304
0.000107969733
0.000107401565
0.000110291306
0.000110295495
0.000107851589
0.00010632279
0.00010696546
0.000110318536
0.000110297994
0.0001078048
0.000106390964
0.000107002893
0.000110350119
0.000110316661
0.00010780117
0.00010646238
0.00010703562
0.000110367523
0.000110308098
0.000107794635
0.000106508839
0.000107017643
0.000110328509
0.000110392235
0.000107845104
0.000106879658
0.000106317627
0.000106669566
0.000110263242
0.000110355929
0.000110224068
0.000107763885
0.000106194939
0.000106683137
0.000110317894
0.000110301045
0.000107782321
0.000106094256
0.000106522139
0.000110272921
0.000110390881
0.000107842504
0.000107235913
0.000110286151
0.000110302229
0.000107783534
0.000105924237
0.00010634915
0.000110188027
0.000110389915
0.000107808081
0.00010702171
0.000110034592
0.000110397627
0.000107818403
0.000107176916
0.000109940052
0.000110374695
0.000107910801
0.000107277179
0.000109920662
0.000110255761
0.000107800827
0.000106042142
0.000106425572
0.000110020339
0.000110346939
0.000107885971
0.000107254467
0.000109696215
0.000110224173
0.000107857601
0.000106360248
0.000106781693
0.000110047961
0.000110278075
0.000107793295
0.000106281539
0.000106957393
0.000110028135
0.000110296047
0.000107751659
0.000106160851
0.000107098014
0.000110014231
0.000110330916
0.000107713341
0.000106016285
0.000107848686
0.000109916866
0.000110356317
0.000107786934
0.000106942971
0.000109662489
0.000110162415
0.000107864564
0.000106300126
0.000106734832
0.000109702129
0.000110339157
0.000110249635
0.000107786038
0.000106731835
0.000106321344
0.000107728505
0.000110153125
0.000110380903
0.000107685869
0.000105799521
0.000107774887
0.000110060661
0.000109150275
0.000107278645
0.000107818793
0.000110265699
0.000110404327
0.000107696507
0.00010597177
0.000107744762
0.000110133794
0.000109049515
0.000107336922
0.000107775045
0.000110246179
0.000108642863
0.000107349873
0.000107773227
0.000110359534
0.000110272015
0.000107741712
0.000106159685
0.000107732996
0.000110293654
0.000110188652
0.00010779387
0.000106159187
0.000107729321
0.000110312762
0.00011012282
0.000107800441
0.000106214775
0.000107715837
0.00011032178
0.000110060669
0.000107810484
0.000106318403
0.000107711461
0.000110328485
0.000109997064
0.000107821572
0.00010639877
0.000107711446
0.000110330192
0.000109933875
)
;

boundaryField
{
    closed
    {
        type            calculated;
        value           nonuniform List<scalar> 0();
    }
    open
    {
        type            calculated;
        value           nonuniform List<scalar> 0();
    }
    sides
    {
        type            empty;
    }
    procBoundary1to0
    {
        type            processor;
        value           uniform 0.000110313987;
    }
    procBoundary1to2
    {
        type            processor;
        value           uniform 0.000107834809;
    }
}


// ************************************************************************* //
