/*--------------------------------*- C++ -*----------------------------------*\
| =========                 |                                                 |
| \\      /  F ield         | OpenFOAM: The Open Source CFD Toolbox           |
|  \\    /   O peration     | Version:  2306                                  |
|   \\  /    A nd           | Website:  www.openfoam.com                      |
|    \\/     M anipulation  |                                                 |
\*---------------------------------------------------------------------------*/
FoamFile
{
    version     2.0;
    format      ascii;
    arch        "LSB;label=32;scalar=64";
    class       volScalarField;
    location    "0.00196";
    object      H;
}
// * * * * * * * * * * * * * * * * * * * * * * * * * * * * * * * * * * * * * //

dimensions      [0 0 0 0 0 0 0];

internalField   nonuniform List<scalar> 
530
(
6.03174511e-09
2.10708487e-08
2.23505117e-08
2.22598909e-08
2.22485627e-08
2.22482589e-08
2.22482499e-08
2.22482495e-08
2.22482494e-08
2.22482494e-08
2.22482494e-08
2.22482494e-08
2.22482494e-08
2.22482494e-08
2.22482494e-08
2.22482494e-08
2.22482494e-08
2.22482494e-08
2.22482494e-08
2.22482494e-08
2.22482494e-08
2.22482494e-08
2.22482494e-08
2.22482494e-08
2.22482494e-08
2.22482494e-08
2.22482494e-08
2.22482494e-08
2.22482494e-08
2.22482494e-08
2.22482494e-08
2.22482494e-08
2.22482494e-08
2.22482494e-08
2.22482494e-08
2.22482494e-08
2.22482494e-08
2.22482494e-08
2.22482494e-08
2.22482494e-08
2.22482494e-08
2.22482494e-08
2.22482494e-08
2.22482494e-08
2.22482494e-08
2.22482494e-08
2.22482494e-08
2.22482494e-08
2.22482494e-08
2.22482494e-08
2.22482494e-08
2.22482494e-08
2.22482494e-08
2.22482494e-08
2.22482494e-08
2.22482494e-08
2.22482494e-08
2.22482495e-08
2.22482495e-08
2.22482497e-08
2.22482498e-08
2.2248251e-08
2.22482515e-08
2.22482612e-08
2.2248259e-08
2.22482446e-08
2.22483611e-08
2.22486717e-08
2.22480107e-08
2.22460166e-08
2.22486312e-08
2.2273472e-08
2.22878532e-08
2.2119483e-08
2.19064543e-08
2.26218532e-08
2.41816042e-08
2.2276604e-08
1.77192573e-08
1.78296125e-08
3.5294047e-08
3.66800838e-08
1.00413382e-08
1.29018964e-09
3.94986031e-09
3.1211696e-08
3.38858445e-08
2.66873722e-08
2.72469447e-08
3.32974171e-08
4.24889206e-08
4.33231716e-08
1.51293064e-08
9.19134001e-10
1.16984344e-09
9.76316415e-10
3.93290672e-08
4.74189009e-08
2.13264797e-08
1.1264177e-09
1.29272621e-09
1.9396796e-08
3.8979929e-08
4.60030415e-08
5.32337016e-08
3.55906787e-08
9.17725089e-10
1.39349825e-09
1.17187913e-09
1.31707756e-09
2.78000534e-08
4.15912022e-08
8.01311049e-10
1.27934312e-09
2.58707487e-08
4.00480862e-08
4.37782776e-08
5.17639358e-08
3.51584787e-08
8.38977637e-10
1.36824075e-09
9.43299087e-10
1.31459137e-09
5.92549467e-09
3.89305801e-08
4.56322623e-08
4.76863422e-08
5.4591871e-08
3.97959197e-08
1.00231594e-09
1.32147252e-09
2.22866336e-08
4.81722322e-08
3.29944283e-08
1.03892653e-09
1.47611875e-09
1.32023929e-09
2.79623354e-08
4.33786577e-08
7.84070682e-09
1.1928508e-09
3.26968367e-08
4.360373e-08
3.53708978e-09
1.22724646e-09
1.94497597e-08
3.93553696e-08
4.15380358e-08
4.39657661e-08
5.1147266e-08
3.53185453e-08
9.53122301e-10
1.42267958e-09
1.29721674e-09
2.72857185e-08
4.09473979e-08
4.65844772e-10
1.21563873e-09
1.75043468e-08
4.36471907e-08
4.42036207e-08
2.0432938e-08
2.44395318e-08
4.71732548e-08
1.82099326e-08
1.05403608e-09
2.74736805e-08
4.7463596e-08
1.74986891e-08
1.04349308e-09
2.29602906e-08
4.86831561e-08
3.42290939e-08
9.87592482e-10
1.47414267e-09
1.29157238e-09
2.38543329e-08
4.48861063e-08
2.88092631e-08
1.03553746e-09
1.14784317e-09
1.19185165e-09
1.03011265e-09
3.62324601e-08
4.45316619e-08
4.63525822e-08
4.97916352e-08
2.23000445e-08
1.04561577e-09
1.69770355e-08
4.60410603e-08
4.93382642e-08
3.01098664e-08
1.06658696e-09
1.41897512e-09
3.22530616e-08
3.88597726e-08
6.42052721e-10
1.94970604e-08
5.20534552e-08
2.24406109e-08
1.07696107e-09
1.30953599e-09
1.92603684e-08
4.21611265e-08
4.80547204e-08
3.18235775e-08
9.98172764e-10
1.28809917e-09
1.25404982e-09
1.02247672e-08
3.7169828e-08
4.6310144e-08
4.90459836e-08
2.54139597e-08
1.02626875e-09
3.21655599e-08
4.60227863e-08
8.22695664e-10
1.18497338e-09
2.77710538e-08
4.14967025e-08
4.20490008e-08
4.98584006e-08
3.46787572e-08
8.87657286e-10
1.11121625e-09
1.13564118e-09
5.2718064e-10
4.01402815e-08
5.00457219e-08
2.21812155e-08
9.45510883e-10
3.03540247e-08
5.01360019e-08
7.48825064e-10
9.20492465e-10
3.3056341e-08
6.99952512e-09
1.29443889e-09
2.6662973e-08
4.4151158e-08
4.94217542e-08
3.74745629e-08
1.0134057e-09
1.29657647e-09
3.11775644e-08
4.96444537e-08
4.17072434e-09
1.12279045e-09
3.24814118e-08
1.73660437e-08
1.26754833e-09
2.23305906e-08
4.36331515e-08
4.91544776e-08
3.80730983e-08
1.005452e-09
1.34854656e-09
3.04308967e-08
4.52494909e-08
4.44598531e-10
1.17377999e-09
3.29457339e-08
4.53466756e-08
2.42022814e-08
1.13852488e-09
1.28710613e-09
3.17711337e-08
4.53783235e-08
7.81642122e-10
1.20399994e-09
2.59867626e-08
4.46845857e-08
4.74223357e-08
3.20458431e-08
1.06490816e-09
1.34311893e-09
3.18829803e-08
4.56721825e-08
7.84187937e-10
1.21267108e-09
2.73901372e-08
4.62329254e-08
4.96730984e-08
3.25573788e-08
9.05701965e-10
1.38571713e-09
9.96980985e-09
3.8816874e-08
4.21431201e-08
5.3064766e-08
5.30401916e-08
5.55369743e-10
1.19324311e-09
1.0599406e-09
3.11783332e-08
4.1742084e-08
7.75872272e-10
1.25275246e-09
3.56008168e-08
4.19824603e-08
7.6009217e-10
1.24182446e-09
3.62160509e-08
4.36838343e-08
8.00630643e-10
1.16588041e-09
2.44065048e-08
4.90779157e-08
4.90563899e-08
9.24565295e-09
1.1107422e-09
3.45460678e-08
4.465833e-08
8.36407376e-10
1.13185935e-09
2.41859689e-08
5.0207168e-08
5.0163218e-08
7.66853544e-10
1.05741455e-09
2.45122699e-08
5.30671036e-08
5.17235955e-08
5.65981518e-10
1.23692646e-09
1.05789353e-09
2.49062007e-08
4.07165772e-08
4.2857507e-08
4.82356375e-08
3.22217982e-08
1.07409801e-09
1.38626012e-09
3.05597667e-08
4.36874109e-08
8.28149159e-10
1.2319629e-09
3.74495094e-08
4.49361703e-08
1.58310625e-09
1.17448793e-09
3.1510607e-08
4.3827438e-08
2.59626704e-08
1.15253374e-09
1.33358503e-09
3.16504938e-08
4.50050178e-08
6.99068872e-10
1.21410865e-09
3.85663533e-08
4.37217205e-08
8.29121145e-10
1.24551662e-09
2.88729543e-08
3.86921646e-08
4.92516665e-08
4.91796278e-08
7.78317872e-10
1.18503226e-09
2.55111076e-08
4.19559723e-08
4.50377198e-08
3.24420667e-08
1.04211244e-09
1.2104753e-09
1.24082203e-09
1.11170904e-09
3.21103563e-08
5.31311929e-08
5.29100176e-08
9.18450168e-10
1.18633304e-09
2.61972388e-08
4.13811943e-08
4.08856689e-08
4.87428932e-08
3.70404867e-08
9.25945951e-10
1.3157584e-09
1.126232e-09
1.25595371e-09
1.28271019e-09
1.28774247e-09
3.14892891e-08
4.53652144e-08
4.33586243e-08
5.39085414e-08
5.34065498e-08
7.06187537e-10
1.17236755e-09
3.88808785e-08
4.32573557e-08
8.27154303e-10
1.2773851e-09
3.64184241e-08
4.03431263e-08
9.26291451e-10
1.32368022e-09
2.76063806e-08
3.73847674e-08
4.65886247e-08
4.6572306e-08
1.06402937e-08
1.16863716e-09
3.70219415e-08
4.47504586e-08
8.57391266e-10
1.23203885e-09
3.88792255e-08
4.41257219e-08
9.46615651e-10
1.23097997e-09
2.85244035e-08
4.25724133e-08
4.11369735e-08
5.06206383e-08
4.30207743e-08
8.22066273e-10
1.28184601e-09
9.10854462e-10
1.25602611e-09
8.68406134e-10
1.26398147e-09
8.46843503e-10
4.13189547e-08
5.18648016e-08
2.13221313e-08
1.06639661e-09
3.2885267e-08
4.37591038e-08
1.01592636e-09
1.24898717e-09
2.93658221e-08
3.93514097e-08
5.00383087e-08
5.00249499e-08
8.58278625e-10
1.1679925e-09
2.89473753e-08
4.55741147e-08
4.69200786e-08
3.08989572e-08
1.11153386e-09
1.36696875e-09
3.50343144e-08
4.28293912e-08
8.12308954e-10
1.27160306e-09
1.16053009e-09
3.81393161e-08
4.68674547e-08
9.24278644e-10
1.09864552e-09
2.77719334e-08
5.14078499e-08
5.13472275e-08
9.11812348e-10
1.07862707e-09
2.49072762e-08
5.01485303e-08
5.00956697e-08
9.75732236e-10
1.18108883e-09
2.87759471e-08
4.07022971e-08
4.48912489e-08
4.75467965e-08
2.30449338e-08
1.16684263e-09
1.35188274e-09
2.08420726e-08
4.13076142e-08
4.68020546e-08
3.45559953e-08
1.015439e-09
1.38101082e-09
1.19687529e-09
1.32739893e-09
1.92984483e-08
4.4342567e-08
5.37510163e-08
2.48222451e-08
7.83240198e-10
2.88904933e-08
7.61184471e-10
1.2917052e-09
3.07449279e-08
5.09139485e-08
5.06480058e-08
8.66727078e-10
1.03754792e-09
2.82731677e-08
5.37369161e-08
5.32170631e-08
7.91359776e-10
1.12307279e-09
3.95569564e-08
4.57293187e-08
8.34361961e-10
1.19443784e-09
3.68638878e-08
4.40731725e-08
1.47768955e-08
1.25008529e-09
1.2221552e-09
3.10080654e-08
3.95968154e-08
1.59358879e-08
3.44584814e-08
5.08982643e-08
9.57091643e-10
1.11411711e-09
2.92338771e-08
4.93256916e-08
4.14084132e-08
1.01713984e-09
1.34093093e-09
1.28062808e-09
3.56925534e-08
4.31513781e-08
7.32978125e-10
1.27283882e-09
3.36439363e-08
3.94123263e-08
2.09346558e-08
3.44133032e-08
4.68742217e-08
)
;

boundaryField
{
    closed
    {
        type            calculated;
        value           uniform 6.36211036e-12;
    }
    open
    {
        type            calculated;
        value           nonuniform List<scalar> 0();
    }
    sides
    {
        type            empty;
    }
    procBoundary0to1
    {
        type            processor;
        value           uniform 9.67783402e-10;
    }
}


// ************************************************************************* //
