/*--------------------------------*- C++ -*----------------------------------*\
| =========                 |                                                 |
| \\      /  F ield         | OpenFOAM: The Open Source CFD Toolbox           |
|  \\    /   O peration     | Version:  2306                                  |
|   \\  /    A nd           | Website:  www.openfoam.com                      |
|    \\/     M anipulation  |                                                 |
\*---------------------------------------------------------------------------*/
FoamFile
{
    version     2.0;
    format      ascii;
    arch        "LSB;label=32;scalar=64";
    class       volScalarField;
    location    "0.00196";
    object      prefDPV_T;
}
// * * * * * * * * * * * * * * * * * * * * * * * * * * * * * * * * * * * * * //

dimensions      [1 -1 -1 -1 0 0 0];

internalField   nonuniform List<scalar> 
530
(
6.20785887e-10
5.99921722e-10
5.97522711e-10
5.97545712e-10
5.97549737e-10
5.9754978e-10
5.97549775e-10
5.97549775e-10
5.97549775e-10
5.97549775e-10
5.97549775e-10
5.97549775e-10
5.97549775e-10
5.97549775e-10
5.97549775e-10
5.97549775e-10
5.97549775e-10
5.97549775e-10
5.97549775e-10
5.97549775e-10
5.97549775e-10
5.97549775e-10
5.97549775e-10
5.97549775e-10
5.97549775e-10
5.97549775e-10
5.97549775e-10
5.97549775e-10
5.97549775e-10
5.97549775e-10
5.97549775e-10
5.97549775e-10
5.97549775e-10
5.97549775e-10
5.97549775e-10
5.97549775e-10
5.97549775e-10
5.97549775e-10
5.97549775e-10
5.97549775e-10
5.97549775e-10
5.97549775e-10
5.97549775e-10
5.97549775e-10
5.97549775e-10
5.97549775e-10
5.97549775e-10
5.97549775e-10
5.97549775e-10
5.97549775e-10
5.97549775e-10
5.97549775e-10
5.97549775e-10
5.97549775e-10
5.97549775e-10
5.97549775e-10
5.97549775e-10
5.97549775e-10
5.97549775e-10
5.97549775e-10
5.97549775e-10
5.97549775e-10
5.97549776e-10
5.97549777e-10
5.9754978e-10
5.9754982e-10
5.97549768e-10
5.97549684e-10
5.97550156e-10
5.97551523e-10
5.97550282e-10
5.97536395e-10
5.97528846e-10
5.97626805e-10
5.97752794e-10
5.9733951e-10
5.96472051e-10
5.97540821e-10
6.00274329e-10
6.00208124e-10
5.91149523e-10
5.90733807e-10
6.05415743e-10
6.08523874e-10
6.09509014e-10
5.92780392e-10
5.91802539e-10
5.95108916e-10
5.94908074e-10
5.9190419e-10
5.90042998e-10
5.89923576e-10
6.02010602e-10
6.101981e-10
6.09055988e-10
6.09961137e-10
5.9025441e-10
5.89444669e-10
5.98074058e-10
6.09270297e-10
6.0852689e-10
5.99242917e-10
5.90644684e-10
5.88910508e-10
5.88229606e-10
5.90543122e-10
6.10263724e-10
6.08130854e-10
6.09048734e-10
6.0843734e-10
5.94693122e-10
5.89967562e-10
6.10863281e-10
6.08566556e-10
5.95608995e-10
5.90530076e-10
5.89432322e-10
5.88614125e-10
5.90876158e-10
6.10598633e-10
6.08206111e-10
6.10077e-10
6.08419642e-10
6.080413e-10
5.90284409e-10
5.89894182e-10
5.88744812e-10
5.88028128e-10
5.90101996e-10
6.09893726e-10
6.08415033e-10
5.975346e-10
5.88853909e-10
5.91824897e-10
6.09739914e-10
6.07710148e-10
6.08382389e-10
5.94477826e-10
5.89707242e-10
6.07109634e-10
6.08975775e-10
5.92381159e-10
5.89866754e-10
6.1028789e-10
6.0878852e-10
5.99208089e-10
5.90486865e-10
5.90463236e-10
5.89543602e-10
5.88746254e-10
5.90951225e-10
6.10094914e-10
6.07889699e-10
6.08448674e-10
5.94978654e-10
5.90290849e-10
6.12324919e-10
6.08846003e-10
6.00356865e-10
5.89742692e-10
5.89766822e-10
5.98622562e-10
5.96365947e-10
5.89178895e-10
6.00000735e-10
6.09603582e-10
5.94669894e-10
5.89367e-10
6.0046992e-10
6.09641287e-10
5.97132871e-10
5.89139972e-10
5.91279144e-10
6.09937867e-10
6.07713314e-10
6.08482796e-10
5.9662171e-10
5.89626137e-10
5.9397174e-10
6.09697977e-10
6.0918489e-10
6.08949407e-10
6.09738211e-10
5.90942048e-10
5.90176271e-10
5.8922035e-10
5.89025927e-10
5.97524534e-10
6.09646339e-10
6.00708547e-10
5.89146987e-10
5.88936771e-10
5.93258638e-10
6.09526839e-10
6.07972843e-10
5.92718178e-10
5.90321905e-10
6.11530402e-10
5.99186755e-10
5.88680437e-10
5.97411734e-10
6.09457586e-10
6.08472217e-10
5.99318363e-10
5.89731862e-10
5.89229806e-10
5.92557041e-10
6.09869684e-10
6.08510292e-10
6.08645915e-10
6.05150278e-10
5.90885748e-10
5.89337499e-10
5.88911232e-10
5.95787162e-10
6.09739374e-10
5.92435939e-10
5.89545906e-10
6.1073954e-10
6.08979737e-10
5.94635068e-10
5.90478131e-10
5.89915505e-10
5.89075415e-10
5.91380822e-10
6.10362304e-10
6.09295014e-10
6.09182586e-10
6.12010366e-10
5.90321763e-10
5.89293099e-10
5.97611112e-10
6.10069031e-10
5.9340651e-10
5.89113244e-10
6.11054268e-10
6.10213889e-10
5.92047518e-10
6.07540785e-10
6.08507952e-10
5.95328387e-10
5.89442452e-10
5.8899405e-10
5.90628461e-10
6.0978942e-10
6.08503434e-10
5.93101673e-10
5.88668626e-10
6.09892845e-10
6.0932175e-10
5.92317954e-10
6.00493445e-10
6.0864307e-10
5.97563177e-10
5.89429336e-10
5.89012999e-10
5.90430349e-10
6.09821115e-10
6.0827285e-10
5.93527725e-10
5.89368185e-10
6.12431444e-10
6.09058854e-10
5.92164021e-10
5.89704111e-10
5.96433007e-10
6.09180177e-10
6.08551675e-10
5.92811207e-10
5.89506601e-10
6.10894762e-10
6.08919344e-10
5.95614796e-10
5.89437565e-10
5.89287927e-10
5.92422124e-10
6.09540659e-10
6.08296842e-10
5.92726236e-10
5.89317121e-10
6.10894654e-10
6.08904151e-10
5.94853338e-10
5.89077342e-10
5.88848451e-10
5.9215892e-10
6.10276999e-10
6.0806989e-10
6.05211007e-10
5.90572524e-10
5.90478586e-10
5.88381111e-10
5.88447526e-10
6.11920724e-10
6.08910858e-10
6.09559627e-10
5.93171275e-10
5.90317453e-10
6.10898212e-10
6.08666309e-10
5.91403014e-10
5.90125009e-10
6.10979109e-10
6.08725839e-10
5.91198019e-10
5.89905064e-10
6.10797727e-10
6.09069791e-10
5.96432379e-10
5.89053503e-10
5.88920033e-10
6.05987494e-10
6.09331433e-10
5.91571063e-10
5.89891409e-10
6.10624342e-10
6.09214985e-10
5.96579977e-10
5.88931879e-10
5.88892616e-10
6.10938128e-10
6.09558599e-10
5.96400321e-10
5.88597639e-10
5.88543158e-10
6.11869929e-10
6.08732578e-10
6.0953849e-10
5.9611871e-10
5.90712343e-10
5.89586153e-10
5.89279596e-10
5.92245967e-10
6.0948442e-10
6.08113598e-10
5.93410782e-10
5.89599793e-10
6.10673852e-10
6.08789019e-10
5.9113556e-10
5.896524e-10
6.11776129e-10
6.0903051e-10
5.92848657e-10
5.89998832e-10
5.95478129e-10
6.09105952e-10
6.08343345e-10
5.92955249e-10
5.89457194e-10
6.11275015e-10
6.08866585e-10
5.90936589e-10
5.89898926e-10
6.10657881e-10
6.08680055e-10
5.94215038e-10
5.90902237e-10
5.89057129e-10
5.88992882e-10
6.1089875e-10
6.08987056e-10
5.95864055e-10
5.90083076e-10
5.89715956e-10
5.92425793e-10
6.0965381e-10
6.08882503e-10
6.08711988e-10
6.09356346e-10
5.92570089e-10
5.88358912e-10
5.88227362e-10
6.10254454e-10
6.0897999e-10
5.95420271e-10
5.90310491e-10
5.89998802e-10
5.89070533e-10
5.90681612e-10
6.10215384e-10
6.08421482e-10
6.09272421e-10
6.08702408e-10
6.08537649e-10
6.08515337e-10
5.92815275e-10
5.89814383e-10
5.89835246e-10
5.88367484e-10
5.8808829e-10
6.11220777e-10
6.09064409e-10
5.90958108e-10
5.89872525e-10
6.10663089e-10
6.0856251e-10
5.91273887e-10
5.90356842e-10
6.1021061e-10
6.08330835e-10
5.94832471e-10
5.90880977e-10
5.8951232e-10
5.89257711e-10
6.04960352e-10
6.09080166e-10
5.91065094e-10
5.89639462e-10
6.10545307e-10
6.08778427e-10
5.9065445e-10
5.89742901e-10
6.10147411e-10
6.08771478e-10
5.94227728e-10
5.90170744e-10
5.90054435e-10
5.88848913e-10
5.89815602e-10
6.1067875e-10
6.08553752e-10
6.10234364e-10
6.08680514e-10
6.10420436e-10
6.08637233e-10
6.10558117e-10
5.89846207e-10
5.88772722e-10
5.98091426e-10
6.09531439e-10
5.92107358e-10
5.89939916e-10
6.09823436e-10
6.08672679e-10
5.93917933e-10
5.90731027e-10
5.88855962e-10
5.88782111e-10
6.10537053e-10
6.09085389e-10
5.94153531e-10
5.89321043e-10
5.89397416e-10
5.92978561e-10
6.09316238e-10
6.0817914e-10
5.91401763e-10
5.89894975e-10
6.10770556e-10
6.08565808e-10
6.09101851e-10
5.90847766e-10
5.89520305e-10
6.10224826e-10
6.09370476e-10
5.94747073e-10
5.88747083e-10
5.88685757e-10
6.10269318e-10
6.09464028e-10
5.96202594e-10
5.88937163e-10
5.88864579e-10
6.09985783e-10
6.08984956e-10
5.94171344e-10
5.9054404e-10
5.89392573e-10
5.89257522e-10
5.97077638e-10
6.09055405e-10
6.08271637e-10
5.98403323e-10
5.89816486e-10
5.89414884e-10
5.91249125e-10
6.09786955e-10
6.08119037e-10
6.08910742e-10
6.08375582e-10
5.99296258e-10
5.8922123e-10
5.88229051e-10
5.96055522e-10
6.1087162e-10
5.93918358e-10
6.10976436e-10
6.08517459e-10
5.93388353e-10
5.88651258e-10
5.88854708e-10
6.10491526e-10
6.09653502e-10
5.94490256e-10
5.88445845e-10
5.88258907e-10
6.10813443e-10
6.09269465e-10
5.90830385e-10
5.89622514e-10
6.10639504e-10
6.08934041e-10
5.90998617e-10
5.89867712e-10
6.02180911e-10
6.08664325e-10
6.08825035e-10
5.930857e-10
5.90530636e-10
6.01414164e-10
5.91472476e-10
5.88549953e-10
6.10120045e-10
6.09334858e-10
5.93860296e-10
5.88991325e-10
5.90148328e-10
6.09795324e-10
6.08230405e-10
6.0853073e-10
5.91290857e-10
5.89836724e-10
6.11152256e-10
6.08598198e-10
5.91880915e-10
5.90513682e-10
5.98327593e-10
5.91527935e-10
5.89154889e-10
)
;

boundaryField
{
    closed
    {
        type            calculated;
        value           uniform 7.28399533e-10;
    }
    open
    {
        type            calculated;
        value           nonuniform List<scalar> 0();
    }
    sides
    {
        type            empty;
    }
    procBoundary0to1
    {
        type            processor;
        value           uniform 6.10059402e-10;
    }
}


// ************************************************************************* //
