/*--------------------------------*- C++ -*----------------------------------*\
| =========                 |                                                 |
| \\      /  F ield         | OpenFOAM: The Open Source CFD Toolbox           |
|  \\    /   O peration     | Version:  2306                                  |
|   \\  /    A nd           | Website:  www.openfoam.com                      |
|    \\/     M anipulation  |                                                 |
\*---------------------------------------------------------------------------*/
FoamFile
{
    version     2.0;
    format      ascii;
    arch        "LSB;label=32;scalar=64";
    class       volScalarField;
    location    "0.00196";
    object      prefDPV_H2;
}
// * * * * * * * * * * * * * * * * * * * * * * * * * * * * * * * * * * * * * //

dimensions      [1 -1 -1 0 0 0 0];

internalField   nonuniform List<scalar> 
530
(
-3.32657438e-05
-3.13061833e-05
-3.09306653e-05
-3.0919873e-05
-3.0918868e-05
-3.09188117e-05
-3.09188072e-05
-3.0918807e-05
-3.0918807e-05
-3.0918807e-05
-3.0918807e-05
-3.0918807e-05
-3.0918807e-05
-3.0918807e-05
-3.0918807e-05
-3.0918807e-05
-3.0918807e-05
-3.0918807e-05
-3.0918807e-05
-3.0918807e-05
-3.0918807e-05
-3.0918807e-05
-3.0918807e-05
-3.0918807e-05
-3.0918807e-05
-3.0918807e-05
-3.0918807e-05
-3.0918807e-05
-3.0918807e-05
-3.0918807e-05
-3.0918807e-05
-3.0918807e-05
-3.0918807e-05
-3.0918807e-05
-3.0918807e-05
-3.0918807e-05
-3.0918807e-05
-3.0918807e-05
-3.0918807e-05
-3.0918807e-05
-3.0918807e-05
-3.0918807e-05
-3.0918807e-05
-3.0918807e-05
-3.0918807e-05
-3.0918807e-05
-3.0918807e-05
-3.0918807e-05
-3.0918807e-05
-3.0918807e-05
-3.0918807e-05
-3.0918807e-05
-3.0918807e-05
-3.0918807e-05
-3.0918807e-05
-3.0918807e-05
-3.0918807e-05
-3.0918807e-05
-3.0918807e-05
-3.09188071e-05
-3.09188072e-05
-3.09188078e-05
-3.0918808e-05
-3.09188112e-05
-3.09188118e-05
-3.09188261e-05
-3.09188319e-05
-3.09188713e-05
-3.09189175e-05
-3.09190309e-05
-3.09191269e-05
-3.0919102e-05
-3.09192977e-05
-3.09211538e-05
-3.09243818e-05
-3.09173431e-05
-3.09080506e-05
-3.09217569e-05
-3.09803367e-05
-3.09781551e-05
-3.09197504e-05
-3.086101e-05
-3.11320674e-05
-3.1549341e-05
-3.12767122e-05
-3.08754204e-05
-3.09250845e-05
-3.08915634e-05
-3.09080685e-05
-3.08968465e-05
-3.06660524e-05
-3.06362222e-05
-3.1020391e-05
-3.14585143e-05
-3.15156831e-05
-3.14913643e-05
-3.07657999e-05
-3.04890286e-05
-3.09152286e-05
-3.15169593e-05
-3.15572866e-05
-3.09588431e-05
-3.07940428e-05
-3.05188506e-05
-3.02602843e-05
-3.08549291e-05
-3.15073616e-05
-3.16040232e-05
-3.15173617e-05
-3.15722557e-05
-3.09194206e-05
-3.06893467e-05
-3.15408071e-05
-3.15436626e-05
-3.09101784e-05
-3.07583245e-05
-3.06040126e-05
-3.03190359e-05
-3.08747189e-05
-3.14737905e-05
-3.15821813e-05
-3.14541944e-05
-3.15575981e-05
-3.12212922e-05
-3.07780937e-05
-3.05613116e-05
-3.04617106e-05
-3.02068382e-05
-3.07457562e-05
-3.15315265e-05
-3.15719429e-05
-3.09214731e-05
-3.04490665e-05
-3.08602393e-05
-3.15451586e-05
-3.1599419e-05
-3.15529105e-05
-3.08934571e-05
-3.06264117e-05
-3.11942751e-05
-3.15349666e-05
-3.09274769e-05
-3.06255372e-05
-3.1318793e-05
-3.15243669e-05
-3.09713755e-05
-3.07760882e-05
-3.07113594e-05
-3.06026636e-05
-3.03435024e-05
-3.08981992e-05
-3.15078869e-05
-3.15610237e-05
-3.1527715e-05
-3.09256903e-05
-3.0721797e-05
-3.14434299e-05
-3.15245839e-05
-3.09947679e-05
-3.06196603e-05
-3.06034372e-05
-3.09422454e-05
-3.09156722e-05
-3.0490407e-05
-3.09654972e-05
-3.15046316e-05
-3.0882959e-05
-3.04856181e-05
-3.09750976e-05
-3.14951253e-05
-3.0909528e-05
-3.04385274e-05
-3.08681764e-05
-3.15138951e-05
-3.15966284e-05
-3.15310984e-05
-3.0900995e-05
-3.05773128e-05
-3.08771884e-05
-3.15079425e-05
-3.15286689e-05
-3.15165341e-05
-3.15174197e-05
-3.08838781e-05
-3.06062821e-05
-3.05180559e-05
-3.03971043e-05
-3.09203535e-05
-3.15059761e-05
-3.09960473e-05
-3.05255382e-05
-3.04115671e-05
-3.08645009e-05
-3.14934975e-05
-3.15902276e-05
-3.09477832e-05
-3.07818496e-05
-3.14749979e-05
-3.09522951e-05
-3.03086812e-05
-3.09049737e-05
-3.14796251e-05
-3.15711695e-05
-3.09741442e-05
-3.06630016e-05
-3.04621976e-05
-3.0887861e-05
-3.15017474e-05
-3.15367033e-05
-3.15183258e-05
-3.11228328e-05
-3.08558707e-05
-3.05229387e-05
-3.04211506e-05
-3.08974485e-05
-3.15055655e-05
-3.08951181e-05
-3.05383981e-05
-3.15248545e-05
-3.1514421e-05
-3.09055479e-05
-3.07132081e-05
-3.06739146e-05
-3.03954824e-05
-3.0917805e-05
-3.14705353e-05
-3.14833084e-05
-3.14885613e-05
-3.13858982e-05
-3.07463522e-05
-3.03915719e-05
-3.09291229e-05
-3.14567932e-05
-3.09115958e-05
-3.0385825e-05
-3.14985783e-05
-3.14785516e-05
-3.09013766e-05
-3.12078864e-05
-3.15519415e-05
-3.09341436e-05
-3.05933528e-05
-3.04097407e-05
-3.08344879e-05
-3.14968786e-05
-3.15550183e-05
-3.09269535e-05
-3.03955663e-05
-3.13045697e-05
-3.15375157e-05
-3.09006334e-05
-3.09859579e-05
-3.1553316e-05
-3.09413653e-05
-3.06081486e-05
-3.04194952e-05
-3.08084044e-05
-3.14918586e-05
-3.15678831e-05
-3.09385296e-05
-3.05573583e-05
-3.14550783e-05
-3.15290409e-05
-3.09116307e-05
-3.05651207e-05
-3.09002167e-05
-3.14966967e-05
-3.15558133e-05
-3.0925788e-05
-3.05578894e-05
-3.14947246e-05
-3.15339298e-05
-3.09240467e-05
-3.05770881e-05
-3.04850364e-05
-3.08832481e-05
-3.14975387e-05
-3.15665142e-05
-3.09206087e-05
-3.05425335e-05
-3.15045305e-05
-3.15490413e-05
-3.0911307e-05
-3.05173426e-05
-3.0398159e-05
-3.08805231e-05
-3.14716739e-05
-3.15590379e-05
-3.11245419e-05
-3.07951773e-05
-3.06933404e-05
-3.02676964e-05
-3.0269008e-05
-3.1458851e-05
-3.1496451e-05
-3.14938344e-05
-3.09385463e-05
-3.06993711e-05
-3.14733443e-05
-3.15263925e-05
-3.09252765e-05
-3.06844439e-05
-3.14791604e-05
-3.15295955e-05
-3.08978372e-05
-3.06244476e-05
-3.14886587e-05
-3.15121761e-05
-3.09280621e-05
-3.04229795e-05
-3.04209811e-05
-3.11521505e-05
-3.15070682e-05
-3.09375282e-05
-3.05932247e-05
-3.1485716e-05
-3.14981667e-05
-3.0936626e-05
-3.03805561e-05
-3.03815281e-05
-3.14706099e-05
-3.14839858e-05
-3.09333907e-05
-3.02685446e-05
-3.03197536e-05
-3.14572187e-05
-3.15195535e-05
-3.14700403e-05
-3.09141577e-05
-3.07463406e-05
-3.06369411e-05
-3.0457073e-05
-3.08680223e-05
-3.14892496e-05
-3.15806688e-05
-3.09292036e-05
-3.06131027e-05
-3.14943246e-05
-3.15378061e-05
-3.08606682e-05
-3.05766019e-05
-3.13804181e-05
-3.15140016e-05
-3.09113967e-05
-3.06232616e-05
-3.08913688e-05
-3.14929352e-05
-3.15662118e-05
-3.09399468e-05
-3.05679295e-05
-3.1486756e-05
-3.15321225e-05
-3.0819474e-05
-3.06230546e-05
-3.14847414e-05
-3.15135657e-05
-3.09277499e-05
-3.0814269e-05
-3.04169381e-05
-3.04182159e-05
-3.14845347e-05
-3.15190739e-05
-3.09263251e-05
-3.0683528e-05
-3.05754315e-05
-3.09151251e-05
-3.14993126e-05
-3.15310272e-05
-3.15187505e-05
-3.15259579e-05
-3.09128254e-05
-3.0265006e-05
-3.02724729e-05
-3.15030473e-05
-3.15186588e-05
-3.09050835e-05
-3.07098733e-05
-3.07107785e-05
-3.04349878e-05
-3.08487683e-05
-3.15006488e-05
-3.15613751e-05
-3.15177276e-05
-3.15545419e-05
-3.15370892e-05
-3.15384687e-05
-3.09041187e-05
-3.05678614e-05
-3.0631856e-05
-3.02343787e-05
-3.02527623e-05
-3.14664662e-05
-3.15282435e-05
-3.08114043e-05
-3.06363246e-05
-3.14811094e-05
-3.15363037e-05
-3.08962489e-05
-3.07421392e-05
-3.1498278e-05
-3.15350424e-05
-3.09278417e-05
-3.08497843e-05
-3.05187965e-05
-3.05121456e-05
-3.11165162e-05
-3.15267712e-05
-3.08690268e-05
-3.0582014e-05
-3.15026962e-05
-3.15320928e-05
-3.07973356e-05
-3.06050148e-05
-3.15227977e-05
-3.15251454e-05
-3.08988675e-05
-3.06684539e-05
-3.07061122e-05
-3.03642522e-05
-3.0641271e-05
-3.14733575e-05
-3.15434222e-05
-3.14550155e-05
-3.15431642e-05
-3.14356317e-05
-3.15409541e-05
-3.14710437e-05
-3.06918162e-05
-3.03166769e-05
-3.09284079e-05
-3.14961296e-05
-3.08978301e-05
-3.06233461e-05
-3.15284152e-05
-3.15193445e-05
-3.0917383e-05
-3.07874555e-05
-3.03853973e-05
-3.03845791e-05
-3.14995373e-05
-3.15280012e-05
-3.09231923e-05
-3.05457205e-05
-3.05046696e-05
-3.0883341e-05
-3.14994444e-05
-3.15667145e-05
-3.09403911e-05
-3.06500718e-05
-3.15114598e-05
-3.15222182e-05
-3.15158376e-05
-3.08273147e-05
-3.05096611e-05
-3.15017478e-05
-3.14934025e-05
-3.0927018e-05
-3.03338035e-05
-3.0335359e-05
-3.14899201e-05
-3.14904719e-05
-3.09339744e-05
-3.03827657e-05
-3.03834945e-05
-3.15075039e-05
-3.15057142e-05
-3.09112945e-05
-3.07397629e-05
-3.05692037e-05
-3.04800905e-05
-3.09063289e-05
-3.15060232e-05
-3.15751046e-05
-3.09548112e-05
-3.06908175e-05
-3.05090615e-05
-3.0888167e-05
-3.15022011e-05
-3.15712077e-05
-3.15078912e-05
-3.15670263e-05
-3.09720937e-05
-3.05793741e-05
-3.02403416e-05
-3.08869759e-05
-3.14811003e-05
-3.08747297e-05
-3.14814661e-05
-3.15498912e-05
-3.09402965e-05
-3.03507404e-05
-3.03633303e-05
-3.14953341e-05
-3.14826743e-05
-3.0924782e-05
-3.02413553e-05
-3.02611092e-05
-3.14622931e-05
-3.15058821e-05
-3.07859343e-05
-3.05502282e-05
-3.14903202e-05
-3.1514908e-05
-3.08699482e-05
-3.06110085e-05
-3.10288897e-05
-3.15176286e-05
-3.15309671e-05
-3.09106564e-05
-3.07712916e-05
-3.10081933e-05
-3.09158576e-05
-3.03497533e-05
-3.15377268e-05
-3.15198804e-05
-3.08954499e-05
-3.04130715e-05
-3.07023057e-05
-3.15137379e-05
-3.15272278e-05
-3.15276369e-05
-3.09168458e-05
-3.06381701e-05
-3.15174981e-05
-3.15434307e-05
-3.09193924e-05
-3.07757352e-05
-3.09387491e-05
-3.09211598e-05
-3.04994352e-05
)
;

boundaryField
{
    closed
    {
        type            calculated;
        value           uniform -4.05166149e-05;
    }
    open
    {
        type            calculated;
        value           nonuniform List<scalar> 0();
    }
    sides
    {
        type            empty;
    }
    procBoundary0to1
    {
        type            processor;
        value           uniform -3.15316038e-05;
    }
}


// ************************************************************************* //
