/*--------------------------------*- C++ -*----------------------------------*\
| =========                 |                                                 |
| \\      /  F ield         | OpenFOAM: The Open Source CFD Toolbox           |
|  \\    /   O peration     | Version:  2306                                  |
|   \\  /    A nd           | Website:  www.openfoam.com                      |
|    \\/     M anipulation  |                                                 |
\*---------------------------------------------------------------------------*/
FoamFile
{
    version     2.0;
    format      ascii;
    arch        "LSB;label=32;scalar=64";
    class       volScalarField;
    location    "0.00196";
    object      prefDh_T;
}
// * * * * * * * * * * * * * * * * * * * * * * * * * * * * * * * * * * * * * //

dimensions      [1 1 -3 -1 0 0 0];

internalField   nonuniform List<scalar> 
530
(
-0.00129020093
-0.000709096883
-0.000594997091
-0.000591539415
-0.000591213917
-0.000591195979
-0.000591194585
-0.000591194506
-0.000591194501
-0.000591194501
-0.000591194501
-0.000591194501
-0.000591194501
-0.000591194501
-0.000591194501
-0.000591194501
-0.000591194501
-0.000591194501
-0.000591194501
-0.000591194501
-0.000591194501
-0.000591194501
-0.000591194501
-0.000591194501
-0.000591194501
-0.000591194501
-0.000591194501
-0.000591194501
-0.000591194501
-0.000591194501
-0.000591194501
-0.000591194501
-0.000591194501
-0.000591194501
-0.000591194501
-0.000591194501
-0.000591194501
-0.000591194501
-0.000591194501
-0.000591194501
-0.000591194501
-0.000591194501
-0.000591194501
-0.000591194501
-0.000591194501
-0.000591194501
-0.000591194501
-0.000591194501
-0.000591194501
-0.000591194501
-0.000591194501
-0.000591194501
-0.000591194501
-0.000591194501
-0.000591194501
-0.000591194501
-0.000591194501
-0.000591194506
-0.000591194507
-0.00059119454
-0.000591194559
-0.000591194751
-0.000591194811
-0.00059119582
-0.000591196015
-0.000591200493
-0.000591202411
-0.000591215046
-0.000591228872
-0.000591262421
-0.000591295009
-0.000591311316
-0.000591386459
-0.000591804013
-0.000592607403
-0.000591096045
-0.000589643502
-0.000592144823
-0.000605891406
-0.000605315217
-0.000602096707
-0.000586430691
-0.000644563727
-0.000747714758
-0.000682946088
-0.000585477551
-0.000602574278
-0.00058673343
-0.000592250359
-0.000593588955
-0.000537559388
-0.000529987952
-0.000615382884
-0.000727464904
-0.000740050899
-0.000735435259
-0.000561983135
-0.000492906508
-0.000589130271
-0.000740756599
-0.000749753401
-0.000600919319
-0.000570361467
-0.000498096008
-0.00043343084
-0.00058266712
-0.000740053262
-0.000761016783
-0.000740467171
-0.000753425843
-0.000596164061
-0.000542758378
-0.000749646939
-0.000746337738
-0.000591758573
-0.000561444301
-0.000520366056
-0.000448928477
-0.000588317103
-0.00073206706
-0.000755556087
-0.00072614919
-0.000749642457
-0.00066815069
-0.000564994736
-0.00051193172
-0.00048385258
-0.000419758188
-0.000556602443
-0.000745579367
-0.000753306111
-0.000592065744
-0.000481214652
-0.000582269277
-0.000748794509
-0.00075908747
-0.000748376511
-0.000588368509
-0.000526789845
-0.000661041818
-0.000744839567
-0.000602401427
-0.000527218826
-0.000694530609
-0.000741796627
-0.000604980989
-0.000565439474
-0.000550035888
-0.000520495946
-0.000455301355
-0.00059553105
-0.00073989127
-0.000749574341
-0.00074204831
-0.000597666532
-0.000551793599
-0.000727324207
-0.000741954192
-0.000610381649
-0.000525328625
-0.000521559494
-0.000596745341
-0.000592226163
-0.00049230406
-0.000601636417
-0.000738194675
-0.000584755684
-0.000491814288
-0.000603816702
-0.00073583234
-0.000588979837
-0.000479656378
-0.000585628108
-0.000741150542
-0.000758378127
-0.00074297452
-0.000587161114
-0.00051478069
-0.000584092559
-0.000739207165
-0.000743599275
-0.000740079434
-0.000741700037
-0.000592750879
-0.000523786055
-0.000499084403
-0.000469231779
-0.000591728519
-0.000738613667
-0.000610126389
-0.000500596702
-0.000472451938
-0.00058127971
-0.00073521437
-0.000757201442
-0.000608211301
-0.000566044539
-0.000734000082
-0.000598929432
-0.000446593502
-0.000587050749
-0.000731548259
-0.000753209721
-0.000605667538
-0.000535544683
-0.000485685557
-0.000589731861
-0.000737926706
-0.000744457239
-0.000739998288
-0.000642223484
-0.000585953243
-0.000500686612
-0.000474685415
-0.000587454979
-0.000738672734
-0.000592196796
-0.000505159049
-0.000745354638
-0.000739593034
-0.000591905949
-0.00055053623
-0.000538894974
-0.000468994581
-0.000600970652
-0.000730821754
-0.000732201193
-0.000733343843
-0.000712120033
-0.000557718358
-0.000468717664
-0.000594356292
-0.000726798422
-0.000595793107
-0.000466759332
-0.000739191329
-0.000732607662
-0.000594775862
-0.000664663273
-0.00074835189
-0.00059975011
-0.000517881375
-0.000472197661
-0.00057975565
-0.000736541472
-0.000749131226
-0.000601088008
-0.000467689218
-0.000690720117
-0.000746103371
-0.000594110826
-0.000607282564
-0.000748943657
-0.000598313081
-0.000521332219
-0.000474624511
-0.000572744934
-0.000735314958
-0.000752013921
-0.000604028031
-0.000509030113
-0.000730478181
-0.000743471304
-0.000597795001
-0.000512154739
-0.000587237383
-0.000735418269
-0.000749420407
-0.000601187701
-0.000509684306
-0.000737929251
-0.000744474376
-0.000596109653
-0.000513998184
-0.000491398319
-0.000588505681
-0.000736271269
-0.000751706188
-0.000599703895
-0.000505298218
-0.000740433216
-0.00074831291
-0.000593356703
-0.000498377684
-0.000468912954
-0.00058807659
-0.000730962616
-0.000749387831
-0.000642733226
-0.000570304994
-0.00054580495
-0.000435683376
-0.000436195268
-0.000730557531
-0.000734877461
-0.00073535836
-0.000604602587
-0.000546591313
-0.000732477073
-0.000742097443
-0.00060460561
-0.000542258451
-0.000734102832
-0.000743022446
-0.0005972249
-0.000527109679
-0.00073621104
-0.000739178848
-0.000596019571
-0.000475602726
-0.000474674031
-0.00064985972
-0.000738336561
-0.000606827409
-0.00051959242
-0.000735156592
-0.00073585561
-0.000598471699
-0.000464907056
-0.000465019006
-0.000731848891
-0.000732840694
-0.000597751304
-0.000436505658
-0.000448888731
-0.000730053203
-0.000740466372
-0.000729243625
-0.000592163094
-0.000559373611
-0.000528783909
-0.000484615037
-0.000584025351
-0.000734054174
-0.000755004061
-0.000601297187
-0.000523198812
-0.000737441334
-0.000745234685
-0.000588226111
-0.000514710637
-0.000711240616
-0.000739575864
-0.000596626837
-0.000527190851
-0.000586057834
-0.000734325475
-0.000751711525
-0.000605384881
-0.000511893204
-0.000736557205
-0.000743918589
-0.000577641232
-0.000526753463
-0.000734966426
-0.000738841896
-0.000599549483
-0.000576262909
-0.000474149957
-0.000474247995
-0.000735334522
-0.000740795565
-0.000596415392
-0.00054186801
-0.000514670408
-0.000598469385
-0.000736924217
-0.000743666713
-0.000740224412
-0.000743209165
-0.000597519691
-0.00043496029
-0.000436403352
-0.000738934854
-0.000740676923
-0.000590468804
-0.000549054166
-0.000547939959
-0.000478567001
-0.000583333487
-0.000738253624
-0.000750612445
-0.000740956753
-0.00074936267
-0.000744604635
-0.000744917862
-0.000594403509
-0.000513218971
-0.000528597393
-0.00042746178
-0.000431180179
-0.000731284436
-0.000743277242
-0.000575831267
-0.000529808854
-0.000734048258
-0.000744447935
-0.000597208736
-0.000556878226
-0.000737639635
-0.000743712659
-0.000598579191
-0.000584507941
-0.000500324214
-0.00049780657
-0.000640504162
-0.000742928671
-0.000589864599
-0.000515954652
-0.000739354623
-0.000743754547
-0.000571179021
-0.000521842717
-0.000743793531
-0.000741965433
-0.000590474928
-0.000538646102
-0.000547082653
-0.000460676789
-0.000530754012
-0.000732096789
-0.000746253476
-0.000726635745
-0.00074641273
-0.00072201744
-0.000745770439
-0.000731294944
-0.000542818062
-0.000448823123
-0.000593289647
-0.000735894951
-0.00059357145
-0.000526982891
-0.00074466047
-0.000740306405
-0.000596781085
-0.000569189713
-0.000465841885
-0.000465404703
-0.000738533339
-0.000743252433
-0.000598220784
-0.000506073862
-0.000496514034
-0.000587637085
-0.000736361397
-0.000751547859
-0.000608125313
-0.000533164498
-0.000741986667
-0.000740851072
-0.000740171666
-0.000579089534
-0.000498150872
-0.000738550926
-0.000734913605
-0.000598459422
-0.000452936524
-0.000453129781
-0.000735608018
-0.000734330378
-0.000598262669
-0.000465461476
-0.000465407396
-0.000739601682
-0.000737376589
-0.000594463229
-0.000557112882
-0.000511946119
-0.00049009979
-0.000588062981
-0.000737580572
-0.000753860613
-0.000601126914
-0.000542453986
-0.000497633417
-0.000591922982
-0.000737896935
-0.000752591129
-0.000737801309
-0.000751977352
-0.000605052987
-0.000513677396
-0.000428543058
-0.00058370097
-0.000734410412
-0.000583408622
-0.000734686734
-0.000747844157
-0.000604803512
-0.00045676914
-0.000460470252
-0.000737380162
-0.000732673398
-0.000598174552
-0.000429394081
-0.000433717601
-0.000729508566
-0.000737923795
-0.000569259002
-0.000508279959
-0.000736358727
-0.000739636447
-0.000589770839
-0.000523757307
-0.000617818691
-0.000739852771
-0.000743549377
-0.000596014884
-0.000564504274
-0.000612660575
-0.000600216886
-0.0004562089
-0.000747561499
-0.000741617466
-0.000590001404
-0.00047299634
-0.000546583963
-0.000740859619
-0.00074153432
-0.000742174485
-0.000602103564
-0.000530103553
-0.00074419388
-0.000746334647
-0.000600671544
-0.000565475359
-0.00059615798
-0.000601784705
-0.000494383787
)
;

boundaryField
{
    closed
    {
        type            calculated;
        value           uniform -0.00454580295;
    }
    open
    {
        type            calculated;
        value           nonuniform List<scalar> 0();
    }
    sides
    {
        type            empty;
    }
    procBoundary0to1
    {
        type            processor;
        value           uniform -0.000745889947;
    }
}


// ************************************************************************* //
