/*--------------------------------*- C++ -*----------------------------------*\
| =========                 |                                                 |
| \\      /  F ield         | OpenFOAM: The Open Source CFD Toolbox           |
|  \\    /   O peration     | Version:  2306                                  |
|   \\  /    A nd           | Website:  www.openfoam.com                      |
|    \\/     M anipulation  |                                                 |
\*---------------------------------------------------------------------------*/
FoamFile
{
    version     2.0;
    format      ascii;
    arch        "LSB;label=32;scalar=64";
    class       volScalarField;
    location    "0.00196";
    object      prefDh_H2O;
}
// * * * * * * * * * * * * * * * * * * * * * * * * * * * * * * * * * * * * * //

dimensions      [1 1 -3 0 0 0 0];

internalField   nonuniform List<scalar> 
530
(
93.8528369
90.1490199
89.8060407
89.8179706
89.8195298
89.8195733
89.8195747
89.8195748
89.8195748
89.8195748
89.8195748
89.8195748
89.8195748
89.8195748
89.8195748
89.8195748
89.8195748
89.8195748
89.8195748
89.8195748
89.8195748
89.8195748
89.8195748
89.8195748
89.8195748
89.8195748
89.8195748
89.8195748
89.8195748
89.8195748
89.8195748
89.8195748
89.8195748
89.8195748
89.8195748
89.8195748
89.8195748
89.8195748
89.8195748
89.8195748
89.8195748
89.8195748
89.8195748
89.8195748
89.8195748
89.8195748
89.8195748
89.8195748
89.8195748
89.8195748
89.8195748
89.8195748
89.8195748
89.8195748
89.8195748
89.8195748
89.8195748
89.8195748
89.8195748
89.8195747
89.8195747
89.8195745
89.8195744
89.819573
89.8195733
89.8195745
89.8195586
89.8195151
89.8196012
89.8198625
89.8195081
89.8161883
89.8142601
89.8366859
89.8650323
89.7699368
89.5668277
89.815683
90.4365969
90.4219848
88.2688273
88.1767813
91.5743773
92.2938095
92.4667254
88.695571
88.4259747
89.2482911
89.189318
88.4692776
87.9742993
87.9416533
90.827054
92.6363484
92.4034206
92.5853259
88.0558798
87.7997908
89.9473059
92.4455177
92.2932602
90.2022959
88.1288182
87.7275304
87.5054258
88.1670472
92.6430211
92.2082892
92.4017599
92.273432
89.1300795
87.9739372
92.757193
92.3030316
89.3573407
88.0937259
87.8498155
87.5931761
88.2346823
92.7135951
92.2264018
92.6129695
92.2720816
92.1503497
88.0667267
87.9034273
87.6747472
87.4508144
88.0227343
92.566632
92.2690817
89.8143564
87.6866706
88.4741128
92.5343576
92.1261366
92.2654203
89.0946131
87.903276
91.9398741
92.3849312
88.564724
87.9277782
92.6226468
92.3494915
90.1870077
88.0960125
88.0609055
87.8664839
87.6249663
88.2373225
92.6095804
92.1672331
92.2820672
89.1951485
88.0393254
93.0592911
92.3607919
90.4488682
87.9056093
87.9018544
90.0632132
89.5365761
87.7573185
90.3791978
92.5129606
89.1477
87.7857036
90.4854798
92.5216691
89.7249372
87.7287892
88.3366802
92.5777427
92.1271857
92.2883111
89.6071532
87.867673
88.9826605
92.5311549
92.4270572
92.382289
92.537825
88.2194193
87.9681821
87.7762845
87.6929885
89.8126008
92.5212221
90.5317926
87.7680209
87.6841714
88.8183708
92.4992951
92.1792505
88.6330611
88.0742612
92.8979116
90.1924725
87.6003603
89.7945836
92.4874558
92.2804653
90.2118726
87.9248494
87.7534213
88.6333716
92.5658927
92.2929351
92.3222303
91.5180528
88.196402
87.797202
87.6839881
89.4082832
92.5396478
88.5992824
87.8374525
92.7348343
92.3885586
89.1249141
88.0640846
87.9583861
87.7005599
88.3285086
92.6672808
92.4549066
92.4320425
93.0034811
88.0561494
87.7353808
89.8282091
92.6110699
88.8236494
87.7030376
92.8005995
92.6369253
88.5010363
92.0363102
92.2902985
89.2743602
87.8462723
87.6928585
88.1472284
92.5506849
92.2889652
88.7397527
87.63339
92.5363205
92.4528369
88.5670725
90.4857589
92.316731
89.8093747
87.8513581
87.7000099
88.1042487
92.5576054
92.2416626
88.8354438
87.8177135
93.0790472
92.4021429
88.5225234
87.8745939
89.562209
92.4304825
92.2983575
88.6701064
87.8398859
92.7695149
92.373948
89.3500146
87.8378222
87.772612
88.6037075
92.5014863
92.2465895
88.6529105
87.80281
92.768223
92.3688201
89.174021
87.7531972
87.6640556
88.5417327
92.6502761
92.2029899
91.5328031
88.1185496
88.0549321
87.5339826
87.5457732
92.9772703
92.3774245
92.5057215
88.7490219
88.032651
92.7729203
92.3251251
88.3087672
87.9957671
92.7881985
92.3364081
88.2643231
87.9332871
92.7510888
92.4066219
89.5449429
87.7081203
87.6853593
91.6986639
92.4589227
88.3615629
87.91696
92.7171603
92.4371499
89.5752566
87.6707023
87.6645645
92.7811632
92.5068157
89.5338985
87.5711989
87.5815323
92.9673965
92.3391352
92.5046608
89.4778837
88.115935
87.8896315
87.7594148
88.5709951
92.4914861
92.2084033
88.8131982
87.8802099
92.7258464
92.347708
88.2360165
87.8715128
92.9400348
92.3986269
88.6886241
87.9475126
89.3375255
92.4163506
92.2557954
88.6957216
87.8366543
92.8458335
92.3637982
88.1855298
87.9316797
92.7239201
92.3296145
89.0089856
88.1777624
87.7062262
87.6961683
92.77161
92.3893623
89.4088071
87.988852
87.8810827
88.5836837
92.523586
92.3670897
92.3351894
92.4612648
88.6201737
87.5291868
87.5097774
92.6417577
92.3880263
89.3149676
88.0365779
87.9893667
87.7159181
88.1626073
92.6343497
92.2718961
92.4458319
92.3282526
92.2982699
92.2936786
88.6852992
87.8934451
87.9258025
87.5192136
87.4785643
92.8376354
92.4033492
88.1848177
87.9337233
92.7254145
92.3032793
88.2747062
88.0593836
92.6337173
92.2578258
89.1583996
88.1925396
87.8234885
87.7796093
91.4754046
92.4066612
88.2297696
87.8719267
92.6993249
92.3464233
88.1319444
87.8988149
92.6179625
92.3460244
89.0306713
87.9953105
87.9954934
87.6503589
87.9272022
92.7294965
92.3005429
92.6439506
92.3255613
92.6831014
92.3173447
92.70593
87.9566718
87.6190228
89.9439089
92.4998539
88.5178747
87.9382624
92.5531675
92.3273618
88.9437513
88.1385963
87.6600522
87.6474912
92.6981048
92.407521
88.9970401
87.8048931
87.7988113
88.738397
92.45695
92.2233764
88.3165239
87.9437222
92.7427491
92.3059081
92.4124437
88.1760957
87.8208498
92.6360716
92.4684556
89.138261
87.621301
87.6116143
92.6464131
92.4873011
89.4857893
87.6724684
87.6607063
92.5880648
92.3907758
89.0090355
88.0868623
87.8270621
87.7655533
89.7135742
92.4046226
92.2403605
90.0034354
87.9516582
87.803537
88.3162058
92.5494927
92.2108781
92.3758507
92.262028
90.2077226
87.8051148
87.4977358
89.4794125
92.7666771
88.9713289
92.7873776
92.2924665
88.8005019
87.6119799
87.6509596
92.689647
92.5257167
89.0775378
87.5352151
87.5107139
92.7575293
92.4468576
88.1529782
87.8549497
92.7195677
92.3794831
88.220403
87.9212343
90.8635587
92.3259538
92.3557685
88.746545
88.1002197
90.6926933
88.3520319
87.594723
92.6105233
92.4578577
88.9439746
87.6937815
88.0079821
92.5496028
92.2391615
92.29824
88.2878993
87.9290131
92.8175451
92.3093
88.4487512
88.0998784
89.9945569
88.3619677
87.7574558
)
;

boundaryField
{
    closed
    {
        type            calculated;
        value           uniform 120.509762;
    }
    open
    {
        type            calculated;
        value           nonuniform List<scalar> 0();
    }
    sides
    {
        type            empty;
    }
    procBoundary0to1
    {
        type            processor;
        value           uniform 92.5993693;
    }
}


// ************************************************************************* //
