/*--------------------------------*- C++ -*----------------------------------*\
| =========                 |                                                 |
| \\      /  F ield         | OpenFOAM: The Open Source CFD Toolbox           |
|  \\    /   O peration     | Version:  2306                                  |
|   \\  /    A nd           | Website:  www.openfoam.com                      |
|    \\/     M anipulation  |                                                 |
\*---------------------------------------------------------------------------*/
FoamFile
{
    version     2.0;
    format      ascii;
    arch        "LSB;label=32;scalar=64";
    class       volVectorField;
    location    "0.00026";
    object      U;
}
// * * * * * * * * * * * * * * * * * * * * * * * * * * * * * * * * * * * * * //

dimensions      [0 1 -1 0 0 0 0];

internalField   nonuniform List<vector> 
530
(
(0.0196927126 0 0)
(0.0722025726 0 0)
(0.145804734 0 0)
(0.22867789 0 0)
(0.369013573 0 0)
(0.514937153 0 0)
(0.596042135 0 0)
(0.616789224 0 0)
(0.560952028 0 0)
(0.421194609 0 0)
(0.209160201 0 0)
(-0.00926705851 0 0)
(-0.19579112 0 0)
(-0.332419875 0 0)
(-0.399023229 0 0)
(-0.427628889 0 0)
(-0.480968534 0 0)
(-0.559593721 0 0)
(-0.620517916 0 0)
(-0.664525294 0 0)
(-0.713798085 0 0)
(-0.744594228 0 0)
(-0.750347081 0 0)
(-0.774834766 0 0)
(-0.809747081 0 0)
(-0.7743538 0 0)
(-0.672992122 0 0)
(-0.643416301 0 0)
(-0.745733104 0 0)
(-0.834232721 0 0)
(-0.791836362 0 0)
(-0.727887136 0 0)
(-0.787819053 0 0)
(-0.921767694 0 0)
(-0.966682962 0 0)
(-0.852241325 0 0)
(-0.658048085 0 0)
(-0.499476552 0 0)
(-0.437073531 0 0)
(-0.479385248 0 0)
(-0.593943691 0 0)
(-0.733747399 0 0)
(-0.845254838 0 0)
(-0.875334899 0 0)
(-0.806055694 0 0)
(-0.677098918 0 0)
(-0.551825604 0 0)
(-0.470706689 0 0)
(-0.448641949 0 0)
(-0.484783607 0 0)
(-0.56747341 0 0)
(-0.681106783 0 0)
(-0.808370765 0 0)
(-0.928692093 0 0)
(-1.02076646 0 0)
(-1.06895634 0 0)
(-1.06828441 0 0)
(-1.02529766 0 0)
(-0.954666244 0 0)
(-0.873484973 0 0)
(-0.79612343 0 0)
(-0.731511174 0 0)
(-0.683375572 0 0)
(-0.651626396 0 0)
(-0.633613874 0 0)
(-0.625382173 0 0)
(-0.622820345 0 0)
(-0.622433664 0 0)
(-0.621707174 0 0)
(-0.619142983 0 0)
(-0.614102997 0 0)
(-0.606571127 0 0)
(-0.596925283 0 0)
(-0.585748722 0 0)
(-0.573688497 0 0)
(-0.561360516 0 0)
(-0.549294625 0 0)
(-0.537909984 0 0)
(-0.527511553 0 0)
(-0.518299069 0 0)
(-0.510381873 0 0)
(-0.503796255 0 0)
(-0.498522628 0 0)
(-0.494501119 0 0)
(-0.491644828 0 0)
(-0.489850585 0 0)
(-0.489007308 0 0)
(-0.489002212 0 0)
(-0.489725235 0 0)
(-0.491071998 0 0)
(-0.492945641 0 0)
(-0.495257805 0 0)
(-0.497928996 0 0)
(-0.500888509 0 0)
(-0.504074076 0 0)
(-0.507431326 0 0)
(-0.510913126 0 0)
(-0.514478916 0 0)
(-0.518094085 0 0)
(-0.521729293 0 0)
(-0.525359703 0 0)
(-0.528964359 0 0)
(-0.532526112 0 0)
(-0.536031428 0 0)
(-0.539469702 0 0)
(-0.542920194 0 0)
(-0.546467014 0 0)
(-0.550105009 0 0)
(-0.553831906 0 0)
(-0.557644561 0 0)
(-0.561540428 0 0)
(-0.565517724 0 0)
(-0.569574023 0 0)
(-0.573705961 0 0)
(-0.5779108 0 0)
(-0.582186942 0 0)
(-0.586532033 0 0)
(-0.590942129 0 0)
(-0.595413882 0 0)
(-0.599945726 0 0)
(-0.604535751 0 0)
(-0.609180043 0 0)
(-0.613874525 0 0)
(-0.618616263 0 0)
(-0.623404012 0 0)
(-0.62823497 0 0)
(-0.633103486 0 0)
(-0.638006148 0 0)
(-0.64294177 0 0)
(-0.647906893 0 0)
(-0.652895519 0 0)
(-0.657904115 0 0)
(-0.662932503 0 0)
(-0.667977002 0 0)
(-0.673028642 0 0)
(-0.678082804 0 0)
(-0.683142043 0 0)
(-0.688203992 0 0)
(-0.693257582 0 0)
(-0.698295722 0 0)
(-0.70331987 0 0)
(-0.708329814 0 0)
(-0.71331982 0 0)
(-0.718277006 0 0)
(-0.723195154 0 0)
(-0.72808207 0 0)
(-0.732934959 0 0)
(-0.737738832 0 0)
(-0.742487065 0 0)
(-0.747182442 0 0)
(-0.751822782 0 0)
(-0.756399434 0 0)
(-0.760905866 0 0)
(-0.7653396 0 0)
(-0.769698171 0 0)
(-0.773976888 0 0)
(-0.778170328 0 0)
(-0.78227351 0 0)
(-0.786284246 0 0)
(-0.790199734 0 0)
(-0.794014191 0 0)
(-0.797723842 0 0)
(-0.80132618 0 0)
(-0.804817685 0 0)
(-0.808194816 0 0)
(-0.811455107 0 0)
(-0.814596213 0 0)
(-0.817614394 0 0)
(-0.820506597 0 0)
(-0.823270326 0 0)
(-0.825906215 0 0)
(-0.828413423 0 0)
(-0.830785047 0 0)
(-0.833018865 0 0)
(-0.83511878 0 0)
(-0.837084729 0 0)
(-0.838911606 0 0)
(-0.840597525 0 0)
(-0.84214485 0 0)
(-0.84355501 0 0)
(-0.844827906 0 0)
(-0.845959858 0 0)
(-0.84695027 0 0)
(-0.847806067 0 0)
(-0.848528918 0 0)
(-0.849114357 0 0)
(-0.84956303 0 0)
(-0.849881199 0 0)
(-0.850071701 0 0)
(-0.8501332 0 0)
(-0.850066786 0 0)
(-0.849877209 0 0)
(-0.849568418 0 0)
(-0.849143499 0 0)
(-0.848602011 0 0)
(-0.847945931 0 0)
(-0.847184 0 0)
(-0.846320319 0 0)
(-0.845354243 0 0)
(-0.84428897 0 0)
(-0.843131414 0 0)
(-0.841886209 0 0)
(-0.840555528 0 0)
(-0.839143067 0 0)
(-0.837654514 0 0)
(-0.836094643 0 0)
(-0.834466602 0 0)
(-0.832774453 0 0)
(-0.831023963 0 0)
(-0.829220014 0 0)
(-0.827365742 0 0)
(-0.825465055 0 0)
(-0.823523566 0 0)
(-0.82154649 0 0)
(-0.819537865 0 0)
(-0.817499929 0 0)
(-0.815436693 0 0)
(-0.813355453 0 0)
(-0.811260447 0 0)
(-0.809152708 0 0)
(-0.807035693 0 0)
(-0.804915326 0 0)
(-0.802795727 0 0)
(-0.800678838 0 0)
(-0.798567271 0 0)
(-0.796465053 0 0)
(-0.794375859 0 0)
(-0.792301817 0 0)
(-0.790244636 0 0)
(-0.788206843 0 0)
(-0.78619263 0 0)
(-0.784204069 0 0)
(-0.782239513 0 0)
(-0.780300655 0 0)
(-0.778393157 0 0)
(-0.776518504 0 0)
(-0.774673089 0 0)
(-0.772856962 0 0)
(-0.771075302 0 0)
(-0.769330135 0 0)
(-0.767618075 0 0)
(-0.765936787 0 0)
(-0.76428788 0 0)
(-0.762676421 0 0)
(-0.761101899 0 0)
(-0.759556605 0 0)
(-0.758040033 0 0)
(-0.75655813 0 0)
(-0.755110612 0 0)
(-0.753691714 0 0)
(-0.752299702 0 0)
(-0.750936795 0 0)
(-0.74960287 0 0)
(-0.748295035 0 0)
(-0.747011269 0 0)
(-0.7457511 0 0)
(-0.744513888 0 0)
(-0.743298171 0 0)
(-0.742102322 0 0)
(-0.740925156 0 0)
(-0.739765315 0 0)
(-0.738621176 0 0)
(-0.737491615 0 0)
(-0.736376585 0 0)
(-0.735274756 0 0)
(-0.734182267 0 0)
(-0.733097939 0 0)
(-0.732024582 0 0)
(-0.730961838 0 0)
(-0.729903887 0 0)
(-0.728847882 0 0)
(-0.727798108 0 0)
(-0.726757892 0 0)
(-0.725723848 0 0)
(-0.724686097 0 0)
(-0.723644923 0 0)
(-0.722615317 0 0)
(-0.721598063 0 0)
(-0.720577315 0 0)
(-0.719550309 0 0)
(-0.718532234 0 0)
(-0.717530826 0 0)
(-0.716535822 0 0)
(-0.715539942 0 0)
(-0.714548487 0 0)
(-0.713579527 0 0)
(-0.712637579 0 0)
(-0.711703023 0 0)
(-0.710776446 0 0)
(-0.709879215 0 0)
(-0.709019219 0 0)
(-0.708187243 0 0)
(-0.707380446 0 0)
(-0.70661041 0 0)
(-0.705887555 0 0)
(-0.705214239 0 0)
(-0.704585276 0 0)
(-0.704003124 0 0)
(-0.703482997 0 0)
(-0.703029646 0 0)
(-0.70263905 0 0)
(-0.702313737 0 0)
(-0.70206239 0 0)
(-0.701890193 0 0)
(-0.701797892 0 0)
(-0.701787151 0 0)
(-0.701862456 0 0)
(-0.702028528 0 0)
(-0.702288197 0 0)
(-0.702642405 0 0)
(-0.7030933 0 0)
(-0.70364481 0 0)
(-0.70429952 0 0)
(-0.705058958 0 0)
(-0.705924518 0 0)
(-0.706897915 0 0)
(-0.707981139 0 0)
(-0.70917581 0 0)
(-0.710482923 0 0)
(-0.711902985 0 0)
(-0.713436573 0 0)
(-0.715084312 0 0)
(-0.716846624 0 0)
(-0.718723418 0 0)
(-0.720713995 0 0)
(-0.722817602 0 0)
(-0.725033343 0 0)
(-0.727360039 0 0)
(-0.729796218 0 0)
(-0.732339848 0 0)
(-0.734988385 0 0)
(-0.737739138 0 0)
(-0.740589489 0 0)
(-0.743536337 0 0)
(-0.746575907 0 0)
(-0.74970359 0 0)
(-0.752914962 0 0)
(-0.756206513 0 0)
(-0.759573478 0 0)
(-0.763009096 0 0)
(-0.766506881 0 0)
(-0.770062566 0 0)
(-0.773670779 0 0)
(-0.777324569 0 0)
(-0.781014127 0 0)
(-0.784731304 0 0)
(-0.788473617 0 0)
(-0.792234282 0 0)
(-0.796000828 0 0)
(-0.799763514 0 0)
(-0.803518162 0 0)
(-0.807258502 0 0)
(-0.810976264 0 0)
(-0.814658925 0 0)
(-0.818296959 0 0)
(-0.82188978 0 0)
(-0.825431283 0 0)
(-0.828909824 0 0)
(-0.832317413 0 0)
(-0.835649565 0 0)
(-0.838903785 0 0)
(-0.842075358 0 0)
(-0.84515542 0 0)
(-0.848139039 0 0)
(-0.851024648 0 0)
(-0.853808771 0 0)
(-0.85648658 0 0)
(-0.859053014 0 0)
(-0.861503721 0 0)
(-0.863835342 0 0)
(-0.866043054 0 0)
(-0.868120796 0 0)
(-0.870062547 0 0)
(-0.87186196 0 0)
(-0.873512191 0 0)
(-0.875006053 0 0)
(-0.87633601 0 0)
(-0.877494504 0 0)
(-0.878474138 0 0)
(-0.879268046 0 0)
(-0.879870282 0 0)
(-0.880275782 0 0)
(-0.8804807 0 0)
(-0.880482783 0 0)
(-0.880281442 0 0)
(-0.879877784 0 0)
(-0.87927498 0 0)
(-0.878478498 0 0)
(-0.877495239 0 0)
(-0.876333042 0 0)
(-0.875001834 0 0)
(-0.873513952 0 0)
(-0.87188236 0 0)
(-0.870119994 0 0)
(-0.868239267 0 0)
(-0.866254648 0 0)
(-0.864183903 0 0)
(-0.862042123 0 0)
(-0.859841041 0 0)
(-0.857595157 0 0)
(-0.855322145 0 0)
(-0.853037435 0 0)
(-0.850753186 0 0)
(-0.848482129 0 0)
(-0.846237915 0 0)
(-0.844035718 0 0)
(-0.841887515 0 0)
(-0.839799547 0 0)
(-0.837780424 0 0)
(-0.835840898 0 0)
(-0.833987192 0 0)
(-0.832220789 0 0)
(-0.830542757 0 0)
(-0.828954267 0 0)
(-0.827456065 0 0)
(-0.826045355 0 0)
(-0.824715275 0 0)
(-0.823460798 0 0)
(-0.82227882 0 0)
(-0.821163915 0 0)
(-0.820108755 0 0)
(-0.819107167 0 0)
(-0.8181547 0 0)
(-0.817247082 0 0)
(-0.816380131 0 0)
(-0.815549625 0 0)
(-0.814752387 0 0)
(-0.813986962 0 0)
(-0.8132515 0 0)
(-0.812543931 0 0)
(-0.811863049 0 0)
(-0.811208333 0 0)
(-0.810578781 0 0)
(-0.809972676 0 0)
(-0.809388876 0 0)
(-0.808827028 0 0)
(-0.808285545 0 0)
(-0.807760973 0 0)
(-0.807249941 0 0)
(-0.806749784 0 0)
(-0.806257857 0 0)
(-0.805768499 0 0)
(-0.805272352 0 0)
(-0.804761559 0 0)
(-0.804230116 0 0)
(-0.803668543 0 0)
(-0.803063115 0 0)
(-0.80240049 0 0)
(-0.801668568 0 0)
(-0.800856944 0 0)
(-0.799954019 0 0)
(-0.798945912 0 0)
(-0.797824071 0 0)
(-0.79658608 0 0)
(-0.795232012 0 0)
(-0.793764775 0 0)
(-0.792193169 0 0)
(-0.790532294 0 0)
(-0.788802995 0 0)
(-0.787029275 0 0)
(-0.785236278 0 0)
(-0.783451356 0 0)
(-0.781701843 0 0)
(-0.780011574 0 0)
(-0.778399285 0 0)
(-0.776877994 0 0)
(-0.775454111 0 0)
(-0.774126821 0 0)
(-0.772888357 0 0)
(-0.77172504 0 0)
(-0.770618689 0 0)
(-0.769548284 0 0)
(-0.768491723 0 0)
(-0.767427657 0 0)
(-0.766337318 0 0)
(-0.765206042 0 0)
(-0.764024457 0 0)
(-0.762789261 0 0)
(-0.761503423 0 0)
(-0.760175667 0 0)
(-0.758819206 0 0)
(-0.757449804 0 0)
(-0.75608341 0 0)
(-0.754733751 0 0)
(-0.75341035 0 0)
(-0.752117416 0 0)
(-0.750853939 0 0)
(-0.749614907 0 0)
(-0.748393032 0 0)
(-0.747180313 0 0)
(-0.745969338 0 0)
(-0.744756007 0 0)
(-0.743541552 0 0)
(-0.742326782 0 0)
(-0.74110435 0 0)
(-0.739869443 0 0)
(-0.738644613 0 0)
(-0.73745944 0 0)
(-0.736299682 0 0)
(-0.735056176 0 0)
(-0.733722311 0 0)
(-0.732584951 0 0)
(-0.7317617 0 0)
(-0.73076519 0 0)
(-0.729076575 0 0)
(-0.727189739 0 0)
(-0.726675835 0 0)
(-0.727438137 0 0)
(-0.725773363 0 0)
(-0.720892926 0 0)
(-0.71896142 0 0)
(-0.7206438 0 0)
(-0.72476008 0 0)
(-0.713599457 0 0)
(-0.688962312 0 0)
(-0.677052606 0 0)
(-0.681452103 0 0)
(-0.689057089 0 0)
(-0.690473304 0 0)
(-0.699248029 0 0)
(-0.716813542 0 0)
(-0.743424654 0 0)
(-0.707664846 0 0)
(-0.63804241 0 0)
(-0.622255795 0 0)
(-0.633498907 0 0)
(-0.642948771 0 0)
(-0.633423845 0 0)
(-0.627212047 0 0)
(-0.629647882 0 0)
)
;

boundaryField
{
    closed
    {
        type            noSlip;
    }
    open
    {
        type            inletOutlet;
        inletValue      nonuniform List<vector> 0();
        value           nonuniform List<vector> 0();
    }
    sides
    {
        type            empty;
    }
    procBoundary0to1
    {
        type            processor;
        value           uniform (-0.631749248 0 0);
    }
}


// ************************************************************************* //
