/*--------------------------------*- C++ -*----------------------------------*\
| =========                 |                                                 |
| \\      /  F ield         | OpenFOAM: The Open Source CFD Toolbox           |
|  \\    /   O peration     | Version:  2306                                  |
|   \\  /    A nd           | Website:  www.openfoam.com                      |
|    \\/     M anipulation  |                                                 |
\*---------------------------------------------------------------------------*/
FoamFile
{
    version     2.0;
    format      ascii;
    arch        "LSB;label=32;scalar=64";
    class       volScalarField;
    location    "0.00102";
    object      T;
}
// * * * * * * * * * * * * * * * * * * * * * * * * * * * * * * * * * * * * * //

dimensions      [0 0 0 1 0 0 0];

internalField   nonuniform List<scalar> 
531
(
325.957038
329.925912
339.648995
336.581407
326.709707
325.48097
329.744824
339.625743
337.027031
326.599511
325.099751
329.590181
339.649478
337.168319
329.897279
329.465492
339.111264
336.81513
325.955146
324.75482
329.584545
339.690616
337.859552
329.949044
329.514969
338.963135
335.956698
324.846879
323.742977
329.42641
339.51841
336.76905
324.952588
323.259202
329.361081
339.609376
337.5724
325.597999
323.86913
329.466327
339.83171
337.074673
329.9547
329.326998
338.905422
332.119739
327.512334
329.195739
339.825321
337.474279
325.180433
324.310315
329.363862
340.143803
340.645333
329.078705
329.44454
329.132894
329.653803
329.196596
335.837095
340.236401
329.846565
326.636
328.995338
339.643899
336.769392
324.962193
324.602733
335.474551
340.08651
329.295393
329.563534
331.022331
332.400595
329.436158
329.186765
339.389359
335.257821
327.058695
329.298954
339.252691
334.672937
324.408438
323.720702
329.660347
339.58932
334.000123
328.49064
329.160743
339.570466
333.758694
324.194369
324.457143
332.99676
339.804699
330.018197
326.80028
329.189572
339.689889
332.351279
323.65665
324.96123
333.563398
339.954228
329.860832
327.248649
329.474789
339.764848
332.109724
324.235463
326.351847
335.049662
339.882323
330.052242
324.725245
326.622117
334.301577
339.927611
329.964685
324.401647
326.617025
334.74445
339.957088
329.772622
324.197492
326.555538
335.099804
339.984561
329.659874
323.863827
326.452841
335.483334
339.988792
329.636979
323.605425
326.760996
337.533792
340.315094
329.621644
328.459774
331.065672
339.669815
329.88202
322.800987
325.932145
338.406248
340.343054
329.676869
328.795115
331.098878
339.510507
330.132982
323.742255
324.363255
334.63931
339.866829
330.766509
325.779944
323.214472
323.58308
335.019969
339.51439
332.015102
326.465677
325.015655
333.570437
339.810238
331.095015
329.104548
328.908735
337.653387
336.259617
327.783368
324.016333
330.072383
339.082077
332.495519
329.307617
328.870658
336.568692
336.229689
328.887004
326.35011
330.170973
339.057419
333.375684
328.994658
328.390936
333.384444
338.031701
329.344256
326.027305
326.989631
334.130237
338.268927
329.715821
326.668701
327.233158
334.089228
338.378836
329.825195
326.930123
329.054613
335.429236
338.662517
329.777113
326.79963
324.839527
328.82601
338.157171
339.202188
329.503943
327.127949
327.114488
333.880118
338.89567
330.208603
327.935876
328.887494
338.509258
338.365211
328.977611
327.087104
329.856073
338.866664
331.639758
327.054007
327.122934
334.479711
339.141596
329.887988
326.432069
326.907895
334.479231
339.366615
330.018547
325.986998
326.168289
334.26832
339.03595
329.480215
328.092706
329.37073
339.667888
334.484975
327.283215
325.403442
330.203467
339.812499
339.526519
328.993712
326.083992
325.760521
324.571839
328.838525
339.675914
339.879326
329.247645
328.145077
329.408232
339.719294
335.715753
328.068854
328.622303
339.50061
339.355586
328.991286
323.637867
328.979564
339.949264
339.190137
328.644392
323.545721
329.215638
339.713495
334.599655
325.670496
325.612559
335.387975
339.396616
329.110774
326.43355
331.338285
339.455963
329.46733
324.382815
328.855683
339.927548
339.588834
329.376801
326.09914
330.27656
339.812716
334.286917
325.271822
324.934612
330.575763
339.687391
333.374159
324.900426
325.040871
330.868483
339.534781
331.776382
324.832615
326.242796
334.54793
339.061178
329.110488
328.040831
331.437447
339.468333
330.226376
324.029933
326.143057
334.397769
338.987583
329.117909
328.473428
331.996391
339.359291
329.799648
323.883856
326.551855
335.409462
338.808872
329.20144
328.668384
333.939155
338.862527
328.915851
323.83435
328.389105
338.781816
338.755363
329.520013
328.477092
332.681517
339.258549
329.5269
324.317235
327.873304
337.734635
338.632801
329.479645
329.093636
334.089522
338.986278
328.975804
324.413474
327.819263
334.821215
338.87482
328.972421
324.313108
328.846531
338.919964
338.503746
329.904872
329.594887
336.574134
338.389536
329.115524
323.905039
328.609009
339.386861
338.249937
329.952702
329.644292
337.499421
338.252106
329.2236
324.574207
329.063218
340.105741
338.038162
327.744141
324.831785
329.197388
340.099847
337.95174
328.109576
325.16084
329.345997
340.099675
337.830593
327.521766
324.708051
329.095314
340.047792
338.068792
327.724667
323.646865
325.555557
329.654641
339.852615
339.833638
334.389589
323.625482
323.668945
329.965335
339.684859
335.022338
324.577078
325.488255
332.435851
339.041701
329.140462
327.124883
330.397625
339.580413
331.154699
322.813338
325.274564
334.18833
338.798456
328.855916
328.179298
333.443784
339.070937
328.862136
328.289364
333.350889
339.113105
328.8781
322.822266
327.069055
337.065525
339.059962
329.197589
328.239533
333.5414
339.374957
329.400799
323.334254
327.320596
337.745854
339.111583
329.119118
326.991566
329.613838
340.218673
338.668074
326.156879
323.362079
328.970041
340.127723
339.039455
328.481663
325.008426
329.562804
339.831884
338.590596
321.19357
321.125238
327.941273
336.796066
339.338588
329.707914
328.503892
336.984525
339.346956
328.986325
324.336646
328.796388
336.070465
339.892504
334.996671
325.120001
325.130119
327.650478
329.567101
340.521479
339.257455
328.767711
323.454555
328.676231
340.198969
339.370564
329.465392
328.963309
339.593316
339.095995
329.397522
321.812711
328.773786
339.995658
338.995597
328.426832
328.565504
339.760885
338.431724
328.041353
328.983493
339.801035
338.893331
329.292791
323.374453
328.905889
340.088277
339.119693
329.244564
323.873756
328.913915
340.116431
338.994881
329.197387
324.003828
328.915404
340.126837
338.90223
329.175337
323.945821
328.908553
340.156083
338.816478
329.17949
323.746332
328.907206
340.182729
338.743884
329.184996
323.634992
328.918981
340.170946
338.677886
328.92668
323.573648
328.973789
340.152331
)
;

boundaryField
{
    closed
    {
        type            fixedValue;
        value           nonuniform List<scalar> 0();
    }
    open
    {
        type            zeroGradient;
    }
    sides
    {
        type            empty;
    }
    procBoundary1to0
    {
        type            processor;
        value           uniform 327.190821;
    }
    procBoundary1to2
    {
        type            processor;
        value           uniform 338.704313;
    }
}


// ************************************************************************* //
