/*--------------------------------*- C++ -*----------------------------------*\
| =========                 |                                                 |
| \\      /  F ield         | OpenFOAM: The Open Source CFD Toolbox           |
|  \\    /   O peration     | Version:  2306                                  |
|   \\  /    A nd           | Website:  www.openfoam.com                      |
|    \\/     M anipulation  |                                                 |
\*---------------------------------------------------------------------------*/
FoamFile
{
    version     2.0;
    format      ascii;
    arch        "LSB;label=32;scalar=64";
    class       volVectorField;
    location    "4e-05";
    object      U;
}
// * * * * * * * * * * * * * * * * * * * * * * * * * * * * * * * * * * * * * //

dimensions      [0 1 -1 0 0 0 0];

internalField   nonuniform List<vector> 
531
(
(1.65719045e-11 0 0)
(1.48995412e-11 0 0)
(1.66090763e-11 0 0)
(1.76969581e-11 0 0)
(1.95910918e-11 0 0)
(2.06220799e-11 0 0)
(1.8830441e-11 0 0)
(1.98240677e-11 0 0)
(2.22642005e-11 0 0)
(2.5367445e-11 0 0)
(2.45021296e-11 0 0)
(2.45066144e-11 0 0)
(2.77329417e-11 0 0)
(2.92478221e-11 0 0)
(3.07972343e-11 0 0)
(3.1322937e-11 0 0)
(3.45182911e-11 0 0)
(3.50481954e-11 0 0)
(3.79682389e-11 0 0)
(4.07086784e-11 0 0)
(4.30811586e-11 0 0)
(4.32590643e-11 0 0)
(4.79270132e-11 0 0)
(4.98848169e-11 0 0)
(5.32757382e-11 0 0)
(5.5640885e-11 0 0)
(5.81300097e-11 0 0)
(6.03139562e-11 0 0)
(6.574281e-11 0 0)
(6.81743633e-11 0 0)
(7.30236678e-11 0 0)
(7.72929233e-11 0 0)
(8.14872719e-11 0 0)
(8.47343338e-11 0 0)
(8.98627382e-11 0 0)
(9.32937283e-11 0 0)
(9.99215079e-11 0 0)
(1.05454241e-10 0 0)
(1.1087831e-10 0 0)
(1.17289065e-10 0 0)
(1.23871998e-10 0 0)
(1.2943048e-10 0 0)
(1.36089408e-10 0 0)
(1.43525564e-10 0 0)
(1.51320241e-10 0 0)
(1.59987028e-10 0 0)
(1.69579252e-10 0 0)
(1.771538e-10 0 0)
(1.85656747e-10 0 0)
(1.95798261e-10 0 0)
(2.08058789e-10 0 0)
(2.18473572e-10 0 0)
(2.30812407e-10 0 0)
(2.40480325e-10 0 0)
(2.55054732e-10 0 0)
(2.69427122e-10 0 0)
(2.83238914e-10 0 0)
(2.97745101e-10 0 0)
(3.13053176e-10 0 0)
(3.31293396e-10 0 0)
(3.46781017e-10 0 0)
(3.64926873e-10 0 0)
(3.85489683e-10 0 0)
(4.05354733e-10 0 0)
(4.24812188e-10 0 0)
(4.49414702e-10 0 0)
(4.7257265e-10 0 0)
(4.96891884e-10 0 0)
(5.23533589e-10 0 0)
(5.49803256e-10 0 0)
(5.80199126e-10 0 0)
(6.10242415e-10 0 0)
(6.41082137e-10 0 0)
(6.76974854e-10 0 0)
(7.11217553e-10 0 0)
(7.45214221e-10 0 0)
(7.85828217e-10 0 0)
(8.26205428e-10 0 0)
(8.70092523e-10 0 0)
(9.14757065e-10 0 0)
(9.62539112e-10 0 0)
(1.01066627e-09 0 0)
(1.06448442e-09 0 0)
(1.11902771e-09 0 0)
(1.17836297e-09 0 0)
(1.23848797e-09 0 0)
(1.30232337e-09 0 0)
(1.36935199e-09 0 0)
(1.44060473e-09 0 0)
(1.51415374e-09 0 0)
(1.59305291e-09 0 0)
(1.67433939e-09 0 0)
(1.75937472e-09 0 0)
(1.84715892e-09 0 0)
(1.94331615e-09 0 0)
(2.04365905e-09 0 0)
(2.14674035e-09 0 0)
(2.25524856e-09 0 0)
(2.36908026e-09 0 0)
(2.49213591e-09 0 0)
(2.61848889e-09 0 0)
(2.74972373e-09 0 0)
(2.88978762e-09 0 0)
(3.03428939e-09 0 0)
(3.18876196e-09 0 0)
(3.35220409e-09 0 0)
(3.51881511e-09 0 0)
(3.69629891e-09 0 0)
(3.881665e-09 0 0)
(4.07836899e-09 0 0)
(4.28305459e-09 0 0)
(4.49689811e-09 0 0)
(4.72077791e-09 0 0)
(4.95853895e-09 0 0)
(5.20774359e-09 0 0)
(5.46488474e-09 0 0)
(5.73883179e-09 0 0)
(6.02313689e-09 0 0)
(6.32334185e-09 0 0)
(6.63772145e-09 0 0)
(6.96789804e-09 0 0)
(7.31271188e-09 0 0)
(7.67471853e-09 0 0)
(8.05513467e-09 0 0)
(8.45561668e-09 0 0)
(8.87133927e-09 0 0)
(9.30716286e-09 0 0)
(9.76575895e-09 0 0)
(1.02471586e-08 0 0)
(1.07515684e-08 0 0)
(1.12789791e-08 0 0)
(1.18310653e-08 0 0)
(1.24104735e-08 0 0)
(1.30191797e-08 0 0)
(1.36534284e-08 0 0)
(1.43208179e-08 0 0)
(1.50172117e-08 0 0)
(1.57484698e-08 0 0)
(1.65155057e-08 0 0)
(1.73175987e-08 0 0)
(1.81589472e-08 0 0)
(1.90394444e-08 0 0)
(1.99599812e-08 0 0)
(2.09245311e-08 0 0)
(2.19344826e-08 0 0)
(2.29916663e-08 0 0)
(2.41000427e-08 0 0)
(2.52578286e-08 0 0)
(2.6474938e-08 0 0)
(2.77445568e-08 0 0)
(2.90755421e-08 0 0)
(3.04674315e-08 0 0)
(3.19260829e-08 0 0)
(3.34502029e-08 0 0)
(3.5045271e-08 0 0)
(3.67176705e-08 0 0)
(3.84669198e-08 0 0)
(4.02948023e-08 0 0)
(4.22076192e-08 0 0)
(4.42106416e-08 0 0)
(4.63044412e-08 0 0)
(4.84951261e-08 0 0)
(5.07873408e-08 0 0)
(5.31853801e-08 0 0)
(5.56901844e-08 0 0)
(5.83153056e-08 0 0)
(6.10589651e-08 0 0)
(6.39256702e-08 0 0)
(6.69224252e-08 0 0)
(7.00612753e-08 0 0)
(7.33399856e-08 0 0)
(7.67676333e-08 0 0)
(8.0350845e-08 0 0)
(8.40985582e-08 0 0)
(8.80133356e-08 0 0)
(9.21085986e-08 0 0)
(9.63879363e-08 0 0)
(1.00858816e-07 0 0)
(1.05533376e-07 0 0)
(1.10416683e-07 0 0)
(1.15522322e-07 0 0)
(1.20853393e-07 0 0)
(1.26426863e-07 0 0)
(1.32248332e-07 0 0)
(1.38330888e-07 0 0)
(1.44684002e-07 0 0)
(1.51320522e-07 0 0)
(1.5825406e-07 0 0)
(1.6549585e-07 0 0)
(1.73056963e-07 0 0)
(1.80953742e-07 0 0)
(1.89204903e-07 0 0)
(1.97817915e-07 0 0)
(2.06808678e-07 0 0)
(2.16198329e-07 0 0)
(2.26002332e-07 0 0)
(2.36238243e-07 0 0)
(2.4692178e-07 0 0)
(2.58072818e-07 0 0)
(2.69714151e-07 0 0)
(2.81865739e-07 0 0)
(2.94546397e-07 0 0)
(3.07778482e-07 0 0)
(3.21589197e-07 0 0)
(3.36000134e-07 0 0)
(3.51035281e-07 0 0)
(3.66723341e-07 0 0)
(3.83090861e-07 0 0)
(4.00166546e-07 0 0)
(4.17977274e-07 0 0)
(4.36557236e-07 0 0)
(4.55936537e-07 0 0)
(4.76150623e-07 0 0)
(4.97229156e-07 0 0)
(5.1921362e-07 0 0)
(5.42136989e-07 0 0)
(5.66041582e-07 0 0)
(5.90964287e-07 0 0)
(6.1694821e-07 0 0)
(6.44039584e-07 0 0)
(6.72281506e-07 0 0)
(7.01719871e-07 0 0)
(7.32405019e-07 0 0)
(7.64388733e-07 0 0)
(7.97720656e-07 0 0)
(8.32458603e-07 0 0)
(8.68660017e-07 0 0)
(9.06382526e-07 0 0)
(9.45686029e-07 0 0)
(9.86637644e-07 0 0)
(1.029302e-06 0 0)
(1.07374826e-06 0 0)
(1.12004697e-06 0 0)
(1.16827454e-06 0 0)
(1.21851006e-06 0 0)
(1.2708264e-06 0 0)
(1.32531097e-06 0 0)
(1.38205173e-06 0 0)
(1.44113927e-06 0 0)
(1.50265957e-06 0 0)
(1.56671565e-06 0 0)
(1.63340494e-06 0 0)
(1.70283161e-06 0 0)
(1.77510582e-06 0 0)
(1.85033777e-06 0 0)
(1.92864151e-06 0 0)
(2.0101394e-06 0 0)
(2.09495797e-06 0 0)
(2.18322723e-06 0 0)
(2.2750742e-06 0 0)
(2.37064526e-06 0 0)
(2.47008738e-06 0 0)
(2.5735426e-06 0 0)
(2.68117216e-06 0 0)
(2.79313249e-06 0 0)
(2.90959587e-06 0 0)
(3.03073134e-06 0 0)
(3.15672015e-06 0 0)
(3.28774981e-06 0 0)
(3.42401071e-06 0 0)
(3.56570405e-06 0 0)
(3.71303629e-06 0 0)
(3.86622152e-06 0 0)
(4.02548241e-06 0 0)
(4.1910482e-06 0 0)
(4.36316199e-06 0 0)
(4.54206525e-06 0 0)
(4.72801467e-06 0 0)
(4.92128068e-06 0 0)
(5.1221332e-06 0 0)
(5.33085563e-06 0 0)
(5.54774372e-06 0 0)
(5.77310405e-06 0 0)
(6.00725118e-06 0 0)
(6.25051067e-06 0 0)
(6.50322291e-06 0 0)
(6.76573463e-06 0 0)
(7.03841077e-06 0 0)
(7.32162491e-06 0 0)
(7.6157641e-06 0 0)
(7.92123252e-06 0 0)
(8.23844261e-06 0 0)
(8.5678254e-06 0 0)
(8.90982524e-06 0 0)
(9.26490226e-06 0 0)
(9.63352964e-06 0 0)
(1.00162026e-05 0 0)
(1.04134289e-05 0 0)
(1.08257321e-05 0 0)
(1.1253657e-05 0 0)
(1.1697767e-05 0 0)
(1.21586425e-05 0 0)
(1.26368851e-05 0 0)
(1.31331164e-05 0 0)
(1.36479761e-05 0 0)
(1.41821261e-05 0 0)
(1.47362576e-05 0 0)
(1.53110804e-05 0 0)
(1.59073168e-05 0 0)
(1.6525727e-05 0 0)
(1.71670966e-05 0 0)
(1.78322309e-05 0 0)
(1.85219593e-05 0 0)
(1.92371464e-05 0 0)
(1.99786823e-05 0 0)
(2.07474797e-05 0 0)
(2.15444904e-05 0 0)
(2.23706963e-05 0 0)
(2.3227102e-05 0 0)
(2.41147545e-05 0 0)
(2.50347255e-05 0 0)
(2.59881305e-05 0 0)
(2.69761139e-05 0 0)
(2.79998633e-05 0 0)
(2.90605939e-05 0 0)
(3.01595702e-05 0 0)
(3.12980884e-05 0 0)
(3.24774918e-05 0 0)
(3.36991617e-05 0 0)
(3.49645266e-05 0 0)
(3.62750562e-05 0 0)
(3.76322685e-05 0 0)
(3.90377268e-05 0 0)
(4.04930439e-05 0 0)
(4.19998824e-05 0 0)
(4.35599589e-05 0 0)
(4.51750367e-05 0 0)
(4.6846941e-05 0 0)
(4.85775423e-05 0 0)
(5.03687798e-05 0 0)
(5.22226464e-05 0 0)
(5.41411915e-05 0 0)
(5.61265368e-05 0 0)
(5.81808521e-05 0 0)
(6.03063884e-05 0 0)
(6.2505454e-05 0 0)
(6.47804351e-05 0 0)
(6.71337768e-05 0 0)
(6.95680043e-05 0 0)
(7.20857152e-05 0 0)
(7.46895911e-05 0 0)
(7.73823831e-05 0 0)
(8.01669177e-05 0 0)
(8.30461228e-05 0 0)
(8.60229957e-05 0 0)
(8.91006262e-05 0 0)
(9.22821895e-05 0 0)
(9.55709607e-05 0 0)
(9.89702997e-05 0 0)
(0.000102483667 0 0)
(0.000106114621 0 0)
(0.000109866822 0 0)
(0.00011374403 0 0)
(0.000117750118 0 0)
(0.000121889062 0 0)
(0.000126164949 0 0)
(0.000130581984 0 0)
(0.000135144488 0 0)
(0.000139856899 0 0)
(0.000144723778 0 0)
(0.000149749816 0 0)
(0.000154939829 0 0)
(0.000160298759 0 0)
(0.000165831693 0 0)
(0.000171543847 0 0)
(0.000177440585 0 0)
(0.000183527409 0 0)
(0.000189809971 0 0)
(0.000196294071 0 0)
(0.000202985667 0 0)
(0.00020989088 0 0)
(0.00021701597 0 0)
(0.000224367386 0 0)
(0.000231951737 0 0)
(0.000239775798 0 0)
(0.000247846526 0 0)
(0.000256171055 0 0)
(0.000264756705 0 0)
(0.000273610983 0 0)
(0.00028274158 0 0)
(0.000292156387 0 0)
(0.000301863503 0 0)
(0.000311871212 0 0)
(0.000322188024 0 0)
(0.000332822648 0 0)
(0.000343784014 0 0)
(0.000355081271 0 0)
(0.000366723796 0 0)
(0.000378721192 0 0)
(0.000391083295 0 0)
(0.000403820184 0 0)
(0.000416942172 0 0)
(0.000430459829 0 0)
(0.000444383975 0 0)
(0.000458725681 0 0)
(0.000473496283 0 0)
(0.000488707387 0 0)
(0.000504370869 0 0)
(0.000520498875 0 0)
(0.000537103837 0 0)
(0.000554198477 0 0)
(0.000571795802 0 0)
(0.000589909114 0 0)
(0.000608552023 0 0)
(0.00062773844 0 0)
(0.00064748259 0 0)
(0.000667799013 0 0)
(0.000688702571 0 0)
(0.000710208454 0 0)
(0.000732332183 0 0)
(0.000755089621 0 0)
(0.000778496963 0 0)
(0.000802570764 0 0)
(0.000827327924 0 0)
(0.000852785707 0 0)
(0.000878961735 0 0)
(0.000905874003 0 0)
(0.00093354088 0 0)
(0.000961981113 0 0)
(0.000991213834 0 0)
(0.00102125856 0 0)
(0.00105213523 0 0)
(0.00108386413 0 0)
(0.001116466 0 0)
(0.00114996197 0 0)
(0.00118437359 0 0)
(0.00121972284 0 0)
(0.00125603209 0 0)
(0.00129332418 0 0)
(0.00133162236 0 0)
(0.00137095035 0 0)
(0.00141133227 0 0)
(0.00145279273 0 0)
(0.00149535676 0 0)
(0.00153904988 0 0)
(0.00158389806 0 0)
(0.00162992772 0 0)
(0.00167716576 0 0)
(0.00172563958 0 0)
(0.00177537702 0 0)
(0.00182640643 0 0)
(0.00187875662 0 0)
(0.00193245693 0 0)
(0.00198753714 0 0)
(0.00204402757 0 0)
(0.00210195901 0 0)
(0.00216136277 0 0)
(0.00222227066 0 0)
(0.00228471498 0 0)
(0.00234872855 0 0)
(0.0024143447 0 0)
(0.00248159728 0 0)
(0.00255052064 0 0)
(0.00262114965 0 0)
(0.00269351969 0 0)
(0.00276766666 0 0)
(0.00284362698 0 0)
(0.00292143758 0 0)
(0.0030011359 0 0)
(0.00308275992 0 0)
(0.0031663481 0 0)
(0.00325193945 0 0)
(0.00333957345 0 0)
(0.00342929013 0 0)
(0.00352113 0 0)
(0.00361513408 0 0)
(0.00371134391 0 0)
(0.0038098015 0 0)
(0.00391054936 0 0)
(0.00401363051 0 0)
(0.00411908844 0 0)
(0.0042269671 0 0)
(0.00433731095 0 0)
(0.00445016489 0 0)
(0.0045655743 0 0)
(0.00468358498 0 0)
(0.00480424321 0 0)
(0.00492759568 0 0)
(0.00505368953 0 0)
(0.00518257229 0 0)
(0.00531429193 0 0)
(0.00544889677 0 0)
(0.00558643557 0 0)
(0.00572695741 0 0)
(0.00587051176 0 0)
(0.00601714843 0 0)
(0.00616691756 0 0)
(0.0063198696 0 0)
(0.0064760553 0 0)
(0.00663552571 0 0)
(0.00679833213 0 0)
(0.00696452611 0 0)
(0.00713415944 0 0)
(0.00730728411 0 0)
(0.00748395232 0 0)
(0.00766421639 0 0)
(0.00784812884 0 0)
(0.00803574229 0 0)
(0.00822710946 0 0)
(0.00842228313 0 0)
(0.00862131616 0 0)
(0.0088242614 0 0)
(0.00903117171 0 0)
(0.00924209992 0 0)
(0.00945709878 0 0)
(0.00967622095 0 0)
(0.00989951897 0 0)
(0.0101270452 0 0)
(0.0103588518 0 0)
(0.0105949908 0 0)
(0.0108355139 0 0)
(0.0110804723 0 0)
(0.0113299172 0 0)
(0.0115838993 0 0)
(0.0118424687 0 0)
(0.0121056753 0 0)
(0.0123735683 0 0)
(0.0126461965 0 0)
(0.0129236079 0 0)
(0.0132058502 0 0)
(0.0134929701 0 0)
(0.0137850136 0 0)
(0.0140820261 0 0)
(0.014384052 0 0)
(0.0146911347 0 0)
(0.0150033168 0 0)
(0.0153206398 0 0)
(0.015643145 0 0)
(0.0159708716 0 0)
(0.0163038575 0 0)
(0.0166421574 0 0)
)
;

boundaryField
{
    closed
    {
        type            noSlip;
    }
    open
    {
        type            inletOutlet;
        inletValue      nonuniform List<vector> 0();
        value           nonuniform List<vector> 0();
    }
    sides
    {
        type            empty;
    }
    procBoundary1to0
    {
        type            processor;
        value           uniform (1.57075279e-11 0 0);
    }
    procBoundary1to2
    {
        type            processor;
        value           uniform (0.0169857796 0 0);
    }
}


// ************************************************************************* //
