/*--------------------------------*- C++ -*----------------------------------*\
| =========                 |                                                 |
| \\      /  F ield         | OpenFOAM: The Open Source CFD Toolbox           |
|  \\    /   O peration     | Version:  2306                                  |
|   \\  /    A nd           | Website:  www.openfoam.com                      |
|    \\/     M anipulation  |                                                 |
\*---------------------------------------------------------------------------*/
FoamFile
{
    version     2.0;
    format      ascii;
    arch        "LSB;label=32;scalar=64";
    class       volScalarField;
    location    "0.00096";
    object      h;
}
// * * * * * * * * * * * * * * * * * * * * * * * * * * * * * * * * * * * * * //

dimensions      [0 2 -2 0 0 0 0];

internalField   nonuniform List<scalar> 
530
(
10011.8516
-3128.94457
-4437.90083
3607.38366
10119.2411
5425.52642
-4820.10013
-4811.39783
3978.17477
10127.4578
7311.76987
-5139.9393
-4114.09726
9862.19383
10008.8521
1209.86425
-4789.51934
-5063.08002
-2988.89126
9371.78139
10140.5833
9852.11773
9745.88538
1014.35287
-5397.7337
-3802.23903
7361.49964
9976.76912
2420.12534
-4599.61207
-4586.51333
-3406.48824
5958.20399
10031.1287
3470.33041
-5113.83037
-4042.19425
7335.45318
9884.23814
2410.49331
-5685.66468
-3742.59882
8627.24326
10068.4021
9762.12676
9630.9082
1091.16339
-4946.81643
-4358.25159
-3289.50051
4951.79993
9999.65764
3365.52896
-4707.5369
-4426.09799
-2949.80636
3191.4584
10273.7931
8067.56142
-5011.41461
-4994.07214
3894.51736
10281.8174
8314.21255
-3168.64268
-177.751259
10016.5792
5143.33299
-5200.37763
-4965.66589
3201.58849
10096.2323
7579.17146
-3782.90821
-536.878734
9986.0571
5561.76701
-3818.88028
1084.25254
9658.10505
3266.90145
-5338.67054
-4614.59235
4622.64328
9884.53688
5085.99018
-3533.86191
1899.18788
9580.54157
2472.10265
-5500.04237
-4343.74441
6406.73045
9664.09905
2273.75939
-3441.6647
3996.92875
9705.3465
1585.86229
-3220.7503
5353.26481
9470.54573
267.218311
-5689.50878
-2598.65859
9033.32782
9507.58371
-363.645532
-5557.19132
-2070.35594
9357.76419
9478.77642
-933.183663
-5660.89779
-2055.97133
9539.90248
9689.07375
-1516.61613
-2557.92143
8482.67927
9528.46505
-1377.32786
-5738.39573
-1802.90285
9608.03635
9524.65365
-1237.67176
-5391.88067
-1298.64445
9761.24559
9502.26327
-1362.39201
-5342.56911
-1197.033
9767.33924
9407.78641
-1837.74824
-5516.2576
-1462.97257
9798.89464
9644.13396
-2031.058
-2411.37465
8810.28749
9482.61887
-1546.71905
-5575.82575
-1315.70759
9803.07152
9420.41544
-2141.81237
-5532.20221
-1442.6634
9837.79533
9629.49116
-2270.32425
-2494.18466
8959.6351
9521.72738
-1683.18395
-5638.31364
-1440.60223
9812.90205
9506.09424
-2107.64687
-5525.5761
-1415.56299
9898.60343
9477.15741
-2668.40168
-2546.8114
9324.14565
9589.81156
-1671.39511
-5533.49831
-1154.05276
9871.69672
9701.38172
-1277.32584
-4666.05301
-171.614571
10146.2284
9843.81166
-467.983267
-4027.94818
-3264.52706
-3265.46526
-2940.50556
3239.65585
10421.545
8991.40301
-2707.04787
-1976.36168
9714.9512
9036.72321
-3067.91188
-2342.60886
9514.39879
9116.33662
-4203.70874
-6257.75967
-1258.21258
9735.74836
8617.97152
-3686.72765
-2687.22312
9730.58718
8527.73823
-3768.42998
-2424.51345
9755.99961
8861.21934
-5238.36074
-6081.35662
42.3502669
9798.43918
8236.00864
-3928.24096
-2349.257
9868.08323
8297.60605
-3813.0236
-2047.93341
9708.55934
8366.75992
-5808.09236
-5800.4057
3503.04255
9742.66472
4794.80404
-3951.11128
-599.706717
9838.96599
7214.24171
-3707.12037
-1210.60376
9763.56267
7904.67759
-5606.86763
-5501.88515
5744.455
9756.2214
2609.70764
-3583.51684
992.561923
9882.72118
7795.23058
-5109.58684
-5085.74104
5368.63138
9773.48469
3638.53476
-5174.88761
-4124.76262
6520.76993
9859.83007
2097.29257
-3147.4628
2258.67991
9908.15153
6635.86233
-4651.8032
-4402.52687
6387.78937
9855.08035
3445.21926
-4857.11886
-3752.93208
6636.62959
9892.07577
3420.83412
-4749.55341
-3743.84349
6669.40059
9821.55628
3257.42873
-4776.13771
-3853.26383
6658.34038
9714.18965
2917.71416
-4837.97327
-3908.97823
7012.71954
9700.74997
1751.71681
-2695.84934
3417.01912
9510.36712
5182.41929
-4222.5148
-4290.30473
6088.6243
9518.85365
3896.76373
-4150.19508
-4201.14917
6000.88997
9473.7069
4374.42714
-3842.51322
-4100.27359
5290.17674
9369.97544
5011.93459
-3481.23588
-4009.52278
4523.2117
9246.70549
5642.57974
-3049.63952
-3911.34437
3739.43465
9046.25562
5885.71812
-2852.04298
-3956.9233
2859.05628
8783.04179
6232.62578
-2923.87601
-4291.47397
1023.50984
8678.8205
9884.70147
6032.54044
-2874.69186
-4621.24921
73.7384055
8066.0437
7611.86793
-1970.9572
-4292.78812
-460.269796
7922.8923
8041.16827
-1447.30947
-4224.20441
-911.195981
7802.90593
7483.00781
-428.901345
-290.458514
7883.08842
8248.50005
-974.29493
-4151.55432
-1649.15378
7760.22322
8129.80216
417.817173
-241.002413
7650.27865
8700.27437
-165.662643
-3868.30105
-3706.27346
-3922.01996
-2575.17582
7851.94325
8647.54178
171.080763
-1179.50045
7336.86086
9083.63563
-647.296993
-5130.14742
-3732.57633
7906.961
8828.57794
-1082.69164
-3031.3779
7105.70059
8953.48577
-1710.81069
-3540.52566
7065.51059
9004.12264
-2049.65244
-3849.6453
7227.40905
9111.39284
-2362.36838
-3926.18943
7647.17315
9201.62907
-2639.66014
-3731.16156
8016.04662
9174.73089
-2553.52935
-3252.335
8123.10056
8991.70059
-1919.85616
-5911.38459
-4400.33017
8533.7517
8780.86781
-1533.07045
-2888.16249
7022.74296
8575.6852
-1216.12361
-2755.29106
6620.97338
8413.99899
-868.753004
-2440.70714
6385.85729
8331.49362
-384.524684
-5408.26101
-3832.43681
6295.84754
8145.60798
14.3293352
-2326.24837
5627.15005
8091.59478
136.095245
-2193.26532
5502.50034
8138.95675
614.810722
-1689.88097
5565.5788
8306.8927
1030.98908
-4794.96297
-3163.77316
5498.8374
9921.5558
8960.50798
1846.57244
-4403.11286
-4317.13788
-4350.46547
-3315.3378
4626.07434
9827.96731
8901.76432
2026.40288
-763.23535
4569.74042
8598.87204
2572.01715
-4654.59306
-3491.33442
4949.08096
8431.48018
2839.28963
-1277.43595
4155.3883
8892.99357
3797.54207
-4240.60573
-3197.77869
5000.35593
9013.35433
4543.64169
-4048.23
-3230.11045
4772.6552
9150.72041
5133.00845
-4052.26354
-3401.21211
4396.66895
9248.37488
5665.49634
-4204.18659
-3725.9078
3903.9895
9303.12954
6144.15381
-4474.17546
-4137.13247
3354.66176
9331.53859
6630.07987
-4847.43158
-4699.71775
2818.74376
9064.7769
4599.87131
-2630.41777
1567.54052
9394.74883
6769.98096
-5194.34228
-5226.67874
2248.10594
9147.31045
4715.88235
-2989.00476
1479.84218
9346.39115
4589.18695
-2766.20336
1655.81266
9623.66417
6783.5475
-4654.89108
-4870.33622
2541.46778
9661.78721
7250.79659
-4341.42071
-4704.52876
2868.5006
9777.48812
7222.34995
-4204.86221
-4659.0841
3081.57052
9842.81948
7149.49941
-4154.7311
-4563.01913
3319.46896
9875.59668
7189.18059
-4148.61287
-4443.99725
3550.15966
9860.20288
7022.86353
-4299.42592
-4456.92863
)
;

boundaryField
{
    closed
    {
        type            lookUpEnthalpy;
        h0              nonuniform List<scalar> 0();
        value           nonuniform List<scalar> 0();
    }
    open
    {
        type            zeroGradient;
    }
    sides
    {
        type            empty;
    }
    procBoundary2to1
    {
        type            processor;
        value           uniform 10219.7931;
    }
    procBoundary2to3
    {
        type            processor;
        value           uniform 3683.19666;
    }
}


// ************************************************************************* //
