/*--------------------------------*- C++ -*----------------------------------*\
| =========                 |                                                 |
| \\      /  F ield         | OpenFOAM: The Open Source CFD Toolbox           |
|  \\    /   O peration     | Version:  2306                                  |
|   \\  /    A nd           | Website:  www.openfoam.com                      |
|    \\/     M anipulation  |                                                 |
\*---------------------------------------------------------------------------*/
FoamFile
{
    version     2.0;
    format      ascii;
    arch        "LSB;label=32;scalar=64";
    class       volScalarField;
    location    "0.00096";
    object      mu;
}
// * * * * * * * * * * * * * * * * * * * * * * * * * * * * * * * * * * * * * //

dimensions      [1 -1 -1 0 0 0 0];

internalField   nonuniform List<scalar> 
530
(
2.03147111e-05
1.96793139e-05
1.95548228e-05
1.98494515e-05
2.02889442e-05
1.99715567e-05
1.95173439e-05
1.95176753e-05
1.98627624e-05
2.02761891e-05
2.01628077e-05
1.94856066e-05
1.95854112e-05
2.0312107e-05
2.02807588e-05
1.9783902e-05
1.95202033e-05
1.94920638e-05
1.96926075e-05
2.02978154e-05
2.02910079e-05
2.02936253e-05
2.0280429e-05
1.97736324e-05
1.94570491e-05
1.96154862e-05
2.01317627e-05
2.0289952e-05
1.98068388e-05
1.95392492e-05
1.95399101e-05
1.96535294e-05
1.99918655e-05
2.02788053e-05
1.98456451e-05
1.94865304e-05
1.95930151e-05
2.01261281e-05
2.02683316e-05
1.98045199e-05
1.94254541e-05
1.96210202e-05
2.02520633e-05
2.02869132e-05
2.02692117e-05
2.02740642e-05
1.97725773e-05
1.95048956e-05
1.95627987e-05
1.96646695e-05
1.9918776e-05
2.02821166e-05
1.98420701e-05
1.95288712e-05
1.95557156e-05
1.96965464e-05
1.98330602e-05
2.02911446e-05
2.02496276e-05
1.94980737e-05
1.94981143e-05
1.98581161e-05
2.02805758e-05
2.02510652e-05
1.96766325e-05
1.97791165e-05
2.0286306e-05
1.99580903e-05
1.94805748e-05
1.95026187e-05
1.98331328e-05
2.02881833e-05
2.02382647e-05
1.96178283e-05
1.97825841e-05
2.02936582e-05
1.99975729e-05
1.96143514e-05
1.97807382e-05
2.02837948e-05
1.98397196e-05
1.94668357e-05
1.95380948e-05
1.98943491e-05
2.02819308e-05
1.9961033e-05
1.9641812e-05
1.97940622e-05
2.02737044e-05
1.98049851e-05
1.94494142e-05
1.95643514e-05
2.00251706e-05
2.0277695e-05
1.97983512e-05
1.96503413e-05
1.98696123e-05
2.02794022e-05
1.97783573e-05
1.96712217e-05
1.995361e-05
2.02620179e-05
1.97550307e-05
1.94258481e-05
1.97255372e-05
2.02776227e-05
2.02591136e-05
1.97642806e-05
1.94390502e-05
1.97427845e-05
2.02944867e-05
2.02608422e-05
1.97600937e-05
1.94292144e-05
1.97359841e-05
2.03000492e-05
2.02820471e-05
1.9790726e-05
1.97330278e-05
2.02551087e-05
2.02638657e-05
1.97644431e-05
1.94229695e-05
1.97436544e-05
2.03080719e-05
2.0270466e-05
1.97600277e-05
1.94581703e-05
1.97503212e-05
2.03101137e-05
2.02699591e-05
1.97590906e-05
1.94633296e-05
1.97506716e-05
2.03125863e-05
2.02712259e-05
1.97565647e-05
1.94456378e-05
1.97423664e-05
2.03052867e-05
2.02897129e-05
1.97864097e-05
1.97469396e-05
2.02827742e-05
2.02706944e-05
1.97686666e-05
1.94399833e-05
1.97502884e-05
2.03130286e-05
2.02791813e-05
1.97593032e-05
1.94439123e-05
1.97458718e-05
2.03036438e-05
2.02912023e-05
1.97638694e-05
1.9739621e-05
2.02903974e-05
2.02742478e-05
1.97692708e-05
1.94333646e-05
1.9751681e-05
2.03124029e-05
2.02852383e-05
1.97590533e-05
1.94449816e-05
1.9749324e-05
2.03033739e-05
2.02910521e-05
1.97251638e-05
1.97348098e-05
2.03109442e-05
2.0279709e-05
1.97609306e-05
1.94445375e-05
1.97505815e-05
2.03155048e-05
2.02925969e-05
1.97562583e-05
1.95317873e-05
1.97610061e-05
2.03104265e-05
2.02912933e-05
1.97627356e-05
1.9594143e-05
1.96668639e-05
1.96674796e-05
1.969691e-05
1.98340311e-05
2.03034333e-05
2.02734972e-05
1.97199008e-05
1.97801267e-05
2.03137446e-05
2.02682323e-05
1.96866316e-05
1.97551311e-05
2.03119173e-05
2.02742863e-05
1.95771399e-05
1.9367889e-05
1.97645041e-05
2.02895891e-05
2.02665092e-05
1.96271749e-05
1.97237686e-05
2.03013665e-05
2.02466335e-05
1.96192676e-05
1.9749002e-05
2.03024399e-05
2.0262261e-05
1.94746502e-05
1.93845407e-05
1.97783409e-05
2.02819995e-05
2.02558847e-05
1.96035727e-05
1.97570569e-05
2.0295304e-05
2.02385153e-05
1.96149253e-05
1.97855639e-05
2.02997634e-05
2.02433544e-05
1.94188503e-05
1.94153678e-05
1.984411e-05
2.02740036e-05
1.99290697e-05
1.96014107e-05
1.97752605e-05
2.0293491e-05
2.01465563e-05
1.96252076e-05
1.97957968e-05
2.02987002e-05
2.02327733e-05
1.94386769e-05
1.9445543e-05
1.99745183e-05
2.027178e-05
1.98111199e-05
1.96371644e-05
1.97836064e-05
2.02949011e-05
2.02258933e-05
1.94877475e-05
1.94876528e-05
1.99468374e-05
2.02758835e-05
1.98549856e-05
1.94802695e-05
1.95851249e-05
2.00413496e-05
2.02911727e-05
1.97978515e-05
1.96789388e-05
1.98035148e-05
2.0295265e-05
2.00764856e-05
1.95326011e-05
1.95571583e-05
2.00334801e-05
2.02864257e-05
1.98432316e-05
1.95112027e-05
1.96206382e-05
2.00554632e-05
2.02945963e-05
1.98416198e-05
1.9522126e-05
1.96215507e-05
2.00635303e-05
2.02940658e-05
1.98349583e-05
1.95195666e-05
1.96110979e-05
2.00684933e-05
2.02935101e-05
1.98223116e-05
1.95129922e-05
1.96057602e-05
2.01059503e-05
2.03003997e-05
1.97925779e-05
1.97218102e-05
1.98430609e-05
2.02780916e-05
1.99404917e-05
1.95749123e-05
1.95683553e-05
2.00212442e-05
2.02804947e-05
1.98615755e-05
1.9581767e-05
1.95769547e-05
2.00128719e-05
2.02771043e-05
1.98838936e-05
1.96120236e-05
1.95868189e-05
1.99585024e-05
2.02696942e-05
1.99190231e-05
1.9646974e-05
1.95957163e-05
1.99070109e-05
2.02611444e-05
1.99592295e-05
1.96877337e-05
1.96052671e-05
1.98618518e-05
2.02488574e-05
1.99768939e-05
1.97059344e-05
1.96007874e-05
1.98201562e-05
2.02336113e-05
2.00043572e-05
1.96983805e-05
1.95685456e-05
1.97682157e-05
2.02059201e-05
2.02929786e-05
1.99859908e-05
1.97017641e-05
1.95355096e-05
1.97538858e-05
2.01823684e-05
2.01345948e-05
1.97473428e-05
1.95676872e-05
1.97553747e-05
2.01677859e-05
2.01758175e-05
1.97438495e-05
1.9574199e-05
1.97541663e-05
2.01589282e-05
2.0133862e-05
1.97716677e-05
1.97740858e-05
2.01682913e-05
2.02002657e-05
1.97436004e-05
1.95811298e-05
1.97659207e-05
2.01471163e-05
2.02002835e-05
1.97758511e-05
1.97845178e-05
2.01323181e-05
2.02318976e-05
1.97553234e-05
1.96094044e-05
1.96251847e-05
1.96040196e-05
1.97342289e-05
2.01568626e-05
2.02463802e-05
1.97726652e-05
1.97916154e-05
2.01119522e-05
2.02600411e-05
1.97469362e-05
1.9480843e-05
1.96226779e-05
2.01694715e-05
2.02684677e-05
1.97651116e-05
1.9690961e-05
2.01057229e-05
2.02736752e-05
1.9759581e-05
1.96413765e-05
2.01080181e-05
2.02725031e-05
1.97609066e-05
1.96113382e-05
2.01260698e-05
2.02691415e-05
1.97520392e-05
1.96040673e-05
2.01695512e-05
2.02596761e-05
1.97276524e-05
1.96227745e-05
2.02102545e-05
2.02501982e-05
1.97363962e-05
1.9668478e-05
2.0220674e-05
2.02273061e-05
1.97715316e-05
1.9402209e-05
1.95589053e-05
2.02306568e-05
2.0230855e-05
1.97779193e-05
1.97029469e-05
2.010173e-05
2.02285044e-05
1.9763727e-05
1.97159024e-05
2.00677795e-05
2.02231176e-05
1.97600054e-05
1.97460655e-05
2.00460717e-05
2.02142186e-05
1.97550494e-05
1.94559012e-05
1.96129893e-05
2.00238998e-05
2.02160711e-05
1.97593249e-05
1.975706e-05
1.99867512e-05
2.02186759e-05
1.97581468e-05
1.97696431e-05
1.99755279e-05
2.02200376e-05
1.97645516e-05
1.97821317e-05
1.99750049e-05
2.02219894e-05
1.9765611e-05
1.95174996e-05
1.96757675e-05
1.9948824e-05
2.02938275e-05
2.02253753e-05
1.97868257e-05
1.95569018e-05
1.9566058e-05
1.9563187e-05
1.96623886e-05
1.9900514e-05
2.02976372e-05
2.02331521e-05
1.97921744e-05
1.97699263e-05
1.98996953e-05
2.02460101e-05
1.98089336e-05
1.95308624e-05
1.96460231e-05
1.99223316e-05
2.02370821e-05
1.98194782e-05
1.97789626e-05
1.98752154e-05
2.02624111e-05
1.98672551e-05
1.95721112e-05
1.96744445e-05
1.99178084e-05
2.0260756e-05
1.99127026e-05
1.9591189e-05
1.96714251e-05
1.99038837e-05
2.02674201e-05
1.99528376e-05
1.95907753e-05
1.96549398e-05
1.98834706e-05
2.02722948e-05
1.99937407e-05
1.95756281e-05
1.96231665e-05
1.98603199e-05
2.0276032e-05
2.00356574e-05
1.95485725e-05
1.95822384e-05
1.98381133e-05
2.02774694e-05
2.00829967e-05
1.9510569e-05
1.9525109e-05
1.9818854e-05
2.02644491e-05
1.99216922e-05
1.97284383e-05
1.97894014e-05
2.02915524e-05
2.0090022e-05
1.94766707e-05
1.94716185e-05
1.98009597e-05
2.02668062e-05
1.99289517e-05
1.96942109e-05
1.9783713e-05
2.0283287e-05
1.99161998e-05
1.97148436e-05
1.97923041e-05
2.02932555e-05
2.00862256e-05
1.95322041e-05
1.95091524e-05
1.98122552e-05
2.02828722e-05
2.01385032e-05
1.9563067e-05
1.95255727e-05
1.98217827e-05
2.02829275e-05
2.01349223e-05
1.95766967e-05
1.95303803e-05
1.98285499e-05
2.02826207e-05
2.0126101e-05
1.95816832e-05
1.95401766e-05
1.98367673e-05
2.02821264e-05
2.01296007e-05
1.95822825e-05
1.9552074e-05
1.98454013e-05
2.02808471e-05
2.01104457e-05
1.95676202e-05
1.95510351e-05
)
;

boundaryField
{
    closed
    {
        type            calculated;
        value           nonuniform List<scalar> 0();
    }
    open
    {
        type            calculated;
        value           nonuniform List<scalar> 0();
    }
    sides
    {
        type            empty;
    }
    procBoundary2to1
    {
        type            processor;
        value           uniform 2.03078014e-05;
    }
    procBoundary2to3
    {
        type            processor;
        value           uniform 1.98511468e-05;
    }
}


// ************************************************************************* //
