/*--------------------------------*- C++ -*----------------------------------*\
| =========                 |                                                 |
| \\      /  F ield         | OpenFOAM: The Open Source CFD Toolbox           |
|  \\    /   O peration     | Version:  2306                                  |
|   \\  /    A nd           | Website:  www.openfoam.com                      |
|    \\/     M anipulation  |                                                 |
\*---------------------------------------------------------------------------*/
FoamFile
{
    version     2.0;
    format      ascii;
    arch        "LSB;label=32;scalar=64";
    class       volScalarField;
    location    "0.00096";
    object      prefDh_T;
}
// * * * * * * * * * * * * * * * * * * * * * * * * * * * * * * * * * * * * * //

dimensions      [1 1 -3 -1 0 0 0];

internalField   nonuniform List<scalar> 
530
(
-0.000751340541
-0.000573006724
-0.000530194424
-0.000604496775
-0.000742083654
-0.000638705502
-0.000517301888
-0.000517559848
-0.000608541333
-0.000737514151
-0.000699250346
-0.000506346924
-0.00054136527
-0.000750438519
-0.000739175885
-0.000593303026
-0.00051833351
-0.000508810839
-0.000577661179
-0.000745416241
-0.00074281825
-0.000743817402
-0.000739113168
-0.000589596861
-0.000496836721
-0.000550619088
-0.000688922282
-0.000742475215
-0.000595080942
-0.000524750014
-0.000525226586
-0.000564268754
-0.000644943835
-0.000738471618
-0.000602936776
-0.000506968168
-0.000543229286
-0.000687088788
-0.000734753449
-0.000593468948
-0.000486050636
-0.000552486702
-0.00072917838
-0.000741367143
-0.00073509404
-0.000736858057
-0.000588511168
-0.000512987385
-0.000532731157
-0.000568160272
-0.00062336122
-0.000739664071
-0.000601719248
-0.000521115326
-0.000530640875
-0.00057912018
-0.000602391925
-0.000742838118
-0.000728403804
-0.000510724287
-0.000511065595
-0.000607695038
-0.000739051056
-0.000728876371
-0.000572564825
-0.00059910211
-0.000741160785
-0.000634564925
-0.000504414758
-0.000512296222
-0.000602172976
-0.000741816071
-0.000724418973
-0.000552021855
-0.000602428081
-0.000743800905
-0.000646648701
-0.000550728282
-0.000592606021
-0.000740336503
-0.000600610833
-0.000499669902
-0.000524209035
-0.00061677273
-0.000739621959
-0.000635402202
-0.000560550576
-0.000593156679
-0.000736739505
-0.000591981104
-0.000493834959
-0.000533039152
-0.000655149187
-0.000738151085
-0.000591028224
-0.00056326298
-0.000609477262
-0.000738753857
-0.000587309885
-0.000570451744
-0.00063339623
-0.000732579153
-0.000585619228
-0.000486116256
-0.000588154725
-0.000738249613
-0.000731532539
-0.000593461228
-0.000490756917
-0.000592587805
-0.000744226459
-0.000732156827
-0.000594539958
-0.000487249446
-0.000589604172
-0.000746183105
-0.000739704295
-0.000610509321
-0.00059166626
-0.000730293351
-0.000733228703
-0.000598598423
-0.000484909532
-0.000591680635
-0.000749044472
-0.000735591649
-0.000596015091
-0.000497160648
-0.000592097014
-0.000749744981
-0.000735414721
-0.000596214141
-0.000498931925
-0.000591742902
-0.000750630097
-0.000735887033
-0.000597389556
-0.000492792411
-0.000589454948
-0.000748007052
-0.000742458936
-0.000611147596
-0.000596538051
-0.000740135632
-0.000735681851
-0.000601214576
-0.000490780347
-0.000592167416
-0.000750781224
-0.000738732505
-0.000599967801
-0.00049220439
-0.000590877154
-0.000747410141
-0.000742995434
-0.000603408194
-0.000594119529
-0.000742838041
-0.000736945957
-0.000602107364
-0.000488507545
-0.000593386579
-0.000750554883
-0.000740884286
-0.000599704728
-0.000492530226
-0.000592241925
-0.000747300672
-0.000742972409
-0.000589756435
-0.000592489588
-0.000750130621
-0.000738887369
-0.000598479425
-0.000492333159
-0.000591487724
-0.000751654687
-0.000743480287
-0.000594572684
-0.000522512682
-0.000590952818
-0.000749775677
-0.000742983728
-0.000593322528
-0.00054415005
-0.000568835404
-0.000569438711
-0.00057906904
-0.000601880218
-0.000747208511
-0.000736780656
-0.000587376389
-0.000608061071
-0.000751056116
-0.000734887684
-0.000576239725
-0.000599834487
-0.000750441752
-0.000737039397
-0.000538189084
-0.000465834373
-0.000598054382
-0.000742395765
-0.000734348198
-0.000555792406
-0.000589435339
-0.000746616281
-0.000727254297
-0.000552955526
-0.000598211752
-0.000746995687
-0.000732783746
-0.000502744209
-0.000471763758
-0.000597607506
-0.000739664578
-0.000730613508
-0.000547703295
-0.000601295055
-0.000744415441
-0.000724391921
-0.00055149213
-0.000611060767
-0.000746046376
-0.00072611003
-0.00048316781
-0.000482379213
-0.000603544349
-0.000736813348
-0.00062591065
-0.000546886191
-0.000599526603
-0.000743772036
-0.000693933459
-0.000554998755
-0.000611298178
-0.00074565407
-0.000722404998
-0.000490107302
-0.000492934061
-0.000639702973
-0.000736014533
-0.000594913362
-0.000559171274
-0.000594590931
-0.000744268053
-0.000719964069
-0.000507253753
-0.000507623767
-0.000631477966
-0.000737479929
-0.000605158198
-0.000504813675
-0.00054051112
-0.000660194252
-0.000742937187
-0.000593336698
-0.000573524423
-0.000594987063
-0.000744393041
-0.000671376127
-0.000522962375
-0.000531509703
-0.000657757915
-0.00074123786
-0.000602681974
-0.000515733166
-0.000552902051
-0.000664626565
-0.000744156869
-0.000602506439
-0.000519500769
-0.000553290468
-0.000667189806
-0.000743981604
-0.000600920225
-0.000518590555
-0.000549696029
-0.000668788491
-0.000743804758
-0.000598055489
-0.000516380228
-0.000547913391
-0.000680718457
-0.000746275992
-0.000593657343
-0.000588322669
-0.000602314976
-0.000738324329
-0.000629526542
-0.000537647884
-0.000535328083
-0.000653989814
-0.000739183044
-0.000607771511
-0.000540153058
-0.000538384012
-0.000651391314
-0.00073797822
-0.000613770403
-0.000550544606
-0.000541822497
-0.000634776165
-0.000735346314
-0.000623526554
-0.000562476839
-0.000544898848
-0.000619545894
-0.00073231093
-0.000635196049
-0.000576311875
-0.000548251582
-0.00060681318
-0.000727954305
-0.000640448298
-0.000582436645
-0.000546718281
-0.000596143425
-0.000722552748
-0.000648746975
-0.000579549387
-0.000535238902
-0.000586818414
-0.000712679912
-0.000743578863
-0.000643184085
-0.000580355335
-0.000524004145
-0.000586280401
-0.000705047928
-0.000689639262
-0.000594068287
-0.000535276718
-0.000589996565
-0.000700334386
-0.000702888015
-0.000590021576
-0.000537642878
-0.000591827459
-0.000697509333
-0.000689511145
-0.000597083636
-0.000597445594
-0.000700542592
-0.000710840394
-0.000587497144
-0.000540156518
-0.000600515079
-0.000693636163
-0.000710976662
-0.000594408011
-0.000601816577
-0.000688854999
-0.000721955429
-0.000588342276
-0.000549759008
-0.000554623199
-0.000547988702
-0.00059295923
-0.000696775949
-0.000727142309
-0.000594342205
-0.000609365398
-0.000682438758
-0.000731947632
-0.000587234521
-0.000505552249
-0.000554344489
-0.000700911469
-0.000735010815
-0.000597468042
-0.00057826633
-0.000680578091
-0.000736851505
-0.000598085853
-0.000560934189
-0.000681356973
-0.000736422411
-0.000600227086
-0.000550293201
-0.000687156424
-0.000735198846
-0.000598435275
-0.000547484113
-0.00070119217
-0.000731794343
-0.000590525528
-0.000553735399
-0.000714448503
-0.000728409182
-0.000593746458
-0.000569633531
-0.000718045974
-0.000720260489
-0.000604156149
-0.000477931385
-0.000531236124
-0.000721541944
-0.00072156807
-0.000605115624
-0.00058155205
-0.000679333688
-0.000720765305
-0.000597514789
-0.00058617934
-0.000668577952
-0.000718869159
-0.000594177239
-0.000596752654
-0.000661740016
-0.000715704797
-0.000589438737
-0.000496446916
-0.0005501288
-0.000654779466
-0.000716398092
-0.000589137903
-0.000600609367
-0.000643343959
-0.000717337504
-0.000587880033
-0.000604971943
-0.000639922593
-0.000717815979
-0.000587900743
-0.000607627192
-0.000639787815
-0.000718484694
-0.000585429346
-0.000517909665
-0.000571670244
-0.000632143238
-0.000743875237
-0.000719576482
-0.000589464452
-0.000531490971
-0.000534367813
-0.000533155862
-0.000567464472
-0.000618163402
-0.000745259785
-0.000722366623
-0.000590610288
-0.00059799878
-0.000617827813
-0.000727018723
-0.000593307256
-0.000522702476
-0.000562176118
-0.00062428634
-0.000723856442
-0.000595825138
-0.000604382313
-0.000611221378
-0.000732831549
-0.000608102752
-0.000537083116
-0.000572189684
-0.000623197172
-0.000732216773
-0.000621078699
-0.000543732542
-0.000571226624
-0.000619320329
-0.000734575214
-0.000633017811
-0.000543594557
-0.000565637762
-0.000613783843
-0.000736301038
-0.000645482651
-0.000538343068
-0.000554748848
-0.000607753849
-0.000737628138
-0.00065851245
-0.000528951408
-0.000540665807
-0.000602359791
-0.000738137186
-0.000673486473
-0.000515791243
-0.000520929285
-0.000597239509
-0.000733528484
-0.000623609409
-0.00059076445
-0.000593472786
-0.000743168016
-0.000675685984
-0.000503797092
-0.000502255609
-0.000593465285
-0.000734356161
-0.000625782384
-0.00057888581
-0.000591207015
-0.000740217269
-0.000622091927
-0.000585803508
-0.000594291414
-0.000743732117
-0.000674445434
-0.000522848578
-0.000515148936
-0.000597133012
-0.000740005369
-0.000691238086
-0.000533603775
-0.000520916277
-0.000599009044
-0.000740001285
-0.000690078289
-0.000538238682
-0.000522541299
-0.000600393787
-0.00073987777
-0.000687227569
-0.00053991966
-0.000525911318
-0.000602239256
-0.000739693893
-0.000688349334
-0.000540126405
-0.000530046466
-0.000604202649
-0.000739239007
-0.00068218171
-0.00053499644
-0.000529616534
)
;

boundaryField
{
    closed
    {
        type            calculated;
        value           nonuniform List<scalar> 0();
    }
    open
    {
        type            calculated;
        value           nonuniform List<scalar> 0();
    }
    sides
    {
        type            empty;
    }
    procBoundary2to1
    {
        type            processor;
        value           uniform -0.000748818711;
    }
    procBoundary2to3
    {
        type            processor;
        value           uniform -0.000605398185;
    }
}


// ************************************************************************* //
