/*--------------------------------*- C++ -*----------------------------------*\
| =========                 |                                                 |
| \\      /  F ield         | OpenFOAM: The Open Source CFD Toolbox           |
|  \\    /   O peration     | Version:  2306                                  |
|   \\  /    A nd           | Website:  www.openfoam.com                      |
|    \\/     M anipulation  |                                                 |
\*---------------------------------------------------------------------------*/
FoamFile
{
    version     2.0;
    format      ascii;
    arch        "LSB;label=32;scalar=64";
    class       volScalarField;
    location    "0.00062";
    object      prefDZ_T;
}
// * * * * * * * * * * * * * * * * * * * * * * * * * * * * * * * * * * * * * //

dimensions      [1 -1 -1 -1 0 0 0];

internalField   nonuniform List<scalar> 
530
(
-1.11647208e-10
-1.11332866e-10
-1.1108233e-10
-1.10779819e-10
-1.10534708e-10
-1.102466e-10
-1.10005209e-10
-1.09734469e-10
-1.09504409e-10
-1.09254785e-10
-1.09027581e-10
-1.08791293e-10
-1.08566707e-10
-1.08343033e-10
-1.08120935e-10
-1.07909111e-10
-1.0768946e-10
-1.0748869e-10
-1.07271522e-10
-1.07080981e-10
-1.06866404e-10
-1.06685239e-10
-1.0647375e-10
-1.06308348e-10
-1.06107992e-10
-1.05949715e-10
-1.05752211e-10
-1.05600283e-10
-1.05406093e-10
-1.05259676e-10
-1.05070419e-10
-1.0492796e-10
-1.04743883e-10
-1.04605069e-10
-1.04424362e-10
-1.04287215e-10
-1.04112463e-10
-1.03976658e-10
-1.03807439e-10
-1.03670637e-10
-1.03505951e-10
-1.03369871e-10
-1.03210859e-10
-1.03077854e-10
-1.02930956e-10
-1.02800959e-10
-1.0265905e-10
-1.02529308e-10
-1.02392184e-10
-1.02262723e-10
-1.02130167e-10
-1.0200103e-10
-1.01872818e-10
-1.0174406e-10
-1.01619964e-10
-1.01491649e-10
-1.01371445e-10
-1.01243638e-10
-1.01127108e-10
-1.00999875e-10
-1.00886805e-10
-1.00760211e-10
-1.00650399e-10
-1.00524507e-10
-1.00417757e-10
-1.00292628e-10
-1.0018875e-10
-1.00064445e-10
-9.99632558e-11
-9.98398326e-11
-9.97411555e-11
-9.96186727e-11
-9.95223346e-11
-9.94025235e-11
-9.9313012e-11
-9.91974688e-11
-9.91097643e-11
-9.89951325e-11
-9.89091118e-11
-9.87954723e-11
-9.87110222e-11
-9.85984488e-11
-9.85154693e-11
-9.84040257e-11
-9.83224337e-11
-9.82121708e-11
-9.81319026e-11
-9.80228564e-11
-9.7943869e-11
-9.78360603e-11
-9.77583304e-11
-9.7651767e-11
-9.75752862e-11
-9.74699708e-11
-9.73947361e-11
-9.72906838e-11
-9.72166841e-11
-9.71139254e-11
-9.7041144e-11
-9.69413871e-11
-9.68667936e-11
-9.67654858e-11
-9.66921422e-11
-9.65909388e-11
-9.65178864e-11
-9.64185148e-11
-9.6345712e-11
-9.62481985e-11
-9.61756467e-11
-9.60799811e-11
-9.60077039e-11
-9.59138546e-11
-9.58418834e-11
-9.57498133e-11
-9.56781811e-11
-9.5587853e-11
-9.55165913e-11
-9.54279681e-11
-9.53571049e-11
-9.527015e-11
-9.5199708e-11
-9.51160033e-11
-9.5049695e-11
-9.49705423e-11
-9.49045818e-11
-9.48267687e-11
-9.47611871e-11
-9.4684697e-11
-9.46195267e-11
-9.45443407e-11
-9.44796146e-11
-9.44056685e-11
-9.43409428e-11
-9.42678931e-11
-9.42038897e-11
-9.4132282e-11
-9.40690232e-11
-9.39988255e-11
-9.39363328e-11
-9.38675139e-11
-9.38058081e-11
-9.37383378e-11
-9.3677439e-11
-9.3611288e-11
-9.35512154e-11
-9.34863555e-11
-9.34271275e-11
-9.33635314e-11
-9.33051654e-11
-9.3242807e-11
-9.31853192e-11
-9.31241737e-11
-9.30668065e-11
-9.3004984e-11
-9.29473921e-11
-9.28866451e-11
-9.28298394e-11
-9.27701544e-11
-9.27141534e-11
-9.26555184e-11
-9.26003376e-11
-9.25427416e-11
-9.24883943e-11
-9.24318274e-11
-9.23783243e-11
-9.23227772e-11
-9.2270127e-11
-9.2215591e-11
-9.21638004e-11
-9.21102671e-11
-9.2059341e-11
-9.20068019e-11
-9.19567438e-11
-9.19051905e-11
-9.18560025e-11
-9.18054263e-11
-9.17571091e-11
-9.17075013e-11
-9.16600544e-11
-9.16114057e-11
-9.15648277e-11
-9.15171285e-11
-9.14714169e-11
-9.14246571e-11
-9.13798088e-11
-9.13339778e-11
-9.12899887e-11
-9.12450751e-11
-9.12019407e-11
-9.11579326e-11
-9.11156476e-11
-9.10725327e-11
-9.10310908e-11
-9.09888566e-11
-9.09482507e-11
-9.09068845e-11
-9.08671063e-11
-9.08265957e-11
-9.07876353e-11
-9.07479682e-11
-9.07098146e-11
-9.06709787e-11
-9.06336196e-11
-9.05956021e-11
-9.0559025e-11
-9.0521812e-11
-9.04860044e-11
-9.04495819e-11
-9.04189401e-11
-9.03885355e-11
-9.03591364e-11
-9.032938e-11
-9.03005836e-11
-9.02714723e-11
-9.02432735e-11
-9.02143713e-11
-9.01860222e-11
-9.01574392e-11
-9.01297411e-11
-9.0101831e-11
-9.00747725e-11
-9.00475276e-11
-9.00210985e-11
-8.99945101e-11
-8.99687012e-11
-8.99427597e-11
-8.99175627e-11
-8.98922574e-11
-8.98676653e-11
-8.98429841e-11
-8.98189904e-11
-8.97945914e-11
-8.97707398e-11
-8.97468352e-11
-8.97235684e-11
-8.97002686e-11
-8.96775793e-11
-8.96548733e-11
-8.96327531e-11
-8.96106306e-11
-8.95890704e-11
-8.95675215e-11
-8.95465118e-11
-8.9525527e-11
-8.95050581e-11
-8.94846279e-11
-8.94646902e-11
-8.94448049e-11
-8.94253888e-11
-8.94060388e-11
-8.93871348e-11
-8.93683104e-11
-8.9349909e-11
-8.93316004e-11
-8.93136922e-11
-8.92958897e-11
-8.92784652e-11
-8.92611592e-11
-8.9244209e-11
-8.92273899e-11
-8.92109047e-11
-8.91945629e-11
-8.91785334e-11
-8.91626594e-11
-8.91470762e-11
-8.91316605e-11
-8.91165147e-11
-8.91015479e-11
-8.90868303e-11
-8.9072303e-11
-8.90580047e-11
-8.90439075e-11
-8.90300196e-11
-8.90163433e-11
-8.9002857e-11
-8.89895924e-11
-8.89764992e-11
-8.89636371e-11
-8.89509283e-11
-8.89384598e-11
-8.8926127e-11
-8.89140429e-11
-8.89020778e-11
-8.88903694e-11
-8.88787638e-11
-8.8867422e-11
-8.88561679e-11
-8.88451841e-11
-8.88342736e-11
-8.8823639e-11
-8.88130643e-11
-8.88027703e-11
-8.87925237e-11
-8.87825618e-11
-8.87726358e-11
-8.87629975e-11
-8.87533847e-11
-8.87440617e-11
-8.87347548e-11
-8.87257388e-11
-8.87167308e-11
-8.87080137e-11
-8.86992974e-11
-8.86908711e-11
-8.86824398e-11
-8.86742963e-11
-8.86661432e-11
-8.86582747e-11
-8.86503931e-11
-8.86427919e-11
-8.86351753e-11
-8.86278337e-11
-8.86204758e-11
-8.86133864e-11
-8.86062808e-11
-8.85994362e-11
-8.85925768e-11
-8.85859697e-11
-8.85793504e-11
-8.85729737e-11
-8.85665885e-11
-8.85604353e-11
-8.85542783e-11
-8.85483418e-11
-8.85424072e-11
-8.85366806e-11
-8.85309628e-11
-8.85254395e-11
-8.85199329e-11
-8.85146066e-11
-8.85093055e-11
-8.85041699e-11
-8.8499069e-11
-8.8494118e-11
-8.84892119e-11
-8.84844396e-11
-8.84797229e-11
-8.84751234e-11
-8.84705909e-11
-8.84661586e-11
-8.84618052e-11
-8.84575346e-11
-8.84533552e-11
-8.8449241e-11
-8.84452305e-11
-8.84412674e-11
-8.84374209e-11
-8.84336039e-11
-8.84299165e-11
-8.84262407e-11
-8.84227076e-11
-8.84191683e-11
-8.84157847e-11
-8.84123771e-11
-8.84091384e-11
-8.84058582e-11
-8.84027597e-11
-8.83996026e-11
-8.83966398e-11
-8.83936014e-11
-8.83907698e-11
-8.83878463e-11
-8.83851414e-11
-8.83823288e-11
-8.83797464e-11
-8.83770408e-11
-8.83745765e-11
-8.83719744e-11
-8.83696241e-11
-8.83671218e-11
-8.83648815e-11
-8.83624755e-11
-8.83603411e-11
-8.83580282e-11
-8.83559957e-11
-8.83537727e-11
-8.83518383e-11
-8.8349702e-11
-8.83478619e-11
-8.83458095e-11
-8.83440599e-11
-8.83420884e-11
-8.83404258e-11
-8.83385324e-11
-8.83369532e-11
-8.83351353e-11
-8.8333636e-11
-8.83318911e-11
-8.83304682e-11
-8.83287938e-11
-8.83274439e-11
-8.8325838e-11
-8.83245576e-11
-8.8323018e-11
-8.83218038e-11
-8.83203286e-11
-8.83191772e-11
-8.83177646e-11
-8.83166725e-11
-8.83153211e-11
-8.83142848e-11
-8.83129934e-11
-8.83120091e-11
-8.83107767e-11
-8.83098409e-11
-8.83086666e-11
-8.83077754e-11
-8.83066589e-11
-8.83058082e-11
-8.83047493e-11
-8.8303935e-11
-8.83029337e-11
-8.83021518e-11
-8.83012082e-11
-8.83004546e-11
-8.82995689e-11
-8.82988396e-11
-8.82980118e-11
-8.82973034e-11
-8.82965334e-11
-8.82958426e-11
-8.82951298e-11
-8.82944544e-11
-8.82937975e-11
-8.8293136e-11
-8.8292533e-11
-8.8291885e-11
-8.8291333e-11
-8.82907003e-11
-8.82901945e-11
-8.82895832e-11
-8.82891162e-11
-8.82885343e-11
-8.82880982e-11
-8.82875584e-11
-8.8287142e-11
-8.82866212e-11
-8.82862112e-11
-8.8285729e-11
-8.82853261e-11
-8.82848815e-11
-8.82844886e-11
-8.82840777e-11
-8.82836977e-11
-8.82833158e-11
-8.82829511e-11
-8.82825945e-11
-8.82822463e-11
-8.82819121e-11
-8.82815811e-11
-8.82812669e-11
-8.82809532e-11
-8.82806569e-11
-8.82803491e-11
-8.82800393e-11
-8.8279708e-11
-8.82793761e-11
-8.82790234e-11
-8.82786711e-11
-8.82783003e-11
-8.82779308e-11
-8.82775462e-11
-8.8277164e-11
-8.82767714e-11
-8.82763828e-11
-8.82759892e-11
-8.82756018e-11
-8.82752154e-11
-8.82748381e-11
-8.8274468e-11
-8.82741099e-11
-8.82737663e-11
-8.82734356e-11
-8.82731282e-11
-8.82728331e-11
-8.82725659e-11
-8.82723259e-11
-8.82721131e-11
-8.82720702e-11
-8.82720345e-11
-8.82720064e-11
-8.82719848e-11
-8.82719687e-11
-8.82719573e-11
-8.82719495e-11
-8.82719443e-11
-8.82719411e-11
-8.82719392e-11
-8.82719383e-11
-8.82719377e-11
-8.82719373e-11
-8.82719372e-11
-8.82719371e-11
-8.82719371e-11
-8.82719371e-11
-8.82719371e-11
-8.82719371e-11
-8.82719371e-11
-8.82719371e-11
-8.82719371e-11
-8.82719371e-11
-8.82719371e-11
-8.82719371e-11
-8.82719371e-11
-8.82719371e-11
-8.82719371e-11
-8.82719371e-11
-8.82719371e-11
-8.82719371e-11
-8.82719371e-11
-8.82719371e-11
-8.82719371e-11
-8.82719371e-11
-8.82719371e-11
-8.82719371e-11
-8.82719371e-11
-8.82719371e-11
-8.82719371e-11
-8.82719371e-11
-8.82719371e-11
-8.82719371e-11
-8.82719371e-11
-8.82719371e-11
-8.82719371e-11
-8.82719371e-11
-8.82719371e-11
-8.82719371e-11
-8.82719371e-11
-8.82719371e-11
-8.82719371e-11
)
;

boundaryField
{
    closed
    {
        type            calculated;
        value           nonuniform List<scalar> 0();
    }
    open
    {
        type            calculated;
        value           uniform -8.82719371e-11;
    }
    sides
    {
        type            empty;
    }
    procBoundary5to4
    {
        type            processor;
        value           uniform -1.11906032e-10;
    }
}


// ************************************************************************* //
