/*--------------------------------*- C++ -*----------------------------------*\
| =========                 |                                                 |
| \\      /  F ield         | OpenFOAM: The Open Source CFD Toolbox           |
|  \\    /   O peration     | Version:  2306                                  |
|   \\  /    A nd           | Website:  www.openfoam.com                      |
|    \\/     M anipulation  |                                                 |
\*---------------------------------------------------------------------------*/
FoamFile
{
    version     2.0;
    format      ascii;
    arch        "LSB;label=32;scalar=64";
    class       volVectorField;
    location    "0.00062";
    object      U;
}
// * * * * * * * * * * * * * * * * * * * * * * * * * * * * * * * * * * * * * //

dimensions      [0 1 -1 0 0 0 0];

internalField   nonuniform List<vector> 
530
(
(1.37600513 0 0)
(1.37042598 0 0)
(1.3646813 0 0)
(1.35893756 0 0)
(1.35333161 0 0)
(1.34769238 0 0)
(1.3419848 0 0)
(1.33627077 0 0)
(1.33051936 0 0)
(1.32476684 0 0)
(1.31902377 0 0)
(1.31328451 0 0)
(1.30754026 0 0)
(1.30178087 0 0)
(1.29600112 0 0)
(1.29018834 0 0)
(1.28433763 0 0)
(1.27843363 0 0)
(1.27247222 0 0)
(1.26643739 0 0)
(1.26032943 0 0)
(1.25412467 0 0)
(1.24779012 0 0)
(1.24128836 0 0)
(1.23464823 0 0)
(1.2278752 0 0)
(1.22097109 0 0)
(1.21392229 0 0)
(1.20674522 0 0)
(1.19943093 0 0)
(1.19198345 0 0)
(1.18440545 0 0)
(1.17671286 0 0)
(1.16889901 0 0)
(1.16098905 0 0)
(1.15298931 0 0)
(1.1449283 0 0)
(1.13681412 0 0)
(1.12868173 0 0)
(1.12054319 0 0)
(1.11244081 0 0)
(1.10439249 0 0)
(1.09643668 0 0)
(1.08857088 0 0)
(1.080841 0 0)
(1.07329343 0 0)
(1.0659834 0 0)
(1.05893728 0 0)
(1.05220198 0 0)
(1.04580627 0 0)
(1.03979575 0 0)
(1.03420048 0 0)
(1.02906185 0 0)
(1.02440964 0 0)
(1.02027916 0 0)
(1.0166985 0 0)
(1.01369502 0 0)
(1.01129363 0 0)
(1.00951194 0 0)
(1.00837014 0 0)
(1.00787452 0 0)
(1.00803901 0 0)
(1.0088573 0 0)
(1.01033563 0 0)
(1.01245416 0 0)
(1.01521017 0 0)
(1.01856987 0 0)
(1.02252059 0 0)
(1.02701464 0 0)
(1.03202897 0 0)
(1.03750343 0 0)
(1.04340468 0 0)
(1.04965607 0 0)
(1.05619751 0 0)
(1.06294481 0 0)
(1.06985903 0 0)
(1.07685839 0 0)
(1.08388132 0 0)
(1.0908359 0 0)
(1.09765515 0 0)
(1.10424874 0 0)
(1.11054749 0 0)
(1.1164661 0 0)
(1.12193636 0 0)
(1.12688227 0 0)
(1.13124034 0 0)
(1.13494791 0 0)
(1.13795014 0 0)
(1.14020122 0 0)
(1.14165877 0 0)
(1.1422967 0 0)
(1.1420885 0 0)
(1.1410298 0 0)
(1.13911319 0 0)
(1.13635713 0 0)
(1.13277616 0 0)
(1.12841216 0 0)
(1.12329595 0 0)
(1.11749423 0 0)
(1.11105542 0 0)
(1.10405662 0 0)
(1.09657521 0 0)
(1.08870811 0 0)
(1.08054968 0 0)
(1.0722215 0 0)
(1.06383101 0 0)
(1.05550108 0 0)
(1.04734172 0 0)
(1.03947744 0 0)
(1.03202431 0 0)
(1.02510308 0 0)
(1.01882839 0 0)
(1.01331189 0 0)
(1.00866085 0 0)
(1.00497301 0 0)
(1.00234315 0 0)
(1.00085093 0 0)
(1.00057421 0 0)
(1.00157152 0 0)
(1.00390018 0 0)
(1.00759222 0 0)
(1.01267384 0 0)
(1.01915257 0 0)
(1.02704362 0 0)
(1.03633382 0 0)
(1.0470068 0 0)
(1.05902048 0 0)
(1.0723338 0 0)
(1.08688178 0 0)
(1.10260095 0 0)
(1.11940602 0 0)
(1.13721442 0 0)
(1.15592362 0 0)
(1.17543377 0 0)
(1.19563018 0 0)
(1.2164023 0 0)
(1.23762673 0 0)
(1.25918565 0 0)
(1.28095203 0 0)
(1.30280579 0 0)
(1.324621 0 0)
(1.34627995 0 0)
(1.36766231 0 0)
(1.38865712 0 0)
(1.40915375 0 0)
(1.42905192 0 0)
(1.44825422 0 0)
(1.46667436 0 0)
(1.48423102 0 0)
(1.50085425 0 0)
(1.51648015 0 0)
(1.53105659 0 0)
(1.54454594 0 0)
(1.55691484 0 0)
(1.56813232 0 0)
(1.57818588 0 0)
(1.5870709 0 0)
(1.59479188 0 0)
(1.6013611 0 0)
(1.60679938 0 0)
(1.61113476 0 0)
(1.61440228 0 0)
(1.61664316 0 0)
(1.61790391 0 0)
(1.61823594 0 0)
(1.61769422 0 0)
(1.6163372 0 0)
(1.61422509 0 0)
(1.61142012 0 0)
(1.60798465 0 0)
(1.60398155 0 0)
(1.5994723 0 0)
(1.59451761 0 0)
(1.58917539 0 0)
(1.58350168 0 0)
(1.57754865 0 0)
(1.57136563 0 0)
(1.56499729 0 0)
(1.55848481 0 0)
(1.55186421 0 0)
(1.5451676 0 0)
(1.5384217 0 0)
(1.53164924 0 0)
(1.52486761 0 0)
(1.51809029 0 0)
(1.51132578 0 0)
(1.50457903 0 0)
(1.49785048 0 0)
(1.49113759 0 0)
(1.48443397 0 0)
(1.47773099 0 0)
(1.47101689 0 0)
(1.4642785 0 0)
(1.45750036 0 0)
(1.45066643 0 0)
(1.44375928 0 0)
(1.43676168 0 0)
(1.42965591 0 0)
(1.42242522 0 0)
(1.41505316 0 0)
(1.40752496 0 0)
(1.39982681 0 0)
(1.39194722 0 0)
(1.38387621 0 0)
(1.37560663 0 0)
(1.36713327 0 0)
(1.35845404 0 0)
(1.34956818 0 0)
(1.34047783 0 0)
(1.33118933 0 0)
(1.32171309 0 0)
(1.31206089 0 0)
(1.3022474 0 0)
(1.29228948 0 0)
(1.28220712 0 0)
(1.27202222 0 0)
(1.26175945 0 0)
(1.25144512 0 0)
(1.24110773 0 0)
(1.23077706 0 0)
(1.22048459 0 0)
(1.21026263 0 0)
(1.20014468 0 0)
(1.1901646 0 0)
(1.18035687 0 0)
(1.17075588 0 0)
(1.16139613 0 0)
(1.15231163 0 0)
(1.14353579 0 0)
(1.13510061 0 0)
(1.12703729 0 0)
(1.11938209 0 0)
(1.11216548 0 0)
(1.1054094 0 0)
(1.09913935 0 0)
(1.09338002 0 0)
(1.08815419 0 0)
(1.0834825 0 0)
(1.07938369 0 0)
(1.07587449 0 0)
(1.07296968 0 0)
(1.07068204 0 0)
(1.06902234 0 0)
(1.06799947 0 0)
(1.06762036 0 0)
(1.06789018 0 0)
(1.06881224 0 0)
(1.07038825 0 0)
(1.07261823 0 0)
(1.07550081 0 0)
(1.07903306 0 0)
(1.08321092 0 0)
(1.08802897 0 0)
(1.09348087 0 0)
(1.09955913 0 0)
(1.10625558 0 0)
(1.1135611 0 0)
(1.1214661 0 0)
(1.12996025 0 0)
(1.13903296 0 0)
(1.14867308 0 0)
(1.15886934 0 0)
(1.16961013 0 0)
(1.18088384 0 0)
(1.19267867 0 0)
(1.20498295 0 0)
(1.21778493 0 0)
(1.23107306 0 0)
(1.24483581 0 0)
(1.25906193 0 0)
(1.27374024 0 0)
(1.28885984 0 0)
(1.30440997 0 0)
(1.32038012 0 0)
(1.33675994 0 0)
(1.3535393 0 0)
(1.37070823 0 0)
(1.38825689 0 0)
(1.40617557 0 0)
(1.42445464 0 0)
(1.44308453 0 0)
(1.46205561 0 0)
(1.48135831 0 0)
(1.50098283 0 0)
(1.52091938 0 0)
(1.54115778 0 0)
(1.5616878 0 0)
(1.58249867 0 0)
(1.60357946 0 0)
(1.62491857 0 0)
(1.64650417 0 0)
(1.66832356 0 0)
(1.69036376 0 0)
(1.71261079 0 0)
(1.73505025 0 0)
(1.75766664 0 0)
(1.78044399 0 0)
(1.80336507 0 0)
(1.82641214 0 0)
(1.84956609 0 0)
(1.87280725 0 0)
(1.89611452 0 0)
(1.9194662 0 0)
(1.94283909 0 0)
(1.96620942 0 0)
(1.98955186 0 0)
(2.01284054 0 0)
(2.03604806 0 0)
(2.05914648 0 0)
(2.08210639 0 0)
(2.1048979 0 0)
(2.12748973 0 0)
(2.14985019 0 0)
(2.17194633 0 0)
(2.19374488 0 0)
(2.21521147 0 0)
(2.23631153 0 0)
(2.25700956 0 0)
(2.27727 0 0)
(2.29705661 0 0)
(2.3163332 0 0)
(2.33506314 0 0)
(2.35321007 0 0)
(2.37073742 0 0)
(2.38760906 0 0)
(2.40378894 0 0)
(2.41924167 0 0)
(2.4339322 0 0)
(2.44782638 0 0)
(2.46089066 0 0)
(2.47309262 0 0)
(2.48440079 0 0)
(2.49478496 0 0)
(2.50421625 0 0)
(2.51266724 0 0)
(2.52011212 0 0)
(2.5265268 0 0)
(2.53188907 0 0)
(2.53617867 0 0)
(2.53937749 0 0)
(2.54146964 0 0)
(2.54244157 0 0)
(2.54228221 0 0)
(2.5409831 0 0)
(2.53853841 0 0)
(2.53494517 0 0)
(2.53020326 0 0)
(2.52431557 0 0)
(2.51728803 0 0)
(2.50912976 0 0)
(2.49985305 0 0)
(2.48947351 0 0)
(2.47801004 0 0)
(2.46548494 0 0)
(2.4519239 0 0)
(2.43735598 0 0)
(2.42181374 0 0)
(2.40533305 0 0)
(2.38795325 0 0)
(2.36971691 0 0)
(2.35067001 0 0)
(2.33086157 0 0)
(2.3103439 0 0)
(2.28917213 0 0)
(2.26740443 0 0)
(2.2451015 0 0)
(2.22232681 0 0)
(2.19914596 0 0)
(2.17562696 0 0)
(2.15183951 0 0)
(2.12785528 0 0)
(2.1037471 0 0)
(2.07958925 0 0)
(2.05545666 0 0)
(2.0314251 0 0)
(2.00757036 0 0)
(1.98396847 0 0)
(1.96069485 0 0)
(1.93782451 0 0)
(1.91543116 0 0)
(1.89358744 0 0)
(1.87236409 0 0)
(1.85183004 0 0)
(1.83205174 0 0)
(1.81309318 0 0)
(1.79501527 0 0)
(1.77787589 0 0)
(1.7617293 0 0)
(1.74662621 0 0)
(1.73261328 0 0)
(1.71973314 0 0)
(1.70802405 0 0)
(1.69751988 0 0)
(1.68824991 0 0)
(1.6802388 0 0)
(1.67350645 0 0)
(1.66806807 0 0)
(1.6639341 0 0)
(1.66111027 0 0)
(1.65959771 0 0)
(1.65939293 0 0)
(1.66048807 0 0)
(1.6628709 0 0)
(1.6665252 0 0)
(1.67143068 0 0)
(1.67756352 0 0)
(1.68489628 0 0)
(1.69339848 0 0)
(1.70303656 0 0)
(1.71377451 0 0)
(1.72557377 0 0)
(1.73839397 0 0)
(1.75219283 0 0)
(1.76692685 0 0)
(1.78255126 0 0)
(1.7990207 0 0)
(1.81628917 0 0)
(1.83431065 0 0)
(1.85303911 0 0)
(1.87242903 0 0)
(1.89243546 0 0)
(1.91301441 0 0)
(1.93412297 0 0)
(1.95571961 0 0)
(1.97776427 0 0)
(2.00021859 0 0)
(2.02304604 0 0)
(2.04621195 0 0)
(2.06968381 0 0)
(2.09343108 0 0)
(2.11742559 0 0)
(2.14164086 0 0)
(2.1660523 0 0)
(2.19063811 0 0)
(2.21537868 0 0)
(2.24025581 0 0)
(2.26525342 0 0)
(2.29035709 0 0)
(2.31555414 0 0)
(2.34083329 0 0)
(2.36618462 0 0)
(2.39159934 0 0)
(2.41706976 0 0)
(2.44258893 0 0)
(2.46815058 0 0)
(2.49374888 0 0)
(2.51937829 0 0)
(2.54503335 0 0)
(2.57070845 0 0)
(2.59639767 0 0)
(2.62209482 0 0)
(2.64779443 0 0)
(2.67351995 0 0)
(2.7001832 0 0)
(2.72871721 0 0)
(2.75923245 0 0)
(2.79184161 0 0)
(2.82665138 0 0)
(2.86375782 0 0)
(2.9032401 0 0)
(2.94515081 0 0)
(2.98950292 0 0)
(3.0362536 0 0)
(3.08528399 0 0)
(3.13637589 0 0)
(3.18918709 0 0)
(3.24322851 0 0)
(3.29784943 0 0)
(3.35224036 0 0)
(3.40546709 0 0)
(3.45655276 0 0)
(3.50462627 0 0)
(3.54914892 0 0)
(3.59021459 0 0)
(3.62888271 0 0)
(3.66744886 0 0)
(3.70948185 0 0)
(3.75940316 0 0)
(3.82138904 0 0)
(3.8975822 0 0)
(3.9860269 0 0)
(4.07932828 0 0)
(4.16584369 0 0)
(4.235123 0 0)
(4.2877582 0 0)
(4.34578247 0 0)
(4.452973 0 0)
(4.65534309 0 0)
(4.96401822 0 0)
(5.31842501 0 0)
(5.59955088 0 0)
(5.7185168 0 0)
(5.70465325 0 0)
(5.6648232 0 0)
(5.62549364 0 0)
(5.47900697 0 0)
(5.10834919 0 0)
(4.53577186 0 0)
(3.93747241 0 0)
(3.4700147 0 0)
(3.14091378 0 0)
(2.88472622 0 0)
(2.6721238 0 0)
(2.51764631 0 0)
(2.44223183 0 0)
(2.4556828 0 0)
(2.50840178 0 0)
(2.51149603 0 0)
(2.45623211 0 0)
(2.35043844 0 0)
(2.22673404 0 0)
(2.12366673 0 0)
(2.01756434 0 0)
(1.88963708 0 0)
(1.83285076 0 0)
(1.87016609 0 0)
(1.84090564 0 0)
(1.89396036 0 0)
(2.39684477 0 0)
(3.19695202 0 0)
(3.68370661 0 0)
(3.59108711 0 0)
(3.18132681 0 0)
(2.80067455 0 0)
(2.53894882 0 0)
(2.23113078 0 0)
(1.85927765 0 0)
(1.80084495 0 0)
(2.52077166 0 0)
(3.1125536 0 0)
)
;

boundaryField
{
    closed
    {
        type            noSlip;
    }
    open
    {
        type            inletOutlet;
        inletValue      uniform (0 0 0);
        value           uniform (3.1125536 0 0);
    }
    sides
    {
        type            empty;
    }
    procBoundary5to4
    {
        type            processor;
        value           uniform (1.3815601 0 0);
    }
}


// ************************************************************************* //
