/*--------------------------------*- C++ -*----------------------------------*\
| =========                 |                                                 |
| \\      /  F ield         | OpenFOAM: The Open Source CFD Toolbox           |
|  \\    /   O peration     | Version:  2306                                  |
|   \\  /    A nd           | Website:  www.openfoam.com                      |
|    \\/     M anipulation  |                                                 |
\*---------------------------------------------------------------------------*/
FoamFile
{
    version     2.0;
    format      ascii;
    arch        "LSB;label=32;scalar=64";
    class       volScalarField;
    location    "0.00102";
    object      prefDZ_H2;
}
// * * * * * * * * * * * * * * * * * * * * * * * * * * * * * * * * * * * * * //

dimensions      [1 -1 -1 0 0 0 0];

internalField   nonuniform List<scalar> 
531
(
6.35939551e-05
6.33071063e-05
6.22218574e-05
6.16106696e-05
6.22691854e-05
6.35802019e-05
6.32822018e-05
6.20546661e-05
6.15529142e-05
6.22620555e-05
6.35452806e-05
6.28630553e-05
6.22473843e-05
6.22793e-05
6.35471731e-05
6.28167324e-05
6.22569434e-05
6.22843379e-05
6.35593302e-05
6.31502855e-05
6.17528679e-05
6.15471523e-05
6.22743583e-05
6.35699804e-05
6.32191387e-05
6.20181509e-05
6.17604983e-05
6.22571197e-05
6.32637754e-05
6.35806832e-05
6.34330337e-05
6.35740624e-05
6.33043773e-05
6.22575671e-05
6.17341527e-05
6.18422689e-05
6.18497366e-05
6.1802971e-05
6.22621724e-05
6.35564587e-05
6.33175213e-05
6.23356178e-05
6.187936e-05
6.22520025e-05
6.31041544e-05
6.35959396e-05
6.30255197e-05
6.19946099e-05
6.17068599e-05
6.22848863e-05
6.35456565e-05
6.28216074e-05
6.23233947e-05
6.22894466e-05
6.356534e-05
6.32782639e-05
6.18629721e-05
6.16592067e-05
6.18755523e-05
6.22755632e-05
6.33574397e-05
6.35927399e-05
6.33904629e-05
6.3580803e-05
6.31745993e-05
6.20829655e-05
6.15786887e-05
6.18106028e-05
6.22971499e-05
6.35817561e-05
6.33074088e-05
6.19564939e-05
6.16471158e-05
6.23242375e-05
6.35693344e-05
6.33201644e-05
6.20068769e-05
6.17020901e-05
6.23339279e-05
6.3568639e-05
6.3322115e-05
6.19745645e-05
6.16659578e-05
6.23279908e-05
6.35665665e-05
6.33364257e-05
6.19844641e-05
6.16446179e-05
6.23229955e-05
6.35703489e-05
6.33572241e-05
6.20510216e-05
6.16505055e-05
6.23162619e-05
6.3578518e-05
6.33828704e-05
6.21485306e-05
6.16587113e-05
6.23051033e-05
6.3585383e-05
6.34104336e-05
6.22318775e-05
6.16432335e-05
6.22930173e-05
6.35892344e-05
6.34385024e-05
6.22560262e-05
6.15991577e-05
6.22855094e-05
6.35904306e-05
6.34553786e-05
6.22707088e-05
6.14601527e-05
6.22459515e-05
6.34323611e-05
6.36513015e-05
6.33400026e-05
6.23018324e-05
6.15504524e-05
6.17888489e-05
6.23518687e-05
6.36109867e-05
6.35260718e-05
6.2229818e-05
6.14476777e-05
6.22998079e-05
6.35641424e-05
6.3600558e-05
6.23134167e-05
6.23659396e-05
6.36302223e-05
6.35753426e-05
6.23229607e-05
6.1504717e-05
6.23057782e-05
6.35641684e-05
6.36063043e-05
6.23206627e-05
6.14912662e-05
6.23152297e-05
6.35252094e-05
6.36459965e-05
6.23376977e-05
6.23744386e-05
6.35325282e-05
6.36064177e-05
6.22945004e-05
6.15919461e-05
6.23150652e-05
6.35163285e-05
6.36195615e-05
6.22882837e-05
6.16448209e-05
6.23160071e-05
6.35030027e-05
6.36190781e-05
6.22853691e-05
6.16870741e-05
6.23180684e-05
6.34924984e-05
6.36189989e-05
6.22835232e-05
6.17325424e-05
6.23157768e-05
6.3477707e-05
6.36243688e-05
6.23017699e-05
6.17451947e-05
6.17296636e-05
6.239285e-05
6.34744379e-05
6.36225676e-05
6.23241128e-05
6.23739815e-05
6.33916055e-05
6.35853498e-05
6.2291152e-05
6.16546289e-05
6.23430298e-05
6.34570395e-05
6.3606026e-05
6.22827267e-05
6.16239567e-05
6.22753052e-05
6.34480334e-05
6.35978068e-05
6.22845225e-05
6.15946343e-05
6.22676549e-05
6.34094946e-05
6.36137619e-05
6.2349801e-05
6.22868691e-05
6.33247337e-05
6.35507424e-05
6.23040406e-05
6.16108921e-05
6.20879514e-05
6.34272004e-05
6.35812751e-05
6.22915998e-05
6.15856011e-05
6.20762382e-05
6.34260435e-05
6.35801606e-05
6.22829676e-05
6.16018124e-05
6.23281499e-05
6.33946528e-05
6.35820243e-05
6.23735577e-05
6.2178771e-05
6.3259764e-05
6.35345534e-05
6.23010915e-05
6.15996852e-05
6.21998647e-05
6.34418135e-05
6.35907377e-05
6.22599935e-05
6.15630315e-05
6.23107036e-05
6.34381246e-05
6.36077613e-05
6.22981033e-05
6.2111019e-05
6.24944476e-05
6.34618022e-05
6.35420483e-05
6.28976862e-05
6.22476487e-05
6.20716987e-05
6.22194326e-05
6.22277539e-05
6.2205044e-05
6.20924565e-05
6.20827329e-05
6.24609603e-05
6.35521682e-05
6.35757597e-05
6.24442215e-05
6.23439811e-05
6.2324455e-05
6.35428423e-05
6.2953767e-05
6.17786738e-05
6.15765304e-05
6.23147255e-05
6.34891874e-05
6.2515391e-05
6.19975081e-05
6.22583544e-05
6.34833388e-05
6.25306163e-05
6.21284164e-05
6.23264208e-05
6.35249111e-05
6.24402652e-05
6.20956579e-05
6.23225016e-05
6.35149079e-05
6.27468932e-05
6.16774082e-05
6.1571637e-05
6.23144077e-05
6.34956536e-05
6.24925759e-05
6.2216844e-05
6.23151594e-05
6.35030895e-05
6.28753962e-05
6.17786284e-05
6.16681166e-05
6.23268474e-05
6.34959614e-05
6.256751e-05
6.23286666e-05
6.23133089e-05
6.3492889e-05
6.30000902e-05
6.18548649e-05
6.17233911e-05
6.23304248e-05
6.34940001e-05
6.2965014e-05
6.18512851e-05
6.17268226e-05
6.2322768e-05
6.34988814e-05
6.26508063e-05
6.23962091e-05
6.23070814e-05
6.34763405e-05
6.31360884e-05
6.19977294e-05
6.17202679e-05
6.23024608e-05
6.3506873e-05
6.30596353e-05
6.19535008e-05
6.16887245e-05
6.22813449e-05
6.35058176e-05
6.27778101e-05
6.24028007e-05
6.23052692e-05
6.34684915e-05
6.31851586e-05
6.21896467e-05
6.16911182e-05
6.22596895e-05
6.34921018e-05
6.31284643e-05
6.21323989e-05
6.16576918e-05
6.22429889e-05
6.3469997e-05
6.28412398e-05
6.23824642e-05
6.23013335e-05
6.34547866e-05
6.31782682e-05
6.23458137e-05
6.17350102e-05
6.22311334e-05
6.3442189e-05
6.32131593e-05
6.23121475e-05
6.17549728e-05
6.22309555e-05
6.33959243e-05
6.32408683e-05
6.2287655e-05
6.17606346e-05
6.22245648e-05
6.3392383e-05
6.32128124e-05
6.23347395e-05
6.23019628e-05
6.32113464e-05
6.34197099e-05
6.24191077e-05
6.20333029e-05
6.20450147e-05
6.20378162e-05
6.19187622e-05
6.22993966e-05
6.30556169e-05
6.34045873e-05
6.24078113e-05
6.186312e-05
6.20820987e-05
6.27971623e-05
6.33882137e-05
6.23217317e-05
6.23455246e-05
6.2506104e-05
6.34436165e-05
6.23830435e-05
6.23441444e-05
6.23953323e-05
6.3476141e-05
6.26302527e-05
6.16368382e-05
6.16464426e-05
6.23781264e-05
6.34493743e-05
6.25109135e-05
6.22936401e-05
6.23315816e-05
6.34811407e-05
6.26927363e-05
6.17164007e-05
6.16101942e-05
6.23498395e-05
6.34767698e-05
6.26074889e-05
6.2289742e-05
6.23162846e-05
6.3499133e-05
6.26931155e-05
6.17782429e-05
6.15495453e-05
6.23324847e-05
6.34986739e-05
6.26300552e-05
6.21998659e-05
6.22990892e-05
6.3518147e-05
6.26579406e-05
6.17701685e-05
6.14323103e-05
6.23050596e-05
6.35136437e-05
6.26275768e-05
6.20483512e-05
6.22771014e-05
6.353219e-05
6.2630896e-05
6.20552009e-05
6.22775701e-05
6.35284507e-05
6.26007851e-05
6.20878238e-05
6.22813203e-05
6.35039214e-05
6.25905251e-05
6.17534647e-05
6.14179421e-05
6.23188098e-05
6.35064037e-05
6.25522665e-05
6.21257794e-05
6.22913365e-05
6.35106123e-05
6.25475578e-05
6.2234482e-05
6.23231238e-05
6.34719621e-05
6.25575704e-05
6.18164016e-05
6.15996546e-05
6.2448444e-05
6.35190737e-05
6.24794092e-05
6.23411314e-05
6.24162599e-05
6.34713301e-05
6.25579382e-05
6.19277765e-05
6.17889994e-05
6.27168353e-05
6.35221722e-05
6.24697187e-05
6.21934343e-05
6.17077812e-05
6.16793923e-05
6.26398967e-05
6.34654106e-05
6.2452473e-05
6.1762391e-05
6.15625388e-05
6.25372477e-05
6.35073217e-05
6.23754522e-05
6.21314017e-05
6.24550769e-05
6.35028899e-05
6.23546043e-05
6.20964509e-05
6.24796498e-05
6.34981978e-05
6.23399931e-05
6.20853317e-05
6.25084338e-05
6.34620734e-05
6.23711561e-05
6.14791933e-05
6.12791402e-05
6.25280179e-05
6.34994672e-05
6.23240756e-05
6.19742569e-05
6.24823441e-05
6.35022541e-05
6.23138375e-05
6.20107813e-05
6.25059791e-05
6.35065807e-05
6.23133985e-05
6.20739778e-05
6.25438699e-05
6.35170737e-05
6.23170833e-05
6.22037142e-05
6.2612425e-05
6.34939805e-05
6.23497169e-05
6.16508138e-05
6.15845145e-05
6.28571415e-05
6.35098957e-05
6.23577429e-05
6.16897617e-05
6.1664144e-05
6.29765067e-05
6.35132795e-05
6.233985e-05
6.16077688e-05
6.16556069e-05
6.31019857e-05
6.3519286e-05
6.34933578e-05
6.35648449e-05
6.23356857e-05
6.19280708e-05
6.16601632e-05
6.16796512e-05
6.32336689e-05
6.35326436e-05
6.23141615e-05
6.16337624e-05
6.17735724e-05
6.33198103e-05
6.35523311e-05
6.23195422e-05
6.16984858e-05
6.19096702e-05
6.33557034e-05
6.35628724e-05
6.23167029e-05
6.17303021e-05
6.19953115e-05
6.33869559e-05
6.35702802e-05
6.23088282e-05
6.16844146e-05
6.19995105e-05
6.34139608e-05
6.35762382e-05
6.22996548e-05
6.15596394e-05
6.19385039e-05
6.34463468e-05
6.35661518e-05
6.22862188e-05
6.1272227e-05
6.19612766e-05
6.34288465e-05
6.35494556e-05
6.35369877e-05
)
;

boundaryField
{
    closed
    {
        type            calculated;
        value           nonuniform List<scalar> 0();
    }
    open
    {
        type            calculated;
        value           nonuniform List<scalar> 0();
    }
    sides
    {
        type            empty;
    }
    procBoundary3to2
    {
        type            processor;
        value           uniform 6.22693774e-05;
    }
    procBoundary3to4
    {
        type            processor;
        value           uniform 6.35584933e-05;
    }
}


// ************************************************************************* //
