/*--------------------------------*- C++ -*----------------------------------*\
| =========                 |                                                 |
| \\      /  F ield         | OpenFOAM: The Open Source CFD Toolbox           |
|  \\    /   O peration     | Version:  2306                                  |
|   \\  /    A nd           | Website:  www.openfoam.com                      |
|    \\/     M anipulation  |                                                 |
\*---------------------------------------------------------------------------*/
FoamFile
{
    version     2.0;
    format      ascii;
    arch        "LSB;label=32;scalar=64";
    class       volScalarField;
    location    "0.00122";
    object      h;
}
// * * * * * * * * * * * * * * * * * * * * * * * * * * * * * * * * * * * * * //

dimensions      [0 2 -2 0 0 0 0];

internalField   nonuniform List<scalar> 
530
(
-4964.88588
-2952.4737
9244.3944
10168.2508
428.660785
-4925.73579
-2830.1157
9322.75094
10192.7851
379.418357
-4903.60101
-2754.78236
9394.68545
10205.4371
326.58264
-4943.86582
-2753.70039
9460.6706
10258.4971
-162.183352
-4135.05454
-4931.10818
-2520.39083
9145.10299
10154.9469
10030.7463
9933.21349
514.087051
-5417.49098
-3281.49943
9475.8892
10191.8838
-666.798009
-4418.76818
-4993.51021
-3659.28029
9514.09417
10160.0666
-165.067278
-5282.53856
-3324.76463
9506.66006
10144.518
-185.426809
-5718.79439
-3306.21123
9004.26199
10084.1402
9918.50491
9925.11357
106.42362
-4664.19223
-5268.4523
-4395.71572
9344.14972
10148.1213
-351.021436
-4259.36761
-4896.02037
-3368.29024
9394.19024
10360.9471
1433.80787
-4176.21451
-2925.83603
9427.81884
10259.7389
1013.54977
-5084.93544
-3981.77824
9197.05028
10360.6917
412.314558
-1323.22031
8768.29745
10432.8413
1477.30505
-3565.75781
-3213.64543
-4816.81224
-3531.79909
8639.16449
10605.2005
10446.4696
-16.3991331
-5695.8815
-4973.36992
8894.87495
10118.7011
-1002.55019
-3336.49834
8144.55148
10009.5881
138.20699
-5933.25567
-5302.36913
8841.20574
10090.0725
-1108.86285
-3440.07568
8151.6767
10155.1784
-1409.41557
-3313.13358
8209.81313
10064.1941
267.760233
-5627.31373
-5048.56004
8967.21833
10054.1902
832.000373
-5419.58115
-4781.80544
9066.48931
10088.1095
864.524564
-5393.10176
-4684.31026
9130.86173
10243.9121
-898.159108
-2966.04099
8620.92031
10182.687
496.175041
-5297.66367
-4614.48196
9200.38992
10133.2893
958.952234
-5194.59064
-4457.4427
9262.28823
10156.7029
967.463994
-5163.45713
-4392.18167
9303.5666
10148.483
812.99345
-5278.13447
-4443.96389
9318.60387
10246.0822
-1310.33923
-3028.9611
8912.00971
10160.4189
-120.956499
-5597.94372
-4745.88553
9303.04341
10200.581
-1491.19976
-3048.7066
9002.91023
10195.188
116.338582
-5315.48667
-4400.00795
9408.55811
10117.8291
331.861645
-5428.15601
-4449.97496
9429.55207
10246.431
-1546.89429
-2959.69576
9170.79437
10219.134
101.980591
-5186.1938
-4052.55358
9527.93515
10233.4435
1046.2701
-4788.12882
-3669.7408
9616.21846
10291.1838
1276.10978
-4699.2025
-3629.21619
9652.80793
10330.2224
639.682875
-4041.52597
-3508.76862
-4828.40425
-4434.86381
9619.27471
10233.7045
-1825.3675
-3143.73217
9300.9917
10273.3616
-2289.46442
-3257.08642
9293.9646
10130.8048
-566.187254
-5645.27048
-4237.49568
9436.73214
10028.7376
-3076.80637
-4347.5238
8973.60095
9918.11727
-3726.30989
-4745.39207
8876.55204
9738.45271
-4373.48294
-5308.27449
8805.77988
9775.0712
-3911.18145
-4748.05703
8981.17308
9932.68064
-3218.54982
-4065.63152
9178.0651
9994.19381
-643.380279
-5937.98221
-4535.91776
9411.73986
9931.458
-3235.93534
-4172.43705
9238.31682
10010.7999
-3207.82795
-3844.2598
9350.33773
10051.018
-279.953053
-5714.88604
-4275.73366
9622.31205
9960.36092
-2929.9311
-3479.01706
9461.50712
10022.5705
-241.785786
-5609.34775
-4247.96586
9638.28731
9983.37294
412.478756
-5309.0968
-3145.02112
9791.06313
9653.2514
-2973.66455
-2770.07548
9906.60234
10031.6847
-0.250224317
-5043.86441
-3336.8315
9826.54134
10331.3061
2454.33588
-3406.34606
-4901.56289
-2695.38895
9853.17996
9953.92586
-564.157081
-5067.93056
-1664.44107
9930.77742
9746.01913
-1906.64736
-5346.27814
-1342.41969
9773.93424
7066.86822
-3136.79702
596.438667
10241.7242
9345.16244
-2742.64028
-5132.9278
-1117.62954
9970.79775
9795.54503
-1236.76728
-4979.18097
-1497.27469
9898.28948
9794.7181
-1035.56758
-5023.14421
-1934.59276
9838.37724
9847.06328
-614.069904
-5021.41504
-2557.1221
9763.43581
9963.93809
419.47438
-4871.22318
-2610.07906
9754.70665
9953.43325
239.905465
-4985.18331
-2886.97988
9724.47774
9983.12859
439.61937
-5109.75348
-3857.14501
9569.63553
10108.9511
1878.67315
-5429.91225
-5433.65681
5130.25241
10249.2514
9661.79866
-1287.92553
-5411.99529
-2592.8169
9489.47372
9922.69971
-1727.81292
-5781.04438
830.371895
9748.76311
8570.2368
-2724.27211
-5325.98206
-842.541233
9554.32591
6897.97855
-2886.12507
-1160.04978
9639.92097
9784.44192
-977.599521
-5290.59513
-450.751727
9515.87487
7601.83753
-2348.10286
-2340.32055
9281.67658
10111.4263
1319.35325
-4248.89067
-3866.33584
-4964.39148
-3619.00254
8925.75566
9129.44256
-2187.79552
-2743.46285
8513.4471
9532.34696
-160.656757
-5459.86662
-3709.63214
8683.73934
8959.69145
-2400.91275
-2956.54884
8419.16112
8882.55555
-2541.01583
-2988.14857
8360.27546
8700.67933
-2740.95756
-3004.35485
8366.64424
8501.54334
-2930.21978
-2915.30868
8456.96514
8149.06432
-3045.86939
-2560.79792
8534.52651
8138.39009
-2826.33616
-2685.14417
8352.27618
8580.74556
-1661.82059
-5415.64044
-3933.96943
7850.69753
7458.5827
-3013.73805
-1481.65931
8517.26098
6576.26913
-2825.17142
-692.694172
8679.93442
6796.04974
-2649.30457
-1601.71425
8401.67106
8271.16813
-2112.83108
-5293.34146
-2403.86699
8067.3105
5938.37388
-2950.96927
443.414691
8811.97354
4328.73492
-2866.94778
2570.0077
9340.42751
3216.10772
-2735.63542
3222.92744
9557.74774
5995.87829
-2090.91327
-4095.68147
-2141.14773
8336.46873
10339.108
5716.41086
-2472.95284
-3895.26089
-4031.21165
-4630.86402
-3161.93928
8317.74927
10364.623
2155.10713
-2376.30739
5577.52537
9941.68367
5422.69063
-3849.58929
-4663.44702
5707.9918
9899.88761
524.685826
-2966.8699
6639.73165
10025.4488
3149.23901
-4531.7856
-4782.43331
7052.30168
10005.7553
3271.17974
-4589.62499
-4797.50816
7401.41599
10005.9811
2731.96134
-5011.35304
-5215.86664
7438.99973
10028.2879
-903.429886
-3634.1873
7540.26831
10012.5154
1455.54682
-5353.99227
-5411.42312
8138.48302
9961.35964
1766.57483
-5473.41499
-5543.95066
8315.60569
10083.6611
-1499.41599
-3810.45341
8069.49614
10061.5528
1349.30804
-5489.97375
-5531.57541
8536.19502
10073.3286
-1884.93644
-3990.80146
8304.84921
10246.7453
-1867.60304
-3387.13732
8704.09937
10188.2862
1111.0618
-5208.45911
-5118.94713
9417.71118
10084.6229
1243.71231
-5245.40351
-4898.40677
9514.06821
10124.4021
1409.6509
-5080.32675
-4690.54223
9626.25658
10142.8658
1348.90112
-5079.5372
-4606.02738
9708.88755
10153.8818
1306.01639
-5078.76075
-4558.5187
9793.85385
10154.6081
1140.12336
-5153.5055
)
;

boundaryField
{
    closed
    {
        type            lookUpEnthalpy;
        h0              nonuniform List<scalar> 0();
        value           nonuniform List<scalar> 0();
    }
    open
    {
        type            zeroGradient;
    }
    sides
    {
        type            empty;
    }
    procBoundary2to1
    {
        type            processor;
        value           uniform 436.549862;
    }
    procBoundary2to3
    {
        type            processor;
        value           uniform -4593.40717;
    }
}


// ************************************************************************* //
