/*--------------------------------*- C++ -*----------------------------------*\
| =========                 |                                                 |
| \\      /  F ield         | OpenFOAM: The Open Source CFD Toolbox           |
|  \\    /   O peration     | Version:  2306                                  |
|   \\  /    A nd           | Website:  www.openfoam.com                      |
|    \\/     M anipulation  |                                                 |
\*---------------------------------------------------------------------------*/
FoamFile
{
    version     2.0;
    format      ascii;
    arch        "LSB;label=32;scalar=64";
    class       volScalarField;
    location    "0.00122";
    object      T;
}
// * * * * * * * * * * * * * * * * * * * * * * * * * * * * * * * * * * * * * //

dimensions      [0 0 0 1 0 0 0];

internalField   nonuniform List<scalar> 
530
(
323.572069
327.788736
339.364866
340.397604
329.072419
323.659024
328.033224
339.481504
340.409648
329.062287
323.707951
328.183064
339.592675
340.394861
329.046282
323.616307
328.172577
339.548862
340.60955
329.225194
325.342801
323.633341
328.692195
339.59923
340.179629
340.008018
340.094606
329.025953
322.561679
327.101744
339.680341
340.525213
329.226213
324.748587
323.512579
326.343703
340.031016
340.042875
329.043891
322.876153
327.031602
339.979487
340.07874
329.05291
321.879151
327.06927
339.496584
340.236711
339.762704
340.294235
329.196215
324.223097
322.925272
324.785206
339.886596
340.293937
329.09753
325.084093
323.727393
326.947339
339.808276
340.192913
329.361359
325.256165
327.846646
339.803899
340.319123
329.180364
323.325343
325.660989
339.511209
340.783742
329.275078
328.762365
339.089505
340.3116
329.413063
326.539111
327.244891
323.833003
326.603856
339.012555
340.402898
340.077614
328.822128
321.915628
323.578526
338.954481
340.501027
329.393767
326.994808
338.741528
340.035017
329.174103
321.414764
322.856105
339.019523
340.3988
329.550079
326.775137
338.578081
340.407996
329.671221
327.052632
338.836566
339.969678
329.320716
322.098005
323.376492
339.415097
339.90008
329.337617
322.564592
323.954804
339.5538
339.876852
329.309377
322.607639
324.181253
339.411167
340.335986
329.567211
327.758171
339.397178
340.027574
329.369641
322.82844
324.317961
339.712336
339.927639
329.362238
323.060753
324.655127
339.788515
339.933405
329.361823
323.130569
324.794126
339.851925
339.915099
329.287335
322.870047
324.693637
339.680748
340.373227
329.518357
327.631067
339.746191
340.022568
329.21415
322.164771
324.057613
339.699353
340.397035
329.518613
327.589485
339.793528
340.060965
329.267674
322.801871
324.780387
339.992569
339.963326
329.164703
322.550352
324.68404
339.834086
340.432982
329.459016
327.768037
339.997975
340.103882
329.20685
323.085551
325.515729
340.039093
340.020905
329.329885
323.949372
326.317462
340.088106
340.010096
329.380106
324.140309
326.400315
340.110123
340.109051
329.242682
325.537872
326.651217
323.841191
324.708612
339.828399
340.306913
329.557905
327.391967
339.789738
340.360979
329.190589
327.177802
339.974834
339.864168
329.170253
322.026443
325.126485
339.519253
340.254456
327.57619
324.891868
339.290403
340.083458
326.203401
324.030679
339.140379
340.012782
324.81718
322.810453
339.107336
340.031283
325.809977
324.028971
339.203073
340.069707
327.269229
325.48407
339.707347
339.767386
329.178482
321.374046
324.49342
339.566438
340.265327
327.236152
325.261933
339.55236
340.178456
327.291377
325.953888
340.10022
339.837863
329.154638
321.898243
325.047435
339.888988
340.243966
327.870689
326.716421
340.24237
339.79227
329.179301
322.158389
325.106164
340.330918
339.816102
329.11806
322.81418
327.386092
340.148645
340.092563
327.766906
328.173172
340.430295
339.775868
328.970621
323.379064
326.972349
340.288863
340.104227
329.878181
326.844244
323.700416
328.273209
340.498773
339.963018
328.90865
323.350388
328.909867
340.449775
340.048379
329.003061
322.721957
329.18339
339.994814
336.252614
327.417295
329.34084
340.432322
339.892698
328.184953
323.153021
328.832698
340.274804
340.112754
328.936772
323.524688
328.901506
340.317844
340.10078
328.955458
323.422601
328.962511
340.281303
340.102699
328.971793
323.424022
328.560589
340.258076
340.067011
329.081989
323.760873
328.463928
340.259759
340.113212
329.06143
323.510338
327.912374
340.16825
340.10301
329.163955
323.226712
325.925606
339.906798
339.799121
329.668317
322.544152
322.575948
332.434077
339.956517
339.689372
328.94606
322.435327
328.520989
339.525203
340.295998
328.913595
321.766917
329.040926
339.624733
338.869764
328.212872
322.649192
328.996333
339.237355
335.225916
327.964406
329.35003
339.671532
340.258688
328.646963
322.817671
328.827515
339.14873
336.578782
329.088032
329.121653
339.191367
340.194428
329.288395
325.096445
325.90338
323.508965
326.432082
338.787009
339.473773
329.41242
328.301426
338.482452
339.725697
328.955356
322.36384
326.239201
338.583001
339.46424
328.968488
327.847036
338.278583
339.274807
328.677986
327.778071
338.269794
339.068879
328.262376
327.741052
338.316694
338.782417
327.870699
327.922909
338.478086
338.119753
327.631859
328.642306
338.542047
337.964118
328.083735
328.408859
338.446578
338.521047
328.694769
322.482064
325.764072
337.610361
336.468966
327.693766
328.904417
338.427028
334.6254
328.075138
328.655991
338.528706
334.943094
328.438081
329.19363
338.290282
337.82754
328.625889
322.798653
328.823646
337.887379
333.485636
327.808398
328.657095
338.716127
331.245516
327.968857
329.753543
339.321567
330.272928
328.236982
330.412348
339.540227
333.106268
328.749536
325.41461
328.959909
337.657573
340.290729
332.577708
328.665834
325.845573
325.555968
324.272866
327.359615
337.65079
340.280278
329.889459
328.946606
333.905687
339.739917
332.227544
325.942748
324.221998
333.782052
339.884935
329.467863
327.772256
335.596477
339.757275
330.280863
324.478619
323.957837
335.976264
339.708801
330.341125
324.360944
323.927114
336.634822
339.695971
330.017
323.438243
323.053183
336.683849
340.084768
329.435287
326.389806
337.427088
339.869133
329.586704
322.704545
322.592897
337.905389
339.731895
329.575115
322.431691
322.339703
338.070773
340.072014
329.413942
326.024103
338.320265
339.759447
329.509117
322.386304
322.368392
338.317641
340.159495
329.555549
325.644183
338.486496
340.13707
329.530222
326.90702
338.812432
339.909801
329.439146
323.051513
323.229388
339.555281
339.895547
329.374369
322.976087
323.713113
339.662164
339.918972
329.412529
323.335161
324.160125
339.770317
339.930281
329.377312
323.339892
324.343089
339.867765
339.95161
329.347024
323.346051
324.446494
339.973376
339.976878
329.276938
323.191112
)
;

boundaryField
{
    closed
    {
        type            fixedValue;
        value           nonuniform List<scalar> 0();
    }
    open
    {
        type            zeroGradient;
    }
    sides
    {
        type            empty;
    }
    procBoundary2to1
    {
        type            processor;
        value           uniform 329.074201;
    }
    procBoundary2to3
    {
        type            processor;
        value           uniform 324.375177;
    }
}


// ************************************************************************* //
