/*--------------------------------*- C++ -*----------------------------------*\
| =========                 |                                                 |
| \\      /  F ield         | OpenFOAM: The Open Source CFD Toolbox           |
|  \\    /   O peration     | Version:  2306                                  |
|   \\  /    A nd           | Website:  www.openfoam.com                      |
|    \\/     M anipulation  |                                                 |
\*---------------------------------------------------------------------------*/
FoamFile
{
    version     2.0;
    format      ascii;
    arch        "LSB;label=32;scalar=64";
    class       volScalarField;
    location    "0.00138";
    object      prefDPV_H2;
}
// * * * * * * * * * * * * * * * * * * * * * * * * * * * * * * * * * * * * * //

dimensions      [1 -1 -1 0 0 0 0];

internalField   nonuniform List<scalar> 
531
(
-3.14434507e-05
-3.15219459e-05
-3.0934676e-05
-3.05857364e-05
-3.05881742e-05
-3.1438982e-05
-3.15221045e-05
-3.09326023e-05
-3.05584991e-05
-3.05611277e-05
-3.14366604e-05
-3.15172552e-05
-3.09236301e-05
-3.04930367e-05
-3.05022851e-05
-3.1416153e-05
-3.1545949e-05
-3.09509697e-05
-3.07565491e-05
-3.14306212e-05
-3.15512353e-05
-3.09486689e-05
-3.07526906e-05
-3.14290485e-05
-3.15295149e-05
-3.0925334e-05
-3.04669012e-05
-3.0471467e-05
-3.1391396e-05
-3.15014691e-05
-3.0925209e-05
-3.02570132e-05
-3.02681067e-05
-3.13450612e-05
-3.15108641e-05
-3.14765883e-05
-3.15240663e-05
-3.15142864e-05
-3.15287884e-05
-3.09657834e-05
-3.07005171e-05
-3.07060862e-05
-3.04722996e-05
-3.04768189e-05
-3.13604076e-05
-3.14998353e-05
-3.09258383e-05
-3.03613968e-05
-3.03693603e-05
-3.14324239e-05
-3.15347515e-05
-3.15074526e-05
-3.09193135e-05
-3.05132606e-05
-3.05190281e-05
-3.13354225e-05
-3.15393081e-05
-3.09438224e-05
-3.08182316e-05
-3.14208592e-05
-3.15322547e-05
-3.09261868e-05
-3.0704736e-05
-3.07177911e-05
-3.04262132e-05
-3.04353267e-05
-3.13010266e-05
-3.15261283e-05
-3.14832993e-05
-3.15430411e-05
-3.15120468e-05
-3.09293679e-05
-3.05325471e-05
-3.05322992e-05
-3.13929722e-05
-3.15250499e-05
-3.09284611e-05
-3.05310598e-05
-3.05345514e-05
-3.14205527e-05
-3.15210879e-05
-3.09310247e-05
-3.05717738e-05
-3.05742821e-05
-3.14343757e-05
-3.15238275e-05
-3.09331773e-05
-3.06019402e-05
-3.06026137e-05
-3.14521386e-05
-3.15264723e-05
-3.09345196e-05
-3.06388924e-05
-3.06402488e-05
-3.14663546e-05
-3.15469942e-05
-3.09345468e-05
-3.08065975e-05
-3.06031838e-05
-3.06079553e-05
-3.14632102e-05
-3.15440602e-05
-3.09368404e-05
-3.08128676e-05
-3.14953755e-05
-3.15391757e-05
-3.09190967e-05
-3.05767223e-05
-3.05771834e-05
-3.14977634e-05
-3.15251224e-05
-3.0924196e-05
-3.05516863e-05
-3.05537142e-05
-3.15161239e-05
-3.15152452e-05
-3.0920085e-05
-3.0461933e-05
-3.06202171e-05
-3.1535361e-05
-3.15419265e-05
-3.15247586e-05
-3.09097977e-05
-3.07371042e-05
-3.04860368e-05
-3.0492048e-05
-3.15377066e-05
-3.15341308e-05
-3.09112564e-05
-3.07035947e-05
-3.15686047e-05
-3.15280136e-05
-3.09128945e-05
-3.05174337e-05
-3.05804334e-05
-3.15518937e-05
-3.15154027e-05
-3.09183255e-05
-3.05539274e-05
-3.06197719e-05
-3.15565228e-05
-3.15040924e-05
-3.0913312e-05
-3.05001545e-05
-3.0582098e-05
-3.15490253e-05
-3.15406451e-05
-3.09331973e-05
-3.07459873e-05
-3.11278305e-05
-3.15557308e-05
-3.14971845e-05
-3.09007139e-05
-3.04261842e-05
-3.05328074e-05
-3.15473852e-05
-3.1512825e-05
-3.0920784e-05
-3.0526641e-05
-3.06270589e-05
-3.15541563e-05
-3.14970405e-05
-3.09124326e-05
-3.04688845e-05
-3.05785472e-05
-3.15435612e-05
-3.15377843e-05
-3.09421112e-05
-3.08044167e-05
-3.15753892e-05
-3.15473004e-05
-3.09174072e-05
-3.0728334e-05
-3.05187308e-05
-3.05698621e-05
-3.15575955e-05
-3.15204341e-05
-3.09116485e-05
-3.06173207e-05
-3.09048551e-05
-3.15541384e-05
-3.15357546e-05
-3.09077342e-05
-3.04903031e-05
-3.05660121e-05
-3.15399141e-05
-3.15367358e-05
-3.09354728e-05
-3.0750781e-05
-3.157646e-05
-3.15233598e-05
-3.09079875e-05
-3.04294536e-05
-3.05098866e-05
-3.15317847e-05
-3.15350766e-05
-3.09419877e-05
-3.07475878e-05
-3.15677318e-05
-3.1532917e-05
-3.09124336e-05
-3.05357603e-05
-3.07010652e-05
-3.15542772e-05
-3.15321433e-05
-3.09003865e-05
-3.04779111e-05
-3.06990537e-05
-3.15531828e-05
-3.1533896e-05
-3.08968762e-05
-3.047337e-05
-3.06830129e-05
-3.15205366e-05
-3.15575173e-05
-3.09373773e-05
-3.07117307e-05
-3.15595809e-05
-3.15319717e-05
-3.09125486e-05
-3.05605337e-05
-3.07529338e-05
-3.15488245e-05
-3.1536273e-05
-3.09002339e-05
-3.04828378e-05
-3.0736733e-05
-3.15472035e-05
-3.15321199e-05
-3.08954093e-05
-3.0417205e-05
-3.07722925e-05
-3.15037872e-05
-3.15552372e-05
-3.15050568e-05
-3.15481903e-05
-3.09631831e-05
-3.07805314e-05
-3.07433435e-05
-3.06653621e-05
-3.06650886e-05
-3.03909059e-05
-3.05093265e-05
-3.15010946e-05
-3.15119667e-05
-3.15096195e-05
-3.08421972e-05
-3.06716598e-05
-3.15348e-05
-3.15126139e-05
-3.09013551e-05
-3.04232778e-05
-3.05954914e-05
-3.15112708e-05
-3.15613757e-05
-3.09383941e-05
-3.06776283e-05
-3.12756163e-05
-3.1550564e-05
-3.0945306e-05
-3.07768066e-05
-3.14856568e-05
-3.15699777e-05
-3.09319914e-05
-3.08317513e-05
-3.10423942e-05
-3.15497701e-05
-3.15489404e-05
-3.08803156e-05
-3.0594533e-05
-3.07018926e-05
-3.04786991e-05
-3.06928383e-05
-3.14709931e-05
-3.1549295e-05
-3.15163684e-05
-3.15476152e-05
-3.09339039e-05
-3.07892154e-05
-3.07819984e-05
-3.06135146e-05
-3.07249703e-05
-3.14927385e-05
-3.15494691e-05
-3.09313101e-05
-3.06673162e-05
-3.07727625e-05
-3.15013732e-05
-3.15521585e-05
-3.09004158e-05
-3.05163653e-05
-3.06438524e-05
-3.14769673e-05
-3.15750782e-05
-3.09109799e-05
-3.08465791e-05
-3.14453716e-05
-3.15434101e-05
-3.09000122e-05
-3.05171795e-05
-3.06715064e-05
-3.14863312e-05
-3.15460692e-05
-3.09008345e-05
-3.04926443e-05
-3.06412769e-05
-3.14714351e-05
-3.15651617e-05
-3.09187959e-05
-3.08667301e-05
-3.14499729e-05
-3.15394943e-05
-3.09027328e-05
-3.05230195e-05
-3.06900138e-05
-3.14882579e-05
-3.15428702e-05
-3.09036718e-05
-3.05235071e-05
-3.06906473e-05
-3.14890628e-05
-3.15460239e-05
-3.09108709e-05
-3.05798232e-05
-3.07353847e-05
-3.14803529e-05
-3.15628747e-05
-3.09203526e-05
-3.0922098e-05
-3.14610157e-05
-3.15563654e-05
-3.09131025e-05
-3.0740306e-05
-3.05860732e-05
-3.06455912e-05
-3.14864002e-05
-3.15417742e-05
-3.09246712e-05
-3.07954103e-05
-3.14326097e-05
-3.15451975e-05
-3.09061225e-05
-3.07960187e-05
-3.14202329e-05
-3.155428e-05
-3.15028989e-05
-3.08942435e-05
-3.07349313e-05
-3.06970766e-05
-3.04894675e-05
-3.05607522e-05
-3.14846693e-05
-3.15169314e-05
-3.09044237e-05
-3.04551945e-05
-3.06559831e-05
-3.14639208e-05
-3.15229368e-05
-3.09310414e-05
-3.0870212e-05
-3.14625465e-05
-3.15140751e-05
-3.0928586e-05
-3.08962924e-05
-3.14857073e-05
-3.15213192e-05
-3.08981443e-05
-3.05116114e-05
-3.073215e-05
-3.14635184e-05
-3.15103741e-05
-3.09262117e-05
-3.09109519e-05
-3.14929377e-05
-3.15143673e-05
-3.08956559e-05
-3.04817763e-05
-3.07268304e-05
-3.14609131e-05
-3.14942391e-05
-3.08811615e-05
-3.0902891e-05
-3.15051334e-05
-3.15090572e-05
-3.0894004e-05
-3.04630709e-05
-3.07305053e-05
-3.14553116e-05
-3.14757446e-05
-3.08501222e-05
-3.09129053e-05
-3.14981729e-05
-3.15009075e-05
-3.08954739e-05
-3.0427397e-05
-3.06962408e-05
-3.14490806e-05
-3.14563695e-05
-3.08195022e-05
-3.08981857e-05
-3.14739584e-05
-3.14076712e-05
-3.08492489e-05
-3.09379068e-05
-3.14684218e-05
-3.13988403e-05
-3.08650193e-05
-3.09472795e-05
-3.14745489e-05
-3.14898357e-05
-3.08894658e-05
-3.04748632e-05
-3.07446205e-05
-3.14247028e-05
-3.14093673e-05
-3.08741813e-05
-3.09330525e-05
-3.1452236e-05
-3.13523738e-05
-3.08988506e-05
-3.09312122e-05
-3.14595903e-05
-3.14892969e-05
-3.08855327e-05
-3.05512005e-05
-3.08524745e-05
-3.14150946e-05
-3.13850113e-05
-3.09484872e-05
-3.09273689e-05
-3.14457946e-05
-3.150445e-05
-3.08982428e-05
-3.06685879e-05
-3.09239632e-05
-3.14134729e-05
-3.14860791e-05
-3.09105021e-05
-3.07259831e-05
-3.05767961e-05
-3.08433104e-05
-3.14183703e-05
-3.14399493e-05
-3.08858448e-05
-3.04669792e-05
-3.08055293e-05
-3.13990087e-05
-3.12919327e-05
-3.08387961e-05
-3.0901778e-05
-3.14303287e-05
-3.12396103e-05
-3.08611859e-05
-3.08862561e-05
-3.14316278e-05
-3.11920984e-05
-3.08791949e-05
-3.08719376e-05
-3.13572817e-05
-3.15584935e-05
-3.1497327e-05
-3.08788423e-05
-3.07500571e-05
-3.06785033e-05
-3.05554312e-05
-3.08765505e-05
-3.13937181e-05
-3.15321841e-05
-3.09106586e-05
-3.06856372e-05
-3.08791702e-05
-3.14278192e-05
-3.11625785e-05
-3.09245778e-05
-3.08887642e-05
-3.14708114e-05
-3.11011385e-05
-3.09111371e-05
-3.08890164e-05
-3.14722244e-05
-3.13585891e-05
-3.08859222e-05
-3.06276438e-05
-3.0875039e-05
-3.14425183e-05
-3.13674502e-05
-3.08980079e-05
-3.06199283e-05
-3.08808603e-05
-3.14585796e-05
-3.10965998e-05
-3.09203702e-05
-3.0642389e-05
-3.05262159e-05
-3.08597063e-05
-3.14184189e-05
-3.15343574e-05
-3.15017978e-05
-3.11744018e-05
-3.08063417e-05
-3.05605962e-05
-3.09020521e-05
-3.14714192e-05
-3.09566615e-05
-3.07402608e-05
-3.0933191e-05
-3.14778313e-05
-3.10297943e-05
-3.0667983e-05
-3.05686085e-05
-3.09822824e-05
-3.14806247e-05
-3.10190175e-05
-3.06788259e-05
-3.06191683e-05
-3.10967569e-05
-3.14987793e-05
-3.09948471e-05
-3.06638458e-05
-3.06250135e-05
-3.11562801e-05
-3.15044751e-05
-3.09915252e-05
-3.06922533e-05
-3.06418887e-05
-3.10357243e-05
-3.15085433e-05
-3.13618511e-05
-3.09053721e-05
-3.06949748e-05
-3.04512044e-05
)
;

boundaryField
{
    closed
    {
        type            calculated;
        value           nonuniform List<scalar> 0();
    }
    open
    {
        type            calculated;
        value           nonuniform List<scalar> 0();
    }
    sides
    {
        type            empty;
    }
    procBoundary3to2
    {
        type            processor;
        value           uniform -3.05961217e-05;
    }
    procBoundary3to4
    {
        type            processor;
        value           uniform -3.04136127e-05;
    }
}


// ************************************************************************* //
