/*--------------------------------*- C++ -*----------------------------------*\
| =========                 |                                                 |
| \\      /  F ield         | OpenFOAM: The Open Source CFD Toolbox           |
|  \\    /   O peration     | Version:  2306                                  |
|   \\  /    A nd           | Website:  www.openfoam.com                      |
|    \\/     M anipulation  |                                                 |
\*---------------------------------------------------------------------------*/
FoamFile
{
    version     2.0;
    format      ascii;
    arch        "LSB;label=32;scalar=64";
    class       volScalarField;
    location    "0.00138";
    object      prefDZ_T;
}
// * * * * * * * * * * * * * * * * * * * * * * * * * * * * * * * * * * * * * //

dimensions      [1 -1 -1 -1 0 0 0];

internalField   nonuniform List<scalar> 
531
(
-1.23280189e-09
-1.22724039e-09
-1.20275885e-09
-1.18805147e-09
-1.18769646e-09
-1.23304227e-09
-1.22732631e-09
-1.20215177e-09
-1.18778899e-09
-1.18746112e-09
-1.23336962e-09
-1.22760994e-09
-1.20104664e-09
-1.18725735e-09
-1.18665787e-09
-1.23399995e-09
-1.22689284e-09
-1.19408137e-09
-1.18908103e-09
-1.23379113e-09
-1.22645433e-09
-1.19400315e-09
-1.18915679e-09
-1.23384976e-09
-1.2272773e-09
-1.19936231e-09
-1.18699175e-09
-1.18668218e-09
-1.23389415e-09
-1.22855462e-09
-1.19880802e-09
-1.18509408e-09
-1.18474821e-09
-1.23148894e-09
-1.22847421e-09
-1.23000561e-09
-1.22800929e-09
-1.22760126e-09
-1.22731871e-09
-1.20744211e-09
-1.18885925e-09
-1.18893397e-09
-1.18708922e-09
-1.18679588e-09
-1.23232082e-09
-1.22844505e-09
-1.20046751e-09
-1.18601965e-09
-1.18570835e-09
-1.23384798e-09
-1.22670622e-09
-1.2271391e-09
-1.20232334e-09
-1.18751106e-09
-1.1867413e-09
-1.23127021e-09
-1.22691648e-09
-1.19599377e-09
-1.18984147e-09
-1.23416065e-09
-1.22678209e-09
-1.20095356e-09
-1.18905992e-09
-1.1890046e-09
-1.18669673e-09
-1.18624538e-09
-1.22931513e-09
-1.22742967e-09
-1.22937584e-09
-1.22648564e-09
-1.22697849e-09
-1.20363717e-09
-1.18757677e-09
-1.18696972e-09
-1.23404902e-09
-1.22757381e-09
-1.20119378e-09
-1.18747257e-09
-1.18719056e-09
-1.23380851e-09
-1.22748483e-09
-1.20218682e-09
-1.18782872e-09
-1.18758154e-09
-1.23302794e-09
-1.22724862e-09
-1.20289632e-09
-1.18803774e-09
-1.18785603e-09
-1.23219491e-09
-1.22702446e-09
-1.20354842e-09
-1.18834849e-09
-1.18812029e-09
-1.23120111e-09
-1.22631945e-09
-1.20263027e-09
-1.18955218e-09
-1.18827631e-09
-1.18771351e-09
-1.23199727e-09
-1.22649612e-09
-1.1946277e-09
-1.1897645e-09
-1.23124107e-09
-1.22668503e-09
-1.1998278e-09
-1.18769886e-09
-1.18764819e-09
-1.23025117e-09
-1.22721001e-09
-1.20128497e-09
-1.18744355e-09
-1.18750156e-09
-1.22969737e-09
-1.22758451e-09
-1.20167133e-09
-1.18664094e-09
-1.18794053e-09
-1.22939317e-09
-1.22597824e-09
-1.2267175e-09
-1.19793934e-09
-1.18919319e-09
-1.18687884e-09
-1.18674313e-09
-1.22957507e-09
-1.22710806e-09
-1.19114057e-09
-1.18885893e-09
-1.22860438e-09
-1.22715478e-09
-1.19724923e-09
-1.1871479e-09
-1.18770945e-09
-1.22792693e-09
-1.22741017e-09
-1.20039103e-09
-1.18749731e-09
-1.18811727e-09
-1.22771023e-09
-1.22763781e-09
-1.20053573e-09
-1.18720588e-09
-1.18739465e-09
-1.22830213e-09
-1.22700842e-09
-1.19242341e-09
-1.18897835e-09
-1.21991306e-09
-1.22590884e-09
-1.22818076e-09
-1.19689591e-09
-1.18646547e-09
-1.18698133e-09
-1.22852509e-09
-1.22781964e-09
-1.19930214e-09
-1.18732046e-09
-1.18822802e-09
-1.22790662e-09
-1.22790574e-09
-1.19980738e-09
-1.18700513e-09
-1.18740927e-09
-1.22853314e-09
-1.22701247e-09
-1.19232383e-09
-1.18960375e-09
-1.22789808e-09
-1.226503e-09
-1.19740584e-09
-1.18901797e-09
-1.18724243e-09
-1.18748149e-09
-1.2283792e-09
-1.22740505e-09
-1.20059025e-09
-1.18810523e-09
-1.19062192e-09
-1.22726876e-09
-1.22675552e-09
-1.19930783e-09
-1.18697755e-09
-1.18731821e-09
-1.22861318e-09
-1.22698895e-09
-1.19254762e-09
-1.18929573e-09
-1.22849988e-09
-1.22742282e-09
-1.19805337e-09
-1.18652393e-09
-1.18687532e-09
-1.22910585e-09
-1.22707945e-09
-1.19195324e-09
-1.18928186e-09
-1.22872539e-09
-1.22706597e-09
-1.1992102e-09
-1.18726551e-09
-1.18886892e-09
-1.22783513e-09
-1.22716531e-09
-1.19720615e-09
-1.18668655e-09
-1.18868738e-09
-1.22795653e-09
-1.2271424e-09
-1.19692793e-09
-1.18684755e-09
-1.18834451e-09
-1.22857056e-09
-1.2264566e-09
-1.1913098e-09
-1.18883037e-09
-1.22898009e-09
-1.22709775e-09
-1.19914078e-09
-1.18756706e-09
-1.18937786e-09
-1.22790796e-09
-1.22707811e-09
-1.19644045e-09
-1.1867885e-09
-1.18910237e-09
-1.22809359e-09
-1.22729515e-09
-1.19580297e-09
-1.18647702e-09
-1.18925022e-09
-1.23005074e-09
-1.22636645e-09
-1.2282294e-09
-1.22649756e-09
-1.20723353e-09
-1.18964705e-09
-1.18924616e-09
-1.18888572e-09
-1.18856056e-09
-1.186458e-09
-1.18719241e-09
-1.23125418e-09
-1.22690053e-09
-1.22807971e-09
-1.19032358e-09
-1.18898723e-09
-1.23003942e-09
-1.22786887e-09
-1.19616518e-09
-1.18646045e-09
-1.18759105e-09
-1.22938288e-09
-1.22671242e-09
-1.19248023e-09
-1.1883001e-09
-1.22806069e-09
-1.22682926e-09
-1.19434951e-09
-1.18928093e-09
-1.23178928e-09
-1.22621087e-09
-1.19443106e-09
-1.1897925e-09
-1.21441473e-09
-1.22629954e-09
-1.22727896e-09
-1.19320704e-09
-1.18832231e-09
-1.188476e-09
-1.18726093e-09
-1.18872995e-09
-1.23142379e-09
-1.22673221e-09
-1.22787967e-09
-1.22673442e-09
-1.2042317e-09
-1.18967938e-09
-1.18939023e-09
-1.18815235e-09
-1.18906654e-09
-1.23013083e-09
-1.22652234e-09
-1.20369545e-09
-1.18844526e-09
-1.18953598e-09
-1.22988766e-09
-1.22692719e-09
-1.19852338e-09
-1.18715947e-09
-1.18823521e-09
-1.23078405e-09
-1.22708694e-09
-1.19271129e-09
-1.19013777e-09
-1.23246317e-09
-1.22719294e-09
-1.19755663e-09
-1.18725607e-09
-1.18856685e-09
-1.23071354e-09
-1.22739154e-09
-1.1975351e-09
-1.18708455e-09
-1.18833514e-09
-1.2309487e-09
-1.22751947e-09
-1.19268606e-09
-1.19048341e-09
-1.2321102e-09
-1.22734698e-09
-1.19781295e-09
-1.18742735e-09
-1.18878891e-09
-1.23069642e-09
-1.22740215e-09
-1.19854391e-09
-1.18740053e-09
-1.18875581e-09
-1.23069497e-09
-1.2272363e-09
-1.19973685e-09
-1.18795035e-09
-1.18928911e-09
-1.23041221e-09
-1.22745482e-09
-1.19457626e-09
-1.1922788e-09
-1.23110117e-09
-1.22692459e-09
-1.19909813e-09
-1.18929761e-09
-1.18793577e-09
-1.18874703e-09
-1.23080918e-09
-1.22870429e-09
-1.19115127e-09
-1.19007512e-09
-1.23243882e-09
-1.22872742e-09
-1.19143425e-09
-1.18983533e-09
-1.23456349e-09
-1.22604356e-09
-1.22717492e-09
-1.19862693e-09
-1.18953901e-09
-1.18870247e-09
-1.18733928e-09
-1.18791893e-09
-1.23150488e-09
-1.22878207e-09
-1.1962287e-09
-1.18720155e-09
-1.1887761e-09
-1.23145712e-09
-1.22953498e-09
-1.19138029e-09
-1.19103764e-09
-1.23116392e-09
-1.2296722e-09
-1.19129069e-09
-1.19122643e-09
-1.23072444e-09
-1.22851365e-09
-1.19601984e-09
-1.18780256e-09
-1.18943625e-09
-1.2314154e-09
-1.2300641e-09
-1.1913651e-09
-1.19139037e-09
-1.23044797e-09
-1.22890848e-09
-1.19480995e-09
-1.18756727e-09
-1.18935173e-09
-1.23171691e-09
-1.23088789e-09
-1.19098533e-09
-1.19132474e-09
-1.23009074e-09
-1.22930325e-09
-1.19381132e-09
-1.18742777e-09
-1.18935687e-09
-1.23204434e-09
-1.2316855e-09
-1.19074782e-09
-1.19136912e-09
-1.23043092e-09
-1.22983829e-09
-1.19277246e-09
-1.18709453e-09
-1.18904618e-09
-1.23259599e-09
-1.23255078e-09
-1.19046875e-09
-1.19118088e-09
-1.23111919e-09
-1.23405401e-09
-1.19060635e-09
-1.1914109e-09
-1.23122067e-09
-1.23421415e-09
-1.19073445e-09
-1.19154489e-09
-1.23127167e-09
-1.23037245e-09
-1.19329939e-09
-1.18754767e-09
-1.18945585e-09
-1.23329207e-09
-1.23399354e-09
-1.19091854e-09
-1.19214653e-09
-1.23161337e-09
-1.23225521e-09
-1.19099673e-09
-1.192437e-09
-1.2315619e-09
-1.23031021e-09
-1.19449595e-09
-1.18822122e-09
-1.1902933e-09
-1.23310211e-09
-1.23391475e-09
-1.19182664e-09
-1.19368992e-09
-1.23147916e-09
-1.22925002e-09
-1.19847014e-09
-1.18929804e-09
-1.19120951e-09
-1.23275336e-09
-1.2305044e-09
-1.19786644e-09
-1.18925551e-09
-1.18802204e-09
-1.19030984e-09
-1.23354663e-09
-1.23243722e-09
-1.19223435e-09
-1.18733316e-09
-1.18973519e-09
-1.23417273e-09
-1.22910357e-09
-1.19036841e-09
-1.19254241e-09
-1.23260026e-09
-1.22633341e-09
-1.19044721e-09
-1.19351205e-09
-1.2323476e-09
-1.22367946e-09
-1.19084485e-09
-1.19438857e-09
-1.23270622e-09
-1.226507e-09
-1.22877812e-09
-1.1951233e-09
-1.18979266e-09
-1.18829172e-09
-1.18782429e-09
-1.19027691e-09
-1.23372854e-09
-1.22856244e-09
-1.20174955e-09
-1.18907017e-09
-1.19457739e-09
-1.23199289e-09
-1.2220349e-09
-1.19131859e-09
-1.19966961e-09
-1.23034044e-09
-1.21824332e-09
-1.1907372e-09
-1.19935538e-09
-1.23029947e-09
-1.23277786e-09
-1.19152297e-09
-1.18860452e-09
-1.19677774e-09
-1.23126408e-09
-1.23321744e-09
-1.190918e-09
-1.18848649e-09
-1.20001639e-09
-1.23055521e-09
-1.21793652e-09
-1.19113751e-09
-1.18801068e-09
-1.18730686e-09
-1.19522774e-09
-1.23274331e-09
-1.22739078e-09
-1.22789518e-09
-1.22282419e-09
-1.18954136e-09
-1.18768096e-09
-1.20333724e-09
-1.23017703e-09
-1.20699829e-09
-1.18927271e-09
-1.20655073e-09
-1.22981787e-09
-1.21320309e-09
-1.18859461e-09
-1.18764074e-09
-1.21049089e-09
-1.22927944e-09
-1.21222393e-09
-1.18890301e-09
-1.18813167e-09
-1.21807419e-09
-1.22843209e-09
-1.21005075e-09
-1.18878074e-09
-1.18815836e-09
-1.22153733e-09
-1.22807279e-09
-1.20959404e-09
-1.18894696e-09
-1.18833752e-09
-1.21408435e-09
-1.22776622e-09
-1.23303935e-09
-1.19148585e-09
-1.18937396e-09
-1.18627247e-09
)
;

boundaryField
{
    closed
    {
        type            calculated;
        value           nonuniform List<scalar> 0();
    }
    open
    {
        type            calculated;
        value           nonuniform List<scalar> 0();
    }
    sides
    {
        type            empty;
    }
    procBoundary3to2
    {
        type            processor;
        value           uniform -1.1877834e-09;
    }
    procBoundary3to4
    {
        type            processor;
        value           uniform -1.18612364e-09;
    }
}


// ************************************************************************* //
