/*--------------------------------*- C++ -*----------------------------------*\
| =========                 |                                                 |
| \\      /  F ield         | OpenFOAM: The Open Source CFD Toolbox           |
|  \\    /   O peration     | Version:  2306                                  |
|   \\  /    A nd           | Website:  www.openfoam.com                      |
|    \\/     M anipulation  |                                                 |
\*---------------------------------------------------------------------------*/
FoamFile
{
    version     2.0;
    format      ascii;
    arch        "LSB;label=32;scalar=64";
    class       volScalarField;
    location    "0.0017";
    object      T;
}
// * * * * * * * * * * * * * * * * * * * * * * * * * * * * * * * * * * * * * //

dimensions      [0 0 0 1 0 0 0];

internalField   nonuniform List<scalar> 
530
(
1439.13181
1442.67522
1450.31036
1450.77933
1444.28795
1447.04959
1455.15626
1455.17092
1448.97294
1451.09638
1459.16568
1459.22811
1453.20784
1454.90877
1462.66317
1462.596
1456.84077
1458.64056
1465.62753
1465.99865
1460.28456
1461.9984
1468.91803
1469.18968
1463.9073
1464.935
1472.06147
1472.20612
1467.3226
1467.87516
1475.21946
1475.16323
1470.44004
1470.98363
1478.2275
1478.11339
1473.41248
1473.95014
1481.11837
1481.02911
1476.29967
1476.82525
1483.76582
1483.89389
1479.05702
1479.66841
1485.99894
1486.62744
1481.75475
1482.34231
1488.41375
1489.19231
1484.45153
1484.89376
1490.90866
1491.50576
1486.95109
1487.35731
1493.55346
1493.82393
1489.15384
1489.79907
1495.79974
1495.98046
1491.36081
1491.79002
1497.75735
1497.92034
1493.44058
1493.78614
1499.65432
1499.82264
1495.43697
1495.83198
1501.47483
1501.69633
1497.34003
1497.84021
1503.22438
1503.54624
1499.23579
1499.81821
1505.02084
1505.38942
1501.13165
1501.75653
1506.85317
1507.20039
1503.00513
1503.67466
1508.81255
1509.00269
1504.88115
1505.55607
1510.81036
1510.93713
1506.96642
1507.51925
1512.8645
1512.92765
1509.01237
1509.58679
1514.86449
1514.92335
1511.04148
1511.63069
1516.84686
1516.92452
1513.0649
1513.65165
1518.80069
1518.91062
1515.0849
1515.66937
1520.74302
1520.88924
1517.09795
1517.68497
1522.67734
1522.84031
1519.10854
1519.68457
1524.60504
1524.78435
1521.12691
1521.68254
1526.55129
1526.74849
1523.16865
1523.68436
1528.51818
1528.69113
1525.1817
1525.67393
1530.49229
1530.63913
1527.20171
1527.66812
1532.46488
1532.59611
1529.22341
1529.6902
1534.43565
1534.58109
1531.24984
1531.73587
1536.40666
1536.59317
1533.28358
1533.80351
1538.37962
1538.62551
1535.32953
1535.89007
1540.37249
1540.68059
1537.39508
1537.99565
1542.37668
1542.75702
1539.46253
1540.12472
1544.53504
1544.86991
1541.6301
1542.25571
1546.80835
1547.09833
1543.96582
1544.56796
1549.12795
1549.39765
1546.31686
1546.92159
1551.48944
1551.7462
1548.68684
1549.28484
1553.86627
1554.11241
1551.07679
1551.66486
1556.26302
1556.51026
1553.49297
1554.06633
1558.69521
1558.92603
1555.91923
1556.46586
1561.11885
1561.3316
1558.35441
1558.87288
1563.45155
1563.72954
1560.80899
1561.2762
1565.60144
1565.98573
1562.9402
1563.53063
1567.68033
1568.11883
1565.0768
1565.66274
1569.72393
1570.18213
1567.21909
1567.80231
1571.79164
1572.22651
1569.35959
1569.93721
1573.86456
1574.25813
1571.49363
1572.05949
1575.94167
1576.28019
1573.61551
1574.1655
1578.01363
1578.29242
1575.71724
1576.25578
1580.05762
1580.2866
1577.79509
1578.32773
1582.05982
1582.25647
1579.84054
1580.3839
1584.08622
1584.232
1581.9046
1582.41708
1586.13139
1586.23531
1583.98803
1584.49977
1588.16249
1588.23815
1586.03494
1586.55048
1590.16262
1590.21763
1588.04942
1588.56172
1592.09643
1592.15916
1590.02598
1590.53181
1593.98864
1594.06037
1591.97074
1592.46233
1595.85499
1595.92667
1593.88504
1594.35727
1597.69961
1597.76507
1595.77279
1596.22479
1599.5279
1599.58858
1597.63906
1598.07599
1601.34665
1601.4141
1599.48918
1599.92047
1603.16258
1603.25309
1601.32563
1601.75815
1604.97888
1605.09734
1603.14545
1603.57071
1606.7776
1606.89958
1604.9306
1605.33353
1608.51614
1608.59608
1606.63031
1607.04927
1610.16843
1610.22367
1608.23785
1608.79962
1611.74959
1611.7938
1609.63573
1610.45755
1613.08553
1613.27649
1610.9272
1611.9199
1614.27646
1614.6643
1612.31924
1613.30816
1615.61906
1615.99362
1613.79082
1614.66156
1617.05928
1617.30329
1615.28273
1616.01793
1618.4503
1618.60689
1616.73065
1617.37788
1619.79836
1619.92646
1618.11997
1618.78159
1621.0837
1621.26856
1619.3608
1620.18512
1622.2845
1622.52748
1620.58312
1621.52965
1623.42456
1623.71665
1621.74991
1622.81071
1624.54165
1624.86688
1622.92474
1624.03988
1625.64395
1625.96752
1624.07198
1625.19943
1626.7395
1627.0255
1625.22892
1626.30207
1627.82976
1628.04
1626.37543
1627.35294
1628.83753
1629.01399
1627.50402
1628.36859
1629.80264
1629.9535
1628.5838
1629.35551
1630.73742
1630.86293
1629.62391
1630.31327
1631.63788
1631.74133
1630.62074
1631.2394
1632.50183
1632.58815
1631.57192
1632.13289
1633.32855
1633.40198
1632.47877
1632.99249
1634.11955
1634.18654
1633.34735
1633.81897
1634.87945
1634.93712
1634.17396
1634.60157
1635.60225
1635.65049
1634.9587
1635.34614
1636.28993
1636.33003
1635.70156
1636.05417
1636.94243
1636.97705
1636.40418
1636.75254
1637.57888
1637.59231
1637.06775
1637.39042
1638.16271
1638.17523
1637.69421
1637.99411
1638.71397
1638.72617
1638.28533
1638.56478
1639.23454
1639.24656
1638.84307
1639.08458
1639.71218
1639.73727
1639.36856
1639.59293
1640.17612
1640.19982
1639.86293
1640.0707
1640.61283
1640.63495
1640.32796
1640.51942
1641.02364
1641.04368
1640.76507
1640.95383
1641.41975
1641.42713
1641.17564
1641.34692
1641.7813
1641.78809
1641.55993
1641.72191
1642.11942
1642.12729
1641.90907
1642.07461
1642.43378
1642.44474
1642.2394
1642.39997
1642.7285
1642.73882
1642.55157
1642.69282
1643.01404
1643.02657
1642.87174
1642.98118
1643.32985
1643.34276
1643.17365
1643.29824
1643.60352
1643.68573
1643.61374
1643.71584
1643.7947
1643.8962
1643.94678
1644.05177
1644.11465
1644.22557
1644.29797
1644.40784
1644.48949
1644.59675
1644.68328
1644.78892
1644.88386
1644.98069
1645.07471
1645.16753
1645.26132
1645.34367
1645.43748
1645.51525
1645.59485
1645.66395
1645.72883
1645.78653
1645.83629
1645.88105
1645.91629
1645.94793
1645.97046
1645.99031
1646.00293
1646.01356
1646.0195
1646.02417
1646.02643
1646.02816
1646.02736
1646.02514
1646.02361
1646.0225
1646.02182
1646.02141
1646.0212
1646.02109
1646.02104
1646.02102
1646.02101
1646.02101
1646.021
1646.021
1646.021
1646.021
1646.021
1646.021
1646.021
1646.021
1646.021
1646.021
1646.021
1646.021
1646.021
1646.021
1646.021
1646.021
1646.021
1646.021
1646.021
1646.021
1646.021
1646.021
1646.021
1646.021
)
;

boundaryField
{
    closed
    {
        type            fixedValue;
        value           nonuniform List<scalar> 0();
    }
    open
    {
        type            zeroGradient;
    }
    sides
    {
        type            empty;
    }
    procBoundary5to4
    {
        type            processor;
        value           uniform 1446.02182;
    }
}


// ************************************************************************* //
