/*--------------------------------*- C++ -*----------------------------------*\
| =========                 |                                                 |
| \\      /  F ield         | OpenFOAM: The Open Source CFD Toolbox           |
|  \\    /   O peration     | Version:  2306                                  |
|   \\  /    A nd           | Website:  www.openfoam.com                      |
|    \\/     M anipulation  |                                                 |
\*---------------------------------------------------------------------------*/
FoamFile
{
    version     2.0;
    format      ascii;
    arch        "LSB;label=32;scalar=64";
    class       volScalarField;
    location    "0.00016";
    object      PV;
}
// * * * * * * * * * * * * * * * * * * * * * * * * * * * * * * * * * * * * * //

dimensions      [0 0 0 0 0 0 0];

internalField   nonuniform List<scalar> 
530
(
-0.00715977027
-0.00715974165
-0.00715973271
-0.0071597447
-0.00715975099
-0.00715974679
-0.00715974353
-0.00715974478
-0.00715974617
-0.00715974587
-0.00715974538
-0.00715974545
-0.00715974561
-0.00715974561
-0.00715974558
-0.00715974558
-0.00715974559
-0.0071597456
-0.00715974561
-0.00715974562
-0.00715974562
-0.00715974562
-0.00715974563
-0.00715974565
-0.00715974565
-0.00715974565
-0.00715974565
-0.00715974567
-0.00715974568
-0.00715974568
-0.00715974568
-0.00715974568
-0.0071597457
-0.00715974571
-0.00715974571
-0.00715974571
-0.00715974571
-0.00715974573
-0.00715974574
-0.00715974574
-0.00715974574
-0.00715974575
-0.00715974575
-0.00715974576
-0.00715974577
-0.00715974577
-0.00715974578
-0.00715974578
-0.00715974578
-0.0071597458
-0.0071597458
-0.0071597458
-0.0071597458
-0.00715974581
-0.00715974582
-0.00715974582
-0.00715974582
-0.00715974583
-0.00715974584
-0.00715974584
-0.00715974585
-0.00715974585
-0.00715974586
-0.00715974586
-0.00715974586
-0.00715974587
-0.00715974588
-0.00715974588
-0.00715974588
-0.00715974589
-0.00715974589
-0.0071597459
-0.0071597459
-0.00715974591
-0.00715974591
-0.00715974592
-0.00715974592
-0.00715974593
-0.00715974593
-0.00715974594
-0.00715974594
-0.00715974595
-0.00715974595
-0.00715974595
-0.00715974596
-0.00715974596
-0.00715974597
-0.00715974597
-0.00715974598
-0.00715974598
-0.00715974599
-0.00715974599
-0.007159746
-0.007159746
-0.00715974601
-0.00715974601
-0.00715974602
-0.00715974602
-0.00715974603
-0.00715974603
-0.00715974604
-0.00715974604
-0.00715974605
-0.00715974605
-0.00715974606
-0.00715974606
-0.00715974607
-0.00715974607
-0.00715974608
-0.00715974608
-0.00715974609
-0.00715974609
-0.0071597461
-0.0071597461
-0.00715974611
-0.00715974611
-0.00715974612
-0.00715974612
-0.00715974613
-0.00715974613
-0.00715974614
-0.00715974614
-0.00715974615
-0.00715974615
-0.00715974616
-0.00715974616
-0.00715974617
-0.00715974618
-0.00715974618
-0.00715974619
-0.00715974619
-0.0071597462
-0.0071597462
-0.00715974621
-0.00715974621
-0.00715974622
-0.00715974622
-0.00715974623
-0.00715974623
-0.00715974624
-0.00715974624
-0.00715974625
-0.00715974626
-0.00715974626
-0.00715974627
-0.00715974627
-0.00715974628
-0.00715974628
-0.00715974629
-0.00715974629
-0.0071597463
-0.0071597463
-0.00715974631
-0.00715974631
-0.00715974632
-0.00715974632
-0.00715974633
-0.00715974633
-0.00715974634
-0.00715974634
-0.00715974635
-0.00715974636
-0.00715974636
-0.00715974637
-0.00715974637
-0.00715974638
-0.00715974638
-0.00715974639
-0.00715974639
-0.0071597464
-0.0071597464
-0.00715974641
-0.00715974642
-0.00715974642
-0.00715974643
-0.00715974644
-0.00715974644
-0.00715974645
-0.00715974645
-0.00715974646
-0.00715974647
-0.00715974647
-0.00715974648
-0.00715974649
-0.00715974649
-0.0071597465
-0.00715974651
-0.00715974652
-0.00715974652
-0.00715974653
-0.00715974654
-0.00715974655
-0.00715974655
-0.00715974656
-0.00715974657
-0.00715974658
-0.00715974659
-0.00715974659
-0.0071597466
-0.00715974661
-0.00715974662
-0.00715974663
-0.00715974664
-0.00715974665
-0.00715974666
-0.00715974667
-0.00715974667
-0.00715974669
-0.00715974669
-0.00715974671
-0.00715974672
-0.00715974672
-0.00715974674
-0.00715974674
-0.00715974676
-0.00715974676
-0.00715974678
-0.00715974679
-0.00715974679
-0.00715974681
-0.00715974682
-0.00715974683
-0.00715974684
-0.00715974685
-0.00715974686
-0.00715974687
-0.00715974688
-0.00715974689
-0.0071597469
-0.00715974691
-0.00715974692
-0.00715974693
-0.00715974694
-0.00715974695
-0.00715974696
-0.00715974697
-0.00715974698
-0.00715974699
-0.007159747
-0.00715974701
-0.00715974702
-0.00715974703
-0.00715974704
-0.00715974705
-0.00715974706
-0.00715974707
-0.00715974708
-0.00715974709
-0.0071597471
-0.00715974711
-0.00715974712
-0.00715974713
-0.00715974714
-0.00715974715
-0.00715974716
-0.00715974717
-0.00715974718
-0.00715974719
-0.0071597472
-0.00715974721
-0.00715974722
-0.00715974722
-0.00715974724
-0.00715974724
-0.00715974725
-0.00715974726
-0.00715974727
-0.00715974728
-0.00715974729
-0.0071597473
-0.00715974731
-0.00715974732
-0.00715974733
-0.00715974734
-0.00715974734
-0.00715974735
-0.00715974736
-0.00715974737
-0.00715974738
-0.00715974738
-0.00715974739
-0.0071597474
-0.00715974741
-0.00715974742
-0.00715974743
-0.00715974743
-0.00715974744
-0.00715974745
-0.00715974746
-0.00715974746
-0.00715974747
-0.00715974748
-0.00715974748
-0.00715974749
-0.0071597475
-0.00715974751
-0.00715974751
-0.00715974752
-0.00715974752
-0.00715974753
-0.00715974753
-0.00715974754
-0.00715974754
-0.00715974755
-0.00715974755
-0.00715974756
-0.00715974756
-0.00715974757
-0.00715974757
-0.00715974758
-0.00715974758
-0.00715974759
-0.00715974759
-0.0071597476
-0.0071597476
-0.0071597476
-0.0071597476
-0.00715974761
-0.00715974761
-0.00715974761
-0.00715974762
-0.00715974762
-0.00715974762
-0.00715974762
-0.00715974763
-0.00715974763
-0.00715974763
-0.00715974763
-0.00715974764
-0.00715974764
-0.00715974764
-0.00715974764
-0.00715974764
-0.00715974764
-0.00715974764
-0.00715974765
-0.00715974765
-0.00715974765
-0.00715974765
-0.00715974765
-0.00715974765
-0.00715974765
-0.00715974765
-0.00715974766
-0.00715974766
-0.00715974766
-0.00715974766
-0.00715974766
-0.00715974766
-0.00715974767
-0.00715974767
-0.00715974767
-0.00715974767
-0.00715974768
-0.00715974768
-0.00715974768
-0.00715974768
-0.00715974768
-0.00715974769
-0.00715974769
-0.00715974769
-0.00715974769
-0.0071597477
-0.0071597477
-0.0071597477
-0.0071597477
-0.00715974771
-0.00715974771
-0.00715974771
-0.00715974771
-0.00715974772
-0.00715974772
-0.00715974773
-0.00715974773
-0.00715974773
-0.00715974773
-0.00715974774
-0.00715974774
-0.00715974775
-0.00715974775
-0.00715974775
-0.00715974776
-0.00715974776
-0.00715974776
-0.00715974777
-0.00715974777
-0.00715974778
-0.00715974778
-0.00715974778
-0.00715974779
-0.00715974779
-0.0071597478
-0.0071597478
-0.0071597478
-0.00715974781
-0.00715974781
-0.00715974782
-0.00715974782
-0.00715974782
-0.00715974783
-0.00715974783
-0.00715974783
-0.00715974784
-0.00715974784
-0.00715974785
-0.00715974785
-0.00715974785
-0.00715974786
-0.00715974786
-0.00715974786
-0.00715974787
-0.00715974787
-0.00715974788
-0.00715974788
-0.00715974789
-0.00715974789
-0.00715974789
-0.0071597479
-0.0071597479
-0.00715974791
-0.00715974791
-0.00715974792
-0.00715974792
-0.00715974792
-0.00715974793
-0.00715974793
-0.00715974794
-0.00715974794
-0.00715974795
-0.00715974795
-0.00715974796
-0.00715974796
-0.00715974797
-0.00715974797
-0.00715974798
-0.00715974798
-0.00715974799
-0.007159748
-0.007159748
-0.00715974801
-0.00715974801
-0.00715974802
-0.00715974802
-0.00715974803
-0.00715974804
-0.00715974805
-0.00715974805
-0.00715974806
-0.00715974806
-0.00715974807
-0.00715974808
-0.00715974809
-0.00715974809
-0.0071597481
-0.00715974811
-0.00715974812
-0.00715974812
-0.00715974813
-0.00715974814
-0.00715974815
-0.00715974816
-0.00715974817
-0.00715974818
-0.00715974818
-0.00715974819
-0.0071597482
-0.00715974821
-0.00715974822
-0.00715974823
-0.00715974824
-0.00715974825
-0.00715974826
-0.00715974827
-0.00715974828
-0.00715974828
-0.0071597483
-0.0071597483
-0.00715974831
-0.00715974832
-0.00715974833
-0.00715974834
-0.00715974835
-0.00715974836
-0.00715974837
-0.00715974838
-0.00715974839
-0.0071597484
-0.00715974841
-0.00715974842
-0.00715974842
-0.00715974843
-0.00715974844
-0.00715974845
-0.00715974846
-0.00715974847
-0.00715974848
-0.00715974848
-0.00715974849
-0.00715974851
-0.00715974851
-0.0071597485
-0.00715974847
-0.0071597485
-0.00715974874
-0.00715974876
-0.00715974799
-0.00715974747
-0.00715974931
-0.00715975237
-0.00715975078
-0.00715973795
-0.00715973703
-0.00715976499
-0.00715978315
-0.00715974264
-0.00715967658
-0.00715969867
-0.00715986037
-0.00715987112
-0.00715966474
-0.00715955832
-0.00715973625
-0.00715995877
-0.00715987726
-0.00715957057
-0.00715958098
-0.00715984297
-0.00715988752
-0.00715973037
-0.00715965804
)
;

boundaryField
{
    closed
    {
        type            zeroGradient;
    }
    open
    {
        type            zeroGradient;
    }
    sides
    {
        type            empty;
    }
    procBoundary2to1
    {
        type            processor;
        value           uniform -0.00715976347;
    }
    procBoundary2to3
    {
        type            processor;
        value           uniform -0.00715973351;
    }
}


// ************************************************************************* //
