/*--------------------------------*- C++ -*----------------------------------*\
| =========                 |                                                 |
| \\      /  F ield         | OpenFOAM: The Open Source CFD Toolbox           |
|  \\    /   O peration     | Version:  2306                                  |
|   \\  /    A nd           | Website:  www.openfoam.com                      |
|    \\/     M anipulation  |                                                 |
\*---------------------------------------------------------------------------*/
FoamFile
{
    version     2.0;
    format      ascii;
    arch        "LSB;label=32;scalar=64";
    class       volScalarField;
    location    "0.00044";
    object      H2;
}
// * * * * * * * * * * * * * * * * * * * * * * * * * * * * * * * * * * * * * //

dimensions      [0 0 0 0 0 0 0];

internalField   nonuniform List<scalar> 
531
(
0.0107839236
0.0106665245
0.0110313118
0.0110158813
0.0107153647
0.010665663
0.0110161331
0.0110143971
0.010714568
0.0106653873
0.0110429754
0.0110118482
0.0107799618
0.0106774368
0.010705406
0.0110401887
0.0109970316
0.0108272432
0.0106844034
0.0106605931
0.0106551181
0.0110324568
0.0110132742
0.0108069373
0.0106831974
0.010697387
0.0110417915
0.0110057634
0.0108304398
0.010660242
0.0106557307
0.0110303542
0.0110058003
0.0110712151
0.010720022
0.0106818236
0.0106626211
0.0106873925
0.0110520115
0.0110710432
0.0106871721
0.0106856792
0.0110718062
0.0110082392
0.0108353297
0.0106638708
0.0106835307
0.0110548979
0.011071921
0.0106831666
0.0106773174
0.0110680959
0.0110101798
0.0108436875
0.0106662816
0.0106633245
0.0110679435
0.0110135018
0.0108124072
0.0106707708
0.010678743
0.0110598202
0.0109995916
0.0108753476
0.0106929674
0.0106666198
0.0106610787
0.0110231024
0.0110156351
0.0108557944
0.0106747793
0.0106707638
0.0110483526
0.0110136811
0.0108556797
0.010672475
0.010684318
0.0110541552
0.0109987225
0.0106765775
0.0107280838
0.0110401403
0.0109789658
0.0106762221
0.0106919554
0.0110509305
0.0110778636
0.0106782092
0.0106861272
0.0110548665
0.0110580772
0.0106787307
0.0106838276
0.0110591263
0.0110737559
0.0106803014
0.0106913473
0.0110533746
0.0110416404
0.0106795324
0.0106947986
0.0110512173
0.011001386
0.0106838738
0.010688729
0.011051508
0.011017828
0.0108085147
0.0106626657
0.0106695361
0.0110712084
0.0109753668
0.0106775625
0.0107425976
0.0110387088
0.0108716137
0.0106803312
0.0107481524
0.0110283698
0.0110223603
0.0107539558
0.0106697547
0.0106655169
0.0109334819
0.0110232922
0.0108967115
0.0106683178
0.0106734998
0.011062627
0.0109795457
0.0106761763
0.0107450528
0.0110355517
0.0108730127
0.010679208
0.0107483634
0.0110253857
0.0110231498
0.0107445463
0.0106622106
0.0106754504
0.0110590243
0.0109503688
0.0106813188
0.0107400596
0.0110257922
0.0110184034
0.0107509321
0.0106613024
0.0106778087
0.0110555371
0.0109567127
0.0106804539
0.0107353811
0.0110253641
0.0110164102
0.0107460372
0.0106602633
0.0106796711
0.0110522717
0.0109594897
0.0106802855
0.0107303825
0.0110247301
0.0110167615
0.0107413059
0.0106597975
0.0106832422
0.0110486055
0.0109500167
0.0106801657
0.0107357533
0.0110227133
0.0110156262
0.0107333618
0.0106637632
0.0106771099
0.0110435887
0.0110153226
0.0107668672
0.0106580716
0.0106906543
0.0110417583
0.0109356146
0.0106790904
0.0107364501
0.0110210536
0.0110172347
0.010721217
0.0106584941
0.0106912242
0.0110419397
0.01093292
0.0106786645
0.0107393357
0.0110200344
0.0110186766
0.01071753
0.0106577292
0.0106902597
0.0110421474
0.0109334742
0.0106780898
0.0107414342
0.011019242
0.0110198343
0.010714895
0.0106564681
0.0106869471
0.0110439025
0.0109429104
0.0106732298
0.0107626517
0.0110243083
0.0108660088
0.0106785609
0.0107539853
0.0110156978
0.0110187495
0.0107159086
0.0106567889
0.0106870401
0.0110416373
0.0109398929
0.0106773853
0.0107355773
0.0110182685
0.0110161896
0.0107252152
0.0106563948
0.0106875247
0.0110412143
0.0109700247
0.0106787267
0.0107178527
0.0110207893
0.0110141018
0.0107374577
0.0106555887
0.0106815753
0.0110445891
0.0110475554
0.0106737486
0.010703058
0.0110346882
0.011001345
0.0106741206
0.010701344
0.0110358763
0.0110201445
0.0106727552
0.0106960973
0.0110386727
0.0110238612
0.0106725995
0.0106973755
0.0110395119
0.0109751937
0.0106720043
0.0107278119
0.011033458
0.010858047
0.0106773997
0.0107659543
0.0110184984
0.0110297887
0.0107033104
0.0106541662
0.0106998947
0.0110469439
0.0108611679
0.0106775748
0.0107631138
0.0110202263
0.0110246676
0.0107106119
0.010653725
0.0107228555
0.011041697
0.0108432628
0.0106779101
0.0107701747
0.0110193065
0.0110286913
0.0106984613
0.0106527707
0.0107336324
0.0110422679
0.0108026035
0.0106682842
0.0108914649
0.0110211957
0.0107797035
0.0106780576
0.0107798461
0.0110191174
0.0110367979
0.0106814386
0.0106517428
0.0107897697
0.0110326738
0.0107976332
0.0106762158
0.0107602585
0.0110215874
0.0110288938
0.0106839632
0.0106502774
0.0108010452
0.0110324067
0.0107936717
0.0106761882
0.0107567633
0.0110205689
0.0110237107
0.0106891826
0.0106501054
0.0108136267
0.0110308628
0.0107849818
0.0106753398
0.0107498309
0.0110198371
0.0110171022
0.0106914077
0.0106494577
0.0108245242
0.0110302809
0.0107794953
0.0106743506
0.0107478075
0.0110187656
0.0110144937
0.0106898017
0.0106503292
0.0108315122
0.011029629
0.0107722203
0.0106748212
0.0107719298
0.0110166803
0.0110319969
0.0106875392
0.0106585153
0.0107301191
0.01102507
0.0110197993
0.0106842498
0.010651338
0.0108189031
0.0110315892
0.0107534952
0.0106685608
0.0109236253
0.0110232347
0.0107366609
0.0106662505
0.0109309098
0.0110213591
0.0107316657
0.0106669424
0.010927258
0.011018547
0.0107435018
0.0106735939
0.0108173146
0.0110133976
0.0110313135
0.0106727407
0.0106522511
0.0108583035
0.0110280612
0.0107319945
0.0106656673
0.010951149
0.0110229331
0.0107181629
0.010665495
0.0109833915
0.0110199404
0.0107126651
0.0106678008
0.0109901755
0.011016327
0.0107243922
0.0106744931
0.0108523021
0.0110083446
0.0110139753
0.0106765386
0.0106595292
0.0107559893
0.0110094244
0.0110139641
0.0106959427
0.0106530882
0.0106833629
0.0110170945
0.0110066053
0.0107753364
0.01066585
0.0106852779
0.0110135082
0.0110027613
0.0107926647
0.0106775245
0.0106587505
0.010677469
0.0110142347
0.0110082512
0.0107218211
0.0106769394
0.0108067547
0.0110064722
0.0110526675
0.0106777427
0.0106588771
0.0107580285
0.0110162681
0.0110275983
0.0106753433
0.010652147
0.0108742412
0.0110258267
0.0107481154
0.010678102
0.0108370382
0.0110105929
0.0110638611
0.010672026
0.0106544553
0.0108914313
0.0110251976
0.0107367044
0.0106790995
0.0108637672
0.011011233
0.0109983102
0.0106705462
0.010656362
0.0108969233
0.011026368
0.0107326437
0.0106794744
0.0108953977
0.0110105657
0.0109753119
0.0106760078
0.0106634429
0.0107843564
0.011017647
0.0110615795
0.0106724117
0.0106554829
0.0109049583
0.0110275301
0.0107324442
0.0106806564
0.0108930233
0.0110092574
0.0109965241
0.0106783346
0.0106619561
0.0107652037
0.0110147719
0.0110209064
0.0106906384
0.0106659668
0.0107646741
0.0110144918
0.0110108182
0.0107271738
0.0106636613
0.0106572042
0.010854745
0.0110292007
0.0107569974
0.0106820748
0.0108364627
0.0110130043
0.0110696944
0.0106791787
0.010658443
0.0108369805
0.0110353945
0.0107443071
0.0106728608
0.0109325418
0.0110303115
0.0107300319
0.0106764818
0.0109431295
0.0110310953
0.0107358447
0.0106799971
0.010873609
0.0110164973
0.0109754675
0.0106797453
0.0106626214
0.0107430229
0.0110275469
0.0110326087
0.0106885971
0.0106646729
0.0107434259
0.0110298554
0.0110334352
0.0106899705
0.0106639651
0.010744187
0.011032696
0.0110338602
0.0106865588
0.0106631187
0.0108146963
0.0110443421
0.0107727057
0.0106827397
0.0108384847
0.0110212908
0.0110077869
0.0106828979
0.0106561555
0.0106834058
0.0110513136
0.0110165146
0.0107333745
0.0106877737
0.0109711467
0.0110283945
)
;

boundaryField
{
    closed
    {
        type            calculated;
        value           nonuniform List<scalar> 0();
    }
    open
    {
        type            calculated;
        value           nonuniform List<scalar> 0();
    }
    sides
    {
        type            empty;
    }
    procBoundary3to2
    {
        type            processor;
        value           uniform 0.0110554386;
    }
    procBoundary3to4
    {
        type            processor;
        value           uniform 0.0107482871;
    }
}


// ************************************************************************* //
