/*--------------------------------*- C++ -*----------------------------------*\
| =========                 |                                                 |
| \\      /  F ield         | OpenFOAM: The Open Source CFD Toolbox           |
|  \\    /   O peration     | Version:  2306                                  |
|   \\  /    A nd           | Website:  www.openfoam.com                      |
|    \\/     M anipulation  |                                                 |
\*---------------------------------------------------------------------------*/
FoamFile
{
    version     2.0;
    format      ascii;
    arch        "LSB;label=32;scalar=64";
    class       volScalarField;
    location    "0.00044";
    object      prefDPV_H2O;
}
// * * * * * * * * * * * * * * * * * * * * * * * * * * * * * * * * * * * * * //

dimensions      [1 -1 -1 0 0 0 0];

internalField   nonuniform List<scalar> 
531
(
-3.71902807e-07
-3.64904984e-07
-3.84647076e-07
-3.8428295e-07
-3.67815543e-07
-3.64936433e-07
-3.83910742e-07
-3.84218747e-07
-3.67777268e-07
-3.64944774e-07
-3.85211221e-07
-3.84109203e-07
-3.71703294e-07
-3.65590153e-07
-3.67485938e-07
-3.85329473e-07
-3.83470997e-07
-3.74259045e-07
-3.661716e-07
-3.64473769e-07
-3.64274764e-07
-3.84708061e-07
-3.84171261e-07
-3.73173614e-07
-3.65933904e-07
-3.66889124e-07
-3.85398654e-07
-3.83848214e-07
-3.74448904e-07
-3.64466231e-07
-3.64264363e-07
-3.84624404e-07
-3.83850691e-07
-3.86662037e-07
-3.68300068e-07
-3.65681263e-07
-3.64650598e-07
-3.66002873e-07
-3.85838639e-07
-3.86657527e-07
-3.6610477e-07
-3.65972112e-07
-3.86690432e-07
-3.8395489e-07
-3.74708099e-07
-3.64752388e-07
-3.6589086e-07
-3.85963219e-07
-3.86696498e-07
-3.65821715e-07
-3.65487279e-07
-3.86469259e-07
-3.84038338e-07
-3.75140845e-07
-3.64857497e-07
-3.64740266e-07
-3.86443264e-07
-3.84180753e-07
-3.73477409e-07
-3.65101966e-07
-3.65712609e-07
-3.86175034e-07
-3.83582397e-07
-3.76801608e-07
-3.66682496e-07
-3.64765515e-07
-3.64593337e-07
-3.8426017e-07
-3.84273423e-07
-3.75780267e-07
-3.65306607e-07
-3.65139334e-07
-3.85493042e-07
-3.84189447e-07
-3.75775212e-07
-3.65192938e-07
-3.65891726e-07
-3.85931465e-07
-3.83073974e-07
-3.654173e-07
-3.68812302e-07
-3.85327572e-07
-3.82094629e-07
-3.65378422e-07
-3.66389149e-07
-3.85792212e-07
-3.86951636e-07
-3.65483823e-07
-3.65889589e-07
-3.85961769e-07
-3.86100584e-07
-3.65504246e-07
-3.65728725e-07
-3.86145242e-07
-3.86775067e-07
-3.65600553e-07
-3.6627735e-07
-3.85897576e-07
-3.85184414e-07
-3.65572142e-07
-3.66620326e-07
-3.85804639e-07
-3.83207559e-07
-3.65827665e-07
-3.66197933e-07
-3.85817367e-07
-3.84366679e-07
-3.73265023e-07
-3.64491158e-07
-3.64969061e-07
-3.8666616e-07
-3.81917105e-07
-3.65423593e-07
-3.69701671e-07
-3.85265997e-07
-3.76656279e-07
-3.65710297e-07
-3.70010568e-07
-3.84820906e-07
-3.84561349e-07
-3.70217016e-07
-3.64927086e-07
-3.64791665e-07
-3.7981867e-07
-3.84602749e-07
-3.77928194e-07
-3.64889079e-07
-3.65185576e-07
-3.86296894e-07
-3.82123772e-07
-3.65375448e-07
-3.69842481e-07
-3.85130057e-07
-3.76729037e-07
-3.65658017e-07
-3.70008828e-07
-3.84692239e-07
-3.84595382e-07
-3.69719242e-07
-3.64417608e-07
-3.65396944e-07
-3.86141269e-07
-3.8066653e-07
-3.65702679e-07
-3.69520168e-07
-3.84709808e-07
-3.84390816e-07
-3.70088786e-07
-3.64393513e-07
-3.65563884e-07
-3.85991026e-07
-3.80984391e-07
-3.65651134e-07
-3.6924283e-07
-3.84691303e-07
-3.84304937e-07
-3.69812164e-07
-3.64347107e-07
-3.65699918e-07
-3.85850346e-07
-3.81123154e-07
-3.65641153e-07
-3.68938129e-07
-3.84663908e-07
-3.8432009e-07
-3.6954898e-07
-3.64327195e-07
-3.65958458e-07
-3.85692373e-07
-3.80648693e-07
-3.65640328e-07
-3.69252426e-07
-3.84577128e-07
-3.84271387e-07
-3.69064952e-07
-3.64556489e-07
-3.65559124e-07
-3.85476198e-07
-3.84258984e-07
-3.70978907e-07
-3.64296145e-07
-3.66525338e-07
-3.85397346e-07
-3.79925006e-07
-3.65588331e-07
-3.69286591e-07
-3.84505566e-07
-3.84340507e-07
-3.68389679e-07
-3.6425459e-07
-3.66552516e-07
-3.85405164e-07
-3.79789042e-07
-3.65565426e-07
-3.69452503e-07
-3.84461681e-07
-3.84402561e-07
-3.68168677e-07
-3.6419697e-07
-3.66468954e-07
-3.85414115e-07
-3.79816899e-07
-3.6553615e-07
-3.69569648e-07
-3.84427565e-07
-3.84452404e-07
-3.68007555e-07
-3.64108595e-07
-3.66221239e-07
-3.85489742e-07
-3.80292042e-07
-3.65239293e-07
-3.70826442e-07
-3.8464584e-07
-3.76366014e-07
-3.65644645e-07
-3.70299675e-07
-3.8427483e-07
-3.84405577e-07
-3.68070516e-07
-3.64133592e-07
-3.66217826e-07
-3.85392135e-07
-3.80140167e-07
-3.65502648e-07
-3.69219173e-07
-3.84385706e-07
-3.84295437e-07
-3.68605037e-07
-3.64127752e-07
-3.66212979e-07
-3.85373911e-07
-3.81648986e-07
-3.65568323e-07
-3.68111207e-07
-3.84494244e-07
-3.84206074e-07
-3.69296504e-07
-3.64078842e-07
-3.6575947e-07
-3.85519282e-07
-3.85467068e-07
-3.65207019e-07
-3.67128657e-07
-3.850929e-07
-3.83201135e-07
-3.65271466e-07
-3.67047913e-07
-3.85144034e-07
-3.84125794e-07
-3.65196353e-07
-3.66682901e-07
-3.85264441e-07
-3.84307865e-07
-3.65193884e-07
-3.66812756e-07
-3.85300585e-07
-3.81905373e-07
-3.65198458e-07
-3.68770761e-07
-3.85039789e-07
-3.75948202e-07
-3.65579204e-07
-3.70964778e-07
-3.84395926e-07
-3.84881103e-07
-3.67358723e-07
-3.63940733e-07
-3.67087541e-07
-3.85620734e-07
-3.76109621e-07
-3.65520529e-07
-3.7080945e-07
-3.84470566e-07
-3.8466032e-07
-3.67805253e-07
-3.63968571e-07
-3.68500927e-07
-3.85394682e-07
-3.75169386e-07
-3.65554899e-07
-3.71196923e-07
-3.84431003e-07
-3.84833756e-07
-3.67093596e-07
-3.63893433e-07
-3.69147506e-07
-3.85419269e-07
-3.7299594e-07
-3.64975497e-07
-3.77697129e-07
-3.84511979e-07
-3.71716691e-07
-3.65603493e-07
-3.71720498e-07
-3.84422911e-07
-3.85183315e-07
-3.66040817e-07
-3.63865209e-07
-3.72327298e-07
-3.85006146e-07
-3.72720165e-07
-3.65454678e-07
-3.70621241e-07
-3.84529204e-07
-3.84842232e-07
-3.66221548e-07
-3.63800826e-07
-3.72936884e-07
-3.84994656e-07
-3.72498516e-07
-3.65446958e-07
-3.70425982e-07
-3.84485443e-07
-3.84618642e-07
-3.66537122e-07
-3.63816496e-07
-3.73617743e-07
-3.84928172e-07
-3.72023142e-07
-3.65402291e-07
-3.70043072e-07
-3.84453849e-07
-3.84333755e-07
-3.66662041e-07
-3.63812907e-07
-3.74200859e-07
-3.84903025e-07
-3.71723786e-07
-3.65342125e-07
-3.6993632e-07
-3.8440766e-07
-3.84221398e-07
-3.66557104e-07
-3.63879506e-07
-3.74569067e-07
-3.84874911e-07
-3.71310938e-07
-3.65354315e-07
-3.71271935e-07
-3.84318254e-07
-3.84975893e-07
-3.66357524e-07
-3.64271328e-07
-3.68825453e-07
-3.84679059e-07
-3.84450519e-07
-3.66169012e-07
-3.63873212e-07
-3.73882841e-07
-3.8495949e-07
-3.70239046e-07
-3.64932746e-07
-3.79322933e-07
-3.84599736e-07
-3.69244794e-07
-3.64834602e-07
-3.79689943e-07
-3.84518835e-07
-3.6895006e-07
-3.64899663e-07
-3.79505694e-07
-3.843977e-07
-3.69649959e-07
-3.65309762e-07
-3.73767474e-07
-3.84176962e-07
-3.84682444e-07
-3.65383842e-07
-3.63890441e-07
-3.75963558e-07
-3.84807442e-07
-3.68977006e-07
-3.64757276e-07
-3.80704936e-07
-3.84586553e-07
-3.68107712e-07
-3.64778871e-07
-3.82308681e-07
-3.84457573e-07
-3.67741407e-07
-3.6495299e-07
-3.82644209e-07
-3.84301785e-07
-3.68491017e-07
-3.65386497e-07
-3.75638248e-07
-3.83959309e-07
-3.83824957e-07
-3.65644257e-07
-3.64408683e-07
-3.70377277e-07
-3.84004893e-07
-3.84198931e-07
-3.66836794e-07
-3.64023962e-07
-3.66029722e-07
-3.84333983e-07
-3.83884344e-07
-3.71447183e-07
-3.64861985e-07
-3.66145786e-07
-3.8417921e-07
-3.83718429e-07
-3.72381842e-07
-3.65662701e-07
-3.64415325e-07
-3.65663346e-07
-3.8421e-07
-3.83954103e-07
-3.68361486e-07
-3.65591535e-07
-3.73177647e-07
-3.83877798e-07
-3.85867755e-07
-3.65721615e-07
-3.64269674e-07
-3.70480723e-07
-3.84299856e-07
-3.84786398e-07
-3.65504972e-07
-3.63931454e-07
-3.7679378e-07
-3.84710901e-07
-3.69942853e-07
-3.65564796e-07
-3.74824008e-07
-3.84055899e-07
-3.86264022e-07
-3.65312616e-07
-3.64012459e-07
-3.77680508e-07
-3.84683706e-07
-3.69275117e-07
-3.65638627e-07
-3.76240994e-07
-3.84083332e-07
-3.83054639e-07
-3.65210323e-07
-3.64165781e-07
-3.77961082e-07
-3.84733978e-07
-3.69017682e-07
-3.65648037e-07
-3.77879206e-07
-3.84054666e-07
-3.81914517e-07
-3.65564624e-07
-3.64607434e-07
-3.71936876e-07
-3.84359211e-07
-3.86251675e-07
-3.65301128e-07
-3.64037504e-07
-3.78371269e-07
-3.84784176e-07
-3.68995539e-07
-3.65709315e-07
-3.77757032e-07
-3.83998313e-07
-3.82968107e-07
-3.65752554e-07
-3.6451063e-07
-3.70910056e-07
-3.84235228e-07
-3.8449786e-07
-3.66507793e-07
-3.6477969e-07
-3.70877393e-07
-3.84223455e-07
-3.84064399e-07
-3.68620704e-07
-3.6471963e-07
-3.64297325e-07
-3.75773278e-07
-3.84855986e-07
-3.70437079e-07
-3.65760941e-07
-3.74791507e-07
-3.84159712e-07
-3.86599594e-07
-3.65813372e-07
-3.64171097e-07
-3.74852781e-07
-3.85123156e-07
-3.69738856e-07
-3.65141904e-07
-3.79771986e-07
-3.84904042e-07
-3.68866831e-07
-3.6536526e-07
-3.80303388e-07
-3.84937726e-07
-3.69204631e-07
-3.65618845e-07
-3.76758298e-07
-3.84309815e-07
-3.81925354e-07
-3.65834308e-07
-3.64524429e-07
-3.6961519e-07
-3.8478533e-07
-3.85002935e-07
-3.66394433e-07
-3.64596738e-07
-3.69651388e-07
-3.84884822e-07
-3.85038612e-07
-3.66494223e-07
-3.64554714e-07
-3.69715134e-07
-3.85007124e-07
-3.85056998e-07
-3.66276866e-07
-3.64472716e-07
-3.7367697e-07
-3.85508698e-07
-3.71367684e-07
-3.65775168e-07
-3.74924913e-07
-3.84515765e-07
-3.83531248e-07
-3.66110223e-07
-3.64087412e-07
-3.66082562e-07
-3.85808999e-07
-3.84308759e-07
-3.68971578e-07
-3.66151473e-07
-3.8170128e-07
-3.84821178e-07
)
;

boundaryField
{
    closed
    {
        type            calculated;
        value           nonuniform List<scalar> 0();
    }
    open
    {
        type            calculated;
        value           nonuniform List<scalar> 0();
    }
    sides
    {
        type            empty;
    }
    procBoundary3to2
    {
        type            processor;
        value           uniform -3.859856e-07;
    }
    procBoundary3to4
    {
        type            processor;
        value           uniform -3.6995855e-07;
    }
}


// ************************************************************************* //
