/*--------------------------------*- C++ -*----------------------------------*\
| =========                 |                                                 |
| \\      /  F ield         | OpenFOAM: The Open Source CFD Toolbox           |
|  \\    /   O peration     | Version:  2306                                  |
|   \\  /    A nd           | Website:  www.openfoam.com                      |
|    \\/     M anipulation  |                                                 |
\*---------------------------------------------------------------------------*/
FoamFile
{
    version     2.0;
    format      ascii;
    arch        "LSB;label=32;scalar=64";
    class       volScalarField;
    location    "0.0018";
    object      prefDZ_T;
}
// * * * * * * * * * * * * * * * * * * * * * * * * * * * * * * * * * * * * * //

dimensions      [1 -1 -1 -1 0 0 0];

internalField   nonuniform List<scalar> 
530
(
-1.03245535e-10
-1.03087342e-10
-1.02923891e-10
-1.02782481e-10
-1.02626167e-10
-1.02491331e-10
-1.02341849e-10
-1.02213177e-10
-1.02069354e-10
-1.01945346e-10
-1.01807462e-10
-1.01688893e-10
-1.01556973e-10
-1.014435e-10
-1.01317254e-10
-1.01208556e-10
-1.01087704e-10
-1.00983481e-10
-1.00869885e-10
-1.00776132e-10
-1.00671722e-10
-1.00581618e-10
-1.00481484e-10
-1.00394841e-10
-1.00298796e-10
-1.00215441e-10
-1.00123301e-10
-1.00043072e-10
-9.99546596e-11
-9.98774039e-11
-9.97925461e-11
-9.9718119e-11
-9.96366499e-11
-9.95649133e-11
-9.94866733e-11
-9.94174946e-11
-9.93423298e-11
-9.92755819e-11
-9.92033434e-11
-9.91389041e-11
-9.90694481e-11
-9.90071997e-11
-9.89403858e-11
-9.88856136e-11
-9.88267367e-11
-9.87737692e-11
-9.87170241e-11
-9.86657154e-11
-9.86110202e-11
-9.85613143e-11
-9.85085884e-11
-9.84604317e-11
-9.84095952e-11
-9.83629374e-11
-9.83139109e-11
-9.82687045e-11
-9.82214097e-11
-9.81776095e-11
-9.81319692e-11
-9.80874954e-11
-9.80418921e-11
-9.79984521e-11
-9.79545735e-11
-9.79125222e-11
-9.78702827e-11
-9.78295654e-11
-9.77888841e-11
-9.77494464e-11
-9.77102469e-11
-9.76720338e-11
-9.76342446e-11
-9.75972007e-11
-9.75607541e-11
-9.75248235e-11
-9.74896553e-11
-9.74547827e-11
-9.74208315e-11
-9.73869619e-11
-9.7354169e-11
-9.73212481e-11
-9.72895567e-11
-9.7257531e-11
-9.72268862e-11
-9.71957039e-11
-9.71660506e-11
-9.71394922e-11
-9.71151523e-11
-9.70900022e-11
-9.7066367e-11
-9.704176e-11
-9.7018801e-11
-9.69947118e-11
-9.69724014e-11
-9.69488052e-11
-9.69271166e-11
-9.69039898e-11
-9.68828964e-11
-9.68602165e-11
-9.68396922e-11
-9.68174375e-11
-9.67974568e-11
-9.67756068e-11
-9.67561447e-11
-9.67346793e-11
-9.67157116e-11
-9.66946115e-11
-9.66761147e-11
-9.66553608e-11
-9.66373121e-11
-9.66168863e-11
-9.65992636e-11
-9.65791477e-11
-9.65619296e-11
-9.65421064e-11
-9.65252722e-11
-9.65057245e-11
-9.64892541e-11
-9.64699653e-11
-9.64538392e-11
-9.64347934e-11
-9.64189926e-11
-9.64001739e-11
-9.63846801e-11
-9.63660735e-11
-9.63508685e-11
-9.63324594e-11
-9.63175257e-11
-9.62993001e-11
-9.62846202e-11
-9.62665648e-11
-9.62521217e-11
-9.62342237e-11
-9.62200004e-11
-9.6202248e-11
-9.61882275e-11
-9.61706097e-11
-9.61567754e-11
-9.61392816e-11
-9.61256168e-11
-9.61082372e-11
-9.60947261e-11
-9.60774509e-11
-9.60640782e-11
-9.60468972e-11
-9.60336497e-11
-9.6016551e-11
-9.60034183e-11
-9.59863872e-11
-9.59733632e-11
-9.59563798e-11
-9.59434651e-11
-9.59265021e-11
-9.59137067e-11
-9.58967257e-11
-9.58840723e-11
-9.58670191e-11
-9.5854549e-11
-9.58377748e-11
-9.58247154e-11
-9.58085469e-11
-9.57949616e-11
-9.57793274e-11
-9.57652559e-11
-9.5750106e-11
-9.57355696e-11
-9.57208716e-11
-9.57058753e-11
-9.56916127e-11
-9.56761433e-11
-9.56623183e-11
-9.56468419e-11
-9.56330582e-11
-9.56174209e-11
-9.56032697e-11
-9.55879098e-11
-9.55734289e-11
-9.55582989e-11
-9.55435121e-11
-9.5528577e-11
-9.55134997e-11
-9.54987317e-11
-9.54833747e-11
-9.546875e-11
-9.54531218e-11
-9.54386191e-11
-9.54227266e-11
-9.54098364e-11
-9.53967423e-11
-9.53855844e-11
-9.53721482e-11
-9.53609183e-11
-9.53471493e-11
-9.53358378e-11
-9.53217439e-11
-9.53103423e-11
-9.5295931e-11
-9.52844315e-11
-9.52697099e-11
-9.52581052e-11
-9.52430802e-11
-9.52313633e-11
-9.52160418e-11
-9.5204206e-11
-9.51885946e-11
-9.51766337e-11
-9.5160739e-11
-9.5148647e-11
-9.51324756e-11
-9.51202467e-11
-9.51038049e-11
-9.50914341e-11
-9.50747279e-11
-9.50622104e-11
-9.50452459e-11
-9.50325775e-11
-9.501536e-11
-9.50025372e-11
-9.49850718e-11
-9.49720919e-11
-9.49543831e-11
-9.49412438e-11
-9.49232957e-11
-9.49099958e-11
-9.48918119e-11
-9.48783507e-11
-9.48599341e-11
-9.48463115e-11
-9.4827665e-11
-9.48138811e-11
-9.47950079e-11
-9.47810622e-11
-9.47619668e-11
-9.47478567e-11
-9.47285462e-11
-9.47142654e-11
-9.46947522e-11
-9.46802873e-11
-9.4660592e-11
-9.46459189e-11
-9.46260876e-11
-9.46111211e-11
-9.45915824e-11
-9.45760938e-11
-9.45562898e-11
-9.45406427e-11
-9.45206911e-11
-9.45048159e-11
-9.44847603e-11
-9.44686263e-11
-9.44484941e-11
-9.44320846e-11
-9.44118919e-11
-9.43952005e-11
-9.43749553e-11
-9.43579823e-11
-9.43376871e-11
-9.43204375e-11
-9.43000916e-11
-9.42825731e-11
-9.42621738e-11
-9.42443957e-11
-9.42239394e-11
-9.42059117e-11
-9.41853948e-11
-9.41671276e-11
-9.41465465e-11
-9.41280497e-11
-9.41074013e-11
-9.40886846e-11
-9.40679663e-11
-9.40490388e-11
-9.40282487e-11
-9.40091193e-11
-9.39882558e-11
-9.3968933e-11
-9.39479951e-11
-9.39284869e-11
-9.39074742e-11
-9.38877883e-11
-9.38667008e-11
-9.38468446e-11
-9.38256826e-11
-9.38056633e-11
-9.37844276e-11
-9.37642522e-11
-9.37429438e-11
-9.37226189e-11
-9.37012392e-11
-9.36807716e-11
-9.36593222e-11
-9.36387181e-11
-9.36167288e-11
-9.35951995e-11
-9.35727926e-11
-9.35511316e-11
-9.35286518e-11
-9.35068652e-11
-9.34843151e-11
-9.34624089e-11
-9.34397912e-11
-9.34177716e-11
-9.33950891e-11
-9.3372962e-11
-9.33502176e-11
-9.33279891e-11
-9.3305186e-11
-9.32828618e-11
-9.32600032e-11
-9.32375894e-11
-9.32146784e-11
-9.31921809e-11
-9.3169221e-11
-9.31466456e-11
-9.31236402e-11
-9.31009926e-11
-9.30779454e-11
-9.30552314e-11
-9.3032146e-11
-9.30093713e-11
-9.29862514e-11
-9.29634217e-11
-9.29402712e-11
-9.29173919e-11
-9.28942149e-11
-9.28712915e-11
-9.2848092e-11
-9.28251299e-11
-9.28019122e-11
-9.27789165e-11
-9.2755685e-11
-9.27326609e-11
-9.270942e-11
-9.26863724e-11
-9.2663127e-11
-9.26400608e-11
-9.26166901e-11
-9.25934202e-11
-9.25699928e-11
-9.25467344e-11
-9.25233302e-11
-9.25000876e-11
-9.24767109e-11
-9.24534882e-11
-9.24301432e-11
-9.24069448e-11
-9.23836357e-11
-9.23604661e-11
-9.23371968e-11
-9.23140605e-11
-9.22908351e-11
-9.22677365e-11
-9.22445589e-11
-9.22215026e-11
-9.21983767e-11
-9.21753672e-11
-9.21522969e-11
-9.21293386e-11
-9.21063279e-11
-9.20834253e-11
-9.20604779e-11
-9.20376353e-11
-9.20147553e-11
-9.1991977e-11
-9.19691683e-11
-9.19464585e-11
-9.1923725e-11
-9.1901088e-11
-9.18784335e-11
-9.18558734e-11
-9.18333019e-11
-9.18108227e-11
-9.1788338e-11
-9.17659438e-11
-9.17435498e-11
-9.17212445e-11
-9.16989449e-11
-9.16767327e-11
-9.16545312e-11
-9.16324159e-11
-9.1610316e-11
-9.15883017e-11
-9.15663069e-11
-9.15443976e-11
-9.15225113e-11
-9.15007111e-11
-9.14789363e-11
-9.14572494e-11
-9.14355893e-11
-9.14134595e-11
-9.13909508e-11
-9.1368529e-11
-9.13461403e-11
-9.13238366e-11
-9.13015714e-11
-9.12793901e-11
-9.12572516e-11
-9.1235197e-11
-9.12131888e-11
-9.11912647e-11
-9.11693902e-11
-9.11476006e-11
-9.11258632e-11
-9.11042116e-11
-9.10826149e-11
-9.10611048e-11
-9.10396521e-11
-9.1018287e-11
-9.09969817e-11
-9.09757647e-11
-9.09546101e-11
-9.09335446e-11
-9.09125438e-11
-9.08916328e-11
-9.08707888e-11
-9.08500355e-11
-9.08293513e-11
-9.08087586e-11
-9.07882371e-11
-9.07678078e-11
-9.07474519e-11
-9.07271887e-11
-9.0707001e-11
-9.06869068e-11
-9.06668899e-11
-9.06469672e-11
-9.06271235e-11
-9.06073749e-11
-9.05877069e-11
-9.05681347e-11
-9.05486447e-11
-9.05292514e-11
-9.05099415e-11
-9.04907292e-11
-9.04716017e-11
-9.04525726e-11
-9.04336293e-11
-9.04147855e-11
-9.03960285e-11
-9.03773717e-11
-9.0358803e-11
-9.0340335e-11
-9.03219564e-11
-9.03036787e-11
-9.02854921e-11
-9.02674062e-11
-9.02494135e-11
-9.02315204e-11
-9.02137235e-11
-9.01960244e-11
-9.01783489e-11
-9.01606948e-11
-9.01431429e-11
-9.0125676e-11
-9.01076728e-11
-9.00885126e-11
-9.00681249e-11
-9.00464512e-11
-9.00234151e-11
-8.99989574e-11
-8.99729983e-11
-8.99454782e-11
-8.99163176e-11
-8.98854583e-11
-8.98528249e-11
-8.98183641e-11
-8.97820095e-11
-8.97437184e-11
-8.97034394e-11
-8.96611478e-11
-8.96168158e-11
-8.95704463e-11
-8.95220465e-11
-8.94716579e-11
-8.94193373e-11
-8.93651773e-11
-8.93093024e-11
-8.92517654e-11
-8.91907916e-11
-8.91286596e-11
-8.90656785e-11
-8.90022035e-11
-8.893864e-11
-8.88754472e-11
-8.88131239e-11
-8.87522121e-11
-8.86932744e-11
-8.86368876e-11
-8.85836156e-11
-8.85339906e-11
-8.8488486e-11
-8.84474865e-11
-8.84112714e-11
-8.83799713e-11
-8.83535809e-11
-8.83319088e-11
-8.83146497e-11
-8.83013253e-11
-8.82914201e-11
-8.82843132e-11
-8.8279432e-11
-8.82762051e-11
-8.82741817e-11
-8.82728499e-11
-8.82723716e-11
-8.82721301e-11
-8.8272015e-11
-8.82719665e-11
-8.827195e-11
-8.8271941e-11
-8.82719383e-11
-8.82719374e-11
-8.82719372e-11
-8.82719371e-11
-8.82719371e-11
-8.82719371e-11
-8.82719371e-11
-8.82719371e-11
-8.82719371e-11
-8.82719371e-11
-8.82719371e-11
-8.82719371e-11
-8.82719371e-11
-8.82719371e-11
-8.82719371e-11
-8.82719371e-11
-8.82719371e-11
-8.82719371e-11
-8.82719371e-11
-8.82719371e-11
-8.82719371e-11
)
;

boundaryField
{
    closed
    {
        type            calculated;
        value           nonuniform List<scalar> 0();
    }
    open
    {
        type            calculated;
        value           uniform -8.82719371e-11;
    }
    sides
    {
        type            empty;
    }
    procBoundary5to4
    {
        type            processor;
        value           uniform -1.03430936e-10;
    }
}


// ************************************************************************* //
