/*--------------------------------*- C++ -*----------------------------------*\
| =========                 |                                                 |
| \\      /  F ield         | OpenFOAM: The Open Source CFD Toolbox           |
|  \\    /   O peration     | Version:  2306                                  |
|   \\  /    A nd           | Website:  www.openfoam.com                      |
|    \\/     M anipulation  |                                                 |
\*---------------------------------------------------------------------------*/
FoamFile
{
    version     2.0;
    format      ascii;
    arch        "LSB;label=32;scalar=64";
    class       volVectorField;
    location    "0.0018";
    object      U;
}
// * * * * * * * * * * * * * * * * * * * * * * * * * * * * * * * * * * * * * //

dimensions      [0 1 -1 0 0 0 0];

internalField   nonuniform List<vector> 
530
(
(1.67987532 0 0)
(1.66545792 0 0)
(1.64937734 0 0)
(1.63174414 0 0)
(1.6126709 0 0)
(1.59229386 0 0)
(1.57075712 0 0)
(1.54824476 0 0)
(1.52494857 0 0)
(1.50109709 0 0)
(1.47691679 0 0)
(1.45266399 0 0)
(1.42858806 0 0)
(1.40495809 0 0)
(1.38203004 0 0)
(1.36006942 0 0)
(1.33932215 0 0)
(1.32002558 0 0)
(1.30238159 0 0)
(1.28659148 0 0)
(1.27284878 0 0)
(1.26131877 0 0)
(1.25212762 0 0)
(1.24536996 0 0)
(1.24111218 0 0)
(1.23938499 0 0)
(1.24019366 0 0)
(1.24350419 0 0)
(1.2492619 0 0)
(1.25737219 0 0)
(1.26772593 0 0)
(1.2801757 0 0)
(1.29456647 0 0)
(1.31070846 0 0)
(1.32841148 0 0)
(1.34745558 0 0)
(1.36762741 0 0)
(1.38868982 0 0)
(1.41041861 0 0)
(1.43257269 0 0)
(1.45492954 0 0)
(1.47725463 0 0)
(1.49932764 0 0)
(1.52092577 0 0)
(1.54186461 0 0)
(1.56196752 0 0)
(1.58107599 0 0)
(1.59903662 0 0)
(1.61572386 0 0)
(1.63102474 0 0)
(1.64485313 0 0)
(1.65713873 0 0)
(1.66783629 0 0)
(1.67691884 0 0)
(1.68438192 0 0)
(1.69024051 0 0)
(1.69452889 0 0)
(1.69730157 0 0)
(1.69863069 0 0)
(1.6986031 0 0)
(1.69731521 0 0)
(1.69488307 0 0)
(1.69142871 0 0)
(1.6870878 0 0)
(1.6819983 0 0)
(1.67630788 0 0)
(1.67016231 0 0)
(1.66371281 0 0)
(1.65710499 0 0)
(1.65048551 0 0)
(1.64399228 0 0)
(1.63775999 0 0)
(1.63191228 0 0)
(1.62656557 0 0)
(1.62182385 0 0)
(1.61778052 0 0)
(1.61451604 0 0)
(1.61209767 0 0)
(1.6105802 0 0)
(1.61000339 0 0)
(1.61039587 0 0)
(1.61177044 0 0)
(1.6141309 0 0)
(1.61746428 0 0)
(1.62174689 0 0)
(1.62693929 0 0)
(1.63300537 0 0)
(1.63989814 0 0)
(1.64756617 0 0)
(1.65594356 0 0)
(1.66496667 0 0)
(1.67456142 0 0)
(1.68465885 0 0)
(1.6951813 0 0)
(1.70605863 0 0)
(1.71721389 0 0)
(1.7285796 0 0)
(1.74008326 0 0)
(1.75166327 0 0)
(1.76325448 0 0)
(1.77480357 0 0)
(1.78625486 0 0)
(1.79756489 0 0)
(1.8086887 0 0)
(1.81959348 0 0)
(1.83024543 0 0)
(1.84062244 0 0)
(1.85070163 0 0)
(1.86047101 0 0)
(1.86991774 0 0)
(1.87903885 0 0)
(1.88783026 0 0)
(1.89629652 0 0)
(1.90444064 0 0)
(1.91227297 0 0)
(1.91980179 0 0)
(1.92704138 0 0)
(1.93400335 0 0)
(1.94070406 0 0)
(1.94715658 0 0)
(1.95337755 0 0)
(1.95937978 0 0)
(1.96517856 0 0)
(1.97078493 0 0)
(1.97621151 0 0)
(1.98146632 0 0)
(1.9865582 0 0)
(1.9914913 0 0)
(1.99626998 0 0)
(2.00089396 0 0)
(2.00536277 0 0)
(2.00967155 0 0)
(2.01381501 0 0)
(2.01778391 0 0)
(2.02156852 0 0)
(2.02515579 0 0)
(2.0285322 0 0)
(2.03168179 0 0)
(2.03458818 0 0)
(2.03723358 0 0)
(2.03959996 0 0)
(2.04166894 0 0)
(2.0434221 0 0)
(2.04484185 0 0)
(2.0459107 0 0)
(2.04661322 0 0)
(2.04693408 0 0)
(2.04686135 0 0)
(2.04638295 0 0)
(2.04549158 0 0)
(2.04417935 0 0)
(2.04244448 0 0)
(2.04028389 0 0)
(2.03770195 0 0)
(2.03470076 0 0)
(2.03129056 0 0)
(2.02747637 0 0)
(2.02327536 0 0)
(2.0187031 0 0)
(2.01377715 0 0)
(2.00851759 0 0)
(2.0029467 0 0)
(1.99708872 0 0)
(1.99096907 0 0)
(1.9846151 0 0)
(1.97805409 0 0)
(1.97131551 0 0)
(1.96442733 0 0)
(1.95741992 0 0)
(1.95031938 0 0)
(1.94315411 0 0)
(1.93595142 0 0)
(1.92874077 0 0)
(1.92154532 0 0)
(1.9143904 0 0)
(1.90729627 0 0)
(1.90028559 0 0)
(1.89337503 0 0)
(1.88658377 0 0)
(1.87992465 0 0)
(1.87341317 0 0)
(1.86705832 0 0)
(1.86087195 0 0)
(1.85485951 0 0)
(1.84902929 0 0)
(1.84338272 0 0)
(1.83792349 0 0)
(1.83265065 0 0)
(1.82756791 0 0)
(1.82267298 0 0)
(1.81796607 0 0)
(1.81344218 0 0)
(1.80909966 0 0)
(1.80493226 0 0)
(1.80093702 0 0)
(1.79710676 0 0)
(1.79343756 0 0)
(1.78992166 0 0)
(1.78655448 0 0)
(1.78332792 0 0)
(1.78023698 0 0)
(1.77727337 0 0)
(1.7744318 0 0)
(1.7717039 0 0)
(1.76908418 0 0)
(1.76656419 0 0)
(1.76413829 0 0)
(1.76179799 0 0)
(1.75953749 0 0)
(1.75734822 0 0)
(1.75522425 0 0)
(1.75315696 0 0)
(1.75114028 0 0)
(1.74916556 0 0)
(1.74722669 0 0)
(1.745315 0 0)
(1.74342442 0 0)
(1.74154636 0 0)
(1.73967494 0 0)
(1.73780176 0 0)
(1.73592125 0 0)
(1.73402536 0 0)
(1.73210903 0 0)
(1.73016471 0 0)
(1.72818802 0 0)
(1.72617211 0 0)
(1.72411345 0 0)
(1.72200607 0 0)
(1.71984744 0 0)
(1.71763261 0 0)
(1.71536017 0 0)
(1.71302625 0 0)
(1.71063053 0 0)
(1.70817028 0 0)
(1.7056462 0 0)
(1.70305675 0 0)
(1.70040361 0 0)
(1.69768691 0 0)
(1.69491304 0 0)
(1.69210922 0 0)
(1.68918559 0 0)
(1.68622071 0 0)
(1.68327204 0 0)
(1.68023648 0 0)
(1.67715876 0 0)
(1.67404536 0 0)
(1.67090294 0 0)
(1.66773364 0 0)
(1.66454387 0 0)
(1.66133664 0 0)
(1.65811846 0 0)
(1.65489275 0 0)
(1.65166569 0 0)
(1.64844077 0 0)
(1.64522358 0 0)
(1.64201733 0 0)
(1.63882695 0 0)
(1.63565523 0 0)
(1.63250633 0 0)
(1.62938252 0 0)
(1.62628716 0 0)
(1.62322193 0 0)
(1.62018938 0 0)
(1.61719056 0 0)
(1.61422721 0 0)
(1.61129972 0 0)
(1.60840908 0 0)
(1.60555507 0 0)
(1.60273799 0 0)
(1.59995707 0 0)
(1.597212 0 0)
(1.59450155 0 0)
(1.59182494 0 0)
(1.58918057 0 0)
(1.58656731 0 0)
(1.58398331 0 0)
(1.58142721 0 0)
(1.57889705 0 0)
(1.57639135 0 0)
(1.57390818 0 0)
(1.57144606 0 0)
(1.5690032 0 0)
(1.56657824 0 0)
(1.56416963 0 0)
(1.56177626 0 0)
(1.55939688 0 0)
(1.55703072 0 0)
(1.55467698 0 0)
(1.55233529 0 0)
(1.55000489 0 0)
(1.54768473 0 0)
(1.54537642 0 0)
(1.54308096 0 0)
(1.54079747 0 0)
(1.53852758 0 0)
(1.53627259 0 0)
(1.53403394 0 0)
(1.53181307 0 0)
(1.52961183 0 0)
(1.52743209 0 0)
(1.52527602 0 0)
(1.52314582 0 0)
(1.52104393 0 0)
(1.51897278 0 0)
(1.51693499 0 0)
(1.51493312 0 0)
(1.51296987 0 0)
(1.51104785 0 0)
(1.50916971 0 0)
(1.507338 0 0)
(1.50555523 0 0)
(1.50382378 0 0)
(1.50214592 0 0)
(1.50052374 0 0)
(1.49895917 0 0)
(1.49745391 0 0)
(1.49600949 0 0)
(1.49462713 0 0)
(1.49330784 0 0)
(1.4920523 0 0)
(1.49086094 0 0)
(1.48973386 0 0)
(1.48867086 0 0)
(1.48767139 0 0)
(1.48673461 0 0)
(1.4858593 0 0)
(1.48504395 0 0)
(1.48428669 0 0)
(1.48358536 0 0)
(1.48293743 0 0)
(1.48234012 0 0)
(1.48179033 0 0)
(1.48128467 0 0)
(1.48081943 0 0)
(1.48039051 0 0)
(1.47999415 0 0)
(1.47962617 0 0)
(1.47928174 0 0)
(1.4789563 0 0)
(1.47864512 0 0)
(1.47834336 0 0)
(1.47804611 0 0)
(1.47774841 0 0)
(1.47744532 0 0)
(1.47713193 0 0)
(1.47680337 0 0)
(1.47645489 0 0)
(1.47608184 0 0)
(1.47567977 0 0)
(1.47524435 0 0)
(1.47477152 0 0)
(1.47425743 0 0)
(1.47369851 0 0)
(1.47309147 0 0)
(1.47243333 0 0)
(1.47172146 0 0)
(1.47095356 0 0)
(1.47012771 0 0)
(1.46924236 0 0)
(1.46829636 0 0)
(1.46728895 0 0)
(1.46621978 0 0)
(1.46508888 0 0)
(1.46389672 0 0)
(1.46264416 0 0)
(1.46133245 0 0)
(1.45996324 0 0)
(1.45853855 0 0)
(1.45706077 0 0)
(1.45553264 0 0)
(1.45395724 0 0)
(1.45233795 0 0)
(1.45067845 0 0)
(1.44898269 0 0)
(1.44725486 0 0)
(1.44549937 0 0)
(1.44372082 0 0)
(1.44192398 0 0)
(1.44011374 0 0)
(1.4382951 0 0)
(1.43647315 0 0)
(1.43465301 0 0)
(1.43283982 0 0)
(1.43103873 0 0)
(1.42925486 0 0)
(1.42749321 0 0)
(1.42575825 0 0)
(1.42405389 0 0)
(1.42238787 0 0)
(1.42076519 0 0)
(1.41918717 0 0)
(1.41765832 0 0)
(1.41618284 0 0)
(1.41476442 0 0)
(1.41340643 0 0)
(1.41211196 0 0)
(1.41088385 0 0)
(1.40972462 0 0)
(1.40863653 0 0)
(1.40762153 0 0)
(1.40668127 0 0)
(1.40581708 0 0)
(1.40503 0 0)
(1.40432077 0 0)
(1.40368983 0 0)
(1.40313733 0 0)
(1.40266313 0 0)
(1.40226682 0 0)
(1.40194771 0 0)
(1.40170486 0 0)
(1.40153709 0 0)
(1.40144298 0 0)
(1.40142087 0 0)
(1.40146891 0 0)
(1.40158507 0 0)
(1.40176709 0 0)
(1.4020126 0 0)
(1.40231904 0 0)
(1.40268372 0 0)
(1.40310384 0 0)
(1.40357647 0 0)
(1.4040986 0 0)
(1.40466714 0 0)
(1.40527893 0 0)
(1.40593076 0 0)
(1.40661936 0 0)
(1.40734145 0 0)
(1.40809373 0 0)
(1.40887289 0 0)
(1.40967562 0 0)
(1.41049863 0 0)
(1.41133864 0 0)
(1.41219243 0 0)
(1.41305677 0 0)
(1.41392852 0 0)
(1.41480458 0 0)
(1.41568189 0 0)
(1.41655746 0 0)
(1.41742839 0 0)
(1.41829182 0 0)
(1.41914498 0 0)
(1.41998517 0 0)
(1.42080979 0 0)
(1.42161628 0 0)
(1.42240221 0 0)
(1.4231652 0 0)
(1.42390297 0 0)
(1.42461325 0 0)
(1.42529384 0 0)
(1.42594315 0 0)
(1.42655924 0 0)
(1.42714006 0 0)
(1.42768496 0 0)
(1.42820975 0 0)
(1.42872257 0 0)
(1.42921325 0 0)
(1.42966908 0 0)
(1.43007401 0 0)
(1.43040837 0 0)
(1.43064831 0 0)
(1.43076517 0 0)
(1.43072465 0 0)
(1.43048596 0 0)
(1.43000082 0 0)
(1.42921249 0 0)
(1.42805469 0 0)
(1.42645074 0 0)
(1.42431293 0 0)
(1.4215425 0 0)
(1.41803052 0 0)
(1.41366044 0 0)
(1.40831315 0 0)
(1.4018755 0 0)
(1.39425355 0 0)
(1.38539153 0 0)
(1.37529865 0 0)
(1.36408397 0 0)
(1.35193933 0 0)
(1.33914333 0 0)
(1.32603739 0 0)
(1.31287422 0 0)
(1.29964636 0 0)
(1.2859743 0 0)
(1.27130622 0 0)
(1.25582361 0 0)
(1.24230572 0 0)
(1.2382047 0 0)
(1.25509082 0 0)
(1.30245806 0 0)
(1.37520356 0 0)
(1.44485309 0 0)
(1.4744455 0 0)
(1.45098092 0 0)
(1.39802358 0 0)
(1.34868535 0 0)
(1.31665957 0 0)
(1.30126799 0 0)
(1.30246883 0 0)
(1.31794054 0 0)
(1.34080197 0 0)
(1.36619487 0 0)
(1.39386877 0 0)
(1.41706629 0 0)
(1.43189771 0 0)
(1.43157406 0 0)
(1.42237774 0 0)
(1.39207636 0 0)
(1.33012542 0 0)
(1.25824362 0 0)
(1.23271354 0 0)
(1.29752601 0 0)
(1.44330892 0 0)
(1.5375125 0 0)
(1.51564501 0 0)
(1.4098409 0 0)
(1.33508046 0 0)
(1.35052165 0 0)
(1.50094641 0 0)
(1.77901473 0 0)
(2.11113151 0 0)
(2.22148083 0 0)
(1.97765596 0 0)
(1.49866308 0 0)
(1.14714534 0 0)
(1.14145237 0 0)
(1.40824284 0 0)
(1.60924064 0 0)
(1.64049167 0 0)
(1.58444387 0 0)
(1.57326114 0 0)
)
;

boundaryField
{
    closed
    {
        type            noSlip;
    }
    open
    {
        type            inletOutlet;
        inletValue      uniform (0 0 0);
        value           uniform (1.57326114 0 0);
    }
    sides
    {
        type            empty;
    }
    procBoundary5to4
    {
        type            processor;
        value           uniform (1.69259928 0 0);
    }
}


// ************************************************************************* //
