/*--------------------------------*- C++ -*----------------------------------*\
| =========                 |                                                 |
| \\      /  F ield         | OpenFOAM: The Open Source CFD Toolbox           |
|  \\    /   O peration     | Version:  2306                                  |
|   \\  /    A nd           | Website:  www.openfoam.com                      |
|    \\/     M anipulation  |                                                 |
\*---------------------------------------------------------------------------*/
FoamFile
{
    version     2.0;
    format      ascii;
    arch        "LSB;label=32;scalar=64";
    class       volScalarField;
    location    "0.00028";
    object      T;
}
// * * * * * * * * * * * * * * * * * * * * * * * * * * * * * * * * * * * * * //

dimensions      [0 0 0 1 0 0 0];

internalField   nonuniform List<scalar> 
530
(
333.883658
324.317935
329.039645
338.568691
331.667451
329.747624
329.110492
331.327769
331.034396
329.108903
329.137148
329.893384
329.943738
329.4935
329.448124
329.5909
329.628778
329.573623
329.559244
329.573691
329.575994
329.56932
329.572577
329.581005
329.577276
329.565001
329.565952
329.579491
329.581635
329.571875
329.56609
329.57105
329.578617
329.577118
329.570288
329.57044
329.574811
329.574992
329.572108
329.572129
329.575328
329.575281
329.57073
329.570249
329.575674
329.577464
329.572264
329.568904
329.572846
329.577477
329.575138
329.570032
329.570979
329.575802
329.575628
329.571657
329.571453
329.574554
329.575131
329.572426
329.571396
329.573874
329.575622
329.573586
329.570903
329.572137
329.575667
329.575341
329.571575
329.571321
329.574189
329.575099
329.57324
329.572034
329.573084
329.574285
329.573743
329.572697
329.572953
329.573832
329.573737
329.572993
329.57301
329.573605
329.573644
329.573194
329.573086
329.573412
329.573627
329.573488
329.573056
329.573045
329.573457
329.573832
329.57367
329.572747
329.572629
329.57371
329.574461
329.573633
329.57202
329.572251
329.574528
329.574915
329.573052
329.57166
329.572465
329.574842
329.574804
329.572813
329.571889
329.572765
329.574546
329.574459
329.572823
329.572267
329.57318
329.574229
329.57394
329.572741
329.572757
329.573621
329.573807
329.573317
329.573052
329.573287
329.57353
329.573437
329.573259
329.573285
329.573397
329.573395
329.573335
329.573332
329.573357
329.573362
329.573352
329.573349
329.573352
329.573354
329.573353
329.573352
329.573352
329.573353
329.573353
329.573353
329.573353
329.573353
329.573353
329.573353
329.573353
329.573353
329.573353
329.573353
329.573353
329.573353
329.573353
329.573353
329.573353
329.573353
329.573353
329.573353
329.573353
329.573353
329.573353
329.573353
329.573353
329.573353
329.573353
329.573353
329.573353
329.573353
329.573353
329.573353
329.573353
329.573353
329.573353
329.573353
329.573353
329.573353
329.573353
329.573353
329.573353
329.573353
329.573353
329.573353
329.573353
329.573353
329.573353
329.573352
329.573352
329.573353
329.573354
329.573352
329.57335
329.573351
329.573359
329.573359
329.573343
329.573334
329.57336
329.573396
329.573373
329.573266
329.573271
329.573472
329.573541
329.573267
329.573007
329.573272
329.573873
329.573772
329.572715
329.5726
329.573801
329.574424
329.573368
329.572091
329.572669
329.574615
329.574511
329.572462
329.572082
329.573614
329.574516
329.573635
329.57246
329.572737
329.573943
329.573928
329.57314
329.572944
329.57332
329.573598
329.573478
329.573228
329.573241
329.573392
329.573417
329.57336
329.573321
329.573335
329.573366
329.573365
329.573349
329.573347
329.573352
329.573355
329.573354
329.573352
329.573352
329.573353
329.573353
329.573353
329.573353
329.573353
329.573353
329.573353
329.573353
329.573353
329.573353
329.573353
329.573353
329.573353
329.573353
329.573353
329.573353
329.573353
329.573353
329.573353
329.573353
329.573353
329.573353
329.573353
329.573353
329.573353
329.573353
329.573353
329.573353
329.573353
329.573353
329.573353
329.573353
329.573353
329.573353
329.573353
329.573353
329.573353
329.573353
329.573353
329.573353
329.573353
329.573353
329.573353
329.573353
329.573353
329.573353
329.573353
329.573353
329.573353
329.573353
329.573353
329.573353
329.573353
329.573353
329.573353
329.573353
329.573353
329.573353
329.573353
329.573353
329.573353
329.573353
329.573353
329.573353
329.573353
329.573353
329.573353
329.573353
329.573353
329.573353
329.573353
329.573353
329.573353
329.573353
329.573353
329.573353
329.573353
329.573353
329.573353
329.573353
329.573353
329.573353
329.573353
329.573353
329.573353
329.573353
329.573353
329.573353
329.573353
329.573353
329.573353
329.573353
329.573353
329.573353
329.573353
329.573353
329.573353
329.573353
329.573353
329.573353
329.573353
329.573353
329.573353
329.573353
329.573353
329.573353
329.573353
329.573353
329.573353
329.573353
329.573353
329.573353
329.573353
329.573353
329.573353
329.573353
329.573353
329.573353
329.573353
329.573353
329.573353
329.573353
329.573353
329.573353
329.573353
329.573353
329.573353
329.573353
329.573353
329.573353
329.573353
329.573353
329.573353
329.573353
329.573353
329.573353
329.573353
329.573353
329.573353
329.573353
329.573353
329.573353
329.573353
329.573353
329.573353
329.573352
329.573352
329.573354
329.573354
329.573351
329.573349
329.573354
329.573361
329.573357
329.573335
329.573335
329.573379
329.573395
329.573332
329.57327
329.573337
329.573484
329.573454
329.573181
329.573165
329.573494
329.573622
329.573306
329.573032
329.573262
329.573677
329.57358
329.573069
329.573078
329.573527
329.573607
329.573292
329.573149
329.573338
329.573496
329.573402
329.573264
329.5733
329.573402
329.573394
329.573328
329.573328
329.573361
329.573365
329.573351
329.573347
329.573352
329.573355
329.573353
329.573352
329.573352
329.573353
329.573353
329.573353
329.573353
329.573353
329.573353
329.573353
329.573353
329.573353
329.573353
329.573353
329.573353
329.573353
329.573353
329.573353
329.573353
329.573353
329.573352
329.573353
329.573353
329.573353
329.573352
329.573352
329.573356
329.573359
329.573355
329.573341
329.573344
329.573404
329.573446
329.573333
329.573114
329.57328
329.574523
329.574663
329.571353
329.569412
329.57827
329.591623
329.579199
329.530905
329.539698
329.702473
329.745038
329.431251
329.251959
329.752879
330.785944
329.937854
329.303616
329.319249
336.474469
337.766263
329.435311
325.105214
329.597553
339.946998
339.011415
323.893374
323.889343
329.839818
340.091898
339.505573
324.179866
324.137888
330.284565
339.899197
338.794397
324.717967
324.746018
330.848886
339.640463
333.531121
322.475023
329.274335
340.057505
338.423185
325.103823
326.688744
339.827013
338.856195
325.055854
324.203379
)
;

boundaryField
{
    closed
    {
        type            fixedValue;
        value           nonuniform List<scalar> 0();
    }
    open
    {
        type            zeroGradient;
    }
    sides
    {
        type            empty;
    }
    procBoundary2to1
    {
        type            processor;
        value           uniform 339.679429;
    }
    procBoundary2to3
    {
        type            processor;
        value           uniform 329.887284;
    }
}


// ************************************************************************* //
