/*--------------------------------*- C++ -*----------------------------------*\
| =========                 |                                                 |
| \\      /  F ield         | OpenFOAM: The Open Source CFD Toolbox           |
|  \\    /   O peration     | Version:  2306                                  |
|   \\  /    A nd           | Website:  www.openfoam.com                      |
|    \\/     M anipulation  |                                                 |
\*---------------------------------------------------------------------------*/
FoamFile
{
    version     2.0;
    format      ascii;
    arch        "LSB;label=32;scalar=64";
    class       surfaceScalarField;
    location    "0.00034";
    object      phi;
}
// * * * * * * * * * * * * * * * * * * * * * * * * * * * * * * * * * * * * * //

dimensions      [1 0 -1 0 0 0 0];

oriented        oriented;

internalField   nonuniform List<scalar> 
530
(
4.5220563e-06
4.48191181e-06
4.3493814e-06
4.3467497e-06
4.79662118e-06
4.77953346e-06
4.50985966e-06
4.51523415e-06
4.98200149e-06
4.97287528e-06
4.70125351e-06
4.69966092e-06
5.16834151e-06
5.15152866e-06
5.18798235e-06
5.16453024e-06
5.55303136e-06
5.52974968e-06
5.45416509e-06
5.42000079e-06
5.58120683e-06
5.53211673e-06
5.43547182e-06
5.42863056e-06
5.39582683e-06
5.29434131e-06
5.24148337e-06
5.83768843e-06
5.84890525e-06
5.64265637e-06
5.50199125e-06
5.49568089e-06
5.47878923e-06
5.41847984e-06
5.30929048e-06
5.29800897e-06
5.1915122e-06
5.04548518e-06
5.22798524e-06
5.19375177e-06
4.98873656e-06
4.84087987e-06
4.8911191e-06
5.01850243e-06
4.84719274e-06
4.73162115e-06
4.70795231e-06
4.67991194e-06
4.61879772e-06
4.40299159e-06
4.35256957e-06
4.46357157e-06
4.44647685e-06
4.45061499e-06
4.39980537e-06
4.87478436e-06
4.8716865e-06
4.48743908e-06
4.44961636e-06
4.41511069e-06
4.41856532e-06
4.39484366e-06
4.34937032e-06
4.30206935e-06
4.58291485e-06
4.57645724e-06
4.42168612e-06
4.31376478e-06
4.29429716e-06
4.30760962e-06
4.2744666e-06
4.25692579e-06
4.24515468e-06
4.22731536e-06
4.20162946e-06
4.24912655e-06
4.41507541e-06
4.31094302e-06
4.23185197e-06
4.21158658e-06
4.24371408e-06
4.24019802e-06
4.21409784e-06
4.18274075e-06
4.61774933e-06
4.6471233e-06
4.27683566e-06
4.24621769e-06
4.28208172e-06
4.46217157e-06
4.34409258e-06
4.26119624e-06
4.28936426e-06
4.4363859e-06
4.30868343e-06
4.2199276e-06
4.27444935e-06
4.43859427e-06
4.32580364e-06
4.23154495e-06
4.24946865e-06
4.40701379e-06
4.37379709e-06
4.22235935e-06
4.21875796e-06
4.2830129e-06
4.35714401e-06
4.34949641e-06
4.12164898e-06
4.11477562e-06
4.12225376e-06
4.18446178e-06
4.21947528e-06
3.94810642e-06
3.95124625e-06
4.0292979e-06
4.2132188e-06
4.11197239e-06
4.0603625e-06
4.12816116e-06
4.28217525e-06
4.20781484e-06
4.14595848e-06
4.14870451e-06
4.21825862e-06
4.25479434e-06
4.03769813e-06
4.0526106e-06
4.06478014e-06
4.12600379e-06
4.15722683e-06
4.15277901e-06
4.17411083e-06
4.21422887e-06
4.24821879e-06
4.26131709e-06
4.20941435e-06
4.20898086e-06
4.754123e-06
4.80937018e-06
4.71354593e-06
4.62139458e-06
4.62106474e-06
4.7065904e-06
4.75647715e-06
4.53953313e-06
4.56472167e-06
4.58123194e-06
4.67487978e-06
4.73578993e-06
4.4663945e-06
4.49756348e-06
4.62130555e-06
4.83485409e-06
4.77179293e-06
4.7315806e-06
4.75868161e-06
4.87518031e-06
4.95127759e-06
4.74674817e-06
4.80423814e-06
4.84773303e-06
4.97443313e-06
5.06176417e-06
4.8587208e-06
4.92303907e-06
4.97205167e-06
5.10809909e-06
5.20168515e-06
4.99568966e-06
5.06326567e-06
5.11404427e-06
5.2572856e-06
5.35617762e-06
5.0661744e-06
5.13345515e-06
5.34981406e-06
5.6455365e-06
5.59057698e-06
5.53809035e-06
5.59396059e-06
5.76231819e-06
5.87852753e-06
5.57046269e-06
5.65055288e-06
5.91824749e-06
6.23741539e-06
6.16237072e-06
6.09528133e-06
6.16929207e-06
6.36642246e-06
6.50431743e-06
6.27145901e-06
6.37397667e-06
6.45930129e-06
6.67083481e-06
6.82589479e-06
6.58285556e-06
6.68551035e-06
6.77902906e-06
7.00028959e-06
7.16408058e-06
6.89583459e-06
6.99682694e-06
7.10069976e-06
7.33311876e-06
7.50753155e-06
7.24082484e-06
7.34849628e-06
7.45793063e-06
7.71860251e-06
7.9211416e-06
7.59514126e-06
7.7069021e-06
7.90014935e-06
8.008705e-06
8.11523427e-06
7.80889583e-06
7.88450508e-06
8.22282504e-06
8.42612752e-06
8.11085304e-06
8.18083908e-06
8.29628796e-06
8.50341932e-06
8.61579323e-06
8.62605789e-06
8.67432246e-06
8.76605538e-06
8.83526395e-06
8.90815695e-06
8.97219198e-06
8.9606844e-06
8.96306094e-06
9.01772197e-06
9.09008481e-06
9.1601529e-06
8.75955717e-06
8.72862707e-06
9.07985797e-06
9.1905936e-06
8.69965278e-06
8.66003882e-06
8.74908234e-06
9.1625449e-06
9.07600586e-06
8.58363681e-06
8.52272153e-06
8.68117929e-06
8.76127282e-06
8.34254165e-06
8.26586322e-06
8.22220211e-06
8.26042288e-06
8.30747146e-06
7.9178085e-06
7.85907015e-06
8.13826768e-06
8.20248447e-06
8.13758732e-06
7.67013427e-06
7.60649269e-06
7.70321085e-06
7.75665449e-06
7.69559475e-06
7.63980274e-06
8.28555936e-06
8.43721809e-06
8.29430837e-06
7.81354459e-06
7.76566035e-06
7.76036449e-06
7.7385791e-06
7.35894071e-06
7.32539233e-06
7.31818979e-06
7.30159455e-06
6.95119878e-06
6.91297329e-06
6.9222978e-06
6.95225622e-06
6.58583206e-06
6.55564175e-06
6.71017165e-06
6.75809419e-06
6.42324153e-06
6.41655779e-06
6.43044633e-06
6.44605577e-06
6.39512171e-06
6.11526526e-06
6.12460638e-06
6.12543363e-06
6.09093001e-06
5.84833801e-06
5.8260742e-06
5.91862026e-06
5.96320888e-06
5.69259298e-06
5.7061329e-06
5.69921253e-06
5.71130427e-06
5.71714047e-06
5.46977262e-06
5.4603028e-06
5.45976986e-06
5.48861199e-06
5.22335203e-06
5.21102535e-06
5.30754938e-06
5.3350712e-06
5.05366578e-06
5.04825967e-06
5.06653881e-06
5.26063561e-06
5.2189665e-06
5.06443852e-06
5.04047669e-06
5.09473219e-06
5.12264593e-06
4.84419615e-06
4.84256849e-06
4.83166545e-06
4.86452708e-06
4.86033787e-06
4.64134954e-06
4.61515366e-06
4.68459572e-06
4.66462333e-06
4.64890517e-06
4.47917239e-06
4.44504188e-06
4.47927142e-06
4.4435847e-06
4.42571105e-06
4.36898719e-06
4.33466085e-06
4.36842302e-06
4.37897666e-06
4.35226348e-06
4.32922963e-06
4.42127645e-06
4.61714219e-06
4.55106877e-06
4.46385844e-06
4.44900413e-06
4.4766135e-06
4.47053676e-06
4.34367719e-06
4.36936107e-06
4.49079621e-06
4.4433542e-06
4.40341743e-06
4.57609577e-06
4.73258008e-06
4.79740085e-06
4.82051154e-06
4.90966163e-06
5.02778295e-06
5.10961249e-06
5.19319808e-06
5.30787471e-06
5.40975921e-06
5.49000657e-06
5.64631373e-06
5.82506291e-06
5.96401891e-06
6.0111491e-06
6.28634969e-06
6.50226245e-06
6.65782461e-06
6.7012161e-06
6.87363739e-06
7.22925469e-06
7.36064845e-06
7.32986723e-06
7.45415607e-06
7.95918696e-06
8.12719454e-06
7.87265573e-06
7.97369514e-06
8.45484617e-06
8.56226458e-06
8.40166899e-06
8.45592787e-06
8.6605203e-06
8.80890274e-06
8.87199977e-06
8.48696728e-06
8.45230547e-06
8.68128552e-06
8.76219264e-06
8.70384892e-06
8.30989967e-06
8.20254933e-06
8.47034921e-06
8.41315012e-06
8.1559959e-06
8.03740655e-06
7.94135324e-06
8.07748399e-06
7.98825771e-06
7.75865394e-06
7.67832729e-06
7.62783752e-06
7.60214724e-06
7.60808545e-06
7.6372554e-06
7.69835739e-06
7.78334049e-06
7.89879613e-06
8.03269442e-06
8.18925306e-06
8.33760801e-06
8.50230366e-06
8.83239506e-06
9.10122818e-06
9.42440676e-06
9.67039401e-06
9.89063423e-06
9.98916949e-06
1.00102428e-05
9.83597249e-06
9.67063304e-06
8.97505051e-06
7.86114756e-06
4.77853284e-06
1.12424681e-05
1.01347904e-05
6.29176406e-06
5.12006829e-06
1.36532858e-05
2.17563303e-06
1.5167906e-05
1.54889483e-05
3.72375154e-05
1.87034958e-05
-1.53296659e-05
-1.13807204e-05
-9.71429226e-06
-8.34247707e-06
-7.11711625e-06
-6.03049488e-06
-5.07760767e-06
-4.18254509e-06
-3.44620951e-06
-2.67311203e-06
-1.94296959e-06
-1.29226704e-06
-7.12622902e-07
-2.09763828e-07
2.46391326e-07
6.31794053e-07
9.60404024e-07
1.27267978e-06
1.57771499e-06
1.84887745e-06
2.05932328e-06
2.34139781e-06
2.34321118e-06
2.20319452e-06
2.51788173e-06
2.70164194e-06
2.98503169e-06
2.83419332e-06
2.24397544e-06
3.6459309e-06
4.50449874e-06
2.35964581e-06
1.08785408e-06
3.4875982e-06
4.54611073e-06
3.00546425e-06
3.491208e-06
1.13402337e-06
-3.27962743e-07
1.04456687e-06
2.81161659e-06
2.66152927e-06
8.62605459e-07
5.53379231e-07
2.68537889e-06
1.4061708e-06
-6.88022961e-07
-4.17938643e-08
1.66360897e-06
1.46991126e-06
6.45744953e-08
-8.17148218e-08
1.1893246e-06
1.32101596e-06
3.79053448e-07
7.64992013e-08
8.48647332e-07
1.08848013e-06
6.06417261e-07
2.27559203e-07
7.05337968e-07
8.83976352e-07
6.05423838e-07
4.48074361e-07
8.18518025e-07
8.43180442e-07
6.51745912e-07
6.88913732e-07
1.01456674e-06
9.47066443e-07
7.52920213e-07
8.70248194e-07
1.19189052e-06
1.05287794e-06
8.87793488e-07
1.06801495e-06
1.37406933e-06
1.2030806e-06
1.05040163e-06
1.26820507e-06
1.56524757e-06
1.38665531e-06
1.24783873e-06
1.49176975e-06
1.77867718e-06
1.60080196e-06
1.4597728e-06
1.69945888e-06
1.96436257e-06
1.77492094e-06
1.64762535e-06
1.8979225e-06
2.18606049e-06
)
;

boundaryField
{
    closed
    {
        type            calculated;
        value           nonuniform List<scalar> 0();
    }
    open
    {
        type            calculated;
        value           nonuniform List<scalar> 0();
    }
    sides
    {
        type            empty;
        value           nonuniform List<scalar> 0();
    }
    procBoundary4to3
    {
        type            processor;
        value           uniform -4.10046121e-06;
    }
    procBoundary4to5
    {
        type            processor;
        value           uniform 2.03181867e-06;
    }
}


// ************************************************************************* //
