/*--------------------------------*- C++ -*----------------------------------*\
| =========                 |                                                 |
| \\      /  F ield         | OpenFOAM: The Open Source CFD Toolbox           |
|  \\    /   O peration     | Version:  2306                                  |
|   \\  /    A nd           | Website:  www.openfoam.com                      |
|    \\/     M anipulation  |                                                 |
\*---------------------------------------------------------------------------*/
FoamFile
{
    version     2.0;
    format      ascii;
    arch        "LSB;label=32;scalar=64";
    class       volScalarField;
    location    "0.00032";
    object      H2O;
}
// * * * * * * * * * * * * * * * * * * * * * * * * * * * * * * * * * * * * * //

dimensions      [0 0 0 0 0 0 0];

internalField   nonuniform List<scalar> 
531
(
0.00104137983
0.000700774651
0.00728942411
0.0066771049
0.00103520658
0.000705798097
0.00726600093
0.00661392036
0.00103646461
0.000722148943
0.00725972004
0.00514021217
0.000911129794
0.00650573443
0.00719911384
0.00266936408
0.000940177854
0.0052357017
0.00665576262
0.00451141272
0.00320599052
0.00436411244
0.00528740748
0.00465443411
0.00416224158
0.00441544817
0.00465649763
0.00455779121
0.00445448525
0.00448468628
0.0045253895
0.00451660217
0.0045014604
0.00450365876
0.00450887806
0.00450838792
0.00450664206
0.00450673074
0.00450727353
0.00450726543
0.00450709989
0.00450709892
0.00450714338
0.00450714559
0.00450713413
0.00450713289
0.00450713559
0.0045071361
0.00450713542
0.00450713526
0.00450713543
0.00450713547
0.00450713542
0.00450713541
0.00450713543
0.00450713543
0.00450713542
0.00450713542
0.00450713542
0.00450713543
0.00450713542
0.00450713542
0.00450713542
0.00450713542
0.00450713542
0.00450713542
0.00450713542
0.00450713542
0.00450713542
0.00450713542
0.00450713542
0.00450713542
0.00450713542
0.00450713543
0.00450713543
0.00450713542
0.00450713542
0.00450713543
0.00450713545
0.00450713543
0.00450713536
0.00450713538
0.00450713553
0.00450713554
0.0045071353
0.00450713519
0.00450713552
0.00450713575
0.00450713546
0.00450713504
0.00450713524
0.00450713578
0.00450713569
0.00450713518
0.00450713515
0.00450713558
0.00450713563
0.00450713537
0.0045071353
0.00450713544
0.00450713549
0.00450713543
0.0045071354
0.00450713543
0.00450713544
0.00450713537
0.00450713536
0.00450713555
0.0045071357
0.0045071353
0.0045071345
0.00450713493
0.0045071379
0.00450713782
0.00450713079
0.00450712828
0.00450714115
0.00450715257
0.00450713442
0.00450710115
0.00450711641
0.00450719355
0.00450718996
0.00450706176
0.00450703389
0.00450719642
0.00450729134
0.00450712462
0.00450693292
0.00450706079
0.00450736044
0.00450731011
0.00450691821
0.00450692001
0.0045072788
0.00450735044
0.00450707652
0.00450695049
0.00450712914
0.00450727466
0.00450717647
0.00450704272
0.00450708661
0.00450719032
0.00450717576
0.00450710653
0.00450710884
0.00450714911
0.00450714914
0.00450713007
0.00450712906
0.00450713801
0.00450713843
0.0045071336
0.00450713364
0.0045071369
0.00450713671
0.00450713439
0.00450713442
0.00450713609
0.00450713607
0.00450713512
0.00450713503
0.00450713556
0.00450713562
0.00450713539
0.00450713533
0.00450713543
0.00450713546
0.00450713543
0.00450713541
0.00450713542
0.00450713543
0.00450713543
0.00450713542
0.00450713542
0.00450713543
0.00450713542
0.00450713542
0.00450713543
0.00450713543
0.00450713542
0.00450713541
0.00450713543
0.00450713547
0.00450713546
0.00450713529
0.00450713528
0.00450713569
0.00450713588
0.0045071351
0.00450713418
0.00450713524
0.00450713826
0.0045071377
0.00450713022
0.00450712893
0.00450714126
0.00450714962
0.00450713507
0.00450711116
0.00450711723
0.00450716688
0.00450717524
0.00450712592
0.00450708079
0.00450708688
0.00450717001
0.0045072349
0.00450722087
0.00450700619
0.00450687407
0.00450713678
0.00450764752
0.0045075223
0.00450633731
0.00450623483
0.00450791777
0.00450871334
0.00450682579
0.00450482352
0.00450638325
0.00451002671
0.0045094225
0.00450402639
0.00450388353
0.00450933563
0.00451091827
0.00450632659
0.00450331001
0.00450650307
0.00451055935
0.00450889131
0.00450438366
0.00450481493
0.00450909451
0.004509234
0.00450618472
0.00450543032
0.00450735435
0.00450843815
0.00450738552
0.0045061924
0.00450660909
0.00450775472
0.0045076934
0.00450690053
0.00450677189
0.00450697239
0.00450715494
0.00450739758
0.00450767612
0.00450723403
0.00450593864
0.00450609633
0.00450886817
0.00450947753
0.00450571616
0.00450310265
0.00450689563
0.00451288682
0.00451074291
0.0045001559
0.00450039448
0.00451290161
0.00451591993
0.00450466876
0.00449768706
0.0045058008
0.00451567869
0.0045112369
0.00450030658
0.0045017662
0.00451260811
0.00451251067
0.00450290287
0.00450079458
0.00450974978
0.00451602309
0.00450866027
0.00449525933
0.00449797669
0.0045202788
0.00452271453
0.00449951115
0.00448643628
0.00450414769
0.00452984316
0.00452362507
0.00448568602
0.00448420747
0.00451741681
0.00453190471
0.00451159319
0.00448464889
0.00448953134
0.00452206367
0.00452819328
0.00450820914
0.00448795691
0.00449189418
0.00451854492
0.00452658003
0.00451140995
0.00448908789
0.00449121762
0.0045163876
0.00452492971
0.00451313857
0.00449288068
0.00449344296
0.00450948304
0.00451987836
0.00451701746
0.00450025222
0.00449351311
0.00450376161
0.00452013652
0.00451776195
0.00449706327
0.00449520557
0.00451218446
0.00451849939
0.00450583745
0.00449641504
0.00450557958
0.00451748487
0.00451160666
0.00449726093
0.00449948617
0.00451581929
0.00451567763
0.00450204452
0.00449932262
0.00450827829
0.00451296631
0.00450878708
0.00450386991
0.00450465729
0.00450803169
0.00450831976
0.004507984
0.00450770979
0.00450612312
0.00450514417
0.00450650093
0.00451004714
0.00451018465
0.00450520291
0.00450130363
0.00450363824
0.00451653161
0.00451803946
0.0044986914
0.00448596218
0.00450761515
0.00454018131
0.00452517632
0.00445992098
0.00446734095
0.00456875227
0.00456826723
0.00441681854
0.00442380914
0.0047049343
0.00466714754
0.00406572589
0.00416625172
0.00556759593
0.00550249713
0.00246338135
0.00262415888
0.00637167529
0.00681313319
0.00497246042
0.0010547558
0.000808796619
0.0073688076
0.00746171937
0.00345893046
0.000979886555
0.000653588075
0.00810114441
0.00801440222
0.000678871924
0.00100556489
0.000745375792
0.0066934211
0.0082075173
0.00590130186
0.00131504859
0.00136647876
0.00166047105
0.00174374188
0.00663034773
0.00215020342
0.00248034865
0.0026040061
0.00294635969
0.00308019664
0.00337652034
0.00349776286
0.00360778403
0.00350069837
0.00342838298
0.00370899786
0.00413971174
0.00457888282
0.0051098053
0.00569120155
0.00623875027
0.00601472973
0.00618182405
0.00665040494
0.00740061392
0.00844152829
0.00947233884
0.0099573627
0.0120111187
0.0142090481
0.0133727972
0.0116857291
0.0101507135
0.00952633056
0.00873450808
0.00835998049
0.0115985398
0.0130312871
0.01586358
0.0198260567
0.0261253426
0.0338872544
0.0385901641
0.0444584797
0.0506016196
0.0557458943
0.0605297554
0.0652641037
0.0698469568
0.0742354517
0.0786226389
0.0828343722
0.0872118276
0.0912679452
0.0952658858
0.0993065202
0.103513677
0.106833499
0.109964385
0.112511017
0.114629514
0.116427699
0.118152775
0.119509953
0.12096013
0.122292677
0.123619325
0.124813867
0.125918935
0.126942981
0.127929357
0.128800093
0.129612746
0.130281733
0.13095758
0.131511836
0.132090962
0.132515187
0.132994219
0.133354941
0.13378279
0.134094803
0.134498087
0.1347921
0.135165911
0.1354259
0.135742874
0.135962013
0.136240725
0.13641792
0.136646381
0.136781938
0.13697297
0.137088266
0.13725723
0.13736063
0.13750784
0.137600728
0.137744252
0.137847075
0.137968425
0.138059298
0.138166994
0.138254894
0.138348462
0.13842124
0.138496962
0.138555807
0.138612797
0.138649912
0.138689598
0.138718056
0.138748311
0.138768008
0.138788731
0.138800114
0.138812168
0.138814224
0.138817341
0.138811219
0.13880592
0.138792836
0.138779494
0.138759795
0.138738114
0.138713597
0.138687686
0.138659522
0.138627724
0.138594605
0.13855712
0.138519643
0.138476688
0.138434133
0.138384711
0.138338275
0.138283914
0.1382342
0.138175199
0.13812251
0.138059193
)
;

boundaryField
{
    closed
    {
        type            calculated;
        value           nonuniform List<scalar> 0();
    }
    open
    {
        type            calculated;
        value           nonuniform List<scalar> 0();
    }
    sides
    {
        type            empty;
    }
    procBoundary4to3
    {
        type            processor;
        value           uniform 0.00674761281;
    }
    procBoundary4to5
    {
        type            processor;
        value           uniform 0.138003787;
    }
}


// ************************************************************************* //
