/*--------------------------------*- C++ -*----------------------------------*\
| =========                 |                                                 |
| \\      /  F ield         | OpenFOAM: The Open Source CFD Toolbox           |
|  \\    /   O peration     | Version:  2306                                  |
|   \\  /    A nd           | Website:  www.openfoam.com                      |
|    \\/     M anipulation  |                                                 |
\*---------------------------------------------------------------------------*/
FoamFile
{
    version     2.0;
    format      ascii;
    arch        "LSB;label=32;scalar=64";
    class       volScalarField;
    location    "0.00032";
    object      mu;
}
// * * * * * * * * * * * * * * * * * * * * * * * * * * * * * * * * * * * * * //

dimensions      [1 -1 -1 0 0 0 0];

internalField   nonuniform List<scalar> 
531
(
2.02928915e-05
2.02298836e-05
1.9489097e-05
1.96987568e-05
2.02919723e-05
2.02260299e-05
1.94970265e-05
1.97200154e-05
2.02892778e-05
2.02412535e-05
1.9498837e-05
1.97887782e-05
2.02567459e-05
1.97556533e-05
1.95194685e-05
1.99652879e-05
2.02819582e-05
1.9771827e-05
1.9704929e-05
1.98030901e-05
1.99092445e-05
1.98100774e-05
1.97690954e-05
1.97913947e-05
1.98238218e-05
1.98051116e-05
1.9790554e-05
1.97958041e-05
1.98021263e-05
1.98000917e-05
1.97974948e-05
1.97980103e-05
1.97989147e-05
1.9798775e-05
1.97984347e-05
1.97984662e-05
1.97985684e-05
1.97985638e-05
1.97985277e-05
1.97985287e-05
1.97985381e-05
1.97985384e-05
1.97985354e-05
1.97985353e-05
1.97985359e-05
1.9798536e-05
1.97985358e-05
1.97985358e-05
1.97985358e-05
1.97985358e-05
1.97985358e-05
1.97985358e-05
1.97985358e-05
1.97985358e-05
1.97985358e-05
1.97985358e-05
1.97985358e-05
1.97985358e-05
1.97985358e-05
1.97985358e-05
1.97985358e-05
1.97985358e-05
1.97985358e-05
1.97985358e-05
1.97985358e-05
1.97985358e-05
1.97985358e-05
1.97985358e-05
1.97985358e-05
1.97985358e-05
1.97985358e-05
1.97985358e-05
1.97985358e-05
1.97985358e-05
1.97985358e-05
1.97985358e-05
1.97985358e-05
1.97985358e-05
1.97985358e-05
1.97985358e-05
1.97985358e-05
1.97985358e-05
1.97985358e-05
1.97985358e-05
1.97985358e-05
1.97985358e-05
1.97985358e-05
1.97985358e-05
1.97985358e-05
1.97985358e-05
1.97985358e-05
1.97985358e-05
1.97985358e-05
1.97985358e-05
1.97985358e-05
1.97985358e-05
1.97985358e-05
1.97985358e-05
1.97985358e-05
1.97985358e-05
1.97985358e-05
1.97985358e-05
1.97985358e-05
1.97985358e-05
1.97985358e-05
1.97985358e-05
1.97985358e-05
1.97985358e-05
1.97985358e-05
1.97985358e-05
1.97985359e-05
1.97985358e-05
1.97985357e-05
1.97985357e-05
1.97985361e-05
1.97985363e-05
1.97985355e-05
1.97985348e-05
1.97985359e-05
1.97985379e-05
1.9798537e-05
1.97985322e-05
1.97985324e-05
1.97985404e-05
1.97985421e-05
1.9798532e-05
1.97985261e-05
1.97985365e-05
1.97985484e-05
1.97985405e-05
1.97985218e-05
1.9798525e-05
1.97985493e-05
1.97985492e-05
1.97985269e-05
1.97985225e-05
1.97985395e-05
1.97985473e-05
1.97985362e-05
1.97985272e-05
1.97985333e-05
1.97985416e-05
1.97985389e-05
1.97985324e-05
1.97985333e-05
1.97985376e-05
1.97985375e-05
1.9798535e-05
1.9798535e-05
1.97985361e-05
1.97985362e-05
1.97985357e-05
1.97985356e-05
1.97985359e-05
1.97985359e-05
1.97985357e-05
1.97985357e-05
1.97985359e-05
1.97985359e-05
1.97985358e-05
1.97985358e-05
1.97985358e-05
1.97985358e-05
1.97985358e-05
1.97985358e-05
1.97985358e-05
1.97985358e-05
1.97985358e-05
1.97985358e-05
1.97985358e-05
1.97985358e-05
1.97985358e-05
1.97985358e-05
1.97985358e-05
1.97985358e-05
1.97985358e-05
1.97985358e-05
1.97985358e-05
1.97985358e-05
1.97985358e-05
1.97985358e-05
1.97985358e-05
1.97985358e-05
1.97985358e-05
1.97985358e-05
1.97985358e-05
1.97985358e-05
1.97985358e-05
1.97985358e-05
1.97985358e-05
1.97985358e-05
1.97985359e-05
1.97985358e-05
1.97985356e-05
1.97985357e-05
1.97985361e-05
1.97985362e-05
1.97985355e-05
1.97985349e-05
1.97985358e-05
1.97985373e-05
1.97985369e-05
1.97985339e-05
1.97985333e-05
1.97985364e-05
1.97985392e-05
1.97985388e-05
1.97985337e-05
1.97985296e-05
1.97985305e-05
1.97985439e-05
1.97985521e-05
1.97985357e-05
1.9798504e-05
1.97985118e-05
1.97985854e-05
1.97985918e-05
1.97984872e-05
1.97984378e-05
1.97985551e-05
1.97986796e-05
1.97985826e-05
1.97983563e-05
1.97983938e-05
1.97987292e-05
1.97987381e-05
1.97983992e-05
1.9798301e-05
1.97985861e-05
1.97987739e-05
1.97985751e-05
1.97983232e-05
1.97984267e-05
1.9798707e-05
1.97986801e-05
1.97984141e-05
1.97984055e-05
1.97985949e-05
1.97986419e-05
1.97985222e-05
1.97984549e-05
1.97985203e-05
1.97985944e-05
1.97985685e-05
1.97984973e-05
1.97985011e-05
1.97985504e-05
1.97985584e-05
1.9798546e-05
1.97985346e-05
1.97985195e-05
1.97985022e-05
1.97985297e-05
1.97986102e-05
1.97986004e-05
1.97984282e-05
1.97983904e-05
1.97986241e-05
1.97987868e-05
1.97985507e-05
1.9798179e-05
1.97983119e-05
1.97989705e-05
1.97989557e-05
1.97981781e-05
1.97979913e-05
1.97986893e-05
1.97991247e-05
1.97986188e-05
1.97980062e-05
1.97982812e-05
1.97989612e-05
1.97988701e-05
1.97981963e-05
1.97982023e-05
1.97987993e-05
1.97989307e-05
1.97983735e-05
1.9797985e-05
1.97984412e-05
1.97992766e-05
1.97991068e-05
1.97977221e-05
1.97975722e-05
1.97990109e-05
1.97998304e-05
1.97987219e-05
1.97971342e-05
1.97975161e-05
1.97998776e-05
1.97999707e-05
1.97978991e-05
1.97970079e-05
1.97982593e-05
1.9799943e-05
1.97996357e-05
1.97976124e-05
1.97972353e-05
1.97984694e-05
1.97997348e-05
1.97994875e-05
1.97978294e-05
1.97973344e-05
1.97982707e-05
1.97996636e-05
1.97995299e-05
1.97979626e-05
1.97974358e-05
1.97981635e-05
1.97994257e-05
1.97993903e-05
1.97983903e-05
1.97977469e-05
1.97979235e-05
1.97989646e-05
1.9799386e-05
1.97987458e-05
1.97977309e-05
1.97978774e-05
1.97991638e-05
1.979928e-05
1.97982225e-05
1.9797832e-05
1.97986165e-05
1.97992043e-05
1.97986325e-05
1.97978946e-05
1.97982582e-05
1.97991513e-05
1.97990123e-05
1.97979974e-05
1.97980061e-05
1.97988526e-05
1.97990223e-05
1.97984645e-05
1.97981736e-05
1.97984326e-05
1.97987383e-05
1.9798689e-05
1.97984789e-05
1.97984607e-05
1.9798481e-05
1.97984976e-05
1.97985955e-05
1.97986556e-05
1.97985702e-05
1.97983487e-05
1.97983391e-05
1.97986469e-05
1.97988885e-05
1.97987416e-05
1.97979398e-05
1.97978466e-05
1.97990482e-05
1.97998496e-05
1.97985009e-05
1.97965098e-05
1.97974473e-05
1.98015751e-05
1.98011483e-05
1.97950047e-05
1.97951457e-05
1.98048425e-05
1.98046161e-05
1.97884521e-05
1.9790989e-05
1.98314838e-05
1.98243343e-05
1.97632762e-05
1.97629012e-05
1.99883837e-05
1.99697862e-05
1.97601802e-05
1.96512313e-05
1.97817136e-05
2.03060957e-05
2.03081402e-05
1.94626279e-05
1.94308664e-05
1.98819221e-05
2.03186999e-05
2.03255426e-05
1.92133686e-05
1.92495026e-05
2.0350112e-05
2.04460362e-05
2.03939187e-05
1.95512689e-05
1.91939559e-05
1.95669227e-05
2.04158731e-05
2.03624776e-05
2.03713096e-05
2.01949245e-05
1.93258028e-05
2.0223217e-05
2.03389858e-05
2.02759863e-05
2.03450951e-05
2.03197176e-05
2.0376326e-05
2.03883601e-05
2.04941193e-05
2.06062892e-05
2.06174466e-05
2.04711532e-05
2.02958329e-05
2.01611506e-05
2.00465537e-05
1.99692198e-05
1.98759076e-05
1.98661938e-05
1.97022168e-05
1.95986589e-05
1.95214231e-05
1.946843e-05
1.93112322e-05
1.92051746e-05
1.86483343e-05
2.02047073e-05
2.09037609e-05
2.20802447e-05
2.21792073e-05
2.23395e-05
2.25485155e-05
2.27950482e-05
2.41464957e-05
2.48928712e-05
2.61613069e-05
2.78665915e-05
3.03811364e-05
3.33153231e-05
3.4901519e-05
3.66861248e-05
3.83793874e-05
3.9715119e-05
4.09037544e-05
4.20042584e-05
4.30043467e-05
4.39225091e-05
4.4798896e-05
4.5619246e-05
4.64272018e-05
4.7164087e-05
4.78704122e-05
4.85790839e-05
4.9298245e-05
4.98831211e-05
5.04375577e-05
5.09101238e-05
5.13082283e-05
5.1669764e-05
5.20325094e-05
5.23435005e-05
5.26783718e-05
5.29980528e-05
5.33179693e-05
5.36149226e-05
5.38961536e-05
5.41667282e-05
5.44376596e-05
5.46950197e-05
5.4934418e-05
5.51498955e-05
5.53782271e-05
5.55864185e-05
5.57922007e-05
5.59539317e-05
5.61273837e-05
5.62667194e-05
5.64314553e-05
5.65620082e-05
5.67275234e-05
5.68581949e-05
5.70225116e-05
5.71463552e-05
5.72909405e-05
5.74026837e-05
5.75416079e-05
5.76353285e-05
5.77515389e-05
5.78252855e-05
5.79249938e-05
5.79924253e-05
5.80843786e-05
5.81508233e-05
5.82341375e-05
5.82993462e-05
5.8382787e-05
5.84579357e-05
5.85317902e-05
5.86039613e-05
5.86727166e-05
5.87455882e-05
5.88086403e-05
5.8875689e-05
5.89314125e-05
5.89930831e-05
5.90399693e-05
5.90890048e-05
5.91266776e-05
5.91731645e-05
5.9207767e-05
5.92514494e-05
5.92828425e-05
5.93220703e-05
5.93489649e-05
5.9383888e-05
5.94080699e-05
5.94393904e-05
5.94613212e-05
5.94893439e-05
5.95095047e-05
5.95321073e-05
5.95483531e-05
5.95693698e-05
5.95847731e-05
5.96048748e-05
5.96185685e-05
5.96367045e-05
5.96488947e-05
5.96651564e-05
5.96760213e-05
5.9688489e-05
5.96960854e-05
5.97062979e-05
5.9712752e-05
5.9721308e-05
5.9726658e-05
5.97337361e-05
5.9738028e-05
)
;

boundaryField
{
    closed
    {
        type            calculated;
        value           nonuniform List<scalar> 0();
    }
    open
    {
        type            calculated;
        value           nonuniform List<scalar> 0();
    }
    sides
    {
        type            empty;
    }
    procBoundary4to3
    {
        type            processor;
        value           uniform 1.96744468e-05;
    }
    procBoundary4to5
    {
        type            processor;
        value           uniform 5.97437949e-05;
    }
}


// ************************************************************************* //
