/*--------------------------------*- C++ -*----------------------------------*\
| =========                 |                                                 |
| \\      /  F ield         | OpenFOAM: The Open Source CFD Toolbox           |
|  \\    /   O peration     | Version:  2306                                  |
|   \\  /    A nd           | Website:  www.openfoam.com                      |
|    \\/     M anipulation  |                                                 |
\*---------------------------------------------------------------------------*/
FoamFile
{
    version     2.0;
    format      ascii;
    arch        "LSB;label=32;scalar=64";
    class       volScalarField;
    location    "0.00032";
    object      p;
}
// * * * * * * * * * * * * * * * * * * * * * * * * * * * * * * * * * * * * * //

dimensions      [1 -1 -2 0 0 0 0];

internalField   nonuniform List<scalar> 
531
(
101671.119
101669.246
101666.226
101662.707
101658.963
101654.98
101650.194
101645.665
101641.621
101637.701
101632.978
101628.245
101623.416
101618.137
101612.544
101607.179
101601.715
101595.952
101590.214
101584.892
101580.051
101575.542
101571.305
101567.182
101563.029
101558.755
101554.386
101549.986
101545.605
101541.282
101537.049
101532.924
101528.909
101524.996
101521.172
101517.423
101513.729
101510.069
101506.425
101502.775
101499.101
101495.386
101491.615
101487.777
101483.865
101479.874
101475.805
101471.666
101467.467
101463.227
101458.967
101454.717
101450.511
101446.386
101442.385
101438.555
101434.944
101431.602
101428.582
101425.932
101423.704
101421.943
101420.693
101419.992
101419.872
101420.361
101421.477
101423.231
101425.628
101428.661
101432.316
101436.57
101441.391
101446.74
101452.569
101458.824
101465.446
101472.371
101479.532
101486.861
101494.288
101501.745
101509.168
101516.493
101523.664
101530.629
101537.343
101543.767
101549.87
101555.628
101561.025
101566.052
101570.705
101574.988
101578.91
101582.483
101585.723
101588.65
101591.283
101593.643
101595.753
101597.631
101599.296
101600.765
101602.053
101603.172
101604.131
101604.94
101605.605
101606.13
101606.521
101606.781
101606.916
101606.932
101606.838
101606.643
101606.361
101606.008
101605.604
101605.17
101604.734
101604.322
101603.965
101603.694
101603.543
101603.542
101603.724
101604.117
101604.747
101605.636
101606.801
101608.253
101609.997
101612.032
101614.347
101616.928
101619.748
101622.779
101625.981
101629.31
101632.717
101636.147
101639.539
101642.834
101645.967
101648.872
101651.486
101653.744
101655.586
101656.954
101657.792
101658.053
101657.693
101656.675
101654.969
101652.555
101649.418
101645.556
101640.973
101635.684
101629.716
101623.103
101615.892
101608.139
101599.91
101591.28
101582.334
101573.163
101563.866
101554.545
101545.308
101536.261
101527.513
101519.166
101511.32
101504.065
101497.482
101491.641
101486.595
101482.385
101479.031
101476.541
101474.899
101474.077
101474.025
101474.679
101475.962
101477.784
101480.044
101482.634
101485.442
101488.355
101491.261
101494.05
101496.62
101498.878
101500.739
101502.131
101502.995
101503.284
101502.965
101502.019
101500.44
101498.233
101495.418
101492.025
101488.095
101483.678
101478.835
101473.633
101468.15
101462.468
101456.676
101450.867
101445.14
101439.596
101434.336
101429.461
101425.071
101421.259
101418.112
101415.71
101414.118
101413.388
101413.556
101414.639
101416.637
101419.525
101423.26
101427.775
101432.987
101438.789
101445.064
101451.678
101458.491
101465.359
101472.138
101478.689
101484.884
101490.608
101495.762
101500.27
101504.075
101507.146
101509.473
101511.072
101511.981
101512.255
101511.97
101511.218
101510.099
101508.726
101507.214
101505.681
101504.241
101503.003
101502.066
101501.518
101501.431
101501.857
101502.831
101504.369
101506.463
101509.088
101512.2
101515.739
101519.632
101523.796
101528.143
101532.585
101537.036
101541.415
101545.651
101549.685
101553.47
101556.972
101560.17
101563.052
101565.618
101567.872
101569.823
101571.481
101572.859
101573.965
101574.808
101575.392
101575.721
101575.801
101575.641
101575.251
101574.65
101573.867
101572.94
101571.92
101570.864
101569.841
101568.928
101568.205
101567.75
101567.64
101567.941
101568.704
101569.968
101571.748
101574.038
101576.809
101580.008
101583.561
101587.375
101591.34
101595.337
101599.241
101602.927
101606.275
101609.178
101611.542
101613.297
101614.395
101614.813
101614.551
101613.634
101612.103
101610.017
101607.441
101604.443
101601.086
101597.429
101593.515
101589.375
101585.025
101580.471
101575.709
101570.733
101565.532
101560.098
101554.428
101548.515
101542.353
101535.925
101529.202
101522.134
101514.648
101506.646
101498.01
101488.611
101478.319
101467.023
101454.649
101441.18
101426.675
101411.282
101395.251
101378.937
101362.807
101347.373
101333.312
101321.285
101312.02
101306.225
101304.546
101307.526
101315.547
101328.749
101346.969
101369.721
101396.051
101424.524
101453.923
101482.643
101508.409
101529.328
101544.015
101551.516
101550.688
101541.696
101525.297
101502.573
101473.242
101439.992
101406.824
101375.177
101346.206
101318.531
101292.478
101274.534
101263.458
101261.443
101270.928
101294.725
101333.527
101384.674
101447.071
101516.07
101587.131
101653.779
101700.626
101728.738
101736.551
101724.595
101696.113
101655.562
101607.018
101553.676
101497.023
101437.573
101374.734
101314.345
101264.829
101239.188
101254.012
101322.447
101446.89
101608.21
101780.678
101916.684
101978.597
101951.868
101851.109
101710.412
101591.618
101480.298
101275.331
101333.109
101140.564
101356.972
101435.843
101524.612
101580.237
101644.76
101696.683
101741.958
101775.36
101801.296
101816.431
101817.018
101802.473
101773.196
101731.29
101679.977
101623.295
101565.562
101510.688
101462.024
101421.842
101391.467
101371.304
101360.926
101359.375
101365.385
101377.587
101394.808
101415.506
101438.432
101462.542
101487.022
101511.147
101534.393
101556.414
101577.008
101595.851
101612.879
101627.985
101641.088
101652.116
101660.954
101667.488
101671.604
101673.2
101672.157
101668.387
101661.818
101652.438
101640.269
101625.415
101608.026
101588.335
101566.624
101543.242
101518.578
101493.038
101467.098
101441.263
101416.01
101391.783
101369.006
101348.078
101329.338
101313.077
101299.517
101288.813
101281.057
101276.271
101274.417
101275.391
101279.045
101285.184
101293.572
101303.947
101316.005
101329.448
101343.965
101359.245
101374.979
101390.871
101406.637
101422.015
101436.767
101450.683
101463.579
101475.302
101485.73
101494.773
101502.391
101508.507
101513.169
101516.377
101518.182
101518.65
101517.868
101515.936
101512.965
101509.073
101504.386
101499.03
101493.131
101486.814
101480.197
101473.392
101466.507
101459.636
101452.867
)
;

boundaryField
{
    closed
    {
        type            zeroGradient;
    }
    open
    {
        type            waveTransmissive;
        gamma           1.25;
        fieldInf        101325;
        lInf            1;
        value           nonuniform List<scalar> 0();
    }
    sides
    {
        type            empty;
    }
    procBoundary4to3
    {
        type            processor;
        value           uniform 101672.581;
    }
    procBoundary4to5
    {
        type            processor;
        value           uniform 101446.28;
    }
}


// ************************************************************************* //
