/*--------------------------------*- C++ -*----------------------------------*\
| =========                 |                                                 |
| \\      /  F ield         | OpenFOAM: The Open Source CFD Toolbox           |
|  \\    /   O peration     | Version:  2306                                  |
|   \\  /    A nd           | Website:  www.openfoam.com                      |
|    \\/     M anipulation  |                                                 |
\*---------------------------------------------------------------------------*/
FoamFile
{
    version     2.0;
    format      ascii;
    arch        "LSB;label=32;scalar=64";
    class       volScalarField;
    location    "0.00032";
    object      prefDPV_H2;
}
// * * * * * * * * * * * * * * * * * * * * * * * * * * * * * * * * * * * * * //

dimensions      [1 -1 -1 0 0 0 0];

internalField   nonuniform List<scalar> 
531
(
-3.15301784e-05
-3.14187374e-05
-3.05489094e-05
-3.08309672e-05
-3.15284873e-05
-3.14132488e-05
-3.05595056e-05
-3.08600947e-05
-3.15245458e-05
-3.14367741e-05
-3.05615426e-05
-3.09212426e-05
-3.14695854e-05
-3.09090224e-05
-3.05891558e-05
-3.11025435e-05
-3.15086251e-05
-3.09003131e-05
-3.08404924e-05
-3.09251707e-05
-3.10387292e-05
-3.09311111e-05
-3.08978547e-05
-3.091266e-05
-3.09449889e-05
-3.09255639e-05
-3.09115559e-05
-3.0916313e-05
-3.09224319e-05
-3.09203869e-05
-3.09178304e-05
-3.09183203e-05
-3.09191865e-05
-3.09190492e-05
-3.09187114e-05
-3.09187425e-05
-3.09188395e-05
-3.09188354e-05
-3.09187993e-05
-3.09188004e-05
-3.09188093e-05
-3.09188096e-05
-3.09188065e-05
-3.09188065e-05
-3.09188071e-05
-3.09188072e-05
-3.0918807e-05
-3.0918807e-05
-3.0918807e-05
-3.0918807e-05
-3.0918807e-05
-3.0918807e-05
-3.0918807e-05
-3.0918807e-05
-3.0918807e-05
-3.0918807e-05
-3.0918807e-05
-3.0918807e-05
-3.0918807e-05
-3.0918807e-05
-3.0918807e-05
-3.0918807e-05
-3.0918807e-05
-3.0918807e-05
-3.0918807e-05
-3.0918807e-05
-3.0918807e-05
-3.0918807e-05
-3.0918807e-05
-3.0918807e-05
-3.0918807e-05
-3.0918807e-05
-3.0918807e-05
-3.0918807e-05
-3.0918807e-05
-3.0918807e-05
-3.0918807e-05
-3.0918807e-05
-3.0918807e-05
-3.0918807e-05
-3.0918807e-05
-3.0918807e-05
-3.0918807e-05
-3.0918807e-05
-3.0918807e-05
-3.0918807e-05
-3.0918807e-05
-3.0918807e-05
-3.0918807e-05
-3.0918807e-05
-3.0918807e-05
-3.0918807e-05
-3.0918807e-05
-3.0918807e-05
-3.0918807e-05
-3.0918807e-05
-3.0918807e-05
-3.0918807e-05
-3.0918807e-05
-3.0918807e-05
-3.0918807e-05
-3.0918807e-05
-3.0918807e-05
-3.0918807e-05
-3.0918807e-05
-3.0918807e-05
-3.0918807e-05
-3.0918807e-05
-3.0918807e-05
-3.0918807e-05
-3.0918807e-05
-3.0918807e-05
-3.09188068e-05
-3.09188068e-05
-3.09188073e-05
-3.09188074e-05
-3.09188066e-05
-3.09188059e-05
-3.0918807e-05
-3.09188091e-05
-3.09188081e-05
-3.09188035e-05
-3.09188037e-05
-3.09188114e-05
-3.09188131e-05
-3.09188033e-05
-3.09187975e-05
-3.09188076e-05
-3.09188192e-05
-3.09188115e-05
-3.09187934e-05
-3.09187964e-05
-3.09188201e-05
-3.091882e-05
-3.09187983e-05
-3.0918794e-05
-3.09188105e-05
-3.09188182e-05
-3.09188074e-05
-3.09187986e-05
-3.09188045e-05
-3.09188126e-05
-3.09188099e-05
-3.09188037e-05
-3.09188045e-05
-3.09188087e-05
-3.09188086e-05
-3.09188062e-05
-3.09188062e-05
-3.09188073e-05
-3.09188074e-05
-3.09188068e-05
-3.09188068e-05
-3.09188071e-05
-3.09188071e-05
-3.09188069e-05
-3.09188069e-05
-3.0918807e-05
-3.0918807e-05
-3.09188069e-05
-3.09188069e-05
-3.0918807e-05
-3.0918807e-05
-3.0918807e-05
-3.0918807e-05
-3.0918807e-05
-3.0918807e-05
-3.0918807e-05
-3.0918807e-05
-3.0918807e-05
-3.0918807e-05
-3.0918807e-05
-3.0918807e-05
-3.0918807e-05
-3.0918807e-05
-3.0918807e-05
-3.0918807e-05
-3.0918807e-05
-3.0918807e-05
-3.0918807e-05
-3.0918807e-05
-3.0918807e-05
-3.0918807e-05
-3.0918807e-05
-3.0918807e-05
-3.0918807e-05
-3.0918807e-05
-3.0918807e-05
-3.0918807e-05
-3.0918807e-05
-3.0918807e-05
-3.09188071e-05
-3.0918807e-05
-3.09188068e-05
-3.09188068e-05
-3.09188073e-05
-3.09188074e-05
-3.09188066e-05
-3.09188061e-05
-3.0918807e-05
-3.09188085e-05
-3.09188081e-05
-3.09188051e-05
-3.09188046e-05
-3.09188076e-05
-3.09188103e-05
-3.09188099e-05
-3.09188049e-05
-3.0918801e-05
-3.09188018e-05
-3.09188148e-05
-3.09188228e-05
-3.09188069e-05
-3.0918776e-05
-3.09187836e-05
-3.09188553e-05
-3.09188615e-05
-3.09187596e-05
-3.09187115e-05
-3.09188257e-05
-3.09189471e-05
-3.09188525e-05
-3.09186321e-05
-3.09186687e-05
-3.09189955e-05
-3.09190041e-05
-3.09186739e-05
-3.09185783e-05
-3.0918856e-05
-3.0919039e-05
-3.09188453e-05
-3.09186e-05
-3.09187008e-05
-3.09189738e-05
-3.09189476e-05
-3.09186885e-05
-3.091868e-05
-3.09188646e-05
-3.09189103e-05
-3.09187937e-05
-3.09187282e-05
-3.09187918e-05
-3.09188641e-05
-3.09188389e-05
-3.09187695e-05
-3.09187732e-05
-3.09188212e-05
-3.0918829e-05
-3.09188169e-05
-3.09188058e-05
-3.09187911e-05
-3.09187743e-05
-3.0918801e-05
-3.09188795e-05
-3.09188699e-05
-3.09187022e-05
-3.09186653e-05
-3.0918893e-05
-3.09190516e-05
-3.09188215e-05
-3.09184596e-05
-3.09185889e-05
-3.09192308e-05
-3.09192163e-05
-3.09184587e-05
-3.09182771e-05
-3.09189565e-05
-3.09193813e-05
-3.09188878e-05
-3.09182917e-05
-3.09185591e-05
-3.09192217e-05
-3.09191328e-05
-3.09184765e-05
-3.09184823e-05
-3.09190637e-05
-3.0919192e-05
-3.09186489e-05
-3.0918271e-05
-3.09187148e-05
-3.09195297e-05
-3.09193638e-05
-3.09180157e-05
-3.09178702e-05
-3.09192703e-05
-3.09200714e-05
-3.09189884e-05
-3.09174456e-05
-3.09178157e-05
-3.09201175e-05
-3.09202088e-05
-3.09181876e-05
-3.09173234e-05
-3.09185379e-05
-3.09201816e-05
-3.09198807e-05
-3.09179093e-05
-3.09175436e-05
-3.09187425e-05
-3.09199777e-05
-3.09197358e-05
-3.09181199e-05
-3.09176395e-05
-3.0918549e-05
-3.09199081e-05
-3.09197772e-05
-3.09182494e-05
-3.09177378e-05
-3.09184446e-05
-3.09196753e-05
-3.09196408e-05
-3.09186653e-05
-3.09180397e-05
-3.09182113e-05
-3.09192251e-05
-3.09196365e-05
-3.09190117e-05
-3.09180242e-05
-3.09181665e-05
-3.09194195e-05
-3.0919533e-05
-3.0918502e-05
-3.09181224e-05
-3.09188856e-05
-3.09194591e-05
-3.09189012e-05
-3.09181832e-05
-3.09185367e-05
-3.09194073e-05
-3.09192715e-05
-3.0918283e-05
-3.09182915e-05
-3.09191157e-05
-3.09192813e-05
-3.09187374e-05
-3.09184543e-05
-3.09187063e-05
-3.0919004e-05
-3.09189559e-05
-3.0918751e-05
-3.09187332e-05
-3.09187528e-05
-3.09187687e-05
-3.09188638e-05
-3.09189221e-05
-3.09188385e-05
-3.09186223e-05
-3.09186125e-05
-3.09189116e-05
-3.09191467e-05
-3.09190028e-05
-3.09182216e-05
-3.0918131e-05
-3.09193011e-05
-3.09200859e-05
-3.09187709e-05
-3.09168447e-05
-3.09177597e-05
-3.09218097e-05
-3.09214075e-05
-3.09154873e-05
-3.0915669e-05
-3.09252283e-05
-3.09250907e-05
-3.09098747e-05
-3.09124193e-05
-3.09531246e-05
-3.09457908e-05
-3.08969087e-05
-3.08947485e-05
-3.11292834e-05
-3.11076702e-05
-3.09130118e-05
-3.07683835e-05
-3.09073027e-05
-3.15505134e-05
-3.1540763e-05
-3.05139255e-05
-3.04709341e-05
-3.10074533e-05
-3.15653227e-05
-3.15586826e-05
-3.01777649e-05
-3.02295926e-05
-3.15964549e-05
-3.1755421e-05
-3.16648256e-05
-3.06332285e-05
-3.01605666e-05
-3.06349504e-05
-3.17263191e-05
-3.1649718e-05
-3.1677912e-05
-3.14199768e-05
-3.03212453e-05
-3.14829635e-05
-3.16725222e-05
-3.15851931e-05
-3.1706462e-05
-3.16758139e-05
-3.17768555e-05
-3.180184e-05
-3.1968156e-05
-3.21327271e-05
-3.21612646e-05
-3.19698569e-05
-3.17452258e-05
-3.15780958e-05
-3.14437991e-05
-3.13643951e-05
-3.12634964e-05
-3.12602613e-05
-3.10573834e-05
-3.09455416e-05
-3.08806336e-05
-3.08603428e-05
-3.070146e-05
-3.06049547e-05
-2.99212494e-05
-3.22928772e-05
-3.33247005e-05
-3.51277108e-05
-3.53081354e-05
-3.55818955e-05
-3.59977345e-05
-3.64388916e-05
-3.85834728e-05
-3.97889901e-05
-4.18018061e-05
-4.4476826e-05
-4.84272776e-05
-5.3062563e-05
-5.56241296e-05
-5.85097064e-05
-6.12412585e-05
-6.33964645e-05
-6.5284771e-05
-6.70142843e-05
-6.85486597e-05
-6.99517222e-05
-7.12689313e-05
-7.2501409e-05
-7.36879919e-05
-7.47691749e-05
-7.57895621e-05
-7.68085037e-05
-7.78238354e-05
-7.86541394e-05
-7.9436256e-05
-8.01066429e-05
-8.06701789e-05
-8.11836794e-05
-8.16979892e-05
-8.21355322e-05
-8.26158903e-05
-8.30765925e-05
-8.35443891e-05
-8.39816459e-05
-8.4403467e-05
-8.48072441e-05
-8.52181267e-05
-8.56136403e-05
-8.59860091e-05
-8.6322539e-05
-8.66797489e-05
-8.70137907e-05
-8.7343091e-05
-8.76054266e-05
-8.7886549e-05
-8.81154304e-05
-8.8384357e-05
-8.85984633e-05
-8.88721056e-05
-8.9088976e-05
-8.93620222e-05
-8.95689544e-05
-8.9811392e-05
-9.00003233e-05
-9.02354091e-05
-9.03957696e-05
-9.05949988e-05
-9.0724414e-05
-9.089829e-05
-9.10172159e-05
-9.11803491e-05
-9.12982035e-05
-9.14473476e-05
-9.15627909e-05
-9.17130099e-05
-9.18448346e-05
-9.19793952e-05
-9.21063076e-05
-9.22324109e-05
-9.23607868e-05
-9.24772979e-05
-9.25964792e-05
-9.27005708e-05
-9.28113319e-05
-9.29008417e-05
-9.2992261e-05
-9.30669592e-05
-9.3154418e-05
-9.32237211e-05
-9.33067509e-05
-9.33704451e-05
-9.34466144e-05
-9.35030131e-05
-9.35724303e-05
-9.36241919e-05
-9.36878803e-05
-9.37358029e-05
-9.37941966e-05
-9.38391464e-05
-9.38889739e-05
-9.39277623e-05
-9.39752757e-05
-9.40124893e-05
-9.40585614e-05
-9.40928452e-05
-9.41357154e-05
-9.41674318e-05
-9.42072097e-05
-9.42366726e-05
-9.4270449e-05
-9.42947891e-05
-9.43248724e-05
-9.43473186e-05
-9.43745871e-05
-9.43952242e-05
-9.44199331e-05
-9.44388501e-05
)
;

boundaryField
{
    closed
    {
        type            calculated;
        value           nonuniform List<scalar> 0();
    }
    open
    {
        type            calculated;
        value           nonuniform List<scalar> 0();
    }
    sides
    {
        type            empty;
    }
    procBoundary4to3
    {
        type            processor;
        value           uniform -3.07983921e-05;
    }
    procBoundary4to5
    {
        type            processor;
        value           uniform -9.44612443e-05;
    }
}


// ************************************************************************* //
