/*--------------------------------*- C++ -*----------------------------------*\
| =========                 |                                                 |
| \\      /  F ield         | OpenFOAM: The Open Source CFD Toolbox           |
|  \\    /   O peration     | Version:  2306                                  |
|   \\  /    A nd           | Website:  www.openfoam.com                      |
|    \\/     M anipulation  |                                                 |
\*---------------------------------------------------------------------------*/
FoamFile
{
    version     2.0;
    format      ascii;
    arch        "LSB;label=32;scalar=64";
    class       volScalarField;
    location    "0.00032";
    object      prefDPV_H2O;
}
// * * * * * * * * * * * * * * * * * * * * * * * * * * * * * * * * * * * * * //

dimensions      [1 -1 -1 0 0 0 0];

internalField   nonuniform List<scalar> 
531
(
-3.84188067e-07
-3.87143591e-07
-3.64499055e-07
-3.6636264e-07
-3.84239768e-07
-3.87150255e-07
-3.64579293e-07
-3.66478792e-07
-3.84258017e-07
-3.86882208e-07
-3.64649962e-07
-3.71024887e-07
-3.85445868e-07
-3.6665946e-07
-3.64852851e-07
-3.79712593e-07
-3.84991746e-07
-3.70629612e-07
-3.66248881e-07
-3.73080532e-07
-3.77738908e-07
-3.735792e-07
-3.70451193e-07
-3.72566275e-07
-3.7428582e-07
-3.73390303e-07
-3.72554922e-07
-3.72893101e-07
-3.73251429e-07
-3.7314561e-07
-3.73003803e-07
-3.73034154e-07
-3.7308654e-07
-3.73078885e-07
-3.73060658e-07
-3.73062368e-07
-3.73068395e-07
-3.73068092e-07
-3.73066192e-07
-3.73066223e-07
-3.73066794e-07
-3.73066798e-07
-3.73066642e-07
-3.73066635e-07
-3.73066674e-07
-3.73066678e-07
-3.73066669e-07
-3.73066667e-07
-3.73066669e-07
-3.7306667e-07
-3.73066669e-07
-3.73066669e-07
-3.73066669e-07
-3.73066669e-07
-3.73066669e-07
-3.73066669e-07
-3.73066669e-07
-3.73066669e-07
-3.73066669e-07
-3.73066669e-07
-3.73066669e-07
-3.73066669e-07
-3.73066669e-07
-3.73066669e-07
-3.73066669e-07
-3.73066669e-07
-3.73066669e-07
-3.73066669e-07
-3.73066669e-07
-3.73066669e-07
-3.73066669e-07
-3.73066669e-07
-3.73066669e-07
-3.73066669e-07
-3.73066669e-07
-3.73066669e-07
-3.73066669e-07
-3.73066669e-07
-3.73066669e-07
-3.73066669e-07
-3.7306667e-07
-3.7306667e-07
-3.73066669e-07
-3.73066669e-07
-3.7306667e-07
-3.7306667e-07
-3.73066669e-07
-3.73066668e-07
-3.73066669e-07
-3.73066671e-07
-3.7306667e-07
-3.73066668e-07
-3.73066668e-07
-3.7306667e-07
-3.7306667e-07
-3.73066669e-07
-3.73066669e-07
-3.7306667e-07
-3.7306667e-07
-3.73066669e-07
-3.73066669e-07
-3.73066669e-07
-3.73066669e-07
-3.73066669e-07
-3.73066669e-07
-3.7306667e-07
-3.7306667e-07
-3.73066669e-07
-3.73066668e-07
-3.7306667e-07
-3.73066673e-07
-3.73066671e-07
-3.73066661e-07
-3.73066661e-07
-3.73066685e-07
-3.73066694e-07
-3.73066649e-07
-3.7306661e-07
-3.73066673e-07
-3.73066788e-07
-3.73066735e-07
-3.73066467e-07
-3.7306648e-07
-3.73066925e-07
-3.73067022e-07
-3.73066458e-07
-3.73066128e-07
-3.73066707e-07
-3.73067373e-07
-3.73066929e-07
-3.73065888e-07
-3.73066063e-07
-3.73067424e-07
-3.73067418e-07
-3.73066171e-07
-3.73065922e-07
-3.73066874e-07
-3.73067312e-07
-3.73066691e-07
-3.73066186e-07
-3.73066527e-07
-3.73066991e-07
-3.73066839e-07
-3.73066479e-07
-3.73066529e-07
-3.7306677e-07
-3.73066762e-07
-3.73066622e-07
-3.73066622e-07
-3.73066688e-07
-3.73066692e-07
-3.7306666e-07
-3.73066659e-07
-3.73066676e-07
-3.73066676e-07
-3.73066664e-07
-3.73066665e-07
-3.73066673e-07
-3.73066673e-07
-3.73066667e-07
-3.73066667e-07
-3.7306667e-07
-3.73066671e-07
-3.73066669e-07
-3.73066669e-07
-3.7306667e-07
-3.7306667e-07
-3.73066669e-07
-3.73066669e-07
-3.73066669e-07
-3.73066669e-07
-3.73066669e-07
-3.73066669e-07
-3.73066669e-07
-3.73066669e-07
-3.73066669e-07
-3.73066669e-07
-3.73066669e-07
-3.73066669e-07
-3.73066669e-07
-3.73066669e-07
-3.73066669e-07
-3.73066669e-07
-3.73066669e-07
-3.73066669e-07
-3.73066669e-07
-3.7306667e-07
-3.7306667e-07
-3.73066668e-07
-3.73066668e-07
-3.73066671e-07
-3.73066674e-07
-3.7306667e-07
-3.7306666e-07
-3.73066661e-07
-3.73066687e-07
-3.73066692e-07
-3.73066649e-07
-3.7306662e-07
-3.73066671e-07
-3.73066754e-07
-3.73066733e-07
-3.7306656e-07
-3.73066531e-07
-3.73066702e-07
-3.73066859e-07
-3.73066838e-07
-3.73066549e-07
-3.73066324e-07
-3.73066373e-07
-3.73067118e-07
-3.73067577e-07
-3.73066665e-07
-3.7306489e-07
-3.73065325e-07
-3.73069442e-07
-3.73069798e-07
-3.73063952e-07
-3.73061188e-07
-3.73067745e-07
-3.73074702e-07
-3.73069283e-07
-3.73056626e-07
-3.73058724e-07
-3.73077471e-07
-3.73077968e-07
-3.73059026e-07
-3.73053529e-07
-3.73069479e-07
-3.73079961e-07
-3.73068866e-07
-3.73054775e-07
-3.7306057e-07
-3.7307623e-07
-3.73074731e-07
-3.73059864e-07
-3.73059379e-07
-3.73069972e-07
-3.73072593e-07
-3.73065909e-07
-3.73062144e-07
-3.73065801e-07
-3.73069946e-07
-3.73068498e-07
-3.73064518e-07
-3.73064731e-07
-3.73067485e-07
-3.73067932e-07
-3.73067236e-07
-3.73066602e-07
-3.73065759e-07
-3.73064791e-07
-3.73066327e-07
-3.73070827e-07
-3.73070279e-07
-3.7306065e-07
-3.73058533e-07
-3.730716e-07
-3.73080681e-07
-3.73067503e-07
-3.73046692e-07
-3.73054138e-07
-3.73090921e-07
-3.73090092e-07
-3.7304664e-07
-3.73036158e-07
-3.73075239e-07
-3.73099502e-07
-3.73071306e-07
-3.73036996e-07
-3.73052422e-07
-3.73090398e-07
-3.73085325e-07
-3.7304766e-07
-3.73047998e-07
-3.73081375e-07
-3.73088702e-07
-3.73057588e-07
-3.730358e-07
-3.73061373e-07
-3.73107941e-07
-3.73098496e-07
-3.73021023e-07
-3.73012569e-07
-3.73093163e-07
-3.73138619e-07
-3.73077051e-07
-3.72987827e-07
-3.73009407e-07
-3.73141228e-07
-3.7314637e-07
-3.73030962e-07
-3.72980674e-07
-3.73051186e-07
-3.73144835e-07
-3.73127855e-07
-3.73014829e-07
-3.72993552e-07
-3.73062941e-07
-3.7313333e-07
-3.7311964e-07
-3.73027045e-07
-3.72999151e-07
-3.73051822e-07
-3.73129397e-07
-3.73121992e-07
-3.73034536e-07
-3.73004879e-07
-3.73045818e-07
-3.7311621e-07
-3.73114255e-07
-3.73058516e-07
-3.73022414e-07
-3.73032347e-07
-3.73090587e-07
-3.73114011e-07
-3.73078392e-07
-3.73021518e-07
-3.73029762e-07
-3.7310167e-07
-3.73108128e-07
-3.73049131e-07
-3.73027202e-07
-3.73071179e-07
-3.73103924e-07
-3.73072075e-07
-3.73030724e-07
-3.73051137e-07
-3.73100983e-07
-3.73093248e-07
-3.73036507e-07
-3.73036999e-07
-3.73084357e-07
-3.73093816e-07
-3.73062697e-07
-3.73046413e-07
-3.73060928e-07
-3.73078011e-07
-3.73075274e-07
-3.73063548e-07
-3.73062546e-07
-3.73063709e-07
-3.73064659e-07
-3.73070167e-07
-3.73073564e-07
-3.73068844e-07
-3.73056517e-07
-3.73056033e-07
-3.73073329e-07
-3.73086871e-07
-3.73078749e-07
-3.73033952e-07
-3.73028716e-07
-3.73095929e-07
-3.73140203e-07
-3.73064972e-07
-3.72952006e-07
-3.73004181e-07
-3.73231274e-07
-3.73205717e-07
-3.72854291e-07
-3.72856634e-07
-3.73384435e-07
-3.73361432e-07
-3.72391557e-07
-3.72524257e-07
-3.74629802e-07
-3.74276752e-07
-3.69532045e-07
-3.6973651e-07
-3.80467694e-07
-3.79867662e-07
-3.66953394e-07
-3.65753668e-07
-3.71514542e-07
-3.83964855e-07
-3.85622778e-07
-3.64178354e-07
-3.63932082e-07
-3.76794876e-07
-3.84355722e-07
-3.86493426e-07
-3.62077692e-07
-3.61961193e-07
-3.86086993e-07
-3.82993219e-07
-3.85228359e-07
-3.64838308e-07
-3.6069102e-07
-3.67407281e-07
-3.8121304e-07
-3.81370489e-07
-3.79301106e-07
-3.80467567e-07
-3.63799949e-07
-3.77435214e-07
-3.73999535e-07
-3.73784776e-07
-3.70662876e-07
-3.6997901e-07
-3.67192447e-07
-3.66136159e-07
-3.63884391e-07
-3.63054567e-07
-3.6131879e-07
-3.59288324e-07
-3.56227422e-07
-3.5315953e-07
-3.49505641e-07
-3.45558856e-07
-3.41462836e-07
-3.39992721e-07
-3.36204646e-07
-3.31651261e-07
-3.25797805e-07
-3.18562311e-07
-3.10301692e-07
-3.03312612e-07
-2.89958721e-07
-2.66096051e-07
-2.58837949e-07
-2.37993059e-07
-2.32385595e-07
-2.25804485e-07
-2.0996818e-07
-1.97700833e-07
-1.63915995e-07
-1.42463735e-07
-1.0974666e-07
-6.91686194e-08
-6.9000046e-09
7.20517662e-08
1.23795471e-07
1.85603742e-07
2.46836583e-07
2.98038871e-07
3.42603368e-07
3.84212059e-07
4.19924094e-07
4.54193963e-07
4.86039956e-07
5.17237529e-07
5.46885977e-07
5.74957485e-07
6.01130501e-07
6.27736755e-07
6.53744491e-07
6.75435036e-07
6.95613079e-07
7.12951656e-07
7.27438416e-07
7.40347049e-07
7.52920579e-07
7.62886287e-07
7.74426616e-07
7.85403036e-07
7.96889193e-07
8.07575611e-07
8.18232506e-07
8.28023281e-07
8.38178483e-07
8.47969188e-07
8.57338918e-07
8.65609874e-07
8.74250309e-07
8.82583914e-07
8.90799832e-07
8.97363137e-07
9.04375426e-07
9.10176659e-07
9.16823485e-07
9.22098548e-07
9.28895144e-07
9.34267086e-07
9.4101492e-07
9.46098927e-07
9.52148335e-07
9.56854575e-07
9.62727801e-07
9.66811067e-07
9.7190504e-07
9.7534154e-07
9.79920403e-07
9.83094492e-07
9.87510438e-07
9.90643212e-07
9.94743577e-07
9.97773284e-07
1.0019134e-06
1.00526189e-06
1.00904342e-06
1.01225853e-06
1.01581716e-06
1.01904137e-06
1.02234653e-06
1.02537974e-06
1.02837543e-06
1.03123821e-06
1.03389952e-06
1.03642238e-06
1.03877144e-06
1.04120721e-06
1.04340282e-06
1.04574113e-06
1.04778244e-06
1.04998263e-06
1.05185218e-06
1.05391768e-06
1.05566315e-06
1.05761128e-06
1.05925129e-06
1.06108905e-06
1.06264538e-06
1.06431658e-06
1.06573976e-06
1.06736913e-06
1.0687371e-06
1.0703316e-06
1.07161974e-06
1.07314191e-06
1.07435896e-06
1.07581003e-06
1.07696375e-06
1.07829377e-06
1.07933944e-06
1.08058917e-06
1.08158398e-06
1.08276656e-06
1.08371439e-06
1.08483293e-06
1.08573725e-06
)
;

boundaryField
{
    closed
    {
        type            calculated;
        value           nonuniform List<scalar> 0();
    }
    open
    {
        type            calculated;
        value           nonuniform List<scalar> 0();
    }
    sides
    {
        type            empty;
    }
    procBoundary4to3
    {
        type            processor;
        value           uniform -3.66128645e-07;
    }
    procBoundary4to5
    {
        type            processor;
        value           uniform 1.0867951e-06;
    }
}


// ************************************************************************* //
