/*--------------------------------*- C++ -*----------------------------------*\
| =========                 |                                                 |
| \\      /  F ield         | OpenFOAM: The Open Source CFD Toolbox           |
|  \\    /   O peration     | Version:  2306                                  |
|   \\  /    A nd           | Website:  www.openfoam.com                      |
|    \\/     M anipulation  |                                                 |
\*---------------------------------------------------------------------------*/
FoamFile
{
    version     2.0;
    format      ascii;
    arch        "LSB;label=32;scalar=64";
    class       volScalarField;
    location    "0.0015";
    object      H;
}
// * * * * * * * * * * * * * * * * * * * * * * * * * * * * * * * * * * * * * //

dimensions      [0 0 0 0 0 0 0];

internalField   nonuniform List<scalar> 
531
(
1.00174888e-09
1.16033816e-09
9.42712915e-10
3.96031711e-08
4.94767724e-08
4.47673887e-08
5.24880401e-08
5.20728878e-08
1.06727544e-09
1.18524393e-09
3.95711119e-08
4.33451377e-08
1.15557896e-09
1.24968449e-09
3.86959878e-08
4.27022417e-08
1.17967846e-09
1.21677377e-09
1.94961462e-08
4.71415626e-08
4.70346625e-08
1.12951106e-09
1.20525185e-09
4.08072143e-08
4.40740732e-08
8.65112368e-10
1.14610726e-09
2.06867326e-09
5.22239699e-08
5.25704573e-08
8.4630778e-10
1.22520477e-09
9.46907282e-10
2.82635258e-08
5.89628963e-08
5.43473417e-08
8.98668972e-10
1.12693539e-09
1.00649772e-09
4.41150865e-08
4.86895517e-08
9.62281072e-10
1.25773005e-09
1.04678553e-09
2.62458988e-08
5.12441634e-08
4.99047509e-08
1.15761983e-09
1.1447826e-09
3.4577415e-08
4.47669002e-08
5.34828292e-08
5.31485739e-08
9.22308661e-10
1.189468e-09
1.01628617e-09
3.71794463e-08
4.81852006e-08
1.14602616e-09
1.18715887e-09
4.18624566e-08
4.42809363e-08
1.11899107e-09
1.24904555e-09
4.30240949e-08
4.23592766e-08
1.13847278e-09
2.68094574e-08
5.06811157e-08
1.23338691e-09
1.16434963e-09
4.03638627e-08
4.56570298e-08
1.24094703e-09
1.18688715e-09
2.44160251e-08
4.65437965e-08
4.5848744e-08
1.15842225e-09
1.21842303e-09
1.64279108e-08
4.48359822e-08
4.45720835e-08
1.23154556e-09
1.19047865e-09
3.09777671e-08
4.55718197e-08
4.11185626e-08
5.28079901e-08
4.34040378e-08
8.95590251e-10
1.34027006e-09
9.19136289e-10
1.37245036e-09
9.96222076e-10
3.65606498e-08
5.56386013e-08
5.1593575e-08
1.03582122e-09
1.17781422e-09
4.36634065e-08
4.66481806e-08
1.102258e-09
1.23177305e-09
4.39296621e-08
4.24162883e-08
1.14116464e-09
2.91852872e-08
5.01714845e-08
1.22090454e-09
1.1748086e-09
4.25423883e-08
4.53173671e-08
1.1266175e-09
1.21624188e-09
4.58061627e-08
4.45760789e-08
1.09491339e-09
1.31012871e-09
1.09181165e-09
2.86062836e-08
5.25755009e-08
5.1115126e-08
1.20698579e-09
1.14057737e-09
3.18713097e-08
5.19347099e-08
4.96693815e-08
1.1351795e-09
1.21555335e-09
3.95500654e-08
4.33134941e-08
1.19912606e-09
1.29492896e-09
3.93011192e-08
4.00201917e-08
1.26007809e-09
1.34639877e-09
2.36877033e-08
3.76308201e-08
4.71569649e-08
4.7117607e-08
1.13913e-09
1.22433623e-09
4.24413381e-08
4.4553348e-08
1.03375286e-09
1.20872814e-09
8.95915749e-09
4.69625908e-08
4.778551e-08
1.13687153e-09
1.2412763e-09
3.93137579e-08
4.08995585e-08
1.19834854e-09
1.29903223e-09
4.2248509e-08
4.09134926e-08
1.17761528e-09
1.3324967e-09
1.16915755e-09
3.50829338e-08
4.68942135e-08
5.06950619e-08
5.09917915e-08
1.05484659e-09
1.16810564e-09
4.47541549e-08
4.57914728e-08
1.11206313e-09
1.2593437e-09
4.30662871e-08
4.08878063e-08
1.01450461e-09
1.35339527e-09
6.31122124e-09
3.49602612e-08
5.28439035e-08
4.85396559e-08
1.0847538e-09
1.1857963e-09
4.33214261e-08
4.50520066e-08
1.10116152e-09
9.41605495e-10
1.1706558e-09
8.33020451e-10
4.11219781e-08
5.02085459e-08
4.58754781e-08
4.78382475e-08
5.20718707e-08
2.93241041e-08
1.14652428e-09
1.39513844e-09
1.28297167e-09
1.32984287e-09
2.8331877e-08
4.1262581e-08
5.12640268e-08
5.09092769e-08
1.010404e-09
1.19629785e-09
1.09769025e-09
3.96348982e-08
4.5443504e-08
1.06505843e-09
1.27789437e-09
1.09134648e-09
2.28959273e-08
5.15288777e-08
5.05350868e-08
1.20310023e-09
1.14262234e-09
3.44736168e-08
5.3840534e-08
5.18021553e-08
1.08106197e-09
1.16442341e-09
4.24434564e-08
4.58309813e-08
9.87137965e-10
1.25134905e-09
9.11671802e-09
4.20554562e-08
5.01458901e-08
2.55392063e-08
1.16723535e-09
1.35768907e-09
1.31391534e-09
4.25808157e-08
4.25314183e-08
1.10002893e-09
2.51466287e-08
4.97692095e-08
1.27116188e-09
1.20236008e-09
2.98208458e-08
3.99530935e-08
4.62296693e-08
4.59360247e-08
1.10282888e-09
1.24703279e-09
1.80009e-08
4.18314151e-08
4.37224872e-08
4.3801017e-08
4.96286173e-08
3.38112255e-08
1.18694718e-09
1.43634395e-09
1.35306179e-09
3.65068168e-08
3.85112836e-08
1.1166715e-09
1.34118021e-09
1.17133593e-09
2.04403495e-08
4.96995526e-08
4.9528386e-08
1.15650026e-09
1.11697926e-09
3.1967861e-08
5.21689584e-08
5.04823866e-08
1.06696917e-09
1.2319171e-09
4.19066497e-08
4.17098205e-08
1.02766059e-09
1.3579679e-09
1.13012986e-09
2.57215608e-08
4.62917814e-08
4.28605117e-08
5.35552266e-08
5.19159318e-08
7.97065337e-10
1.19056264e-09
8.30711262e-10
1.26968129e-09
9.4996156e-10
3.75581427e-08
5.57864278e-08
5.21804735e-08
9.86845283e-10
1.21010041e-09
4.31463738e-08
4.27599503e-08
1.03195969e-09
1.35176623e-09
1.13041057e-09
2.99904388e-08
4.71650669e-08
4.27136543e-08
5.13577923e-08
5.0797671e-08
1.00094554e-09
1.18396636e-09
1.09020741e-09
4.12734954e-08
4.86773927e-08
4.86548061e-09
1.10852211e-09
1.02285383e-09
1.11013335e-09
4.2593382e-08
4.99961708e-08
9.74400453e-10
1.06383223e-09
1.10243238e-09
1.06730743e-09
3.97568172e-08
4.97416605e-08
4.55676655e-08
5.18925799e-08
5.13184966e-08
1.06226521e-09
1.22066109e-09
4.03103435e-08
4.00382266e-08
1.06802464e-09
1.35221173e-09
1.16249676e-09
2.30807236e-08
4.57815117e-08
4.37036638e-08
5.27345419e-08
5.19521522e-08
1.02217217e-09
1.2613147e-09
1.1401748e-09
3.4326927e-08
4.12914337e-08
1.10686612e-09
1.37415835e-09
1.12629573e-09
3.2552028e-08
5.49951739e-08
5.36586143e-08
1.05689585e-09
1.23653648e-09
4.29829933e-08
4.29578979e-08
1.0170462e-09
1.3857862e-09
1.12725029e-09
2.68403711e-08
4.89508589e-08
4.56832293e-08
5.78597142e-08
5.73928528e-08
8.63106257e-10
1.00272136e-09
9.78073592e-10
9.81948542e-10
1.19604792e-09
1.00877527e-09
4.15385996e-08
6.78274603e-08
6.12629671e-08
9.9640784e-10
1.34571788e-09
1.24155197e-09
4.87049163e-08
5.81649106e-08
1.58705462e-09
1.46967866e-09
1.82617653e-09
1.80646114e-09
4.06057609e-08
2.79680461e-09
2.8048735e-09
5.07021459e-08
4.92036133e-08
4.32463759e-09
4.54525921e-09
4.91772481e-09
4.87764323e-08
5.60416768e-08
7.42968208e-09
7.66208368e-09
8.42896211e-09
8.9865808e-09
9.55415433e-09
1.02600596e-08
1.07685231e-08
1.14897374e-08
1.19847563e-08
1.26573011e-08
1.31655084e-08
1.37029456e-08
1.41528433e-08
1.44484305e-08
1.46527727e-08
1.44272789e-08
1.3836028e-08
1.17765119e-08
8.81021391e-09
9.13186049e-09
9.4442599e-09
9.88096831e-09
1.03062286e-08
1.08523117e-08
1.14181978e-08
1.20729136e-08
1.28021699e-08
1.39039124e-08
1.51162214e-08
1.54933169e-08
1.28636465e-08
1.11531283e-08
1.05362479e-08
1.05100052e-08
1.11213785e-08
1.15591556e-08
1.32675652e-08
1.40741907e-08
1.48125665e-08
1.45744191e-08
1.49774308e-08
1.45972932e-08
1.47186731e-08
1.43105711e-08
1.31934642e-08
1.38928936e-09
1.49710802e-09
1.5014558e-09
1.57717345e-09
1.60693278e-09
1.66793e-09
1.73135297e-09
1.82983592e-09
1.98585116e-09
2.23968291e-09
1.92970263e-09
1.44227197e-09
1.00634347e-09
6.74704587e-10
3.86310776e-10
2.97201451e-10
1.38902738e-10
4.91942689e-11
5.67618905e-11
8.38289001e-11
1.27524643e-10
1.21022996e-10
3.08009067e-11
2.13007635e-10
5.0447471e-09
1.16258614e-08
2.37267059e-08
4.99854892e-08
8.87684117e-08
1.26199661e-07
1.74324002e-07
2.93372014e-07
4.94434225e-07
7.7581154e-07
1.27333781e-06
2.0018628e-06
3.25713547e-06
4.56898482e-06
6.7459762e-06
8.71535959e-06
1.21197507e-05
1.48134714e-05
1.91018848e-05
2.21077182e-05
2.70074353e-05
3.06172592e-05
3.65422219e-05
3.99139015e-05
4.56379549e-05
4.83049887e-05
5.351645e-05
5.53638472e-05
5.99061455e-05
6.12185495e-05
6.55893243e-05
6.6084243e-05
6.94908949e-05
6.92651963e-05
7.18647376e-05
7.08212541e-05
7.23354079e-05
7.19639685e-05
7.36313326e-05
6.89428868e-05
6.85507171e-05
7.28065069e-05
7.66453843e-05
6.04249182e-05
5.5772355e-05
7.94619077e-05
9.08467087e-05
3.64052039e-05
2.18836651e-05
8.6771394e-05
9.34454668e-05
5.82848422e-06
5.39997503e-07
6.66593645e-05
7.44042704e-05
6.96811797e-11
8.41305185e-11
4.32476885e-05
6.01469117e-05
9.52330427e-11
1.16316836e-10
3.02701015e-05
4.72956606e-05
1.31165651e-10
1.44844684e-10
2.22662558e-05
3.81329091e-05
1.63611251e-10
1.77305374e-10
1.77374274e-05
3.12404812e-05
1.98095351e-10
2.07369093e-10
1.516114e-05
2.58556122e-05
2.27615605e-10
2.32491439e-10
1.38717916e-05
2.16257509e-05
2.52155012e-10
2.56371773e-10
)
;

boundaryField
{
    closed
    {
        type            calculated;
        value           nonuniform List<scalar> 0();
    }
    open
    {
        type            calculated;
        value           nonuniform List<scalar> 0();
    }
    sides
    {
        type            empty;
    }
    procBoundary4to3
    {
        type            processor;
        value           uniform 1.052805e-09;
    }
    procBoundary4to5
    {
        type            processor;
        value           uniform 1.28868424e-05;
    }
}


// ************************************************************************* //
