/*--------------------------------*- C++ -*----------------------------------*\
| =========                 |                                                 |
| \\      /  F ield         | OpenFOAM: The Open Source CFD Toolbox           |
|  \\    /   O peration     | Version:  2306                                  |
|   \\  /    A nd           | Website:  www.openfoam.com                      |
|    \\/     M anipulation  |                                                 |
\*---------------------------------------------------------------------------*/
FoamFile
{
    version     2.0;
    format      ascii;
    arch        "LSB;label=32;scalar=64";
    class       volScalarField;
    location    "0.00152";
    object      prefDh_H;
}
// * * * * * * * * * * * * * * * * * * * * * * * * * * * * * * * * * * * * * //

dimensions      [1 1 -3 0 0 0 0];

internalField   nonuniform List<scalar> 
531
(
23067.8157
23067.8679
23936.7051
23950.6255
23386.2979
23068.037
23069.3588
23924.6886
23955.9602
23383.4041
23053.8376
23053.9248
23924.2599
23951.167
23374.4756
23000.7398
23005.0603
23917.4987
23969.175
23334.305
23188.8944
23916.8519
23964.8136
23350.4421
23216.306
23916.6075
23962.0739
23386.3445
23086.443
23086.8087
23906.8024
23957.9955
23387.9264
23187.7914
23270.4944
23063.8577
23099.6665
23924.6115
23964.5361
23957.4581
23971.9446
23974.4394
23971.2033
23367.5732
23100.7372
23075.2817
23058.5816
23878.1369
23926.92
23386.9357
22815.2699
23042.3517
23884.1467
23948.432
23942.7657
23190.4956
22881.7848
23848.293
23937.8074
23363.9608
23228.6555
23855.7546
23946.5304
23416.644
23319.7593
23229.0562
23215.5923
22981.1843
22983.706
23854.1436
23944.2161
23922.5821
23960.8382
23956.6255
23354.9082
23067.2848
23841.5485
23939.2461
23391.6349
22998.3113
23000.9976
23862.6211
23948.3318
23401.8222
23027.895
23029.6045
23862.2356
23937.1886
23413.2123
23004.1892
23003.385
23870.0956
23940.3401
23537.9945
23125.5097
23088.1361
23826.4544
23944.0782
23399.7091
23295.2567
23092.661
23094.4525
23837.201
23949.8393
23412.344
23229.5132
23835.5955
23942.8918
23426.5435
23092.5275
23086.2327
23838.8824
23943.9753
23414.7849
23034.0959
23033.6132
23849.8416
23933.5422
23430.8046
22965.1712
22964.8213
23877.3437
23926.6251
23923.0056
23540.0743
23209.4337
22946.6117
22952.0324
23848.8589
23940.8644
23376.4691
23165.3692
23853.1837
23941.0312
23399.6715
23038.5898
23038.6057
23879.6864
23944.2706
23406.3882
23030.8979
23037.6519
23888.7255
23922.8403
23422.7022
22970.9713
23019.3101
23876.1893
23949.2742
23639.5435
23296.5985
23039.5113
23364.8624
23900.8494
23975.4633
23342.861
23079.8352
23874.3561
23942.692
23403.779
23028.2261
23029.0384
23911.3215
23939.9299
23397.0568
23026.31
23028.7811
23913.9755
23964.536
23405.7809
23272.5432
23901.371
23956.263
23396.5741
23307.7693
23103.8029
23105.0532
23901.617
23945.7149
23396.1349
23051.4544
23052.1024
23917.4544
23944.1593
23433.779
23081.1208
23154.2044
23934.9685
23389.7292
23170.9575
23908.8845
23957.6601
23936.5249
23390.0177
22907.2658
23076.7897
23926.3599
23386.2031
23134.9187
23916.7113
23953.1607
23943.845
23384.6516
22968.5204
22973.7042
23931.6788
23947.8237
23387.4998
23057.7464
23058.8982
23925.2676
23945.7382
23390.3799
23060.9315
23324.2397
23944.0957
23383.7528
23165.0498
23935.7342
23959.8866
23946.333
23380.6855
22958.3296
22983.312
23937.5416
23942.9031
23389.8621
23105.2231
23213.9395
23941.9816
23929.8092
23398.2511
22722.3059
22836.8568
23903.7832
23916.6379
23897.9686
23900.9831
23909.2338
23617.9945
23260.3745
23062.4081
23099.0262
22854.3431
22876.6765
23916.4226
23954.697
23237.6511
23221.6854
23877.3831
23961.5734
23805.6765
23377.8317
22864.3197
23202.5615
23920.8872
23384.5667
23122.6338
23962.0402
23935.4388
23208.3419
23227.8406
23953.308
23955.0242
23906.1265
23389.1808
22982.8785
23094.2985
23911.9454
23937.2039
23626.7102
23237.9289
23092.321
23043.8323
22976.1643
23378.4718
23954.9161
23977.3521
23952.2552
23935.0185
23381.0452
22833.4802
22979.0616
23962.6896
23945.2389
23426.3562
23249.6973
23057.9912
23114.2722
23943.6308
23935.9044
23202.4626
23113.266
23961.2139
23928.1866
23205.9139
23085.5122
23514.2769
23926.69
23919.4589
23058.0235
22920.9772
23961.4878
23901.4057
23447.1692
22846.945
22953.5587
23931.01
23911.4226
23118.1633
23080.3632
23644.5221
23911.2878
23908.1298
23044.7632
22941.1072
23944.7394
23940.0231
23493.8684
23265.2859
22989.944
23199.0527
23934.2905
23961.8526
23264.9302
23114.3114
23949.6833
23952.9469
23232.5702
23240.6175
23962.3652
23946.3381
23391.3162
23352.9019
23037.7541
23070.791
23934.6453
23938.4635
23182.3277
23136.9057
23915.5371
23931.9431
23087.3265
23090.4026
23945.8226
23934.4862
23943.6306
23930.1449
23398.2124
23135.6843
22911.7046
22920.3119
23952.9984
23927.576
23388.4476
22766.6519
22903.2528
23918.0085
23937.5381
23188.2077
23128.6501
23915.6941
23924.7902
23182.7817
23180.4554
23904.4289
23911.4248
23627.6718
22944.4417
22946.446
23931.102
23913.1821
23142.2176
23133.5871
23942.1044
23913.2883
23444.9122
22918.7964
23011.6994
23944.4275
23931.6198
23161.9036
23134.4313
23958.5428
23919.4329
23397.9872
22890.119
23040.0468
23949.2566
23942.2105
23156.9698
23125.0699
23970.7401
23916.6572
23382.1765
22840.9573
23014.3163
23938.6275
23955.9009
23121.6398
23113.1054
23946.9909
23953.5804
23181.6391
23173.1308
23961.7621
23951.0789
23199.8635
23201.2268
23982.0908
23926.9083
23404.3166
22919.1919
23043.8972
23856.4163
23953.8511
23144.1013
23165.5617
23966.2301
23949.6371
23255.6665
23161.4063
23543.4431
23925.8713
23936.2346
23005.7716
22921.2951
23964.0103
23927.183
23388.6264
23115.5123
23369.5063
23952.3665
23989.7987
23388.0306
23219.5491
24009.0767
23967.3563
23377.6311
23255.1465
23002.9972
23122.9933
23986.109
23950.7664
23389.3349
23290.6345
23035.6445
23222.3351
23967.0301
23374.3054
23004.6526
24008.0785
23945.0268
23192.1351
23191.7436
24009.9214
23936.8585
23368.0614
23067.1871
23271.7888
23961.0816
23950.6305
23949.9268
23944.7316
23319.2737
23068.2561
22949.7471
23064.7124
23995.0595
23927.1675
23377.4013
23052.6408
23392.9608
23957.1651
23383.0818
23162.4903
23986.1481
23931.779
23164.0709
23238.9069
23938.1412
23958.289
23880.114
23383.0716
22918.9034
23124.7817
23972.4899
23937.9173
23379.136
23092.0974
23243.3665
23986.7453
23940.6157
23367.7398
23156.3621
23224.5987
22980.4348
23372.2934
23968.3559
23974.9979
23947.7723
23383.1012
23191.7698
23999.3091
23946.0093
23151.4124
23146.7878
23987.4111
23942.2216
23415.0953
23089.1723
23067.1284
23397.7013
23957.6133
23964.3267
23291.8547
22915.7233
23221.6938
23960.9498
23940.949
23387.3272
22988.8232
23119.5357
23982.3032
23916.9302
23383.9891
22964.5766
23124.2171
23937.0601
23950.6675
23656.4526
)
;

boundaryField
{
    closed
    {
        type            calculated;
        value           nonuniform List<scalar> 0();
    }
    open
    {
        type            calculated;
        value           nonuniform List<scalar> 0();
    }
    sides
    {
        type            empty;
    }
    procBoundary3to2
    {
        type            processor;
        value           uniform 23387.3848;
    }
    procBoundary3to4
    {
        type            processor;
        value           uniform 23310.7922;
    }
}


// ************************************************************************* //
