/*--------------------------------*- C++ -*----------------------------------*\
| =========                 |                                                 |
| \\      /  F ield         | OpenFOAM: The Open Source CFD Toolbox           |
|  \\    /   O peration     | Version:  2306                                  |
|   \\  /    A nd           | Website:  www.openfoam.com                      |
|    \\/     M anipulation  |                                                 |
\*---------------------------------------------------------------------------*/
FoamFile
{
    version     2.0;
    format      ascii;
    arch        "LSB;label=32;scalar=64";
    class       volScalarField;
    location    "0.00152";
    object      T;
}
// * * * * * * * * * * * * * * * * * * * * * * * * * * * * * * * * * * * * * //

dimensions      [0 0 0 1 0 0 0];

internalField   nonuniform List<scalar> 
531
(
323.438579
323.434844
339.764823
339.958611
329.344965
323.443081
323.456861
339.580733
340.047489
329.247915
323.186797
323.184538
339.58641
339.975369
329.057757
322.250504
322.307252
339.484187
340.258883
328.15614
325.573876
339.495744
340.168362
328.439616
326.06368
339.484483
340.132214
329.357627
323.761868
323.762275
339.334998
340.068691
329.414823
325.561225
327.01595
323.369386
323.996205
339.62242
340.17764
340.081565
340.305401
340.318046
340.289665
328.865489
324.018316
323.569364
323.27812
338.92908
339.595176
329.088585
318.990891
322.992029
339.029312
339.915523
339.869918
325.604417
320.144004
338.490878
339.761071
328.699992
326.298666
338.558672
339.858541
330.01127
327.902297
326.303714
326.058569
321.919524
321.954219
338.552294
339.852606
339.541762
340.1125
340.049339
328.514162
323.431473
338.379418
339.788611
329.423501
322.218598
322.253837
338.650307
339.929416
329.676304
322.736305
322.768689
338.651718
339.746011
329.943215
322.321747
322.307357
338.790305
339.788436
332.525415
324.469691
323.803686
338.117949
339.836051
329.616559
327.472833
323.894472
323.911024
338.300977
339.941559
329.570803
326.309509
338.267449
339.821943
330.22828
323.88645
323.76633
338.30502
339.85354
329.975037
322.847514
322.837591
338.476999
339.691324
330.329139
321.631935
321.625365
338.921627
339.562945
339.53158
332.566977
325.948049
321.311513
321.391419
338.477824
339.804981
328.919297
325.174313
338.543693
339.800734
329.608819
322.928635
322.924538
338.92272
339.859851
329.788816
322.788597
322.916651
339.065848
339.510379
330.158053
321.747142
322.58858
338.90884
339.917947
334.536385
327.466138
322.973785
328.904895
339.187333
340.349449
328.326832
323.648051
338.887074
339.839179
329.703475
322.743934
322.760246
339.413592
339.788873
329.601293
322.710397
322.739941
339.455003
340.17444
329.446166
327.062977
339.27515
340.013255
329.549042
327.692273
324.08643
324.098981
339.286327
339.877869
329.545616
323.154925
323.163666
339.500989
339.848906
330.398158
323.677145
324.977587
339.78917
329.284405
325.267009
339.437774
340.031504
339.748578
329.42813
320.599585
323.59576
339.665619
329.186997
324.634736
339.565869
339.959152
339.87297
329.267184
321.68377
321.768647
339.709835
339.919325
329.321512
323.265097
323.278999
339.620735
339.878523
329.437566
323.322426
327.982188
339.921126
329.119654
325.161314
339.855884
340.065889
339.911397
329.153093
321.502825
321.938289
339.796219
339.83426
329.352926
324.114051
326.04129
339.850292
339.629276
329.318045
317.337657
319.349909
339.351349
339.428665
339.183114
339.17513
339.294856
334.112482
326.864782
323.379699
323.997123
319.679846
320.042966
339.495716
340.036512
326.494717
326.157648
338.921757
340.084524
337.771031
328.973072
319.883988
325.816106
339.541607
329.252417
324.415076
340.207346
339.71822
325.940154
326.268944
340.096072
339.980246
339.269072
329.381084
321.965686
323.907362
339.389352
339.717057
334.283975
326.449782
323.911826
322.991387
321.82821
329.249476
340.033125
340.378992
339.958267
339.718741
329.122082
319.286769
321.846314
340.214394
339.873486
330.237352
326.661054
323.287557
324.251457
339.876578
339.740936
325.846789
324.241705
340.180877
339.616029
325.896114
323.765735
332.051909
339.568592
339.504642
323.279473
320.853199
340.213433
339.193156
330.685886
319.547645
321.421373
339.706003
339.351324
324.362203
323.686651
334.627261
339.314414
339.347407
323.047493
321.198054
339.961843
339.783333
331.639641
326.935094
322.08147
325.753923
339.705467
340.149183
326.937684
324.25093
339.995078
340.022073
326.350968
326.503671
340.165718
339.854761
329.391102
328.501597
322.917716
323.493851
339.745387
339.787376
325.481067
324.675157
339.455746
339.682655
323.794944
323.851078
339.973369
339.698554
339.869601
339.632249
329.46138
324.664428
320.672033
320.83872
340.048601
339.627925
329.168768
318.121149
320.519442
339.484636
339.778048
325.591134
324.536209
339.446732
339.549215
325.500673
325.465565
339.294548
339.314988
334.300073
321.265551
321.320714
339.707368
339.37747
324.764497
324.637668
339.871654
339.356509
330.636625
320.811244
322.454685
339.907775
339.672866
325.105051
324.645226
340.12046
339.462988
329.627981
320.302021
322.947015
339.986512
339.843724
325.01265
324.474888
340.312044
339.419918
329.277758
319.443536
322.480047
339.856427
340.072384
324.409589
324.245694
339.934583
340.019339
325.457771
325.313513
340.161243
339.969697
325.772441
325.817718
340.484401
339.569587
329.789333
320.841194
323.005387
338.626794
340.023063
324.823853
325.177555
340.232773
339.943238
326.776378
325.109832
332.633818
339.541481
339.770278
322.358464
320.852751
340.307495
339.597453
329.169756
324.305631
328.865226
339.959149
340.56795
329.111704
326.110548
340.900215
340.211787
329.077667
326.759267
322.289701
324.41169
340.578541
339.942003
329.360097
327.393313
322.874519
326.169915
340.276616
329.060303
322.314994
340.905058
339.879818
325.617176
325.642789
340.921066
339.734847
328.915186
323.437651
327.045316
340.153535
339.962385
339.944074
339.894987
327.910726
323.459556
321.343013
323.389599
340.720355
339.593667
329.106961
323.182859
329.212559
340.09781
329.207157
325.109679
340.559231
339.677456
325.168487
326.46637
339.871122
340.033395
338.900453
329.254359
320.820167
324.4391
340.322136
339.7655
329.145101
323.868946
326.544306
340.539913
339.788442
328.962804
325.014359
326.191878
321.88772
328.808059
340.281212
340.293664
339.936152
329.015151
325.633253
340.77561
339.900772
324.921097
324.837384
340.620059
339.824687
330.008753
323.813061
323.424777
329.641107
340.056954
340.231525
327.408221
320.754501
326.158495
340.135129
339.806968
329.339795
322.036931
324.357573
340.493668
339.425208
329.295989
321.633309
324.429883
339.800103
339.930683
334.86423
)
;

boundaryField
{
    closed
    {
        type            fixedValue;
        value           nonuniform List<scalar> 0();
    }
    open
    {
        type            zeroGradient;
    }
    sides
    {
        type            empty;
    }
    procBoundary3to2
    {
        type            processor;
        value           uniform 329.366087;
    }
    procBoundary3to4
    {
        type            processor;
        value           uniform 327.736894;
    }
}


// ************************************************************************* //
