/*--------------------------------*- C++ -*----------------------------------*\
| =========                 |                                                 |
| \\      /  F ield         | OpenFOAM: The Open Source CFD Toolbox           |
|  \\    /   O peration     | Version:  2306                                  |
|   \\  /    A nd           | Website:  www.openfoam.com                      |
|    \\/     M anipulation  |                                                 |
\*---------------------------------------------------------------------------*/
FoamFile
{
    version     2.0;
    format      ascii;
    arch        "LSB;label=32;scalar=64";
    class       volScalarField;
    location    "0.0006";
    object      prefDh_H;
}
// * * * * * * * * * * * * * * * * * * * * * * * * * * * * * * * * * * * * * //

dimensions      [1 1 -3 0 0 0 0];

internalField   nonuniform List<scalar> 
531
(
23379.7032
23925.3571
23381.7263
23203.3931
23858.9049
23929.554
23273.3764
23296.1268
23899.9304
23955.3558
23305.8608
23129.5249
23852.9804
23948.9046
23416.6264
23135.0935
23665.905
23837.425
23309.285
23393.876
23940.627
23972.9384
23362.8449
23111.1886
23366.8975
23926.2205
23956.6224
23356.4423
22954.3776
23345.9972
23845.8963
23986.8317
23706.3028
23388.4959
23135.3882
23012.2436
23372.333
23918.2567
23945.2414
23367.9492
22931.9178
23365.1544
23837.8708
23992.2022
23683.341
23359.7661
22878.8658
23291.6245
23888.0763
23700.6364
23141.4822
23384.6295
23909.0413
23612.4348
23181.2475
23367.6374
23916.4039
23538.0329
23215.7685
23376.285
23931.2038
23956.1368
23363.4005
22956.2887
23358.0399
23900.646
23515.3129
23211.2512
23369.8332
23933.8596
23961.698
23364.0655
23010.0564
23371.0897
23914.5117
23971.7006
23366.4128
23063.7119
23356.7705
23882.8326
23995.0798
23524.3359
23379.6287
23305.4658
23315.2566
23156.2035
23133.1984
23443.19
23935.866
23951.9737
23443.5597
23182.0461
23355.3406
23927.9585
23550.1149
23115.3141
23351.6887
23923.5551
23532.0269
23119.7064
23351.9144
23922.1593
23441.7161
23142.966
23410.9072
23935.7728
23377.7457
23183.6209
23410.7348
23937.1212
23949.819
23369.981
23018.9736
23375.0266
23899.5573
23966.6125
23389.1268
23095.6374
23053.5664
23383.4244
23926.0539
23385.9674
23180.8128
23876.7677
23865.4421
23207.645
23401.53
23909.0855
23973.0109
23403.0138
23106.2548
23049.0572
23395.9549
23927.9029
23943.1764
23368.6551
23004.6938
23371.6874
23867.4661
23913.6183
23140.1462
22991.5612
23800.3596
23920.8294
23459.967
23086.9521
23078.4452
23855.6425
23773.8501
23214.1521
23392.6392
23906.7949
23980.1831
23398.1073
23098.7745
23042.1436
23387.7791
23908.9555
23715.9799
23209.1898
23173.2766
23850.8331
23956.5178
23371.9381
23085.1689
23362.7282
23916.9423
23966.4956
23371.1866
22971.3048
23229.5719
23901.5827
23967.6198
23377.7102
23026.9181
23279.7281
23918.1095
23956.49
23374.7511
22958.0458
23336.7996
23866.9716
23993.2586
23948.756
23354.5837
23139.5231
23174.3194
22956.0676
23245.3673
23874.1386
23971.5502
23926.3084
23955.3724
23438.3628
23281.0649
23198.691
22858.8751
23134.7522
23885.3975
23984.5709
23944.0277
23374.3556
23084.3018
23279.0357
23917.3045
23967.0745
23372.8398
22981.727
23234.789
23918.9593
23962.517
23375.6038
22996.7527
23300.8013
23900.8569
23777.9774
23215.2122
23402.8759
23926.1887
23969.4965
23370.7351
23001.9446
23246.1175
23914.7121
23963.6508
23379.3579
23015.7246
23252.4775
23929.9145
23960.6816
23367.5033
22957.2069
23210.4444
23896.4831
23985.4289
23513.8555
23328.0407
23369.2321
23946.5648
24000.5671
23399.5482
23314.3682
23296.8631
23382.5096
23382.7454
23254.038
23371.7854
23933.9858
23720.3571
23203.2435
23168.4746
23881.9614
23969.1978
23467.9313
23265.5033
23372.8778
23959.2388
23970.9673
23361.024
22855.483
22955.3413
23888.2749
23962.3425
23467.4688
23303.8439
23364.4577
23936.3769
23995.768
23413.6964
23313.5914
23305.7715
23290.7732
23094.0818
23333.8179
23891.3001
23968.3114
23932.2423
23968.0469
23392.4109
23153.6313
22959.6466
23059.4638
23879.1522
23851.9624
23085.6916
23223.135
23866.6889
23986.2533
23916.6302
23360.8338
22892.1978
23042.7733
23860.6456
23955.5195
23931.9536
23384.2964
23162.4913
22916.1796
22950.8039
23871.3449
23958.3836
23917.3068
23349.3533
22908.7993
23352.344
23886.3493
23994.5353
23932.7411
23394.632
23274.6763
23210.7395
22937.7905
23177.6614
23867.7704
23839.7266
23117.9495
23091.5794
23842.8662
23949.0681
23905.6643
23955.2324
23448.115
23229.2134
23180.1107
22948.4319
22951.6696
23857.9512
23952.454
23410.0705
23299.1755
23528.9963
23973.6327
23737.8312
23360.2211
23005.5722
23184.7847
23885.8236
23946.3656
23445.034
23033.1283
23060.1004
23883.1276
23959.4693
23930.3971
23386.5675
23212.5234
23191.7738
22930.3714
22934.9316
23782.8072
23932.4675
23888.7413
23948.8978
23428.815
23255.5526
22933.7828
22944.4561
23851.925
23951.5176
23910.6831
23385.1281
22995.6773
23063.9561
23866.0306
23951.4112
23354.5776
23140.8128
23684.6288
23945.6078
23607.3583
23381.7433
22915.926
22934.4958
23781.0531
23931.8075
23497.1694
23054.7115
23008.9485
23715.7185
23931.1592
23939.1764
23974.7634
23342.9948
23150.5768
23303.3408
23337.1969
23093.4483
23098.8593
23936.4568
24081.5305
23584.3144
22922.9741
23008.535
24098.8237
24219.8912
24183.525
23188.8256
22679.3648
23324.488
24036.0228
23993.343
23971.2448
23940.4473
23874.3921
23618.9573
23760.9446
23867.3838
23861.4037
23930.1907
23948.3389
24004.8345
24036.095
24093.5143
24149.8953
24239.9667
24370.6063
24657.9666
24564.5424
24396.311
24267.9682
24131.1817
24048.552
23963.6491
23932.9508
23817.989
23793.4845
23778.0993
23695.0124
23653.088
23628.0699
23651.2444
23551.6307
23431.0746
23240.5547
23134.9569
23086.0169
23010.434
24647.5224
24059.1935
24450.4462
23811.5026
24566.0353
24410.5523
25267.6919
25540.193
27991.5294
29177.822
33556.0805
34551.0629
36009.9417
37165.63
38467.6546
39605.5191
40990.525
41685.5631
42959.5353
43414.7185
45108.7888
46171.3782
48210.8519
49538.611
51449.8516
52808.7145
54538.6954
55785.6997
57339.2392
58502.7837
59852.7245
60945.4185
62119.4979
63287.5253
64234.865
65261.0171
66150.3062
67078.1348
67984.6575
68989.8413
69005.9043
69775.4891
71189.2502
71461.7182
71572.9079
72386.6379
73144.4406
73388.6105
74022.5552
74564.8172
74702.8713
74874.8298
75348.3251
75955.2418
75977.12
75994.6071
76380.946
77173.0748
77006.6793
78313.9897
77988.4956
77867.7007
78006.7216
79733.0441
78867.5148
79163.7798
79645.1191
79985.9642
79574.4349
79770.5888
80788.3865
80608.3144
80318.9924
80350.7119
81378.2149
81179.9419
80852.211
80870.1974
81776.6087
81631.6717
81281.7623
81334.6128
82122.42
81907.0074
81601.619
81704.9223
82356.0217
82217.0051
81871.3123
81983.0456
82549.9109
82470.6869
82094.7254
82207.4894
)
;

boundaryField
{
    closed
    {
        type            calculated;
        value           nonuniform List<scalar> 0();
    }
    open
    {
        type            calculated;
        value           nonuniform List<scalar> 0();
    }
    sides
    {
        type            empty;
    }
    procBoundary4to3
    {
        type            processor;
        value           uniform 23025.938;
    }
    procBoundary4to5
    {
        type            processor;
        value           uniform 82696.9428;
    }
}


// ************************************************************************* //
