/*--------------------------------*- C++ -*----------------------------------*\
| =========                 |                                                 |
| \\      /  F ield         | OpenFOAM: The Open Source CFD Toolbox           |
|  \\    /   O peration     | Version:  2306                                  |
|   \\  /    A nd           | Website:  www.openfoam.com                      |
|    \\/     M anipulation  |                                                 |
\*---------------------------------------------------------------------------*/
FoamFile
{
    version     2.0;
    format      ascii;
    arch        "LSB;label=32;scalar=64";
    class       volScalarField;
    location    "0.00162";
    object      H;
}
// * * * * * * * * * * * * * * * * * * * * * * * * * * * * * * * * * * * * * //

dimensions      [0 0 0 0 0 0 0];

internalField   nonuniform List<scalar> 
531
(
1.21227977e-09
1.16327182e-09
1.21290955e-09
2.43007485e-08
4.48161385e-08
4.30874253e-08
5.18182098e-08
5.15264819e-08
9.11251083e-10
1.16622297e-09
4.16235056e-08
4.66162365e-08
9.62582657e-10
1.19460165e-09
3.82878429e-08
4.47761026e-08
1.05925984e-09
1.15399769e-09
3.14783113e-08
4.84079354e-08
4.79425419e-08
9.84768201e-10
1.20236726e-09
4.22805635e-08
4.5092142e-08
8.54743647e-10
1.23632149e-09
1.11287004e-09
4.17224202e-08
4.62895206e-08
8.45368825e-10
1.27770257e-09
1.06986627e-09
3.53081001e-08
5.69817576e-08
5.43431558e-08
8.77832599e-10
1.17969287e-09
1.09868218e-09
4.0226204e-08
4.52737383e-08
8.89279187e-10
1.29340363e-09
1.13767019e-09
3.28389105e-08
4.9339336e-08
4.91178023e-08
1.03698041e-09
1.16559082e-09
3.50381547e-08
4.58789347e-08
5.1565316e-08
5.15250675e-08
8.12995016e-10
1.22353705e-09
1.02669329e-09
3.56696681e-08
4.8553023e-08
9.65579887e-10
1.18686621e-09
4.01595691e-08
4.41212732e-08
9.35100762e-10
1.25483402e-09
4.08804664e-08
4.07214602e-08
9.46464023e-10
2.97239516e-08
4.96794297e-08
1.02299333e-09
1.15601518e-09
3.67963572e-08
4.56568556e-08
1.04539506e-09
1.15056799e-09
3.26309539e-08
4.93212699e-08
4.89681667e-08
9.93697358e-10
1.24434582e-09
1.22807617e-09
3.80793368e-08
4.46111793e-08
1.0436143e-09
1.17425121e-09
3.13622899e-08
4.70709786e-08
4.4264732e-08
5.4964187e-08
5.45373601e-08
7.6632552e-10
1.17856596e-09
9.96510843e-10
1.28499024e-09
1.21001707e-09
3.49460995e-08
4.94313391e-08
4.88815001e-08
9.30359595e-10
1.21371385e-09
4.06866571e-08
4.50217843e-08
8.92950477e-10
1.25555222e-09
4.20168757e-08
4.18545508e-08
9.13211913e-10
3.26832831e-08
5.1009836e-08
9.52898864e-10
1.15804343e-09
4.06506503e-08
4.56081654e-08
8.89961575e-10
1.23332069e-09
4.32895174e-08
4.30634151e-08
8.31788283e-10
1.33412898e-09
1.12752717e-09
3.01679527e-08
4.89282093e-08
4.86485466e-08
1.02971589e-09
1.15084951e-09
3.35298193e-08
4.93205226e-08
4.89309215e-08
1.00088047e-09
1.22660096e-09
3.74806541e-08
4.32136371e-08
9.80455246e-10
1.27659086e-09
3.64633569e-08
4.08111809e-08
1.03599376e-09
1.28826611e-09
3.195809e-08
4.02911363e-08
4.6126079e-08
4.59924488e-08
9.07132495e-10
1.22612708e-09
4.39832584e-08
4.43633198e-08
7.98024106e-10
1.28425484e-09
1.10108048e-09
3.68842436e-08
4.7634055e-08
9.26495166e-10
1.19425741e-09
4.11768154e-08
4.50355978e-08
8.74803177e-10
1.23354062e-09
4.29512394e-08
4.27215951e-08
8.37412835e-10
1.31853835e-09
1.14104288e-09
2.96800732e-08
4.53158446e-08
4.87436957e-08
4.85984456e-08
8.20597361e-10
1.1735912e-09
4.45186293e-08
4.69680866e-08
8.00311745e-10
1.19885665e-09
4.48094047e-08
4.49841107e-08
7.67451097e-10
1.29037913e-09
1.0715034e-09
3.45624524e-08
5.24462274e-08
5.18777076e-08
8.9240304e-10
1.14783084e-09
4.25198433e-08
4.75229776e-08
7.89411066e-10
1.18481479e-09
1.10354505e-09
1.21438766e-09
2.7016205e-08
4.21012605e-08
4.23457857e-08
4.51291073e-08
5.33171471e-08
5.31518564e-08
7.97450573e-10
1.12259916e-09
1.10257141e-09
1.17635853e-09
3.0656514e-08
4.30954265e-08
4.77661922e-08
4.77498308e-08
8.65838992e-10
1.24841199e-09
1.1084945e-09
3.69237093e-08
4.36953675e-08
9.08340337e-10
1.3221266e-09
1.1612557e-09
2.97753245e-08
4.83884344e-08
4.81965212e-08
1.02949243e-09
1.14144225e-09
3.47903175e-08
5.12444594e-08
5.08413063e-08
9.57123535e-10
1.21111859e-09
4.2519705e-08
4.39531498e-08
8.45431805e-10
1.33261263e-09
1.13514863e-09
3.25236992e-08
5.05976996e-08
4.87489078e-08
9.97470085e-10
1.2667326e-09
1.22688705e-09
3.60345391e-08
3.8852154e-08
9.73988686e-10
2.24532365e-08
4.65836171e-08
1.02956409e-09
1.22285226e-09
3.23302371e-08
4.23144745e-08
4.72743139e-08
4.72311066e-08
9.03617354e-10
1.28264677e-09
1.15321504e-09
3.36639196e-08
4.95782913e-08
4.44810988e-08
5.23976333e-08
5.20753654e-08
8.52355145e-10
1.16808509e-09
1.13880698e-09
4.0867635e-08
4.68240571e-08
7.95813516e-10
1.13041266e-09
1.0427218e-09
1.12032283e-09
4.17202747e-08
5.11889662e-08
9.28360849e-10
1.0830834e-09
3.62926274e-08
5.07645772e-08
5.01906588e-08
9.40479252e-10
1.2222946e-09
4.05802542e-08
4.18960949e-08
8.58024641e-10
1.34877385e-09
1.15462073e-09
2.77950078e-08
4.70740801e-08
4.40481891e-08
5.44318548e-08
5.40558261e-08
7.5422612e-10
1.17213015e-09
1.01138073e-09
1.26525383e-09
1.21305755e-09
3.64326353e-08
4.98534323e-08
4.93923646e-08
8.93095364e-10
1.21398051e-09
4.20220021e-08
4.30772386e-08
8.26838028e-10
1.3220453e-09
1.15065666e-09
3.0611596e-08
4.74411822e-08
4.39979369e-08
5.41686013e-08
5.39396897e-08
7.6364053e-10
1.13427392e-09
1.08349273e-09
4.43000417e-08
5.16820497e-08
7.23189234e-10
1.10509324e-09
1.03373239e-09
1.13528158e-09
4.06877992e-08
4.80690012e-08
8.37749125e-10
1.1650037e-09
1.16671024e-09
1.17820298e-09
3.01335071e-08
4.62383399e-08
4.33938633e-08
5.2039745e-08
5.16594968e-08
8.23400552e-10
1.18639944e-09
4.36601461e-08
4.47344483e-08
8.00433781e-10
1.29917904e-09
1.14112127e-09
2.20065993e-08
4.60092155e-08
4.36825866e-08
5.19583602e-08
5.17141279e-08
8.2704817e-10
1.23585887e-09
1.14416358e-09
3.81423728e-08
4.45174328e-08
9.1828227e-10
1.32643469e-09
1.24161603e-09
3.51708746e-08
4.95346435e-08
4.91471707e-08
9.91676e-10
1.27700486e-09
4.18573073e-08
4.32553904e-08
9.01222802e-10
1.41011907e-09
1.24738146e-09
3.10682511e-08
5.08722571e-08
4.73569018e-08
5.91245115e-08
5.87360781e-08
7.71878054e-10
1.19754237e-09
1.15685505e-09
1.25521564e-09
1.44980125e-09
1.32233169e-09
3.71341745e-08
5.9509013e-08
5.55903356e-08
1.22254901e-09
1.6370533e-09
1.58612626e-09
4.66430145e-08
5.43888713e-08
2.33357201e-09
2.71980996e-09
2.90514851e-09
3.2876898e-09
4.04832382e-08
4.31632795e-09
4.47841899e-09
4.77062549e-08
5.1683713e-08
6.26573991e-09
6.87138487e-09
7.24218787e-09
8.01548057e-09
4.11291835e-08
9.98295788e-09
9.78122254e-09
1.08547606e-08
1.11183549e-08
1.19130141e-08
1.22896725e-08
1.29289078e-08
1.33009111e-08
1.38180179e-08
1.40573405e-08
1.43732319e-08
1.42330286e-08
1.40365174e-08
1.26961447e-08
1.03640829e-08
8.92987133e-09
9.21610472e-09
9.57286186e-09
1.0000262e-08
1.04194863e-08
1.10107492e-08
1.1493425e-08
1.22702945e-08
1.28215179e-08
1.42496219e-08
1.50775967e-08
1.53757123e-08
1.38573788e-08
1.09590222e-08
1.05900995e-08
1.06122138e-08
1.08972376e-08
1.18226223e-08
1.27500808e-08
1.43281882e-08
1.46746693e-08
1.48599964e-08
1.49023249e-08
1.48673332e-08
1.47677796e-08
1.45164092e-08
1.42053523e-08
1.01269638e-08
1.45229166e-09
1.48503133e-09
1.53875214e-09
1.57886989e-09
1.62407026e-09
1.67698468e-09
1.75009081e-09
1.84262809e-09
2.01346894e-09
2.22129157e-09
2.08080683e-09
1.52095765e-09
1.23345054e-09
7.58584429e-10
5.27127786e-10
3.29421102e-10
2.51247526e-10
9.69320897e-11
3.77704072e-11
3.36432233e-11
4.88638879e-11
7.56757345e-11
2.56605397e-10
2.220567e-10
4.99105866e-10
5.25898623e-09
1.74536445e-08
3.1104619e-08
8.13622975e-08
9.64219664e-08
1.54197012e-07
1.83674548e-07
3.74377722e-07
4.76198365e-07
8.87364903e-07
1.11239915e-06
2.11510681e-06
2.62109686e-06
4.46674058e-06
5.29425683e-06
8.12759529e-06
9.30542283e-06
1.35134809e-05
1.48983893e-05
1.99997851e-05
2.14853993e-05
2.72084171e-05
2.87102403e-05
3.54363396e-05
3.66863473e-05
4.33219947e-05
4.42560088e-05
5.03320639e-05
5.09248043e-05
5.60795187e-05
5.64325034e-05
6.07457189e-05
6.06911737e-05
6.45813277e-05
6.48789951e-05
6.79349543e-05
6.68147544e-05
6.8630671e-05
6.89239757e-05
7.10887747e-05
6.57735929e-05
6.55230634e-05
7.10222355e-05
7.5163912e-05
5.84054938e-05
5.44143295e-05
7.77516585e-05
8.94706693e-05
3.66396433e-05
2.23807535e-05
8.48011789e-05
9.31238072e-05
7.3052945e-06
6.61207545e-07
6.48304095e-05
7.41841115e-05
7.03618744e-11
8.04742532e-11
4.2124396e-05
6.11190732e-05
9.50473159e-11
1.1264693e-10
2.94345591e-05
4.76901423e-05
1.30926379e-10
1.43058455e-10
2.13795846e-05
3.82776745e-05
1.64774173e-10
1.77264812e-10
1.65574078e-05
3.13901014e-05
1.99646103e-10
2.08708117e-10
1.37894433e-05
2.60905701e-05
6.41124649e-08
2.34745446e-10
1.23932942e-05
2.20219527e-05
3.46870088e-08
2.59765376e-10
)
;

boundaryField
{
    closed
    {
        type            calculated;
        value           nonuniform List<scalar> 0();
    }
    open
    {
        type            calculated;
        value           nonuniform List<scalar> 0();
    }
    sides
    {
        type            empty;
    }
    procBoundary4to3
    {
        type            processor;
        value           uniform 9.15843147e-10;
    }
    procBoundary4to5
    {
        type            processor;
        value           uniform 1.13892866e-05;
    }
}


// ************************************************************************* //
