/*--------------------------------*- C++ -*----------------------------------*\
| =========                 |                                                 |
| \\      /  F ield         | OpenFOAM: The Open Source CFD Toolbox           |
|  \\    /   O peration     | Version:  2306                                  |
|   \\  /    A nd           | Website:  www.openfoam.com                      |
|    \\/     M anipulation  |                                                 |
\*---------------------------------------------------------------------------*/
FoamFile
{
    version     2.0;
    format      ascii;
    arch        "LSB;label=32;scalar=64";
    class       volScalarField;
    location    "0.00162";
    object      p;
}
// * * * * * * * * * * * * * * * * * * * * * * * * * * * * * * * * * * * * * //

dimensions      [1 -1 -2 0 0 0 0];

internalField   nonuniform List<scalar> 
531
(
101367.559
101367.573
101367.59
101367.622
101367.673
101367.734
101367.826
101367.955
101367.558
101367.508
101367.495
101367.505
101367.499
101367.462
101367.452
101367.47
101367.475
101367.453
101367.448
101367.465
101367.485
101367.488
101367.463
101367.468
101367.501
101367.513
101367.525
101367.527
101367.181
101367.302
101367.4
101367.453
101367.491
101367.521
101367.56
101367.599
101367.617
101367.588
101367.567
101367.897
101367.844
101367.788
101367.727
101367.684
101367.663
101367.671
101367.706
101367.758
101367.75
101367.753
101367.769
101367.762
101367.74
101368.229
101368.303
101368.379
101368.49
101368.602
101368.692
101368.741
101368.816
101368.915
101368.993
101369.04
101369.113
101369.184
101369.195
101369.22
101369.288
101369.346
101369.37
101369.425
101369.518
101369.6
101369.652
101369.727
101369.829
101369.947
101370.053
101370.11
101370.185
101370.647
101370.671
101370.675
101370.653
101370.665
101370.705
101370.749
101370.798
101370.891
101371.009
101371.072
101371.15
101371.249
101371.341
101371.45
101371.588
101371.767
101371.981
101372.122
101372.281
101372.479
101372.642
101372.74
101372.841
101372.977
101373.524
101373.684
101373.885
101374.1
101374.266
101374.461
101374.699
101374.916
101375.087
101375.286
101375.53
101375.745
101375.914
101376.074
101376.228
101376.374
101376.512
101377.129
101377.315
101377.512
101377.73
101377.978
101378.234
101378.426
101378.641
101378.907
101379.155
101379.361
101379.59
101379.865
101380.119
101380.326
101380.543
101380.762
101380.965
101381.168
101381.838
101382.088
101382.36
101382.696
101383.011
101383.305
101383.599
101383.581
101383.983
101384.358
101384.668
101384.997
101385.366
101385.712
101386.018
101386.367
101386.745
101386.678
101386.924
101387.18
101387.402
101387.624
101387.835
101388.053
101388.772
101389.058
101389.356
101389.71
101390.028
101390.289
101390.57
101390.894
101391.185
101391.436
101391.685
101391.934
101392.193
101392.455
101392.687
101392.881
101393.102
101393.367
101393.615
101393.834
101394.067
101394.299
101394.547
101394.815
101395.092
101395.376
101395.684
101395.99
101395.69
101395.766
101395.864
101395.916
101395.963
101396
101396.012
101396.018
101396.495
101396.56
101396.59
101396.297
101396.44
101396.563
101396.641
101396.703
101396.758
101396.826
101396.917
101397.047
101397.106
101397.167
101397.225
101397.274
101397.297
101397.279
101397.285
101397.303
101397.294
101397.261
101397.225
101397.192
101397.172
101397.156
101397.128
101397.042
101396.968
101397.283
101397.175
101397.042
101396.918
101396.833
101396.745
101396.615
101396.497
101396.381
101396.244
101396.119
101396.542
101396.514
101396.486
101396.518
101396.58
101396.641
101396.727
101396.822
101396.239
101396.115
101396.007
101395.507
101395.54
101395.542
101395.492
101395.433
101395.361
101395.303
101395.248
101395.173
101395.062
101394.983
101394.932
101394.914
101394.91
101394.858
101394.836
101394.839
101394.813
101394.738
101394.648
101394.56
101394.455
101394.305
101394.109
101393.931
101394.425
101394.35
101394.261
101394.231
101394.173
101393.744
101393.789
101393.875
101393.995
101394.02
101394.062
101394.122
101394.144
101394.114
101394.064
101394.014
101393.945
101393.823
101393.651
101393.493
101394.039
101394.006
101393.941
101393.9
101393.947
101393.998
101394.027
101394.065
101394.101
101394.153
101394.214
101394.249
101394.24
101394.228
101394.199
101394.164
101394.117
101394.036
101393.926
101393.856
101394.508
101394.572
101394.65
101394.769
101394.851
101394.884
101394.907
101394.934
101394.946
101394.918
101394.854
101394.78
101395.353
101395.422
101395.477
101395.121
101395.323
101395.508
101395.656
101395.804
101395.977
101396.185
101396.406
101395.914
101395.898
101395.938
101395.989
101396.028
101396.043
101396.07
101396.133
101396.229
101396.332
101396.478
101396.647
101396.031
101395.964
101395.937
101395.866
101395.77
101395.673
101395.655
101395.778
101395.893
101395.987
101395.956
101395.929
101396.511
101396.555
101396.555
101396.518
101396.487
101396.46
101396.72
101396.739
101396.688
101396.686
101396.716
101396.712
101396.667
101396.626
101396.598
101396.626
101396.554
101396.454
101396.381
101396.312
101396.24
101396.16
101396.078
101395.989
101395.897
101395.799
101395.698
101395.592
101395.464
101395.302
101395.186
101395.056
101394.932
101394.806
101394.674
101394.534
101394.389
101394.237
101394.079
101393.915
101393.745
101393.57
101393.393
101393.209
101393.015
101392.82
101392.621
101392.418
101392.21
101391.997
101391.778
101391.553
101391.327
101391.094
101390.862
101390.622
101390.409
101390.224
101390.002
101389.763
101389.488
101389.237
101388.992
101388.739
101388.483
101388.218
101387.952
101387.675
101387.401
101387.116
101386.827
101386.536
101386.243
101385.948
101385.653
101385.355
101385.057
101384.756
101384.455
101384.167
101383.871
101383.616
101383.311
101383.157
101382.978
101382.789
101382.603
101382.444
101382.287
101382.145
101382.012
101381.892
101381.783
101381.685
101381.598
101381.525
101381.463
101381.416
101381.381
101381.361
101381.351
101381.354
101381.367
101381.389
101381.416
101381.445
101381.471
101381.486
101381.49
101381.476
101381.422
101381.316
101381.193
101381.075
101380.852
101380.397
101379.724
101379.022
101378.358
101376.987
101374.787
101373.451
101373.58
101371.193
101364.985
101362.226
101365.467
101367.858
101369.016
101366.372
101368.552
101381.931
101390.143
101401.931
101430.517
101462.33
101488.684
101508.067
101529.172
101564.023
101592.241
101607.507
101621.638
101636.455
101648.069
101652.096
101654.013
101659.318
101661.944
101657.108
101651.299
101650.903
101649.939
101641.179
101631.214
101628.271
101626.209
101616.328
101605.115
101601.58
101599.906
101590.991
101580.423
101577.524
101577.176
101569.495
)
;

boundaryField
{
    closed
    {
        type            zeroGradient;
    }
    open
    {
        type            waveTransmissive;
        gamma           1.25;
        fieldInf        101325;
        lInf            1;
        value           nonuniform List<scalar> 0();
    }
    sides
    {
        type            empty;
    }
    procBoundary4to3
    {
        type            processor;
        value           uniform 101367.555;
    }
    procBoundary4to5
    {
        type            processor;
        value           uniform 101559.337;
    }
}


// ************************************************************************* //
