/*--------------------------------*- C++ -*----------------------------------*\
| =========                 |                                                 |
| \\      /  F ield         | OpenFOAM: The Open Source CFD Toolbox           |
|  \\    /   O peration     | Version:  2306                                  |
|   \\  /    A nd           | Website:  www.openfoam.com                      |
|    \\/     M anipulation  |                                                 |
\*---------------------------------------------------------------------------*/
FoamFile
{
    version     2.0;
    format      ascii;
    arch        "LSB;label=32;scalar=64";
    class       volScalarField;
    location    "0.00076";
    object      mu;
}
// * * * * * * * * * * * * * * * * * * * * * * * * * * * * * * * * * * * * * //

dimensions      [1 -1 -1 0 0 0 0];

internalField   nonuniform List<scalar> 
530
(
5.33013563e-05
5.35245293e-05
5.35017191e-05
5.35744386e-05
5.34511936e-05
5.35148253e-05
5.36652742e-05
5.373109e-05
5.35803773e-05
5.3591336e-05
5.37732456e-05
5.37579723e-05
5.36882846e-05
5.37023243e-05
5.38817659e-05
5.38607521e-05
5.37846543e-05
5.3800958e-05
5.39708462e-05
5.39562097e-05
5.38756486e-05
5.38893512e-05
5.40522093e-05
5.40438568e-05
5.39629967e-05
5.39694114e-05
5.41273193e-05
5.41267095e-05
5.40427037e-05
5.40511353e-05
5.42046596e-05
5.42005795e-05
5.41103618e-05
5.41300403e-05
5.42729445e-05
5.42691209e-05
5.41794782e-05
5.41989424e-05
5.43393077e-05
5.43352726e-05
5.42486539e-05
5.4268032e-05
5.44054646e-05
5.44022878e-05
5.43187534e-05
5.43384506e-05
5.44729653e-05
5.44707621e-05
5.43901183e-05
5.44104139e-05
5.4542964e-05
5.45410698e-05
5.4462643e-05
5.44843208e-05
5.46162616e-05
5.4614155e-05
5.45395973e-05
5.45601967e-05
5.46916994e-05
5.46915727e-05
5.46194878e-05
5.46416384e-05
5.47691777e-05
5.47717917e-05
5.47005505e-05
5.47254997e-05
5.4848938e-05
5.48540146e-05
5.47846877e-05
5.48089806e-05
5.49269271e-05
5.49380214e-05
5.487109e-05
5.48970497e-05
5.50117851e-05
5.50240208e-05
5.49615103e-05
5.49877413e-05
5.5103418e-05
5.51140477e-05
5.50587522e-05
5.50811214e-05
5.52010772e-05
5.52101511e-05
5.51603241e-05
5.51813618e-05
5.53029246e-05
5.53099436e-05
5.52637427e-05
5.52854204e-05
5.54090736e-05
5.54127619e-05
5.53695289e-05
5.53898791e-05
5.551264e-05
5.55163331e-05
5.54768038e-05
5.54959104e-05
5.56152617e-05
5.5620921e-05
5.55825132e-05
5.56016441e-05
5.57141154e-05
5.57232324e-05
5.568712e-05
5.57051316e-05
5.58176645e-05
5.58261679e-05
5.5793841e-05
5.5810266e-05
5.59238221e-05
5.59309259e-05
5.59017252e-05
5.59190666e-05
5.60338172e-05
5.60368909e-05
5.60107126e-05
5.60271547e-05
5.61396666e-05
5.61439271e-05
5.61198508e-05
5.61337561e-05
5.62396617e-05
5.62483757e-05
5.62232884e-05
5.62386714e-05
5.63392441e-05
5.63504539e-05
5.63250519e-05
5.63414633e-05
5.64374231e-05
5.6451755e-05
5.64253766e-05
5.64435566e-05
5.65329787e-05
5.65511955e-05
5.65234253e-05
5.65443319e-05
5.6626796e-05
5.66478589e-05
5.66193205e-05
5.66433088e-05
5.67187668e-05
5.67424206e-05
5.67136179e-05
5.67398398e-05
5.68123475e-05
5.68354679e-05
5.68097211e-05
5.68348694e-05
5.69065559e-05
5.69277791e-05
5.69040604e-05
5.69281865e-05
5.69997207e-05
5.701801e-05
5.69963422e-05
5.7018779e-05
5.70900993e-05
5.71057123e-05
5.7085704e-05
5.71067925e-05
5.71779553e-05
5.71909645e-05
5.71721242e-05
5.71918182e-05
5.72620599e-05
5.72734402e-05
5.72552587e-05
5.72737731e-05
5.73421393e-05
5.73531268e-05
5.73352447e-05
5.73528507e-05
5.74177592e-05
5.74298885e-05
5.74106896e-05
5.74286942e-05
5.74887425e-05
5.75029494e-05
5.74820309e-05
5.75004529e-05
5.75564736e-05
5.75730467e-05
5.75505144e-05
5.75694476e-05
5.76219158e-05
5.76397914e-05
5.76161624e-05
5.76355032e-05
5.76852099e-05
5.77016842e-05
5.76791411e-05
5.76984736e-05
5.77473111e-05
5.77609825e-05
5.77399467e-05
5.77605117e-05
5.7809806e-05
5.78192629e-05
5.7797149e-05
5.78193328e-05
5.78658402e-05
5.78757816e-05
5.78475526e-05
5.78762848e-05
5.79146287e-05
5.79287883e-05
5.78937613e-05
5.7926061e-05
5.79572588e-05
5.79769922e-05
5.79395343e-05
5.79725153e-05
5.79991522e-05
5.80217246e-05
5.79824687e-05
5.801679e-05
5.8039956e-05
5.80638466e-05
5.80234384e-05
5.80586126e-05
5.80816699e-05
5.81021878e-05
5.80647821e-05
5.80958919e-05
5.81291501e-05
5.81389903e-05
5.81104429e-05
5.81281186e-05
5.81743837e-05
5.81751007e-05
5.81569741e-05
5.81615026e-05
5.82104674e-05
5.82068692e-05
5.81956181e-05
5.81934846e-05
5.82426446e-05
5.82361578e-05
5.82293629e-05
5.82237929e-05
5.82713032e-05
5.82635147e-05
5.82592295e-05
5.82520516e-05
5.82971057e-05
5.82888261e-05
5.82860482e-05
5.82781386e-05
5.83205057e-05
5.83121089e-05
5.83103304e-05
5.8302081e-05
5.83417316e-05
5.83334002e-05
5.83324172e-05
5.83239813e-05
5.83610854e-05
5.83528256e-05
5.83525493e-05
5.83439673e-05
5.83787323e-05
5.83705336e-05
5.8370904e-05
5.8362167e-05
5.83948073e-05
5.83866355e-05
5.83876227e-05
5.83787013e-05
5.84094269e-05
5.84012369e-05
5.84028244e-05
5.83936831e-05
5.84227023e-05
5.84144321e-05
5.84166268e-05
5.84072079e-05
5.84347762e-05
5.84262695e-05
5.84292494e-05
5.84192606e-05
5.84456701e-05
5.8436905e-05
5.84404944e-05
5.84302061e-05
5.84554039e-05
5.84464688e-05
5.84505865e-05
5.84400058e-05
5.84640808e-05
5.84550262e-05
5.84595975e-05
5.84487569e-05
5.84718065e-05
5.84626481e-05
5.84676266e-05
5.84565514e-05
5.8478657e-05
5.84694271e-05
5.84747518e-05
5.84634934e-05
5.84846894e-05
5.84754732e-05
5.84810354e-05
5.84697088e-05
5.84899345e-05
5.84809456e-05
5.84865096e-05
5.84753756e-05
5.84943713e-05
5.8486173e-05
5.84911541e-05
5.84808549e-05
5.84979406e-05
5.84919255e-05
5.84949105e-05
5.84871617e-05
5.85005291e-05
5.85013217e-05
5.84977362e-05
5.84973848e-05
5.85021542e-05
5.85030502e-05
5.84999672e-05
5.85064392e-05
5.85035372e-05
5.85002913e-05
5.85015135e-05
5.85049906e-05
5.85046635e-05
5.84997464e-05
5.85025546e-05
5.85054765e-05
5.8506093e-05
5.85011053e-05
5.85041108e-05
5.85069974e-05
5.8507651e-05
5.85028545e-05
5.85057675e-05
5.85085473e-05
5.85091795e-05
5.85046356e-05
5.85073865e-05
5.85100114e-05
5.85105976e-05
5.85063251e-05
5.85088863e-05
5.85113379e-05
5.8511874e-05
5.85078689e-05
5.85102454e-05
5.85125154e-05
5.85130081e-05
5.8509255e-05
5.85114643e-05
5.85135496e-05
5.85140102e-05
5.8510491e-05
5.85125541e-05
5.85144541e-05
5.85148916e-05
5.85115892e-05
5.85135248e-05
5.85152476e-05
5.85156627e-05
5.85125732e-05
5.85143778e-05
5.8515948e-05
5.85163353e-05
5.85134648e-05
5.85151268e-05
5.85165671e-05
5.85169236e-05
5.85142663e-05
5.8515795e-05
5.85171105e-05
5.85174414e-05
5.85149774e-05
5.85163958e-05
5.85175844e-05
5.85178978e-05
5.85156093e-05
5.8516932e-05
5.85179997e-05
5.85182987e-05
5.85161781e-05
5.85174066e-05
5.85183677e-05
5.85186496e-05
5.85166946e-05
5.85178266e-05
5.85186962e-05
5.8518957e-05
5.85171649e-05
5.85181993e-05
5.85189901e-05
5.85192268e-05
5.8517593e-05
5.85185308e-05
5.85192531e-05
5.85194639e-05
5.85179824e-05
5.85188257e-05
5.85194884e-05
5.85196728e-05
5.85183361e-05
5.85190888e-05
5.85196976e-05
5.85198582e-05
5.85186547e-05
5.85193266e-05
5.85198815e-05
5.8520024e-05
5.85189376e-05
5.85195444e-05
5.85200426e-05
5.85201718e-05
5.85191892e-05
5.85197406e-05
5.85201862e-05
5.85203023e-05
5.85194209e-05
5.85199126e-05
5.85203177e-05
5.85204167e-05
5.85196386e-05
5.85200641e-05
5.85204398e-05
5.85205176e-05
5.85198411e-05
5.85202005e-05
5.85205522e-05
5.85206085e-05
5.85200278e-05
5.85203256e-05
5.85206547e-05
5.85206922e-05
5.85201991e-05
5.85204438e-05
5.85207487e-05
5.85207743e-05
5.85203578e-05
5.85205604e-05
5.85208492e-05
5.85208644e-05
5.85205162e-05
5.85206789e-05
5.85209821e-05
5.85209898e-05
5.85207041e-05
5.85208544e-05
5.85213357e-05
5.85213928e-05
5.85210048e-05
5.85210912e-05
5.8521145e-05
5.85211998e-05
5.85211516e-05
5.85211883e-05
5.85211812e-05
5.85212007e-05
5.85212052e-05
5.85212121e-05
5.85212261e-05
5.85212261e-05
5.85212437e-05
5.85212416e-05
5.852126e-05
5.85212582e-05
5.85212769e-05
5.85212767e-05
5.85212849e-05
5.85212659e-05
5.85212259e-05
5.85212073e-05
5.85211813e-05
5.85211667e-05
5.85211515e-05
5.85211421e-05
5.85211342e-05
5.85211291e-05
5.85211255e-05
5.85211233e-05
5.85211219e-05
5.85211211e-05
5.85211207e-05
5.85211205e-05
5.85211203e-05
5.85211203e-05
5.85211203e-05
5.85211203e-05
5.85211203e-05
5.85211203e-05
5.85211203e-05
5.85211203e-05
5.85211203e-05
5.85211203e-05
5.85211203e-05
5.85211203e-05
5.85211203e-05
5.85211203e-05
5.85211203e-05
5.85211203e-05
5.85211203e-05
5.85211203e-05
5.85211203e-05
5.85211203e-05
5.85211203e-05
5.85211203e-05
5.85211203e-05
5.85211203e-05
5.85211203e-05
5.85211203e-05
5.85211203e-05
5.85211203e-05
5.85211203e-05
5.85211203e-05
5.85211203e-05
5.85211203e-05
5.85211203e-05
5.85211203e-05
5.85211203e-05
5.85211203e-05
5.85211203e-05
5.85211203e-05
5.85211203e-05
5.85211203e-05
5.85211203e-05
)
;

boundaryField
{
    closed
    {
        type            calculated;
        value           nonuniform List<scalar> 0();
    }
    open
    {
        type            calculated;
        value           uniform 5.85211203e-05;
    }
    sides
    {
        type            empty;
    }
    procBoundary5to4
    {
        type            processor;
        value           uniform 5.33012174e-05;
    }
}


// ************************************************************************* //
