/*--------------------------------*- C++ -*----------------------------------*\
| =========                 |                                                 |
| \\      /  F ield         | OpenFOAM: The Open Source CFD Toolbox           |
|  \\    /   O peration     | Version:  2306                                  |
|   \\  /    A nd           | Website:  www.openfoam.com                      |
|    \\/     M anipulation  |                                                 |
\*---------------------------------------------------------------------------*/
FoamFile
{
    version     2.0;
    format      ascii;
    arch        "LSB;label=32;scalar=64";
    class       volScalarField;
    location    "0.00076";
    object      prefDPV_T;
}
// * * * * * * * * * * * * * * * * * * * * * * * * * * * * * * * * * * * * * //

dimensions      [1 -1 -1 -1 0 0 0];

internalField   nonuniform List<scalar> 
530
(
-3.76742781e-11
-4.12927588e-11
-4.28487719e-11
-4.04154587e-11
-3.8048185e-11
-3.87575309e-11
-4.2848894e-11
-4.28309734e-11
-3.84656095e-11
-3.89344312e-11
-4.28273206e-11
-4.28139495e-11
-3.86712518e-11
-3.95170189e-11
-4.28082813e-11
-4.27865708e-11
-3.88274386e-11
-3.98723229e-11
-4.27778361e-11
-4.27590542e-11
-3.90363458e-11
-4.00537922e-11
-4.27452356e-11
-4.27303981e-11
-3.9273875e-11
-4.00995979e-11
-4.27099274e-11
-4.2701157e-11
-3.94744661e-11
-4.0189764e-11
-4.26790753e-11
-4.26689784e-11
-3.95825823e-11
-4.02674473e-11
-4.26457669e-11
-4.26368731e-11
-3.96851443e-11
-4.0294958e-11
-4.26139887e-11
-4.26057083e-11
-3.97679253e-11
-4.03247809e-11
-4.25849117e-11
-4.25774128e-11
-3.98361742e-11
-4.03598102e-11
-4.25588902e-11
-4.25522348e-11
-3.98938412e-11
-4.0396485e-11
-4.25363059e-11
-4.25301741e-11
-3.99341007e-11
-4.04372109e-11
-4.25173723e-11
-4.25115197e-11
-3.99859049e-11
-4.04759755e-11
-4.25018645e-11
-4.24969891e-11
-4.00349939e-11
-4.05360118e-11
-4.24896651e-11
-4.2485919e-11
-4.00711404e-11
-4.05988578e-11
-4.24806316e-11
-4.24783158e-11
-4.01106449e-11
-4.06289488e-11
-4.24721741e-11
-4.24735071e-11
-4.01486108e-11
-4.06776973e-11
-4.24689155e-11
-4.24714032e-11
-4.02010243e-11
-4.07226281e-11
-4.24705235e-11
-4.24724747e-11
-4.0274552e-11
-4.07582843e-11
-4.24770491e-11
-4.24782666e-11
-4.03701148e-11
-4.08161174e-11
-4.24875916e-11
-4.24877958e-11
-4.04630625e-11
-4.08994415e-11
-4.25024423e-11
-4.25007261e-11
-4.05543474e-11
-4.09618449e-11
-4.25170847e-11
-4.25157436e-11
-4.0642808e-11
-4.10283127e-11
-4.25334533e-11
-4.25332715e-11
-4.07210844e-11
-4.10769556e-11
-4.25496618e-11
-4.25520098e-11
-4.07908552e-11
-4.11271497e-11
-4.25703872e-11
-4.25728332e-11
-4.0868102e-11
-4.11784896e-11
-4.25940921e-11
-4.2596127e-11
-4.09469554e-11
-4.12609292e-11
-4.26215075e-11
-4.26215902e-11
-4.10298303e-11
-4.13297856e-11
-4.26487617e-11
-4.26493505e-11
-4.11198876e-11
-4.13849825e-11
-4.26750248e-11
-4.26781515e-11
-4.11862571e-11
-4.14548243e-11
-4.27031462e-11
-4.27078262e-11
-4.12428105e-11
-4.15208586e-11
-4.2732406e-11
-4.27388707e-11
-4.12981514e-11
-4.15950379e-11
-4.27618102e-11
-4.27703617e-11
-4.13480021e-11
-4.16682791e-11
-4.27920897e-11
-4.28020246e-11
-4.13940152e-11
-4.17418012e-11
-4.28230513e-11
-4.28343183e-11
-4.14458236e-11
-4.18082995e-11
-4.28560467e-11
-4.28672354e-11
-4.1522622e-11
-4.18709996e-11
-4.28908684e-11
-4.29011668e-11
-4.16102526e-11
-4.1936047e-11
-4.29266232e-11
-4.29355341e-11
-4.17015426e-11
-4.19980743e-11
-4.2962169e-11
-4.29697431e-11
-4.17930251e-11
-4.20590461e-11
-4.29978533e-11
-4.30040572e-11
-4.18793872e-11
-4.21178185e-11
-4.30329979e-11
-4.30383194e-11
-4.19619015e-11
-4.21749275e-11
-4.30672637e-11
-4.30724049e-11
-4.20356221e-11
-4.22313994e-11
-4.31002954e-11
-4.3106106e-11
-4.20995164e-11
-4.22896599e-11
-4.31319668e-11
-4.31390564e-11
-4.21554902e-11
-4.2346534e-11
-4.31629697e-11
-4.31715288e-11
-4.2213331e-11
-4.24065072e-11
-4.31938324e-11
-4.32031418e-11
-4.22743119e-11
-4.24612818e-11
-4.32236375e-11
-4.32317544e-11
-4.23410751e-11
-4.2507994e-11
-4.3253463e-11
-4.32598741e-11
-4.24199122e-11
-4.25709777e-11
-4.32845173e-11
-4.3288244e-11
-4.24919839e-11
-4.26355462e-11
-4.33129625e-11
-4.33163794e-11
-4.25131188e-11
-4.27085207e-11
-4.33381266e-11
-4.33434281e-11
-4.25199115e-11
-4.27452964e-11
-4.33602214e-11
-4.33688243e-11
-4.25480345e-11
-4.2777378e-11
-4.33823687e-11
-4.33928202e-11
-4.25771337e-11
-4.28116016e-11
-4.34047192e-11
-4.34158547e-11
-4.2614936e-11
-4.28480659e-11
-4.34283614e-11
-4.34376944e-11
-4.26787362e-11
-4.28685821e-11
-4.34553233e-11
-4.34595471e-11
-4.2800647e-11
-4.28679064e-11
-4.34814881e-11
-4.34813052e-11
-4.29622649e-11
-4.28955008e-11
-4.35032045e-11
-4.35005908e-11
-4.3055956e-11
-4.29420055e-11
-4.35230232e-11
-4.35188375e-11
-4.31266705e-11
-4.29932489e-11
-4.35410719e-11
-4.35362464e-11
-4.31826686e-11
-4.30439503e-11
-4.35577084e-11
-4.35527204e-11
-4.32299186e-11
-4.30921875e-11
-4.35731606e-11
-4.35682328e-11
-4.32716351e-11
-4.3137424e-11
-4.35874869e-11
-4.35827409e-11
-4.33096299e-11
-4.31796775e-11
-4.36008795e-11
-4.35962875e-11
-4.33449025e-11
-4.32191294e-11
-4.36134024e-11
-4.36089415e-11
-4.33779581e-11
-4.32559647e-11
-4.3625102e-11
-4.36207329e-11
-4.34090528e-11
-4.32903298e-11
-4.3636015e-11
-4.36316918e-11
-4.34383171e-11
-4.33223311e-11
-4.36461781e-11
-4.36418453e-11
-4.34659187e-11
-4.33519658e-11
-4.36556503e-11
-4.3651197e-11
-4.34927586e-11
-4.33784935e-11
-4.36644212e-11
-4.3659818e-11
-4.35169058e-11
-4.34037831e-11
-4.36724822e-11
-4.36677665e-11
-4.35392066e-11
-4.34271125e-11
-4.36798669e-11
-4.36750763e-11
-4.35596525e-11
-4.344855e-11
-4.36866289e-11
-4.3681771e-11
-4.35784217e-11
-4.34682196e-11
-4.36928024e-11
-4.3687895e-11
-4.3595554e-11
-4.34863812e-11
-4.36984102e-11
-4.36935086e-11
-4.36109847e-11
-4.35035205e-11
-4.37034584e-11
-4.36987136e-11
-4.3624445e-11
-4.35205828e-11
-4.37079234e-11
-4.37037265e-11
-4.3635273e-11
-4.35400435e-11
-4.37117615e-11
-4.3709035e-11
-4.3642515e-11
-4.35698526e-11
-4.37148649e-11
-4.37160492e-11
-4.3645496e-11
-4.36352035e-11
-4.37173201e-11
-4.36735949e-11
-4.36467661e-11
-4.372181e-11
-4.37195292e-11
-4.36354078e-11
-4.36449099e-11
-4.37221046e-11
-4.37214826e-11
-4.36178589e-11
-4.36409823e-11
-4.3723562e-11
-4.37235836e-11
-4.3618328e-11
-4.36431741e-11
-4.3725607e-11
-4.37256829e-11
-4.36238024e-11
-4.36479314e-11
-4.37276067e-11
-4.37276909e-11
-4.36310533e-11
-4.36538749e-11
-4.37294778e-11
-4.3729554e-11
-4.36388433e-11
-4.36601227e-11
-4.37311867e-11
-4.37312527e-11
-4.36465385e-11
-4.36663107e-11
-4.37327298e-11
-4.37327884e-11
-4.36538772e-11
-4.36722803e-11
-4.3734114e-11
-4.3734171e-11
-4.36607773e-11
-4.36779819e-11
-4.37353523e-11
-4.3735409e-11
-4.36672193e-11
-4.36833708e-11
-4.37364611e-11
-4.37365158e-11
-4.36732876e-11
-4.36883565e-11
-4.37374511e-11
-4.3737506e-11
-4.36790643e-11
-4.36929572e-11
-4.37383334e-11
-4.37383884e-11
-4.3684492e-11
-4.36972815e-11
-4.37391193e-11
-4.37391729e-11
-4.36894994e-11
-4.37013724e-11
-4.37398174e-11
-4.37398711e-11
-4.36941184e-11
-4.37051943e-11
-4.37404359e-11
-4.3740492e-11
-4.36984304e-11
-4.3708723e-11
-4.37409848e-11
-4.37410422e-11
-4.37024838e-11
-4.37119726e-11
-4.37414733e-11
-4.37415286e-11
-4.3706292e-11
-4.37149686e-11
-4.3741908e-11
-4.37419584e-11
-4.37098581e-11
-4.37177304e-11
-4.37422945e-11
-4.37423378e-11
-4.3713187e-11
-4.37202713e-11
-4.37426372e-11
-4.37426731e-11
-4.37162815e-11
-4.37226111e-11
-4.37429395e-11
-4.374297e-11
-4.37191311e-11
-4.37247869e-11
-4.37432046e-11
-4.37432324e-11
-4.37217158e-11
-4.37268287e-11
-4.37434375e-11
-4.3743463e-11
-4.37240617e-11
-4.37287115e-11
-4.37436431e-11
-4.37436663e-11
-4.37262541e-11
-4.37304051e-11
-4.37438255e-11
-4.37438448e-11
-4.37283351e-11
-4.37319345e-11
-4.37439887e-11
-4.37440013e-11
-4.37302897e-11
-4.37333376e-11
-4.37441347e-11
-4.37441397e-11
-4.37321085e-11
-4.37346423e-11
-4.37442645e-11
-4.37442634e-11
-4.37337926e-11
-4.37358827e-11
-4.37443814e-11
-4.3744377e-11
-4.37353617e-11
-4.37371006e-11
-4.37444959e-11
-4.37444891e-11
-4.3736915e-11
-4.373832e-11
-4.37446298e-11
-4.37446213e-11
-4.37386882e-11
-4.37399921e-11
-4.37440298e-11
-4.37445597e-11
-4.37413999e-11
-4.37421838e-11
-4.37426981e-11
-4.37432247e-11
-4.37428919e-11
-4.37432691e-11
-4.37432835e-11
-4.3743516e-11
-4.37436327e-11
-4.37437609e-11
-4.3743955e-11
-4.37440239e-11
-4.37442443e-11
-4.37442949e-11
-4.37445137e-11
-4.37445643e-11
-4.3744779e-11
-4.37448322e-11
-4.37450075e-11
-4.37450059e-11
-4.37449951e-11
-4.37449922e-11
-4.3744984e-11
-4.37449807e-11
-4.37449751e-11
-4.37449722e-11
-4.37449688e-11
-4.37449667e-11
-4.37449648e-11
-4.37449636e-11
-4.37449627e-11
-4.37449622e-11
-4.37449618e-11
-4.37449616e-11
-4.37449615e-11
-4.37449614e-11
-4.37449614e-11
-4.37449614e-11
-4.37449614e-11
-4.37449614e-11
-4.37449614e-11
-4.37449614e-11
-4.37449614e-11
-4.37449614e-11
-4.37449614e-11
-4.37449614e-11
-4.37449614e-11
-4.37449614e-11
-4.37449614e-11
-4.37449614e-11
-4.37449614e-11
-4.37449614e-11
-4.37449614e-11
-4.37449614e-11
-4.37449614e-11
-4.37449614e-11
-4.37449614e-11
-4.37449614e-11
-4.37449614e-11
-4.37449614e-11
-4.37449614e-11
-4.37449614e-11
-4.37449614e-11
-4.37449614e-11
-4.37449614e-11
-4.37449614e-11
-4.37449614e-11
-4.37449614e-11
-4.37449614e-11
-4.37449614e-11
-4.37449614e-11
-4.37449614e-11
-4.37449614e-11
-4.37449614e-11
-4.37449614e-11
)
;

boundaryField
{
    closed
    {
        type            calculated;
        value           nonuniform List<scalar> 0();
    }
    open
    {
        type            calculated;
        value           uniform -4.37449614e-11;
    }
    sides
    {
        type            empty;
    }
    procBoundary5to4
    {
        type            processor;
        value           uniform -3.76967136e-11;
    }
}


// ************************************************************************* //
