/*--------------------------------*- C++ -*----------------------------------*\
| =========                 |                                                 |
| \\      /  F ield         | OpenFOAM: The Open Source CFD Toolbox           |
|  \\    /   O peration     | Version:  2306                                  |
|   \\  /    A nd           | Website:  www.openfoam.com                      |
|    \\/     M anipulation  |                                                 |
\*---------------------------------------------------------------------------*/
FoamFile
{
    version     2.0;
    format      ascii;
    arch        "LSB;label=32;scalar=64";
    class       volScalarField;
    location    "0.00076";
    object      prefDPV_H2;
}
// * * * * * * * * * * * * * * * * * * * * * * * * * * * * * * * * * * * * * //

dimensions      [1 -1 -1 0 0 0 0];

internalField   nonuniform List<scalar> 
530
(
-8.56805814e-05
-8.62235816e-05
-8.63180745e-05
-8.62468619e-05
-8.59252126e-05
-8.60638368e-05
-8.65668429e-05
-8.66582811e-05
-8.61445956e-05
-8.61909124e-05
-8.67339962e-05
-8.67125904e-05
-8.63217637e-05
-8.63979936e-05
-8.69016138e-05
-8.687263e-05
-8.64795767e-05
-8.65744865e-05
-8.70412545e-05
-8.70215806e-05
-8.66344965e-05
-8.67249458e-05
-8.71694876e-05
-8.71588373e-05
-8.67866462e-05
-8.68541531e-05
-8.72886189e-05
-8.72889109e-05
-8.69256689e-05
-8.69888584e-05
-8.7410519e-05
-8.74057227e-05
-8.7041382e-05
-8.7118398e-05
-8.75190114e-05
-8.75144425e-05
-8.71583785e-05
-8.72300172e-05
-8.76243951e-05
-8.76194233e-05
-8.72736418e-05
-8.73417118e-05
-8.77291106e-05
-8.77253384e-05
-8.73887716e-05
-8.74552508e-05
-8.78354601e-05
-8.78330533e-05
-8.75045366e-05
-8.75706945e-05
-8.79451238e-05
-8.79431154e-05
-8.76204411e-05
-8.76887702e-05
-8.80592781e-05
-8.80569104e-05
-8.77430391e-05
-8.78091429e-05
-8.81762082e-05
-8.81767144e-05
-8.78691585e-05
-8.79385938e-05
-8.82957738e-05
-8.83002877e-05
-8.79955344e-05
-8.80713872e-05
-8.8418357e-05
-8.84264108e-05
-8.81261237e-05
-8.8200657e-05
-8.85381641e-05
-8.85548345e-05
-8.82593554e-05
-8.8337519e-05
-8.86676172e-05
-8.86858528e-05
-8.83990365e-05
-8.84774043e-05
-8.88066509e-05
-8.8822521e-05
-8.85496142e-05
-8.86200347e-05
-8.89541095e-05
-8.896772e-05
-8.87077755e-05
-8.8773672e-05
-8.91073214e-05
-8.9117956e-05
-8.88680573e-05
-8.89343985e-05
-8.92663999e-05
-8.92722536e-05
-8.90312837e-05
-8.90935948e-05
-8.94215094e-05
-8.94273148e-05
-8.91959794e-05
-8.92549111e-05
-8.9574896e-05
-8.95835144e-05
-8.93572071e-05
-8.94138366e-05
-8.97225529e-05
-8.97360424e-05
-8.95157864e-05
-8.95693492e-05
-8.98766301e-05
-8.98891704e-05
-8.96775797e-05
-8.97268764e-05
-9.00341686e-05
-9.00446394e-05
-8.98407751e-05
-8.98919011e-05
-9.01968863e-05
-9.02015347e-05
-9.00054473e-05
-9.00544773e-05
-9.03532924e-05
-9.03596631e-05
-9.01704458e-05
-9.02132635e-05
-9.05009265e-05
-9.05136638e-05
-9.03250099e-05
-9.03704933e-05
-9.06476118e-05
-9.06638926e-05
-9.0475982e-05
-9.05240328e-05
-9.07919539e-05
-9.08126826e-05
-9.06244288e-05
-9.06768854e-05
-9.09322075e-05
-9.0958495e-05
-9.0768914e-05
-9.08273873e-05
-9.10696535e-05
-9.110003e-05
-9.09096448e-05
-9.09749911e-05
-9.12041584e-05
-9.12382427e-05
-9.10483244e-05
-9.11181838e-05
-9.13407475e-05
-9.13740245e-05
-9.11914311e-05
-9.12585904e-05
-9.14779628e-05
-9.15084941e-05
-9.1332787e-05
-9.1396444e-05
-9.16134113e-05
-9.16397028e-05
-9.1471302e-05
-9.15299249e-05
-9.17445902e-05
-9.17670273e-05
-9.16054726e-05
-9.16594345e-05
-9.18718874e-05
-9.18905926e-05
-9.17348115e-05
-9.17842913e-05
-9.19935585e-05
-9.20099323e-05
-9.18589166e-05
-9.19044342e-05
-9.21092463e-05
-9.21250494e-05
-9.19775712e-05
-9.20202582e-05
-9.2218355e-05
-9.22357743e-05
-9.20884381e-05
-9.21313366e-05
-9.2320642e-05
-9.23409952e-05
-9.21925225e-05
-9.22361586e-05
-9.24180949e-05
-9.2441787e-05
-9.22926161e-05
-9.23372049e-05
-9.25120897e-05
-9.25376164e-05
-9.23889358e-05
-9.24339413e-05
-9.26026208e-05
-9.26260785e-05
-9.24820042e-05
-9.25259944e-05
-9.26911647e-05
-9.27106798e-05
-9.25731071e-05
-9.26186858e-05
-9.27800717e-05
-9.27936845e-05
-9.26585071e-05
-9.27069871e-05
-9.28596654e-05
-9.28740551e-05
-9.2729724e-05
-9.27936603e-05
-9.29288837e-05
-9.29493024e-05
-9.27931835e-05
-9.28657019e-05
-9.29893339e-05
-9.30175823e-05
-9.28583252e-05
-9.29324213e-05
-9.30486553e-05
-9.30808597e-05
-9.29197395e-05
-9.29963217e-05
-9.31062927e-05
-9.31403588e-05
-9.29795953e-05
-9.30570321e-05
-9.31650717e-05
-9.31943614e-05
-9.30434679e-05
-9.31094446e-05
-9.32319529e-05
-9.32460391e-05
-9.31207253e-05
-9.31522587e-05
-9.32955752e-05
-9.32966831e-05
-9.32038333e-05
-9.32001387e-05
-9.33461771e-05
-9.33412062e-05
-9.32673248e-05
-9.3248446e-05
-9.33912174e-05
-9.33821697e-05
-9.33211135e-05
-9.32950673e-05
-9.34312604e-05
-9.34203653e-05
-9.33677106e-05
-9.33388187e-05
-9.34672432e-05
-9.34556389e-05
-9.34090293e-05
-9.33792942e-05
-9.34998107e-05
-9.34880218e-05
-9.34461876e-05
-9.34164689e-05
-9.35292855e-05
-9.3517571e-05
-9.34798898e-05
-9.3450493e-05
-9.35561026e-05
-9.35444714e-05
-9.35105985e-05
-9.34815711e-05
-9.35805007e-05
-9.35689403e-05
-9.35386263e-05
-9.35099081e-05
-9.36026751e-05
-9.35911407e-05
-9.35642045e-05
-9.35356931e-05
-9.36227948e-05
-9.36112265e-05
-9.35875176e-05
-9.35590979e-05
-9.36410213e-05
-9.36293349e-05
-9.36087524e-05
-9.35802551e-05
-9.36575589e-05
-9.36455386e-05
-9.36283318e-05
-9.35990473e-05
-9.36724422e-05
-9.36600598e-05
-9.36457272e-05
-9.36162265e-05
-9.36857027e-05
-9.36730846e-05
-9.36613637e-05
-9.36316403e-05
-9.36974897e-05
-9.36847054e-05
-9.36753388e-05
-9.36454318e-05
-9.3707953e-05
-9.36950248e-05
-9.3687811e-05
-9.36577428e-05
-9.37172012e-05
-9.37041746e-05
-9.36988908e-05
-9.36687498e-05
-9.37253163e-05
-9.37123096e-05
-9.37086525e-05
-9.36786911e-05
-9.37323435e-05
-9.37196519e-05
-9.37171007e-05
-9.36879424e-05
-9.37382552e-05
-9.37266586e-05
-9.37241145e-05
-9.36973443e-05
-9.374297e-05
-9.37344033e-05
-9.37294823e-05
-9.37093451e-05
-9.37463363e-05
-9.3747328e-05
-9.37330555e-05
-9.37312949e-05
-9.37483654e-05
-9.37435402e-05
-9.37356706e-05
-9.37540452e-05
-9.37500724e-05
-9.37342061e-05
-9.37369991e-05
-9.37518242e-05
-9.3751437e-05
-9.37306992e-05
-9.37374369e-05
-9.3752311e-05
-9.37532318e-05
-9.37321879e-05
-9.37394207e-05
-9.3754252e-05
-9.37552194e-05
-9.37348953e-05
-9.37419122e-05
-9.37562441e-05
-9.3757178e-05
-9.37379108e-05
-9.3744541e-05
-9.37581288e-05
-9.3758995e-05
-9.37409031e-05
-9.37470787e-05
-9.37598341e-05
-9.37606268e-05
-9.3743714e-05
-9.37494469e-05
-9.37613434e-05
-9.37620724e-05
-9.37462914e-05
-9.37516233e-05
-9.37626643e-05
-9.37633455e-05
-9.37486329e-05
-9.37536148e-05
-9.3763815e-05
-9.37644616e-05
-9.37507505e-05
-9.37554274e-05
-9.37648207e-05
-9.37654339e-05
-9.3752686e-05
-9.37570484e-05
-9.37657066e-05
-9.37662781e-05
-9.37544786e-05
-9.37584971e-05
-9.37664885e-05
-9.37670137e-05
-9.37561219e-05
-9.37598185e-05
-9.37671727e-05
-9.37676599e-05
-9.37576038e-05
-9.37610349e-05
-9.37677674e-05
-9.37682284e-05
-9.37589425e-05
-9.37621433e-05
-9.37682875e-05
-9.37687265e-05
-9.37601693e-05
-9.37631432e-05
-9.37687481e-05
-9.37691613e-05
-9.37613042e-05
-9.37640449e-05
-9.37691596e-05
-9.37695414e-05
-9.37623555e-05
-9.37648606e-05
-9.37695281e-05
-9.37698746e-05
-9.37633278e-05
-9.37655996e-05
-9.37698583e-05
-9.37701671e-05
-9.37642258e-05
-9.37662689e-05
-9.37701542e-05
-9.37704247e-05
-9.37650528e-05
-9.37668766e-05
-9.37704178e-05
-9.37706534e-05
-9.37658077e-05
-9.37674355e-05
-9.37706495e-05
-9.37708585e-05
-9.37664857e-05
-9.37679563e-05
-9.37708523e-05
-9.37710418e-05
-9.37670956e-05
-9.37684324e-05
-9.37710335e-05
-9.37712037e-05
-9.37676634e-05
-9.37688556e-05
-9.37712005e-05
-9.37713456e-05
-9.37682022e-05
-9.3769234e-05
-9.37713564e-05
-9.37714709e-05
-9.37687076e-05
-9.37695791e-05
-9.37715007e-05
-9.37715843e-05
-9.37691771e-05
-9.3769899e-05
-9.37716329e-05
-9.37716893e-05
-9.37696112e-05
-9.37702043e-05
-9.37717544e-05
-9.37717934e-05
-9.37700159e-05
-9.37705077e-05
-9.37718861e-05
-9.377191e-05
-9.37704229e-05
-9.37708187e-05
-9.3772063e-05
-9.37720761e-05
-9.37709089e-05
-9.37712753e-05
-9.37724597e-05
-9.37726045e-05
-9.37716677e-05
-9.37718831e-05
-9.3772016e-05
-9.37721555e-05
-9.37720431e-05
-9.37721385e-05
-9.37721262e-05
-9.37721798e-05
-9.37721966e-05
-9.37722199e-05
-9.37722598e-05
-9.37722661e-05
-9.37723149e-05
-9.37723161e-05
-9.37723664e-05
-9.37723681e-05
-9.37724186e-05
-9.37724231e-05
-9.37724544e-05
-9.37724262e-05
-9.3772368e-05
-9.37723406e-05
-9.3772303e-05
-9.37722817e-05
-9.37722598e-05
-9.37722462e-05
-9.37722349e-05
-9.37722277e-05
-9.37722226e-05
-9.37722194e-05
-9.37722175e-05
-9.37722164e-05
-9.37722158e-05
-9.37722155e-05
-9.37722154e-05
-9.37722153e-05
-9.37722153e-05
-9.37722152e-05
-9.37722152e-05
-9.37722152e-05
-9.37722152e-05
-9.37722152e-05
-9.37722152e-05
-9.37722152e-05
-9.37722152e-05
-9.37722152e-05
-9.37722152e-05
-9.37722152e-05
-9.37722152e-05
-9.37722152e-05
-9.37722152e-05
-9.37722152e-05
-9.37722152e-05
-9.37722152e-05
-9.37722152e-05
-9.37722152e-05
-9.37722152e-05
-9.37722152e-05
-9.37722152e-05
-9.37722152e-05
-9.37722152e-05
-9.37722152e-05
-9.37722152e-05
-9.37722152e-05
-9.37722152e-05
-9.37722152e-05
-9.37722152e-05
-9.37722152e-05
-9.37722152e-05
-9.37722152e-05
-9.37722152e-05
-9.37722152e-05
-9.37722152e-05
-9.37722152e-05
-9.37722152e-05
)
;

boundaryField
{
    closed
    {
        type            calculated;
        value           nonuniform List<scalar> 0();
    }
    open
    {
        type            calculated;
        value           uniform -9.37722152e-05;
    }
    sides
    {
        type            empty;
    }
    procBoundary5to4
    {
        type            processor;
        value           uniform -8.56790647e-05;
    }
}


// ************************************************************************* //
