/*--------------------------------*- C++ -*----------------------------------*\
| =========                 |                                                 |
| \\      /  F ield         | OpenFOAM: The Open Source CFD Toolbox           |
|  \\    /   O peration     | Version:  2306                                  |
|   \\  /    A nd           | Website:  www.openfoam.com                      |
|    \\/     M anipulation  |                                                 |
\*---------------------------------------------------------------------------*/
FoamFile
{
    version     2.0;
    format      ascii;
    arch        "LSB;label=32;scalar=64";
    class       volScalarField;
    location    "0.00076";
    object      rho;
}
// * * * * * * * * * * * * * * * * * * * * * * * * * * * * * * * * * * * * * //

dimensions      [1 -3 0 0 0 0 0];

internalField   nonuniform List<scalar> 
530
(
0.226863622
0.225679264
0.225937424
0.225291391
0.225905224
0.225556264
0.224888053
0.22445497
0.225128177
0.225093714
0.224214138
0.224312639
0.224464005
0.224444795
0.223538807
0.223677829
0.223872115
0.223863394
0.222990242
0.223088383
0.223326492
0.223335842
0.222492362
0.222549875
0.222811
0.222852125
0.222037368
0.222044465
0.222348272
0.222366565
0.221577884
0.22160773
0.221963844
0.221900997
0.221180026
0.221207628
0.221569925
0.221502495
0.22079312
0.220821477
0.221171797
0.221101668
0.220404494
0.220426747
0.22076329
0.220689452
0.220003685
0.22001892
0.220341946
0.220263697
0.219586891
0.21959953
0.21990896
0.219822558
0.219150918
0.219164206
0.2194506
0.219365902
0.21869851
0.21869917
0.218973506
0.218880109
0.218231114
0.218214499
0.218485926
0.218379398
0.217748052
0.217715853
0.217978338
0.217876703
0.217275665
0.217206699
0.21745618
0.217347449
0.216768928
0.216692773
0.2169103
0.21680052
0.216218602
0.216151612
0.216327395
0.21623407
0.215627789
0.215570451
0.215719415
0.215632436
0.215010811
0.214966396
0.215100467
0.215010252
0.214368912
0.21434597
0.214468019
0.214384298
0.213751796
0.213729052
0.213827362
0.213750355
0.213141379
0.213107179
0.21320047
0.213117864
0.212555369
0.212499888
0.212584249
0.212507529
0.211940563
0.211888464
0.211955355
0.211886354
0.211310964
0.211267671
0.211319179
0.211244995
0.210664856
0.210645712
0.21067731
0.21060615
0.21004394
0.210018214
0.210036866
0.209976701
0.209459165
0.209407383
0.2094367
0.209365161
0.208878695
0.208812353
0.208846968
0.208769369
0.208307208
0.208223492
0.208266055
0.208178867
0.207758462
0.207652274
0.207697464
0.207596686
0.207219913
0.207097222
0.207141098
0.207024816
0.206691202
0.206553211
0.206593988
0.206465646
0.206151656
0.206016362
0.20604105
0.205916783
0.205606589
0.205482069
0.205497956
0.205378677
0.205066438
0.204959358
0.204966675
0.204855849
0.20454721
0.204456199
0.204452678
0.204348386
0.204043335
0.20396752
0.203956357
0.203859002
0.203561732
0.203495683
0.203480161
0.20338862
0.203104376
0.203041036
0.203023113
0.202936335
0.202673856
0.202604422
0.20259869
0.202507469
0.202270944
0.202189828
0.202199512
0.202106326
0.201886594
0.201791963
0.201816468
0.201720624
0.201514536
0.201413249
0.201449065
0.201351425
0.201160204
0.201068122
0.20109645
0.200999551
0.200813175
0.200736542
0.200756022
0.200654191
0.200462879
0.200409581
0.20043463
0.200326341
0.200147702
0.200092094
0.200148978
0.200011074
0.19987399
0.199795592
0.199886683
0.19973312
0.199635827
0.199526761
0.199629919
0.199473553
0.199401543
0.199276541
0.199388646
0.199225612
0.199172162
0.199039687
0.199158618
0.198990451
0.198936147
0.198821691
0.198928403
0.198776425
0.19866621
0.198609647
0.198679574
0.198585396
0.198406547
0.198400429
0.198430673
0.198392533
0.198197996
0.198216053
0.198217712
0.198211546
0.198011881
0.198046093
0.19803056
0.198041195
0.19784595
0.197887466
0.1978638
0.197882805
0.197696393
0.197740687
0.197713441
0.197736698
0.197560585
0.197605558
0.197576923
0.197602552
0.197438072
0.197482306
0.197452519
0.197479768
0.197326154
0.197370002
0.197338948
0.197367578
0.19722384
0.19726735
0.197235213
0.197265221
0.197130324
0.197173682
0.197140508
0.197171996
0.197044931
0.197088386
0.19705416
0.197087267
0.196967037
0.197010937
0.196975533
0.197010493
0.196895863
0.196941074
0.196903542
0.196941655
0.196831299
0.196877956
0.196839014
0.196879019
0.196773254
0.196820878
0.196780838
0.196822674
0.196721159
0.196769466
0.196728595
0.196772075
0.196674413
0.196723308
0.196681728
0.19672669
0.196632558
0.196681852
0.196639755
0.196685926
0.196595228
0.19664444
0.196602261
0.196649094
0.196562189
0.196610115
0.196568934
0.196615249
0.196533446
0.196576962
0.196539695
0.196582724
0.196509336
0.196540848
0.196514865
0.19654715
0.196490668
0.196485137
0.196494508
0.19649416
0.196476826
0.196465396
0.196478597
0.196451912
0.196468248
0.196475031
0.196469665
0.196460344
0.196462582
0.196475951
0.196463438
0.196457835
0.196454701
0.196468079
0.19645451
0.196448947
0.196445403
0.196458001
0.196444676
0.196439209
0.196435615
0.19644739
0.196434667
0.196429435
0.196425982
0.196436978
0.196425035
0.19642013
0.196416893
0.19642719
0.196416052
0.196411547
0.196408528
0.196418221
0.19640784
0.196403787
0.19640095
0.19641012
0.196400422
0.196396852
0.196394163
0.196402869
0.19639378
0.196390674
0.196388134
0.196396367
0.1963879
0.196385163
0.196382797
0.196390503
0.196382705
0.196380247
0.19637807
0.196385245
0.196378073
0.196375885
0.196373869
0.196380575
0.196373928
0.196372036
0.196370136
0.196376427
0.196370238
0.196368631
0.196366829
0.196372716
0.196366975
0.196365602
0.196363911
0.196369379
0.196364094
0.196362898
0.196361339
0.196366375
0.19636155
0.196360483
0.196359071
0.196363674
0.196359302
0.196358328
0.196357073
0.196361246
0.196357317
0.196356408
0.19635531
0.196359069
0.196355563
0.196354706
0.196353748
0.196357129
0.196353998
0.19635321
0.19635236
0.196355417
0.196352591
0.196351896
0.196351127
0.196353903
0.196351338
0.196350727
0.196350035
0.196352526
0.196350237
0.196349663
0.196349069
0.196351249
0.196349262
0.19634868
0.196348204
0.196350064
0.196348377
0.196347767
0.196347406
0.19634896
0.196347547
0.196346907
0.196346642
0.196347913
0.196346731
0.19634607
0.196345858
0.19634689
0.196345888
0.196345159
0.196344992
0.196345835
0.196345007
0.196344037
0.196343902
0.196344641
0.196343876
0.196341681
0.196341343
0.196342986
0.196342523
0.196342226
0.196341942
0.19634212
0.196341922
0.196341919
0.196341797
0.196341733
0.196341655
0.196341534
0.196341467
0.196341307
0.196341223
0.196341031
0.196340913
0.196340685
0.196340521
0.196340305
0.196340196
0.196340181
0.196340035
0.196339918
0.196339734
0.196339561
0.196339376
0.196339221
0.19633911
0.196339077
0.196339151
0.196339365
0.19633975
0.196340333
0.196341134
0.19634216
0.196343408
0.19634486
0.196346485
0.196348243
0.196350085
0.196351955
0.196353782
0.196355475
0.19635691
0.196357947
0.196358456
0.196358383
0.196357804
0.19635695
0.19635617
0.196355868
0.196356443
0.196358236
0.19636142
0.196365861
0.196371069
0.196376282
0.19638058
0.196382906
0.196382119
0.196377358
0.196368722
0.196357871
0.196347419
0.196338939
0.19633291
0.19633269
0.19634176
0.196353312
0.19635734
0.196359518
0.196361564
0.196351405
0.196326358
0.19628629
)
;

boundaryField
{
    closed
    {
        type            calculated;
        value           nonuniform List<scalar> 0();
    }
    open
    {
        type            calculated;
        value           uniform 0.196284826;
    }
    sides
    {
        type            empty;
    }
    procBoundary5to4
    {
        type            processor;
        value           uniform 0.226862438;
    }
}


// ************************************************************************* //
