/*--------------------------------*- C++ -*----------------------------------*\
| =========                 |                                                 |
| \\      /  F ield         | OpenFOAM: The Open Source CFD Toolbox           |
|  \\    /   O peration     | Version:  2306                                  |
|   \\  /    A nd           | Website:  www.openfoam.com                      |
|    \\/     M anipulation  |                                                 |
\*---------------------------------------------------------------------------*/
FoamFile
{
    version     2.0;
    format      ascii;
    arch        "LSB;label=32;scalar=64";
    class       volScalarField;
    location    "0.00044";
    object      p;
}
// * * * * * * * * * * * * * * * * * * * * * * * * * * * * * * * * * * * * * //

dimensions      [1 -1 -2 0 0 0 0];

internalField   nonuniform List<scalar> 
531
(
101552.532
101555.548
101558.649
101561.652
101564.662
101567.799
101571.057
101574.253
101577.454
101580.783
101584.248
101587.638
101591.029
101594.544
101598.178
101601.702
101605.244
101608.914
101612.669
101616.229
101619.803
101623.502
101627.338
101631.118
101634.796
101638.561
101642.458
101646.458
101650.504
101654.607
101658.615
101662.498
101666.479
101670.595
101674.841
101679.021
101683.077
101687.218
101691.481
101695.852
101700.29
101704.805
101709.167
101713.348
101717.705
101722.226
101726.594
101731.317
101736.436
101741.786
101746.868
101751.696
101756.965
101762.144
101767.229
101772.528
101778.008
101783.639
101790.776
101797.751
101804.682
101812.141
101819.517
101826.807
101834.411
101842.307
101850.477
101858.534
101866.468
101874.72
101883.131
101891.689
101899.98
101908.151
101916.503
101925.107
101933.981
101943.029
101951.794
101960.563
101969.291
101978.447
101987.293
101995.883
102004.641
102013.426
102022.248
102030.609
102038.732
102046.651
102054.893
102062.662
102070.188
102077.416
102084.892
102091.848
102098.553
102104.884
102111.396
102117.342
102123.045
102128.306
102133.694
102138.518
102143.152
102147.348
102151.665
102155.454
102159.046
102162.928
102167.021
102171.021
102175.095
102178.272
102181.225
102184.315
102186.895
102189.044
102190.318
102191.374
102191.755
102191.909
102191.416
102190.625
102189.014
102187.015
102184.312
102181
102177.465
102173.875
102169.726
102165.226
102160.326
102154.958
102148.454
102141.329
102134.14
102127.021
102119.576
102111.172
102102.115
102092.97
102084.542
102075.944
102066.885
102057.374
102048.402
102039.283
102029.402
102018.982
102008.594
101999.048
101989.401
101979.046
101968.19
101957.359
101947.637
101937.939
101928.15
101918.052
101908.966
101899.887
101890.345
101880.408
101870.521
101861.774
101853.033
101843.816
101834.223
101824.657
101816.261
101807.855
101798.981
101789.72
101780.438
101772.31
101764.139
101755.501
101746.608
101740.768
101734.91
101728.797
101722.471
101716.559
101710.443
101704.223
101697.67
101690.736
101685.076
101679.44
101673.546
101667.385
101661.605
101655.586
101649.468
101643.052
101636.406
101629.999
101623.389
101616.83
101609.962
101602.745
101595.375
101589.949
101584.483
101578.713
101572.873
101566.979
101561.051
101555.215
101549.157
101543.009
101536.74
101530.571
101524.625
101518.564
101512.504
101506.933
101501.391
101496.164
101490.518
101485.039
101480.674
101476.518
101472.339
101468.34
101464.945
101461.96
101459.337
101455.222
101451.628
101448.4
101445.581
101442.748
101440.23
101437.839
101435.565
101433.498
101431.347
101429.424
101427.53
101425.652
101423.768
101422.01
101420.154
101418.384
101416.625
101414.904
101413.45
101413.66
101413.832
101414.023
101414.258
101414.43
101414.61
101414.664
101414.615
101414.65
101414.615
101414.489
101414.34
101413.949
101413.594
101413.162
101412.589
101411.826
101411.015
101409.99
101408.891
101407.63
101406.287
101404.91
101403.434
101401.759
101399.852
101397.917
101395.932
101393.743
101391.73
101389.692
101387.658
101385.412
101383.315
101381.182
101379.012
101376.678
101374.505
101372.28
101369.658
101366.959
101364.322
101361.588
101358.935
101356.339
101353.678
101351.087
101348.633
101346.066
101343.5
101341.338
101339.301
101337.288
101335.298
101333.449
101331.652
101330.045
101328.644
101327.332
101326.335
101325.591
101324.996
101324.549
101324.416
101324.522
101324.845
101325.369
101326.155
101327.075
101328.225
101329.682
101331.352
101333.34
101335.601
101338.2
101341.11
101344.203
101347.327
101350.7
101354.565
101358.637
101362.531
101366.647
101371.075
101375.681
101380.486
101385.226
101389.882
101394.706
101399.72
101404.867
101409.899
101414.916
101420.032
101425.2
101430.035
101434.879
101439.876
101444.958
101449.963
101454.69
101459.258
101463.749
101468.144
101472.119
101475.989
101479.761
101483.377
101486.732
101489.821
101492.749
101495.538
101498.143
101500.417
101502.411
101504.249
101505.951
101507.509
101508.774
101509.827
101510.797
101511.665
101512.459
101513.112
101513.671
101514.22
101514.68
101515.116
101515.611
101516.152
101516.758
101517.149
101517.47
101518.2
101518.956
101519.761
101520.676
101521.689
101522.654
101523.658
101524.683
101525.616
101526.436
101527.1
101527.576
101527.84
101527.663
101527.361
101525.792
101523.812
101521.043
101517.443
101513.118
101507.794
101501.376
101493.779
101484.923
101474.751
101463.223
101450.324
101436.062
101420.484
101403.661
101385.727
101366.842
101347.244
101327.283
101307.316
101286.961
101266.875
101247.29
101228.9
101212.307
101198.294
101187.644
101181.349
101180.745
101186.771
101201.355
101227.415
101265.467
101312.145
101430.804
101566.061
101720.292
101863.462
101776.508
101701.189
101534.882
101359.112
101378.379
101597.939
101880.798
102215.021
102130.754
102038.87
101985.725
101937.466
101896.302
101861.377
101831.877
101806.411
101784.354
101765.056
101748.171
101733.416
101720.95
101710.626
101702.506
101696.529
101692.746
101691.104
101691.649
101694.451
101699.655
101707.633
101718.34
101730.877
101746.622
101774.104
101803.639
101808.922
101811.315
101827.088
101854.237
101862.796
101876.19
101901.541
101939.237
102004.199
102069.727
102088.328
102093.248
102081.793
102080.846
102077.157
102075.198
102087.619
102081.038
102071.419
102081.984
102090.038
102075.085
102066.959
102071.415
102062.654
102037.808
102024.629
102027.124
102017.361
101991.263
101978.036
101977.029
101963.295
101938.173
101919.74
101910.442
101898.792
101884.835
101873.523
101861.254
101850.227
101846.687
101842.461
101832.001
101823.785
101818.143
101808.359
101796.096
101786.599
101779.374
101767.86
101753.849
101742.985
101734.929
101722.515
101707.178
101695.534
101687.176
101673.673
101657.263
101647.716
)
;

boundaryField
{
    closed
    {
        type            zeroGradient;
    }
    open
    {
        type            waveTransmissive;
        gamma           1.25;
        fieldInf        101325;
        lInf            1;
        value           nonuniform List<scalar> 0();
    }
    sides
    {
        type            empty;
    }
    procBoundary4to3
    {
        type            processor;
        value           uniform 101549.636;
    }
    procBoundary4to5
    {
        type            processor;
        value           uniform 101642.335;
    }
}


// ************************************************************************* //
