/*--------------------------------*- C++ -*----------------------------------*\
| =========                 |                                                 |
| \\      /  F ield         | OpenFOAM: The Open Source CFD Toolbox           |
|  \\    /   O peration     | Version:  2306                                  |
|   \\  /    A nd           | Website:  www.openfoam.com                      |
|    \\/     M anipulation  |                                                 |
\*---------------------------------------------------------------------------*/
FoamFile
{
    version     2.0;
    format      ascii;
    arch        "LSB;label=32;scalar=64";
    class       volScalarField;
    location    "0.00044";
    object      PV;
}
// * * * * * * * * * * * * * * * * * * * * * * * * * * * * * * * * * * * * * //

dimensions      [0 0 0 0 0 0 0];

internalField   nonuniform List<scalar> 
531
(
-0.00717089057
-0.00724017408
-0.00710523152
-0.00701629453
-0.00715048025
-0.00724663671
-0.00712137969
-0.00701808147
-0.00714311627
-0.00724470353
-0.00711815155
-0.00701784925
-0.00715480691
-0.00724320224
-0.00710279814
-0.0070204053
-0.00717474235
-0.00723804216
-0.00707581004
-0.00701425826
-0.00713677864
-0.0072370065
-0.00717843412
-0.00702086598
-0.00700959579
-0.0071373037
-0.00721806288
-0.00723168388
-0.00725487937
-0.00718952238
-0.00702294507
-0.00701107827
-0.00714155507
-0.00724578947
-0.00720938088
-0.00703153556
-0.00700799203
-0.00707998742
-0.00720580549
-0.00724880193
-0.00725745186
-0.00710487316
-0.00703605953
-0.00718947553
-0.00722950815
-0.00705043893
-0.00702698667
-0.00721560306
-0.00722335208
-0.00703499215
-0.00704823651
-0.00722849429
-0.00720051029
-0.00702591663
-0.00701423069
-0.00716047288
-0.00726130688
-0.00721312285
-0.00703097667
-0.00706568066
-0.00722988223
-0.00719599269
-0.00702700312
-0.00701589997
-0.00716376646
-0.00725579393
-0.00720759542
-0.00703074634
-0.00702357184
-0.00718850833
-0.00724006261
-0.00716084748
-0.00702612401
-0.00701704301
-0.00713793873
-0.0072346922
-0.00726207532
-0.00720575301
-0.00703249054
-0.00707918531
-0.0072282455
-0.00718223237
-0.00702989971
-0.00701699615
-0.00716761748
-0.00725474731
-0.00719004517
-0.00703196467
-0.0070873604
-0.00723333979
-0.00717207624
-0.00702811172
-0.00709360626
-0.00723254486
-0.00716574184
-0.00702707377
-0.0070993365
-0.00723410737
-0.0071612315
-0.00702611735
-0.0071049507
-0.00723346808
-0.00715399218
-0.00702513571
-0.00711290393
-0.00722677194
-0.00715183619
-0.00702518348
-0.00702297453
-0.00716516663
-0.00724925386
-0.00726193024
-0.00717067466
-0.00702946168
-0.00701915584
-0.00718440334
-0.00725963549
-0.00715223328
-0.00702615128
-0.00713026456
-0.0072364422
-0.00712719663
-0.0070208995
-0.00713789778
-0.00722759262
-0.00712255256
-0.00701925295
-0.00703218189
-0.00717234717
-0.007246168
-0.00724428014
-0.00710047401
-0.00701855087
-0.00709301758
-0.00722988472
-0.00724434778
-0.00708856376
-0.00701748115
-0.00711085396
-0.0072392185
-0.00724678617
-0.00705860889
-0.00701183863
-0.00717414787
-0.00723883393
-0.00707993538
-0.00701782411
-0.00711162603
-0.00724057989
-0.00724730001
-0.00707235747
-0.00701622985
-0.00711413977
-0.00724261529
-0.00724534152
-0.00705685718
-0.00701148268
-0.0071877569
-0.00723856803
-0.00706054401
-0.0070156094
-0.00712345383
-0.00724442706
-0.00724625656
-0.00705778733
-0.00701442263
-0.00711884639
-0.0072429727
-0.00724597864
-0.00705252389
-0.00701364203
-0.00711957256
-0.00724309255
-0.00724563567
-0.00704858653
-0.00701378974
-0.0071254045
-0.00724672351
-0.00721939749
-0.00702328806
-0.00715884076
-0.00723819392
-0.00708202781
-0.00701347983
-0.00701130775
-0.00716822292
-0.00727421502
-0.00721470651
-0.00702699591
-0.00716304534
-0.00723863257
-0.00707874966
-0.00701501982
-0.00701336404
-0.00717132804
-0.00726792515
-0.00726392153
-0.00702963889
-0.00701319044
-0.00713319749
-0.00724346413
-0.0072449277
-0.00703654055
-0.00701230413
-0.00713387727
-0.00724243268
-0.00724538049
-0.00703197414
-0.00701155963
-0.00714021999
-0.00724432825
-0.00724753374
-0.00702877473
-0.00701183042
-0.0071515087
-0.00724434724
-0.00722597483
-0.00702585165
-0.00700858417
-0.00722215313
-0.00725839889
-0.00704770332
-0.00701746768
-0.00713424407
-0.00725619722
-0.00723732178
-0.00702963574
-0.00701095518
-0.00701024727
-0.00717950989
-0.00727001408
-0.00724945763
-0.00702803421
-0.00701095132
-0.00719249742
-0.00726505064
-0.0072642989
-0.0070240546
-0.00701265478
-0.00714938825
-0.00723991944
-0.0071595308
-0.00701878777
-0.00712580169
-0.00723644266
-0.00716758401
-0.00701947636
-0.00700724143
-0.00720417483
-0.00726731233
-0.00710486041
-0.00701787366
-0.00715106373
-0.00723851009
-0.00717855746
-0.00701896647
-0.00700821685
-0.00717209796
-0.00725716006
-0.00723843375
-0.00702195925
-0.00700986262
-0.00717831106
-0.00725285041
-0.00717255128
-0.00701893246
-0.00712037823
-0.00723548397
-0.0071699792
-0.00701685457
-0.00700845406
-0.00718073808
-0.00727040013
-0.00719643147
-0.00702302147
-0.00716335977
-0.00724553963
-0.00703253826
-0.0070123531
-0.0072094778
-0.00724488973
-0.00705392996
-0.00701273027
-0.00719821868
-0.00723970479
-0.00709110239
-0.00701332002
-0.0070676232
-0.00721329421
-0.00726288166
-0.00718702674
-0.00702009347
-0.0071706445
-0.00724416324
-0.0070285982
-0.00701182969
-0.00721874268
-0.007239243
-0.00703163066
-0.00701133162
-0.00710829243
-0.007216781
-0.00725586606
-0.00718048596
-0.00701911873
-0.00717302356
-0.00724313919
-0.00702865879
-0.0070116186
-0.00721793857
-0.00723906248
-0.00703205956
-0.00701217489
-0.00711028956
-0.00722439974
-0.0072556769
-0.00715569769
-0.0070178256
-0.00718308777
-0.00723943824
-0.00702887008
-0.00701692933
-0.00710489161
-0.00725801775
-0.00725718416
-0.00704707505
-0.00701137288
-0.00721779704
-0.00723566025
-0.00703421915
-0.00701056701
-0.00710466741
-0.00721083086
-0.0072517658
-0.00723164397
-0.00701915737
-0.00701116663
-0.00717772652
-0.00726029456
-0.0071434245
-0.00701460952
-0.00718899048
-0.00723470422
-0.00702655519
-0.00701278017
-0.00709614595
-0.00722705589
-0.00726163446
-0.00713149515
-0.00701270617
-0.00719396369
-0.00723225171
-0.00702033267
-0.00701022974
-0.00718231129
-0.00724177061
-0.00717088067
-0.00701416353
-0.00700891512
-0.00716624713
-0.00725907976
-0.00723431227
-0.00701602434
-0.00701236512
-0.00717706581
-0.00727128172
-0.00726234987
-0.00701400182
-0.0070116698
-0.00716318713
-0.00724309352
-0.00718099031
-0.0070184085
-0.00700552639
-0.00706560725
-0.00720092942
-0.00723382238
-0.00725346005
-0.00725179947
-0.0070066888
-0.00699998199
-0.00721405322
-0.0072236481
-0.00699886814
-0.00698791908
-0.00721981677
-0.00721064013
-0.00698252918
-0.00696823018
-0.00697528644
-0.00716337702
-0.00722584406
-0.0071563414
-0.00693563299
-0.00698575856
-0.00715580903
-0.00695677858
-0.00688368523
-0.00709766675
-0.00713473605
-0.00699459191
-0.0068272758
-0.00680816571
-0.00679019333
-0.00676310291
-0.00674215184
-0.0067068249
-0.00668068276
-0.00663852015
-0.00660452483
-0.0065570436
-0.00651556433
-0.00645890547
-0.00640277073
-0.00633361529
-0.00624447718
-0.00617174836
-0.00608156913
-0.00602422224
-0.00591794736
-0.00584634941
-0.00572395958
-0.00564377157
-0.00549101775
-0.00537497693
-0.00518102583
-0.00504846493
-0.00487006714
-0.00473711892
-0.00469780319
-0.00450003584
-0.00439295581
-0.00430953023
-0.00410018689
-0.00384778023
-0.00345573494
-0.00315877936
-0.00304467874
-0.00281224159
-0.00259251968
-0.0023735691
-0.002207587
-0.00189527778
-0.00174723815
-0.00175804207
-0.00148683606
-0.00127706145
-0.00102517175
-0.000805538254
-0.000538877339
-0.000312813089
-4.56343294e-05
0.000172513891
0.000436505543
0.000653350192
0.000925279013
0.00115141052
0.00142853613
0.00166960738
0.00194274329
0.00217005967
0.0024305867
0.00263877933
0.00287740999
0.00306113541
0.00325707349
0.00342852963
0.00363184924
0.00379147597
0.00390678856
0.00413396999
0.00445610397
0.00448431478
0.00416699753
0.0046209863
0.00546999977
0.00498913101
0.00424953175
0.00515136123
0.00624526779
0.00545094353
0.00498278339
0.00570061446
0.00651258332
0.00577121912
0.00548943612
0.00609280388
0.00655074721
0.00598866072
0.00585763756
0.00632433847
0.00662845604
0.00614455863
0.00612936698
0.00648885957
0.00667665282
0.00630790636
0.00628493278
0.00658786581
0.00667531964
0.00640614111
0.00639966968
0.00659458333
0.00666047934
0.00647101963
0.00644843561
0.00654080967
0.00665007437
0.00656803679
0.00647816516
0.00649108066
0.0066384492
0.00662480415
0.00649780125
0.00651270334
0.0066291403
0.00663240642
0.00650692358
0.00652155953
0.00662415159
0.00662743255
0.00651121799
0.00652632887
0.00661952251
0.00662214387
0.00651543953
0.00652913492
0.0066141499
0.00661803328
0.00651897477
0.00652994546
)
;

boundaryField
{
    closed
    {
        type            zeroGradient;
    }
    open
    {
        type            zeroGradient;
    }
    sides
    {
        type            empty;
    }
    procBoundary4to3
    {
        type            processor;
        value           uniform -0.00701341995;
    }
    procBoundary4to5
    {
        type            processor;
        value           uniform 0.00658496744;
    }
}


// ************************************************************************* //
