/*--------------------------------*- C++ -*----------------------------------*\
| =========                 |                                                 |
| \\      /  F ield         | OpenFOAM: The Open Source CFD Toolbox           |
|  \\    /   O peration     | Version:  2306                                  |
|   \\  /    A nd           | Website:  www.openfoam.com                      |
|    \\/     M anipulation  |                                                 |
\*---------------------------------------------------------------------------*/
FoamFile
{
    version     2.0;
    format      ascii;
    arch        "LSB;label=32;scalar=64";
    class       volScalarField;
    location    "0.00166";
    object      mu;
}
// * * * * * * * * * * * * * * * * * * * * * * * * * * * * * * * * * * * * * //

dimensions      [1 -1 -1 0 0 0 0];

internalField   nonuniform List<scalar> 
530
(
5.94684368e-05
5.95026552e-05
5.95351806e-05
5.95682079e-05
5.95995642e-05
5.96300025e-05
5.96582678e-05
5.96873924e-05
5.97147115e-05
5.97428857e-05
5.97693132e-05
5.97965948e-05
5.98221837e-05
5.98486271e-05
5.98734284e-05
5.98990854e-05
5.99231482e-05
5.99480684e-05
5.997144e-05
5.99956711e-05
6.0018398e-05
6.00419848e-05
6.00629815e-05
6.00847765e-05
6.01050867e-05
6.01263033e-05
6.01460583e-05
6.01667222e-05
6.01859457e-05
6.02060826e-05
6.02247969e-05
6.02444314e-05
6.02626581e-05
6.02818141e-05
6.02995741e-05
6.03182748e-05
6.03355887e-05
6.03538563e-05
6.03707444e-05
6.03886007e-05
6.04050832e-05
6.04225493e-05
6.04386464e-05
6.04557427e-05
6.0471475e-05
6.0488221e-05
6.05031128e-05
6.05187376e-05
6.05334418e-05
6.05493012e-05
6.05636265e-05
6.05791192e-05
6.05930756e-05
6.0608212e-05
6.06218087e-05
6.06365989e-05
6.06498448e-05
6.06642986e-05
6.06772024e-05
6.06913289e-05
6.07038991e-05
6.0717707e-05
6.07299521e-05
6.07434498e-05
6.0755378e-05
6.07685736e-05
6.0780193e-05
6.07930941e-05
6.08044128e-05
6.08170269e-05
6.08280526e-05
6.0840387e-05
6.08511275e-05
6.08631895e-05
6.08736522e-05
6.08854489e-05
6.08956414e-05
6.09071798e-05
6.09171094e-05
6.09283967e-05
6.09380708e-05
6.09491141e-05
6.09585398e-05
6.09693464e-05
6.09785311e-05
6.09891081e-05
6.09980592e-05
6.1008414e-05
6.10171393e-05
6.10272787e-05
6.10355253e-05
6.10450464e-05
6.10529624e-05
6.10622576e-05
6.10699327e-05
6.10790024e-05
6.10864386e-05
6.10952834e-05
6.11024825e-05
6.1111103e-05
6.11180665e-05
6.11264635e-05
6.11331929e-05
6.11413668e-05
6.11478635e-05
6.11558149e-05
6.11620803e-05
6.11698097e-05
6.1175845e-05
6.11833527e-05
6.11891591e-05
6.11964458e-05
6.12020241e-05
6.12090904e-05
6.12144415e-05
6.1221288e-05
6.12264123e-05
6.123304e-05
6.12379377e-05
6.12443481e-05
6.12490188e-05
6.12552135e-05
6.12596566e-05
6.12656377e-05
6.12698526e-05
6.12756221e-05
6.12796084e-05
6.12851677e-05
6.12889268e-05
6.12942752e-05
6.12978113e-05
6.13029447e-05
6.13062656e-05
6.13111759e-05
6.13142927e-05
6.13189678e-05
6.13218931e-05
6.13261483e-05
6.13289716e-05
6.13329766e-05
6.13357823e-05
6.13393772e-05
6.13421561e-05
6.13453515e-05
6.13480901e-05
6.13509015e-05
6.13535842e-05
6.13560293e-05
6.13586396e-05
6.13607366e-05
6.13632589e-05
6.13650246e-05
6.13674444e-05
6.13688937e-05
6.13711233e-05
6.13722892e-05
6.13744401e-05
6.1375325e-05
6.13773313e-05
6.13779452e-05
6.13797983e-05
6.13801505e-05
6.13818432e-05
6.13819421e-05
6.13834684e-05
6.13833211e-05
6.13846763e-05
6.13842893e-05
6.13854698e-05
6.13848486e-05
6.13858515e-05
6.13850013e-05
6.13858242e-05
6.13847498e-05
6.13853909e-05
6.13840971e-05
6.13845548e-05
6.1383046e-05
6.13833191e-05
6.13815996e-05
6.13816873e-05
6.13797616e-05
6.13796632e-05
6.13775355e-05
6.13772508e-05
6.13749255e-05
6.13744545e-05
6.13719357e-05
6.1371279e-05
6.13685708e-05
6.13677292e-05
6.13648359e-05
6.13638103e-05
6.13607079e-05
6.13594442e-05
6.13561276e-05
6.13546728e-05
6.13511708e-05
6.13495245e-05
6.13458389e-05
6.13440008e-05
6.13401333e-05
6.13381035e-05
6.13340555e-05
6.13318344e-05
6.13276071e-05
6.13251955e-05
6.13207899e-05
6.13181888e-05
6.13136057e-05
6.13108163e-05
6.13060564e-05
6.13030798e-05
6.12981439e-05
6.12949809e-05
6.12898709e-05
6.12865211e-05
6.12812414e-05
6.12777018e-05
6.12722618e-05
6.1268525e-05
6.1262945e-05
6.12589937e-05
6.12533185e-05
6.12492727e-05
6.12433547e-05
6.12390184e-05
6.12330302e-05
6.12284264e-05
6.12223547e-05
6.12175029e-05
6.12113355e-05
6.12062523e-05
6.11999798e-05
6.11946769e-05
6.1188293e-05
6.11827789e-05
6.117628e-05
6.11705606e-05
6.11639445e-05
6.11580256e-05
6.11512906e-05
6.11451774e-05
6.11383222e-05
6.11320202e-05
6.11250437e-05
6.11185582e-05
6.11114594e-05
6.11047957e-05
6.1097574e-05
6.10907372e-05
6.10833924e-05
6.10763873e-05
6.10689192e-05
6.10617506e-05
6.10541596e-05
6.10468319e-05
6.10391185e-05
6.10316361e-05
6.10238011e-05
6.10161681e-05
6.10082126e-05
6.10004333e-05
6.09923584e-05
6.09844366e-05
6.09762439e-05
6.09681835e-05
6.09598745e-05
6.09516794e-05
6.09432558e-05
6.09349298e-05
6.09263935e-05
6.09179403e-05
6.09092518e-05
6.09006024e-05
6.08917722e-05
6.08830024e-05
6.08740661e-05
6.08651798e-05
6.08561398e-05
6.08471406e-05
6.08379994e-05
6.08288909e-05
6.08196512e-05
6.08104371e-05
6.08011016e-05
6.07917855e-05
6.07823568e-05
6.07729423e-05
6.07634235e-05
6.07539141e-05
6.0744308e-05
6.07347073e-05
6.07250169e-05
6.07153285e-05
6.07055569e-05
6.06957843e-05
6.06859345e-05
6.06760813e-05
6.06661564e-05
6.06562262e-05
6.06462295e-05
6.06362257e-05
6.06261603e-05
6.06160866e-05
6.06059558e-05
6.05958157e-05
6.05856226e-05
6.05754198e-05
6.05651677e-05
6.05549056e-05
6.0544598e-05
6.05342802e-05
6.05239201e-05
6.05135503e-05
6.05031436e-05
6.04927268e-05
6.04822714e-05
6.04718038e-05
6.0461301e-05
6.04507865e-05
6.04402398e-05
6.04296821e-05
6.0419095e-05
6.04084978e-05
6.0397874e-05
6.03872409e-05
6.03765838e-05
6.03659186e-05
6.03552318e-05
6.03445381e-05
6.03338252e-05
6.03231066e-05
6.0312371e-05
6.0301631e-05
6.02908764e-05
6.02801187e-05
6.02693484e-05
6.02585765e-05
6.02477942e-05
6.02370115e-05
6.02262206e-05
6.02154307e-05
6.02046345e-05
6.01938408e-05
6.01830429e-05
6.01722489e-05
6.01614526e-05
6.01506615e-05
6.01398702e-05
6.01290855e-05
6.01183024e-05
6.01075274e-05
6.00967559e-05
6.00859938e-05
6.00752371e-05
6.00644911e-05
6.00537524e-05
6.00430257e-05
6.00323082e-05
6.00216039e-05
6.00109107e-05
6.0000232e-05
5.99895661e-05
5.99789162e-05
5.9968193e-05
5.99574854e-05
5.99467954e-05
5.99361258e-05
5.99254752e-05
5.99148465e-05
5.9904238e-05
5.9893653e-05
5.98830894e-05
5.98725506e-05
5.98620346e-05
5.98515448e-05
5.9841079e-05
5.98306406e-05
5.98202277e-05
5.98098434e-05
5.97994857e-05
5.97891579e-05
5.9778858e-05
5.97685892e-05
5.97583495e-05
5.9748142e-05
5.97379649e-05
5.9727821e-05
5.97177087e-05
5.97076307e-05
5.96975855e-05
5.96875756e-05
5.96775995e-05
5.96676599e-05
5.96577552e-05
5.96478879e-05
5.96380566e-05
5.96282636e-05
5.96185076e-05
5.96087909e-05
5.95991123e-05
5.95894738e-05
5.95798742e-05
5.95703157e-05
5.95607972e-05
5.95513204e-05
5.95418845e-05
5.95324912e-05
5.95231397e-05
5.95138315e-05
5.9504566e-05
5.94953444e-05
5.94861663e-05
5.9477033e-05
5.94679438e-05
5.94589001e-05
5.94499013e-05
5.94409486e-05
5.94320415e-05
5.94231811e-05
5.94143668e-05
5.94056001e-05
5.93968799e-05
5.9388208e-05
5.93795877e-05
5.93710195e-05
5.93624977e-05
5.93540242e-05
5.93455981e-05
5.93372205e-05
5.93288911e-05
5.93206106e-05
5.93123789e-05
5.93041965e-05
5.92960634e-05
5.92879802e-05
5.92799467e-05
5.92719634e-05
5.92640303e-05
5.92561479e-05
5.9248316e-05
5.92405351e-05
5.9232805e-05
5.92251263e-05
5.92174987e-05
5.92099228e-05
5.92023984e-05
5.91949258e-05
5.91875049e-05
5.91801361e-05
5.91728192e-05
5.9165547e-05
5.9158062e-05
5.91501063e-05
5.91416556e-05
5.91326855e-05
5.9123171e-05
5.91130877e-05
5.91024109e-05
5.90911172e-05
5.90791835e-05
5.90665888e-05
5.90533135e-05
5.90393407e-05
5.90246572e-05
5.90092527e-05
5.89931233e-05
5.89762689e-05
5.89586991e-05
5.89402121e-05
5.89210281e-05
5.89011991e-05
5.88807751e-05
5.88598174e-05
5.88384038e-05
5.88166264e-05
5.87945952e-05
5.87724359e-05
5.87502923e-05
5.8728323e-05
5.8706702e-05
5.86856138e-05
5.86652509e-05
5.86458078e-05
5.8627474e-05
5.86104277e-05
5.85948241e-05
5.85807906e-05
5.85684128e-05
5.85577331e-05
5.85487395e-05
5.85413701e-05
5.85355109e-05
5.85310057e-05
5.85276686e-05
5.85252943e-05
5.85236813e-05
5.85226388e-05
5.85220038e-05
5.85216434e-05
5.85214603e-05
5.85212809e-05
5.85211895e-05
5.85211479e-05
5.85211295e-05
5.85211243e-05
5.85211214e-05
5.85211206e-05
5.85211203e-05
5.85211203e-05
5.85211203e-05
5.85211203e-05
5.85211203e-05
5.85211203e-05
5.85211203e-05
5.85211203e-05
5.85211203e-05
5.85211203e-05
5.85211203e-05
5.85211203e-05
5.85211203e-05
5.85211203e-05
5.85211203e-05
5.85211203e-05
5.85211203e-05
5.85211203e-05
5.85211203e-05
5.85211203e-05
5.85211203e-05
)
;

boundaryField
{
    closed
    {
        type            calculated;
        value           nonuniform List<scalar> 0();
    }
    open
    {
        type            calculated;
        value           uniform 5.85211203e-05;
    }
    sides
    {
        type            empty;
    }
    procBoundary5to4
    {
        type            processor;
        value           uniform 5.94346346e-05;
    }
}


// ************************************************************************* //
