/*--------------------------------*- C++ -*----------------------------------*\
| =========                 |                                                 |
| \\      /  F ield         | OpenFOAM: The Open Source CFD Toolbox           |
|  \\    /   O peration     | Version:  2306                                  |
|   \\  /    A nd           | Website:  www.openfoam.com                      |
|    \\/     M anipulation  |                                                 |
\*---------------------------------------------------------------------------*/
FoamFile
{
    version     2.0;
    format      ascii;
    arch        "LSB;label=32;scalar=64";
    class       volScalarField;
    location    "0.00166";
    object      prefDZ_T;
}
// * * * * * * * * * * * * * * * * * * * * * * * * * * * * * * * * * * * * * //

dimensions      [1 -1 -1 -1 0 0 0];

internalField   nonuniform List<scalar> 
530
(
-1.04258779e-10
-1.04094273e-10
-1.03897375e-10
-1.03740784e-10
-1.03554324e-10
-1.03414335e-10
-1.03249347e-10
-1.03116651e-10
-1.02959431e-10
-1.02831879e-10
-1.02681992e-10
-1.02559325e-10
-1.02416361e-10
-1.02298334e-10
-1.02161905e-10
-1.02048284e-10
-1.01918022e-10
-1.01808582e-10
-1.01684137e-10
-1.01578664e-10
-1.01459706e-10
-1.01357992e-10
-1.0125028e-10
-1.01158161e-10
-1.01055534e-10
-1.00966522e-10
-1.00868196e-10
-1.00782167e-10
-1.00687927e-10
-1.00604761e-10
-1.00514404e-10
-1.00433986e-10
-1.00347315e-10
-1.00269535e-10
-1.00186362e-10
-1.00111112e-10
-1.00031257e-10
-9.99584349e-11
-9.98817249e-11
-9.9811228e-11
-9.97374986e-11
-9.96692269e-11
-9.95983205e-11
-9.95321746e-11
-9.94639412e-11
-9.93998218e-11
-9.93376268e-11
-9.92807774e-11
-9.92202598e-11
-9.91619407e-11
-9.91037765e-11
-9.9047239e-11
-9.89913209e-11
-9.89364966e-11
-9.88827202e-11
-9.88295438e-11
-9.87778084e-11
-9.87262166e-11
-9.8676425e-11
-9.86263563e-11
-9.85784157e-11
-9.85298099e-11
-9.84836316e-11
-9.84364297e-11
-9.83919288e-11
-9.8346073e-11
-9.83031685e-11
-9.82586019e-11
-9.82172167e-11
-9.81738832e-11
-9.81339435e-11
-9.8091788e-11
-9.80532233e-11
-9.80121917e-11
-9.79749344e-11
-9.79349736e-11
-9.7898959e-11
-9.78600166e-11
-9.78251824e-11
-9.77872073e-11
-9.77534936e-11
-9.77164352e-11
-9.76837845e-11
-9.76475932e-11
-9.76159499e-11
-9.75805769e-11
-9.75498876e-11
-9.75152844e-11
-9.74854978e-11
-9.74516165e-11
-9.74258621e-11
-9.73973525e-11
-9.73732536e-11
-9.73452226e-11
-9.73216968e-11
-9.72941207e-11
-9.72711422e-11
-9.72439984e-11
-9.72215421e-11
-9.71948085e-11
-9.717285e-11
-9.71465052e-11
-9.71250209e-11
-9.7099044e-11
-9.70780112e-11
-9.70523816e-11
-9.70317787e-11
-9.70064758e-11
-9.69862825e-11
-9.6961286e-11
-9.69414828e-11
-9.69167723e-11
-9.68973411e-11
-9.68728965e-11
-9.68538198e-11
-9.6829621e-11
-9.68108826e-11
-9.67869098e-11
-9.67684937e-11
-9.67447278e-11
-9.67266184e-11
-9.67030412e-11
-9.66852224e-11
-9.66618173e-11
-9.66442722e-11
-9.66210248e-11
-9.66037348e-11
-9.65806338e-11
-9.65635782e-11
-9.65406157e-11
-9.65237711e-11
-9.65009434e-11
-9.64842837e-11
-9.64615913e-11
-9.64450878e-11
-9.64225357e-11
-9.64061571e-11
-9.6384201e-11
-9.6367637e-11
-9.63459692e-11
-9.63288761e-11
-9.63079433e-11
-9.62903173e-11
-9.62700982e-11
-9.6251942e-11
-9.62324103e-11
-9.62137306e-11
-9.61948569e-11
-9.61756636e-11
-9.61574164e-11
-9.6137722e-11
-9.6120068e-11
-9.60998887e-11
-9.60827915e-11
-9.60626824e-11
-9.60456812e-11
-9.6025457e-11
-9.60080713e-11
-9.59882571e-11
-9.59704932e-11
-9.59510623e-11
-9.59329344e-11
-9.59138546e-11
-9.58953811e-11
-9.5876618e-11
-9.5857818e-11
-9.58393375e-11
-9.58202295e-11
-9.58019989e-11
-9.57826e-11
-9.5764589e-11
-9.5744914e-11
-9.57270946e-11
-9.57071565e-11
-9.56895032e-11
-9.56693132e-11
-9.56518026e-11
-9.56313705e-11
-9.56139811e-11
-9.55933153e-11
-9.55760274e-11
-9.55551351e-11
-9.55379306e-11
-9.5516818e-11
-9.54996802e-11
-9.54783528e-11
-9.54612661e-11
-9.54397288e-11
-9.54226784e-11
-9.54009355e-11
-9.53839079e-11
-9.53619634e-11
-9.53449453e-11
-9.53244832e-11
-9.53104512e-11
-9.52912706e-11
-9.52770977e-11
-9.52576309e-11
-9.52433115e-11
-9.52235658e-11
-9.52090954e-11
-9.51890774e-11
-9.51744524e-11
-9.51541681e-11
-9.51393854e-11
-9.51188405e-11
-9.51038979e-11
-9.50830973e-11
-9.5067993e-11
-9.50469415e-11
-9.50316738e-11
-9.50103761e-11
-9.49949436e-11
-9.49734054e-11
-9.49578052e-11
-9.49360351e-11
-9.49202614e-11
-9.48982742e-11
-9.48823153e-11
-9.48601371e-11
-9.48439703e-11
-9.48216522e-11
-9.48052286e-11
-9.47828659e-11
-9.47665035e-11
-9.47437503e-11
-9.47269109e-11
-9.4704228e-11
-9.46869548e-11
-9.46643182e-11
-9.46466453e-11
-9.46240323e-11
-9.46059926e-11
-9.45833817e-11
-9.45650032e-11
-9.45423772e-11
-9.45236814e-11
-9.45010285e-11
-9.44820315e-11
-9.44593437e-11
-9.44400584e-11
-9.44173305e-11
-9.43977679e-11
-9.43749958e-11
-9.43551667e-11
-9.43323471e-11
-9.43122619e-11
-9.42893918e-11
-9.4269061e-11
-9.42461378e-11
-9.42255718e-11
-9.42025931e-11
-9.41818021e-11
-9.41587659e-11
-9.413776e-11
-9.41146648e-11
-9.40934538e-11
-9.40702985e-11
-9.40488918e-11
-9.40256757e-11
-9.40040825e-11
-9.39808054e-11
-9.39590346e-11
-9.39356967e-11
-9.39137568e-11
-9.38903589e-11
-9.38682581e-11
-9.38448012e-11
-9.38225474e-11
-9.37990332e-11
-9.37766341e-11
-9.37530643e-11
-9.37305275e-11
-9.37064127e-11
-9.36828832e-11
-9.36583105e-11
-9.36346501e-11
-9.36100176e-11
-9.35862335e-11
-9.35615443e-11
-9.35376434e-11
-9.35129005e-11
-9.34888899e-11
-9.34640966e-11
-9.34399833e-11
-9.34151428e-11
-9.33909339e-11
-9.33660496e-11
-9.3341752e-11
-9.33168274e-11
-9.32924482e-11
-9.3267487e-11
-9.32430328e-11
-9.32180388e-11
-9.31935166e-11
-9.31684935e-11
-9.314391e-11
-9.31188619e-11
-9.30942238e-11
-9.30691548e-11
-9.30444687e-11
-9.30193829e-11
-9.29946553e-11
-9.29695571e-11
-9.29447943e-11
-9.29196883e-11
-9.28948966e-11
-9.28697873e-11
-9.28449726e-11
-9.28198651e-11
-9.27950331e-11
-9.27699327e-11
-9.27450889e-11
-9.27200008e-11
-9.26951506e-11
-9.26699365e-11
-9.26448624e-11
-9.26195957e-11
-9.25945533e-11
-9.25693325e-11
-9.2544326e-11
-9.25191561e-11
-9.24941902e-11
-9.24690758e-11
-9.24441552e-11
-9.24191009e-11
-9.23942306e-11
-9.23692406e-11
-9.23444257e-11
-9.23195043e-11
-9.22947497e-11
-9.22699011e-11
-9.22452119e-11
-9.22204403e-11
-9.21958214e-11
-9.2171131e-11
-9.21465872e-11
-9.21219822e-11
-9.20975184e-11
-9.2073003e-11
-9.20486239e-11
-9.20242022e-11
-9.19999125e-11
-9.19755887e-11
-9.19513931e-11
-9.19271712e-11
-9.19030742e-11
-9.18789583e-11
-9.18549645e-11
-9.18309587e-11
-9.18070726e-11
-9.17831808e-11
-9.17594068e-11
-9.17356329e-11
-9.17119756e-11
-9.16883232e-11
-9.16647871e-11
-9.164126e-11
-9.16178495e-11
-9.15944512e-11
-9.15711708e-11
-9.15479051e-11
-9.15247587e-11
-9.15016294e-11
-9.14786193e-11
-9.14546408e-11
-9.14307374e-11
-9.14068571e-11
-9.13830906e-11
-9.13593546e-11
-9.13357294e-11
-9.13121417e-11
-9.12886625e-11
-9.12652267e-11
-9.1241898e-11
-9.12186179e-11
-9.1195444e-11
-9.11723232e-11
-9.11493081e-11
-9.11263503e-11
-9.11034982e-11
-9.10807068e-11
-9.10580214e-11
-9.10354002e-11
-9.10128852e-11
-9.09904375e-11
-9.09680966e-11
-9.09458258e-11
-9.09236623e-11
-9.09015718e-11
-9.0879589e-11
-9.08576819e-11
-9.08358832e-11
-9.08141626e-11
-9.07925509e-11
-9.07710198e-11
-9.07495981e-11
-9.07282594e-11
-9.07070307e-11
-9.06858871e-11
-9.06648541e-11
-9.06439083e-11
-9.06230736e-11
-9.06023281e-11
-9.05816944e-11
-9.05611516e-11
-9.05407212e-11
-9.05203833e-11
-9.05001587e-11
-9.04800279e-11
-9.04600113e-11
-9.04400896e-11
-9.04202831e-11
-9.04005725e-11
-9.0380978e-11
-9.03614805e-11
-9.03420997e-11
-9.03228171e-11
-9.03036515e-11
-9.02845858e-11
-9.02656367e-11
-9.02467898e-11
-9.0228058e-11
-9.02094321e-11
-9.01909184e-11
-9.01724157e-11
-9.01539443e-11
-9.01355862e-11
-9.01173472e-11
-9.00992191e-11
-9.00812122e-11
-9.00633152e-11
-9.00455402e-11
-9.00278752e-11
-9.00103321e-11
-8.99928996e-11
-8.99755886e-11
-8.99583888e-11
-8.994131e-11
-8.99243431e-11
-8.99074966e-11
-8.98907626e-11
-8.98741485e-11
-8.98576473e-11
-8.98412655e-11
-8.98249969e-11
-8.98088474e-11
-8.97928111e-11
-8.97768936e-11
-8.97610894e-11
-8.97454035e-11
-8.9729831e-11
-8.97143601e-11
-8.96984391e-11
-8.96815242e-11
-8.96635596e-11
-8.96444988e-11
-8.96242846e-11
-8.96028703e-11
-8.95801992e-11
-8.95562267e-11
-8.95308988e-11
-8.95041761e-11
-8.94760104e-11
-8.94463722e-11
-8.94152229e-11
-8.93825493e-11
-8.93483272e-11
-8.93125677e-11
-8.92752685e-11
-8.92351628e-11
-8.91934344e-11
-8.91502654e-11
-8.9105738e-11
-8.90599806e-11
-8.90131371e-11
-8.89653942e-11
-8.89169642e-11
-8.88681018e-11
-8.88190908e-11
-8.87702555e-11
-8.87219462e-11
-8.86745461e-11
-8.86284532e-11
-8.85840818e-11
-8.85418393e-11
-8.85021229e-11
-8.84652916e-11
-8.84316591e-11
-8.84014651e-11
-8.83748678e-11
-8.8351925e-11
-8.83325864e-11
-8.83167022e-11
-8.83040079e-11
-8.82941829e-11
-8.8286806e-11
-8.82814917e-11
-8.82777605e-11
-8.82752902e-11
-8.82736731e-11
-8.827262e-11
-8.82722661e-11
-8.82720857e-11
-8.82719998e-11
-8.82719596e-11
-8.82719473e-11
-8.82719403e-11
-8.82719381e-11
-8.82719374e-11
-8.82719372e-11
-8.82719371e-11
-8.82719371e-11
-8.82719371e-11
-8.82719371e-11
-8.82719371e-11
-8.82719371e-11
-8.82719371e-11
-8.82719371e-11
-8.82719371e-11
-8.82719371e-11
-8.82719371e-11
-8.82719371e-11
-8.82719371e-11
-8.82719371e-11
-8.82719371e-11
-8.82719371e-11
-8.82719371e-11
-8.82719371e-11
-8.82719371e-11
)
;

boundaryField
{
    closed
    {
        type            calculated;
        value           nonuniform List<scalar> 0();
    }
    open
    {
        type            calculated;
        value           uniform -8.82719371e-11;
    }
    sides
    {
        type            empty;
    }
    procBoundary5to4
    {
        type            processor;
        value           uniform -1.04466899e-10;
    }
}


// ************************************************************************* //
