/*--------------------------------*- C++ -*----------------------------------*\
| =========                 |                                                 |
| \\      /  F ield         | OpenFOAM: The Open Source CFD Toolbox           |
|  \\    /   O peration     | Version:  2306                                  |
|   \\  /    A nd           | Website:  www.openfoam.com                      |
|    \\/     M anipulation  |                                                 |
\*---------------------------------------------------------------------------*/
FoamFile
{
    version     2.0;
    format      ascii;
    arch        "LSB;label=32;scalar=64";
    class       volScalarField;
    location    "0.00166";
    object      rho;
}
// * * * * * * * * * * * * * * * * * * * * * * * * * * * * * * * * * * * * * //

dimensions      [1 -3 0 0 0 0 0];

internalField   nonuniform List<scalar> 
530
(
0.189713256
0.189547801
0.189391553
0.189231792
0.189081092
0.188934041
0.188798502
0.188657836
0.188526826
0.188390806
0.188264128
0.188132541
0.188010003
0.187882644
0.187764051
0.18764071
0.187525859
0.187406314
0.187294985
0.187179001
0.187070951
0.18695828
0.186858655
0.186754708
0.186658425
0.186557316
0.186463678
0.186365212
0.186274037
0.186178021
0.186089136
0.185995392
0.185908644
0.185817015
0.185732272
0.185642624
0.185559781
0.185472009
0.185390983
0.185305007
0.185225737
0.185141501
0.185063945
0.184981407
0.184905531
0.184824666
0.184752854
0.184677492
0.184607084
0.184531264
0.184462809
0.184388937
0.184322431
0.18425049
0.184185917
0.184115876
0.184053203
0.183985016
0.183924196
0.183857804
0.183798775
0.183734108
0.183676798
0.183613779
0.183558109
0.183496656
0.183442544
0.183382577
0.183329941
0.183271382
0.183220147
0.183162922
0.183113017
0.183057062
0.183008425
0.182953684
0.182906263
0.182852688
0.182806439
0.182753991
0.182708879
0.182657526
0.18261352
0.182563236
0.182520314
0.182471076
0.182429217
0.182381008
0.182340191
0.182292994
0.182254613
0.182210618
0.182173858
0.182130947
0.18209534
0.182053526
0.182019075
0.181978366
0.181945074
0.181905477
0.181873344
0.181834862
0.181803888
0.181766523
0.181736706
0.181700458
0.181671791
0.181636659
0.181609138
0.181575119
0.181548738
0.181515827
0.181490579
0.181458772
0.181434651
0.181403941
0.181380941
0.181351322
0.18132944
0.181300901
0.181280136
0.181252667
0.181233018
0.181206606
0.181188075
0.181162709
0.181145294
0.181120966
0.181104659
0.18108137
0.181066152
0.181043918
0.181029752
0.181008609
0.180995444
0.180975446
0.180963226
0.180945193
0.180933519
0.18091669
0.1809052
0.180890279
0.180879013
0.180865953
0.180854971
0.180843703
0.180833077
0.18082352
0.180813323
0.180805397
0.1807957
0.180789328
0.180780195
0.180775312
0.180767087
0.180763585
0.180755775
0.180753701
0.18074655
0.180745852
0.180739405
0.180740035
0.180734331
0.180736245
0.180731316
0.180734476
0.180730348
0.18073472
0.180731416
0.180736968
0.180734505
0.180741211
0.180739603
0.180747436
0.180746695
0.180755631
0.180755767
0.180765781
0.180766803
0.180777872
0.180779785
0.180791888
0.180794697
0.180807811
0.180811518
0.180825621
0.180830229
0.180845299
0.180850807
0.180866823
0.180873228
0.18089017
0.180897468
0.180915558
0.180924209
0.180943465
0.180953044
0.180973224
0.180983735
0.181004829
0.181016272
0.181038271
0.181050647
0.181073544
0.181086851
0.181110638
0.181124873
0.181149546
0.181164704
0.181190257
0.181206335
0.181232764
0.181249755
0.181277056
0.181294957
0.18132312
0.181341935
0.181370935
0.18139068
0.18142047
0.181441184
0.181471661
0.181493433
0.181524361
0.181546578
0.181578728
0.181602391
0.181634863
0.181659865
0.181692728
0.181718971
0.181752285
0.181779686
0.1818135
0.181841999
0.181876346
0.181905901
0.181940799
0.181971379
0.182006842
0.182038418
0.182074454
0.182107
0.182143617
0.182177107
0.182214311
0.182248718
0.182286514
0.182321813
0.182360205
0.18239637
0.182435361
0.182472368
0.182511959
0.182549784
0.182589974
0.182628595
0.182669383
0.182708779
0.182750162
0.182790312
0.182832284
0.182873169
0.182915726
0.182957325
0.183000461
0.183042754
0.183086463
0.183129431
0.183173704
0.18321733
0.183262157
0.183306422
0.183352627
0.183398972
0.18344639
0.18349335
0.183541301
0.183588856
0.183637327
0.18368546
0.183734439
0.183783129
0.183832603
0.183881832
0.183931786
0.183981535
0.184031956
0.184082206
0.184133078
0.184183809
0.184235117
0.18428631
0.184338038
0.184389674
0.184441806
0.184493864
0.184546382
0.184598844
0.184651731
0.184704576
0.184757814
0.184811022
0.184864593
0.184918144
0.18497203
0.185025904
0.185080087
0.185134264
0.185188725
0.185243185
0.185297906
0.185352628
0.185407592
0.185462558
0.185517903
0.185573363
0.18562904
0.185684733
0.185740624
0.185796532
0.185852619
0.185908722
0.185964988
0.186021268
0.186077695
0.186134134
0.186190706
0.186247286
0.186303987
0.186360692
0.186417505
0.186474319
0.186531228
0.186588135
0.186645126
0.186702111
0.186759168
0.186816215
0.186873324
0.186930419
0.186987565
0.187044693
0.187101862
0.187159007
0.187216185
0.187273333
0.187330505
0.187387642
0.187444792
0.187501903
0.187559018
0.187616087
0.18767315
0.187730163
0.18778716
0.1878441
0.187901016
0.187957868
0.188014686
0.188071434
0.188128138
0.188184767
0.188241341
0.188297832
0.188355944
0.188414022
0.18847202
0.188529908
0.188587706
0.188645388
0.188702972
0.188760432
0.188817785
0.188875006
0.188932113
0.188989081
0.189045926
0.189102624
0.189159192
0.189215606
0.189271882
0.189327997
0.189383966
0.189439768
0.189495417
0.189550892
0.189606206
0.18966134
0.189716307
0.189771088
0.189825695
0.18988011
0.189934344
0.189988381
0.190042231
0.190095878
0.190149332
0.190202578
0.190255625
0.190308458
0.190361088
0.190413499
0.190465701
0.190517679
0.190569443
0.190620979
0.190672296
0.190723381
0.19077424
0.190824865
0.190875259
0.190925414
0.190975335
0.191025013
0.191074452
0.191123644
0.191172593
0.191221292
0.191269745
0.191317943
0.191365891
0.191413582
0.19146102
0.191508196
0.191555245
0.191602137
0.191648774
0.191695147
0.191741261
0.191787108
0.191832692
0.191878007
0.191923055
0.191967831
0.192012338
0.19205657
0.192100529
0.192144211
0.192187618
0.192230745
0.192273594
0.192316162
0.192358449
0.192400452
0.192442173
0.192483608
0.192524759
0.192565621
0.192606198
0.192646485
0.192686484
0.192726233
0.192767141
0.192810613
0.192856784
0.192905781
0.192957741
0.193012792
0.193071064
0.193132682
0.193197763
0.193266416
0.193338738
0.19341481
0.193494691
0.193578421
0.193666004
0.193757418
0.19385259
0.193954665
0.19406059
0.194169888
0.194282253
0.194397317
0.194514626
0.194633653
0.194753783
0.194874325
0.194994505
0.195113485
0.195230358
0.195344159
0.195453871
0.195558438
0.19565683
0.19574817
0.195831986
0.19590841
0.195978116
0.196041623
0.196098381
0.19614646
0.196183855
0.196210295
0.196227499
0.196236872
0.196240197
0.196241464
0.196238148
0.196229302
0.196225132
0.196224583
0.19621707
0.196219103
0.196225859
0.196214917
0.196194941
0.196183996
0.196173289
0.196175131
0.196199174
0.196226168
0.196265149
0.196326636
0.196383269
0.196378558
0.196326968
0.196281072
0.196264686
0.196243541
0.196205854
0.196203459
0.196243554
0.19627512
0.196258773
0.19621837
0.196192
0.19621507
0.196270178
)
;

boundaryField
{
    closed
    {
        type            calculated;
        value           nonuniform List<scalar> 0();
    }
    open
    {
        type            calculated;
        value           uniform 0.196277558;
    }
    sides
    {
        type            empty;
    }
    procBoundary5to4
    {
        type            processor;
        value           uniform 0.189875546;
    }
}


// ************************************************************************* //
