/*--------------------------------*- C++ -*----------------------------------*\
| =========                 |                                                 |
| \\      /  F ield         | OpenFOAM: The Open Source CFD Toolbox           |
|  \\    /   O peration     | Version:  2306                                  |
|   \\  /    A nd           | Website:  www.openfoam.com                      |
|    \\/     M anipulation  |                                                 |
\*---------------------------------------------------------------------------*/
FoamFile
{
    version     2.0;
    format      ascii;
    arch        "LSB;label=32;scalar=64";
    class       volScalarField;
    location    "0.00108";
    object      prefDPV_T;
}
// * * * * * * * * * * * * * * * * * * * * * * * * * * * * * * * * * * * * * //

dimensions      [1 -1 -1 -1 0 0 0];

internalField   nonuniform List<scalar> 
531
(
6.10476944e-10
6.06449902e-10
5.90310372e-10
5.90321813e-10
5.98701564e-10
6.10673668e-10
6.07044159e-10
5.90227483e-10
5.90265082e-10
5.98429929e-10
6.12014129e-10
5.99894221e-10
5.91835782e-10
6.00067668e-10
6.1122351e-10
5.9897551e-10
5.91446066e-10
5.99141144e-10
6.10461094e-10
6.05803625e-10
5.90021489e-10
5.90009216e-10
5.96722281e-10
6.10903347e-10
6.08575025e-10
5.90424252e-10
5.89875342e-10
5.93501615e-10
6.0911771e-10
6.08838661e-10
6.09697018e-10
6.09274176e-10
6.10516981e-10
5.92596016e-10
5.90192934e-10
5.90112045e-10
5.90079835e-10
5.90084543e-10
5.93685946e-10
6.10953306e-10
6.11567429e-10
5.91813631e-10
5.8997729e-10
5.9199038e-10
6.10676981e-10
6.08760632e-10
6.09956921e-10
5.9163459e-10
5.89865645e-10
5.92616587e-10
6.10953e-10
6.11107343e-10
5.91535484e-10
5.91394732e-10
6.11424066e-10
6.11167064e-10
5.93517009e-10
5.89550723e-10
5.89504025e-10
5.90370178e-10
6.07908349e-10
6.08617592e-10
6.09200258e-10
6.08714326e-10
6.11492325e-10
5.93682005e-10
5.89528559e-10
5.89565639e-10
5.91608836e-10
6.10640521e-10
6.11311117e-10
5.92227479e-10
5.89700211e-10
5.93058853e-10
6.09698509e-10
6.11095789e-10
5.92180179e-10
5.89752868e-10
5.93033525e-10
6.09544667e-10
6.10914673e-10
5.92295661e-10
5.89719832e-10
5.92651385e-10
6.09510414e-10
6.10722022e-10
5.92533076e-10
5.89687097e-10
5.92287494e-10
6.09462426e-10
6.10493092e-10
5.92884669e-10
5.896952e-10
5.91971215e-10
6.0941117e-10
6.10239347e-10
5.93352965e-10
5.89709535e-10
5.91655099e-10
6.09371842e-10
6.10030638e-10
5.93676396e-10
5.8968927e-10
5.91275986e-10
6.09375276e-10
6.09892839e-10
5.93731381e-10
5.89569471e-10
5.90890581e-10
6.09393088e-10
6.09886484e-10
5.93468198e-10
5.89335798e-10
5.90495142e-10
6.09397102e-10
6.08209632e-10
6.10737501e-10
5.94407895e-10
5.89935346e-10
5.89334643e-10
5.90461687e-10
6.09413296e-10
6.0983453e-10
5.92945306e-10
5.89352809e-10
5.90330167e-10
6.09330667e-10
6.09969151e-10
5.91159471e-10
5.91369715e-10
6.08467686e-10
6.09384318e-10
5.92794655e-10
5.89201751e-10
5.90458108e-10
6.08955725e-10
6.0953473e-10
5.93066991e-10
5.89244233e-10
5.90335476e-10
6.08926622e-10
6.09673705e-10
5.91030774e-10
5.91417471e-10
6.08318923e-10
6.09126466e-10
5.93111202e-10
5.89351095e-10
5.90402466e-10
6.08620466e-10
6.09287289e-10
5.93908831e-10
5.89498261e-10
5.90463695e-10
6.08642445e-10
6.09169489e-10
5.94280703e-10
5.8959121e-10
5.90520678e-10
6.08643407e-10
6.09080137e-10
5.94463918e-10
5.89653159e-10
5.90436372e-10
6.08616806e-10
6.08827473e-10
5.93376566e-10
5.90164713e-10
5.89683505e-10
5.90198264e-10
6.0868547e-10
6.0897248e-10
5.91205088e-10
5.91369545e-10
6.08283156e-10
6.08796986e-10
5.93227946e-10
5.89479917e-10
5.90295612e-10
6.08622923e-10
6.09050216e-10
5.936358e-10
5.89450173e-10
5.90251764e-10
6.08613702e-10
6.09099921e-10
5.93341744e-10
5.8940449e-10
5.90020779e-10
6.08638213e-10
6.08795989e-10
5.90972538e-10
5.90892605e-10
6.08337955e-10
6.08850042e-10
5.92612547e-10
5.89336291e-10
5.90054319e-10
6.08548498e-10
6.09094229e-10
5.93242223e-10
5.89333094e-10
5.90100304e-10
6.08546541e-10
6.09080416e-10
5.93051055e-10
5.89313617e-10
5.89902648e-10
6.08574805e-10
6.0863288e-10
5.90915965e-10
5.90796895e-10
6.08329466e-10
6.08758794e-10
5.92418474e-10
5.89287807e-10
5.90132737e-10
6.08554131e-10
6.08968043e-10
5.92851565e-10
5.89283e-10
5.90038321e-10
6.08616572e-10
6.08665426e-10
5.91671929e-10
5.90143927e-10
6.00726365e-10
6.0843662e-10
6.08132127e-10
6.08701077e-10
5.92628436e-10
5.90241939e-10
5.90403797e-10
5.90256482e-10
5.90254394e-10
5.89529144e-10
5.90242539e-10
6.09347204e-10
6.08247576e-10
6.09266792e-10
5.96903909e-10
5.90194695e-10
5.90689282e-10
6.08549994e-10
6.08864224e-10
5.9266223e-10
5.89202895e-10
5.89777083e-10
6.08743287e-10
6.08808224e-10
5.9058484e-10
5.90086466e-10
6.08948953e-10
6.09100114e-10
5.90424301e-10
5.90114918e-10
6.0910059e-10
6.09279228e-10
5.90421979e-10
5.90306849e-10
6.09041872e-10
6.09480049e-10
5.90889776e-10
5.88881115e-10
5.89880181e-10
6.08953595e-10
6.09549998e-10
5.90770351e-10
5.90619417e-10
6.0898926e-10
6.09474783e-10
5.91015553e-10
5.89144223e-10
5.90199352e-10
6.08806942e-10
6.09644693e-10
5.90887458e-10
5.90829802e-10
6.08866779e-10
6.0938992e-10
5.91197715e-10
5.89280002e-10
5.90641787e-10
6.08796108e-10
6.09422563e-10
5.91255304e-10
5.89339977e-10
5.90555472e-10
6.08654572e-10
6.09649881e-10
5.90842969e-10
5.91005306e-10
6.08644371e-10
6.09326959e-10
5.90981599e-10
5.89327438e-10
5.90932135e-10
6.08663148e-10
6.09296173e-10
5.90908355e-10
5.89333211e-10
5.90758545e-10
6.08590779e-10
6.09565996e-10
5.90685827e-10
5.910075e-10
6.08378029e-10
6.09246308e-10
5.90733181e-10
5.89267091e-10
5.91336333e-10
6.08552909e-10
6.09195013e-10
5.90673271e-10
5.89329782e-10
5.91302345e-10
6.08524974e-10
6.09533624e-10
5.90646261e-10
5.91305815e-10
6.08071538e-10
6.09162734e-10
5.90588461e-10
5.89360479e-10
5.92208159e-10
6.08462537e-10
6.09076792e-10
5.90620918e-10
5.89398416e-10
5.92540553e-10
6.08402029e-10
6.09049419e-10
5.90633386e-10
5.89582349e-10
5.92715653e-10
6.0829806e-10
6.09190072e-10
5.91759757e-10
5.93204731e-10
6.07917489e-10
6.08846752e-10
5.90863555e-10
5.90321544e-10
5.90634621e-10
5.9065175e-10
5.90190793e-10
5.93779426e-10
6.08346657e-10
6.08991315e-10
5.90669433e-10
5.89681475e-10
5.92582535e-10
6.0872598e-10
6.09465115e-10
5.90669251e-10
5.91313123e-10
6.08539605e-10
6.09477719e-10
5.90424243e-10
5.91350365e-10
6.08789001e-10
6.09196614e-10
5.89953334e-10
5.89090762e-10
5.91535421e-10
6.09337254e-10
6.09760845e-10
5.90578358e-10
5.91323498e-10
6.09136254e-10
6.09299534e-10
5.90050279e-10
5.89138896e-10
5.91559883e-10
6.09620605e-10
6.09822063e-10
5.90761775e-10
5.91430149e-10
6.09599511e-10
6.09421513e-10
5.90135121e-10
5.89135673e-10
5.91378486e-10
6.10042624e-10
6.10053591e-10
5.90821333e-10
5.91384928e-10
6.10445573e-10
6.09585367e-10
5.90135797e-10
5.88989647e-10
5.91173586e-10
6.1061855e-10
6.10458121e-10
5.90856956e-10
5.91211599e-10
6.11494938e-10
6.10546351e-10
5.90805747e-10
5.91214765e-10
6.11834474e-10
6.10553954e-10
5.90865314e-10
5.91231712e-10
6.11875252e-10
6.09799383e-10
5.90548791e-10
5.89042049e-10
5.90853041e-10
6.11753682e-10
6.10538061e-10
5.9209035e-10
5.91327766e-10
6.10046963e-10
6.10488211e-10
5.92414893e-10
5.9143605e-10
6.09488608e-10
6.0973485e-10
5.9268592e-10
5.89551934e-10
5.90866842e-10
6.11420437e-10
6.10119936e-10
5.94320577e-10
5.92010194e-10
6.08194561e-10
6.09635959e-10
5.94385523e-10
5.90026118e-10
5.91087623e-10
6.10821269e-10
6.09611868e-10
5.94461913e-10
5.90121331e-10
5.8995891e-10
5.91057912e-10
6.10866037e-10
6.09660226e-10
5.94695617e-10
5.89631315e-10
5.90361266e-10
6.10160824e-10
6.10073449e-10
5.94491331e-10
5.91196824e-10
6.05730836e-10
6.10255825e-10
5.94067468e-10
5.91097434e-10
6.0606689e-10
6.10172859e-10
5.93686239e-10
5.91114703e-10
6.06697659e-10
6.10188271e-10
5.93184873e-10
5.89154052e-10
5.89858727e-10
6.11194333e-10
6.10160005e-10
5.92916718e-10
5.90781749e-10
6.07184873e-10
6.10137662e-10
5.92920012e-10
5.90850293e-10
6.07808498e-10
6.09921747e-10
5.93066717e-10
5.90926306e-10
6.08281245e-10
6.09735173e-10
5.9315273e-10
5.91157689e-10
6.09569709e-10
6.09832463e-10
5.9352765e-10
5.89580912e-10
5.90618385e-10
6.11350193e-10
6.09825001e-10
5.93519829e-10
5.89674095e-10
5.90720932e-10
6.11193817e-10
6.09833059e-10
5.93712827e-10
5.89833658e-10
5.91008874e-10
6.12072337e-10
6.09446739e-10
6.09582819e-10
6.10269551e-10
5.93032805e-10
5.90193348e-10
5.89812088e-10
5.91090118e-10
6.10922285e-10
6.09772928e-10
5.93558838e-10
5.89955128e-10
5.9101647e-10
6.11063277e-10
6.09799607e-10
5.93830241e-10
5.90021338e-10
5.91148916e-10
6.10911126e-10
6.09779637e-10
5.93988377e-10
5.90096551e-10
5.91188432e-10
6.10779819e-10
6.0989878e-10
5.94039888e-10
5.90066374e-10
5.91037339e-10
6.10764737e-10
6.10138723e-10
5.93860914e-10
5.89864087e-10
5.90697521e-10
6.10927436e-10
6.10387313e-10
5.93653001e-10
5.89868351e-10
5.90615867e-10
6.08326569e-10
6.09587952e-10
6.09260302e-10
)
;

boundaryField
{
    closed
    {
        type            calculated;
        value           nonuniform List<scalar> 0();
    }
    open
    {
        type            calculated;
        value           nonuniform List<scalar> 0();
    }
    sides
    {
        type            empty;
    }
    procBoundary3to2
    {
        type            processor;
        value           uniform 5.99694701e-10;
    }
    procBoundary3to4
    {
        type            processor;
        value           uniform 6.10465603e-10;
    }
}


// ************************************************************************* //
