/*--------------------------------*- C++ -*----------------------------------*\
| =========                 |                                                 |
| \\      /  F ield         | OpenFOAM: The Open Source CFD Toolbox           |
|  \\    /   O peration     | Version:  2306                                  |
|   \\  /    A nd           | Website:  www.openfoam.com                      |
|    \\/     M anipulation  |                                                 |
\*---------------------------------------------------------------------------*/
FoamFile
{
    version     2.0;
    format      ascii;
    arch        "LSB;label=32;scalar=64";
    class       volScalarField;
    location    "6e-05";
    object      alpha;
}
// * * * * * * * * * * * * * * * * * * * * * * * * * * * * * * * * * * * * * //

dimensions      [1 -1 -1 0 0 0 0];

internalField   nonuniform List<scalar> 
3810
(
3.5454177e-05
3.60045513e-05
3.67998308e-05
3.57613367e-05
3.51084232e-05
3.56984676e-05
3.68463551e-05
3.68131361e-05
3.57020928e-05
3.49377486e-05
3.54031882e-05
3.64543899e-05
3.68007904e-05
3.57317438e-05
3.50087467e-05
3.54253404e-05
3.62626861e-05
3.68011517e-05
3.5845559e-05
3.5379395e-05
3.58845272e-05
3.67956998e-05
3.58732669e-05
3.5394124e-05
3.58536573e-05
3.68013458e-05
3.59168432e-05
3.54449534e-05
3.58415395e-05
3.68071347e-05
3.59760094e-05
3.54740422e-05
3.58305417e-05
3.68107186e-05
3.60733732e-05
3.55366347e-05
3.58385066e-05
3.68041929e-05
3.60979286e-05
3.53737086e-05
3.54004245e-05
3.56593892e-05
3.572223e-05
3.60697984e-05
3.68054116e-05
3.6385595e-05
3.54994079e-05
3.57513947e-05
3.68237587e-05
3.6467449e-05
3.53580485e-05
3.57435261e-05
3.68297071e-05
3.65306662e-05
3.53187768e-05
3.5756956e-05
3.68271696e-05
3.65826588e-05
3.53170825e-05
3.57728803e-05
3.68220168e-05
3.66185379e-05
3.5311697e-05
3.57572683e-05
3.68157481e-05
3.6633566e-05
3.52492538e-05
3.5774393e-05
3.68153603e-05
3.65724751e-05
3.48129484e-05
3.48008613e-05
3.5755454e-05
3.67941819e-05
3.67386701e-05
3.51143953e-05
3.56363853e-05
3.68155843e-05
3.67119961e-05
3.52085686e-05
3.56402205e-05
3.68219154e-05
3.67366739e-05
3.53022451e-05
3.57108269e-05
3.68242289e-05
3.6743649e-05
3.53743572e-05
3.57700026e-05
3.68238959e-05
3.67473148e-05
3.54008207e-05
3.58298981e-05
3.68143289e-05
3.67507902e-05
3.50793136e-05
3.5065672e-05
3.58108966e-05
3.67793664e-05
3.67979633e-05
3.54409103e-05
3.58041885e-05
3.68146248e-05
3.6716319e-05
3.54230621e-05
3.57908854e-05
3.68234024e-05
3.64331126e-05
3.53795448e-05
3.57609027e-05
3.68224083e-05
3.62534011e-05
3.53244735e-05
3.57641737e-05
3.68095909e-05
3.58649247e-05
3.50679034e-05
3.51970284e-05
3.54303841e-05
3.58190467e-05
3.68174359e-05
3.62826094e-05
3.54134781e-05
3.57718591e-05
3.68174219e-05
3.60194573e-05
3.53667943e-05
3.57920621e-05
3.68174745e-05
3.59863558e-05
3.53543681e-05
3.5798825e-05
3.68142582e-05
3.59750744e-05
3.53537716e-05
3.58003957e-05
3.68116398e-05
3.59836059e-05
3.53514286e-05
3.57961971e-05
3.68109086e-05
3.59932511e-05
3.53372098e-05
3.5782452e-05
3.68110226e-05
3.60411046e-05
3.53064795e-05
3.57687156e-05
3.6806253e-05
3.60651101e-05
3.49649051e-05
3.49809172e-05
3.57965179e-05
3.68028159e-05
3.68010778e-05
3.52902099e-05
3.57082499e-05
3.68218612e-05
3.67063478e-05
3.52866305e-05
3.56719359e-05
3.68338834e-05
3.67716278e-05
3.52814913e-05
3.56260393e-05
3.68350826e-05
3.6769939e-05
3.5291044e-05
3.56112488e-05
3.68337131e-05
3.67724563e-05
3.53175587e-05
3.5610312e-05
3.68294071e-05
3.67767056e-05
3.53400029e-05
3.56516271e-05
3.68187137e-05
3.67839625e-05
3.51893537e-05
3.57750353e-05
3.67956808e-05
3.55594657e-05
3.55674279e-05
3.6817485e-05
3.67965781e-05
3.53311063e-05
3.55009954e-05
3.68251286e-05
3.67876088e-05
3.51438333e-05
3.51416369e-05
3.52931145e-05
3.56485182e-05
3.68230954e-05
3.68056279e-05
3.53577517e-05
3.54776066e-05
3.68339381e-05
3.68067612e-05
3.53015466e-05
3.53996636e-05
3.68361708e-05
3.68076126e-05
3.52939114e-05
3.53752463e-05
3.6835113e-05
3.68071979e-05
3.53004207e-05
3.53690079e-05
3.68346736e-05
3.68079819e-05
3.53091381e-05
3.5364167e-05
3.68345374e-05
3.68110203e-05
3.53253734e-05
3.53655313e-05
3.68350384e-05
3.68154147e-05
3.53447364e-05
3.53645364e-05
3.68366023e-05
3.68201618e-05
3.53676762e-05
3.53738848e-05
3.68436087e-05
3.680929e-05
3.53919338e-05
3.53309862e-05
3.68518037e-05
3.68080938e-05
3.54080943e-05
3.49818178e-05
3.54069709e-05
3.6817307e-05
3.68277256e-05
3.56589939e-05
3.53999943e-05
3.68685585e-05
3.68293332e-05
3.54837875e-05
3.49916301e-05
3.52841286e-05
3.68130695e-05
3.68137192e-05
3.57641863e-05
3.54410126e-05
3.68421639e-05
3.68173157e-05
3.56003858e-05
3.49743611e-05
3.51938521e-05
3.6805688e-05
3.68305063e-05
3.57678095e-05
3.57113322e-05
3.68026466e-05
3.57629258e-05
3.56139001e-05
3.67920606e-05
3.58523409e-05
3.52817095e-05
3.61886568e-05
3.68056133e-05
3.57721382e-05
3.54092564e-05
3.61370106e-05
3.6826952e-05
3.57432959e-05
3.56103126e-05
3.66298343e-05
3.58182205e-05
3.52861736e-05
3.6179809e-05
3.68047539e-05
3.57704807e-05
3.53896518e-05
3.62040405e-05
3.6819573e-05
3.57592022e-05
3.5371857e-05
3.62231883e-05
3.68223227e-05
3.57471155e-05
3.53782666e-05
3.62578468e-05
3.68195595e-05
3.57213995e-05
3.55620523e-05
3.65911994e-05
3.57600762e-05
3.53004055e-05
3.63696196e-05
3.68247196e-05
3.5748791e-05
3.5371752e-05
3.64456663e-05
3.6832126e-05
3.5652346e-05
3.55044372e-05
3.67106296e-05
3.57212038e-05
3.53021171e-05
3.66313975e-05
3.68406717e-05
3.57366297e-05
3.53908408e-05
3.67056417e-05
3.68405364e-05
3.5703104e-05
3.5470202e-05
3.67423873e-05
3.68285183e-05
3.56522787e-05
3.53842714e-05
3.55790125e-05
3.54787506e-05
3.5689802e-05
3.6790508e-05
3.68685491e-05
3.55671072e-05
3.54371438e-05
3.67877427e-05
3.68627834e-05
3.54152872e-05
3.53225924e-05
3.68071356e-05
3.68550011e-05
3.53498514e-05
3.52883784e-05
3.68174466e-05
3.68476513e-05
3.53368284e-05
3.53000748e-05
3.68222239e-05
3.68424252e-05
3.53471429e-05
3.53324692e-05
3.68286121e-05
3.68339532e-05
3.53225749e-05
3.53680108e-05
3.68382559e-05
3.68206486e-05
3.52220936e-05
3.55004289e-05
3.68506742e-05
3.55882415e-05
3.52228906e-05
3.68436557e-05
3.68231931e-05
3.55161591e-05
3.51840465e-05
3.53603846e-05
3.68407831e-05
3.68197894e-05
3.55110105e-05
3.52150973e-05
3.53206501e-05
3.68297915e-05
3.68399858e-05
3.54361255e-05
3.54116114e-05
3.68484758e-05
3.68380936e-05
3.53743954e-05
3.54251398e-05
3.68602883e-05
3.68310687e-05
3.53559816e-05
3.54806746e-05
3.686783e-05
3.57060344e-05
3.52324199e-05
3.68590426e-05
3.68368429e-05
3.55145963e-05
3.54109842e-05
3.68653384e-05
3.68309579e-05
3.55047623e-05
3.5430574e-05
3.68766573e-05
3.68215733e-05
3.56789258e-05
3.53693754e-05
3.54840735e-05
3.52613332e-05
3.52768484e-05
3.68310423e-05
3.68497795e-05
3.55877177e-05
3.54514928e-05
3.6848256e-05
3.68531513e-05
3.54779335e-05
3.53977867e-05
3.68548355e-05
3.68584928e-05
3.54278341e-05
3.53637285e-05
3.68566384e-05
3.68573403e-05
3.5432018e-05
3.53785743e-05
3.68585898e-05
3.6851881e-05
3.54720551e-05
3.54263207e-05
3.68649447e-05
3.6842694e-05
3.55321333e-05
3.54674545e-05
3.68719421e-05
3.6828156e-05
3.57150788e-05
3.54477809e-05
3.55335408e-05
3.5270534e-05
3.52797377e-05
3.6857503e-05
3.68153153e-05
3.57300285e-05
3.52469129e-05
3.52910906e-05
3.68378683e-05
3.68427623e-05
3.56208107e-05
3.54777327e-05
3.68582918e-05
3.68394949e-05
3.55559421e-05
3.54858126e-05
3.68679873e-05
3.68346016e-05
3.55404093e-05
3.54549872e-05
3.68770144e-05
3.68179759e-05
3.57081699e-05
3.53436035e-05
3.54322404e-05
3.5116519e-05
3.52199555e-05
3.68374379e-05
3.67991322e-05
3.55329535e-05
3.57039542e-05
3.6838357e-05
3.57763836e-05
3.53227428e-05
3.68698109e-05
3.67856002e-05
3.5458227e-05
3.55015413e-05
3.68743627e-05
3.67845274e-05
3.56705705e-05
3.50525168e-05
3.54267995e-05
3.68266233e-05
3.67630391e-05
3.54760794e-05
3.57030654e-05
3.68160798e-05
3.57500157e-05
3.55470965e-05
3.68709867e-05
3.67708261e-05
3.56820692e-05
3.51922494e-05
3.56830243e-05
3.68211352e-05
3.67515199e-05
3.54256903e-05
3.56704721e-05
3.68446442e-05
3.67437331e-05
3.54325674e-05
3.57554563e-05
3.68449069e-05
3.67846564e-05
3.54942822e-05
3.52071218e-05
3.57107882e-05
3.68272312e-05
3.68011949e-05
3.54558863e-05
3.50676626e-05
3.57097327e-05
3.68172688e-05
3.67953655e-05
3.53786575e-05
3.5622711e-05
3.68368119e-05
3.67839838e-05
3.53488883e-05
3.56016537e-05
3.68450124e-05
3.67954919e-05
3.53242502e-05
3.55726587e-05
3.6846828e-05
3.68098316e-05
3.53264825e-05
3.55661633e-05
3.68317231e-05
3.6811004e-05
3.5159995e-05
3.49081937e-05
3.55517845e-05
3.68078543e-05
3.68605098e-05
3.53114087e-05
3.54189014e-05
3.68258517e-05
3.68361612e-05
3.5345501e-05
3.54484905e-05
3.68326724e-05
3.68361964e-05
3.53587718e-05
3.54587585e-05
3.6832263e-05
3.68428521e-05
3.53655441e-05
3.54879095e-05
3.68301077e-05
3.68580828e-05
3.52881106e-05
3.57227641e-05
3.68587667e-05
3.56345907e-05
3.54230617e-05
3.68259644e-05
3.68427092e-05
3.54898896e-05
3.51457316e-05
3.56882337e-05
3.68128391e-05
3.68457962e-05
3.5547222e-05
3.52912257e-05
3.54946017e-05
3.52612537e-05
3.55223879e-05
3.68206361e-05
3.6861505e-05
3.54673584e-05
3.54317287e-05
3.68293903e-05
3.68504417e-05
3.54642478e-05
3.54279246e-05
3.68380194e-05
3.68489895e-05
3.5419429e-05
3.53911604e-05
3.68406955e-05
3.68519182e-05
3.53939156e-05
3.53736397e-05
3.6839769e-05
3.68550527e-05
3.53945644e-05
3.53925482e-05
3.68441562e-05
3.68541376e-05
3.53261961e-05
3.56974398e-05
3.68654303e-05
3.56040309e-05
3.52997648e-05
3.68333833e-05
3.68559315e-05
3.54259883e-05
3.53525789e-05
3.6839492e-05
3.68409645e-05
3.53810385e-05
3.53774178e-05
3.68444275e-05
3.68254796e-05
3.53372292e-05
3.50350575e-05
3.53771308e-05
3.68244515e-05
3.68520754e-05
3.53778405e-05
3.53575257e-05
3.68308126e-05
3.68324246e-05
3.54401616e-05
3.51747655e-05
3.54514398e-05
3.68258868e-05
3.68473126e-05
3.54006657e-05
3.56077583e-05
3.6851944e-05
3.5685093e-05
3.53338282e-05
3.68259087e-05
3.68484475e-05
3.54737407e-05
3.53692054e-05
3.68338536e-05
3.68475581e-05
3.54340978e-05
3.53889895e-05
3.68417671e-05
3.68472154e-05
3.54571852e-05
3.54363556e-05
3.68477758e-05
3.68432194e-05
3.5568179e-05
3.55522197e-05
3.68504994e-05
3.68298851e-05
3.56810408e-05
3.55331034e-05
3.56155643e-05
3.54938976e-05
3.55444043e-05
3.54266326e-05
3.54385067e-05
3.68262239e-05
3.68565725e-05
3.5571141e-05
3.54431447e-05
3.68337501e-05
3.68550736e-05
3.54741618e-05
3.538717e-05
3.6838278e-05
3.68525669e-05
3.54071294e-05
3.53374014e-05
3.68385933e-05
3.68499569e-05
3.5373348e-05
3.53148187e-05
3.68376917e-05
3.68470553e-05
3.53660887e-05
3.53150417e-05
3.68364946e-05
3.68439394e-05
3.5374046e-05
3.53301389e-05
3.68362248e-05
3.68396263e-05
3.53918594e-05
3.53553704e-05
3.68411737e-05
3.68293551e-05
3.5423172e-05
3.53559228e-05
3.68536102e-05
3.68204196e-05
3.55339629e-05
3.50451246e-05
3.52442296e-05
3.68288235e-05
3.68301773e-05
3.54659402e-05
3.53433308e-05
3.68577158e-05
3.68142713e-05
3.56418668e-05
3.5086256e-05
3.53235764e-05
3.681395e-05
3.68297837e-05
3.534658e-05
3.52467635e-05
3.68373141e-05
3.68277233e-05
3.54671213e-05
3.53967606e-05
3.68447956e-05
3.68143141e-05
3.57307232e-05
3.5187802e-05
3.52899247e-05
3.68471647e-05
3.6809252e-05
3.57041935e-05
3.51011163e-05
3.51944257e-05
3.68274391e-05
3.6833099e-05
3.55230699e-05
3.53904843e-05
3.68408249e-05
3.68276553e-05
3.55339348e-05
3.5567319e-05
3.6839694e-05
3.57410692e-05
3.53468147e-05
3.68318631e-05
3.68157273e-05
3.56086694e-05
3.5594526e-05
3.68176119e-05
3.574274e-05
3.52656577e-05
3.68090885e-05
3.68261387e-05
3.5604827e-05
3.53273399e-05
3.67891514e-05
3.68359794e-05
3.5604688e-05
3.53577565e-05
3.67791245e-05
3.68256923e-05
3.56244571e-05
3.5373357e-05
3.67898457e-05
3.68126354e-05
3.57024721e-05
3.5119677e-05
3.51216571e-05
3.67670838e-05
3.68293885e-05
3.56756593e-05
3.53776362e-05
3.67742435e-05
3.68277372e-05
3.57187023e-05
3.53353246e-05
3.54507481e-05
3.68112904e-05
3.68414305e-05
3.5701352e-05
3.5318732e-05
3.56934831e-05
3.68268785e-05
3.5721475e-05
3.54174688e-05
3.67888198e-05
3.68488408e-05
3.57057917e-05
3.55031823e-05
3.68052437e-05
3.6850828e-05
3.56757313e-05
3.56085759e-05
3.54616562e-05
3.56943403e-05
3.68483994e-05
3.57013414e-05
3.54027521e-05
3.68116706e-05
3.68548698e-05
3.55797937e-05
3.53936638e-05
3.68278099e-05
3.6846109e-05
3.55416285e-05
3.53822504e-05
3.68366332e-05
3.68371076e-05
3.5597764e-05
3.53784046e-05
3.5371134e-05
3.59148209e-05
3.68562932e-05
3.55917934e-05
3.53881367e-05
3.68205301e-05
3.68468904e-05
3.55073638e-05
3.54484759e-05
3.68350049e-05
3.6836503e-05
3.55092222e-05
3.55325828e-05
3.68432789e-05
3.56231914e-05
3.54869229e-05
3.68443743e-05
3.56239314e-05
3.51718239e-05
3.68256381e-05
3.68407134e-05
3.54253794e-05
3.52513124e-05
3.68300494e-05
3.68338543e-05
3.53626904e-05
3.52896229e-05
3.68297759e-05
3.68330267e-05
3.53488843e-05
3.52978249e-05
3.68299684e-05
3.68332677e-05
3.5350454e-05
3.53133574e-05
3.68320305e-05
3.6831443e-05
3.53649437e-05
3.53606535e-05
3.6837007e-05
3.68269963e-05
3.53763693e-05
3.54528791e-05
3.68500324e-05
3.57183144e-05
3.51126682e-05
3.68389371e-05
3.68298908e-05
3.55261622e-05
3.52261073e-05
3.68432839e-05
3.68213108e-05
3.56210131e-05
3.5129014e-05
3.51506272e-05
3.68288654e-05
3.68228423e-05
3.55659161e-05
3.50003629e-05
3.50741462e-05
3.68171681e-05
3.68335665e-05
3.54040802e-05
3.52448422e-05
3.68331294e-05
3.68243336e-05
3.53637842e-05
3.53349205e-05
3.68364634e-05
3.68160684e-05
3.53777224e-05
3.53824051e-05
3.68382707e-05
3.68105272e-05
3.53953772e-05
3.54239579e-05
3.68406264e-05
3.6803323e-05
3.54203579e-05
3.54708901e-05
3.68428415e-05
3.67979594e-05
3.54663286e-05
3.55169065e-05
3.68410054e-05
3.68011048e-05
3.55991683e-05
3.53197341e-05
3.51121216e-05
3.52886641e-05
3.68366577e-05
3.67674532e-05
3.52485633e-05
3.53798879e-05
3.6833668e-05
3.67605006e-05
3.52943156e-05
3.54513912e-05
3.6833082e-05
3.67592536e-05
3.53002779e-05
3.54753036e-05
3.68339134e-05
3.67605634e-05
3.52991677e-05
3.5489087e-05
3.68347612e-05
3.67637449e-05
3.53060007e-05
3.55103286e-05
3.68353056e-05
3.67679019e-05
3.53305484e-05
3.55494598e-05
3.68356357e-05
3.67709655e-05
3.53519435e-05
3.56024497e-05
3.68364257e-05
3.67834216e-05
3.53202794e-05
3.56972037e-05
3.68322554e-05
3.68276145e-05
3.68093389e-05
3.5794013e-05
3.53624625e-05
3.54656683e-05
3.53371778e-05
3.53557653e-05
3.51916907e-05
3.55052004e-05
3.68219236e-05
3.68292314e-05
3.54302073e-05
3.55361241e-05
3.68359973e-05
3.68271444e-05
3.54197082e-05
3.55141256e-05
3.68497855e-05
3.68429971e-05
3.5358907e-05
3.54465214e-05
3.68573996e-05
3.68543089e-05
3.53384624e-05
3.54273387e-05
3.68589525e-05
3.68575369e-05
3.53733651e-05
3.54754381e-05
3.68588803e-05
3.6858651e-05
3.5432676e-05
3.56901943e-05
3.68681652e-05
3.68162843e-05
3.57733803e-05
3.53344569e-05
3.54021088e-05
3.51662874e-05
3.54447893e-05
3.683248e-05
3.68649775e-05
3.53857358e-05
3.54106391e-05
3.68417704e-05
3.68455977e-05
3.54444543e-05
3.54906309e-05
3.68442443e-05
3.68416032e-05
3.54731411e-05
3.55082157e-05
3.68427692e-05
3.68266467e-05
3.555261e-05
3.50185621e-05
3.54487041e-05
3.68126658e-05
3.68659939e-05
3.52930304e-05
3.53079594e-05
3.68224068e-05
3.68456534e-05
3.53428762e-05
3.54046819e-05
3.68281924e-05
3.68413152e-05
3.52648531e-05
3.56714566e-05
3.68544701e-05
3.56407947e-05
3.51475449e-05
3.68338056e-05
3.68455255e-05
3.53505455e-05
3.53307738e-05
3.6847043e-05
3.683786e-05
3.53068752e-05
3.56360404e-05
3.68590818e-05
3.57161695e-05
3.5274038e-05
3.6845677e-05
3.68379385e-05
3.56822524e-05
3.54009318e-05
3.53705449e-05
3.53828561e-05
3.68564929e-05
3.68314548e-05
3.53994988e-05
3.55890656e-05
3.68678426e-05
3.57205161e-05
3.5244152e-05
3.68501928e-05
3.68440978e-05
3.54916884e-05
3.54516453e-05
3.68588438e-05
3.6828959e-05
3.55070253e-05
3.56028438e-05
3.68603707e-05
3.57285411e-05
3.54416782e-05
3.68638889e-05
3.55899828e-05
3.54488196e-05
3.68687487e-05
3.57091329e-05
3.50622506e-05
3.68555982e-05
3.68338135e-05
3.5434917e-05
3.52554593e-05
3.6858923e-05
3.68355819e-05
3.54233087e-05
3.5337647e-05
3.68631265e-05
3.68365346e-05
3.5514004e-05
3.54356286e-05
3.686882e-05
3.682703e-05
3.56999123e-05
3.55474106e-05
3.53588429e-05
3.54213857e-05
3.68661376e-05
3.57268562e-05
3.52255229e-05
3.68499676e-05
3.68473816e-05
3.55284768e-05
3.53637696e-05
3.68475887e-05
3.6849014e-05
3.54852138e-05
3.54123876e-05
3.68468998e-05
3.68391708e-05
3.54976984e-05
3.55236923e-05
3.68475822e-05
3.57265544e-05
3.51508887e-05
3.68358598e-05
3.68387639e-05
3.55710288e-05
3.53715119e-05
3.68252717e-05
3.68396561e-05
3.55954181e-05
3.54552148e-05
3.68191015e-05
3.68330773e-05
3.56987495e-05
3.55413295e-05
3.68127806e-05
3.6816088e-05
3.5788837e-05
3.54517662e-05
3.55239424e-05
3.515118e-05
3.51739317e-05
3.6803105e-05
3.57459738e-05
3.51144718e-05
3.67601707e-05
3.68194498e-05
3.56631729e-05
3.52875854e-05
3.67218829e-05
3.68235714e-05
3.57412149e-05
3.53198776e-05
3.65764012e-05
3.68214422e-05
3.57673372e-05
3.53363142e-05
3.63685848e-05
3.68140043e-05
3.57667407e-05
3.53536555e-05
3.61502491e-05
3.68027285e-05
3.57886469e-05
3.53779769e-05
3.59585469e-05
3.67886305e-05
3.58480963e-05
3.54104042e-05
3.58148298e-05
3.67741434e-05
3.59530577e-05
3.54505262e-05
3.57247522e-05
3.67613646e-05
3.61120422e-05
3.55044003e-05
3.5688916e-05
3.67509143e-05
3.63059901e-05
3.5584725e-05
3.56991897e-05
3.67564859e-05
3.64167557e-05
3.5721619e-05
3.57667778e-05
3.59688789e-05
3.57198544e-05
3.56672151e-05
3.67055551e-05
3.67987662e-05
3.5720268e-05
3.55574187e-05
3.6721535e-05
3.6792272e-05
3.57488047e-05
3.50672251e-05
3.5187194e-05
3.67315611e-05
3.68118362e-05
3.57827399e-05
3.54959345e-05
3.67494446e-05
3.67994597e-05
3.57649916e-05
3.50509028e-05
3.5164471e-05
3.6770478e-05
3.68282792e-05
3.57516905e-05
3.54630048e-05
3.67582498e-05
3.68293494e-05
3.57655841e-05
3.55193357e-05
3.67911578e-05
3.68091753e-05
3.57596948e-05
3.50552437e-05
3.52166552e-05
3.67840938e-05
3.68381288e-05
3.56749231e-05
3.54480313e-05
3.6773376e-05
3.68357029e-05
3.5687195e-05
3.55110987e-05
3.67956266e-05
3.68200766e-05
3.57332613e-05
3.50222798e-05
3.52639564e-05
3.67929028e-05
3.68490872e-05
3.56012131e-05
3.54017373e-05
3.67816857e-05
3.68649925e-05
3.56988049e-05
3.57457459e-05
3.61047429e-05
3.57073813e-05
3.5611478e-05
3.67919281e-05
3.68838673e-05
3.56461978e-05
3.57531082e-05
3.63235267e-05
3.57092737e-05
3.55883545e-05
3.67732831e-05
3.6877362e-05
3.54865092e-05
3.5763624e-05
3.68444377e-05
3.57021031e-05
3.55332636e-05
3.6815897e-05
3.6857896e-05
3.56792989e-05
3.56878877e-05
3.68360101e-05
3.68463657e-05
3.56996186e-05
3.5432388e-05
3.55212403e-05
3.54754567e-05
3.53036468e-05
3.56358469e-05
3.68327039e-05
3.68821383e-05
3.5329363e-05
3.57581943e-05
3.6348152e-05
3.55781565e-05
3.56705021e-05
3.68514753e-05
3.68010147e-05
3.53495443e-05
3.55956746e-05
3.6849578e-05
3.67887574e-05
3.53269216e-05
3.56139939e-05
3.68448841e-05
3.67756172e-05
3.53459213e-05
3.56589344e-05
3.68390674e-05
3.67634571e-05
3.53850641e-05
3.56964919e-05
3.68203739e-05
3.6766268e-05
3.52722549e-05
3.58457951e-05
3.64553969e-05
3.55431283e-05
3.57510924e-05
3.67970652e-05
3.61216045e-05
3.52080639e-05
3.61430202e-05
3.67565505e-05
3.54704223e-05
3.57275862e-05
3.68371251e-05
3.67506803e-05
3.54552598e-05
3.57923449e-05
3.68456509e-05
3.67693293e-05
3.55319555e-05
3.5785679e-05
3.68301474e-05
3.67605564e-05
3.52877174e-05
3.52869794e-05
3.5695702e-05
3.57852895e-05
3.5763489e-05
3.56345513e-05
3.57657751e-05
3.68442782e-05
3.68371625e-05
3.54261286e-05
3.57632565e-05
3.59571719e-05
3.55600944e-05
3.57416487e-05
3.68365865e-05
3.67999228e-05
3.52871178e-05
3.56184477e-05
3.68362718e-05
3.67782804e-05
3.52608865e-05
3.55864281e-05
3.6832949e-05
3.67778802e-05
3.52615199e-05
3.55697497e-05
3.68336604e-05
3.67831166e-05
3.52653885e-05
3.55634305e-05
3.68364593e-05
3.67892962e-05
3.52780368e-05
3.55722753e-05
3.68403742e-05
3.67961575e-05
3.53101831e-05
3.56048814e-05
3.68456907e-05
3.68048649e-05
3.53760021e-05
3.56735524e-05
3.68483791e-05
3.68126289e-05
3.55002617e-05
3.5774607e-05
3.68359739e-05
3.68135966e-05
3.53135441e-05
3.53137479e-05
3.56988149e-05
3.58048128e-05
3.57967775e-05
3.57057798e-05
3.57814097e-05
3.68464119e-05
3.68532472e-05
3.55134788e-05
3.57295895e-05
3.68492684e-05
3.68220314e-05
3.54784062e-05
3.57784883e-05
3.6832e-05
3.68020453e-05
3.50168652e-05
3.49906057e-05
3.57740049e-05
3.67571892e-05
3.68072558e-05
3.68092584e-05
3.48862202e-05
3.4878533e-05
3.52656681e-05
3.5752681e-05
3.68267061e-05
3.68444259e-05
3.52706018e-05
3.55547851e-05
3.68261772e-05
3.68380765e-05
3.53838523e-05
3.57689196e-05
3.67988611e-05
3.6786624e-05
3.68197928e-05
3.52089678e-05
3.52045733e-05
3.54944975e-05
3.57523946e-05
3.68274298e-05
3.68491532e-05
3.54400759e-05
3.57461977e-05
3.5877613e-05
3.5437617e-05
3.61632665e-05
3.68252618e-05
3.54953537e-05
3.55480059e-05
3.68302746e-05
3.68277896e-05
3.54339894e-05
3.5689778e-05
3.68343435e-05
3.68099636e-05
3.50556804e-05
3.50458583e-05
3.57141601e-05
3.68036e-05
3.68472372e-05
3.53168387e-05
3.55601363e-05
3.68094961e-05
3.68378572e-05
3.51005575e-05
3.57386124e-05
3.6822246e-05
3.54063832e-05
3.54081505e-05
3.68261553e-05
3.68117661e-05
3.52743821e-05
3.53975923e-05
3.68358888e-05
3.68006288e-05
3.52194193e-05
3.53767327e-05
3.68363099e-05
3.67977087e-05
3.52139861e-05
3.53707352e-05
3.68349929e-05
3.67974997e-05
3.52197308e-05
3.53700296e-05
3.68351388e-05
3.67984659e-05
3.52268672e-05
3.53737685e-05
3.68369947e-05
3.68007101e-05
3.52348667e-05
3.53789054e-05
3.68405163e-05
3.68053601e-05
3.52563116e-05
3.53925143e-05
3.68464257e-05
3.68127917e-05
3.53038368e-05
3.5434166e-05
3.68548912e-05
3.68195888e-05
3.54133115e-05
3.55458266e-05
3.68609669e-05
3.68175026e-05
3.5608716e-05
3.56837608e-05
3.58310076e-05
3.56678779e-05
3.5677767e-05
3.6847964e-05
3.68473597e-05
3.55554103e-05
3.56065496e-05
3.68667992e-05
3.6846387e-05
3.55250416e-05
3.56251078e-05
3.68743482e-05
3.68437885e-05
3.55842304e-05
3.55225922e-05
3.56453726e-05
3.57098847e-05
3.57024653e-05
3.5685128e-05
3.56719131e-05
3.68484476e-05
3.68581882e-05
3.56072261e-05
3.5590695e-05
3.68680086e-05
3.68495934e-05
3.55220754e-05
3.55618947e-05
3.68702983e-05
3.68418536e-05
3.55950907e-05
3.54093513e-05
3.54158597e-05
3.5431632e-05
3.68666621e-05
3.68397139e-05
3.57027294e-05
3.55535878e-05
3.57190972e-05
3.57229602e-05
3.55825737e-05
3.55915336e-05
3.68581924e-05
3.68597253e-05
3.55494383e-05
3.5415857e-05
3.68577719e-05
3.68592609e-05
3.54365185e-05
3.5346693e-05
3.68462468e-05
3.68497458e-05
3.54119753e-05
3.53735617e-05
3.68499136e-05
3.68277097e-05
3.5405573e-05
3.54608466e-05
3.68542407e-05
3.57296361e-05
3.51551591e-05
3.68464083e-05
3.6828046e-05
3.5497251e-05
3.53116711e-05
3.68290878e-05
3.6836275e-05
3.55123846e-05
3.53394474e-05
3.68285798e-05
3.68332933e-05
3.55520806e-05
3.53589197e-05
3.68497658e-05
3.68160642e-05
3.5720801e-05
3.5123761e-05
3.51361225e-05
3.68131441e-05
3.68185564e-05
3.57674793e-05
3.56940005e-05
3.68007426e-05
3.57613157e-05
3.51411798e-05
3.68036375e-05
3.68192886e-05
3.55047679e-05
3.51602428e-05
3.67783679e-05
3.68292485e-05
3.56419248e-05
3.53301034e-05
3.67677989e-05
3.68361171e-05
3.56782691e-05
3.53382969e-05
3.67700294e-05
3.68435828e-05
3.57316615e-05
3.54341897e-05
3.67694365e-05
3.68341079e-05
3.57891158e-05
3.56847287e-05
3.67559825e-05
3.5786267e-05
3.53761901e-05
3.67494007e-05
3.68156713e-05
3.57901745e-05
3.54400118e-05
3.67573786e-05
3.68163519e-05
3.57337533e-05
3.52252877e-05
3.5318214e-05
3.50946011e-05
3.50965729e-05
3.67200766e-05
3.68278536e-05
3.57481747e-05
3.53424576e-05
3.67259766e-05
3.68368606e-05
3.5681271e-05
3.53274223e-05
3.67277448e-05
3.68380026e-05
3.56658725e-05
3.53427444e-05
3.6734236e-05
3.6840161e-05
3.56484353e-05
3.53588464e-05
3.67485608e-05
3.68459651e-05
3.56087524e-05
3.54011285e-05
3.67654133e-05
3.68434133e-05
3.56672225e-05
3.56011811e-05
3.6782586e-05
3.60103844e-05
3.55153195e-05
3.57010182e-05
3.55205771e-05
3.55147628e-05
3.67869874e-05
3.68546957e-05
3.55996115e-05
3.53797951e-05
3.67954169e-05
3.68554534e-05
3.54366907e-05
3.52739995e-05
3.68004838e-05
3.68526342e-05
3.53989957e-05
3.5265241e-05
3.68037016e-05
3.68510401e-05
3.54143737e-05
3.52915816e-05
3.68098928e-05
3.68522589e-05
3.5464005e-05
3.53488386e-05
3.68226771e-05
3.68519424e-05
3.55595058e-05
3.5457977e-05
3.68372224e-05
3.6841542e-05
3.57365762e-05
3.56080599e-05
3.56785557e-05
3.5548359e-05
3.56836712e-05
3.68179554e-05
3.68419594e-05
3.60543751e-05
3.56891519e-05
3.57070806e-05
3.55417678e-05
3.55407393e-05
3.68195771e-05
3.68373257e-05
3.57206668e-05
3.54813485e-05
3.68423018e-05
3.68349771e-05
3.57319641e-05
3.50240727e-05
3.50284281e-05
3.68393616e-05
3.68026485e-05
3.57386731e-05
3.49468082e-05
3.49631601e-05
3.68128339e-05
3.68293744e-05
3.561116e-05
3.53358293e-05
3.68237989e-05
3.68331291e-05
3.55625874e-05
3.53553926e-05
3.68375672e-05
3.68268393e-05
3.55492275e-05
3.53305548e-05
3.68806123e-05
3.68074682e-05
3.57473044e-05
3.50238946e-05
3.50987578e-05
3.64319979e-05
3.68293063e-05
3.5764603e-05
3.53430808e-05
3.65495246e-05
3.68388799e-05
3.5762645e-05
3.53701884e-05
3.64473703e-05
3.68437983e-05
3.57642799e-05
3.54006605e-05
3.65101645e-05
3.683989e-05
3.57832737e-05
3.54519744e-05
3.6685785e-05
3.68268546e-05
3.57837577e-05
3.54836223e-05
3.68627263e-05
3.67961675e-05
3.58031955e-05
3.51553329e-05
3.51816416e-05
3.68561125e-05
3.68181405e-05
3.57833554e-05
3.56377308e-05
3.53052238e-05
3.54437789e-05
3.68190127e-05
3.58008772e-05
3.53398578e-05
3.6842374e-05
3.682298e-05
3.57858926e-05
3.55288455e-05
3.51560451e-05
3.51645452e-05
3.67878518e-05
3.68331295e-05
3.5797282e-05
3.54472953e-05
3.67817861e-05
3.68488095e-05
3.5793663e-05
3.54608191e-05
3.67808714e-05
3.6855477e-05
3.57868538e-05
3.55111669e-05
3.67808076e-05
3.685535e-05
3.57784431e-05
3.5604267e-05
3.67901165e-05
3.68511766e-05
3.58204132e-05
3.56838874e-05
3.57179081e-05
3.56858894e-05
3.55480729e-05
3.5537808e-05
3.67897589e-05
3.68533965e-05
3.57644991e-05
3.55800449e-05
3.67925782e-05
3.68509046e-05
3.57390029e-05
3.53677606e-05
3.53681352e-05
3.67900408e-05
3.6847515e-05
3.57988409e-05
3.56726126e-05
3.56950638e-05
3.56101985e-05
3.5599552e-05
3.67917516e-05
3.68562494e-05
3.57180858e-05
3.56699703e-05
3.68033392e-05
3.57275638e-05
3.5365045e-05
3.68029793e-05
3.68486303e-05
3.56341609e-05
3.55697426e-05
3.68190856e-05
3.5702911e-05
3.53221148e-05
3.68098221e-05
3.68486862e-05
3.55835668e-05
3.55076441e-05
3.68267004e-05
3.56215286e-05
3.54624258e-05
3.68299327e-05
3.56472505e-05
3.52147415e-05
3.68170395e-05
3.68488726e-05
3.54637051e-05
3.53085237e-05
3.68292686e-05
3.68414233e-05
3.5407919e-05
3.53709483e-05
3.6836514e-05
3.68357455e-05
3.54095429e-05
3.53554587e-05
3.68404601e-05
3.68404521e-05
3.54300039e-05
3.51694405e-05
3.5363256e-05
3.68379927e-05
3.68627186e-05
3.53680643e-05
3.53490814e-05
3.68519196e-05
3.68561605e-05
3.57900079e-05
3.68446347e-05
3.68614058e-05
3.56992186e-05
3.55818419e-05
3.56619718e-05
3.56011858e-05
3.55772111e-05
3.56060254e-05
3.55044538e-05
3.56033309e-05
3.68440809e-05
3.68659691e-05
3.55212675e-05
3.55257663e-05
3.68522649e-05
3.68631843e-05
3.5477912e-05
3.5492096e-05
3.6857391e-05
3.68633989e-05
3.54609981e-05
3.55327285e-05
3.68583173e-05
3.68655748e-05
3.54405162e-05
3.56794194e-05
3.68638323e-05
3.57193459e-05
3.54929856e-05
3.68596408e-05
3.68450343e-05
3.56954521e-05
3.54940607e-05
3.56223584e-05
3.54771367e-05
3.5549092e-05
3.54017119e-05
3.55204375e-05
3.68348225e-05
3.68670758e-05
3.54533939e-05
3.54427461e-05
3.68427949e-05
3.68604491e-05
3.54030871e-05
3.53860169e-05
3.68478152e-05
3.68593241e-05
3.53473047e-05
3.53345004e-05
3.68476935e-05
3.68582624e-05
3.53338969e-05
3.53278822e-05
3.68464259e-05
3.68560064e-05
3.53523092e-05
3.53516267e-05
3.68465228e-05
3.6853154e-05
3.53939285e-05
3.54148797e-05
3.68501765e-05
3.68452741e-05
3.54630099e-05
3.5579165e-05
3.68570096e-05
3.68232606e-05
3.58357066e-05
3.55200167e-05
3.56205398e-05
3.54103171e-05
3.56909827e-05
3.6851533e-05
3.56959906e-05
3.53424199e-05
3.68455491e-05
3.68511474e-05
3.54475296e-05
3.54005588e-05
3.68528896e-05
3.68380242e-05
3.54225007e-05
3.53670908e-05
3.68420021e-05
3.68443471e-05
3.55717481e-05
3.51788246e-05
3.5308948e-05
3.68324999e-05
3.68429327e-05
3.55811537e-05
3.50642073e-05
3.53749823e-05
3.68209666e-05
3.68444607e-05
3.53027446e-05
3.55805437e-05
3.68405434e-05
3.57088389e-05
3.51010909e-05
3.68341436e-05
3.68288537e-05
3.53249416e-05
3.52595207e-05
3.68410938e-05
3.68163232e-05
3.53269222e-05
3.55346768e-05
3.6848038e-05
3.57418754e-05
3.51181783e-05
3.6822833e-05
3.6826268e-05
3.53570132e-05
3.51637705e-05
3.68361578e-05
3.68223724e-05
3.51851256e-05
3.51119776e-05
3.6838755e-05
3.68285348e-05
3.52520055e-05
3.5229684e-05
3.68405287e-05
3.68296281e-05
3.53545648e-05
3.53507047e-05
3.68431519e-05
3.68225799e-05
3.54091697e-05
3.54729088e-05
3.68402839e-05
3.68080114e-05
3.60435126e-05
3.55218689e-05
3.54186725e-05
3.52770079e-05
3.52919997e-05
3.68447413e-05
3.68229591e-05
3.55021349e-05
3.54284005e-05
3.68612121e-05
3.68158353e-05
3.55083057e-05
3.53723057e-05
3.68696806e-05
3.68122472e-05
3.56793326e-05
3.49974442e-05
3.51421394e-05
3.68298244e-05
3.68422824e-05
3.53149901e-05
3.52765443e-05
3.68391932e-05
3.68156066e-05
3.53227311e-05
3.53558584e-05
3.68398082e-05
3.68073629e-05
3.53196249e-05
3.53865458e-05
3.68402108e-05
3.67997716e-05
3.53181085e-05
3.5423938e-05
3.68428655e-05
3.67894863e-05
3.53235838e-05
3.54798906e-05
3.68477782e-05
3.67754887e-05
3.53379533e-05
3.55515429e-05
3.6856311e-05
3.67576932e-05
3.53829002e-05
3.56118086e-05
3.68639816e-05
3.6779379e-05
3.56024542e-05
3.49934888e-05
3.55819329e-05
3.68133958e-05
3.67471324e-05
3.53520109e-05
3.5738651e-05
3.67966471e-05
3.67813719e-05
3.65073946e-05
3.53647158e-05
3.51828675e-05
3.51772415e-05
3.57202668e-05
3.68364044e-05
3.67848684e-05
3.68174131e-05
3.67418907e-05
3.55760463e-05
3.51213768e-05
3.51074134e-05
3.56873276e-05
3.68441137e-05
3.68007112e-05
3.58977692e-05
3.54104213e-05
3.53957984e-05
3.54593112e-05
3.52684207e-05
3.57352189e-05
3.68240595e-05
3.67495663e-05
3.55323886e-05