/*--------------------------------*- C++ -*----------------------------------*\
| =========                 |                                                 |
| \\      /  F ield         | OpenFOAM: The Open Source CFD Toolbox           |
|  \\    /   O peration     | Version:  2306                                  |
|   \\  /    A nd           | Website:  www.openfoam.com                      |
|    \\/     M anipulation  |                                                 |
\*---------------------------------------------------------------------------*/
FoamFile
{
    version     2.0;
    format      ascii;
    arch        "LSB;label=32;scalar=64";
    class       surfaceScalarField;
    location    "6e-05";
    object      phi;
}
// * * * * * * * * * * * * * * * * * * * * * * * * * * * * * * * * * * * * * //

dimensions      [1 0 -1 0 0 0 0];

oriented        oriented;

internalField   nonuniform List<scalar> 
3809
(
3.47974061e-06
3.05917858e-06
2.6573255e-06
2.14389247e-06
1.41372007e-06
7.18708581e-07
1.29662498e-08
-6.30049839e-07
-1.6427114e-06
-3.05013833e-06
-4.25381657e-06
-4.37557054e-06
-5.47429656e-06
-6.95068282e-06
-8.68116546e-06
-1.0049683e-05
-1.08617122e-05
-1.24101399e-05
-1.47396801e-05
-1.67645744e-05
-1.8332325e-05
-2.03301418e-05
-2.32381729e-05
-2.54783476e-05
-2.72659162e-05
-2.9644945e-05
-3.32455119e-05
-3.56170905e-05
-3.75422931e-05
-4.02234041e-05
-4.45403153e-05
-4.681133e-05
-4.86426469e-05
-5.12496669e-05
-5.5893433e-05
-5.74458927e-05
-5.84307622e-05
-6.01423252e-05
-6.43118442e-05
-6.48915253e-05
-6.46730111e-05
-6.4027503e-05
-6.32754147e-05
-6.02080425e-05
-5.87680885e-05
-6.03407669e-05
-5.77442745e-05
-5.51449931e-05
-5.2832858e-05
-5.33953743e-05
-5.05496605e-05
-4.81023164e-05
-4.57909892e-05
-4.57320177e-05
-4.26633672e-05
-4.0130151e-05
-3.78341572e-05
-3.76546047e-05
-3.56343222e-05
-3.25640259e-05
-3.12035217e-05
-3.12391242e-05
-2.98839577e-05
-2.76348406e-05
-2.66556874e-05
-2.66893408e-05
-2.56688302e-05
-2.40492741e-05
-2.34658077e-05
-2.34448693e-05
-2.31685419e-05
-2.21966407e-05
-2.14598304e-05
-2.09332543e-05
-2.0615089e-05
-2.00475137e-05
-1.92548015e-05
-1.88223565e-05
-1.86459533e-05
-1.82117978e-05
-1.76618787e-05
-1.73202625e-05
-1.69876026e-05
-1.6657341e-05
-1.63409934e-05
-1.60625292e-05
-1.57548923e-05
-1.54935239e-05
-1.53131414e-05
-1.50822535e-05
-1.48053481e-05
-1.4623091e-05
-1.46252765e-05
-1.44689103e-05
-1.41069766e-05
-1.4144206e-05
-1.41069933e-05
-1.39371134e-05
-1.38333994e-05
-1.36471061e-05
-1.35837914e-05
-1.34792637e-05
-1.33913333e-05
-1.26552854e-05
-1.2629557e-05
-1.25333861e-05
-1.24733762e-05
-1.23342048e-05
-1.23263089e-05
-1.2294703e-05
-1.22474867e-05
-1.2334853e-05
-1.23541491e-05
-1.22632542e-05
-1.22031459e-05
-1.25868335e-05
-1.25103501e-05
-1.21247917e-05
-1.20139704e-05
-1.19254413e-05
-1.18685306e-05
-1.18507637e-05
-1.18680717e-05
-1.18084155e-05
-1.17449338e-05
-1.19982594e-05
-1.19981221e-05
-1.18528557e-05
-1.1793481e-05
-1.20754448e-05
-1.20869896e-05
-1.19326952e-05
-1.18835367e-05
-1.21915362e-05
-1.22232402e-05
-1.20869832e-05
-1.20594016e-05
-1.23980287e-05
-1.24536672e-05
-1.23501261e-05
-1.23495921e-05
-1.27214938e-05
-1.27925365e-05
-1.27328449e-05
-1.2759823e-05
-1.31501627e-05
-1.32442032e-05
-1.32427383e-05
-1.32653911e-05
-1.39624677e-05
-1.3782389e-05
-1.34910115e-05
-1.35059927e-05
-1.34662528e-05
-1.33447895e-05
-1.33947263e-05
-1.36153851e-05
-1.35986246e-05
-1.32088765e-05
-1.32132429e-05
-1.33664672e-05
-1.33337938e-05
-1.32598692e-05
-1.32297087e-05
-1.32375092e-05
-1.31872186e-05
-1.31231014e-05
-1.30610825e-05
-1.29633737e-05
-1.2886089e-05
-1.28231049e-05
-1.27194052e-05
-1.25119541e-05
-1.23956935e-05
-1.23137654e-05
-1.21614883e-05
-1.1868476e-05
-1.17106683e-05
-1.15964975e-05
-1.14840806e-05
-1.12451617e-05
-1.11272706e-05
-1.08371849e-05
-1.04483572e-05
-1.02217979e-05
-1.00738688e-05
-9.81795213e-06
-9.37458611e-06
-9.13943545e-06
-9.07975135e-06
-8.77272387e-06
-8.61955601e-06
-8.35509671e-06
-7.86921462e-06
-7.67029548e-06
-7.53898658e-06
-7.37526711e-06
-7.00292857e-06
-6.85320761e-06
-6.77265006e-06
-6.6391603e-06
-6.30453382e-06
-6.17907942e-06
-6.1127337e-06
-6.00401853e-06
-5.67255512e-06
-5.52284157e-06
-5.40347436e-06
-5.25873731e-06
-4.89662113e-06
-4.67939019e-06
-4.46491633e-06
-4.27646374e-06
-3.91904806e-06
-3.66892139e-06
-3.41228555e-06
-3.25281613e-06
-2.96954954e-06
-2.75517503e-06
-2.53749142e-06
-2.45841114e-06
-2.25186998e-06
-2.08225138e-06
-1.91288455e-06
-1.88907047e-06
-1.68933073e-06
-1.50591301e-06
-1.33467373e-06
-1.37648637e-06
-1.30110862e-06
-1.08044804e-06
-7.45695043e-07
-6.38641987e-07
-4.4952311e-07
-1.77515384e-07
1.08722364e-07
3.72720014e-07
2.74416328e-07
4.19681224e-07
8.26528971e-07
1.21747338e-06
1.36514209e-06
1.63050371e-06
1.98939451e-06
2.4845763e-06
2.87636505e-06
3.26799917e-06
3.55272273e-06
4.35176357e-06
5.05926199e-06
5.65001136e-06
6.10222731e-06
6.63982055e-06
7.4479362e-06
8.10256793e-06
8.812513e-06
9.5651009e-06
1.04482389e-05
1.11613329e-05
1.15276068e-05
1.25156455e-05
1.33961257e-05
1.38284718e-05
1.42623731e-05
1.50428405e-05
1.59255063e-05
1.67973125e-05
1.71823824e-05
1.80645973e-05
1.90399883e-05
1.99526256e-05
2.08322458e-05
2.1955697e-05
2.25854348e-05
2.2477899e-05
2.31388099e-05
2.39263766e-05
2.46720018e-05
2.44537762e-05
2.51404966e-05
2.60108177e-05
2.69435797e-05
2.6797894e-05
2.77184197e-05
2.88189286e-05
2.99850342e-05
2.9715863e-05
3.05665839e-05
3.15865359e-05
3.26081036e-05
3.25231213e-05
3.36516601e-05
3.44099104e-05
3.34705112e-05
3.39366703e-05
3.45095958e-05
3.5127216e-05
3.39371171e-05
3.41662685e-05
3.61790058e-05
3.65571018e-05
3.58265668e-05
3.60818174e-05
3.57043708e-05
3.39359017e-05
3.34962183e-05
3.34094643e-05
3.28764009e-05
3.15128423e-05
3.0456925e-05
3.07524091e-05
2.94797532e-05
2.75963604e-05
2.61712255e-05
2.63773856e-05
2.49712692e-05
2.32704778e-05
2.16140686e-05
1.98747907e-05
1.81271042e-05
1.66002376e-05
1.61984269e-05
1.47297292e-05
1.29728928e-05
1.16670329e-05
1.11471949e-05
9.93960225e-06
8.56318775e-06
7.5606692e-06
7.09409743e-06
6.19600158e-06
5.2082663e-06
4.48776638e-06
4.09489539e-06
3.46344863e-06
2.80158972e-06
2.3050053e-06
1.96664426e-06
1.53920408e-06
1.11885099e-06
7.87257798e-07
4.90938501e-07
2.11968091e-07
-2.56554474e-08
-2.26148504e-07
-4.48841594e-07
-5.70181453e-07
-7.11812851e-07
-9.69139986e-07
-1.01375335e-06
-1.11710469e-06
-1.19809271e-06
-1.41109753e-06
-1.42822651e-06
-1.33028043e-06
-1.37099814e-06
-1.40341259e-06
-1.63538487e-06
-1.61517714e-06
-1.49433535e-06
-1.46088272e-06
-1.49681177e-06
-1.60400552e-06
-1.49381664e-06
-1.46480613e-06
-1.49685731e-06
-1.57792094e-06
-1.44320494e-06
-1.39920536e-06
-1.40386244e-06
-1.48911614e-06
-1.27614941e-06
-1.23864527e-06
-1.22498834e-06
-1.06417014e-06
-1.00126381e-06
-9.54216783e-07
-1.05673625e-06
-9.40921641e-07
-8.55228549e-07
-8.12635511e-07
-8.99285602e-07
-7.8056636e-07
-7.03715779e-07
-6.53342815e-07
-6.24195529e-07
-5.70221287e-07
-4.97483042e-07
-3.97391959e-07
-2.28173149e-07
-1.444641e-07
-8.10404635e-08
-2.13921981e-07
-1.65969694e-07
-7.3184298e-08
-1.68702907e-08
-1.10980024e-07
-5.3210005e-08
3.96774972e-08
8.78169122e-08
-1.82953923e-08
2.77189739e-08
1.11667268e-07
1.492191e-07
2.56836296e-08
5.62251478e-08
1.2972382e-07
1.51780948e-07
6.57387713e-09
1.24350162e-08
7.17503793e-08
7.39789551e-08
-7.88377865e-08
-1.01361235e-07
-7.94423799e-08
-1.02233413e-07
-1.80511158e-07
-2.72702048e-07
-3.28151754e-07
-3.52477924e-07
-3.25961991e-07
-3.64368696e-07
-4.52566041e-07
-6.52513535e-07
-7.9192453e-07
-7.35106101e-07
-8.6072077e-07
-1.06037563e-06
-1.57917186e-06
-1.72874701e-06
-1.95477952e-06
-2.30018531e-06
-2.9460613e-06
-3.10053544e-06
-3.47132655e-06
-3.98714465e-06
-4.84047912e-06
-4.99585612e-06
-5.53774156e-06
-6.23725565e-06
-7.01386702e-06
-7.78206763e-06
-8.59473681e-06
-9.31342646e-06
-9.22848343e-06
-1.00443456e-05
-1.1166046e-05
-1.2262818e-05
-1.24803178e-05
-1.34199401e-05
-1.45926382e-05
-1.43962793e-05
-1.53021227e-05
-1.67681571e-05
-1.75951905e-05
-1.73121222e-05
-1.81129268e-05
-1.89356488e-05
-1.98510079e-05
-2.0372696e-05
-1.942131e-05
-1.9996134e-05
-2.06996255e-05
-2.12840734e-05
-2.14998407e-05
-2.1828864e-05
-2.22851647e-05
-2.10508227e-05
-2.10452668e-05
-2.09339877e-05
-2.07418251e-05
-2.02787641e-05
-1.94359251e-05
-1.89806722e-05
-1.85377343e-05
-1.81955884e-05
-1.74193842e-05
-1.70627664e-05
-1.65681588e-05
-1.6105321e-05
-1.55347572e-05
-1.51098791e-05
-1.45548186e-05
-1.47272119e-05
-1.41733704e-05
-1.35096226e-05
-1.3049517e-05
-1.23828665e-05
-1.25026992e-05
-1.19735685e-05
-1.13367563e-05
-1.08238352e-05
-1.0033626e-05
-9.49608842e-06
-9.08547315e-06
-8.42499453e-06
-7.53414551e-06
-6.87275003e-06
-6.57070321e-06
-5.92710022e-06
-5.083037e-06
-4.49296299e-06
-4.35364519e-06
-3.79621298e-06
-3.0303239e-06
-2.53824151e-06
-2.48862808e-06
-2.03068619e-06
-1.49608548e-06
-1.01770197e-06
-6.52044499e-07
-6.49554577e-07
-3.28596482e-07
1.60615265e-07
4.00441171e-07
1.7608427e-07
3.69900307e-07
7.10905505e-07
8.919659e-07
6.03483508e-07
7.17248461e-07
9.22664252e-07
1.04280927e-06
7.66676886e-07
8.22797622e-07
9.48491323e-07
1.00736391e-06
7.63064711e-07
7.94365199e-07
8.22593934e-07
8.89449448e-07
8.48908085e-07
8.57265878e-07
9.34729131e-07
7.79945398e-07
7.92518745e-07
7.96973776e-07
9.62368387e-07
1.07407214e-06
8.7259739e-07
9.42200506e-07
9.62287606e-07
9.83321834e-07
1.04429186e-06
1.0856314e-06
1.13729582e-06
1.03564184e-06
1.07327906e-06
1.07698912e-06
1.09571531e-06
1.07249972e-06
1.12346588e-06
1.17101115e-06
1.20883507e-06
1.19876273e-06
1.27052192e-06
1.32669664e-06
1.38718789e-06
1.40775881e-06
1.48796532e-06
1.55157301e-06
1.63192804e-06
1.66260611e-06
1.73694961e-06
1.7933937e-06
1.89467477e-06
1.96922037e-06
1.97891794e-06
1.99391861e-06
2.14380151e-06
2.16691733e-06
2.19985817e-06
2.33347672e-06
2.31710866e-06
2.32695196e-06
2.32646832e-06
2.39949537e-06
2.37716853e-06
2.35526723e-06
2.34325899e-06
2.39341998e-06
2.32006618e-06
2.2974147e-06
2.28046856e-06
2.42442232e-06
2.47400263e-06
2.30260382e-06
2.28591667e-06
2.24940902e-06
2.2896827e-06
2.25629907e-06
2.2516227e-06
2.25308884e-06
2.3972439e-06
2.45082411e-06
2.37231409e-06
2.42274673e-06
2.43574056e-06
2.57183608e-06
2.50786087e-06
2.56106451e-06
2.68344879e-06
2.72460969e-06
2.77809201e-06
2.82203305e-06
2.96317626e-06
3.00500638e-06
3.02701569e-06
3.0580756e-06
3.17917224e-06
3.20107104e-06
3.19313712e-06
3.20284944e-06
3.31724488e-06
3.32265189e-06
3.29009134e-06
3.28044575e-06
3.37638685e-06
3.34214163e-06
3.29866544e-06
3.28270374e-06
3.28482631e-06
3.27953681e-06
3.25848093e-06
3.24411211e-06
3.20494247e-06
3.19357386e-06
3.06078329e-06
3.02076697e-06
2.98838221e-06
3.04776078e-06
3.01649007e-06
2.95320057e-06
2.91704101e-06
2.96648808e-06
2.931085e-06
2.8612788e-06
2.82137859e-06
2.86114824e-06
2.82238409e-06
2.74978562e-06
2.70885424e-06
2.7408049e-06
2.7007728e-06
2.62754017e-06
2.58895163e-06
2.61391366e-06
2.57323097e-06
2.49730389e-06
2.45633269e-06
2.46574388e-06
2.41558212e-06
2.33042711e-06
2.27389487e-06
2.25278341e-06
2.18378634e-06
2.09342387e-06
2.02594021e-06
1.9812336e-06
1.86784497e-06
1.75148236e-06
1.71552983e-06
1.57428493e-06
1.59734304e-06
1.55306751e-06
1.4960438e-06
1.44578738e-06
1.3408602e-06
1.25170712e-06
1.18016596e-06
1.17234926e-06
9.60361634e-07
9.66174656e-07
9.68570545e-07
9.49716505e-07
9.39286102e-07
7.81403389e-07
7.91340825e-07
7.9817391e-07
7.85859659e-07
5.89895821e-07
5.36198296e-07
5.92155247e-07
6.32347006e-07
6.14006908e-07
6.92776904e-07
8.2896332e-07
9.30340839e-07
1.02331958e-06
1.09636445e-06
1.19772541e-06
1.44438491e-06
1.62270332e-06
1.78277494e-06
1.6509845e-06
1.83128812e-06
2.15804322e-06
2.36092973e-06
2.26434345e-06
2.46588166e-06
2.89501876e-06
3.15772722e-06
3.32410677e-06
3.80996732e-06
4.12512879e-06
4.14772719e-06
4.56573278e-06
5.1222193e-06
5.53230776e-06
5.75075782e-06
6.35400707e-06
6.75761521e-06
6.96297317e-06
7.41971998e-06
8.02401489e-06
8.47206586e-06
8.76373823e-06
9.23212392e-06
9.8320415e-06
1.02952388e-05
1.06979505e-05
1.11332803e-05
1.17166533e-05
1.21191342e-05
1.29236503e-05
1.32031829e-05
1.3349763e-05
1.37751336e-05
1.40610662e-05
1.46435005e-05
1.49207355e-05
1.51908026e-05
1.53606385e-05
1.56534777e-05
1.57757765e-05
1.52415165e-05
1.5294351e-05
1.52806923e-05
1.54522245e-05
1.55315537e-05
1.55106738e-05
1.54165512e-05
1.5507218e-05
1.53945822e-05
1.51147602e-05
1.49127811e-05
1.48742901e-05
1.46702114e-05
1.42739446e-05
1.40248964e-05
1.38929016e-05
1.37011556e-05
1.33941805e-05
1.30352566e-05
1.25857229e-05
1.23149792e-05
1.19176092e-05
1.13460093e-05
1.09410612e-05
1.10443385e-05
1.06415236e-05
1.00157245e-05
9.58321488e-06
9.59604877e-06
9.15757241e-06
8.54253931e-06
8.10790001e-06
8.09764628e-06
7.7306258e-06
7.33877421e-06
6.70769959e-06
6.29349061e-06
6.29175141e-06
5.94144844e-06
5.50299079e-06
5.191692e-06
5.13819592e-06
4.8535479e-06
4.49394245e-06
4.25262952e-06
4.19631022e-06
3.98941663e-06
3.70848192e-06
3.64013455e-06
3.44578626e-06
3.23184209e-06
3.19291305e-06
3.0761507e-06
2.91425516e-06
2.80064722e-06
2.7903741e-06
2.69538146e-06
2.58231584e-06
2.50654073e-06
2.48947199e-06
2.41639974e-06
2.33955791e-06
2.28026769e-06
2.25196263e-06
2.19388408e-06
2.1355263e-06
2.08039432e-06
2.03382171e-06
1.97804319e-06
1.92701965e-06
1.86837569e-06
1.79585399e-06
1.73169667e-06
1.67842372e-06
1.61100081e-06
1.49834944e-06
1.43553671e-06
1.36406641e-06
1.2574895e-06
1.21175287e-06
1.12381446e-06
1.00615393e-06
8.06540206e-07
6.85927293e-07
5.64030674e-07
4.0765817e-07
2.72936569e-08
-9.48596432e-08
-1.56436819e-07
-3.3624397e-07
-5.53142801e-07
-1.08364848e-06
-1.29183954e-06
-1.27405392e-06
-1.54092562e-06
-1.84472017e-06
-2.40692394e-06
-2.53656704e-06
-2.86377957e-06
-3.32834637e-06
-3.89205797e-06
-4.03261569e-06
-4.4335229e-06
-4.99657166e-06
-5.55582668e-06
-5.6458638e-06
-6.08094514e-06
-6.72046701e-06
-7.32803077e-06
-7.38420989e-06
-7.88767715e-06
-8.63849084e-06
-9.32260515e-06
-9.33289756e-06
-9.88421301e-06
-1.07211727e-05
-1.13657632e-05
-1.11820081e-05
-1.17150416e-05
-1.23183184e-05
-1.3599796e-05
-1.43028935e-05
-1.45752538e-05
-1.38851844e-05
-1.42379454e-05
-1.48138376e-05
-1.51875455e-05
-1.46675748e-05
-1.48695013e-05
-1.52662588e-05
-1.54520159e-05
-1.48462719e-05
-1.48907502e-05
-1.50806813e-05
-1.5102843e-05
-1.4458913e-05
-1.4384773e-05
-1.43987832e-05
-1.43018564e-05
-1.36724392e-05
-1.35021317e-05
-1.33633519e-05
-1.31647304e-05
-1.25685206e-05
-1.23126686e-05
-1.20412026e-05
-1.17589241e-05
-1.1215687e-05
-1.08913957e-05
-1.05079031e-05
-1.01594692e-05
-9.68807425e-06
-9.31104327e-06
-8.80201975e-06
-8.35488269e-06
-7.89543928e-06
-7.39975476e-06
-6.98324855e-06
-6.51594126e-06
-6.22826525e-06
-5.90663281e-06
-5.44396595e-06
-5.0410542e-06
-4.55785677e-06
-4.0313655e-06
-3.59659562e-06
-3.20475555e-06
-2.66030151e-06
-2.32559254e-06
-2.25346699e-06
-1.90761764e-06
-1.43543352e-06
-1.11921572e-06
-1.11894919e-06
-8.1422192e-07
-3.98052927e-07
-1.09918442e-07
-1.50266216e-07
1.23967631e-07
4.64056698e-07
7.21060106e-07
6.25253223e-07
8.13828205e-07
1.07981834e-06
1.29712754e-06
1.18187642e-06
1.31908636e-06
1.50103421e-06
1.69980027e-06
1.52569169e-06
1.61623998e-06
1.72501747e-06
1.82499591e-06
1.94062555e-06
2.12286098e-06
2.2923658e-06
2.15846951e-06
2.22914127e-06
2.30668403e-06
2.51098511e-06
2.33881164e-06
2.38350493e-06
2.42790543e-06
2.61634563e-06
2.53718457e-06
2.51491129e-06
2.52149175e-06
2.64556715e-06
2.50177932e-06
2.44890504e-06
2.48546954e-06
2.52143745e-06
2.62847313e-06
2.42447285e-06
2.38654478e-06
2.3459361e-06
2.45822047e-06
2.25530043e-06
2.1855656e-06
2.14797546e-06
2.23596021e-06
2.03122457e-06
1.95360339e-06
1.87294648e-06
1.92958134e-06
1.66610854e-06
1.57365399e-06
1.55374176e-06
1.47184675e-06
1.33719685e-06
1.24474016e-06
1.24923747e-06
1.140544e-06
1.01870002e-06
9.20867428e-07
8.78948566e-07
7.28476554e-07
6.36411583e-07
5.46028646e-07
4.74330869e-07
3.82544709e-07
3.08523151e-07
2.2485133e-07
1.35793401e-07
1.30921751e-07
8.50067953e-08
3.43682882e-08
-3.56234978e-08
-1.92635424e-07
-2.15894049e-07
-2.70650634e-07
-3.57454224e-07
-3.48691077e-07
-3.84450094e-07
-4.30030697e-07
-5.48795555e-07
-5.52337268e-07
-5.63928918e-07
-6.00993599e-07
-7.29004168e-07
-6.45302322e-07
-6.39130607e-07
-6.80844736e-07
-6.05298453e-07
-5.77988828e-07
-8.01424687e-07
-6.53610689e-07
-6.11754845e-07
-6.23712035e-07
-4.80318418e-07
-4.04233803e-07
-3.44786477e-07
-4.54261656e-07
-3.66637838e-07
-2.4983562e-07
-1.70123009e-07
-2.82096442e-07
-1.62190547e-07
3.62736889e-10
1.20087311e-07
6.53592289e-08
2.0872288e-07
4.09633403e-07
5.6336704e-07
6.82804358e-07
8.21162121e-07
1.0353721e-06
1.33928519e-06
1.5776982e-06
1.76713127e-06
1.98409684e-06
2.25523466e-06
2.5016669e-06
2.64946873e-06
2.90967382e-06
3.20995449e-06
3.47768199e-06
3.69800366e-06
4.00976949e-06
4.32656224e-06
4.62947902e-06
4.91967929e-06
5.31311196e-06
5.56975772e-06
5.95138778e-06
6.33264773e-06
6.65252364e-06
7.03094384e-06
7.54513485e-06
7.96604914e-06
8.32553058e-06
8.76708561e-06
9.45496985e-06
9.98068409e-06
1.03949211e-05
1.09583533e-05
1.18960002e-05
1.2577441e-05
1.30909587e-05
1.3867015e-05
1.49005905e-05
1.60196064e-05
1.70268015e-05
1.82699553e-05
1.89444366e-05
2.00566226e-05
2.16790096e-05
2.34863818e-05
2.47063016e-05
2.66225424e-05
3.00200268e-05
3.26208442e-05
3.45008427e-05
3.7311757e-05
4.24944145e-05
4.61795025e-05
4.69769371e-05
5.01498305e-05
5.29395058e-05
5.61851717e-05
5.5362233e-05
5.72372656e-05
5.90456779e-05
6.0923668e-05
5.87892499e-05
5.924395e-05
6.02779001e-05
6.10970516e-05
5.85353426e-05
5.7819541e-05
5.81579113e-05
5.76783733e-05
5.46881382e-05
5.2869014e-05
5.26956235e-05
5.12578416e-05
4.83318632e-05
4.60114723e-05
4.57962952e-05
4.38460327e-05
4.13637843e-05
3.91279979e-05
3.9446314e-05
3.7658742e-05
3.60212572e-05
3.44217628e-05
3.53059637e-05
3.37026419e-05
3.18011118e-05
2.99899837e-05
2.82760426e-05
2.59194278e-05
2.40231375e-05
2.3037871e-05
2.18960654e-05
1.98183941e-05
1.89508392e-05
1.81377573e-05
1.73973596e-05
1.60856138e-05
1.44377846e-05
1.41970157e-05
1.37819545e-05
1.33557116e-05
1.23176181e-05
1.24875885e-05
1.22000258e-05
1.1924877e-05
1.12426684e-05
1.034407e-05
1.02931874e-05
1.01275324e-05
9.484863e-06
8.89892429e-06
9.25078782e-06
9.28964141e-06
8.78448571e-06
8.46827228e-06
8.991386e-06
9.18052592e-06
9.39436509e-06
9.3915312e-06
9.11471183e-06
9.44707357e-06
9.67335911e-06
9.69549806e-06
9.58288076e-06
1.00398847e-05
1.03596971e-05
1.05668266e-05
1.06334991e-05
1.11692976e-05
1.16141353e-05
1.21748762e-05
1.26575491e-05
1.24635783e-05
1.29106962e-05
1.3312514e-05
1.40153254e-05
1.39466322e-05
1.40344106e-05
1.42754985e-05
1.47457796e-05
1.45877443e-05
1.46015927e-05
1.45234487e-05
1.3891035e-05
1.34995869e-05
1.33218292e-05
1.3320366e-05
1.27827688e-05
1.28664105e-05
1.25091517e-05
1.14953851e-05
1.10004602e-05
1.06061695e-05
1.04238177e-05
9.70743267e-06
9.33095789e-06
8.878596e-06
8.01661598e-06
7.47378881e-06
6.85927368e-06
6.46612253e-06
5.59818553e-06
4.77165905e-06
3.98770644e-06
3.19571804e-06
2.41504453e-06
1.53916356e-06
6.81649608e-07
-1.78121041e-07
-1.34969307e-06
-2.28368373e-06
-3.13785866e-06
-4.34324062e-06
-5.3141282e-06
-5.83473441e-06
-6.68822152e-06
-7.66158017e-06
-8.42391868e-06
-9.12184466e-06
-9.80204022e-06
-1.0405249e-05
-1.09857666e-05
-1.14954559e-05
-1.20191946e-05
-1.24407189e-05
-1.28800009e-05
-1.32618794e-05
-1.36569323e-05
-1.39437715e-05
-1.42952523e-05
-1.46033968e-05
-1.49389968e-05
-1.52724891e-05
-1.54897929e-05
-1.54167887e-05
-1.5715454e-05
-1.59158983e-05
-1.61602283e-05
-1.62690349e-05
-1.64571478e-05
-1.66106484e-05
-1.75677617e-05
-1.773212e-05
-1.70042085e-05
-1.70265089e-05
-1.71848084e-05
-1.71158255e-05
-1.71437617e-05
-1.70864067e-05
-1.70418761e-05
-1.69429233e-05
-1.69061891e-05
-1.68215721e-05
-1.67497051e-05
-1.65859043e-05
-1.64822757e-05
-1.63270584e-05
-1.63670734e-05
-1.64432421e-05
-1.62988113e-05
-1.62205756e-05
-1.61691309e-05
-1.58755254e-05
-1.56146117e-05
-1.54030277e-05
-1.51771688e-05
-1.48441196e-05
-1.46732388e-05
-1.47215163e-05
-1.43948847e-05
-1.41715605e-05
-1.39301394e-05
-1.36492052e-05
-1.33476176e-05
-1.30916545e-05
-1.28018413e-05
-1.24989506e-05
-1.21890149e-05
-1.19512464e-05
-1.16337446e-05
-1.13046555e-05
-1.09920711e-05
-1.08091389e-05
-1.04999321e-05
-1.01650651e-05
-9.88504556e-06
-9.79809402e-06
-9.53314031e-06
-9.22189716e-06
-9.00353064e-06
-9.02479894e-06
-8.82352837e-06
-8.55662726e-06
-8.40661147e-06
-8.51665177e-06
-8.37841907e-06
-8.1600735e-06
-8.05944134e-06
-8.20981418e-06
-8.11851827e-06
-7.93488385e-06
-7.88490331e-06
-7.86892271e-06
-7.79523257e-06
-7.59715372e-06
-7.59434654e-06
-7.55163588e-06
-7.41833009e-06
-7.32738955e-06
-7.24877452e-06
-7.11840368e-06
-7.01273664e-06
-6.90664399e-06
-6.69147412e-06
-6.56398055e-06
-6.73628344e-06
-6.631521e-06
-6.41967169e-06
-6.36531707e-06
-6.34516973e-06
-6.23024472e-06
-6.04085093e-06
-5.95636161e-06
-5.95815076e-06
-5.89087187e-06
-5.76660451e-06
-5.69207731e-06
-5.51446511e-06
-5.5276271e-06
-5.49312129e-06
-5.45172921e-06
-5.45152394e-06
-5.41027644e-06
-5.2678548e-06
-5.21913976e-06
-5.39909931e-06
-5.3622304e-06
-5.22392744e-06
-5.27312699e-06
-5.26691233e-06
-5.18392087e-06
-5.12206991e-06
-4.99314481e-06
-4.97562225e-06
-4.94594183e-06
-4.9194125e-06
-4.91531758e-06
-4.87258467e-06
-4.77867983e-06
-4.69144859e-06
-4.71521257e-06
-4.881358e-06
-4.90092659e-06
-4.35803267e-06
-4.28828543e-06
-4.48672068e-06
-4.65957523e-06
-4.69390482e-06
-4.66387476e-06
-4.72447845e-06
-4.95566716e-06
-4.9931724e-06
-4.99994368e-06
-5.05894693e-06
-5.12412587e-06
-5.22740081e-06
-5.31257797e-06
-5.38902731e-06
-5.56035382e-06
-5.70433442e-06
-5.81566575e-06
-5.94206258e-06
-6.12605689e-06
-6.25608838e-06
-6.46880761e-06
-6.53018376e-06
-6.63057745e-06
-6.75422728e-06
-6.91271436e-06
-7.03011391e-06
-7.06370402e-06
-7.17226771e-06
-7.32100685e-06
-7.40494123e-06
-7.35847616e-06
-7.42888576e-06
-7.55152597e-06
-7.59983557e-06
-7.49386825e-06
-7.52784013e-06
-7.61543395e-06
-7.62772863e-06
-7.47727945e-06
-7.47582314e-06
-7.51915927e-06
-7.4922336e-06
-7.30861447e-06
-7.26881583e-06
-7.2590692e-06
-7.19091733e-06
-6.9845567e-06
-6.90904009e-06
-6.8480911e-06
-6.74896649e-06
-6.53639645e-06
-6.43986037e-06
-6.34717649e-06
-6.23425486e-06
-6.0317184e-06
-5.93803759e-06
-5.84323792e-06
-5.7326177e-06
-5.55090486e-06
-5.47415975e-06
-5.38174606e-06
-5.35265736e-06
-5.31564384e-06
-5.26789654e-06
-5.19096217e-06
-5.08794323e-06
-5.0170241e-06
-4.92145373e-06
-4.84671704e-06
-4.68858515e-06
-4.61610292e-06
-4.53384385e-06
-4.45754032e-06
-4.27679095e-06
-4.22078429e-06
-4.14607722e-06
-4.24979119e-06
-4.13845298e-06
-4.0211486e-06
-3.94139458e-06
-3.86978181e-06
-3.77170993e-06
-3.65188805e-06
-3.56078719e-06
-3.51426589e-06
-3.43469946e-06
-3.18225439e-06
-3.06860172e-06
-2.95215462e-06
-2.83533549e-06
-2.6046501e-06
-2.4789142e-06
-2.32872496e-06
-2.37734905e-06
-2.20250136e-06
-1.94306704e-06
-1.62010609e-06
-1.45548196e-06
-1.27285216e-06
-1.11502073e-06
-8.9649119e-07
-7.4051991e-07
-5.93191473e-07
-4.19026986e-07
-2.31794977e-07
-8.31539485e-08
6.11650129e-08
3.91695463e-08
1.89960577e-07
3.4695132e-07
4.7544275e-07
4.27658943e-07
5.69490645e-07
7.60838473e-07
8.96131878e-07
8.18255712e-07
9.73794763e-07
1.19604097e-06
1.35747612e-06
1.31576943e-06
1.51319663e-06
1.74854831e-06
1.90628209e-06
2.07835254e-06
2.3619962e-06
2.58014801e-06
2.5238082e-06
2.72952433e-06
3.06882202e-06
3.3058092e-06
3.24546285e-06
3.49192163e-06
3.87193069e-06
4.13608516e-06
4.11436965e-06
4.35791489e-06
4.76602154e-06
5.06631525e-06
5.34821696e-06
5.62660977e-06
5.93549263e-06
6.31963164e-06
6.63899265e-06
6.95531807e-06
7.2937339e-06
7.76901086e-06
8.10867646e-06
8.28030356e-06
8.77559855e-06
9.0986181e-06
9.22884979e-06
9.59901479e-06
1.01095499e-05
1.04814672e-05
1.05695114e-05
1.09140889e-05
1.14397779e-05
1.18355887e-05
1.20435966e-05
1.24555034e-05
1.29921152e-05
1.33899783e-05
1.36419062e-05
1.40304529e-05
1.45197494e-05
1.486697e-05
1.53027611e-05
1.56666204e-05
1.60733266e-05
1.64724689e-05
1.65176397e-05
1.69600819e-05
1.72219796e-05
1.76442631e-05
1.7951384e-05
1.83452328e-05
1.86188294e-05
1.90148708e-05
1.94791454e-05
1.9737645e-05
1.97267095e-05
1.94727955e-05
1.97755938e-05
1.98542137e-05
2.04406491e-05
2.06125161e-05
2.06415156e-05
2.06950829e-05
2.13230432e-05
2.1402037e-05
2.12485033e-05
2.11856096e-05
2.1794719e-05
2.1706189e-05
2.13002789e-05
2.104582e-05
2.15443943e-05
2.12538736e-05
2.06044812e-05
2.01719664e-05
2.05647292e-05
2.013643e-05
1.93550853e-05
1.88156102e-05
1.91495312e-05
1.84604677e-05
1.74354338e-05
1.76047397e-05
1.71723591e-05
1.65800756e-05
1.6030791e-05
1.54961774e-05
1.45529567e-05
1.40136141e-05
1.42253214e-05
1.37706032e-05
1.30412587e-05
1.26201739e-05
1.29069488e-05
1.25806669e-05
1.19877922e-05
1.16907686e-05
1.20265075e-05
1.17853622e-05
1.12977483e-05
1.10828865e-05
1.14412525e-05
1.12663772e-05
1.08631281e-05
1.06997798e-05
1.10455004e-05
1.09086663e-05
1.05653688e-05
1.04235126e-05
1.07200981e-05
1.05963956e-05
1.02818183e-05
1.01451131e-05
1.01358355e-05
1.0050359e-05
9.92267205e-06
9.74232843e-06
9.59395421e-06
9.35952362e-06
9.20200884e-06
9.49882356e-06
9.38046247e-06
9.0710651e-06
8.799269e-06
8.67557603e-06
8.36382844e-06
8.16039901e-06
7.97461043e-06
7.73262001e-06
7.48877417e-06
7.24279691e-06
6.98718169e-06
6.70930637e-06
6.40404119e-06
6.19083774e-06
5.91931183e-06
5.58295637e-06
5.20632872e-06
4.8988774e-06
4.64588351e-06
4.32064769e-06
3.62297283e-06
3.20018076e-06
3.00486358e-06
2.65185701e-06
1.77330434e-06
1.36208075e-06
1.2459134e-06
8.95052788e-07
-8.66257316e-08
-5.06099899e-07
-6.42179167e-07
-1.02829296e-06
-1.55072785e-06
-2.19787242e-06
-2.23625491e-06
-1.59809943e-06
-1.89525818e-06
-2.04605896e-06
-2.31148575e-06
-9.71594563e-07
-1.21946023e-06
-1.30438965e-06
-1.49062064e-06
-3.69032854e-07
-3.9783658e-07
-3.79714991e-07
-4.40661992e-07
8.84814386e-07
9.84010729e-07
1.23407856e-06
1.27456968e-06
3.1111925e-06
3.30393454e-06
3.5359194e-06
3.71337303e-06
4.20076931e-06
4.52954459e-06
4.74855764e-06
4.98691452e-06
5.35426538e-06
5.83929165e-06
6.2140959e-06
6.55197348e-06
6.93301311e-06
7.35474175e-06
7.61163921e-06
8.09622342e-06
8.48404977e-06
8.79410924e-06
9.32940661e-06
9.727971e-06
1.00901491e-05
1.04926572e-05
1.07073696e-05
1.09923171e-05
1.13764658e-05
1.17089221e-05
1.19899762e-05
1.2244004e-05
1.26256996e-05
1.2876703e-05
1.31260319e-05
1.33609781e-05
1.36978943e-05
1.39119047e-05
1.4141445e-05
1.43369443e-05
1.46304082e-05
1.48086887e-05
1.50126892e-05
1.51699927e-05
1.54266266e-05
1.55694977e-05
1.58316081e-05
1.59759767e-05
1.61845359e-05
1.63498336e-05
1.62648208e-05
1.60003784e-05
1.63451249e-05
1.6431783e-05
1.6625269e-05
1.67637672e-05
1.68858349e-05
1.69148326e-05
1.71150829e-05
1.69791588e-05
1.70909171e-05
1.69108664e-05
1.6898699e-05
1.70783735e-05
1.71340651e-05
1.70418048e-05
1.67533562e-05
1.65450084e-05
1.6200332e-05
1.60097132e-05
1.59215503e-05
1.56916839e-05
1.52194543e-05
1.50240637e-05
1.45816135e-05
1.40468039e-05
1.36364424e-05
1.37210011e-05
1.33427604e-05
1.27114763e-05
1.23410954e-05
1.17965517e-05
1.11646596e-05
1.06948178e-05
1.06997285e-05
1.02662547e-05
9.62720203e-06
9.67855534e-06
9.14872908e-06
8.5432002e-06
8.57303103e-06
8.09591226e-06
7.51002584e-06
7.08090906e-06
7.04742849e-06
6.63406689e-06
6.08187918e-06
5.69740002e-06
5.639948e-06
5.244878e-06
4.76249243e-06
4.4323162e-06
4.37086198e-06
4.03184231e-06
3.63379722e-06
3.30900273e-06
3.26048987e-06
3.04275617e-06
2.64717488e-06
2.38748728e-06
2.18221588e-06
2.15096714e-06
1.96365404e-06
1.72971228e-06
1.59300964e-06
1.43747966e-06
1.28808579e-06
1.18339703e-06
1.07742713e-06
9.98240582e-07
9.1493728e-07
8.46970157e-07
7.9723995e-07
7.49622829e-07
7.46342732e-07
6.46303591e-07
6.15664996e-07
6.14719665e-07
6.45462211e-07
5.71935287e-07
5.63949712e-07
5.9064754e-07
6.57271554e-07
6.04270313e-07
6.13238859e-07
6.54796197e-07
7.38635317e-07
7.01054534e-07
7.252166e-07
7.67298762e-07
8.74330996e-07
9.04057276e-07
9.31123138e-07
9.85406466e-07
1.00265811e-06
1.00270796e-06
1.06097715e-06
1.10807824e-06
1.14756584e-06
1.19201553e-06
1.22087555e-06
1.2711225e-06
1.33936907e-06
1.28857557e-06
1.31314624e-06
1.34500847e-06
1.45206968e-06
1.4494698e-06
1.44553865e-06
1.47995864e-06
1.58964422e-06
1.57743273e-06
1.58065629e-06
1.61072025e-06
1.72291322e-06
1.71362198e-06
1.71889274e-06
1.74411383e-06
1.85519118e-06
1.8381805e-06
1.83359215e-06
1.85087102e-06
1.96004766e-06
1.93824455e-06
1.92133896e-06
1.92741986e-06
2.04989827e-06
2.03514157e-06
1.98509351e-06
1.96798027e-06
2.09421227e-06
1.95461771e-06
1.93439206e-06
1.93100864e-06
1.97120468e-06
1.9610369e-06
1.95436831e-06
1.95700493e-06
1.93044856e-06
1.89151794e-06
1.87748257e-06
1.8471967e-06
1.77138605e-06
1.72599593e-06
1.82496377e-06
1.76035802e-06
1.67591789e-06
1.6369726e-06
1.71827477e-06
1.6439307e-06
1.55730939e-06
1.53078106e-06
1.43363629e-06
1.48311397e-06
1.39368959e-06
1.33517891e-06
1.2868187e-06
1.22898134e-06
1.26156974e-06
1.24206476e-06
1.20224352e-06
1.16318711e-06
1.15522496e-06
1.08328305e-06
1.04416999e-06
1.00727667e-06
1.04494288e-06
9.88774153e-07
9.67065571e-07
9.75767741e-07
9.65833674e-07
9.16729547e-07
8.82224977e-07
8.3031216e-07
7.88054282e-07
7.46084488e-07
6.74916267e-07
6.48533269e-07
5.99847681e-07
5.47113633e-07
4.60642619e-07
3.81404159e-07
3.39713582e-07
2.69885207e-07
1.232785e-07
5.80385261e-08
2.16744595e-08
-7.26538855e-08
-2.8842831e-07
-3.5206543e-07
-3.98000319e-07
-5.06227321e-07
-7.66837924e-07
-8.10207416e-07
-8.83896636e-07
-1.03477767e-06
-1.28996269e-06
-1.29428598e-06
-1.3909932e-06
-1.51904332e-06
-1.62259965e-06
-1.88257314e-06
-2.13229522e-06
-2.20449637e-06
-2.10076493e-06
-2.21939068e-06
-2.40000854e-06
-2.80025297e-06
-2.77650427e-06
-2.9388975e-06
-3.1628974e-06
-3.57988176e-06
-3.52733911e-06
-3.73663462e-06
-4.00811159e-06
-4.31923827e-06
-4.50236721e-06
-4.20269782e-06
-4.4998547e-06
-4.84575163e-06
-5.5021461e-06
-5.4775132e-06
-5.85149922e-06
-6.41541094e-06