/*--------------------------------*- C++ -*----------------------------------*\
| =========                 |                                                 |
| \\      /  F ield         | OpenFOAM: The Open Source CFD Toolbox           |
|  \\    /   O peration     | Version:  2306                                  |
|   \\  /    A nd           | Website:  www.openfoam.com                      |
|    \\/     M anipulation  |                                                 |
\*---------------------------------------------------------------------------*/
FoamFile
{
    version     2.0;
    format      ascii;
    arch        "LSB;label=32;scalar=64";
    class       volScalarField;
    location    "0.00164";
    object      prefDPV_H2O;
}
// * * * * * * * * * * * * * * * * * * * * * * * * * * * * * * * * * * * * * //

dimensions      [1 -1 -1 0 0 0 0];

internalField   nonuniform List<scalar> 
531
(
-3.84135332e-07
-3.84448624e-07
-3.84101611e-07
-3.74072859e-07
-3.64946244e-07
-3.64998186e-07
-3.63306296e-07
-3.63237904e-07
-3.85476531e-07
-3.84349678e-07
-3.65473197e-07
-3.64261991e-07
-3.85226435e-07
-3.84229687e-07
-3.66155263e-07
-3.64719497e-07
-3.84858255e-07
-3.8436999e-07
-3.68253977e-07
-3.64026568e-07
-3.63892704e-07
-3.85124276e-07
-3.84195899e-07
-3.65423786e-07
-3.64692418e-07
-3.85621148e-07
-3.84007976e-07
-3.84541233e-07
-3.6554635e-07
-3.64535551e-07
-3.85601613e-07
-3.83866356e-07
-3.84601915e-07
-3.66727308e-07
-3.62211547e-07
-3.62569602e-07
-3.8546959e-07
-3.84243584e-07
-3.84593607e-07
-3.65797831e-07
-3.64702057e-07
-3.85429481e-07
-3.83797612e-07
-3.8434729e-07
-3.67798438e-07
-3.6389121e-07
-3.63809372e-07
-3.84882601e-07
-3.84310359e-07
-3.66871769e-07
-3.64626844e-07
-3.63228569e-07
-3.63252728e-07
-3.85768224e-07
-3.84063181e-07
-3.84920146e-07
-3.66803283e-07
-3.63940695e-07
-3.85105526e-07
-3.84252305e-07
-3.65818939e-07
-3.64898953e-07
-3.85224948e-07
-3.83982313e-07
-3.65666293e-07
-3.65621947e-07
-3.85233634e-07
-3.69559997e-07
-3.63661798e-07
-3.8489646e-07
-3.84373126e-07
-3.66432482e-07
-3.64537205e-07
-3.84806484e-07
-3.84389615e-07
-3.67936419e-07
-3.63798409e-07
-3.63716404e-07
-3.8502111e-07
-3.84015728e-07
-3.84075787e-07
-3.66249573e-07
-3.64956599e-07
-3.8476565e-07
-3.84245584e-07
-3.68896364e-07
-3.64414452e-07
-3.64740013e-07
-3.62459809e-07
-3.62362597e-07
-3.85948481e-07
-3.84313936e-07
-3.84994379e-07
-3.83882095e-07
-3.84172312e-07
-3.66791469e-07
-3.63943762e-07
-3.63768015e-07
-3.85193872e-07
-3.84148111e-07
-3.65771389e-07
-3.64649518e-07
-3.85291118e-07
-3.83977103e-07
-3.65405025e-07
-3.65337341e-07
-3.85257442e-07
-3.67997448e-07
-3.63347194e-07
-3.85067051e-07
-3.84361229e-07
-3.65598153e-07
-3.64520296e-07
-3.85299805e-07
-3.84070634e-07
-3.65076722e-07
-3.65034165e-07
-3.85436269e-07
-3.83663478e-07
-3.8439282e-07
-3.69051481e-07
-3.63903377e-07
-3.63842978e-07
-3.84732204e-07
-3.84406619e-07
-3.67658612e-07
-3.63760194e-07
-3.63642277e-07
-3.84896334e-07
-3.84129638e-07
-3.66340947e-07
-3.64971382e-07
-3.84926867e-07
-3.83907571e-07
-3.66502163e-07
-3.65538595e-07
-3.84709702e-07
-3.83841392e-07
-3.68267381e-07
-3.65727293e-07
-3.6442413e-07
-3.64365063e-07
-3.85297427e-07
-3.84106253e-07
-3.64862011e-07
-3.64797061e-07
-3.85531056e-07
-3.83835498e-07
-3.84655029e-07
-3.66484529e-07
-3.641717e-07
-3.85072366e-07
-3.84208016e-07
-3.65544017e-07
-3.64688956e-07
-3.85276293e-07
-3.84061296e-07
-3.6513382e-07
-3.65105631e-07
-3.8533041e-07
-3.83708073e-07
-3.84482991e-07
-3.69947884e-07
-3.64793253e-07
-3.63924409e-07
-3.63853799e-07
-3.85524156e-07
-3.84297215e-07
-3.64881022e-07
-3.64228067e-07
-3.85555731e-07
-3.84171397e-07
-3.64736379e-07
-3.64632565e-07
-3.85533908e-07
-3.83793187e-07
-3.84688778e-07
-3.67078565e-07
-3.63169128e-07
-3.63042533e-07
-3.85198676e-07
-3.84403636e-07
-3.65290997e-07
-3.64152771e-07
-3.85623067e-07
-3.84221417e-07
-3.84524642e-07
-3.84086971e-07
-3.71734753e-07
-3.65557676e-07
-3.65400801e-07
-3.64758159e-07
-3.62675552e-07
-3.62656468e-07
-3.85650233e-07
-3.84546533e-07
-3.8453276e-07
-3.84316229e-07
-3.69136752e-07
-3.65168096e-07
-3.63962175e-07
-3.63966664e-07
-3.85444762e-07
-3.840045e-07
-3.8464574e-07
-3.66492328e-07
-3.64978268e-07
-3.85188145e-07
-3.83714578e-07
-3.8434248e-07
-3.69462114e-07
-3.63967538e-07
-3.63934996e-07
-3.8475088e-07
-3.84467498e-07
-3.67182993e-07
-3.63300724e-07
-3.63185963e-07
-3.8502184e-07
-3.84177517e-07
-3.65250686e-07
-3.64894325e-07
-3.85502825e-07
-3.83652719e-07
-3.84525656e-07
-3.68254666e-07
-3.63430961e-07
-3.6358759e-07
-3.84995574e-07
-3.83994359e-07
-3.84142373e-07
-3.66558829e-07
-3.65906826e-07
-3.85011659e-07
-3.74984191e-07
-3.64277019e-07
-3.84847926e-07
-3.84124448e-07
-3.67923603e-07
-3.65303626e-07
-3.64121741e-07
-3.64123694e-07
-3.85250544e-07
-3.8386091e-07
-3.84336417e-07
-3.68179953e-07
-3.6424565e-07
-3.64819732e-07
-3.62792892e-07
-3.62746517e-07
-3.85613496e-07
-3.84403651e-07
-3.84669098e-07
-3.65436859e-07
-3.64112071e-07
-3.8572423e-07
-3.84484363e-07
-3.84722633e-07
-3.84484677e-07
-3.66163255e-07
-3.63768775e-07
-3.84936408e-07
-3.84623006e-07
-3.66664187e-07
-3.63362361e-07
-3.63222316e-07
-3.85139216e-07
-3.84172011e-07
-3.65700415e-07
-3.65308709e-07
-3.85511285e-07
-3.83644306e-07
-3.84511753e-07
-3.71644357e-07
-3.64466259e-07
-3.64755161e-07
-3.62455466e-07
-3.62348096e-07
-3.85916207e-07
-3.84333059e-07
-3.85048223e-07
-3.83904616e-07
-3.84234166e-07
-3.6665481e-07
-3.6381052e-07
-3.63639674e-07
-3.85246727e-07
-3.84120964e-07
-3.65436438e-07
-3.65186616e-07
-3.85573073e-07
-3.83654047e-07
-3.84507916e-07
-3.69914892e-07
-3.64407627e-07
-3.64886168e-07
-3.62556173e-07
-3.62493757e-07
-3.85846829e-07
-3.84508493e-07
-3.84870701e-07
-3.64854631e-07
-3.63257502e-07
-3.86023763e-07
-3.84571508e-07
-3.84955292e-07
-3.84461553e-07
-3.657437e-07
-3.64149294e-07
-3.85549523e-07
-3.84351291e-07
-3.84424094e-07
-3.84300084e-07
-3.70987036e-07
-3.64703438e-07
-3.65023381e-07
-3.63120395e-07
-3.63002058e-07
-3.855622e-07
-3.84324193e-07
-3.64887022e-07
-3.64619793e-07
-3.85791182e-07
-3.84119977e-07
-3.84708654e-07
-3.77542989e-07
-3.64594823e-07
-3.64574377e-07
-3.62846889e-07
-3.62814385e-07
-3.8563135e-07
-3.84133337e-07
-3.84669072e-07
-3.66098819e-07
-3.64690343e-07
-3.85264835e-07
-3.83698105e-07
-3.84256724e-07
-3.67213903e-07
-3.63521394e-07
-3.63397009e-07
-3.84970351e-07
-3.83960768e-07
-3.651806e-07
-3.64776098e-07
-3.85347979e-07
-3.83430413e-07
-3.84251991e-07
-3.69836732e-07
-3.63189269e-07
-3.63546225e-07
-3.60836009e-07
-3.6075666e-07
-3.85969346e-07
-3.84517845e-07
-3.84747895e-07
-3.84370495e-07
-3.83629764e-07
-3.84161951e-07
-3.6724242e-07
-3.60462324e-07
-3.60811711e-07
-3.84453542e-07
-3.83010971e-07
-3.83235353e-07
-3.62362881e-07
-3.60709512e-07
-3.83122017e-07
-3.82078895e-07
-3.81545213e-07
-3.81516219e-07
-3.62942323e-07
-3.81693985e-07
-3.79337355e-07
-3.59771341e-07
-3.58644168e-07
-3.81189105e-07
-3.7770978e-07
-3.80025266e-07
-3.76569332e-07
-3.78384532e-07
-3.7506214e-07
-3.76020767e-07
-3.73264737e-07
-3.73240722e-07
-3.71211534e-07
-3.70523005e-07
-3.69014464e-07
-3.67999485e-07
-3.6678875e-07
-3.65685619e-07
-3.64657565e-07
-3.63661443e-07
-3.62866991e-07
-3.62366316e-07
-3.62676911e-07
-3.61327486e-07
-3.60106616e-07
-3.58512444e-07
-3.56947217e-07
-3.55308911e-07
-3.53388116e-07
-3.51694244e-07
-3.49411459e-07
-3.47650904e-07
-3.4509227e-07
-3.43526273e-07
-3.41712667e-07
-3.42715407e-07
-3.40408668e-07
-3.39079386e-07
-3.36150841e-07
-3.33912744e-07
-3.30759928e-07
-3.276072e-07
-3.24481733e-07
-3.1974262e-07
-3.16504898e-07
-3.10944575e-07
-3.08412316e-07
-3.0204287e-07
-3.00408828e-07
-2.92885766e-07
-3.011147e-07
-3.00344167e-07
-2.97888227e-07
-2.89556206e-07
-2.85638869e-07
-2.78258214e-07
-2.73259374e-07
-2.66313896e-07
-2.60178195e-07
-2.53452623e-07
-2.45989531e-07
-2.41129015e-07
-2.36149377e-07
-2.31815016e-07
-2.26548064e-07
-2.21898946e-07
-2.16449492e-07
-2.11517695e-07
-2.0585337e-07
-2.08857486e-07
-2.00162379e-07
-1.88607675e-07
-1.70942428e-07
-1.42714198e-07
-1.39747508e-07
-1.85025233e-07
-8.05375587e-08
-5.81432425e-08
-3.25991316e-08
-9.1172724e-09
1.42924787e-08
3.61553271e-08
6.00734635e-08
8.4867902e-08
1.10949738e-07
1.40691867e-07
1.69036299e-07
2.03358777e-07
2.32889123e-07
2.70751178e-07
3.00318259e-07
3.40002058e-07
3.68189715e-07
4.06573284e-07
4.3233223e-07
4.68477683e-07
4.91234574e-07
5.23406054e-07
5.42808619e-07
5.71534871e-07
5.88032376e-07
6.14356914e-07
6.28709999e-07
6.52486106e-07
6.65157107e-07
6.86578685e-07
6.97943133e-07
7.1685253e-07
7.27645666e-07
7.459631e-07
7.56557613e-07
7.72921028e-07
7.82654344e-07
7.97665221e-07
8.05179369e-07
8.18607517e-07
8.28191961e-07
8.422396e-07
8.41078114e-07
8.50145624e-07
8.75129251e-07
8.90076907e-07
8.62433282e-07
8.6876927e-07
9.23831848e-07
9.50716612e-07
8.80990846e-07
8.87774559e-07
9.73556924e-07
9.93636905e-07
9.09395564e-07
9.14353702e-07
9.99636192e-07
1.00282628e-06
9.47202727e-07
9.37042993e-07
1.00639724e-06
1.01086867e-06
9.69704292e-07
9.56952532e-07
1.01380825e-06
1.01645274e-06
9.8470285e-07
9.72138853e-07
1.01975255e-06
1.02168543e-06
9.94636347e-07
9.83383368e-07
1.02445029e-06
1.02566242e-06
1.00147131e-06
9.92060861e-07
1.02806065e-06
1.02885194e-06
1.00612303e-06
9.98987958e-07
1.03128321e-06
1.03155736e-06
)
;

boundaryField
{
    closed
    {
        type            calculated;
        value           nonuniform List<scalar> 0();
    }
    open
    {
        type            calculated;
        value           nonuniform List<scalar> 0();
    }
    sides
    {
        type            empty;
    }
    procBoundary4to3
    {
        type            processor;
        value           uniform -3.85480854e-07;
    }
    procBoundary4to5
    {
        type            processor;
        value           uniform 1.01010058e-06;
    }
}


// ************************************************************************* //
