/*--------------------------------*- C++ -*----------------------------------*\
| =========                 |                                                 |
| \\      /  F ield         | OpenFOAM: The Open Source CFD Toolbox           |
|  \\    /   O peration     | Version:  2306                                  |
|   \\  /    A nd           | Website:  www.openfoam.com                      |
|    \\/     M anipulation  |                                                 |
\*---------------------------------------------------------------------------*/
FoamFile
{
    version     2.0;
    format      ascii;
    arch        "LSB;label=32;scalar=64";
    class       volScalarField;
    location    "0.001";
    object      prefDZ_H;
}
// * * * * * * * * * * * * * * * * * * * * * * * * * * * * * * * * * * * * * //

dimensions      [1 -1 -1 0 0 0 0];

internalField   nonuniform List<scalar> 
530
(
0.00011131514
0.000108350802
0.000107848726
0.000107840882
0.000107840119
0.000107840097
0.000107840095
0.000107840095
0.000107840095
0.000107840095
0.000107840095
0.000107840095
0.000107840095
0.000107840095
0.000107840095
0.000107840095
0.000107840095
0.000107840095
0.000107840095
0.000107840095
0.000107840095
0.000107840095
0.000107840095
0.000107840095
0.000107840095
0.000107840095
0.000107840095
0.000107840095
0.000107840095
0.000107840095
0.000107840095
0.000107840095
0.000107840095
0.000107840095
0.000107840095
0.000107840095
0.000107840095
0.000107840095
0.000107840095
0.000107840095
0.000107840095
0.000107840095
0.000107840095
0.000107840095
0.000107840095
0.000107840095
0.000107840095
0.000107840095
0.000107840095
0.000107840095
0.000107840095
0.000107840095
0.000107840095
0.000107840095
0.000107840095
0.000107840095
0.000107840095
0.000107840095
0.000107840095
0.000107840095
0.000107840095
0.000107840095
0.000107840095
0.000107840095
0.000107840095
0.000107840095
0.000107840096
0.000107840096
0.000107840097
0.000107840101
0.000107840109
0.000107840131
0.000107840171
0.000107840268
0.000107840438
0.00010784078
0.000107841261
0.000107842329
0.00010784463
0.000107846776
0.00010783906
0.000107844682
0.000107905845
0.00010791979
0.0001077585
0.000107796115
0.000108487541
0.000109007992
0.000107823608
0.000106974116
0.000107885606
0.000110288733
0.000110344769
0.000106082239
0.000105768838
0.000107820907
0.000110182508
0.000110319057
0.00011035103
0.000106155522
0.00010596385
0.000106902961
0.00010782566
0.000110266199
0.00011035931
0.000110263248
0.000110398056
0.000106294492
0.000106147793
0.000106775671
0.000107803025
0.000110209878
0.000110411071
0.000106237817
0.000106164636
0.000106262542
0.000107380892
0.0001101891
0.000110299945
0.000110250221
0.000110310786
0.000110293781
0.000106068396
0.000105178383
0.000107799119
0.000110225301
0.000110394895
0.000106295329
0.000106024246
0.000107822637
0.000110279864
0.000110465625
0.000106648881
0.000107076827
0.000110318051
0.000110445083
0.000106778825
0.000106915924
0.000110343692
0.00011041978
0.000106634916
0.0001069656
0.000110380267
0.000110354437
0.000106242629
0.00010587401
0.00010773486
0.000110258652
0.000110513079
0.000106660525
0.000107235195
0.000110302623
0.00011045533
0.000106710444
0.000107151805
0.000110357371
0.000110368412
0.000106396161
0.000106083633
0.000107735471
0.000110260713
0.000110497826
0.000106826677
0.000107389308
0.000110296625
0.000110439407
0.000106834018
0.000107329063
0.000110346643
0.000110351094
0.000106366421
0.000106078953
0.000107769944
0.00011027412
0.000110482196
0.000106518601
0.000106576105
0.000107030365
0.000107771779
0.000110299518
0.000110469496
0.000107061233
0.000107363884
0.000110329936
0.000110421787
0.00010682644
0.000107277001
0.000110364666
0.000110331482
0.00010639967
0.000106135257
0.000107746959
0.000110238817
0.000110467936
0.00010659098
0.000107466082
0.000110295981
0.000110352327
0.000106276133
0.000106028098
0.000107814899
0.00011029728
0.000110372892
0.000106218833
0.000106069299
0.000107817997
0.000110286748
0.000110444403
0.000106476559
0.000107087796
0.000110311951
0.00011040852
0.00010655777
0.000106811356
0.00011033896
0.000110376802
0.000106528192
0.000106707094
0.000110354472
0.000110354987
0.000106488063
0.000106674064
0.000110361883
0.000110340632
0.000106480357
0.000106689913
0.000110362845
0.000110330611
0.000106511917
0.000106751411
0.000110358823
0.000110322435
0.000106540544
0.000106850659
0.000110355151
0.000110312222
0.000106410619
0.000107022961
0.000110375358
0.000110264444
0.000105954085
0.000105774261
0.000107771395
0.0001102793
0.000110433824
0.000106486828
0.000107350309
0.000110300931
0.000110385579
0.000106589457
0.000107311647
0.000110350197
0.000110316002
0.000106201987
0.000106089577
0.000107756715
0.000110300493
0.000110417489
0.000106581866
0.000107545811
0.000110332496
0.000110347753
0.000106313976
0.000106249835
0.000107757717
0.000110297611
0.000110404925
0.000106679439
0.000107330428
0.000110329348
0.000110355844
0.000106582641
0.000106589868
0.00010716567
0.000107774185
0.000110328104
0.00011038613
0.000107026108
0.000107622193
0.000110343001
0.000110332954
0.000106252211
0.000106228916
0.000107938825
0.000110279616
0.000110308143
0.000110286352
0.000106407087
0.000106404025
0.000107020649
0.000107799163
0.000110319924
0.000110337383
0.000106486684
0.000106453195
0.000107777532
0.000110305795
0.000110352482
0.000106424247
0.000106417027
0.000107792537
0.000110317465
0.00011033749
0.00010638254
0.000106377506
0.000107789976
0.000110327812
0.00011032787
0.000106352289
0.000106343614
0.000107781857
0.000110292405
0.000110357806
0.000106559107
0.000107503959
0.000110339472
0.000110312495
0.000106082992
0.000106037169
0.000107771382
0.000110305751
0.0001103841
0.000106473452
0.000107778563
0.000110313033
0.00011035432
0.000110291252
0.000110312949
0.000105723223
0.000105693358
0.000106563873
0.000107602686
0.000110314612
0.000110340694
0.000106670392
0.000107250121
0.000110347261
0.000110328604
0.000106553191
0.000107223856
0.000110383381
0.000110291406
0.000106084948
0.000106009997
0.000107741454
0.000110282881
0.000110387489
0.000106776069
0.000107593074
0.000110304277
0.000110336934
0.000106914207
0.000107606542
0.000110335096
0.00011026005
0.000106364787
0.000106235821
0.000107787545
0.000110179034
0.000110286575
0.000106022919
0.000106054557
0.00010594747
0.000107199291
0.000110184046
0.000110269343
0.000110121829
0.000110256269
0.000110059967
0.00010593984
0.000105239515
0.000107849085
0.000110167794
0.000110250611
0.000105938091
0.000105925996
0.000106823548
0.000106724392
0.000107968237
0.000110275161
0.000110293196
0.000110274627
0.000110261775
0.000106468867
0.00010682132
0.000110316515
0.000110223225
0.000106027637
0.000105884052
0.000107801581
0.00011024138
0.000110314521
0.000106386281
0.000107488723
0.00011031279
0.000110270501
0.00010583427
0.000105742151
0.00010777484
0.000110330619
0.000110344113
0.000105560123
0.000107767283
0.000110285319
0.000107114568
0.000107734458
0.000110363072
0.000110267702
0.000110312863
0.000106582821
0.000106989241
0.000110272454
0.000110279027
0.000110232644
0.000105393054
0.000105365649
0.000106760399
0.000106370368
0.000107776678
0.000110239936
0.00011033813
0.000106596538
0.000107714278
0.000110301952
0.000110329847
0.000110267344
0.000106814786
0.000106889197
0.000110346405
0.000110244242
0.000105972903
0.000105804138
0.000107793698
0.000110253187
0.000110325361
0.000106487537
0.000107541974
0.000110307677
0.000110311781
0.00011026594
0.000106171887
0.000105714554
0.000107827137
0.000110290645
0.000110273694
0.000106220616
0.000106212136
0.000107822727
0.000110298988
0.00011028343
0.000106295667
0.000106289038
0.000107817292
0.000110302739
0.000110284965
0.000106242968
0.000106232396
0.000107830076
0.000110305407
0.000110300321
0.000106222494
0.000106207719
0.000107815438
0.000110310137
0.000110315556
0.000110283855
0.000110269852
0.000105761369
0.000105387535
0.000107879173
0.000110288807
0.0001102564
0.000106008213
0.000105994395
0.000107782835
0.000110303028
0.000110336628
0.000106508007
0.000107218273
0.000110315364
0.000110334377
0.000106667122
0.000107078383
0.000110327807
0.000110302564
0.000106559263
0.000107139523
0.000110368774
0.000110266541
0.000106076916
0.000105926243
0.000107768103
0.000110285255
0.000110393189
0.000106609672
0.000107337111
0.000110306378
0.000110362942
0.000106615089
0.000107245313
0.000110361383
0.00011031232
0.000106154675
0.000106026342
0.000107754889
0.000110305626
0.000110406131
0.000106713399
0.000107416881
0.00011030512
0.000110358506
0.000106754664
0.000107392911
0.00011033944
0.000110274642
0.000106170922
0.000105918674
0.000107755378
0.000110273501
0.000110369363
0.000105824008
0.000106574704
0.000110265982
0.000110345298
0.000106508463
0.000107061163
0.000110284525
0.000110307855
0.000106867968
0.000107429582
)
;

boundaryField
{
    closed
    {
        type            calculated;
        value           uniform 0.000143842848;
    }
    open
    {
        type            calculated;
        value           nonuniform List<scalar> 0();
    }
    sides
    {
        type            empty;
    }
    procBoundary0to1
    {
        type            processor;
        value           uniform 0.000110334149;
    }
}


// ************************************************************************* //
