/*--------------------------------*- C++ -*----------------------------------*\
| =========                 |                                                 |
| \\      /  F ield         | OpenFOAM: The Open Source CFD Toolbox           |
|  \\    /   O peration     | Version:  2306                                  |
|   \\  /    A nd           | Website:  www.openfoam.com                      |
|    \\/     M anipulation  |                                                 |
\*---------------------------------------------------------------------------*/
FoamFile
{
    version     2.0;
    format      ascii;
    arch        "LSB;label=32;scalar=64";
    class       volScalarField;
    location    "0.001";
    object      prefDh_H2O;
}
// * * * * * * * * * * * * * * * * * * * * * * * * * * * * * * * * * * * * * //

dimensions      [1 1 -3 0 0 0 0];

internalField   nonuniform List<scalar> 
530
(
90.933092
89.8591348
89.8172705
89.8193945
89.8195719
89.8195747
89.8195748
89.8195748
89.8195748
89.8195748
89.8195748
89.8195748
89.8195748
89.8195748
89.8195748
89.8195748
89.8195748
89.8195748
89.8195748
89.8195748
89.8195748
89.8195748
89.8195748
89.8195748
89.8195748
89.8195748
89.8195748
89.8195748
89.8195748
89.8195748
89.8195748
89.8195748
89.8195748
89.8195748
89.8195748
89.8195748
89.8195748
89.8195748
89.8195748
89.8195748
89.8195748
89.8195748
89.8195748
89.8195748
89.8195748
89.8195748
89.8195748
89.8195748
89.8195748
89.8195748
89.8195748
89.8195748
89.8195748
89.8195748
89.8195748
89.8195748
89.8195748
89.8195748
89.8195748
89.8195748
89.8195748
89.8195748
89.8195748
89.8195748
89.8195748
89.8195748
89.8195748
89.8195747
89.8195746
89.8195743
89.8195736
89.8195721
89.8195691
89.8195579
89.8195559
89.8195248
89.8191987
89.8194642
89.8230388
89.8216496
89.7856281
89.7838489
89.9840504
89.9926787
89.1650028
88.8098168
91.2481112
92.0711083
88.430458
88.0306888
89.7772556
92.3309686
92.5195733
87.7324696
87.6791633
89.4269708
92.501863
92.2763465
92.5128913
87.7572342
87.7166603
87.9949842
89.330524
92.331859
92.328006
92.3540244
92.3899686
87.8191703
87.7612399
87.9806568
88.2555378
92.3970468
92.2966592
87.8088136
87.7623454
87.8283372
88.1364297
92.4492959
92.2927714
92.4713216
92.3423935
92.4818595
87.7245261
87.5058416
88.5109772
92.4591903
92.2783205
87.8045475
87.7319227
88.2676506
92.3924146
92.2210568
87.9118231
88.0197144
92.3387783
92.27627
87.9406297
87.977757
92.3239505
92.2939512
87.8911513
88.002591
92.3381421
92.3386005
87.7555732
87.6956442
88.3548056
92.397303
92.19398
87.9235305
88.0607316
92.3396455
92.2544047
87.9252612
88.0522001
92.3318279
92.3216503
87.8091574
87.7550323
88.5468619
92.3710039
92.1913941
87.9763538
88.1120321
92.3226082
92.2473367
87.9674416
88.1105003
92.3261248
92.3195514
87.8056463
87.756804
88.3387881
92.381006
92.2521875
87.8790242
87.8685819
88.0377347
88.4803759
92.29283
92.2079239
88.0380622
88.1099873
92.2915057
92.2628986
87.959788
88.0985328
92.3110181
92.3318769
87.8145206
87.7798818
88.6266435
92.3748201
92.2026032
87.9145591
88.1452947
92.3552006
92.3193151
87.7950326
87.7385182
88.4756929
92.3776994
92.2864319
87.7772797
87.7490241
88.2923273
92.369399
92.237113
87.8690916
88.0274541
92.3308852
92.3107456
87.8831192
87.9533116
92.3138809
92.3497434
87.8676379
87.9278778
92.3096553
92.3729198
87.8519768
87.9213286
92.3085795
92.3868923
87.8483796
87.9279632
92.3070436
92.3940836
87.858547
87.9476794
92.3059805
92.3961183
87.8688933
87.9784952
92.3127007
92.3939411
87.8293417
88.0341123
92.3387848
92.4128316
87.6788984
87.6765121
88.3086134
92.3651879
92.2764843
87.8773381
88.1019225
92.3346892
92.3307293
87.8960793
88.1037045
92.3306214
92.368992
87.7597665
87.7585233
88.5789853
92.3375326
92.2771758
87.9005943
88.1651955
92.3347099
92.3388557
87.7981401
87.8000509
88.6996977
92.3400927
92.2950001
87.9277823
88.1004489
92.3178096
92.3939898
87.8865563
87.8859339
88.0683832
88.7165968
92.2668742
92.2933638
88.0252349
88.1939404
92.3098751
92.3482825
87.7863386
87.7910149
89.9803296
92.3886335
92.2848938
92.4786345
87.8425082
87.8423182
88.0308896
88.7734779
92.3038786
92.3129883
87.8549898
87.8578132
89.1345159
92.3357151
92.3175686
87.8427111
87.8432798
89.1249585
92.3286503
92.3196567
87.8293054
87.834193
88.9122425
92.325004
92.3250987
87.816597
87.8298419
88.666465
92.3461509
92.3201271
87.8916199
88.1582533
92.3426521
92.3735249
87.7265659
87.7391851
88.4667192
92.3330767
92.2999597
87.8694665
88.2331764
92.3704199
92.3535844
92.4012576
92.5333819
87.6408469
87.6182491
87.8989781
88.1850866
92.3239143
92.3668705
87.9170622
88.0794311
92.3073235
92.4008421
87.8726784
88.0776416
92.3224978
92.4023153
87.7173056
87.735376
88.5445031
92.3547325
92.315332
87.9619549
88.1767144
92.3055532
92.3575261
87.9961521
88.1972047
92.3123355
92.3845582
87.8175208
87.8214643
88.6772784
92.4186556
92.4365195
87.7744
87.7386279
87.7626638
88.0779293
92.4619211
92.3237266
92.5895634
92.3641702
92.6629708
87.7042626
87.5663249
88.3999497
92.4689964
92.4606086
87.7235201
87.7069191
87.9795063
87.9419658
90.0280742
92.3237611
92.3617591
92.3384389
92.5087043
87.8642719
87.9716863
92.3497497
92.4558656
87.7172695
87.7141051
88.4528079
92.3878776
92.3603691
87.849062
88.1593319
92.3712439
92.4095898
87.6576587
87.656585
88.2342029
92.3544304
92.3373393
87.58992
88.9563153
92.4730511
88.0417964
88.242649
92.368084
92.2839959
92.4934518
87.9079502
88.0094539
92.4236226
92.3672999
92.5336403
87.5438635
87.5510917
87.9417593
87.8539323
88.8437815
92.3582798
92.33347
87.9153595
88.2215158
92.3707323
92.2472597
92.5058554
87.9582334
87.9892164
92.3269021
92.4492578
87.6942793
87.6845008
88.3936713
92.3807323
92.3518966
87.8788791
88.1748985
92.3454334
92.2936475
92.4755234
87.7667217
87.6513935
88.5257992
92.3690564
92.3735964
87.7832038
87.7937604
88.5893903
92.3466075
92.3514294
87.8057582
87.8158949
88.6569798
92.3418847
92.34684
87.7897607
87.7994133
88.4909306
92.340581
92.339264
87.7852673
87.7863247
89.2329324
92.3341659
92.3139766
92.3875497
92.4629082
87.6524399
87.5557497
88.290638
92.4076709
92.3897865
87.7148388
87.7299599
88.2414533
92.3534712
92.3406198
87.8739669
88.0670696
92.3228597
92.3805835
87.9186476
88.0314447
92.3119467
92.3998634
87.8793902
88.059507
92.3276189
92.4060308
87.716848
87.7149824
88.3207202
92.3477984
92.3035886
87.9107009
88.0941669
92.3249696
92.3505362
87.901892
88.0784529
92.3258802
92.3763969
87.7408066
87.7349977
88.4034464
92.3310145
92.2887464
87.939571
88.118848
92.314147
92.3366136
87.9478095
88.1303931
92.3271667
92.3841945
87.7537782
87.7166922
88.2248086
92.3983655
92.3582163
87.6795574
87.8658109
92.3758647
92.4004864
87.8839067
88.0280677
92.3216019
92.3699684
87.9849304
88.1494884
)
;

boundaryField
{
    closed
    {
        type            calculated;
        value           uniform 120.218032;
    }
    open
    {
        type            calculated;
        value           nonuniform List<scalar> 0();
    }
    sides
    {
        type            empty;
    }
    procBoundary0to1
    {
        type            processor;
        value           uniform 92.3126255;
    }
}


// ************************************************************************* //
