/*--------------------------------*- C++ -*----------------------------------*\
| =========                 |                                                 |
| \\      /  F ield         | OpenFOAM: The Open Source CFD Toolbox           |
|  \\    /   O peration     | Version:  2306                                  |
|   \\  /    A nd           | Website:  www.openfoam.com                      |
|    \\/     M anipulation  |                                                 |
\*---------------------------------------------------------------------------*/
FoamFile
{
    version     2.0;
    format      ascii;
    arch        "LSB;label=32;scalar=64";
    class       volScalarField;
    location    "0.001";
    object      prefDZ_T;
}
// * * * * * * * * * * * * * * * * * * * * * * * * * * * * * * * * * * * * * //

dimensions      [1 -1 -1 -1 0 0 0];

internalField   nonuniform List<scalar> 
530
(
-1.21809595e-09
-1.20501287e-09
-1.20402395e-09
-1.20403259e-09
-1.20403318e-09
-1.20403318e-09
-1.20403318e-09
-1.20403318e-09
-1.20403318e-09
-1.20403318e-09
-1.20403318e-09
-1.20403318e-09
-1.20403318e-09
-1.20403318e-09
-1.20403318e-09
-1.20403318e-09
-1.20403318e-09
-1.20403318e-09
-1.20403318e-09
-1.20403318e-09
-1.20403318e-09
-1.20403318e-09
-1.20403318e-09
-1.20403318e-09
-1.20403318e-09
-1.20403318e-09
-1.20403318e-09
-1.20403318e-09
-1.20403318e-09
-1.20403318e-09
-1.20403318e-09
-1.20403318e-09
-1.20403318e-09
-1.20403318e-09
-1.20403318e-09
-1.20403318e-09
-1.20403318e-09
-1.20403318e-09
-1.20403318e-09
-1.20403318e-09
-1.20403318e-09
-1.20403318e-09
-1.20403318e-09
-1.20403318e-09
-1.20403318e-09
-1.20403318e-09
-1.20403318e-09
-1.20403318e-09
-1.20403318e-09
-1.20403318e-09
-1.20403318e-09
-1.20403318e-09
-1.20403318e-09
-1.20403318e-09
-1.20403318e-09
-1.20403318e-09
-1.20403318e-09
-1.20403318e-09
-1.20403318e-09
-1.20403318e-09
-1.20403318e-09
-1.20403318e-09
-1.20403318e-09
-1.20403318e-09
-1.20403318e-09
-1.20403318e-09
-1.20403318e-09
-1.20403318e-09
-1.20403318e-09
-1.20403318e-09
-1.20403319e-09
-1.2040332e-09
-1.20403322e-09
-1.20403324e-09
-1.20403343e-09
-1.20403358e-09
-1.20403138e-09
-1.20403495e-09
-1.20406837e-09
-1.20405909e-09
-1.20374117e-09
-1.20373283e-09
-1.20552267e-09
-1.20561328e-09
-1.19834358e-09
-1.19537391e-09
-1.21710411e-09
-1.22484874e-09
-1.19219131e-09
-1.18904094e-09
-1.20372679e-09
-1.22699094e-09
-1.22895434e-09
-1.18643148e-09
-1.18614271e-09
-1.20065551e-09
-1.22870727e-09
-1.22644059e-09
-1.22888822e-09
-1.18664886e-09
-1.18637805e-09
-1.18867945e-09
-1.19984008e-09
-1.2269909e-09
-1.22698953e-09
-1.22721802e-09
-1.22764349e-09
-1.18724809e-09
-1.18670808e-09
-1.18866744e-09
-1.19076923e-09
-1.22763953e-09
-1.2266883e-09
-1.18718863e-09
-1.18670115e-09
-1.18740077e-09
-1.18983544e-09
-1.22816908e-09
-1.22660198e-09
-1.22842007e-09
-1.22711766e-09
-1.22854598e-09
-1.18634998e-09
-1.18469098e-09
-1.1928412e-09
-1.2282853e-09
-1.22649258e-09
-1.18706461e-09
-1.1864945e-09
-1.1908092e-09
-1.22762008e-09
-1.22593244e-09
-1.18795999e-09
-1.18875246e-09
-1.22708342e-09
-1.22649264e-09
-1.18815199e-09
-1.18843887e-09
-1.22694128e-09
-1.22666407e-09
-1.18771532e-09
-1.18869012e-09
-1.22710262e-09
-1.22709661e-09
-1.18651808e-09
-1.18622482e-09
-1.19142899e-09
-1.2276618e-09
-1.22567376e-09
-1.18809336e-09
-1.18905479e-09
-1.22708601e-09
-1.22627172e-09
-1.18804861e-09
-1.18906763e-09
-1.22702809e-09
-1.22692786e-09
-1.18699288e-09
-1.18670868e-09
-1.19305974e-09
-1.22739186e-09
-1.2256405e-09
-1.18854463e-09
-1.18949855e-09
-1.22690805e-09
-1.22619211e-09
-1.18842033e-09
-1.18957075e-09
-1.2269649e-09
-1.22689904e-09
-1.18698752e-09
-1.18673608e-09
-1.19134077e-09
-1.22750029e-09
-1.22626034e-09
-1.18771544e-09
-1.18750704e-09
-1.18905384e-09
-1.19254453e-09
-1.2266024e-09
-1.22579872e-09
-1.18901443e-09
-1.18951078e-09
-1.22660133e-09
-1.22634501e-09
-1.18833242e-09
-1.18949092e-09
-1.22681679e-09
-1.22701787e-09
-1.18705604e-09
-1.18695379e-09
-1.19375253e-09
-1.22742229e-09
-1.2257432e-09
-1.18807046e-09
-1.18982274e-09
-1.22724349e-09
-1.22689712e-09
-1.1869698e-09
-1.1865711e-09
-1.19256322e-09
-1.22747568e-09
-1.22656693e-09
-1.1868199e-09
-1.18665166e-09
-1.19101214e-09
-1.22738592e-09
-1.22608888e-09
-1.18764435e-09
-1.18883765e-09
-1.22699961e-09
-1.22683232e-09
-1.18771617e-09
-1.18827001e-09
-1.2268356e-09
-1.22722063e-09
-1.18755898e-09
-1.18808656e-09
-1.22679851e-09
-1.22745018e-09
-1.1874135e-09
-1.18804738e-09
-1.22679051e-09
-1.22758808e-09
-1.18737812e-09
-1.1881107e-09
-1.22677509e-09
-1.22765798e-09
-1.18746527e-09
-1.18827967e-09
-1.22676246e-09
-1.22767557e-09
-1.18755857e-09
-1.18853943e-09
-1.22683016e-09
-1.22764898e-09
-1.18722874e-09
-1.18901735e-09
-1.2271072e-09
-1.22782398e-09
-1.18592486e-09
-1.18610459e-09
-1.19108678e-09
-1.22733952e-09
-1.22649007e-09
-1.18773496e-09
-1.18942448e-09
-1.22703426e-09
-1.22702851e-09
-1.18783873e-09
-1.1895072e-09
-1.22701269e-09
-1.2273937e-09
-1.18662251e-09
-1.18674466e-09
-1.19336108e-09
-1.22706337e-09
-1.2264903e-09
-1.18790583e-09
-1.18996367e-09
-1.22704747e-09
-1.22709647e-09
-1.18696077e-09
-1.18706509e-09
-1.19438729e-09
-1.22708856e-09
-1.22666863e-09
-1.18812235e-09
-1.18943552e-09
-1.22687209e-09
-1.22766739e-09
-1.18772693e-09
-1.18770942e-09
-1.1892592e-09
-1.19455289e-09
-1.22634671e-09
-1.22664389e-09
-1.18889787e-09
-1.19022853e-09
-1.22679601e-09
-1.22718743e-09
-1.18689122e-09
-1.18697843e-09
-1.20553005e-09
-1.22758105e-09
-1.22652417e-09
-1.22850981e-09
-1.18739889e-09
-1.1874004e-09
-1.18897889e-09
-1.19506939e-09
-1.22672468e-09
-1.22682575e-09
-1.18745342e-09
-1.18753237e-09
-1.19810908e-09
-1.22704683e-09
-1.22687919e-09
-1.1873795e-09
-1.1873959e-09
-1.19804748e-09
-1.22697886e-09
-1.22689449e-09
-1.18726439e-09
-1.18733211e-09
-1.1962358e-09
-1.22694557e-09
-1.22694657e-09
-1.18714346e-09
-1.18732026e-09
-1.19413756e-09
-1.22714882e-09
-1.22690776e-09
-1.18782198e-09
-1.18993672e-09
-1.22713214e-09
-1.22743893e-09
-1.18635736e-09
-1.18656859e-09
-1.19242811e-09
-1.22701963e-09
-1.22671099e-09
-1.18765304e-09
-1.19050517e-09
-1.22740718e-09
-1.22725085e-09
-1.22771573e-09
-1.22908335e-09
-1.18572906e-09
-1.18548839e-09
-1.18790875e-09
-1.19014048e-09
-1.2269289e-09
-1.22738201e-09
-1.18799795e-09
-1.18927937e-09
-1.22677149e-09
-1.22772671e-09
-1.18758983e-09
-1.18929506e-09
-1.22694283e-09
-1.22772668e-09
-1.18623991e-09
-1.18655375e-09
-1.19304779e-09
-1.22723331e-09
-1.22687074e-09
-1.18842879e-09
-1.19004305e-09
-1.22673548e-09
-1.22728425e-09
-1.18867893e-09
-1.19029731e-09
-1.22681808e-09
-1.22753115e-09
-1.18713908e-09
-1.18734768e-09
-1.19423701e-09
-1.2278497e-09
-1.2280767e-09
-1.18701661e-09
-1.18654105e-09
-1.18695791e-09
-1.18933507e-09
-1.22829699e-09
-1.2269084e-09
-1.22958523e-09
-1.22731968e-09
-1.23031574e-09
-1.18625406e-09
-1.18534317e-09
-1.19196718e-09
-1.22836337e-09
-1.22831002e-09
-1.18649183e-09
-1.18630275e-09
-1.18858919e-09
-1.18824303e-09
-1.20597448e-09
-1.22691113e-09
-1.22730989e-09
-1.22706212e-09
-1.22880912e-09
-1.18759356e-09
-1.18849213e-09
-1.22719577e-09
-1.22825026e-09
-1.18630975e-09
-1.18643838e-09
-1.19235101e-09
-1.22755778e-09
-1.22730431e-09
-1.18750723e-09
-1.18997489e-09
-1.22741557e-09
-1.22779307e-09
-1.18580654e-09
-1.18589877e-09
-1.19052535e-09
-1.22724978e-09
-1.22707935e-09
-1.18529439e-09
-1.1965802e-09
-1.22845198e-09
-1.18898607e-09
-1.19070563e-09
-1.22740374e-09
-1.22649828e-09
-1.22867289e-09
-1.18799755e-09
-1.18874554e-09
-1.22793828e-09
-1.22736116e-09
-1.22905385e-09
-1.18492186e-09
-1.18503687e-09
-1.18819176e-09
-1.18758776e-09
-1.19563644e-09
-1.2272524e-09
-1.22703703e-09
-1.1880734e-09
-1.19045246e-09
-1.22740586e-09
-1.22614523e-09
-1.22878207e-09
-1.18832852e-09
-1.18862423e-09
-1.22697281e-09
-1.22819069e-09
-1.18609196e-09
-1.1861682e-09
-1.19183863e-09
-1.22748898e-09
-1.22722152e-09
-1.18775343e-09
-1.19009988e-09
-1.22714769e-09
-1.22661589e-09
-1.2284696e-09
-1.1867466e-09
-1.18586659e-09
-1.1930049e-09
-1.22738398e-09
-1.22742382e-09
-1.18689148e-09
-1.18703308e-09
-1.19353849e-09
-1.22715622e-09
-1.22719952e-09
-1.18707932e-09
-1.18721402e-09
-1.19410476e-09
-1.22710912e-09
-1.22715288e-09
-1.18694544e-09
-1.18707855e-09
-1.19271307e-09
-1.22709679e-09
-1.22708113e-09
-1.18691484e-09
-1.18694616e-09
-1.19899608e-09
-1.22703265e-09
-1.22682691e-09
-1.22757162e-09
-1.22834142e-09
-1.18582681e-09
-1.18506958e-09
-1.19108129e-09
-1.22778075e-09
-1.2275835e-09
-1.18630312e-09
-1.18650552e-09
-1.19061088e-09
-1.22722856e-09
-1.22711004e-09
-1.18766533e-09
-1.18916421e-09
-1.22691834e-09
-1.22752057e-09
-1.18802251e-09
-1.18890356e-09
-1.22681106e-09
-1.22770599e-09
-1.18766694e-09
-1.18918119e-09
-1.22698948e-09
-1.22775483e-09
-1.18624421e-09
-1.18640109e-09
-1.191185e-09
-1.22716287e-09
-1.22675217e-09
-1.18799746e-09
-1.18934171e-09
-1.22693638e-09
-1.22722304e-09
-1.18787865e-09
-1.18927369e-09
-1.2269685e-09
-1.22746842e-09
-1.1864454e-09
-1.18652986e-09
-1.19186887e-09
-1.22699834e-09
-1.22660471e-09
-1.1882272e-09
-1.18954637e-09
-1.22682437e-09
-1.22707784e-09
-1.18827694e-09
-1.1897373e-09
-1.22697265e-09
-1.22753333e-09
-1.18658676e-09
-1.18643065e-09
-1.19042962e-09
-1.22767875e-09
-1.22730477e-09
-1.18608572e-09
-1.18747361e-09
-1.22744405e-09
-1.22772991e-09
-1.18778999e-09
-1.18888447e-09
-1.22689272e-09
-1.22740041e-09
-1.18859833e-09
-1.18993476e-09
)
;

boundaryField
{
    closed
    {
        type            calculated;
        value           uniform -1.46766113e-09;
    }
    open
    {
        type            calculated;
        value           nonuniform List<scalar> 0();
    }
    sides
    {
        type            empty;
    }
    procBoundary0to1
    {
        type            processor;
        value           uniform -1.22682067e-09;
    }
}


// ************************************************************************* //
