/*--------------------------------*- C++ -*----------------------------------*\
| =========                 |                                                 |
| \\      /  F ield         | OpenFOAM: The Open Source CFD Toolbox           |
|  \\    /   O peration     | Version:  2306                                  |
|   \\  /    A nd           | Website:  www.openfoam.com                      |
|    \\/     M anipulation  |                                                 |
\*---------------------------------------------------------------------------*/
FoamFile
{
    version     2.0;
    format      ascii;
    arch        "LSB;label=32;scalar=64";
    class       volScalarField;
    location    "0.00148";
    object      prefDZ_H2;
}
// * * * * * * * * * * * * * * * * * * * * * * * * * * * * * * * * * * * * * //

dimensions      [1 -1 -1 0 0 0 0];

internalField   nonuniform List<scalar> 
530
(
0.000173499178
0.000173577657
0.00017471138
0.000174684745
0.000173846254
0.000173954112
0.000175033737
0.000174993566
0.000174148735
0.000174317798
0.0001752546
0.000175240663
0.000174411664
0.000174634146
0.000175501183
0.000175497885
0.000174675364
0.000174904812
0.000175745512
0.000175734795
0.00017495001
0.000175143487
0.000175986493
0.00017596346
0.000175221335
0.000175382031
0.000176219456
0.000176187247
0.000175466682
0.000175613625
0.000176439561
0.000176409792
0.000175701539
0.00017585287
0.000176655642
0.00017662956
0.000175929767
0.000176081177
0.000176853916
0.000176846765
0.000176155704
0.000176301447
0.000177030245
0.000177059886
0.000176376589
0.00017651488
0.000177208455
0.000177263786
0.000176598243
0.000176718198
0.000177401724
0.000177459888
0.000176822428
0.000176912181
0.000177605224
0.000177642184
0.000177013526
0.000177102635
0.000177808223
0.000177813697
0.000177192793
0.000177270373
0.000177968129
0.000177972895
0.000177367173
0.000177429758
0.00017812432
0.000178127016
0.000177537608
0.000177591288
0.000178282058
0.000178279872
0.000177703491
0.000177754337
0.000178438668
0.000178435493
0.00017786659
0.000177928654
0.000178598449
0.000178589788
0.000178020657
0.000178096989
0.000178746126
0.000178742569
0.000178172784
0.000178263914
0.000178902664
0.000178896014
0.000178333365
0.000178421126
0.000179064475
0.000179056517
0.000178508955
0.00017859301
0.000179229659
0.000179219411
0.000178681226
0.00017876663
0.000179393983
0.000179384533
0.000178858781
0.000178938073
0.00017955762
0.000179549753
0.000179031702
0.000179102917
0.000179714531
0.000179715089
0.00017920566
0.000179281637
0.00017988674
0.000179880016
0.000179380622
0.000179453455
0.000180053149
0.000180045844
0.000179556623
0.000179626552
0.000180220458
0.000180214318
0.000179733378
0.000179804142
0.000180389223
0.00018038557
0.00017990431
0.000179983585
0.000180558391
0.000180558163
0.000180078756
0.000180164623
0.000180728045
0.000180730418
0.000180253572
0.000180343866
0.000180899657
0.000180904354
0.000180432401
0.000180523709
0.000181073399
0.000181078388
0.000180612761
0.000180704836
0.00018124854
0.000181254124
0.000180794072
0.000180888182
0.000181423925
0.000181432545
0.000180974601
0.000181073393
0.000181605106
0.00018161253
0.000181156796
0.000181249716
0.000181783293
0.000181801015
0.000181353428
0.000181445996
0.000181972773
0.000181993457
0.000181550718
0.000181641803
0.000182167952
0.000182188558
0.000181755312
0.000181839593
0.000182366176
0.000182384196
0.000181959239
0.00018203885
0.000182565151
0.000182581433
0.000182164212
0.00018224
0.000182764762
0.000182779505
0.000182369705
0.000182440794
0.000182965458
0.000182977647
0.000182578157
0.000182639942
0.000183150764
0.000183169307
0.000182768411
0.000182835223
0.000183325982
0.000183348544
0.00018294522
0.000183013936
0.000183496161
0.000183523909
0.000183120319
0.000183193813
0.000183663895
0.00018369691
0.00018329188
0.000183374534
0.000183828143
0.00018386658
0.000183461485
0.000183553135
0.00018399231
0.000184033862
0.00018363296
0.000183727331
0.000184158804
0.000184198411
0.000183806769
0.000183899045
0.000184325354
0.000184361437
0.000183979144
0.000184069486
0.000184490374
0.000184522947
0.000184147152
0.000184238505
0.000184656637
0.000184685688
0.000184320835
0.000184407957
0.000184823546
0.00018485084
0.000184492277
0.000184580064
0.000184989468
0.000185015595
0.000184660547
0.000184749739
0.00018515282
0.000185177591
0.000184826112
0.000184916281
0.000185308605
0.000185337853
0.000184988197
0.000185080168
0.000185461762
0.0001854955
0.000185146935
0.000185240231
0.000185612001
0.000185649406
0.000185302266
0.000185395586
0.000185758431
0.00018579854
0.000185453459
0.000185546262
0.000185900762
0.000185942514
0.000185599297
0.000185691767
0.000186038119
0.000186079684
0.000185739151
0.000185832252
0.000186169971
0.00018621146
0.000185873281
0.000185967913
0.000186294585
0.000186338984
0.000186000202
0.000186100347
0.000186413238
0.000186461057
0.000186122172
0.000186225432
0.000186527475
0.000186578767
0.000186242006
0.000186353445
0.000186640422
0.000186693592
0.000186361999
0.000186471204
0.000186755413
0.000186806277
0.00018648241
0.000186589074
0.000186871849
0.000186915641
0.000186601624
0.000186702703
0.000186987244
0.000187022883
0.000186719713
0.000186812707
0.000187101289
0.000187126749
0.000186834357
0.000186921311
0.000187207744
0.000187227981
0.000186946946
0.000187027951
0.000187308014
0.000187326939
0.000187054564
0.000187132799
0.000187403518
0.000187423973
0.000187157084
0.000187235762
0.000187494889
0.000187513871
0.000187255215
0.000187335458
0.000187582905
0.000187600678
0.000187349974
0.000187431049
0.000187668239
0.000187684035
0.000187441978
0.00018752287
0.000187751243
0.000187764131
0.000187531388
0.000187610839
0.000187832098
0.000187840941
0.000187617905
0.000187694973
0.000187908416
0.000187914582
0.000187704102
0.000187776021
0.00018797928
0.000187985378
0.000187788777
0.000187855015
0.000188047816
0.000188053335
0.000187870238
0.000187930693
0.000188113114
0.000188118131
0.000187946914
0.00018800331
0.000188175116
0.000188179971
0.000188019438
0.000188073011
0.000188233979
0.000188238808
0.000188088101
0.000188139254
0.00018828981
0.000188294591
0.000188152658
0.000188201732
0.000188342635
0.000188347664
0.000188213899
0.000188261495
0.000188392893
0.000188398185
0.000188272328
0.000188318021
0.000188440529
0.000188445884
0.000188327859
0.000188371206
0.000188485597
0.000188490838
0.00018838052
0.000188421216
0.000188528129
0.000188533114
0.00018843028
0.000188468256
0.000188568004
0.000188572733
0.000188477096
0.000188512529
0.000188605429
0.000188609945
0.00018852096
0.000188554162
0.000188640466
0.000188644828
0.000188561991
0.000188593177
0.000188673232
0.000188677445
0.000188600381
0.000188629634
0.000188703847
0.000188707877
0.0001886363
0.000188663562
0.000188732432
0.000188736192
0.000188669958
0.000188695029
0.000188759092
0.000188762507
0.000188701404
0.000188724305
0.000188783863
0.000188786974
0.000188730531
0.000188751646
0.000188806771
0.000188809705
0.000188757353
0.000188777163
0.000188827899
0.000188830784
0.000188782011
0.000188800898
0.000188847369
0.000188850269
0.000188804727
0.000188822827
0.000188865327
0.000188868226
0.00018882579
0.000188842975
0.000188881886
0.000188884753
0.000188845271
0.000188861618
0.0001888971
0.000188899951
0.000188863112
0.000188878774
0.00018891107
0.000188913866
0.000188879662
0.000188894362
0.000188923929
0.000188926551
0.0001888951
0.000188908488
0.000188935791
0.000188938094
0.000188909535
0.000188921221
0.00018894676
0.000188948623
0.000188923115
0.000188932831
0.000188957331
0.000188958773
0.000188936899
0.000188944701
0.000188969397
0.000188970108
0.00018895145
0.00018895845
0.000188976668
0.000188980487
0.000188972915
0.000188977821
0.000188980291
0.000188984922
0.000188985263
0.000188989711
0.000188990904
0.000188995162
0.000188996677
0.000189000733
0.000189002528
0.000189006438
0.00018900834
0.000189012232
0.000189014015
0.000189017765
0.000189019396
0.00018902289
0.000189024326
0.000189027453
0.000189028662
0.000189031316
0.000189032291
0.000189034388
0.000189035141
0.000189036648
0.000189037202
0.000189038155
0.000189038535
0.000189039041
0.000189039274
0.000189039486
0.000189039608
0.00018903968
0.000189039735
0.000189039783
0.000189039633
0.000189039459
0.000189039346
0.000189039265
0.00018903922
0.000189039188
0.000189039173
0.000189039165
0.000189039162
0.00018903916
0.00018903916
0.00018903916
0.00018903916
0.00018903916
0.00018903916
0.00018903916
0.00018903916
0.00018903916
0.00018903916
0.00018903916
0.00018903916
0.00018903916
0.00018903916
0.00018903916
0.00018903916
0.00018903916
0.00018903916
0.00018903916
0.00018903916
0.00018903916
0.00018903916
0.00018903916
0.00018903916
0.00018903916
0.00018903916
0.00018903916
0.00018903916
0.00018903916
)
;

boundaryField
{
    closed
    {
        type            calculated;
        value           nonuniform List<scalar> 0();
    }
    open
    {
        type            calculated;
        value           uniform 0.00018903916;
    }
    sides
    {
        type            empty;
    }
    procBoundary5to4
    {
        type            processor;
        value           uniform 0.000174338527;
    }
}


// ************************************************************************* //
