/*--------------------------------*- C++ -*----------------------------------*\
| =========                 |                                                 |
| \\      /  F ield         | OpenFOAM: The Open Source CFD Toolbox           |
|  \\    /   O peration     | Version:  2306                                  |
|   \\  /    A nd           | Website:  www.openfoam.com                      |
|    \\/     M anipulation  |                                                 |
\*---------------------------------------------------------------------------*/
FoamFile
{
    version     2.0;
    format      ascii;
    arch        "LSB;label=32;scalar=64";
    class       volScalarField;
    location    "0.00148";
    object      prefDZ_H2O;
}
// * * * * * * * * * * * * * * * * * * * * * * * * * * * * * * * * * * * * * //

dimensions      [1 -1 -1 0 0 0 0];

internalField   nonuniform List<scalar> 
530
(
2.03550693e-06
2.02765142e-06
2.08474859e-06
2.08433844e-06
2.03965907e-06
2.03820388e-06
2.08907606e-06
2.08848124e-06
2.04302353e-06
2.0485819e-06
2.09200964e-06
2.09177726e-06
2.04575418e-06
2.05658876e-06
2.09528687e-06
2.09520853e-06
2.04961235e-06
2.06229384e-06
2.09852932e-06
2.09835864e-06
2.05472324e-06
2.06653771e-06
2.10171044e-06
2.10137893e-06
2.05994212e-06
2.07068957e-06
2.1047749e-06
2.10431968e-06
2.06422723e-06
2.07467846e-06
2.10766073e-06
2.10723846e-06
2.06825008e-06
2.07878288e-06
2.11048682e-06
2.11011461e-06
2.07209214e-06
2.08252114e-06
2.11287811e-06
2.11295146e-06
2.07593593e-06
2.08594637e-06
2.11474185e-06
2.11572852e-06
2.07966529e-06
2.08911438e-06
2.11672625e-06
2.11837412e-06
2.08362924e-06
2.0919033e-06
2.11930086e-06
2.12090128e-06
2.08774121e-06
2.09426735e-06
2.12225155e-06
2.12318248e-06
2.09111809e-06
2.0965902e-06
2.12537049e-06
2.12543511e-06
2.09405247e-06
2.09864595e-06
2.12740324e-06
2.12746119e-06
2.09679015e-06
2.1005802e-06
2.12938692e-06
2.12941806e-06
2.09940145e-06
2.10266166e-06
2.13139265e-06
2.13135783e-06
2.10187446e-06
2.10486417e-06
2.13338431e-06
2.13333548e-06
2.10426687e-06
2.1075839e-06
2.13541079e-06
2.13528591e-06
2.1063022e-06
2.11011375e-06
2.13727264e-06
2.1372158e-06
2.10825211e-06
2.11259238e-06
2.13925299e-06
2.13915544e-06
2.110449e-06
2.11470992e-06
2.14130497e-06
2.1411904e-06
2.1130856e-06
2.1172101e-06
2.14340425e-06
2.14325821e-06
2.1156169e-06
2.11970806e-06
2.14549317e-06
2.14535831e-06
2.11834305e-06
2.12213961e-06
2.14757408e-06
2.14746097e-06
2.12085636e-06
2.1243281e-06
2.14956292e-06
2.14956405e-06
2.12339709e-06
2.1270363e-06
2.15175044e-06
2.15165354e-06
2.12596768e-06
2.12945041e-06
2.15386121e-06
2.15375663e-06
2.12856147e-06
2.13188434e-06
2.15598587e-06
2.15589698e-06
2.13115528e-06
2.13449608e-06
2.158132e-06
2.15807593e-06
2.13348184e-06
2.1371589e-06
2.16028519e-06
2.160275e-06
2.1358913e-06
2.13981219e-06
2.16244666e-06
2.16247128e-06
2.13828728e-06
2.1423764e-06
2.16463607e-06
2.16469175e-06
2.14082304e-06
2.1449158e-06
2.16684657e-06
2.16690551e-06
2.14337661e-06
2.14746756e-06
2.16907406e-06
2.16914098e-06
2.14591711e-06
2.15006726e-06
2.1713065e-06
2.17141398e-06
2.14836871e-06
2.15269321e-06
2.17361613e-06
2.17370923e-06
2.15071806e-06
2.1549144e-06
2.17588617e-06
2.17611781e-06
2.15345047e-06
2.1576874e-06
2.17830913e-06
2.17858017e-06
2.1562029e-06
2.16040668e-06
2.18080959e-06
2.18107985e-06
2.15922202e-06
2.16314876e-06
2.18334612e-06
2.18358076e-06
2.16219353e-06
2.16593304e-06
2.18588717e-06
2.18609868e-06
2.16518081e-06
2.16875965e-06
2.1884384e-06
2.18862951e-06
2.16816518e-06
2.17156309e-06
2.19100549e-06
2.19116347e-06
2.17126627e-06
2.17430656e-06
2.1933732e-06
2.19361494e-06
2.17394918e-06
2.1770451e-06
2.19561024e-06
2.19590581e-06
2.17624953e-06
2.17940477e-06
2.19778348e-06
2.19814786e-06
2.17850477e-06
2.18182621e-06
2.19992689e-06
2.20035939e-06
2.18067391e-06
2.18430569e-06
2.20201649e-06
2.20251959e-06
2.18282876e-06
2.18674836e-06
2.2041074e-06
2.20465113e-06
2.18512094e-06
2.18909613e-06
2.20623144e-06
2.20674955e-06
2.18757237e-06
2.19142179e-06
2.20835903e-06
2.20883038e-06
2.19005634e-06
2.1937676e-06
2.21046885e-06
2.21089372e-06
2.1924278e-06
2.19612576e-06
2.21259641e-06
2.21297513e-06
2.19496402e-06
2.19852232e-06
2.21473427e-06
2.21509003e-06
2.19748259e-06
2.20104293e-06
2.21686108e-06
2.21720178e-06
2.19994716e-06
2.20355308e-06
2.21895574e-06
2.21927769e-06
2.20240758e-06
2.20602273e-06
2.22094415e-06
2.2213247e-06
2.20479165e-06
2.20847426e-06
2.22289987e-06
2.22333937e-06
2.20712465e-06
2.21085787e-06
2.22481921e-06
2.22530365e-06
2.20940778e-06
2.21314472e-06
2.22668322e-06
2.22720238e-06
2.21161136e-06
2.21533228e-06
2.22849481e-06
2.22903527e-06
2.21369337e-06
2.21740227e-06
2.23024305e-06
2.23078107e-06
2.21562665e-06
2.21931407e-06
2.23192103e-06
2.23245807e-06
2.21742305e-06
2.22113484e-06
2.23350651e-06
2.23408099e-06
2.21905988e-06
2.22291586e-06
2.23501613e-06
2.23563445e-06
2.22061758e-06
2.22453473e-06
2.2364698e-06
2.23713244e-06
2.2221826e-06
2.22632914e-06
2.2379082e-06
2.2385945e-06
2.22385335e-06
2.22786018e-06
2.23937241e-06
2.24002615e-06
2.22564212e-06
2.22947597e-06
2.24085136e-06
2.24141356e-06
2.22747856e-06
2.23102534e-06
2.24231806e-06
2.24277477e-06
2.22936936e-06
2.23253246e-06
2.24376818e-06
2.24409365e-06
2.23116528e-06
2.23406838e-06
2.24512157e-06
2.24537955e-06
2.2329142e-06
2.23561394e-06
2.24639612e-06
2.24663709e-06
2.23457193e-06
2.23717274e-06
2.24761016e-06
2.24787051e-06
2.23613648e-06
2.23874352e-06
2.2487719e-06
2.24901317e-06
2.23763138e-06
2.24026926e-06
2.24989136e-06
2.25011681e-06
2.2390883e-06
2.24173107e-06
2.25097715e-06
2.25117693e-06
2.2405253e-06
2.24314047e-06
2.25203376e-06
2.25219595e-06
2.24194493e-06
2.24449404e-06
2.25306342e-06
2.25317358e-06
2.24331973e-06
2.24579119e-06
2.2540354e-06
2.25411127e-06
2.24476199e-06
2.24705659e-06
2.25493812e-06
2.25501313e-06
2.2462171e-06
2.24832113e-06
2.25581147e-06
2.25587921e-06
2.24762578e-06
2.24954291e-06
2.25664389e-06
2.25670532e-06
2.24894151e-06
2.25072691e-06
2.25743462e-06
2.25749407e-06
2.25018158e-06
2.25187543e-06
2.25818564e-06
2.25824486e-06
2.25135356e-06
2.25297061e-06
2.25889828e-06
2.25895704e-06
2.25245138e-06
2.25400126e-06
2.25957289e-06
2.25963495e-06
2.25349751e-06
2.25499905e-06
2.26021507e-06
2.26028061e-06
2.25450455e-06
2.25594564e-06
2.26082407e-06
2.26089055e-06
2.2554687e-06
2.25683577e-06
2.26140055e-06
2.26146571e-06
2.2563895e-06
2.25767294e-06
2.26194484e-06
2.26200651e-06
2.25726434e-06
2.25846201e-06
2.2624536e-06
2.26251216e-06
2.25809016e-06
2.25920767e-06
2.26293143e-06
2.2629874e-06
2.25886514e-06
2.25991203e-06
2.26337913e-06
2.26343323e-06
2.25959123e-06
2.26057442e-06
2.2637981e-06
2.26385041e-06
2.26027264e-06
2.26119476e-06
2.26418989e-06
2.26423995e-06
2.26091317e-06
2.26177222e-06
2.26455601e-06
2.26460273e-06
2.26151746e-06
2.26230757e-06
2.26489775e-06
2.26494018e-06
2.26208527e-06
2.26280722e-06
2.26521556e-06
2.26525421e-06
2.2626118e-06
2.26327744e-06
2.26550977e-06
2.26554624e-06
2.26309569e-06
2.26372021e-06
2.2657814e-06
2.26581731e-06
2.26353973e-06
2.2641351e-06
2.26603198e-06
2.26606815e-06
2.26394931e-06
2.26451974e-06
2.26626337e-06
2.26629958e-06
2.26433181e-06
2.26487364e-06
2.26647697e-06
2.26651284e-06
2.26468789e-06
2.26520342e-06
2.26667347e-06
2.26670919e-06
2.26501473e-06
2.26550824e-06
2.26685414e-06
2.2668892e-06
2.2653214e-06
2.2657843e-06
2.26702064e-06
2.26705356e-06
2.26561244e-06
2.26603327e-06
2.26717444e-06
2.26720335e-06
2.26589002e-06
2.26625606e-06
2.26731684e-06
2.26734024e-06
2.26615741e-06
2.2664598e-06
2.26745415e-06
2.26747232e-06
2.26644748e-06
2.26668643e-06
2.2676105e-06
2.26761958e-06
2.26677603e-06
2.26698451e-06
2.26751571e-06
2.26761651e-06
2.26732362e-06
2.26745329e-06
2.26748186e-06
2.26759752e-06
2.2675588e-06
2.26766475e-06
2.26765308e-06
2.26775065e-06
2.26774852e-06
2.26783949e-06
2.26784474e-06
2.26793248e-06
2.2679402e-06
2.26802816e-06
2.26803516e-06
2.26812051e-06
2.26812729e-06
2.2682074e-06
2.26821417e-06
2.26828651e-06
2.26829353e-06
2.26835561e-06
2.26836329e-06
2.2684131e-06
2.26842174e-06
2.26845841e-06
2.26846779e-06
2.26849214e-06
2.26850145e-06
2.26851591e-06
2.26852405e-06
2.26853196e-06
2.26853815e-06
2.26854278e-06
2.26854694e-06
2.26855063e-06
2.26854951e-06
2.26854743e-06
2.26854605e-06
2.26854508e-06
2.26854453e-06
2.26854413e-06
2.26854394e-06
2.26854385e-06
2.2685438e-06
2.26854379e-06
2.26854378e-06
2.26854378e-06
2.26854378e-06
2.26854378e-06
2.26854378e-06
2.26854378e-06
2.26854378e-06
2.26854378e-06
2.26854378e-06
2.26854378e-06
2.26854378e-06
2.26854378e-06
2.26854378e-06
2.26854378e-06
2.26854378e-06
2.26854378e-06
2.26854378e-06
2.26854378e-06
2.26854378e-06
2.26854378e-06
2.26854378e-06
2.26854378e-06
2.26854378e-06
2.26854378e-06
2.26854378e-06
2.26854378e-06
2.26854378e-06
2.26854378e-06
)
;

boundaryField
{
    closed
    {
        type            calculated;
        value           nonuniform List<scalar> 0();
    }
    open
    {
        type            calculated;
        value           uniform 2.26854378e-06;
    }
    sides
    {
        type            empty;
    }
    procBoundary5to4
    {
        type            processor;
        value           uniform 2.07967886e-06;
    }
}


// ************************************************************************* //
