/*--------------------------------*- C++ -*----------------------------------*\
| =========                 |                                                 |
| \\      /  F ield         | OpenFOAM: The Open Source CFD Toolbox           |
|  \\    /   O peration     | Version:  2306                                  |
|   \\  /    A nd           | Website:  www.openfoam.com                      |
|    \\/     M anipulation  |                                                 |
\*---------------------------------------------------------------------------*/
FoamFile
{
    version     2.0;
    format      ascii;
    arch        "LSB;label=32;scalar=64";
    class       volScalarField;
    location    "0.0005";
    object      prefDh_H2;
}
// * * * * * * * * * * * * * * * * * * * * * * * * * * * * * * * * * * * * * //

dimensions      [1 1 -3 0 0 0 0];

internalField   nonuniform List<scalar> 
530
(
4135.7786
4139.65147
4145.21287
4148.68655
4153.98661
4156.85524
4161.46356
4163.95378
4168.29107
4170.46277
4174.23738
4176.13795
4179.85241
4181.47913
4184.88916
4186.2876
4189.45574
4190.64403
4193.55763
4194.54691
4197.08218
4197.65099
4199.76489
4200.13131
4202.02066
4202.19262
4203.86849
4203.85342
4205.3263
4205.13201
4206.41201
4206.04661
4207.14359
4206.61549
4207.53911
4206.85697
4207.61677
4206.7896
4207.39491
4206.43234
4206.89178
4205.74173
4205.88564
4204.50313
4204.50254
4202.99075
4202.85029
4201.21608
4200.94134
4199.19118
4198.78795
4196.92824
4196.40242
4194.43947
4193.79707
4191.73705
4190.9843
4188.83324
4187.97661
4185.74031
4184.78661
4182.47064
4181.42706
4179.03674
4177.91084
4175.45124
4174.25092
4171.72687
4170.49875
4167.99446
4166.71841
4164.11536
4162.67633
4159.93146
4158.42733
4155.63664
4154.06586
4151.23535
4149.59409
4146.73058
4145.01428
4142.3241
4140.47477
4137.83696
4136.01756
4133.18739
4131.22394
4128.46338
4126.38813
4123.6748
4121.50632
4118.82957
4116.58178
4113.93735
4111.62307
4109.00742
4106.63876
4104.04829
4101.63508
4099.05795
4096.59856
4094.02742
4091.5312
4088.96504
4086.44036
4083.87914
4081.33354
4078.77801
4076.21832
4073.66993
4071.10243
4068.56314
4065.9936
4063.46581
4060.89967
4058.38839
4055.85765
4053.33509
4050.77175
4048.27162
4045.73009
4043.25302
4040.73495
4038.28162
4035.78853
4033.35958
4030.89291
4028.4889
4026.04997
4023.67145
4021.26143
4018.90893
4016.52886
4014.20291
4011.85371
4009.55483
4007.23732
4004.96603
4002.68095
4000.43774
3998.18573
3995.97111
3993.75275
3991.56722
3989.38302
3987.22709
3985.07751
3982.95168
3980.83714
3978.74191
3976.6628
3974.59869
3972.55535
3970.52288
3968.51563
3966.51531
3964.54447
3962.57684
3960.64268
3958.70827
3956.81108
3954.91042
3953.05048
3951.18411
3949.36168
3947.53014
3945.74549
3943.94931
3942.20272
3940.44242
3938.73417
3937.01026
3935.34065
3933.65363
3932.02294
3930.37337
3928.78183
3927.17032
3925.61808
3924.04541
3922.55022
3921.04396
3919.59565
3918.12581
3916.7149
3915.28261
3913.90929
3912.51563
3911.18001
3909.80314
3908.47987
3907.14058
3905.85945
3904.58115
3903.35641
3902.11807
3900.93301
3899.73484
3898.58864
3897.43038
3896.32226
3895.20354
3894.13277
3893.05314
3892.01905
3890.97796
3889.97995
3888.97677
3888.01421
3887.04832
3886.12059
3885.19132
3884.29778
3883.40448
3882.54446
3881.68645
3880.85928
3880.03588
3879.24089
3878.4514
3877.68789
3876.93159
3876.19888
3875.47503
3874.77243
3874.08027
3873.40709
3872.74585
3872.10139
3871.47028
3870.85386
3870.25207
3869.663
3869.0897
3868.52731
3867.98166
3867.44525
3866.92642
3866.41532
3865.92244
3865.43597
3864.96819
3864.50567
3864.06212
3863.62288
3863.20271
3862.78608
3862.38841
3861.99372
3861.6177
3861.24428
3860.88907
3860.53626
3860.20101
3859.86815
3859.55204
3859.23846
3858.94067
3858.64572
3858.36547
3858.08849
3857.82499
3857.56531
3857.31782
3857.07479
3856.84258
3856.61554
3856.39789
3856.1862
3855.98243
3855.78542
3855.59487
3855.4119
3855.23394
3855.06436
3854.89839
3854.74154
3854.58698
3854.44223
3854.29852
3854.16523
3854.03184
3853.90939
3853.78583
3853.67358
3853.55936
3853.45671
3853.35138
3853.25772
3853.16085
3853.07559
3852.98676
3852.90933
3852.82814
3852.75798
3852.68405
3852.62064
3852.55359
3852.49641
3852.43589
3852.38445
3852.33009
3852.28396
3852.23541
3852.19415
3852.15107
3852.11429
3852.07632
3852.04366
3852.01047
3851.9816
3851.95285
3851.92747
3851.90282
3851.88066
3851.85978
3851.84059
3851.82315
3851.80671
3851.79241
3851.7785
3851.76704
3851.75548
3851.74657
3851.73718
3851.73055
3851.72317
3851.71857
3851.71304
3851.71023
3851.70643
3851.70516
3851.70296
3851.70304
3851.70232
3851.70355
3851.70418
3851.70639
3851.70824
3851.71125
3851.71421
3851.71782
3851.722
3851.72599
3851.73146
3851.73605
3851.74238
3851.74632
3851.75367
3851.75778
3851.76569
3851.77017
3851.77839
3851.78333
3851.79166
3851.79707
3851.80539
3851.81125
3851.81949
3851.82572
3851.83386
3851.84039
3851.8484
3851.85516
3851.86303
3851.86995
3851.87767
3851.88467
3851.89225
3851.89928
3851.9067
3851.91371
3851.92097
3851.92792
3851.93501
3851.94186
3851.94879
3851.95551
3851.96225
3851.96883
3851.97539
3851.9818
3851.98817
3851.99441
3852.00057
3852.00662
3852.01259
3852.01845
3852.02421
3852.02986
3852.03542
3852.04087
3852.04622
3852.05146
3852.05661
3852.06165
3852.06658
3852.07142
3852.07615
3852.08079
3852.08532
3852.08975
3852.09409
3852.09832
3852.10246
3852.10651
3852.11046
3852.11432
3852.11809
3852.12176
3852.12535
3852.12885
3852.13226
3852.13559
3852.13883
3852.14199
3852.14508
3852.14808
3852.15101
3852.15386
3852.15663
3852.15934
3852.16197
3852.16453
3852.16703
3852.16945
3852.17181
3852.17411
3852.17635
3852.17852
3852.18064
3852.1827
3852.1847
3852.18665
3852.18854
3852.19038
3852.19217
3852.19391
3852.19561
3852.19726
3852.19886
3852.20042
3852.20193
3852.20341
3852.20483
3852.20623
3852.20758
3852.2089
3852.21019
3852.21143
3852.21266
3852.21381
3852.21502
3852.21611
3852.21689
3852.21445
3852.21187
3852.20942
3852.20701
3852.20469
3852.20248
3852.20038
3852.1984
3852.19658
3852.19489
3852.19337
3852.19201
3852.19081
3852.18976
3852.18888
3852.18813
3852.18753
3852.18704
3852.18666
3852.18636
3852.18615
3852.18599
3852.18589
3852.18582
3852.18578
3852.18575
3852.18573
3852.18572
3852.18571
3852.18571
3852.18571
3852.18571
3852.18571
3852.18571
3852.18571
3852.18571
3852.18571
3852.18571
3852.18571
3852.18571
3852.18571
3852.18571
3852.18571
3852.18571
3852.18571
3852.18571
3852.18571
3852.18571
3852.18571
3852.18571
3852.18571
3852.18571
3852.18571
3852.18571
3852.18571
3852.18571
3852.18571
3852.18571
3852.18571
3852.18571
3852.18571
3852.18571
3852.18571
3852.18571
3852.18571
3852.18571
3852.18571
3852.18571
3852.18571
3852.18571
3852.18571
3852.18571
3852.18571
3852.18571
3852.18571
)
;

boundaryField
{
    closed
    {
        type            calculated;
        value           nonuniform List<scalar> 0();
    }
    open
    {
        type            calculated;
        value           uniform 3852.18571;
    }
    sides
    {
        type            empty;
    }
    procBoundary5to4
    {
        type            processor;
        value           uniform 4129.95217;
    }
}


// ************************************************************************* //
