/*--------------------------------*- C++ -*----------------------------------*\
| =========                 |                                                 |
| \\      /  F ield         | OpenFOAM: The Open Source CFD Toolbox           |
|  \\    /   O peration     | Version:  2306                                  |
|   \\  /    A nd           | Website:  www.openfoam.com                      |
|    \\/     M anipulation  |                                                 |
\*---------------------------------------------------------------------------*/
FoamFile
{
    version     2.0;
    format      ascii;
    arch        "LSB;label=32;scalar=64";
    class       volScalarField;
    location    "0.0005";
    object      prefDPV_H2;
}
// * * * * * * * * * * * * * * * * * * * * * * * * * * * * * * * * * * * * * //

dimensions      [1 -1 -1 0 0 0 0];

internalField   nonuniform List<scalar> 
530
(
-9.50885756e-05
-9.51230903e-05
-9.51719358e-05
-9.52032918e-05
-9.52502197e-05
-9.52766452e-05
-9.53180459e-05
-9.53414841e-05
-9.53809572e-05
-9.54018865e-05
-9.543689e-05
-9.54558306e-05
-9.54904808e-05
-9.55075896e-05
-9.55397247e-05
-9.55550881e-05
-9.55849491e-05
-9.55988256e-05
-9.56266213e-05
-9.56391482e-05
-9.56637921e-05
-9.56730264e-05
-9.56941716e-05
-9.57020377e-05
-9.57214075e-05
-9.57279552e-05
-9.57456412e-05
-9.57509169e-05
-9.57670058e-05
-9.57710589e-05
-9.57856345e-05
-9.57885169e-05
-9.58016602e-05
-9.58034263e-05
-9.58152164e-05
-9.58159227e-05
-9.5826437e-05
-9.5826143e-05
-9.58354566e-05
-9.58342268e-05
-9.58424091e-05
-9.58397703e-05
-9.58453516e-05
-9.58409282e-05
-9.5845405e-05
-9.58400747e-05
-9.58434838e-05
-9.58372915e-05
-9.58396761e-05
-9.58326641e-05
-9.58340683e-05
-9.58262787e-05
-9.58267466e-05
-9.58182213e-05
-9.58177974e-05
-9.58085776e-05
-9.58073074e-05
-9.57974334e-05
-9.57953637e-05
-9.57848746e-05
-9.57820544e-05
-9.57709881e-05
-9.57674686e-05
-9.57558615e-05
-9.57516963e-05
-9.57395834e-05
-9.57348286e-05
-9.57222432e-05
-9.57169518e-05
-9.57039217e-05
-9.56981584e-05
-9.56843244e-05
-9.56771701e-05
-9.56621542e-05
-9.56544867e-05
-9.56391185e-05
-9.56309299e-05
-9.56152482e-05
-9.56065139e-05
-9.55905648e-05
-9.55812535e-05
-9.55663463e-05
-9.55561129e-05
-9.55414847e-05
-9.5531373e-05
-9.55154517e-05
-9.55043465e-05
-9.54888083e-05
-9.54769266e-05
-9.54616191e-05
-9.54490827e-05
-9.54339388e-05
-9.54208399e-05
-9.54058339e-05
-9.53922589e-05
-9.53773685e-05
-9.53633992e-05
-9.53485929e-05
-9.53341691e-05
-9.53192433e-05
-9.53044554e-05
-9.52894719e-05
-9.52743832e-05
-9.52593375e-05
-9.52440042e-05
-9.52288986e-05
-9.52133714e-05
-9.51982138e-05
-9.5182539e-05
-9.51673421e-05
-9.51515623e-05
-9.51363425e-05
-9.51204971e-05
-9.51052738e-05
-9.50894002e-05
-9.50741772e-05
-9.50581723e-05
-9.50424692e-05
-9.50261883e-05
-9.50106002e-05
-9.49944503e-05
-9.49789817e-05
-9.49629723e-05
-9.49476277e-05
-9.49317679e-05
-9.49165517e-05
-9.49008501e-05
-9.48857662e-05
-9.48702306e-05
-9.48552829e-05
-9.48399204e-05
-9.48251124e-05
-9.48099293e-05
-9.47952649e-05
-9.47802667e-05
-9.47657496e-05
-9.47509414e-05
-9.47365753e-05
-9.47219615e-05
-9.47077502e-05
-9.46933349e-05
-9.46792821e-05
-9.46650688e-05
-9.46511785e-05
-9.46371705e-05
-9.46234465e-05
-9.46096468e-05
-9.45960931e-05
-9.45825046e-05
-9.45691251e-05
-9.45557504e-05
-9.45425493e-05
-9.45293909e-05
-9.45163724e-05
-9.45034326e-05
-9.4490601e-05
-9.44778823e-05
-9.44652419e-05
-9.44527466e-05
-9.44403019e-05
-9.44280323e-05
-9.44157877e-05
-9.44037462e-05
-9.43917064e-05
-9.43798954e-05
-9.43680649e-05
-9.4356487e-05
-9.43448704e-05
-9.43335281e-05
-9.43221299e-05
-9.43110262e-05
-9.42998508e-05
-9.42889885e-05
-9.42780406e-05
-9.42674226e-05
-9.42567071e-05
-9.42463358e-05
-9.42358583e-05
-9.42257357e-05
-9.4215503e-05
-9.42057368e-05
-9.41959123e-05
-9.41864391e-05
-9.41768402e-05
-9.41676037e-05
-9.41582407e-05
-9.41492437e-05
-9.41401265e-05
-9.41313708e-05
-9.41221645e-05
-9.41132595e-05
-9.41042617e-05
-9.40956545e-05
-9.40872656e-05
-9.40792124e-05
-9.40710975e-05
-9.4063314e-05
-9.40554741e-05
-9.40479554e-05
-9.40403884e-05
-9.40331295e-05
-9.4025833e-05
-9.40188292e-05
-9.40117998e-05
-9.4005047e-05
-9.3998281e-05
-9.39917752e-05
-9.39852683e-05
-9.39790054e-05
-9.39727533e-05
-9.39667293e-05
-9.39607274e-05
-9.39549378e-05
-9.39491817e-05
-9.39436221e-05
-9.39381071e-05
-9.39327729e-05
-9.39274945e-05
-9.39223809e-05
-9.39173342e-05
-9.39124365e-05
-9.39076166e-05
-9.390293e-05
-9.38983318e-05
-9.38938513e-05
-9.38894697e-05
-9.38851906e-05
-9.38810201e-05
-9.38769375e-05
-9.38729726e-05
-9.38690816e-05
-9.38653168e-05
-9.38616125e-05
-9.38580419e-05
-9.38545195e-05
-9.38511374e-05
-9.3847792e-05
-9.38445924e-05
-9.38414192e-05
-9.38383961e-05
-9.38353902e-05
-9.38325376e-05
-9.38296942e-05
-9.38270059e-05
-9.38243203e-05
-9.38217903e-05
-9.38192576e-05
-9.38168798e-05
-9.38144952e-05
-9.38122636e-05
-9.38100224e-05
-9.38079309e-05
-9.38058283e-05
-9.3803871e-05
-9.38019022e-05
-9.38000733e-05
-9.37982337e-05
-9.37965274e-05
-9.37948122e-05
-9.37932228e-05
-9.37916274e-05
-9.37901494e-05
-9.37886691e-05
-9.37872971e-05
-9.37859272e-05
-9.3784656e-05
-9.37833918e-05
-9.37822163e-05
-9.37810533e-05
-9.37799686e-05
-9.37789022e-05
-9.37779036e-05
-9.37769291e-05
-9.3776012e-05
-9.37751249e-05
-9.3774285e-05
-9.37734808e-05
-9.37727139e-05
-9.37719881e-05
-9.37712902e-05
-9.37706383e-05
-9.37700056e-05
-9.37694233e-05
-9.37688521e-05
-9.37683351e-05
-9.3767822e-05
-9.3767366e-05
-9.37669077e-05
-9.37665085e-05
-9.37661018e-05
-9.37657555e-05
-9.37653975e-05
-9.37651e-05
-9.37647878e-05
-9.37645353e-05
-9.37642661e-05
-9.37640551e-05
-9.37638263e-05
-9.37636531e-05
-9.37634621e-05
-9.37633236e-05
-9.37631679e-05
-9.3763061e-05
-9.3762938e-05
-9.37628598e-05
-9.37627671e-05
-9.3762715e-05
-9.37626502e-05
-9.37626217e-05
-9.37625825e-05
-9.37625755e-05
-9.37625595e-05
-9.37625719e-05
-9.37625768e-05
-9.37626069e-05
-9.37626304e-05
-9.37626765e-05
-9.37627166e-05
-9.37627772e-05
-9.37628317e-05
-9.37629054e-05
-9.37629724e-05
-9.37630581e-05
-9.37631357e-05
-9.3763232e-05
-9.37633185e-05
-9.37634245e-05
-9.37635183e-05
-9.3763633e-05
-9.37637325e-05
-9.37638549e-05
-9.37639589e-05
-9.37640882e-05
-9.37641953e-05
-9.37643307e-05
-9.37644399e-05
-9.37645804e-05
-9.37646909e-05
-9.37648356e-05
-9.37649462e-05
-9.37650943e-05
-9.37652038e-05
-9.37653563e-05
-9.37654628e-05
-9.37656216e-05
-9.37657253e-05
-9.37658837e-05
-9.3765985e-05
-9.37661413e-05
-9.37662438e-05
-9.37663966e-05
-9.37665007e-05
-9.37666489e-05
-9.37667547e-05
-9.37668978e-05
-9.3767005e-05
-9.37671427e-05
-9.37672509e-05
-9.3767383e-05
-9.37674916e-05
-9.37676185e-05
-9.37677267e-05
-9.37678486e-05
-9.37679558e-05
-9.37680729e-05
-9.37681787e-05
-9.37682913e-05
-9.3768395e-05
-9.37685032e-05
-9.37686046e-05
-9.37687087e-05
-9.37688073e-05
-9.37689074e-05
-9.37690031e-05
-9.37690993e-05
-9.37691919e-05
-9.37692843e-05
-9.37693737e-05
-9.37694624e-05
-9.37695486e-05
-9.37696336e-05
-9.37697165e-05
-9.3769798e-05
-9.37698775e-05
-9.37699555e-05
-9.37700317e-05
-9.37701064e-05
-9.37701793e-05
-9.37702507e-05
-9.37703204e-05
-9.37703885e-05
-9.37704551e-05
-9.377052e-05
-9.37705835e-05
-9.37706454e-05
-9.37707059e-05
-9.37707649e-05
-9.37708224e-05
-9.37708785e-05
-9.37709332e-05
-9.37709865e-05
-9.37710385e-05
-9.37710891e-05
-9.37711384e-05
-9.37711865e-05
-9.37712333e-05
-9.37712788e-05
-9.37713231e-05
-9.37713663e-05
-9.37714083e-05
-9.37714492e-05
-9.37714889e-05
-9.37715276e-05
-9.37715651e-05
-9.37716017e-05
-9.37716372e-05
-9.37716718e-05
-9.37717053e-05
-9.3771738e-05
-9.37717697e-05
-9.37718005e-05
-9.37718304e-05
-9.37718595e-05
-9.37718877e-05
-9.37719151e-05
-9.37719417e-05
-9.37719675e-05
-9.37719926e-05
-9.3772017e-05
-9.37720406e-05
-9.37720635e-05
-9.37720858e-05
-9.37721074e-05
-9.37721284e-05
-9.37721487e-05
-9.37721685e-05
-9.37721877e-05
-9.37722062e-05
-9.37722243e-05
-9.37722418e-05
-9.37722588e-05
-9.37722753e-05
-9.37722913e-05
-9.37723068e-05
-9.37723219e-05
-9.37723365e-05
-9.37723507e-05
-9.37723645e-05
-9.37723779e-05
-9.37723908e-05
-9.37724036e-05
-9.37724155e-05
-9.37724279e-05
-9.37724393e-05
-9.37724482e-05
-9.37724298e-05
-9.37724103e-05
-9.37723919e-05
-9.37723737e-05
-9.37723563e-05
-9.37723397e-05
-9.37723239e-05
-9.37723092e-05
-9.37722955e-05
-9.37722829e-05
-9.37722716e-05
-9.37722614e-05
-9.37722525e-05
-9.37722448e-05
-9.37722382e-05
-9.37722328e-05
-9.37722283e-05
-9.37722247e-05
-9.3772222e-05
-9.37722199e-05
-9.37722183e-05
-9.37722172e-05
-9.37722165e-05
-9.3772216e-05
-9.37722157e-05
-9.37722155e-05
-9.37722154e-05
-9.37722153e-05
-9.37722153e-05
-9.37722152e-05
-9.37722152e-05
-9.37722152e-05
-9.37722152e-05
-9.37722152e-05
-9.37722152e-05
-9.37722152e-05
-9.37722152e-05
-9.37722152e-05
-9.37722152e-05
-9.37722152e-05
-9.37722152e-05
-9.37722152e-05
-9.37722152e-05
-9.37722152e-05
-9.37722152e-05
-9.37722152e-05
-9.37722152e-05
-9.37722152e-05
-9.37722152e-05
-9.37722152e-05
-9.37722152e-05
-9.37722152e-05
-9.37722152e-05
-9.37722152e-05
-9.37722152e-05
-9.37722152e-05
-9.37722152e-05
-9.37722152e-05
-9.37722152e-05
-9.37722152e-05
-9.37722152e-05
-9.37722152e-05
-9.37722152e-05
-9.37722152e-05
-9.37722152e-05
-9.37722152e-05
-9.37722152e-05
-9.37722152e-05
-9.37722152e-05
-9.37722152e-05
-9.37722152e-05
-9.37722152e-05
-9.37722152e-05
-9.37722152e-05
-9.37722152e-05
)
;

boundaryField
{
    closed
    {
        type            calculated;
        value           nonuniform List<scalar> 0();
    }
    open
    {
        type            calculated;
        value           uniform -9.37722152e-05;
    }
    sides
    {
        type            empty;
    }
    procBoundary5to4
    {
        type            processor;
        value           uniform -9.50377866e-05;
    }
}


// ************************************************************************* //
