/*--------------------------------*- C++ -*----------------------------------*\
| =========                 |                                                 |
| \\      /  F ield         | OpenFOAM: The Open Source CFD Toolbox           |
|  \\    /   O peration     | Version:  2306                                  |
|   \\  /    A nd           | Website:  www.openfoam.com                      |
|    \\/     M anipulation  |                                                 |
\*---------------------------------------------------------------------------*/
FoamFile
{
    version     2.0;
    format      ascii;
    arch        "LSB;label=32;scalar=64";
    class       volScalarField;
    location    "0.00132";
    object      H2O;
}
// * * * * * * * * * * * * * * * * * * * * * * * * * * * * * * * * * * * * * //

dimensions      [0 0 0 0 0 0 0];

internalField   nonuniform List<scalar> 
531
(
0.0010316327
0.00627291207
0.0074222587
0.00705189331
0.00778691614
0.00720024923
0.000928865757
0.0010687976
0.0010422998
0.00104600402
0.00659460656
0.00752275421
0.000885641605
0.00102578617
0.00728564975
0.00767532027
0.000829831923
0.00102887632
0.00756782204
0.00759970574
0.000781727448
0.00106731324
0.000966011213
0.006850331
0.00771009456
0.000862873421
0.00103901698
0.00732572742
0.00734656927
0.00081682858
0.00111386692
0.00100141753
0.0058774155
0.00781303599
0.00779733137
0.000927218076
0.00102546033
0.00361327944
0.00761582767
0.00761257842
0.000893000801
0.00110321578
0.00105075829
0.00535419056
0.00739418645
0.0073844759
0.000963161257
0.00105729636
0.00622227481
0.00713165281
0.00786115304
0.00785209578
0.00080427749
0.00102212037
0.000968107019
0.00105169385
0.00688494386
0.00689949744
0.000858149892
0.00592872245
0.00799319629
0.000907211037
0.00101273053
0.00691274739
0.00743248584
0.000895475726
0.00105069855
0.0068996902
0.00723625918
0.000909368306
0.00106402692
0.00680615799
0.00716013911
0.000927681567
0.00106755782
0.0066419395
0.00714091999
0.000964609537
0.00105775809
0.00541221832
0.00738809184
0.00738203165
0.000968220855
0.00105369039
0.00628994862
0.00717160414
0.00786410344
0.00786392342
0.000820547539
0.00104577738
0.000958089221
0.00110166961
0.00108374131
0.00568767472
0.00693626244
0.00750966177
0.00750336815
0.00088263656
0.00103685848
0.00713134146
0.00744769582
0.00088748186
0.00104455642
0.00707664047
0.00735219326
0.000902102442
0.00105492514
0.0069681335
0.00724190724
0.000921653537
0.00106486357
0.00683447296
0.0071544616
0.000945271346
0.00106961092
0.00664960599
0.007133114
0.000983794317
0.0010582779
0.00555030412
0.00744103522
0.00743361797
0.000979692148
0.00101519464
0.00608134383
0.00793081855
0.00776891302
0.000905699867
0.00107864377
0.00100869255
0.00652873991
0.00737570576
0.000967115728
0.00104427096
0.00666572674
0.0074049109
0.000981304086
0.00101024317
0.00624770435
0.00809428079
0.00795639831
0.000894188352
0.0010493267
0.000989284593
0.00691799645
0.00762481837
0.000898241674
0.00103610962
0.00748685596
0.00748436625
0.000844369523
0.00108097685
0.000970211444
0.00672016121
0.00754761348
0.000956517263
0.00104900621
0.00679068733
0.00717439377
0.000990524385
0.00107900119
0.00625269371
0.00697320179
0.00751813635
0.00751811226
0.000926202918
0.00105269834
0.00727571692
0.00726291398
0.000894980535
0.00110226206
0.0010078501
0.00663151396
0.00750452807
0.00100201666
0.00101153629
0.00626296381
0.00800603611
0.007853507
0.000934079739
0.00105528011
0.0010373399
0.00689318637
0.00742904999
0.000983499552
0.00103991043
0.00630865149
0.00739677688
0.00701074487
0.00782206906
0.00718946914
0.000935400564
0.0011028825
0.00101864921
0.00112713381
0.00109626037
0.00593680862
0.00725573874
0.0071058225
0.00780423931
0.00665861452
0.000965529527
0.00109814686
0.00106382565
0.00106804117
0.00625754903
0.00725275531
0.00101606113
0.00103593518
0.00609233319
0.00769761856
0.00767461518
0.00099027126
0.000989693202
0.00630905258
0.00822868231
0.00796148804
0.000882728171
0.0010610422
0.000960864966
0.0066954748
0.00758905679
0.000936520379
0.0010456853
0.00732051296
0.0072934029
0.000880364595
0.00111706961
0.000980210105
0.00558192792
0.00781733524
0.00771733752
0.000982659449
0.00103938641
0.00666703924
0.0071311214
0.00100767107
0.00108650697
0.00602588112
0.00691097325
0.00740282528
0.00742297819
0.000940783632
0.00101741928
0.00659201914
0.00757386428
0.00786630494
0.00608266536
0.000939859507
0.00111695677
0.00101494751
0.0011154328
0.00108740549
0.00651326354
0.00734332944
0.000986408412
0.00102095971
0.00623672901
0.0078017101
0.00778987543
0.000973500187
0.000992417252
0.0061854122
0.00799081636
0.00778464628
0.000911399761
0.0010861164
0.00102527637
0.00624916905
0.00708242923
0.0009990544
0.001087702
0.00603130174
0.00693068848
0.00779648875
0.00779228438
0.000825407
0.00103179416
0.000930739005
0.0010612253
0.00105400452
0.00683405505
0.00755224002
0.00813758799
0.00809559143
0.000837308238
0.00107137796
0.000971401339
0.00629416027
0.00725781127
0.000983496842
0.0010770178
0.00613911786
0.00698270747
0.00779467209
0.00779076476
0.000823891562
0.00102167994
0.000968661317
0.00104099777
0.00695511439
0.00712053062
0.000848343398
0.00112283095
0.000991172055
0.00531433812
0.00802824692
0.00781263159
0.000906439842
0.00108499248
0.00105405968
0.00598581783
0.00738762415
0.00717408805
0.0079821142
0.00796944766
0.000847531935
0.00101147379
0.00102192083
0.00103477244
0.00616844516
0.00719116976
0.000962570245
0.00106006104
0.00644891147
0.00726348367
0.00819525396
0.00818186819
0.000731651539
0.0009870554
0.000860153837
0.00100186598
0.000976454194
0.00748522045
0.00802642251
0.000871423601
0.000986368406
0.00631681629
0.00800831454
0.00779160884
0.000890308882
0.00108241218
0.00102603122
0.00633985195
0.00722827032
0.000950898841
0.0010603925
0.00638023152
0.00718742307
0.00799175326
0.00798839157
0.000768130056
0.0010188766
0.00093213503
0.00107156906
0.00105964988
0.00564068248
0.00742004873
0.00727036946
0.0080032945
0.00798975926
0.00079439179
0.000980618524
0.00095918769
0.00100344567
0.00707878122
0.00752566595
0.00077758377
0.00104723418
0.000934338926
0.00704180195
0.00790146071
0.000859694556
0.00102453907
0.0075524809
0.00789592151
0.00102457109
0.00131538126
0.00126336165
0.0078599255
0.00853737391
0.00157852399
0.00169684637
0.0018915016
0.00193711441
0.00830594984
0.00220117755
0.00248562971
0.00250896652
0.0027718146
0.00282970346
0.00305913394
0.00314310569
0.00334252075
0.00344547049
0.00360462071
0.00370551873
0.00379380568
0.0038357932
0.00373384189
0.00344354187
0.00338617199
0.00357052623
0.00380889946
0.00404832683
0.00430812081
0.0046003256
0.00488983841
0.00523072621
0.00556182319
0.00588410589
0.00605608038
0.00566391062
0.00546329418
0.00562053198
0.00579710291
0.00621174673
0.00650045666
0.0071001517
0.00751651235
0.00829695328
0.00881895434
0.0095460874
0.0101219334
0.0107676691
0.0114197493
0.0100276864
0.00527232696
0.0062453027
0.0071004895
0.00820478654
0.00900714593
0.0102701727
0.0111051458
0.0125849258
0.0136137933
0.0144666208
0.0145340061
0.0145019156
0.0146084246
0.0145524846
0.0146879938
0.0133226269
0.0142986225
0.0156281195
0.0146341795
0.0157975408
0.00783402049
0.0216128786
0.0241155935
0.0258363636
0.0274133484
0.0285471415
0.0298663367
0.0314124841
0.0332457397
0.0355951788
0.0378807699
0.0409023103
0.0434432627
0.0469350356
0.0495929417
0.0533609326
0.056096162
0.0599472028
0.062587343
0.0663820535
0.0691320594
0.0732246823
0.0760102626
0.0797124303
0.0820997134
0.0853297078
0.0872919493
0.090236046
0.0919149087
0.0946257558
0.0960180427
0.0984951623
0.0996375454
0.101885962
0.102803418
0.10481721
0.105583183
0.107390645
0.107899614
0.109402121
0.110086619
0.111718271
0.111658361
0.113007421
0.113249235
0.115000465
0.115859596
0.11792101
0.115812135
0.11690514
0.11943859
0.12152977
0.117551134
0.119202763
0.122687502
0.122930945
0.119797707
0.12041805
0.123455859
0.123789783
0.12149557
0.121462648
0.124171872
0.124364148
0.122527435
0.122368351
0.124714093
0.124822655
0.123219676
0.123036553
0.125094578
0.125140893
0.123691083
0.123542601
0.125308335
0.125362192
0.124021078
0.123916721
0.125505229
0.125524083
0.124248326
0.124200204
0.12570583
0.125649884
)
;

boundaryField
{
    closed
    {
        type            calculated;
        value           nonuniform List<scalar> 0();
    }
    open
    {
        type            calculated;
        value           nonuniform List<scalar> 0();
    }
    sides
    {
        type            empty;
    }
    procBoundary4to3
    {
        type            processor;
        value           uniform 0.000932289241;
    }
    procBoundary4to5
    {
        type            processor;
        value           uniform 0.124477509;
    }
}


// ************************************************************************* //
