/*--------------------------------*- C++ -*----------------------------------*\
| =========                 |                                                 |
| \\      /  F ield         | OpenFOAM: The Open Source CFD Toolbox           |
|  \\    /   O peration     | Version:  2306                                  |
|   \\  /    A nd           | Website:  www.openfoam.com                      |
|    \\/     M anipulation  |                                                 |
\*---------------------------------------------------------------------------*/
FoamFile
{
    version     2.0;
    format      ascii;
    arch        "LSB;label=32;scalar=64";
    class       volScalarField;
    location    "0.00132";
    object      prefDZ_H2;
}
// * * * * * * * * * * * * * * * * * * * * * * * * * * * * * * * * * * * * * //

dimensions      [1 -1 -1 0 0 0 0];

internalField   nonuniform List<scalar> 
531
(
6.34748668e-05
6.2322448e-05
6.14485493e-05
6.18068222e-05
6.10985347e-05
6.1668126e-05
6.34474469e-05
6.35626174e-05
6.34789141e-05
6.35743267e-05
6.22297577e-05
6.13653215e-05
6.34492761e-05
6.35325431e-05
6.15825376e-05
6.12172544e-05
6.34206264e-05
6.35023423e-05
6.13122853e-05
6.12872379e-05
6.34134197e-05
6.3494835e-05
6.34688593e-05
6.19922771e-05
6.11777178e-05
6.34385455e-05
6.34885778e-05
6.15445126e-05
6.15268179e-05
6.34375911e-05
6.35091592e-05
6.34798845e-05
6.23611379e-05
6.1075311e-05
6.10981679e-05
6.34336341e-05
6.34827465e-05
6.25080556e-05
6.12695269e-05
6.12749511e-05
6.34598749e-05
6.3518504e-05
6.34926891e-05
6.23418065e-05
6.14790115e-05
6.14934977e-05
6.34669359e-05
6.35274719e-05
6.23817078e-05
6.17292543e-05
6.10345707e-05
6.10498498e-05
6.34400705e-05
6.35354116e-05
6.34734958e-05
6.356005e-05
6.196006e-05
6.19474363e-05
6.3479705e-05
6.23168008e-05
6.09097658e-05
6.35070457e-05
6.35192659e-05
6.19347973e-05
6.14479911e-05
6.34916744e-05
6.35410406e-05
6.19466273e-05
6.16334945e-05
6.34928556e-05
6.35511949e-05
6.20335866e-05
6.17047322e-05
6.3506405e-05
6.35480264e-05
6.21853219e-05
6.17218151e-05
6.35274604e-05
6.35259449e-05
6.23203443e-05
6.14877522e-05
6.14978718e-05
6.35120041e-05
6.35474066e-05
6.2360588e-05
6.16925015e-05
6.10364661e-05
6.10388091e-05
6.34887087e-05
6.35345393e-05
6.35020577e-05
6.35500019e-05
6.35351123e-05
6.23362046e-05
6.19127578e-05
6.13728983e-05
6.13828516e-05
6.34799691e-05
6.35491539e-05
6.17292092e-05
6.14361698e-05
6.34773965e-05
6.35560705e-05
6.17802354e-05
6.15259447e-05
6.34805209e-05
6.35571297e-05
6.18820349e-05
6.16287848e-05
6.34905557e-05
6.35522114e-05
6.20070531e-05
6.17097849e-05
6.3507444e-05
6.35394187e-05
6.21785431e-05
6.17283993e-05
6.35346469e-05
6.35110054e-05
6.23297117e-05
6.1436433e-05
6.14477236e-05
6.35244454e-05
6.35231871e-05
6.23496688e-05
6.09694479e-05
6.11298678e-05
6.35086025e-05
6.35266509e-05
6.35184196e-05
6.22896046e-05
6.1499228e-05
6.35323328e-05
6.35109191e-05
6.21635288e-05
6.14702092e-05
6.35345923e-05
6.34892354e-05
6.23612563e-05
6.08055054e-05
6.09492654e-05
6.34832711e-05
6.35058054e-05
6.34952912e-05
6.19294972e-05
6.12627304e-05
6.35096918e-05
6.35124065e-05
6.13940628e-05
6.13984571e-05
6.3519405e-05
6.35200672e-05
6.34987375e-05
6.21132518e-05
6.13357254e-05
6.35321901e-05
6.35109942e-05
6.20478861e-05
6.16887338e-05
6.35333114e-05
6.35066057e-05
6.23868032e-05
6.18767775e-05
6.13619726e-05
6.13638673e-05
6.35004259e-05
6.35083329e-05
6.15920451e-05
6.16061513e-05
6.35190422e-05
6.3511306e-05
6.34886946e-05
6.21952632e-05
6.13734157e-05
6.35574454e-05
6.34788725e-05
6.2358343e-05
6.08908407e-05
6.10494781e-05
6.35021874e-05
6.35253496e-05
6.35031223e-05
6.19531953e-05
6.14477881e-05
6.36053572e-05
6.34984192e-05
6.23015527e-05
6.14753177e-05
6.18453796e-05
6.10695098e-05
6.16802321e-05
6.35170441e-05
6.36106957e-05
6.35150711e-05
6.36419349e-05
6.3519194e-05
6.22398672e-05
6.1613361e-05
6.17594265e-05
6.10928679e-05
6.21658372e-05
6.35378964e-05
6.36474179e-05
6.35337865e-05
6.36174373e-05
6.23513447e-05
6.16186749e-05
6.35911297e-05
6.35189057e-05
6.23360764e-05
6.11906905e-05
6.12192722e-05
6.353356e-05
6.35110047e-05
6.23823902e-05
6.0677671e-05
6.09430906e-05
6.3499152e-05
6.35051186e-05
6.34953842e-05
6.21361529e-05
6.12967087e-05
6.35349262e-05
6.35218143e-05
6.15511485e-05
6.15793221e-05
6.35256463e-05
6.35453439e-05
6.34739226e-05
6.23254647e-05
6.1073308e-05
6.11813067e-05
6.35040284e-05
6.35364138e-05
6.21626619e-05
6.17302316e-05
6.35390138e-05
6.35188546e-05
6.2373347e-05
6.1935778e-05
6.1472183e-05
6.14582249e-05
6.35239934e-05
6.35761322e-05
6.22318056e-05
6.1322501e-05
6.10356849e-05
6.22561738e-05
6.35493471e-05
6.36640531e-05
6.35624004e-05
6.36391217e-05
6.35777254e-05
6.23009858e-05
6.15335506e-05
6.35978838e-05
6.35303953e-05
6.23266881e-05
6.10930429e-05
6.11121202e-05
6.35366311e-05
6.35247713e-05
6.23577542e-05
6.09113828e-05
6.11144439e-05
6.35122927e-05
6.35242682e-05
6.35156996e-05
6.2368628e-05
6.1775325e-05
6.35323933e-05
6.35109185e-05
6.23698785e-05
6.1916783e-05
6.10952242e-05
6.11025478e-05
6.34747614e-05
6.35074392e-05
6.34778465e-05
6.35289958e-05
6.34984949e-05
6.20078149e-05
6.13276461e-05
6.07732637e-05
6.08063651e-05
6.34751387e-05
6.34881501e-05
6.34838947e-05
6.23867328e-05
6.16080216e-05
6.35012318e-05
6.34909133e-05
6.23753488e-05
6.18677367e-05
6.10975818e-05
6.11052816e-05
6.34489596e-05
6.35200739e-05
6.34604416e-05
6.35452421e-05
6.18938366e-05
6.17418962e-05
6.34600911e-05
6.35548704e-05
6.34808215e-05
6.23211317e-05
6.08711829e-05
6.10926327e-05
6.34728452e-05
6.35589891e-05
6.35056631e-05
6.23210793e-05
6.1484868e-05
6.16921502e-05
6.09132949e-05
6.09400166e-05
6.34296615e-05
6.3526868e-05
6.34779203e-05
6.35361457e-05
6.23749401e-05
6.16742269e-05
6.34775369e-05
6.35168807e-05
6.23637178e-05
6.16034053e-05
6.07059457e-05
6.0725655e-05
6.33480657e-05
6.34724466e-05
6.34020605e-05
6.3489828e-05
6.34702695e-05
6.13972289e-05
6.08686401e-05
6.34341419e-05
6.34547666e-05
6.2372146e-05
6.08855252e-05
6.11080612e-05
6.3463971e-05
6.35421897e-05
6.35297684e-05
6.2349069e-05
6.16400021e-05
6.35049041e-05
6.35447981e-05
6.23285732e-05
6.16791235e-05
6.09227389e-05
6.0930205e-05
6.34966211e-05
6.36197925e-05
6.35688537e-05
6.36666541e-05
6.36445027e-05
6.22176928e-05
6.14692335e-05
6.16104607e-05
6.09270495e-05
6.09542626e-05
6.36272463e-05
6.37928483e-05
6.37491021e-05
6.38554968e-05
6.17817438e-05
6.13859656e-05
6.38288082e-05
6.4004706e-05
6.39692955e-05
6.17984342e-05
6.10609267e-05
6.40009157e-05
6.41498523e-05
6.13580431e-05
6.10658687e-05
6.38763124e-05
6.40694401e-05
6.40382675e-05
6.10690199e-05
6.05436052e-05
6.36512804e-05
6.37736776e-05
6.37685305e-05
6.36935014e-05
6.05934167e-05
6.32670444e-05
6.37608821e-05
6.34486721e-05
6.37113454e-05
6.35560792e-05
6.37235576e-05
6.36535652e-05
6.37780428e-05
6.376049e-05
6.38779941e-05
6.39106299e-05
6.40634752e-05
6.41803959e-05
6.44961561e-05
6.4911505e-05
6.49061098e-05
6.46619733e-05
6.43940221e-05
6.4171427e-05
6.3974068e-05
6.37974197e-05
6.36659965e-05
6.35553742e-05
6.34398767e-05
6.32637913e-05
6.31431452e-05
6.32281825e-05
6.3153605e-05
6.29917583e-05
6.29165815e-05
6.28206848e-05
6.28148141e-05
6.27902171e-05
6.27938052e-05
6.24794294e-05
6.22709832e-05
6.19772856e-05
6.17468351e-05
6.14864404e-05
6.12233651e-05
6.20858072e-05
6.49254302e-05
6.44194844e-05
6.39777044e-05
6.34039387e-05
6.29933742e-05
6.23462643e-05
6.19291045e-05
6.11959036e-05
6.07093592e-05
6.03482633e-05
6.04046761e-05
6.05126115e-05
6.0572261e-05
6.06875196e-05
6.0753642e-05
6.08532412e-05
6.09323716e-05
6.42986574e-05
6.62846301e-05
6.92942168e-05
6.65513822e-05
7.61291859e-05
7.95309969e-05
8.30508799e-05
8.5764891e-05
8.88708144e-05
9.13224482e-05
9.44496192e-05
9.71114779e-05
0.000100661485
0.000103527657
0.000107382441
0.000110229304
0.000114201988
0.000116932539
0.000120796807
0.000123331781
0.000126905009
0.00012912821
0.000132321864
0.000134423259
0.000137509673
0.00013941102
0.000141959309
0.000143458215
0.000145545513
0.000146697582
0.000148514231
0.000149444136
0.000151074339
0.000151821248
0.000153296577
0.00015389896
0.000155243712
0.000155724213
0.000156948896
0.000157364347
0.000158506569
0.000158768141
0.000159759516
0.000160194329
0.000161387288
0.000161328142
0.000162346248
0.000162502459
0.000163897755
0.000164340346
0.000165931897
0.000164629755
0.000165538284
0.000167100798
0.000168643756
0.000166161693
0.000167567767
0.000169562419
0.000169802989
0.000167965288
0.000168775688
0.000170405609
0.000170951566
0.000169581167
0.00016994497
0.000171491819
0.000171837047
0.000170723196
0.000170977326
0.00017240565
0.000172623918
0.000171582427
0.000171778314
0.000173106922
0.000173236181
0.000172256693
0.000172410135
0.00017360084
0.000173720785
0.000172804107
0.000172914966
0.000174051824
0.000174126585
0.000173250591
0.000173342725
0.000174478368
0.000174480779
)
;

boundaryField
{
    closed
    {
        type            calculated;
        value           nonuniform List<scalar> 0();
    }
    open
    {
        type            calculated;
        value           nonuniform List<scalar> 0();
    }
    sides
    {
        type            empty;
    }
    procBoundary4to3
    {
        type            processor;
        value           uniform 6.3501518e-05;
    }
    procBoundary4to5
    {
        type            processor;
        value           uniform 0.000173652182;
    }
}


// ************************************************************************* //
