/*--------------------------------*- C++ -*----------------------------------*\
| =========                 |                                                 |
| \\      /  F ield         | OpenFOAM: The Open Source CFD Toolbox           |
|  \\    /   O peration     | Version:  2306                                  |
|   \\  /    A nd           | Website:  www.openfoam.com                      |
|    \\/     M anipulation  |                                                 |
\*---------------------------------------------------------------------------*/
FoamFile
{
    version     2.0;
    format      ascii;
    arch        "LSB;label=32;scalar=64";
    class       volScalarField;
    location    "0.00172";
    object      prefDh_H2;
}
// * * * * * * * * * * * * * * * * * * * * * * * * * * * * * * * * * * * * * //

dimensions      [1 1 -3 0 0 0 0];

internalField   nonuniform List<scalar> 
531
(
28.930002
23.7967329
24.2281517
17.4054524
17.6568642
37.1857345
38.1803553
37.4757885
38.2441076
38.0240138
27.783939
22.5313017
37.7518159
37.9654808
29.3446319
17.1021913
17.3640778
37.1338727
38.1251603
37.6278397
38.2204628
38.0653327
29.1604112
25.9507267
22.2747409
22.3312367
37.1407328
38.1584954
26.0904599
23.2054546
37.0215617
38.186106
25.2604182
23.7088941
37.0324321
38.0563925
37.9549562
27.3671313
23.1978561
37.0249176
37.98195
37.6132661
38.0672796
29.1593605
24.8150192
24.2898754
22.4501292
15.6921821
15.8924843
36.4208989
38.1381258
37.4719157
38.362197
37.9811477
28.8470136
23.3938393
23.4583678
36.9581927
38.4532416
29.7842376
27.3342595
37.3044494
38.37002
29.1778073
27.7198348
23.9764413
24.0034436
37.2562601
38.3388653
38.1517905
28.9305828
23.4551965
24.0465682
18.4267123
18.6700003
36.2876428
38.168521
37.3786115
38.3116565
29.275015
26.52749
37.1770869
38.280002
38.1120453
29.0486786
21.1588471
21.2340551
36.966323
38.0857052
29.1002766
21.8941608
21.9813794
37.0162871
38.380461
28.6018035
26.3426985
37.213542
38.2705696
38.1395389
29.6487158
26.4674184
23.2430256
23.2525651
37.611959
28.969729
22.6459674
37.3722524
38.0340725
29.0003252
21.5768616
21.666609
37.2725186
38.1622054
38.0527635
30.0448042
24.009897
23.8029866
37.0343018
38.002493
29.1514597
21.2686387
21.4102174
36.6779818
38.3477332
26.0045327
23.5879153
36.736039
38.3385745
37.6504505
38.4562521
38.2778807
29.0347027
23.6151783
21.4761458
21.6617971
37.2079352
37.8527375
29.0619347
20.6033506
23.6062092
37.2818048
28.8928388
22.5716392
37.4054699
37.8248425
29.0028797
19.1460688
19.7819757
37.1194722
38.3025448
37.7285638
38.3482735
38.073092
29.4401027
23.98218
23.995851
36.7846633
38.1479114
31.8114183
26.782279
24.966428
21.5606376
21.5718255
37.1967206
38.1778141
27.9180325
24.1141766
37.4491957
38.0571981
29.0864903
20.0407382
20.8272083
37.454923
38.2856532
37.9557401
38.3773698
38.2177008
29.0249086
26.8666963
23.5031282
23.402102
37.5742164
38.1224777
29.0320041
17.668154
18.0282492
37.6661767
38.3257539
38.1260432
38.4158032
29.3074349
25.2444098
37.772653
38.2645424
29.2356709
25.4211815
21.9625097
21.9688768
37.6010932
38.1787823
37.9937839
38.2567491
29.211471
26.8432833
24.5749651
24.5811623
37.6413964
38.3242759
29.4402666
25.2248115
22.3356857
22.3772898
37.6179692
38.3420853
25.6686986
23.7338237
37.7686325
38.3829093
25.2345465
24.71096
37.8841058
38.4112235
38.3516967
28.4763475
24.2176302
38.2613563
38.1365375
28.864597
22.071554
22.3507097
38.0858638
38.4834581
28.7703958
26.3100765
38.1455754
38.2954168
29.0217744
27.4743612
24.21617
24.8331931
38.2973971
29.2729404
21.9006102
38.0495567
38.2330778
25.9859698
23.9734827
38.0370616
38.2368703
24.1453706
24.2170936
37.9892458
38.2292257
38.1396256
27.9954694
22.8434399
38.1832886
38.1670798
24.491591
24.6028259
38.1263416
38.1834046
38.1298669
29.379979
22.8909706
19.6602565
19.8928453
37.925365
37.8604518
37.9130523
26.058928
21.2524583
38.194094
37.8366328
38.2150624
37.8962886
29.1518116
25.0603144
24.4230336
22.4024601
16.5574129
16.3527026
31.5998553
37.9353727
38.3822121
38.0642249
38.3295289
38.1720362
29.2703759
23.3549216
38.6734293
37.9859534
29.0896928
20.7473708
22.8979169
38.0695226
38.1828212
37.9647683
29.2108326
25.6175457
24.9084291
23.2821185
16.2245702
17.0225755
38.0811169
38.1582211
37.8010479
38.3301209
37.5845667
29.1791843
20.4956576
21.7846402
38.134729
38.4387224
24.7900668
24.9642538
38.6465073
38.3380853
38.2845184
27.9675926
23.8502039
39.1405757
38.1480262
28.6954347
21.0203065
22.7888673
38.5057052
38.6831151
38.3433397
28.7335179
22.1333677
22.9390507
39.217842
38.8311576
28.3461143
21.1877754
22.1857506
39.5039189
39.3645757
26.2600346
23.1878805
40.3943159
39.6957842
27.2996556
19.94359
20.9029443
40.9058346
40.8366189
23.9226725
20.2001284
42.2796497
41.7739086
24.771317
14.8061419
16.7910919
41.2639594
41.8409981
41.3519864
41.6768345
41.8029543
41.4336102
20.8073998
16.1858951
39.2336725
39.5606326
37.3203101
38.1854864
33.8888326
37.0215999
36.7032895
37.3379565
37.8063914
37.9948246
38.5000921
38.638056
39.1747323
39.3915275
40.1159749
40.5711434
41.8452648
43.0591621
46.2196158
47.9686841
45.438856
43.5321242
41.2897608
39.6249258
37.8444665
36.4556767
35.2146549
34.2221637
33.0321099
31.5412174
30.8858809
31.0319937
29.9184603
28.5639865
27.7878553
26.8302007
26.4489595
25.8571333
24.5542091
21.9602169
19.7605893
17.3157644
15.1742258
18.1512445
42.6802086
38.9495582
34.5995273
30.2644942
26.0443702
21.4826185
17.2349793
12.5511778
8.12517127
3.32372058
1.67384177
5.44300797
9.39509593
3.79259624
1.68297939
12.8044943
48.4974812
48.7658225
70.2045928
66.2650778
192.093371
199.851089
240.246299
260.992507
308.891522
363.990887
442.00235
543.659663
710.396116
826.606158
948.73742
1046.98664
1206.80771
1297.29934
1422.26691
1490.08
1608.6813
1674.45192
1796.2763
1872.85829
1988.96053
2052.35046
2140.88798
2188.51312
2267.78756
2312.46064
2386.52782
2428.35381
2498.27182
2536.32002
2600.2943
2634.80194
2694.2981
2725.16859
2781.5352
2809.4253
2863.98904
2891.03339
2944.13709
2971.46621
3027.41466
3058.62646
3106.86874
3125.65881
3157.67449
3174.99868
3203.09669
3220.34133
3247.89149
3264.12991
3289.77789
3307.52238
3337.89313
3357.66002
3388.83405
3406.06737
3430.71666
3446.68338
3468.89605
3483.5906
3503.68674
3517.64492
3536.5727
3550.3601
3568.27071
3581.77709
3598.29169
3610.47658
3625.68054
3639.42811
3655.74333
3669.08111
3684.91512
3697.91933
3712.27121
3724.3945
3737.54755
3748.94054
3760.44786
3770.51908
3781.27396
3791.00446
3801.22937
3810.64499
3820.39889
3829.82731
3839.53481
3848.8226
3858.25715
3867.3873
3876.57709
3885.56146
3894.53391
3903.76713
3912.83787
3921.04867
3928.92018
3936.82685
3944.36232
3951.9822
3959.20913
3966.55901
3973.50236
3980.59896
)
;

boundaryField
{
    closed
    {
        type            calculated;
        value           nonuniform List<scalar> 0();
    }
    open
    {
        type            calculated;
        value           nonuniform List<scalar> 0();
    }
    sides
    {
        type            empty;
    }
    procBoundary4to3
    {
        type            processor;
        value           uniform 37.9714722;
    }
    procBoundary4to5
    {
        type            processor;
        value           uniform 3987.29479;
    }
}


// ************************************************************************* //
