/*--------------------------------*- C++ -*----------------------------------*\
| =========                 |                                                 |
| \\      /  F ield         | OpenFOAM: The Open Source CFD Toolbox           |
|  \\    /   O peration     | Version:  2306                                  |
|   \\  /    A nd           | Website:  www.openfoam.com                      |
|    \\/     M anipulation  |                                                 |
\*---------------------------------------------------------------------------*/
FoamFile
{
    version     2.0;
    format      ascii;
    arch        "LSB;label=32;scalar=64";
    class       volVectorField;
    location    "0.00172";
    object      U;
}
// * * * * * * * * * * * * * * * * * * * * * * * * * * * * * * * * * * * * * //

dimensions      [0 1 -1 0 0 0 0];

internalField   nonuniform List<vector> 
531
(
(0.344577384 0 0)
(0.343511821 0 0)
(0.345142285 0 0)
(0.341882168 0 0)
(0.335289306 0 0)
(0.353325378 0 0)
(0.371715502 0 0)
(0.372203914 0 0)
(0.374475562 0 0)
(0.371957306 0 0)
(0.36485433 0 0)
(0.361654403 0 0)
(0.380445431 0 0)
(0.391420469 0 0)
(0.377597471 0 0)
(0.367478262 0 0)
(0.36503678 0 0)
(0.382931531 0 0)
(0.400185678 0 0)
(0.400797762 0 0)
(0.401029209 0 0)
(0.395950303 0 0)
(0.388434836 0 0)
(0.386417953 0 0)
(0.382250389 0 0)
(0.379322308 0 0)
(0.395160054 0 0)
(0.400724683 0 0)
(0.388376982 0 0)
(0.384686952 0 0)
(0.401296651 0 0)
(0.408372252 0 0)
(0.39522601 0 0)
(0.392768368 0 0)
(0.409383242 0 0)
(0.42798334 0 0)
(0.420464909 0 0)
(0.407571673 0 0)
(0.402991281 0 0)
(0.418744402 0 0)
(0.437837237 0 0)
(0.438886775 0 0)
(0.432734196 0 0)
(0.427851825 0 0)
(0.429411827 0 0)
(0.4337988 0 0)
(0.435289868 0 0)
(0.431275075 0 0)
(0.426408927 0 0)
(0.443848445 0 0)
(0.466330502 0 0)
(0.467855408 0 0)
(0.468798409 0 0)
(0.461078036 0 0)
(0.451478097 0 0)
(0.44867255 0 0)
(0.448122023 0 0)
(0.467188608 0 0)
(0.478538967 0 0)
(0.470452163 0 0)
(0.47113805 0 0)
(0.485841026 0 0)
(0.492105045 0 0)
(0.484796621 0 0)
(0.485149387 0 0)
(0.482003133 0 0)
(0.481812988 0 0)
(0.498871145 0 0)
(0.514156959 0 0)
(0.505847942 0 0)
(0.49331843 0 0)
(0.494700152 0 0)
(0.496931116 0 0)
(0.492209173 0 0)
(0.489116108 0 0)
(0.504840146 0 0)
(0.521059297 0 0)
(0.521392957 0 0)
(0.513687344 0 0)
(0.508753919 0 0)
(0.512004239 0 0)
(0.526830467 0 0)
(0.54109802 0 0)
(0.530601292 0 0)
(0.513117909 0 0)
(0.507460895 0 0)
(0.508117392 0 0)
(0.528680784 0 0)
(0.535998575 0 0)
(0.518854976 0 0)
(0.510180869 0 0)
(0.509539384 0 0)
(0.52708587 0 0)
(0.531821605 0 0)
(0.521349044 0 0)
(0.522588964 0 0)
(0.536035452 0 0)
(0.546614325 0 0)
(0.537073557 0 0)
(0.52684402 0 0)
(0.528097274 0 0)
(0.527262505 0 0)
(0.52921935 0 0)
(0.534028739 0 0)
(0.52490222 0 0)
(0.51684384 0 0)
(0.534691002 0 0)
(0.540019965 0 0)
(0.52355043 0 0)
(0.516419506 0 0)
(0.521389375 0 0)
(0.53828219 0 0)
(0.545204739 0 0)
(0.537776595 0 0)
(0.529274338 0 0)
(0.528648508 0 0)
(0.531760749 0 0)
(0.551692178 0 0)
(0.556421588 0 0)
(0.542212412 0 0)
(0.537027886 0 0)
(0.53770257 0 0)
(0.560019897 0 0)
(0.567759508 0 0)
(0.559176956 0 0)
(0.567799507 0 0)
(0.588937347 0 0)
(0.604688972 0 0)
(0.608416627 0 0)
(0.612266325 0 0)
(0.60658135 0 0)
(0.593322148 0 0)
(0.596040517 0 0)
(0.599781169 0 0)
(0.599218098 0 0)
(0.623190259 0 0)
(0.631507099 0 0)
(0.616167568 0 0)
(0.611779966 0 0)
(0.613825331 0 0)
(0.620003432 0 0)
(0.611898521 0 0)
(0.604845128 0 0)
(0.624496526 0 0)
(0.623968019 0 0)
(0.601747813 0 0)
(0.589891273 0 0)
(0.579236504 0 0)
(0.587740789 0 0)
(0.595704542 0 0)
(0.588817345 0 0)
(0.580702514 0 0)
(0.564719108 0 0)
(0.545942234 0 0)
(0.535135946 0 0)
(0.532091737 0 0)
(0.536393833 0 0)
(0.526776606 0 0)
(0.515052904 0 0)
(0.508044662 0 0)
(0.494266516 0 0)
(0.474583087 0 0)
(0.459516173 0 0)
(0.46270827 0 0)
(0.45584271 0 0)
(0.4357699 0 0)
(0.42769172 0 0)
(0.429354629 0 0)
(0.419808154 0 0)
(0.396290045 0 0)
(0.383337547 0 0)
(0.37449894 0 0)
(0.374923961 0 0)
(0.378170653 0 0)
(0.370526574 0 0)
(0.363132553 0 0)
(0.349305624 0 0)
(0.337739265 0 0)
(0.334405513 0 0)
(0.329589645 0 0)
(0.327595996 0 0)
(0.337635412 0 0)
(0.339012659 0 0)
(0.328411889 0 0)
(0.325463576 0 0)
(0.323682948 0 0)
(0.333314321 0 0)
(0.34503245 0 0)
(0.344286669 0 0)
(0.336119273 0 0)
(0.328233856 0 0)
(0.32946573 0 0)
(0.341008895 0 0)
(0.342032381 0 0)
(0.332761952 0 0)
(0.331098776 0 0)
(0.329490728 0 0)
(0.328033935 0 0)
(0.338291773 0 0)
(0.34701114 0 0)
(0.344502533 0 0)
(0.336875434 0 0)
(0.329426601 0 0)
(0.327845673 0 0)
(0.324484753 0 0)
(0.323198836 0 0)
(0.332472967 0 0)
(0.331136885 0 0)
(0.320263552 0 0)
(0.315582012 0 0)
(0.310689701 0 0)
(0.309708746 0 0)
(0.319757681 0 0)
(0.314937744 0 0)
(0.303046665 0 0)
(0.303753434 0 0)
(0.311586572 0 0)
(0.306437342 0 0)
(0.294501372 0 0)
(0.295780249 0 0)
(0.302394452 0 0)
(0.304680078 0 0)
(0.295560342 0 0)
(0.283917298 0 0)
(0.280447824 0 0)
(0.285515575 0 0)
(0.281295504 0 0)
(0.268471318 0 0)
(0.262496301 0 0)
(0.258809874 0 0)
(0.262622162 0 0)
(0.259376723 0 0)
(0.249812392 0 0)
(0.248545117 0 0)
(0.251614404 0 0)
(0.246836666 0 0)
(0.236293442 0 0)
(0.230986253 0 0)
(0.226915673 0 0)
(0.22567079 0 0)
(0.223643932 0 0)
(0.214916739 0 0)
(0.208421986 0 0)
(0.213652147 0 0)
(0.210010432 0 0)
(0.199593704 0 0)
(0.197750385 0 0)
(0.201613527 0 0)
(0.196268542 0 0)
(0.185332767 0 0)
(0.184842755 0 0)
(0.188503686 0 0)
(0.19004323 0 0)
(0.18263814 0 0)
(0.17471436 0 0)
(0.171898356 0 0)
(0.175068247 0 0)
(0.171086822 0 0)
(0.162059543 0 0)
(0.162684746 0 0)
(0.16669389 0 0)
(0.16816628 0 0)
(0.162540798 0 0)
(0.155246087 0 0)
(0.150604758 0 0)
(0.148127365 0 0)
(0.150083087 0 0)
(0.155770488 0 0)
(0.15816852 0 0)
(0.153220485 0 0)
(0.146658936 0 0)
(0.144678094 0 0)
(0.147877103 0 0)
(0.149497605 0 0)
(0.148290099 0 0)
(0.144521701 0 0)
(0.137939335 0 0)
(0.133807748 0 0)
(0.131635796 0 0)
(0.128168687 0 0)
(0.127707357 0 0)
(0.13362131 0 0)
(0.134604765 0 0)
(0.130391987 0 0)
(0.129156387 0 0)
(0.128117613 0 0)
(0.127172165 0 0)
(0.124172449 0 0)
(0.117252182 0 0)
(0.112909042 0 0)
(0.114770411 0 0)
(0.111982444 0 0)
(0.104745049 0 0)
(0.0997905199 0 0)
(0.101576637 0 0)
(0.105869074 0 0)
(0.104488373 0 0)
(0.100632262 0 0)
(0.0951877811 0 0)
(0.0897712226 0 0)
(0.0850201491 0 0)
(0.0793000643 0 0)
(0.0750315689 0 0)
(0.0764483985 0 0)
(0.0796695091 0 0)
(0.0781298411 0 0)
(0.0755641819 0 0)
(0.0734454338 0 0)
(0.070776433 0 0)
(0.0663517076 0 0)
(0.0609092273 0 0)
(0.0617239887 0 0)
(0.0657123004 0 0)
(0.0631110132 0 0)
(0.0549580798 0 0)
(0.0495583083 0 0)
(0.0497596102 0 0)
(0.0483164241 0 0)
(0.0489152586 0 0)
(0.0454807595 0 0)
(0.0392526259 0 0)
(0.0387069845 0 0)
(0.0364331112 0 0)
(0.0339970778 0 0)
(0.0256382476 0 0)
(0.0308559776 0 0)
(0.0368091666 0 0)
(0.0310684576 0 0)
(0.0327346927 0 0)
(0.0306560372 0 0)
(0.0248210257 0 0)
(0.0274008615 0 0)
(0.0289680073 0 0)
(0.0262451522 0 0)
(0.0246291411 0 0)
(0.0170335756 0 0)
(0.0232121634 0 0)
(0.0247700492 0 0)
(0.0240958996 0 0)
(0.018108015 0 0)
(0.00992941621 0 0)
(0.0100773213 0 0)
(0.00909116465 0 0)
(0.00734996964 0 0)
(-0.00112379583 0 0)
(0.00632199869 0 0)
(0.0057457748 0 0)
(0.00494085915 0 0)
(-0.000541975392 0 0)
(-0.0125945856 0 0)
(-0.0157866847 0 0)
(-0.0174476949 0 0)
(-0.0297087603 0 0)
(-0.0480881686 0 0)
(-0.0458305034 0 0)
(-0.047951113 0 0)
(-0.0562670492 0 0)
(-0.0662783437 0 0)
(-0.0767948152 0 0)
(-0.0885251384 0 0)
(-0.0994031012 0 0)
(-0.117909492 0 0)
(-0.140410279 0 0)
(-0.152280582 0 0)
(-0.159058908 0 0)
(-0.167718607 0 0)
(-0.183938938 0 0)
(-0.16236304 0 0)
(-0.138771635 0 0)
(-0.146125943 0 0)
(-0.140439155 0 0)
(-0.133490532 0 0)
(-0.125128716 0 0)
(-0.114000815 0 0)
(-0.101496323 0 0)
(-0.087728779 0 0)
(-0.0732776216 0 0)
(-0.0584188402 0 0)
(-0.0435823085 0 0)
(-0.0289533999 0 0)
(-0.0142084449 0 0)
(0.00432557604 0 0)
(0.0154325474 0 0)
(0.0194534536 0 0)
(0.0243900345 0 0)
(0.0272195886 0 0)
(0.0295835396 0 0)
(0.030512279 0 0)
(0.0308504704 0 0)
(0.0302463728 0 0)
(0.0294655797 0 0)
(0.0272675025 0 0)
(0.0236269388 0 0)
(0.0216176692 0 0)
(0.0185601227 0 0)
(0.0138208018 0 0)
(0.0110036355 0 0)
(0.00944891851 0 0)
(0.00991547747 0 0)
(0.0120304017 0 0)
(0.0179283588 0 0)
(0.0223818931 0 0)
(0.0264423141 0 0)
(0.0316527587 0 0)
(0.0399543981 0 0)
(0.0392669979 0 0)
(0.0536927851 0 0)
(0.0664383524 0 0)
(0.0510171262 0 0)
(0.0329990336 0 0)
(0.00493196799 0 0)
(-0.0241651367 0 0)
(-0.053075863 0 0)
(-0.0749641187 0 0)
(-0.087380404 0 0)
(-0.0892775812 0 0)
(-0.0771359405 0 0)
(-0.0733290953 0 0)
(-0.0343291379 0 0)
(-0.0112340307 0 0)
(-0.0214101186 0 0)
(-0.0387196478 0 0)
(-0.033645712 0 0)
(-0.0214993972 0 0)
(-0.0476054172 0 0)
(0.0347745694 0 0)
(0.016181321 0 0)
(0.0808726601 0 0)
(-0.0487467557 0 0)
(-0.248589644 0 0)
(-0.139565774 0 0)
(-0.132170472 0 0)
(-0.110247474 0 0)
(-0.0711151794 0 0)
(-0.0413234281 0 0)
(0.0247252042 0 0)
(0.108226378 0 0)
(0.150654042 0 0)
(0.217383436 0 0)
(0.292468963 0 0)
(0.356822318 0 0)
(0.410999882 0 0)
(0.457196404 0 0)
(0.497846492 0 0)
(0.532669738 0 0)
(0.563701614 0 0)
(0.590583326 0 0)
(0.612433504 0 0)
(0.62753365 0 0)
(0.63700019 0 0)
(0.642550186 0 0)
(0.647134166 0 0)
(0.651896341 0 0)
(0.657513802 0 0)
(0.664626214 0 0)
(0.673222861 0 0)
(0.683678112 0 0)
(0.69545871 0 0)
(0.709185807 0 0)
(0.724020864 0 0)
(0.740490755 0 0)
(0.757605194 0 0)
(0.77615352 0 0)
(0.795236463 0 0)
(0.815026976 0 0)
(0.834781635 0 0)
(0.855166207 0 0)
(0.875922605 0 0)
(0.896892872 0 0)
(0.915724255 0 0)
(0.932382452 0 0)
(0.947509779 0 0)
(0.961956497 0 0)
(0.975690689 0 0)
(0.988925608 0 0)
(1.00142336 0 0)
(1.0132269 0 0)
(1.02434346 0 0)
(1.03531015 0 0)
(1.04618169 0 0)
(1.0568458 0 0)
(1.06694493 0 0)
(1.07619534 0 0)
(1.08453588 0 0)
(1.09236952 0 0)
(1.09971392 0 0)
(1.10667405 0 0)
(1.11329574 0 0)
(1.11970429 0 0)
(1.12591795 0 0)
(1.13204913 0 0)
(1.13811979 0 0)
(1.1441803 0 0)
(1.15014666 0 0)
(1.15612282 0 0)
(1.16231959 0 0)
(1.16892444 0 0)
(1.17585836 0 0)
(1.18313356 0 0)
(1.19073402 0 0)
(1.19869118 0 0)
(1.20699601 0 0)
(1.21572774 0 0)
(1.22489308 0 0)
(1.23450666 0 0)
(1.24451134 0 0)
(1.25497263 0 0)
(1.26594622 0 0)
(1.27746259 0 0)
(1.28948187 0 0)
(1.3019906 0 0)
(1.31494282 0 0)
(1.32831893 0 0)
(1.34206032 0 0)
(1.35611366 0 0)
(1.37040755 0 0)
(1.38488219 0 0)
(1.39946237 0 0)
(1.4140863 0 0)
(1.4286977 0 0)
(1.44322437 0 0)
(1.45751301 0 0)
(1.47143569 0 0)
(1.48496571 0 0)
(1.4980852 0 0)
(1.51073652 0 0)
(1.52285034 0 0)
(1.53436517 0 0)
(1.54522099 0 0)
(1.55536449 0 0)
(1.56474353 0 0)
)
;

boundaryField
{
    closed
    {
        type            noSlip;
    }
    open
    {
        type            inletOutlet;
        inletValue      nonuniform List<vector> 0();
        value           nonuniform List<vector> 0();
    }
    sides
    {
        type            empty;
    }
    procBoundary4to3
    {
        type            processor;
        value           uniform (0.350919209 0 0);
    }
    procBoundary4to5
    {
        type            processor;
        value           uniform (1.57331458 0 0);
    }
}


// ************************************************************************* //
