/*--------------------------------*- C++ -*----------------------------------*\
| =========                 |                                                 |
| \\      /  F ield         | OpenFOAM: The Open Source CFD Toolbox           |
|  \\    /   O peration     | Version:  2306                                  |
|   \\  /    A nd           | Website:  www.openfoam.com                      |
|    \\/     M anipulation  |                                                 |
\*---------------------------------------------------------------------------*/
FoamFile
{
    version     2.0;
    format      ascii;
    arch        "LSB;label=32;scalar=64";
    class       volScalarField;
    location    "0.00088";
    object      prefDh_H2;
}
// * * * * * * * * * * * * * * * * * * * * * * * * * * * * * * * * * * * * * //

dimensions      [1 1 -3 0 0 0 0];

internalField   nonuniform List<scalar> 
531
(
38.5423099
38.0339557
28.91055
23.3487884
25.9416183
38.5828541
37.9316253
28.7998798
22.2327111
25.1482775
38.6369283
38.3182061
29.7534852
27.1281382
36.6655882
38.3063862
29.5488852
27.4583671
38.7708532
38.076314
29.0954594
21.6423489
24.9223516
38.6847892
37.87289
28.7461793
21.7903405
25.8682008
38.3566374
38.5697338
37.7021185
38.6940601
37.6774013
28.7950984
26.2837249
26.2742046
26.1577499
24.2785884
27.8217495
38.9298359
37.9048944
28.6128653
23.311194
27.7902448
38.3808544
38.8791016
37.2650934
28.7963658
22.4045911
26.933787
38.6493607
38.5035635
28.8115634
27.9808078
38.9229804
38.3603944
29.6373332
23.1768154
22.788651
26.0975724
38.5859795
38.5931496
37.8188902
38.628315
37.5159136
28.5840082
23.7828086
23.9014492
28.2312272
39.0127706
38.0383076
28.850253
23.7939478
28.8307325
38.7580415
38.2807049
28.9060067
24.4079593
28.8010288
38.7940695
38.2575663
29.0164204
23.8448151
28.7500482
38.7463429
38.2905946
28.0602912
23.8219551
28.7291496
38.6961897
38.2661034
27.8913094
24.321927
28.7437028
38.6535948
38.1983988
27.6573341
24.6171168
28.7707196
38.6068945
38.1314526
27.2616523
24.7060265
28.802116
38.5684677
38.0662395
26.7954236
24.5028044
28.8612668
38.54509
37.8463334
25.4939794
23.5193901
28.7038847
38.4327935
38.5138616
37.7014545
25.5781776
23.923526
25.3377152
29.1525179
38.6737786
37.7176669
25.1375089
23.230164
28.9348542
38.4846406
37.6775078
28.0647711
29.2875572
38.8135149
37.8493428
24.9522404
23.3544136
28.8489418
38.4362413
38.1749369
25.5754931
23.165477
28.9877695
38.5604771
37.7499053
28.1058575
29.3381275
38.8731539
38.3773758
25.46322
23.6972915
28.7832711
38.437424
38.6505649
27.3573205
24.3702871
28.7977597
38.394335
38.7128975
27.6509384
24.3721276
28.791304
38.3375357
38.7387571
28.0891669
24.6814711
28.7818162
38.1790361
38.709045
28.6166771
24.5074285
25.5490004
29.1300521
38.4037024
36.6958382
28.8370929
29.3471656
38.3714337
38.6613413
27.0936715
24.0286747
28.8450312
37.8780856
38.5990597
28.4600858
23.9777281
28.8501265
37.8307295
38.5498205
27.7785239
23.3575655
28.8539163
37.8485359
36.0617073
28.9813988
29.3842334
38.1294055
38.4126462
26.4388325
23.8985218
28.9275385
37.6873015
38.366954
26.7334455
24.1334284
29.0113335
37.7350478
38.1273991
25.5590866
23.3993875
28.9049326
38.0208644
35.4942633
28.5015312
29.3660568
38.2835655
37.0325333
25.0021803
23.896571
29.0921564
37.9291095
37.5541996
25.115125
24.0882161
29.0500702
37.9637632
34.5235896
25.8775596
29.0990757
38.6112732
38.2463441
29.0334842
28.8367114
28.8143107
29.3229914
29.0314556
28.876358
29.0211942
29.1685008
28.8175544
29.0396792
29.1406668
38.7514347
35.8813064
27.0845413
29.3758914
38.6363528
36.2442257
22.7680562
22.423864
29.0349987
38.0762753
35.1645704
25.3378222
29.5837498
38.5329841
35.0636428
25.1811797
29.737614
38.6226861
35.8156514
25.7940775
29.5665455
38.5858085
37.0783503
22.6378179
22.1668232
28.9550318
38.3271303
36.8770611
27.0983003
29.2577976
38.7033994
37.4191244
23.8641123
22.7943157
28.7970804
38.4818594
37.1466905
27.3748485
29.0349853
38.825089
37.6411453
25.1443396
23.6500021
28.6814739
38.5024564
37.8043992
25.2843162
23.6601602
28.6973717
38.5799421
37.0989858
27.6488225
28.8414019
38.8198845
37.7259415
25.8028838
23.8789921
28.6301323
38.5067885
37.7617588
25.6989936
23.6095752
28.6825755
38.584765
37.160662
27.7436609
28.8260244
38.760337
37.8235885
26.6545804
23.7303585
28.6392459
38.5918276
37.9639807
26.6525518
23.4494098
28.6817045
38.6648402
37.7218941
28.124321
28.8528248
38.8500344
38.1129753
27.6317873
24.0040258
28.6619666
38.7246047
38.3459407
28.5107883
24.1247352
28.7307217
38.7860081
38.3997181
28.3788244
23.4521996
28.7261693
38.6934537
38.7280054
28.1667865
28.3122401
39.0358257
38.6631647
28.8581475
28.7613091
29.1201841
29.1614371
28.4477607
28.7660485
38.8206467
38.6879577
28.6988796
23.5611512
26.233578
38.4927507
38.8716596
28.0190984
26.5522462
38.4075769
38.707692
27.8470886
26.4887881
38.4210536
38.3635383
29.1222323
22.1751001
24.5755125
38.1534214
38.5884349
29.0881944
26.8838463
38.298295
38.3513272
29.0655283
22.5756169
24.8561764
38.055771
38.6184446
29.3288072
27.1830143
38.0695141
38.3431084
29.1329294
22.4808259
24.7011556
37.9018442
38.6379203
29.4287428
27.1041876
37.7924204
38.3191091
29.1429102
21.7479695
23.8201341
37.5876882
38.5921014
28.6833095
25.3359456
37.0160633
38.597243
28.3247163
25.4237453
36.7422474
38.528033
28.9462158
26.0108065
36.7416359
38.2472401
28.9989363
21.4412202
22.6697632
37.0902269
38.6544938
29.3275913
26.2985275
36.2758737
38.6998331
29.3278409
27.0130373
36.3361743
38.3547793
28.8757317
22.5174843
23.2962021
37.0413596
38.7526314
29.1314211
28.1083543
36.4008753
38.4504556
28.9279763
24.865813
26.0568735
37.1809695
38.5910434
29.2002966
27.4214167
25.3854437
25.5146562
37.4539495
38.2545507
28.8708939
22.8752546
22.9638257
37.0286196
38.5850097
29.5904162
25.8522721
36.1353168
38.6023675
29.8393355
25.8700578
36.1116229
38.5066768
29.8347438
26.3806906
36.6703189
38.0536819
29.251104
20.7833139
22.143048
37.5688271
38.3587818
29.8405562
25.5732778
36.0220826
38.4106447
29.3182162
25.3971822
35.9455137
38.4335297
29.377711
25.7617577
36.3899109
38.5121396
29.8778967
27.3084896
37.4146736
38.1674792
29.2189868
22.6900763
26.0379483
38.2021184
38.2179596
29.034468
23.3954251
27.0706535
38.2980881
38.12055
29.0034767
22.4514357
26.5168551
37.9434194
38.2760124
37.8569454
38.2977007
29.0431363
25.0522519
23.9014545
25.8662475
38.5965592
38.190281
28.9413063
22.5071748
27.0772842
38.5116674
38.3900478
28.9729216
23.8074305
28.3308127
38.5469699
38.4559017
28.9492437
24.2631342
28.7098796
38.5802767
38.5185075
28.9649101
23.9413609
28.4300229
38.6063451
38.5664207
29.0214667
23.1325227
27.6849488
38.6495027
38.3889082
29.1846362
21.0948527
26.117463
38.1784098
37.9551307
38.0244088
)
;

boundaryField
{
    closed
    {
        type            calculated;
        value           nonuniform List<scalar> 0();
    }
    open
    {
        type            calculated;
        value           nonuniform List<scalar> 0();
    }
    sides
    {
        type            empty;
    }
    procBoundary3to2
    {
        type            processor;
        value           uniform 26.5772731;
    }
    procBoundary3to4
    {
        type            processor;
        value           uniform 38.0552086;
    }
}


// ************************************************************************* //
