/*--------------------------------*- C++ -*----------------------------------*\
| =========                 |                                                 |
| \\      /  F ield         | OpenFOAM: The Open Source CFD Toolbox           |
|  \\    /   O peration     | Version:  2306                                  |
|   \\  /    A nd           | Website:  www.openfoam.com                      |
|    \\/     M anipulation  |                                                 |
\*---------------------------------------------------------------------------*/
FoamFile
{
    version     2.0;
    format      ascii;
    arch        "LSB;label=32;scalar=64";
    class       volScalarField;
    location    "0.00088";
    object      PV;
}
// * * * * * * * * * * * * * * * * * * * * * * * * * * * * * * * * * * * * * //

dimensions      [0 0 0 0 0 0 0];

internalField   nonuniform List<scalar> 
531
(
-0.00697281781
-0.0069774463
-0.00712891497
-0.00721728745
-0.00719690403
-0.00697253947
-0.00697861275
-0.00713774922
-0.00722507109
-0.00719968094
-0.0069725107
-0.00697534287
-0.00717353147
-0.00718798467
-0.00699168588
-0.00697569757
-0.00718186654
-0.00718622056
-0.00697181676
-0.00697804978
-0.00715873559
-0.00722797075
-0.00720327686
-0.00697241011
-0.00698003721
-0.007148138
-0.00723098154
-0.00719594653
-0.00697608457
-0.00697396826
-0.00698226397
-0.00697260167
-0.00698176659
-0.00711869979
-0.00719803222
-0.00719626375
-0.00719768166
-0.00720951086
-0.00718461968
-0.00696910663
-0.00697867544
-0.00714387679
-0.00722076423
-0.00718002563
-0.00697472262
-0.00696971438
-0.00698529568
-0.00716756986
-0.00722649663
-0.00718570649
-0.00697208969
-0.00697343508
-0.00718293241
-0.00718185665
-0.00696968473
-0.00697468124
-0.0071755752
-0.00721580422
-0.00722082355
-0.00719464089
-0.00697290384
-0.00697287738
-0.00698040227
-0.00697242322
-0.0069828324
-0.00718048435
-0.00721503881
-0.00720962679
-0.00718287528
-0.00696801179
-0.00697715982
-0.00716337936
-0.00721402859
-0.00716147314
-0.00697026884
-0.00697481414
-0.00716155681
-0.00720874086
-0.00715281247
-0.006969845
-0.00697500332
-0.00717465169
-0.00721215303
-0.00715065313
-0.00697019589
-0.00697464787
-0.00718161424
-0.0072119275
-0.00714337938
-0.00697063579
-0.00697489094
-0.0071831833
-0.00720878149
-0.00713708799
-0.00697107563
-0.00697558349
-0.00718530876
-0.00720708257
-0.00713260343
-0.0069715444
-0.00697624999
-0.00718852699
-0.00720655443
-0.00713009854
-0.00697186793
-0.00697683853
-0.00719212943
-0.00720777084
-0.00713225588
-0.00697201309
-0.00697882626
-0.00719973348
-0.00721581933
-0.00714856722
-0.00697289106
-0.00697202504
-0.00698010283
-0.00720139427
-0.0072138211
-0.00719983986
-0.007148925
-0.00697038852
-0.00697985687
-0.0072023284
-0.00721782811
-0.00714577536
-0.00697273424
-0.0069808075
-0.00718187219
-0.00715422338
-0.00696966394
-0.00697923452
-0.00720306169
-0.0072168166
-0.00713651143
-0.00697329439
-0.00697609803
-0.00720009449
-0.00721770943
-0.00714658148
-0.00697239884
-0.00698048809
-0.00718089006
-0.00715628778
-0.00696936288
-0.00697444916
-0.00719839648
-0.00721430388
-0.00713578751
-0.00697334585
-0.00697161364
-0.00718700833
-0.00720987621
-0.00713357846
-0.00697362262
-0.00697094461
-0.0071842304
-0.00720987955
-0.00713359471
-0.00697403773
-0.0069705734
-0.00718040082
-0.00720830995
-0.00713362294
-0.00697536382
-0.00697052456
-0.00717727416
-0.00720809193
-0.00719871338
-0.0071496262
-0.00697340487
-0.00699007321
-0.00716885353
-0.00715051189
-0.00697386316
-0.00697154533
-0.00718514982
-0.00721336872
-0.00714270781
-0.0069784844
-0.00697198578
-0.00717655156
-0.00721368619
-0.00714308262
-0.00697891161
-0.00697249709
-0.00718069868
-0.00721815782
-0.00714633531
-0.00697894155
-0.00699569829
-0.00717470162
-0.00715434837
-0.00697620035
-0.00697394114
-0.00719022806
-0.00721538793
-0.00713794908
-0.0069801905
-0.00697409615
-0.00719017562
-0.00721360391
-0.00713285672
-0.00697966285
-0.00697636862
-0.00719794771
-0.00721853383
-0.00713458347
-0.00697717742
-0.00700033114
-0.00717771698
-0.00714813782
-0.00697459016
-0.0069869546
-0.00720123063
-0.00721568316
-0.00711901106
-0.00697784722
-0.00698179934
-0.00720250636
-0.0072147319
-0.00711482974
-0.00697762041
-0.00700878016
-0.00719753778
-0.00716760451
-0.00697159076
-0.00697512049
-0.00716431331
-0.00718127844
-0.00712611549
-0.00709531166
-0.00710561587
-0.00712508357
-0.00710555734
-0.00709883446
-0.00714776528
-0.007173436
-0.00710782867
-0.00697022745
-0.0069966423
-0.00718598979
-0.00715466011
-0.00697125247
-0.00699421266
-0.00721782875
-0.00722589029
-0.007135068
-0.00697670671
-0.00700291051
-0.00720223914
-0.00717147474
-0.00697247982
-0.00700428898
-0.00720154715
-0.00717306028
-0.00697165507
-0.00699787348
-0.00719693006
-0.00716579488
-0.00697176981
-0.00698650679
-0.00721939455
-0.00722576431
-0.00715028014
-0.00697436064
-0.00698834704
-0.00718912806
-0.00716169246
-0.00697060457
-0.00698322137
-0.00721026434
-0.00721995941
-0.00715247469
-0.00697294648
-0.00698573107
-0.00718624479
-0.00716086347
-0.0069694438
-0.00698105295
-0.00720110483
-0.0072130336
-0.00714409842
-0.0069724852
-0.00697923321
-0.00720141185
-0.00721210789
-0.0071523593
-0.00697201926
-0.00698606922
-0.00718346896
-0.0071625332
-0.00696949408
-0.00698018798
-0.00719622548
-0.00721077308
-0.00714569791
-0.00697247569
-0.00697958133
-0.00719801723
-0.00721228639
-0.00715564966
-0.00697199006
-0.00698540041
-0.00718312756
-0.00716674371
-0.00697007804
-0.00697923687
-0.00719047552
-0.00721169955
-0.00715291209
-0.00697170196
-0.00697767735
-0.00719105326
-0.00721332795
-0.00716159101
-0.00697126482
-0.00698008828
-0.00718105342
-0.00716884969
-0.00696934535
-0.00697649954
-0.00718347569
-0.00720981505
-0.00715589978
-0.00697045807
-0.00697404376
-0.00717790204
-0.00720845253
-0.00715732234
-0.00696983462
-0.00697351547
-0.00717758797
-0.00721354387
-0.00717184666
-0.00697090237
-0.00697045213
-0.00718198723
-0.007178001
-0.00696761011
-0.00697080759
-0.00711248157
-0.0071775402
-0.00717525717
-0.00717199612
-0.00717934783
-0.00713526095
-0.00696913324
-0.00697060819
-0.00715836301
-0.00721306143
-0.00719116162
-0.00697283497
-0.00696910725
-0.00718516779
-0.00719070516
-0.00697393982
-0.00697084306
-0.0071869336
-0.00719369991
-0.00697363159
-0.00697414616
-0.0071687652
-0.00722441361
-0.00720521438
-0.00697599176
-0.00697173655
-0.00717822022
-0.00719176655
-0.00697471945
-0.00697417542
-0.00716296669
-0.00722221248
-0.00720397281
-0.00697692328
-0.00697145523
-0.00717671161
-0.00719005669
-0.00697686484
-0.00697423972
-0.00716559744
-0.00722311048
-0.00720539905
-0.00697836914
-0.00697123686
-0.00717573816
-0.00719060265
-0.00697946026
-0.00697443124
-0.00716942571
-0.00722802682
-0.00721140148
-0.00698146005
-0.00697171888
-0.0071823478
-0.0072008195
-0.00698722353
-0.00697196697
-0.00718559586
-0.0072009112
-0.0069899318
-0.00697267096
-0.00718032713
-0.00719849675
-0.00698977058
-0.00697538192
-0.00716167991
-0.00723029209
-0.00721947781
-0.00698650666
-0.00697141491
-0.00716832218
-0.00719385106
-0.00699444615
-0.00697124387
-0.00716752327
-0.00719077288
-0.00699378598
-0.00697452055
-0.00714806365
-0.00722296621
-0.00721542375
-0.00698713381
-0.00697055886
-0.00715316462
-0.0071823485
-0.00699321592
-0.00697340788
-0.00712943818
-0.0072076967
-0.00719823792
-0.00698537384
-0.00697151545
-0.00711228728
-0.0071870134
-0.00720354633
-0.00720352085
-0.00698241041
-0.00697469182
-0.00713589228
-0.00722127032
-0.00721696817
-0.00698693875
-0.00697184467
-0.00716901503
-0.00719715577
-0.00699534549
-0.0069720718
-0.00717611805
-0.00719797263
-0.00699567652
-0.00697305989
-0.00717563009
-0.00719645461
-0.00699071807
-0.00697727708
-0.007159809
-0.0072364567
-0.0072233288
-0.00698215416
-0.00697435576
-0.0071778337
-0.00720047638
-0.00699663902
-0.00697418254
-0.00718186301
-0.00720212844
-0.0069974066
-0.00697413855
-0.00718131171
-0.00719961511
-0.00699368165
-0.00697340114
-0.00717741938
-0.00719029212
-0.00698396829
-0.00697640792
-0.00715750302
-0.0072236298
-0.00719857186
-0.00697611797
-0.00697566401
-0.00714740646
-0.00721841534
-0.00719189705
-0.00697520792
-0.00697662134
-0.0071502243
-0.00722627493
-0.0071954961
-0.00697888495
-0.00697547141
-0.00697937158
-0.0069750492
-0.00714183324
-0.00720592393
-0.00721268476
-0.0072002076
-0.00697158071
-0.00697517056
-0.00715743776
-0.00722252913
-0.00718903377
-0.00697233265
-0.00697328808
-0.00714943061
-0.00721411905
-0.007181444
-0.00697219082
-0.00697287495
-0.00714517512
-0.00721120256
-0.00717927326
-0.00697210916
-0.00697252056
-0.0071484938
-0.0072131171
-0.00718140773
-0.00697205847
-0.00697228929
-0.00715603664
-0.00721785449
-0.00718696891
-0.00697192933
-0.00697428138
-0.00716829546
-0.00723376189
-0.00719970808
-0.0069771243
-0.006979078
-0.0069784891
)
;

boundaryField
{
    closed
    {
        type            zeroGradient;
    }
    open
    {
        type            zeroGradient;
    }
    sides
    {
        type            empty;
    }
    procBoundary3to2
    {
        type            processor;
        value           uniform -0.00719323548;
    }
    procBoundary3to4
    {
        type            processor;
        value           uniform -0.00697825435;
    }
}


// ************************************************************************* //
