/*--------------------------------*- C++ -*----------------------------------*\
| =========                 |                                                 |
| \\      /  F ield         | OpenFOAM: The Open Source CFD Toolbox           |
|  \\    /   O peration     | Version:  2306                                  |
|   \\  /    A nd           | Website:  www.openfoam.com                      |
|    \\/     M anipulation  |                                                 |
\*---------------------------------------------------------------------------*/
FoamFile
{
    version     2.0;
    format      ascii;
    arch        "LSB;label=32;scalar=64";
    class       volScalarField;
    location    "0.0012";
    object      prefDPV_H2;
}
// * * * * * * * * * * * * * * * * * * * * * * * * * * * * * * * * * * * * * //

dimensions      [1 -1 -1 0 0 0 0];

internalField   nonuniform List<scalar> 
530
(
-3.20754417e-05
-3.10872047e-05
-3.09221693e-05
-3.09191081e-05
-3.09188174e-05
-3.09188077e-05
-3.0918807e-05
-3.0918807e-05
-3.0918807e-05
-3.0918807e-05
-3.0918807e-05
-3.0918807e-05
-3.0918807e-05
-3.0918807e-05
-3.0918807e-05
-3.0918807e-05
-3.0918807e-05
-3.0918807e-05
-3.0918807e-05
-3.0918807e-05
-3.0918807e-05
-3.0918807e-05
-3.0918807e-05
-3.0918807e-05
-3.0918807e-05
-3.0918807e-05
-3.0918807e-05
-3.0918807e-05
-3.0918807e-05
-3.0918807e-05
-3.0918807e-05
-3.0918807e-05
-3.0918807e-05
-3.0918807e-05
-3.0918807e-05
-3.0918807e-05
-3.0918807e-05
-3.0918807e-05
-3.0918807e-05
-3.0918807e-05
-3.0918807e-05
-3.0918807e-05
-3.0918807e-05
-3.0918807e-05
-3.0918807e-05
-3.0918807e-05
-3.0918807e-05
-3.0918807e-05
-3.0918807e-05
-3.0918807e-05
-3.0918807e-05
-3.0918807e-05
-3.0918807e-05
-3.0918807e-05
-3.0918807e-05
-3.0918807e-05
-3.0918807e-05
-3.0918807e-05
-3.0918807e-05
-3.0918807e-05
-3.0918807e-05
-3.0918807e-05
-3.0918807e-05
-3.0918807e-05
-3.09188071e-05
-3.09188072e-05
-3.09188075e-05
-3.09188088e-05
-3.09188101e-05
-3.09188178e-05
-3.09188243e-05
-3.09188593e-05
-3.09188865e-05
-3.09190068e-05
-3.09191369e-05
-3.09194131e-05
-3.09194377e-05
-3.09199332e-05
-3.0920799e-05
-3.09257873e-05
-3.09235006e-05
-3.09138975e-05
-3.09133776e-05
-3.09545938e-05
-3.0949643e-05
-3.09069453e-05
-3.08431358e-05
-3.13151562e-05
-3.15516296e-05
-3.10505777e-05
-3.08275636e-05
-3.06533191e-05
-3.08853486e-05
-3.14804834e-05
-3.15562805e-05
-3.08993681e-05
-3.05051346e-05
-3.05890467e-05
-3.14346028e-05
-3.15465508e-05
-3.15105441e-05
-3.09231223e-05
-3.07315523e-05
-3.07058342e-05
-3.0473929e-05
-3.04746002e-05
-3.12000168e-05
-3.15094265e-05
-3.1467686e-05
-3.15086754e-05
-3.10785415e-05
-3.06523287e-05
-3.06136561e-05
-3.1299901e-05
-3.15160972e-05
-3.0926778e-05
-3.06259295e-05
-3.06038818e-05
-3.03423956e-05
-3.03145156e-05
-3.10439569e-05
-3.15083865e-05
-3.15051014e-05
-3.15337289e-05
-3.15019731e-05
-3.09554476e-05
-3.05825874e-05
-3.05681402e-05
-3.12639366e-05
-3.15503667e-05
-3.09814723e-05
-3.08902189e-05
-3.09225886e-05
-3.08866196e-05
-3.07725918e-05
-3.07574908e-05
-3.13152467e-05
-3.15707562e-05
-3.09366605e-05
-3.08187325e-05
-3.13204409e-05
-3.15792736e-05
-3.09308085e-05
-3.08496434e-05
-3.13101277e-05
-3.15705188e-05
-3.10328112e-05
-3.08824317e-05
-3.09091124e-05
-3.08958375e-05
-3.08915221e-05
-3.0865465e-05
-3.08075318e-05
-3.12338677e-05
-3.1550457e-05
-3.09382247e-05
-3.0851251e-05
-3.12699381e-05
-3.15267007e-05
-3.09631266e-05
-3.06159509e-05
-3.05647207e-05
-3.1095864e-05
-3.15263109e-05
-3.09238931e-05
-3.07334447e-05
-3.11738566e-05
-3.15343679e-05
-3.09236835e-05
-3.07462355e-05
-3.11913775e-05
-3.15060593e-05
-3.0981742e-05
-3.06753678e-05
-3.06281026e-05
-3.1100882e-05
-3.15128798e-05
-3.09564305e-05
-3.0821505e-05
-3.05164673e-05
-3.04889952e-05
-3.10108712e-05
-3.15053357e-05
-3.09210001e-05
-3.07403676e-05
-3.11228304e-05
-3.15182534e-05
-3.09246548e-05
-3.07520026e-05
-3.11677295e-05
-3.15006357e-05
-3.09679506e-05
-3.06356388e-05
-3.05772761e-05
-3.10411049e-05
-3.14991558e-05
-3.09351893e-05
-3.08141982e-05
-3.11657351e-05
-3.1501014e-05
-3.09860968e-05
-3.06487557e-05
-3.05693442e-05
-3.10376981e-05
-3.14798781e-05
-3.09734353e-05
-3.05260918e-05
-3.04083082e-05
-3.09295728e-05
-3.14943155e-05
-3.09076206e-05
-3.06520738e-05
-3.10386094e-05
-3.15202947e-05
-3.09141407e-05
-3.07296238e-05
-3.10928714e-05
-3.15260205e-05
-3.09202282e-05
-3.07630153e-05
-3.11617258e-05
-3.15149573e-05
-3.09871966e-05
-3.06610459e-05
-3.06017753e-05
-3.10663693e-05
-3.15117816e-05
-3.11542153e-05
-3.09156366e-05
-3.09295314e-05
-3.07759811e-05
-3.07647449e-05
-3.11910642e-05
-3.15377588e-05
-3.09515263e-05
-3.08882012e-05
-3.11543776e-05
-3.15423935e-05
-3.09235235e-05
-3.07547594e-05
-3.11239249e-05
-3.15187577e-05
-3.09656016e-05
-3.05444871e-05
-3.03984152e-05
-3.0897248e-05
-3.14938628e-05
-3.09143821e-05
-3.06986526e-05
-3.10270716e-05
-3.15147361e-05
-3.09165946e-05
-3.0755898e-05
-3.11053696e-05
-3.15048561e-05
-3.09955501e-05
-3.06441645e-05
-3.05343527e-05
-3.09667783e-05
-3.14969879e-05
-3.0925835e-05
-3.07871998e-05
-3.11232711e-05
-3.15065744e-05
-3.10063712e-05
-3.0684544e-05
-3.05719195e-05
-3.09703919e-05
-3.15043319e-05
-3.09289134e-05
-3.07888194e-05
-3.11058375e-05
-3.1535049e-05
-3.09606146e-05
-3.08439476e-05
-3.05557536e-05
-3.04975761e-05
-3.09345879e-05
-3.15009058e-05
-3.09331338e-05
-3.08661541e-05
-3.09890524e-05
-3.1515125e-05
-3.14117632e-05
-3.09093622e-05
-3.05793741e-05
-3.05820805e-05
-3.10205596e-05
-3.14851064e-05
-3.15099594e-05
-3.10530888e-05
-3.09327372e-05
-3.05692031e-05
-3.0535263e-05
-3.09750173e-05
-3.14813593e-05
-3.10558658e-05
-3.07057851e-05
-3.05615797e-05
-3.09336938e-05
-3.1486561e-05
-3.09309553e-05
-3.07647502e-05
-3.10825037e-05
-3.15065204e-05
-3.10013983e-05
-3.06361561e-05
-3.04903191e-05
-3.09099374e-05
-3.14895811e-05
-3.09195037e-05
-3.07085272e-05
-3.1054146e-05
-3.15030679e-05
-3.10160759e-05
-3.06773884e-05
-3.05788314e-05
-3.09708676e-05
-3.14800904e-05
-3.10987887e-05
-3.07288526e-05
-3.05808006e-05
-3.09644667e-05
-3.14858774e-05
-3.10585672e-05
-3.06681843e-05
-3.0470525e-05
-3.08811477e-05
-3.14610977e-05
-3.15330203e-05
-3.15076477e-05
-3.11551856e-05
-3.06567188e-05
-3.03747535e-05
-3.08722433e-05
-3.14841503e-05
-3.09260968e-05
-3.0675944e-05
-3.09844929e-05
-3.15072106e-05
-3.09102888e-05
-3.06910094e-05
-3.10636491e-05
-3.15067542e-05
-3.09895799e-05
-3.06118387e-05
-3.04762729e-05
-3.09125708e-05
-3.15018958e-05
-3.09222382e-05
-3.07548573e-05
-3.10868559e-05
-3.15269242e-05
-3.09215908e-05
-3.08060884e-05
-3.11698775e-05
-3.15143087e-05
-3.10338205e-05
-3.07097344e-05
-3.0640554e-05
-3.10470853e-05
-3.15223885e-05
-3.10295717e-05
-3.09152026e-05
-3.07587406e-05
-3.07335903e-05
-3.06023585e-05
-3.05496406e-05
-3.09255381e-05
-3.14992562e-05
-3.15350198e-05
-3.15278136e-05
-3.09728857e-05
-3.08709197e-05
-3.12430435e-05
-3.15591696e-05
-3.09708672e-05
-3.08562606e-05
-3.07135547e-05
-3.06942788e-05
-3.05047083e-05
-3.04873536e-05
-3.09709342e-05
-3.14903756e-05
-3.15301173e-05
-3.09632267e-05
-3.08849229e-05
-3.12281484e-05
-3.15226447e-05
-3.10254074e-05
-3.07347295e-05
-3.06071977e-05
-3.09662704e-05
-3.15041382e-05
-3.09204198e-05
-3.07224701e-05
-3.11483697e-05
-3.15271704e-05
-3.09638167e-05
-3.05753151e-05
-3.03974567e-05
-3.08716147e-05
-3.15034622e-05
-3.0920464e-05
-3.06220619e-05
-3.09642853e-05
-3.15246982e-05
-3.09050956e-05
-3.06846539e-05
-3.10333402e-05
-3.1529957e-05
-3.09122308e-05
-3.07141689e-05
-3.09077099e-05
-3.15213156e-05
-3.15211509e-05
-3.15436391e-05
-3.12757681e-05
-3.08920486e-05
-3.07278973e-05
-3.07734205e-05
-3.0751979e-05
-3.07804833e-05
-3.05782376e-05
-3.05817443e-05
-3.14747838e-05
-3.15085061e-05
-3.15063489e-05
-3.09487013e-05
-3.09095056e-05
-3.14769335e-05
-3.15696055e-05
-3.0950309e-05
-3.09038398e-05
-3.05925746e-05
-3.05776783e-05
-3.10424393e-05
-3.15279775e-05
-3.09272116e-05
-3.08523811e-05
-3.13328345e-05
-3.15253756e-05
-3.1041078e-05
-3.07290251e-05
-3.06514533e-05
-3.10562243e-05
-3.15073254e-05
-3.10531182e-05
-3.06621322e-05
-3.05392859e-05
-3.09504006e-05
-3.1500265e-05
-3.10441211e-05
-3.06176696e-05
-3.05261285e-05
-3.09587579e-05
-3.14962207e-05
-3.104628e-05
-3.06317836e-05
-3.05521704e-05
-3.09735588e-05
-3.15101211e-05
-3.09768577e-05
-3.08539169e-05
-3.06647269e-05
-3.05214075e-05
-3.08793396e-05
-3.15055239e-05
-3.156754e-05
-3.15453559e-05
-3.09223165e-05
-3.07109914e-05
-3.13201404e-05
-3.15379876e-05
-3.09346117e-05
-3.05779533e-05
-3.04341629e-05
-3.08820903e-05
-3.15047642e-05
-3.09188885e-05
-3.06371166e-05
-3.10127785e-05
-3.15207845e-05
-3.09064174e-05
-3.06771615e-05
-3.10599023e-05
-3.15205227e-05
-3.09219534e-05
-3.06754869e-05
-3.13819531e-05
-3.15234597e-05
-3.0939459e-05
-3.06025815e-05
-3.05118895e-05
-3.09175293e-05
-3.15089451e-05
-3.09125002e-05
-3.06914385e-05
-3.11881072e-05
-3.152439e-05
-3.09418791e-05
-3.06942707e-05
-3.1480844e-05
-3.15268567e-05
-3.0936684e-05
-3.06014588e-05
-3.05305047e-05
-3.09319514e-05
-3.15105832e-05
-3.09141673e-05
-3.06945412e-05
-3.12462799e-05
-3.15263449e-05
-3.09474753e-05
-3.06862848e-05
-3.14861391e-05
-3.15300215e-05
-3.0932124e-05
-3.05899684e-05
-3.05089689e-05
-3.09165968e-05
-3.15129328e-05
-3.09075095e-05
-3.06547712e-05
-3.11916406e-05
-3.15330749e-05
-3.09268317e-05
-3.06850258e-05
-3.12093877e-05
-3.15273432e-05
)
;

boundaryField
{
    closed
    {
        type            calculated;
        value           uniform -4.04339792e-05;
    }
    open
    {
        type            calculated;
        value           nonuniform List<scalar> 0();
    }
    sides
    {
        type            empty;
    }
    procBoundary0to1
    {
        type            processor;
        value           uniform -3.09425324e-05;
    }
}


// ************************************************************************* //
