/*--------------------------------*- C++ -*----------------------------------*\
| =========                 |                                                 |
| \\      /  F ield         | OpenFOAM: The Open Source CFD Toolbox           |
|  \\    /   O peration     | Version:  2306                                  |
|   \\  /    A nd           | Website:  www.openfoam.com                      |
|    \\/     M anipulation  |                                                 |
\*---------------------------------------------------------------------------*/
FoamFile
{
    version     2.0;
    format      ascii;
    arch        "LSB;label=32;scalar=64";
    class       volScalarField;
    location    "0.0011";
    object      T;
}
// * * * * * * * * * * * * * * * * * * * * * * * * * * * * * * * * * * * * * //

dimensions      [0 0 0 1 0 0 0];

internalField   nonuniform List<scalar> 
531
(
327.515175
320.811007
327.737262
338.201729
339.472757
329.30812
328.971472
337.572717
339.102167
329.346969
329.236199
337.546127
339.540045
328.584811
322.044015
329.199173
337.917687
338.846485
329.350091
329.932164
337.196697
339.432664
328.54719
323.434054
329.481724
337.816332
338.582145
329.323838
329.8065
337.040622
339.19005
328.571991
324.55817
329.367408
337.623571
338.657632
328.808817
324.675565
324.587641
329.033867
337.790823
339.815287
339.421731
339.996001
335.536587
328.104101
324.703974
325.670302
325.937249
329.013932
337.492864
340.304088
335.078428
328.51151
325.624014
329.023583
338.149147
338.39363
328.804707
325.345362
329.133634
338.032898
338.37615
328.858536
324.792865
324.936883
329.069136
337.93906
339.774359
339.219475
339.985867
335.657979
327.81993
324.602379
324.892864
329.343893
338.608398
337.477106
328.413149
324.887621
329.211933
338.635179
337.02389
328.469708
325.435602
329.411003
338.833452
336.369245
328.187833
325.689044
330.001843
338.945765
333.687717
324.860965
321.546127
325.92437
338.16684
339.745095
329.186005
326.941098
330.291504
338.864411
329.639804
329.804241
335.276362
339.588338
329.38304
323.371982
327.111066
337.877377
339.689546
329.889306
324.435761
327.795305
336.865813
339.658271
330.512065
324.750219
327.193857
334.054842
339.553421
331.429812
323.617123
323.436962
325.900364
330.640512
339.588616
329.309516
326.840675
331.03392
339.331156
329.001006
327.360145
331.413402
339.198998
328.96958
328.064642
331.837966
339.13732
329.018196
329.2778
332.448515
339.127159
329.659929
323.595909
325.969201
331.140512
338.606769
329.436263
329.502682
332.272943
339.406983
331.427803
326.180869
326.240006
328.954647
337.294981
338.240806
328.472477
324.341405
328.7224
337.397359
335.824065
329.333566
329.339936
335.246787
338.578649
329.227556
325.437401
328.853109
334.960828
338.54947
329.532931
325.781351
328.898561
334.203014
338.680763
329.642919
324.648665
324.843315
328.899954
334.876724
339.672116
335.587911
329.006659
329.230626
332.78553
339.32909
331.348591
324.819393
324.520014
328.951972
333.144847
339.888582
337.901407
329.223539
325.313407
325.556886
325.885725
326.349258
329.782101
339.572165
332.407859
329.098457
328.748421
339.067376
333.380658
328.867702
328.710798
339.473023
334.780022
329.411278
328.798631
339.502991
337.783697
329.283781
323.871433
328.85295
340.223676
338.420965
329.079716
323.164113
329.035587
340.043624
338.663882
325.072601
322.115924
329.212171
339.552657
334.545858
325.975043
329.568252
340.196769
338.915264
324.368285
321.162016
329.577311
339.547796
330.807305
325.326956
329.197822
339.879716
330.568032
325.562555
329.793897
339.898075
329.763115
326.262598
330.820089
339.675527
330.603359
321.992389
323.342699
337.67535
340.033679
329.504028
327.40617
334.815259
339.725047
330.016724
322.561279
324.523753
340.369639
339.566435
329.607322
322.783684
324.448102
340.418565
339.885376
329.477917
325.732079
324.657055
322.749256
329.671339
339.726744
340.329355
339.755801
339.834055
339.765634
332.410003
327.716593
326.38795
325.889776
325.629896
321.779927
322.125419
340.24815
339.546455
329.425668
322.076333
322.796195
340.208688
340.192262
329.380378
326.783333
334.89103
340.34175
329.624909
327.615541
339.671798
339.974604
329.53421
322.262468
322.308468
339.940346
340.264714
329.486383
327.574042
339.904721
340.057548
329.592606
323.323439
323.448089
339.839021
339.836378
329.635776
323.427271
323.504555
339.918415
339.85715
329.660684
323.632555
323.749192
339.899237
339.874449
329.652291
323.742877
323.929261
339.892151
339.900527
329.626892
323.761606
324.008103
339.909654
339.936872
329.563088
323.625461
323.959323
339.952448
339.991442
329.447336
323.252416
323.68431
340.065025
340.027601
329.202515
322.566906
323.046125
340.090531
340.61373
328.775901
327.768591
340.257736
340.624109
328.890614
322.666769
323.489402
340.65936
340.762131
328.889601
321.793008
322.534252
341.308709
341.312429
327.95034
318.199914
320.071229
342.265772
342.914723
343.313953
343.575199
324.236561
320.481445
343.089852
343.776515
325.160138
312.522251
314.635575
340.28316
341.045985
339.443699
339.530849
338.711249
338.860224
338.658439
338.994417
339.069803
339.439107
339.579567
339.919536
340.129371
340.52485
340.96953
341.735097
342.870916
345.062201
349.437295
347.40304
344.912037
342.327621
340.225676
338.264007
336.791944
335.514533
334.122506
332.328021
332.018721
331.144654
329.487386
328.431279
327.225516
327.252584
326.461429
325.346701
320.394066
320.336325
315.798769
346.857009
341.542016
340.885234
331.580837
329.153656
321.248163
317.34096
310.549417
305.42687
300
315.817572
312.291705
301.599133
350.628848
379.3993
402.795973
418.056849
426.051217
453.099106
487.822824
508.260145
542.019316
579.52514
643.940176
693.670313
765.463411
820.051019
869.27361
921.533314
966.506615
1006.05543
1039.7344
1077.50332
1112.08291
1143.21834
1171.33155
1195.79075
1219.97657
1241.33031
1262.82919
1281.36308
1300.53372
1316.93469
1334.32017
1348.53424
1364.0738
1376.09533
1390.77456
1400.98229
1414.85586
1423.81242
1437.24692
1445.85028
1458.01067
1466.03943
1476.25236
1482.85055
1491.62365
1497.97303
1507.39798
1514.58548
1523.6115
1531.2246
1541.07978
1546.45731
1552.48574
1556.96638
1562.07854
1566.00094
1570.44217
1574.06614
1578.44329
1582.4541
1587.06148
1591.05559
1595.55697
1599.25178
1603.69864
1607.90981
1612.16789
1616.06992
1620.05871
1623.71445
1627.44628
1630.89678
1634.17828
1637.18635
1640.25628
1643.13739
1646.08208
1648.8498
1651.69789
1654.40348
1657.1975
1660.03333
1663.04
1665.85879
1668.47201
1670.86816
1673.29305
1675.56684
1677.88411
1680.04668
1682.26484
1684.32639
1686.41683
1688.31548
1690.27552
1692.07536
1693.94529
1695.65664
1697.44479
1699.07679
1700.79067
)
;

boundaryField
{
    closed
    {
        type            fixedValue;
        value           nonuniform List<scalar> 0();
    }
    open
    {
        type            zeroGradient;
    }
    sides
    {
        type            empty;
    }
    procBoundary4to3
    {
        type            processor;
        value           uniform 338.597492;
    }
    procBoundary4to5
    {
        type            processor;
        value           uniform 1702.35145;
    }
}


// ************************************************************************* //
