/*--------------------------------*- C++ -*----------------------------------*\
| =========                 |                                                 |
| \\      /  F ield         | OpenFOAM: The Open Source CFD Toolbox           |
|  \\    /   O peration     | Version:  2306                                  |
|   \\  /    A nd           | Website:  www.openfoam.com                      |
|    \\/     M anipulation  |                                                 |
\*---------------------------------------------------------------------------*/
FoamFile
{
    version     2.0;
    format      ascii;
    arch        "LSB;label=32;scalar=64";
    class       volScalarField;
    location    "0.00064";
    object      h;
}
// * * * * * * * * * * * * * * * * * * * * * * * * * * * * * * * * * * * * * //

dimensions      [0 2 -2 0 0 0 0];

internalField   nonuniform List<scalar> 
530
(
-3454.478
8301.97833
6572.79617
-4482.86612
-1436.02811
8604.56505
2688.81884
-4382.41901
4244.43889
9523.22514
678.162713
-4208.736
4472.66063
9620.76468
574.001979
-3626.26141
4852.20072
9989.44258
6458.92605
-1816.46788
-4836.43408
-3163.45907
8584.89484
9755.75201
-643.361834
-5352.59113
3302.85268
9308.80834
473.741573
-4264.05496
4461.98737
9721.37935
5667.75119
-3948.59416
-4653.12488
4557.31428
10065.6977
10106.7537
1050.35725
-6000.96001
-6272.60238
5744.11252
9622.4358
4167.76666
-5284.67581
-5847.06781
5470.27649
9434.72889
-653.571727
-4615.48183
5675.16902
9568.11893
-539.125225
-3768.3042
6075.2147
9959.44225
5390.61789
-4112.47714
-4666.77146
5725.0497
9834.78894
5073.08555
-4121.53229
-4652.68502
6341.28814
9860.03264
4531.6437
-4577.327
-5181.94414
6311.90817
9781.57998
4313.1565
-4844.06394
-5544.07397
5892.04483
9382.08052
-877.903572
-4533.46126
5642.3554
9388.14327
-697.614102
-4209.65982
5806.95841
9430.42765
-620.265413
-3696.75257
5838.27778
9921.3302
5188.67862
-3066.82851
-4385.04509
953.290382
9264.15931
10267.0306
4172.33217
-2024.49852
-2707.04255
-4626.4156
-4651.66737
6338.57078
10028.8141
7189.9079
-3106.15946
-4483.18365
5343.62106
9321.1027
-256.452384
-4152.79519
5247.31905
9301.55026
-111.831351
-3599.13667
5206.91569
9867.73389
6151.71804
-3355.89131
-4247.52095
4731.84563
9958.27569
8077.48207
-642.060025
-5650.54139
-5974.79918
4988.40058
9063.20428
-372.073907
-4042.07741
4741.40035
9642.60284
4945.79755
-4352.29506
-5137.06761
5759.04585
9267.65464
-175.181631
-3647.24595
5150.36668
9712.76152
4687.39571
-4448.68123
-5345.96882
5288.78405
9104.69882
-386.80071
-4349.49309
4735.77393
9123.97958
-177.665267
-4108.44017
5306.36313
9186.87397
-210.49048
-3735.08869
5720.43834
9292.50671
-78.7491658
-3248.32558
5415.37885
9930.90123
5727.78734
-3050.04453
-4567.40394
1747.82249
5581.89582
-887.407567
-3591.25289
5865.82228
9065.88792
-784.182345
-4041.85629
5722.01924
8925.05668
-846.414403
-3913.23841
6293.64802
8978.57571
-1044.11951
-3533.30869
6580.89506
9183.39867
-52.5240654
-3237.62952
3679.61103
10016.157
9801.50558
420.000803
-3281.03284
-3038.5956
905.466719
1294.41765
-2451.0204
-2408.43131
9002.64027
9246.59011
-1901.37836
-2878.38675
7169.59877
9836.9518
3272.67982
-4663.38244
-4511.42666
7784.45433
8455.4066
-2156.80002
-3490.64144
6404.30346
9606.81804
3246.54629
-4883.96781
-4634.37575
7428.28895
8244.90167
-2756.61416
-3913.63598
7335.53913
8445.56125
-2579.17621
-3434.05762
8081.74688
8656.33994
-2425.50202
-2918.24915
7650.97432
9722.84863
3085.56778
-4401.19745
-3839.56669
7859.72779
9483.25684
2373.70936
-5104.90445
-4310.27829
7716.10641
8183.71233
-2388.41676
-3465.38861
6699.87184
9760.51465
4260.79625
-3629.16277
-3660.66068
7095.1145
9960.48203
6449.55837
-2079.65036
-5701.66441
-4695.13657
7340.7926
7764.28454
-2769.71276
-3458.71461
7243.6591
9537.62809
2677.65346
-4738.8365
-3733.87056
7880.19379
8136.54002
-2508.27502
-2973.40098
7708.80048
9609.84111
2408.24865
-4193.70929
-3038.74937
7908.75758
9753.53248
3776.61856
-3806.86445
-3545.80069
7583.91407
9793.6844
4861.27379
-1593.77112
-3827.89146
-5399.49583
-2347.2371
8284.36527
7630.55816
-2149.71741
-1349.77997
8500.84866
7620.3
-2150.6681
-2080.0416
8192.09913
9574.862
2067.96027
-4939.24681
-3460.81848
7604.79012
7345.3784
-2763.53395
-2873.90772
7589.60506
9356.59611
2210.7384
-5008.54073
-3664.15042
7450.54536
7239.2469
-3258.60872
-2641.47248
7868.87412
7022.25796
-3085.06904
-1838.91829
8102.77524
6553.90329
-3021.82465
-1216.49639
8259.50229
6109.78276
-2893.3026
-465.681659
8553.213
6975.70416
-2204.12533
-2702.86634
7407.92007
10026.0613
4922.75539
-2882.96747
-5570.13926
-2649.3057
7753.40463
6192.53692
-3497.69108
-3540.60198
7295.84122
9532.53534
1952.55904
-5129.33888
-1005.09966
8268.56892
4482.21433
-3842.46305
557.2846
8690.47498
3826.70428
-3693.7826
1664.99216
8900.97087
2403.86772
-3759.66209
3616.02547
9408.06767
3416.97147
-3405.11935
-1920.49177
8692.0798
9861.99246
1505.6734
-5450.35758
-2114.64685
8350.85976
6429.20182
-3708.26654
-3905.39594
8339.71675
9993.92034
1941.8136
-5047.07379
-2690.19931
8427.5792
7688.47462
-3642.93861
-4043.47918
7543.37803
9945.37484
1772.00487
-4620.16414
-2286.85236
8697.25679
8962.21116
-2667.35596
-4436.93897
6631.61489
10153.0151
5102.16905
-2054.3206
-4880.17343
-3959.01889
8511.41543
9881.51615
514.271608
-5504.07152
-186.857425
8708.4826
3672.29181
-4126.64149
916.905786
9295.03702
6282.99582
-3604.5222
-3743.90096
8523.60213
10106.9756
2447.73365
-4643.58962
-4061.9318
8652.14699
10002.8549
1687.50571
-5039.62347
-4309.83991
8656.8052
9951.82923
1417.86337
-4683.35197
-2963.49463
8964.67895
9932.72194
469.041296
-5041.77308
-2491.21847
9015.1819
9739.06912
-889.231973
-5647.34476
841.577419
9108.90178
3855.44382
-4038.89514
-643.317446
9411.33924
9629.8756
-1532.70532
-5618.5634
1030.19972
9141.50322
3698.31283
-4098.85474
-486.105137
9433.56953
9531.89256
-1747.76372
-5596.26607
1535.63621
9208.37424
3265.17423
-3978.79152
-12.0538295
9506.07068
9507.89929
-2124.61691
-5610.5738
1629.93655
9179.83845
3042.64338
-4122.27347
330.61016
9539.7323
9330.73829
-2526.81642
-5650.39584
1885.0627
9213.50269
2736.30858
-4129.56875
522.428949
9550.07757
9258.65302
-2747.42974
-5940.10911
1693.75971
9057.80112
1845.39262
-4441.42244
3254.37239
9307.27607
1279.89547
-4092.85277
4171.94607
9542.5489
2190.17456
-3929.24833
582.103133
9610.4881
9384.76829
-2736.17646
-5570.30722
2442.10413
9147.33152
2104.11295
-4362.17057
661.848899
9578.5329
9229.44963
-2944.74669
-5573.45355
2990.77815
9146.14322
1568.43635
-4254.68105
1057.39795
9602.49381
9093.29704
-3141.78379
-5741.13309
3029.37797
8853.42499
-231.831848
-4513.47363
5462.53267
9099.63062
-732.397867
-4178.80013
5880.1054
9485.15375
1011.87017
-4222.04243
257.302568
9508.57989
9404.95075
-2555.86915
-5115.05853
3775.71446
9159.88472
1595.38643
-4479.61392
24.5295342
9489.23593
9689.14872
-977.764971
-5444.48498
-2034.20395
9005.75608
9387.18506
-1680.18542
)
;

boundaryField
{
    closed
    {
        type            lookUpEnthalpy;
        h0              nonuniform List<scalar> 0();
        value           nonuniform List<scalar> 0();
    }
    open
    {
        type            zeroGradient;
    }
    sides
    {
        type            empty;
    }
    procBoundary2to1
    {
        type            processor;
        value           uniform -5250.44273;
    }
    procBoundary2to3
    {
        type            processor;
        value           uniform -5117.7971;
    }
}


// ************************************************************************* //
