/*--------------------------------*- C++ -*----------------------------------*\
| =========                 |                                                 |
| \\      /  F ield         | OpenFOAM: The Open Source CFD Toolbox           |
|  \\    /   O peration     | Version:  2306                                  |
|   \\  /    A nd           | Website:  www.openfoam.com                      |
|    \\/     M anipulation  |                                                 |
\*---------------------------------------------------------------------------*/
FoamFile
{
    version     2.0;
    format      ascii;
    arch        "LSB;label=32;scalar=64";
    class       volScalarField;
    location    "0.00064";
    object      prefDZ_H2;
}
// * * * * * * * * * * * * * * * * * * * * * * * * * * * * * * * * * * * * * //

dimensions      [1 -1 -1 0 0 0 0];

internalField   nonuniform List<scalar> 
530
(
6.2021312e-05
6.33198359e-05
6.29127978e-05
6.17434189e-05
6.22946275e-05
6.33738048e-05
6.23654342e-05
6.17751589e-05
6.25800078e-05
6.35199062e-05
6.2299114e-05
6.18236336e-05
6.25905862e-05
6.3535525e-05
6.23109419e-05
6.19765524e-05
6.26545141e-05
6.35471879e-05
6.27696145e-05
6.22862886e-05
6.16403694e-05
6.20970288e-05
6.33364229e-05
6.35901434e-05
6.2282904e-05
6.15143652e-05
6.24257096e-05
6.3484395e-05
6.22827782e-05
6.1806072e-05
6.26034207e-05
6.34570282e-05
6.26628461e-05
6.18887493e-05
6.17012464e-05
6.2576982e-05
6.35007993e-05
6.35466652e-05
6.23218436e-05
6.13043996e-05
6.12523084e-05
6.28243246e-05
6.34586617e-05
6.24842727e-05
6.15216218e-05
6.13757134e-05
6.27606749e-05
6.35177204e-05
6.2331921e-05
6.17118891e-05
6.28049745e-05
6.35306253e-05
6.23451653e-05
6.19378493e-05
6.29141665e-05
6.34838144e-05
6.26049118e-05
6.18445407e-05
6.16959672e-05
6.28350144e-05
6.34863465e-05
6.25735315e-05
6.18425333e-05
6.1699504e-05
6.29437707e-05
6.34936883e-05
6.25175361e-05
6.17194922e-05
6.1555084e-05
6.29443338e-05
6.34880107e-05
6.24973234e-05
6.16451298e-05
6.14568987e-05
6.2834765e-05
6.35268893e-05
6.23121623e-05
6.17333827e-05
6.27919751e-05
6.35288197e-05
6.23128134e-05
6.18208877e-05
6.28204684e-05
6.35530381e-05
6.2309708e-05
6.19578928e-05
6.28587058e-05
6.35503947e-05
6.26007997e-05
6.21181177e-05
6.17760504e-05
6.22545368e-05
6.3434558e-05
6.36096947e-05
6.24933954e-05
6.23697033e-05
6.22140432e-05
6.17010767e-05
6.16994879e-05
6.29189377e-05
6.35167223e-05
6.29044662e-05
6.21116577e-05
6.17448989e-05
6.27357514e-05
6.3541317e-05
6.22888258e-05
6.1836659e-05
6.27176655e-05
6.35465844e-05
6.22939376e-05
6.19831442e-05
6.27176617e-05
6.35003842e-05
6.27370156e-05
6.20470898e-05
6.18101911e-05
6.26023873e-05
6.35357916e-05
6.30920361e-05
6.23146097e-05
6.14067959e-05
6.13327902e-05
6.26597938e-05
6.34987599e-05
6.22847335e-05
6.18625513e-05
6.26225929e-05
6.34694798e-05
6.25682556e-05
6.17782774e-05
6.1563865e-05
6.27941149e-05
6.35192305e-05
6.23065601e-05
6.19689179e-05
6.26819688e-05
6.34859163e-05
6.25387746e-05
6.17544972e-05
6.15053892e-05
6.2702979e-05
6.35017187e-05
6.2281674e-05
6.17776589e-05
6.26096087e-05
6.35026069e-05
6.22806956e-05
6.18433291e-05
6.27070635e-05
6.35146374e-05
6.22944726e-05
6.19449234e-05
6.27785453e-05
6.35355311e-05
6.23041092e-05
6.20753605e-05
6.27111819e-05
6.3557712e-05
6.26897955e-05
6.21236047e-05
6.17228909e-05
6.23037788e-05
6.27097994e-05
6.22783916e-05
6.19848671e-05
6.28320972e-05
6.35387233e-05
6.22887513e-05
6.18610237e-05
6.27882997e-05
6.34978061e-05
6.22995829e-05
6.18948456e-05
6.29086756e-05
6.35024407e-05
6.23227276e-05
6.19985666e-05
6.29666782e-05
6.35378379e-05
6.22995785e-05
6.20781469e-05
6.24507815e-05
6.35909114e-05
6.35984733e-05
6.22843567e-05
6.20663369e-05
6.21272047e-05
6.23141715e-05
6.23116521e-05
6.22819733e-05
6.22894754e-05
6.35497149e-05
6.3594346e-05
6.23803799e-05
6.21716974e-05
6.31130202e-05
6.354316e-05
6.24138436e-05
6.16914109e-05
6.17355864e-05
6.32591495e-05
6.34243765e-05
6.23584893e-05
6.20099182e-05
6.29124838e-05
6.35056138e-05
6.24111296e-05
6.16285922e-05
6.17014765e-05
6.31438947e-05
6.3368018e-05
6.22044604e-05
6.1892771e-05
6.31403968e-05
6.34066545e-05
6.22518103e-05
6.20240779e-05
6.33414029e-05
6.34532168e-05
6.22930465e-05
6.21625165e-05
6.32228905e-05
6.35225066e-05
6.24013248e-05
6.17605044e-05
6.19189388e-05
6.32827533e-05
6.350783e-05
6.23593268e-05
6.15646559e-05
6.17911642e-05
6.32311073e-05
6.3369314e-05
6.22993454e-05
6.20176005e-05
6.29794337e-05
6.35348139e-05
6.25004515e-05
6.19733733e-05
6.19667293e-05
6.30129244e-05
6.35695638e-05
6.27648897e-05
6.23200546e-05
6.13953665e-05
6.168604e-05
6.31356396e-05
6.32420097e-05
6.22008681e-05
6.20192549e-05
6.31237109e-05
6.35167495e-05
6.23715691e-05
6.16682735e-05
6.19467735e-05
6.32633334e-05
6.33410613e-05
6.22698732e-05
6.21478602e-05
6.32236434e-05
6.35332546e-05
6.23554803e-05
6.18181515e-05
6.21291789e-05
6.32272357e-05
6.35510228e-05
6.24542183e-05
6.19257718e-05
6.19973948e-05
6.31406349e-05
6.35795595e-05
6.25657993e-05
6.23662248e-05
6.19243447e-05
6.1490237e-05
6.2300014e-05
6.33137935e-05
6.31600396e-05
6.23594712e-05
6.23330419e-05
6.33465502e-05
6.31444886e-05
6.23590048e-05
6.23672345e-05
6.32940628e-05
6.35387188e-05
6.23284646e-05
6.16162015e-05
6.20196563e-05
6.31663876e-05
6.30957043e-05
6.22022898e-05
6.21737637e-05
6.31461403e-05
6.35027269e-05
6.23364049e-05
6.15951539e-05
6.19659864e-05
6.31224719e-05
6.30737829e-05
6.20726577e-05
6.22314324e-05
6.32194857e-05
6.30201229e-05
6.2118038e-05
6.23041382e-05
6.32602142e-05
6.29052997e-05
6.21343302e-05
6.22729628e-05
6.32876062e-05
6.28080302e-05
6.2167183e-05
6.22499858e-05
6.33170838e-05
6.29607844e-05
6.23446949e-05
6.22176081e-05
6.30408276e-05
6.35789937e-05
6.25557877e-05
6.21619768e-05
6.14471975e-05
6.2225805e-05
6.32002473e-05
6.28214116e-05
6.20094332e-05
6.19979383e-05
6.30535077e-05
6.35433832e-05
6.23183316e-05
6.15688083e-05
6.22376169e-05
6.32789123e-05
6.25464426e-05
6.19179334e-05
6.22403165e-05
6.33515692e-05
6.24648571e-05
6.1958107e-05
6.22839722e-05
6.34080479e-05
6.23488639e-05
6.1941175e-05
6.24748597e-05
6.34823656e-05
6.24235951e-05
6.20341978e-05
6.23394624e-05
6.33357956e-05
6.35848803e-05
6.22975765e-05
6.14798099e-05
6.22979951e-05
6.32967758e-05
6.28673072e-05
6.19537311e-05
6.19003096e-05
6.33096114e-05
6.35723377e-05
6.2330459e-05
6.15933563e-05
6.22186878e-05
6.33123695e-05
6.31596176e-05
6.19714833e-05
6.18636309e-05
6.31457611e-05
6.3560799e-05
6.23281953e-05
6.17092243e-05
6.23226928e-05
6.3325916e-05
6.34947337e-05
6.22236747e-05
6.17570081e-05
6.29658648e-05
6.35510281e-05
6.25750303e-05
6.23091041e-05
6.16356621e-05
6.18871895e-05
6.33819767e-05
6.35751055e-05
6.22708784e-05
6.14674605e-05
6.22404928e-05
6.3409484e-05
6.24547286e-05
6.18416358e-05
6.22604041e-05
6.3431055e-05
6.28307772e-05
6.19816962e-05
6.19441972e-05
6.33715704e-05
6.35709378e-05
6.23642465e-05
6.17046668e-05
6.18604114e-05
6.34239407e-05
6.35723695e-05
6.23308216e-05
6.15956644e-05
6.17943905e-05
6.34313117e-05
6.35760789e-05
6.23182277e-05
6.16922651e-05
6.21485809e-05
6.34523607e-05
6.35900347e-05
6.22914725e-05
6.15921738e-05
6.22683594e-05
6.34524952e-05
6.35868304e-05
6.2264736e-05
6.1423085e-05
6.22597261e-05
6.34554443e-05
6.24724526e-05
6.18644529e-05
6.22870217e-05
6.34827293e-05
6.35780663e-05
6.22648522e-05
6.14274619e-05
6.22643295e-05
6.34627572e-05
6.24555612e-05
6.18482954e-05
6.228368e-05
6.3490181e-05
6.35633428e-05
6.22730603e-05
6.14323018e-05
6.22842734e-05
6.34727804e-05
6.2411083e-05
6.18803588e-05
6.22821945e-05
6.34974355e-05
6.35529022e-05
6.22837639e-05
6.14261136e-05
6.22890627e-05
6.34762968e-05
6.23908631e-05
6.18413468e-05
6.22816419e-05
6.34969324e-05
6.35237385e-05
6.22539363e-05
6.14119754e-05
6.23028649e-05
6.34789505e-05
6.2365487e-05
6.18391472e-05
6.22850659e-05
6.35003203e-05
6.35047898e-05
6.21991265e-05
6.13256073e-05
6.22923483e-05
6.34732574e-05
6.23045339e-05
6.17534534e-05
6.24129067e-05
6.35121485e-05
6.22887289e-05
6.18496991e-05
6.25260354e-05
6.35248661e-05
6.23331e-05
6.18938421e-05
6.2288775e-05
6.35139295e-05
6.35293358e-05
6.22025789e-05
6.14327101e-05
6.2340181e-05
6.3484202e-05
6.23211476e-05
6.17744047e-05
6.22857406e-05
6.34981662e-05
6.35026186e-05
6.21510472e-05
6.14293654e-05
6.23861678e-05
6.34837004e-05
6.22951431e-05
6.18032673e-05
6.22957663e-05
6.34958738e-05
6.347088e-05
6.21009921e-05
6.13762693e-05
6.23896435e-05
6.34586573e-05
6.22659126e-05
6.17279769e-05
6.27347782e-05
6.34945989e-05
6.23006207e-05
6.18236265e-05
6.28253439e-05
6.35188063e-05
6.22942561e-05
6.18133074e-05
6.22860177e-05
6.34952743e-05
6.35385187e-05
6.22490689e-05
6.15627165e-05
6.24716229e-05
6.34868552e-05
6.2297762e-05
6.17424415e-05
6.22780706e-05
6.35010297e-05
6.35560218e-05
6.22754621e-05
6.14717142e-05
6.23053584e-05
6.34652189e-05
6.35573359e-05
6.22882616e-05
)
;

boundaryField
{
    closed
    {
        type            calculated;
        value           nonuniform List<scalar> 0();
    }
    open
    {
        type            calculated;
        value           nonuniform List<scalar> 0();
    }
    sides
    {
        type            empty;
    }
    procBoundary2to1
    {
        type            processor;
        value           uniform 6.15346399e-05;
    }
    procBoundary2to3
    {
        type            processor;
        value           uniform 6.15649955e-05;
    }
}


// ************************************************************************* //
