/*--------------------------------*- C++ -*----------------------------------*\
| =========                 |                                                 |
| \\      /  F ield         | OpenFOAM: The Open Source CFD Toolbox           |
|  \\    /   O peration     | Version:  2306                                  |
|   \\  /    A nd           | Website:  www.openfoam.com                      |
|    \\/     M anipulation  |                                                 |
\*---------------------------------------------------------------------------*/
FoamFile
{
    version     2.0;
    format      ascii;
    arch        "LSB;label=32;scalar=64";
    class       surfaceScalarField;
    location    "0.00064";
    object      phi;
}
// * * * * * * * * * * * * * * * * * * * * * * * * * * * * * * * * * * * * * //

dimensions      [1 0 -1 0 0 0 0];

oriented        oriented;

internalField   nonuniform List<scalar> 
530
(
3.39957565e-05
3.25991994e-05
3.22286139e-05
3.33300748e-05
3.41384817e-05
3.39150747e-05
3.24173498e-05
3.16306745e-05
3.21122565e-05
3.16012462e-05
3.02131601e-05
2.93698493e-05
2.9951945e-05
3.01806823e-05
2.95505833e-05
2.81267238e-05
2.71187827e-05
2.7304196e-05
2.66110282e-05
2.53102856e-05
2.44020313e-05
2.47501443e-05
2.40758552e-05
2.35007617e-05
2.29771066e-05
2.22516736e-05
2.13178502e-05
2.05229245e-05
2.06836594e-05
2.00981972e-05
1.91620785e-05
1.84423675e-05
1.87051801e-05
1.81029768e-05
1.75032853e-05
1.67419588e-05
1.60861013e-05
1.62317805e-05
1.58078166e-05
1.51890361e-05
1.47126857e-05
1.4926317e-05
1.45593025e-05
1.40243061e-05
1.36199962e-05
1.39218979e-05
1.39354281e-05
1.35005e-05
1.29937868e-05
1.25372108e-05
1.26867305e-05
1.23551659e-05
1.18288225e-05
1.1424681e-05
1.16392779e-05
1.15600353e-05
1.10967123e-05
1.0596194e-05
1.01666807e-05
1.0232265e-05
9.87906248e-06
9.39918907e-06
9.02244831e-06
9.04949933e-06
8.68982314e-06
8.23562519e-06
7.88305259e-06
7.9575606e-06
7.64869153e-06
6.89747788e-06
6.51262332e-06
6.45157624e-06
6.07213161e-06
5.6629053e-06
5.35731e-06
5.29045745e-06
4.8927475e-06
4.49203e-06
4.2256295e-06
4.31660403e-06
4.08243075e-06
3.66101901e-06
3.32379708e-06
3.0729634e-06
2.98391254e-06
2.60522194e-06
2.28297031e-06
2.07707843e-06
1.96703035e-06
1.62364731e-06
1.35375987e-06
1.21865735e-06
1.32166477e-06
1.11088539e-06
8.12768311e-07
6.28843407e-07
5.22229764e-07
4.54885705e-07
1.7924712e-07
9.13488438e-09
-4.78069201e-08
1.23989142e-07
-5.11123448e-08
-2.76984025e-07
-3.72665597e-07
-4.24915525e-07
-4.75196065e-07
-6.65978404e-07
-7.70329976e-07
-8.04305851e-07
-5.71276334e-07
-7.33214318e-07
-9.22871024e-07
-9.9888548e-07
-1.04003542e-06
-9.72299854e-07
-1.15872608e-06
-1.31271479e-06
-1.37869027e-06
-1.42031457e-06
-1.37581059e-06
-1.57602413e-06
-1.70890957e-06
-1.76110996e-06
-1.79408868e-06
-1.7569229e-06
-1.96805953e-06
-2.07711599e-06
-2.09224186e-06
-2.12793127e-06
-2.21183474e-06
-2.32743668e-06
-2.36067506e-06
-2.37496115e-06
-2.31679258e-06
-2.51940685e-06
-2.60624351e-06
-2.59728767e-06
-2.63316178e-06
-2.74087922e-06
-2.84928963e-06
-2.88077221e-06
-2.92113017e-06
-2.94595747e-06
-3.19993583e-06
-3.28220842e-06
-3.31184215e-06
-3.36786504e-06
-3.41208877e-06
-3.4844941e-06
-3.61906485e-06
-3.61871631e-06
-3.6434131e-06
-3.6747767e-06
-3.72462298e-06
-4.01000185e-06
-4.03984437e-06
-4.00153114e-06
-4.03160319e-06
-4.17087864e-06
-4.22600831e-06
-4.19938883e-06
-4.19875349e-06
-4.21869e-06
-4.46996595e-06
-4.44272133e-06
-4.35353473e-06
-4.34843876e-06
-4.47450524e-06
-4.48812439e-06
-4.42745977e-06
-4.40062161e-06
-4.3980714e-06
-4.62638418e-06
-4.56756734e-06
-4.44760652e-06
-4.41463272e-06
-4.51482948e-06
-4.49872168e-06
-4.40917841e-06
-4.3543596e-06
-4.3095552e-06
-4.49358953e-06
-4.40211495e-06
-4.2715764e-06
-4.18996534e-06
-4.10496217e-06
-4.25206037e-06
-4.13586051e-06
-3.97771691e-06
-3.86431888e-06
-3.73566892e-06
-3.83702806e-06
-3.70492375e-06
-3.49057214e-06
-3.33782834e-06
-3.28240352e-06
-3.18055649e-06
-2.92391894e-06
-2.7369926e-06
-2.6225947e-06
-2.49610199e-06
-2.18769177e-06
-1.96563344e-06
-1.80955034e-06
-1.65214099e-06
-1.43127948e-06
-1.22106181e-06
-9.17586684e-07
-7.63591976e-07
-6.15360887e-07
-3.68748658e-07
-8.46829134e-08
1.49702069e-07
3.1156046e-07
5.35998792e-07
7.49301158e-07
1.12671041e-06
1.39526088e-06
1.55441527e-06
1.74791765e-06
2.0147196e-06
2.3106958e-06
2.52635817e-06
2.72907707e-06
2.90858154e-06
3.32284358e-06
3.66615604e-06
3.83792285e-06
3.9255442e-06
4.1504861e-06
4.46713811e-06
4.70895583e-06
4.87110654e-06
5.01504431e-06
5.34925468e-06
5.58856936e-06
5.84872367e-06
6.03911189e-06
6.1511895e-06
6.41094973e-06
6.62882227e-06
6.95423514e-06
7.22719623e-06
7.02754644e-06
7.16274504e-06
7.47524363e-06
8.29644078e-06
8.50073898e-06
8.43872987e-06
8.78972365e-06
9.69316902e-06
9.92936299e-06
9.81379816e-06
1.01050669e-05
1.10202491e-05
1.11744208e-05
1.09203884e-05
1.10749019e-05
1.18983866e-05
1.19671415e-05
1.14481711e-05
1.15011474e-05
1.21491725e-05
1.20704607e-05
1.14977017e-05
1.1381237e-05
1.1414459e-05
1.13752356e-05
1.06332951e-05
1.02504575e-05
9.99120801e-06
9.90195969e-06
9.7496358e-06
9.0284075e-06
8.67406198e-06
8.38438738e-06
8.14691762e-06
7.81269321e-06
7.23100619e-06
6.93110154e-06
6.75080075e-06
6.52369067e-06
6.32338278e-06
5.88183189e-06
5.63550754e-06
5.47518259e-06
5.23508482e-06
4.95247418e-06
4.80123179e-06
4.73956569e-06
4.59669189e-06
4.49350426e-06
4.31094549e-06
4.21407281e-06
4.19978565e-06
4.11727256e-06
4.0669693e-06
3.96737106e-06
3.93496273e-06
3.98081092e-06
3.99598402e-06
4.02894287e-06
3.9751026e-06
4.05877693e-06
4.17946121e-06
4.20716923e-06
4.22949897e-06
4.39286188e-06
4.57105582e-06
4.67419197e-06
4.73182643e-06
4.92896108e-06
5.24754505e-06
5.50158087e-06
5.75129296e-06
5.73092557e-06
5.97528674e-06
6.3761843e-06
6.73134954e-06
7.00448593e-06
6.93782296e-06
7.25152721e-06
7.5878756e-06
7.85771582e-06
7.85319154e-06
8.15864305e-06
8.70401945e-06
9.09869171e-06
9.23421857e-06
9.19143094e-06
9.52898305e-06
1.00579862e-05
1.04749823e-05
1.02598903e-05
1.04495812e-05
1.08299252e-05
1.11212849e-05
1.13209765e-05
1.10379573e-05
1.12676251e-05
1.17897616e-05
1.21682864e-05
1.18265069e-05
1.1831574e-05
1.20608839e-05
1.24533615e-05
1.27372618e-05
1.21726784e-05
1.20096354e-05
1.22435447e-05
1.22018344e-05
1.20443088e-05
1.14064769e-05
1.13810189e-05
1.15369215e-05
1.15414692e-05
1.1511738e-05
1.13067126e-05
1.19427121e-05
1.20025081e-05
1.17509904e-05
1.09820232e-05
1.08654187e-05
1.09668893e-05
1.09612672e-05
1.03302031e-05
1.00458368e-05
9.98595913e-06
1.0004463e-05
9.87906977e-06
9.79503409e-06
9.60817012e-06
1.01249177e-05
1.00378139e-05
9.70757614e-06
9.07353552e-06
8.95173003e-06
9.08066313e-06
9.11366767e-06
8.96796789e-06
8.52686248e-06
8.59555611e-06
8.93979989e-06
9.20004008e-06
9.37291434e-06
9.45472669e-06
9.13197023e-06
9.17990423e-06
9.29563695e-06
9.68106139e-06
9.99475806e-06
1.00397402e-05
9.78388882e-06
9.88423377e-06
1.04721423e-05
1.08304482e-05
1.08885177e-05
1.06659364e-05
1.08212276e-05
1.1469154e-05
1.18228862e-05
1.14468032e-05
1.14357686e-05
1.18674684e-05
1.2022637e-05
1.20425778e-05
1.17572336e-05
1.18481462e-05
1.24771789e-05
1.27875208e-05
1.22595761e-05
1.2118806e-05
1.24312843e-05
1.24034838e-05
1.23348878e-05
1.18830974e-05
1.20363749e-05
1.25168603e-05
1.2844792e-05
1.31141601e-05
1.31531235e-05
1.40530754e-05
1.43882427e-05
1.45985185e-05
1.46021767e-05
1.48607997e-05
1.5128547e-05
1.53111031e-05
1.53484402e-05
1.53093883e-05
1.60707176e-05
1.63368715e-05
1.63209648e-05
1.63435625e-05
1.70570638e-05
1.71738561e-05
1.72636858e-05
1.7056607e-05
1.69331245e-05
1.78111487e-05
1.82084108e-05
1.81554151e-05
1.72277445e-05
1.71214451e-05
1.78429369e-05
1.78859665e-05
1.81317223e-05
1.81135463e-05
1.77886058e-05
1.75306689e-05
1.79652284e-05
1.80722584e-05
1.74402274e-05
1.71681247e-05
1.7786463e-05
1.81260794e-05
1.79025604e-05
1.69521187e-05
1.65535167e-05
1.66659369e-05
1.66162415e-05
1.58451047e-05
1.54005195e-05
1.54065373e-05
1.5280662e-05
1.43947079e-05
1.39949077e-05
1.38880725e-05
1.37286523e-05
1.27541429e-05
1.24494415e-05
1.25480731e-05
1.26406391e-05
1.24145987e-05
1.14347882e-05
1.11548292e-05
1.09887912e-05
1.08570935e-05
1.00957486e-05
9.83603174e-06
9.63345724e-06
9.45973679e-06
8.73779177e-06
8.50562834e-06
8.42910245e-06
8.32372203e-06
8.11643099e-06
7.38294537e-06
7.15665824e-06
6.94229687e-06
6.77487727e-06
6.2563384e-06
6.01988379e-06
5.81037191e-06
5.61353004e-06
5.32238868e-06
5.14158443e-06
5.01702867e-06
4.88269357e-06
4.72689988e-06
4.37497324e-06
4.21372396e-06
4.12974725e-06
4.03718638e-06
3.92137275e-06
3.62831483e-06
3.50754846e-06
3.43648419e-06
3.36713007e-06
3.14158382e-06
3.02304449e-06
2.95106278e-06
2.91914566e-06
2.88036094e-06
2.70330782e-06
2.61594739e-06
2.56806753e-06
2.55432992e-06
2.53351571e-06
2.39097602e-06
2.32934161e-06
2.30124162e-06
2.30250467e-06
2.29185011e-06
2.16925593e-06
2.12397546e-06
2.09800588e-06
2.09930587e-06
2.06580709e-06
)
;

boundaryField
{
    closed
    {
        type            calculated;
        value           nonuniform List<scalar> 0();
    }
    open
    {
        type            calculated;
        value           nonuniform List<scalar> 0();
    }
    sides
    {
        type            empty;
        value           nonuniform List<scalar> 0();
    }
    procBoundary1to0
    {
        type            processor;
        value           uniform -3.38279662e-05;
    }
    procBoundary1to2
    {
        type            processor;
        value           uniform 1.94895786e-06;
    }
}


// ************************************************************************* //
