/*--------------------------------*- C++ -*----------------------------------*\
| =========                 |                                                 |
| \\      /  F ield         | OpenFOAM: The Open Source CFD Toolbox           |
|  \\    /   O peration     | Version:  2306                                  |
|   \\  /    A nd           | Website:  www.openfoam.com                      |
|    \\/     M anipulation  |                                                 |
\*---------------------------------------------------------------------------*/
FoamFile
{
    version     2.0;
    format      ascii;
    arch        "LSB;label=32;scalar=64";
    class       surfaceScalarField;
    location    "0.0003";
    object      phi;
}
// * * * * * * * * * * * * * * * * * * * * * * * * * * * * * * * * * * * * * //

dimensions      [1 0 -1 0 0 0 0];

oriented        oriented;

internalField   nonuniform List<scalar> 
529
(
1.02076443e-06
1.39129629e-06
1.42156127e-06
1.33674429e-06
1.23851603e-06
1.2338786e-06
1.30656437e-06
1.34273511e-06
1.31403289e-06
1.28792029e-06
1.29735672e-06
1.36161145e-06
1.47598564e-06
1.63648325e-06
1.84777622e-06
2.09368447e-06
2.33359269e-06
2.48051101e-06
2.49120265e-06
2.41226658e-06
2.31788454e-06
2.23840355e-06
2.16215798e-06
2.07552382e-06
1.94811297e-06
1.75113007e-06
1.46892924e-06
1.11924295e-06
7.39765357e-07
3.7984761e-07
6.75548551e-08
-2.05671697e-07
-4.34584823e-07
-6.43620238e-07
-8.50988096e-07
-1.06611693e-06
-1.29088605e-06
-1.52208607e-06
-1.75406315e-06
-1.98101845e-06
-2.19874267e-06
-2.40569146e-06
-2.60314759e-06
-2.79436472e-06
-2.9829755e-06
-3.17134918e-06
-3.35962532e-06
-3.54576253e-06
-3.72641373e-06
-3.89807191e-06
-4.05791234e-06
-4.20408889e-06
-4.3356499e-06
-4.45239143e-06
-4.55482926e-06
-4.64424571e-06
-4.7226489e-06
-4.79253073e-06
-4.85644523e-06
-4.91654153e-06
-4.97421151e-06
-5.02995377e-06
-5.08346238e-06
-5.13387191e-06
-5.18005939e-06
-5.22091615e-06
-5.25554041e-06
-5.28334035e-06
-5.30406479e-06
-5.31778794e-06
-5.32487181e-06
-5.32592042e-06
-5.32173149e-06
-5.31324598e-06
-5.30149479e-06
-5.28754289e-06
-5.27243365e-06
-5.25713715e-06
-5.24250699e-06
-5.22924907e-06
-5.2179042e-06
-5.2088447e-06
-5.20228332e-06
-5.19829146e-06
-5.19682359e-06
-5.19774415e-06
-5.20085426e-06
-5.20591609e-06
-5.21267348e-06
-5.22086683e-06
-5.23024391e-06
-5.24057918e-06
-5.25168144e-06
-5.26331192e-06
-5.275183e-06
-5.28745749e-06
-5.30060879e-06
-5.31311089e-06
-5.32260224e-06
-5.33425951e-06
-5.35437946e-06
-5.36884714e-06
-5.3613376e-06
-5.36271059e-06
-5.39710061e-06
-5.41650979e-06
-5.40376152e-06
-5.38378076e-06
-5.42528315e-06
-5.44901865e-06
-5.46030159e-06
-5.39854806e-06
-5.39665322e-06
-5.43955814e-06
-5.45431395e-06
-5.39290412e-06
-5.34153056e-06
-5.42688603e-06
-5.41622102e-06
-5.40531537e-06
-5.16419969e-06
-5.13738808e-06
-5.31003802e-06
-5.33234503e-06
-5.06425115e-06
-5.08465392e-06
-5.22006759e-06
-5.26329828e-06
-5.24727903e-06
-5.26359574e-06
-5.28217191e-06
-5.58062038e-06
-5.57890152e-06
-5.4197468e-06
-5.45641179e-06
-5.71738188e-06
-5.73920829e-06
-5.73892859e-06
-5.76390501e-06
-5.9318513e-06
-6.0165997e-06
-6.00603417e-06
-5.73537299e-06
-5.77805805e-06
-5.96594906e-06
-5.97881946e-06
-5.9615801e-06
-5.99999646e-06
-6.28473317e-06
-6.43846313e-06
-6.23052715e-06
-5.92065562e-06
-5.8365942e-06
-5.82760737e-06
-5.83308178e-06
-5.75295549e-06
-5.75004112e-06
-5.80276715e-06
-5.82413799e-06
-5.82201104e-06
-5.84396331e-06
-5.86416859e-06
-5.85593428e-06
-5.85729332e-06
-5.90471037e-06
-5.92471501e-06
-5.88866469e-06
-5.86569778e-06
-5.93038131e-06
-5.94678627e-06
-5.89918631e-06
-5.85507199e-06
-5.93993876e-06
-5.94250939e-06
-5.90077847e-06
-5.74738179e-06
-5.89650382e-06
-5.86964038e-06
-5.87824468e-06
-5.46815787e-06
-5.33559426e-06
-5.34952731e-06
-5.47644895e-06
-5.37715192e-06
-5.21169281e-06
-5.32106984e-06
-5.31106441e-06
-5.31428208e-06
-5.1684406e-06
-5.1188039e-06
-5.15684082e-06
-5.15914314e-06
-5.10532777e-06
-5.06339245e-06
-5.09688531e-06
-5.1004151e-06
-5.0656116e-06
-5.03391087e-06
-5.06037244e-06
-5.06059467e-06
-5.00846707e-06
-4.96849531e-06
-5.00731066e-06
-4.99803536e-06
-4.91438997e-06
-4.82025908e-06
-4.89926828e-06
-5.00918641e-06
-4.95770235e-06
-4.88034296e-06
-5.06316588e-06
-5.19077981e-06
-4.96055546e-06
-4.88910117e-06
-4.88950977e-06
-5.22080389e-06
-5.18992319e-06
-4.99679306e-06
-5.00627346e-06
-5.18394331e-06
-5.17721545e-06
-5.14774703e-06
-5.15067916e-06
-5.30416676e-06
-5.37387365e-06
-5.1271199e-06
-5.03221689e-06
-5.04746086e-06
-5.41501569e-06
-5.39550497e-06
-5.13934094e-06
-5.14406989e-06
-5.25252942e-06
-5.34342073e-06
-5.27400972e-06
-5.10554792e-06
-5.24257284e-06
-5.40610706e-06
-5.39342166e-06
-5.1166643e-06
-5.00724319e-06
-5.02564631e-06
-4.99879723e-06
-4.92514937e-06
-4.80103383e-06
-4.85740037e-06
-4.85117229e-06
-4.84654156e-06
-4.73575746e-06
-4.68978236e-06
-4.71897705e-06
-4.72329795e-06
-4.69477104e-06
-4.67907261e-06
-4.68940757e-06
-4.69247446e-06
-4.69288886e-06
-4.70562281e-06
-4.71602367e-06
-4.69672647e-06
-4.67919297e-06
-4.71649305e-06
-4.73462654e-06
-4.72107638e-06
-4.68844316e-06
-4.72574327e-06
-4.74945258e-06
-4.75349712e-06
-4.75178763e-06
-4.77956556e-06
-4.80282144e-06
-4.80141012e-06
-4.808968e-06
-4.85337998e-06
-4.87940748e-06
-4.84069673e-06
-4.81565727e-06
-4.88587302e-06
-4.90774268e-06
-4.88444046e-06
-4.77798073e-06
-4.87589723e-06
-4.89547487e-06
-4.92198139e-06
-4.76962604e-06
-4.7244948e-06
-4.78703093e-06
-4.81491031e-06
-4.81565037e-06
-4.77787059e-06
-4.76959373e-06
-4.83339585e-06
-4.86740486e-06
-4.89200844e-06
-4.79339297e-06
-4.75734896e-06
-4.83059451e-06
-4.8470673e-06
-4.8210001e-06
-4.6837588e-06
-4.78445969e-06
-4.79941463e-06
-4.81889381e-06
-4.74300491e-06
-4.7195623e-06
-4.76635308e-06
-4.7924796e-06
-4.7516011e-06
-4.75065292e-06
-4.80111374e-06
-4.83009495e-06
-4.81355622e-06
-4.82337481e-06
-4.87157728e-06
-4.90026388e-06
-4.86760182e-06
-4.8699023e-06
-4.92684869e-06
-4.95564514e-06
-4.90413413e-06
-4.87659368e-06
-4.95326969e-06
-4.97374813e-06
-4.92938845e-06
-4.83879691e-06
-4.95337068e-06
-4.94815711e-06
-4.94925627e-06
-4.74408202e-06
-4.90245465e-06
-5.13334493e-06
-5.19290745e-06
-4.7630314e-06
-4.71911532e-06
-4.73541783e-06
-4.8220836e-06
-4.72664354e-06
-4.76986946e-06
-4.99822239e-06
-5.1197364e-06
-4.8839391e-06
-4.80267986e-06
-4.84107152e-06
-4.86530914e-06
-4.87642612e-06
-4.83544397e-06
-4.8655598e-06
-4.90636762e-06
-5.15012311e-06
-5.13835916e-06
-5.08037707e-06
-5.10488507e-06
-5.25153662e-06
-5.23923378e-06
-5.23932058e-06
-5.19095607e-06
-5.19862204e-06
-5.39336454e-06
-5.38791312e-06
-5.16911729e-06
-5.18029382e-06
-5.19789455e-06
-5.45452656e-06
-5.42503887e-06
-5.33145608e-06
-5.34723082e-06
-5.61445104e-06
-5.61013007e-06
-5.6127004e-06
-5.63762491e-06
-5.88225043e-06
-5.99484544e-06
-5.72130062e-06
-5.56248056e-06
-5.5884133e-06
-5.54936782e-06
-5.6030981e-06
-5.39260219e-06
-5.23599501e-06
-5.32618559e-06
-5.46411002e-06
-5.40135926e-06
-5.22493756e-06
-5.34292218e-06
-5.31533024e-06
-5.31405579e-06
-5.06719809e-06
-4.96710973e-06
-5.00642817e-06
-4.98223489e-06
-4.91678451e-06
-4.72675991e-06
-4.84291369e-06
-4.81765371e-06
-4.82682512e-06
-4.54414721e-06
-4.4604432e-06
-4.47503538e-06
-4.59913858e-06
-4.44364269e-06
-4.28799889e-06
-4.37339309e-06
-4.55044178e-06
-4.49206015e-06
-4.28163578e-06
-4.40145004e-06
-4.59648522e-06
-4.60115525e-06
-4.42658512e-06
-4.50238425e-06
-4.50098027e-06
-4.51467317e-06
-4.33896223e-06
-4.28262908e-06
-4.32290349e-06
-4.33361876e-06
-4.27098671e-06
-4.2057829e-06
-4.2642682e-06
-4.28288515e-06
-4.28142787e-06
-4.24366228e-06
-4.23172039e-06
-4.26612157e-06
-4.28627142e-06
-4.29614611e-06
-4.29227156e-06
-4.28155723e-06
-4.28123992e-06
-4.31442823e-06
-4.33447103e-06
-4.3457209e-06
-4.24377304e-06
-4.19539078e-06
-4.24861372e-06
-4.23997146e-06
-4.2409095e-06
-3.97982093e-06
-3.87107028e-06
-3.87867989e-06
-3.99444102e-06
-3.929091e-06
-3.8968883e-06
-4.0354141e-06
-4.21371223e-06
-4.27764546e-06
-3.87816826e-06
-3.63363999e-06
-3.62525336e-06
-3.69547489e-06
-3.58955712e-06
-3.53365273e-06
-3.57012421e-06
-3.57026721e-06
-3.47730332e-06
-3.44442113e-06
-3.47159478e-06
-3.53481554e-06
-3.33793338e-06
-3.32473676e-06
-3.38365657e-06
-3.41684432e-06
-3.39507866e-06
-3.41066473e-06
-3.41997419e-06
-3.45464272e-06
-3.32471136e-06
-3.28647055e-06
-3.29283916e-06
-3.52965157e-06
-3.51733988e-06
-3.48706424e-06
-3.49369283e-06
-3.50878228e-06
-3.52141287e-06
-3.40054488e-06
-3.40130814e-06
-3.41257345e-06
-3.65407155e-06
-3.64917868e-06
-3.44382277e-06
-3.45300011e-06
-3.51852768e-06
-3.54781501e-06
-3.52399248e-06
-3.52081198e-06
-3.49875042e-06
-3.5852394e-06
-3.47124524e-06
-3.38546504e-06
-3.38213418e-06
-3.63917114e-06
-3.63549902e-06
-3.53473104e-06
-3.5321676e-06
-3.65178116e-06
-3.70160572e-06
-3.69300911e-06
-3.65868545e-06
-3.68176545e-06
-3.82786065e-06
-3.83996651e-06
-3.55886103e-06
-3.56638675e-06
-3.90380981e-06
-3.87920578e-06
-3.64076865e-06
-3.64559223e-06
-3.69300978e-06
-3.67091976e-06
-3.63796753e-06
-3.62475658e-06
-3.62355213e-06
-3.60131816e-06
-3.53485508e-06
-3.53399466e-06
-3.53817047e-06
-3.61768465e-06
-3.59601356e-06
-3.27121206e-06
-3.27697852e-06
-3.27370568e-06
-3.25649963e-06
-3.23066718e-06
-3.2261091e-06
-3.21277284e-06
-3.2034106e-06
-3.11612149e-06
-3.12711291e-06
)
;

boundaryField
{
    closed
    {
        type            calculated;
        value           uniform 0;
    }
    open
    {
        type            calculated;
        value           nonuniform List<scalar> 0();
    }
    sides
    {
        type            empty;
        value           nonuniform List<scalar> 0();
    }
    procBoundary0to1
    {
        type            processor;
        value           uniform -3.13194315e-06;
    }
}


// ************************************************************************* //
