/*--------------------------------*- C++ -*----------------------------------*\
| =========                 |                                                 |
| \\      /  F ield         | OpenFOAM: The Open Source CFD Toolbox           |
|  \\    /   O peration     | Version:  2306                                  |
|   \\  /    A nd           | Website:  www.openfoam.com                      |
|    \\/     M anipulation  |                                                 |
\*---------------------------------------------------------------------------*/
FoamFile
{
    version     2.0;
    format      ascii;
    arch        "LSB;label=32;scalar=64";
    class       volScalarField;
    location    "0.0003";
    object      rho;
}
// * * * * * * * * * * * * * * * * * * * * * * * * * * * * * * * * * * * * * //

dimensions      [1 -3 0 0 0 0 0];

internalField   nonuniform List<scalar> 
530
(
0.931008538
0.936760443
0.937948443
0.938036295
0.938118291
0.938178283
0.938206932
0.938225771
0.93829079
0.938394398
0.938514725
0.938641077
0.938770713
0.938896166
0.939004292
0.939082763
0.93912718
0.939153676
0.939186273
0.939214535
0.93920306
0.939127204
0.938992647
0.938817722
0.938620729
0.938429641
0.938264987
0.938135787
0.938035546
0.937945451
0.93784696
0.93774098
0.937625095
0.937513043
0.937412247
0.937328359
0.937263516
0.937216688
0.937184863
0.937164335
0.937151737
0.93714477
0.937142542
0.937145412
0.937154372
0.937170229
0.937192931
0.937221352
0.937253532
0.937287213
0.937320343
0.937351348
0.937379168
0.937403171
0.937423111
0.937439133
0.937451784
0.937461942
0.93747065
0.937478885
0.937487352
0.937496358
0.937505802
0.937515259
0.937524116
0.93753172
0.937537482
0.937540957
0.937541865
0.937540098
0.937535704
0.937528864
0.937519871
0.937509103
0.937497
0.937484035
0.937470687
0.937457416
0.937444636
0.937432702
0.937421891
0.937412402
0.937404355
0.9373978
0.937392724
0.937389065
0.937386726
0.937385585
0.937385527
0.937386403
0.937387874
0.93738997
0.937394319
0.937399295
0.93739263
0.937385739
0.93744431
0.937501985
0.937280914
0.937067729
0.937782469
0.938422114
0.936841291
0.934899145
0.937757269
0.939878319
0.938012141
0.932972518
0.935597316
0.940200856
0.939839769
0.932712069
0.932448863
0.939830212
0.940792117
0.935864392
0.927064842
0.936806856
0.940738858
0.940656845
0.916401327
0.920523791
0.941156697
0.945985257
0.927823923
0.906476781
0.938615198
0.954737806
0.941327233
0.905139179
0.9071282
0.951904736
0.953116421
0.93224376
0.906874437
0.932772556
0.957125069
0.94143213
0.905440827
0.908937977
0.953507773
0.952777171
0.927302491
0.90738277
0.938218785
0.955468918
0.940762807
0.905441788
0.915640776
0.952319338
0.945721535
0.91154314
0.913318146
0.940702879
0.940451442
0.933922229
0.930689893
0.938543393
0.939875875
0.93711907
0.937033389
0.938815452
0.937292552
0.934262627
0.938183651
0.940557814
0.937172019
0.93072556
0.937838789
0.941061821
0.93765236
0.927802407
0.9372052
0.94109779
0.939445904
0.919882767
0.930796253
0.940677873
0.941043208
0.918344213
0.914708757
0.941075896
0.942261087
0.936427344
0.918123728
0.933090916
0.94105948
0.941298143
0.929222495
0.927547697
0.93989429
0.941051441
0.93687359
0.931119381
0.937317964
0.940506206
0.937875394
0.932927622
0.937735379
0.940506784
0.93688752
0.930688985
0.938612943
0.941027375
0.936727934
0.922501003
0.937362541
0.944472242
0.940064574
0.906951803
0.925158577
0.953085335
0.942794633
0.905935843
0.907353989
0.945129991
0.953674838
0.93236669
0.906836452
0.935082914
0.956271446
0.940898676
0.905599445
0.911503151
0.956497463
0.949559193
0.906370436
0.908142122
0.942939358
0.953273353
0.930032818
0.907141754
0.938455812
0.95161106
0.940176921
0.908934385
0.925620471
0.943516056
0.940897355
0.923921075
0.920347252
0.940767701
0.940984706
0.937891672
0.924359241
0.932904668
0.941421083
0.941359638
0.93169335
0.93002019
0.939717551
0.940887924
0.937612104
0.935270434
0.937676549
0.938655597
0.9377913
0.938318701
0.939617134
0.937446996
0.933752283
0.937943025
0.94108491
0.939128662
0.932222998
0.935876692
0.940680755
0.939584395
0.935733381
0.937380516
0.93965361
0.937767549
0.935487744
0.93947266
0.941059339
0.936243081
0.929932778
0.939103454
0.941847812
0.939218306
0.924111308
0.933242683
0.941934142
0.941913524
0.928158255
0.926237646
0.940719346
0.941861725
0.940140515
0.930995775
0.931290287
0.939608947
0.941744863
0.941262238
0.931508429
0.927165669
0.94040404
0.941899349
0.939496833
0.921951483
0.932072954
0.941989775
0.942063918
0.928464078
0.928564649
0.941463413
0.941783057
0.935475464
0.933258788
0.939964883
0.940955794
0.936604975
0.934958141
0.940225908
0.941065724
0.935673578
0.93304156
0.940561088
0.941855475
0.936017875
0.928902097
0.939857233
0.942069496
0.938406364
0.923002177
0.936816445
0.94139646
0.941564439
0.916282129
0.925446453
0.945390595
0.943613262
0.917649776
0.909518954
0.94205465
0.952777568
0.937225981
0.907303144
0.93097915
0.955698891
0.945221758
0.907317453
0.907784669
0.941696405
0.95587715
0.941606819
0.905861044
0.907259856
0.952230919
0.955409879
0.939313253
0.906576931
0.909171633
0.956459966
0.956010238
0.937638956
0.907197663
0.912932083
0.960044792
0.945132792
0.906264569
0.909615325
0.953740552
0.956186998
0.937034247
0.907664809
0.924797129
0.958239097
0.942027384
0.906626656
0.913643939
0.957043596
0.952114732
0.909070172
0.909270995
0.941621553
0.950920945
0.932764612
0.913827293
0.939999742
0.945298612
0.940676524
0.918990559
0.930795475
0.942109588
0.942411147
0.926685214
0.921150858
0.941922189
0.941732409
0.939460452
0.918722142
0.932087141
0.942030032
0.942539583
0.923140891
0.920863461
0.942532091
0.943192477
0.933239822
0.915847842
0.94069529
0.945905538
0.939730873
0.914465823
0.934509284
0.944154634
0.942490819
0.92003943
0.926581844
0.942389651
0.942523169
0.928156386
0.925841448
0.94221587
0.942590276
0.936616873
0.928137585
0.93870007
0.942543173
0.941353119
0.933201224
0.933734088
0.940758074
0.941363344
0.940364123
0.93868023
0.936152457
0.936172744
0.939945272
0.942153006
0.941761259
0.932159987
0.928797272
0.940772782
0.942519232
0.942409898
0.918280221
0.919385595
0.942605547
0.948586419
0.939181696
0.907418503
0.928632152
0.94923779
0.943859489
0.917905823
0.912170146
0.942533731
0.942104847
0.934022093
0.92726803
0.941760789
0.942519336
0.934068938
0.92836963
0.942638707
0.945217015
0.930991105
0.907705594
0.94163289
0.957176128
0.942168794
0.907422877
0.909186047
0.960898654
0.952374048
0.906697392
0.908910018
0.943449437
0.958149493
0.941003228
0.907663468
0.90923167
0.961469119
0.950593705
0.90652328
0.908981089
0.951873943
0.956856628
0.929457551
0.908837903
0.940978596
0.957467324
0.941893537
0.907596942
0.912611401
0.957994988
0.951974136
0.907637277
0.908957044
0.943234068
0.956695549
0.93773218
0.908115321
0.931701885
0.956866724
0.942618266
0.907580241
0.910079954
0.955562749
0.953851797
0.909771838
0.909208349
0.944315638
0.956756278
0.929463534
0.908961888
0.941595238
0.959158518
0.942160498
0.90740427
0.908972235
0.96026953
0.945446349
0.907555986
0.911204756
0.961455232
0.957057973
0.910428582
0.909344795
0.942408424
0.958527947
0.941954686
0.907933617
0.909187241
0.962562675
0.94852139
0.906424038
0.909082879
)
;

boundaryField
{
    closed
    {
        type            calculated;
        value           uniform 0.582821264;
    }
    open
    {
        type            calculated;
        value           nonuniform List<scalar> 0();
    }
    sides
    {
        type            empty;
    }
    procBoundary0to1
    {
        type            processor;
        value           uniform 0.950260665;
    }
}


// ************************************************************************* //
