/*--------------------------------*- C++ -*----------------------------------*\
| =========                 |                                                 |
| \\      /  F ield         | OpenFOAM: The Open Source CFD Toolbox           |
|  \\    /   O peration     | Version:  2306                                  |
|   \\  /    A nd           | Website:  www.openfoam.com                      |
|    \\/     M anipulation  |                                                 |
\*---------------------------------------------------------------------------*/
FoamFile
{
    version     2.0;
    format      ascii;
    arch        "LSB;label=32;scalar=64";
    class       volScalarField;
    location    "0.00112";
    object      prefDh_T;
}
// * * * * * * * * * * * * * * * * * * * * * * * * * * * * * * * * * * * * * //

dimensions      [1 1 -3 -1 0 0 0];

internalField   nonuniform List<scalar> 
530
(
0.00668568356
0.00672008058
0.00675040382
0.00678331676
0.00681259773
0.00684411434
0.00687240088
0.00690260519
0.00692994062
0.00695891351
0.00698533723
0.00701315662
0.00703769472
0.00706203771
0.00708554974
0.00711019223
0.0071329067
0.00715650857
0.00717836206
0.00720098489
0.00722200828
0.00724370873
0.00726393313
0.00728476336
0.00730421995
0.00732422825
0.00734294806
0.00736217946
0.00738019299
0.00739868987
0.00741602683
0.00743220844
0.00744723764
0.00746266037
0.0074771429
0.00749202243
0.00750597456
0.00752033971
0.00753377562
0.00754765547
0.00756058722
0.0075740111
0.00758644872
0.00759944622
0.0076113979
0.00762399859
0.00763547105
0.00764770424
0.00765870326
0.00767059742
0.00768112856
0.00769271081
0.00770278134
0.00771408069
0.00772370184
0.00773473349
0.0077439122
0.00775469548
0.00776344489
0.00777284076
0.00778015722
0.00778920397
0.00779618446
0.00780486662
0.00781166158
0.00782007232
0.00782682224
0.00783479825
0.0078415087
0.00784906284
0.00785573359
0.00786288257
0.00786951
0.0078762721
0.00788285124
0.00788924118
0.00789576736
0.00790180137
0.00790827208
0.00791396593
0.00792037806
0.00792574877
0.0079320959
0.00793716328
0.00794343386
0.00794821931
0.00795440086
0.00795892173
0.00796501765
0.00796928065
0.00797519561
0.00797941674
0.00798506851
0.00798922832
0.00799463993
0.00799872383
0.00800391405
0.00800791324
0.00801289871
0.00801680742
0.00802160324
0.0080254172
0.00803003692
0.008033753
0.00803820847
0.00804182491
0.0080459981
0.00804884592
0.00805223517
0.00805500876
0.00805828944
0.0080609892
0.00806416468
0.00806679177
0.0080698646
0.00807242079
0.00807539287
0.00807788038
0.00808075316
0.00808317446
0.00808594916
0.00808830679
0.00809098453
0.00809328098
0.00809586293
0.0080981005
0.00810058794
0.00810276874
0.00810516313
0.00810728898
0.00810959197
0.00811166445
0.00811387785
0.00811589829
0.0081180241
0.00811999361
0.00812203394
0.00812395346
0.0081259105
0.00812778085
0.00812965682
0.00813147876
0.00813327588
0.0081350501
0.00813677062
0.00813849775
0.00814014396
0.00814182453
0.00814339878
0.0081450332
0.00814653798
0.00814812645
0.00814956428
0.00815110691
0.00815248018
0.0081539769
0.00815528694
0.00815674084
0.00815797963
0.00815938686
0.00816058358
0.00816193775
0.00816308473
0.00816439073
0.00816548812
0.00816674618
0.00816779608
0.00816900607
0.0081700109
0.00817117278
0.00817213474
0.00817324879
0.00817416977
0.0081752366
0.00817611813
0.00817713857
0.00817798196
0.00817895697
0.00817976339
0.00818069399
0.00818146451
0.00818235174
0.00818308738
0.00818393229
0.00818463404
0.00818543767
0.00818610648
0.00818686987
0.00818750666
0.00818823084
0.00818883649
0.0081895203
0.00819001932
0.00819058896
0.00819105644
0.00819159343
0.0081920307
0.00819253606
0.00819294439
0.00819341912
0.00819379975
0.00819424487
0.00819459901
0.00819501555
0.00819534434
0.00819573334
0.00819603792
0.00819640043
0.0081966819
0.00819701897
0.00819727843
0.00819759111
0.00819781952
0.00819775818
0.00819766412
0.00819759571
0.00819749294
0.00819741751
0.0081973067
0.00819722437
0.00819710615
0.00819701713
0.00819689201
0.00819679664
0.008196665
0.00819656376
0.00819642582
0.00819631933
0.00819619795
0.00819611639
0.00819599508
0.00819590048
0.00819576786
0.00819566111
0.00819551756
0.00819539936
0.00819524539
0.00819511633
0.00819495252
0.00819481314
0.00819464008
0.00819449089
0.00819430919
0.00819415073
0.00819396095
0.00819379375
0.00819359642
0.00819342103
0.00819321667
0.00819303366
0.00819282274
0.00819263264
0.00819241565
0.008192219
0.00819199642
0.0081917937
0.00819156607
0.00819135766
0.00819112561
0.00819091179
0.00819067601
0.00819045695
0.00819021816
0.00818994717
0.0081896129
0.00818929563
0.00818896295
0.00818864771
0.00818831719
0.00818800394
0.00818767601
0.00818736483
0.00818703979
0.00818673084
0.0081864089
0.00818610239
0.00818578372
0.00818547988
0.00818516464
0.00818486367
0.00818455202
0.00818425413
0.00818394622
0.00818365161
0.00818334759
0.00818305643
0.00818275645
0.00818246892
0.00818217313
0.00818188937
0.00818159791
0.00818131808
0.00818103107
0.00818075532
0.00818047289
0.00818020135
0.00817992361
0.00817965641
0.00817938348
0.00817912073
0.0081788527
0.00817859453
0.0081783315
0.00817807799
0.00817782007
0.00817757131
0.00817731857
0.00817707465
0.00817682718
0.00817658817
0.00817634604
0.00817611203
0.00817587526
0.00817564639
0.00817541495
0.00817519137
0.00817496517
0.0081747471
0.00817452597
0.00817431365
0.00817409737
0.00817389101
0.00817368623
0.00817351718
0.00817334241
0.00817317547
0.00817300463
0.00817284037
0.00817267339
0.00817251225
0.00817234911
0.00817219144
0.00817203219
0.00817187821
0.00817172294
0.00817157285
0.00817142166
0.00817127559
0.0081711286
0.00817098666
0.00817084398
0.00817070628
0.008170568
0.00817043462
0.00817030082
0.00817017184
0.00817004259
0.00816991808
0.00816979343
0.00816967344
0.00816955346
0.00816943802
0.00816932274
0.00816921187
0.00816910136
0.00816899505
0.00816888933
0.0081687876
0.00816868668
0.00816858954
0.00816849334
0.00816840088
0.00816830923
0.00816816926
0.0081680128
0.00816786093
0.00816771097
0.00816756546
0.00816742183
0.00816728266
0.00816714529
0.00816701238
0.00816688118
0.00816675443
0.00816662934
0.00816650863
0.00816638957
0.0081662748
0.00816616166
0.00816605273
0.00816594542
0.00816584221
0.00816574062
0.00816564303
0.00816554705
0.00816545497
0.00816536449
0.0081652778
0.00816519269
0.00816511128
0.00816503142
0.00816495517
0.00816488045
0.00816480924
0.00816473952
0.00816467322
0.0081646084
0.00816454689
0.00816448682
0.00816442997
0.00816437453
0.00816432223
0.00816427128
0.00816422339
0.00816417682
0.00816413321
0.00816409088
0.00816405142
0.00816401321
0.00816397778
0.00816394355
0.00816391201
0.00816388164
0.00816385387
0.00816382723
0.0081638031
0.00816378005
0.00816375944
0.00816373986
0.00816372264
0.00816370641
0.00816369245
0.00816367944
0.00816366862
0.0081636587
0.0081636509
0.00816364396
0.00816363905
0.00816363496
0.00816363283
0.00816363148
0.008163632
0.00816363326
0.00816363632
0.00816364009
0.00816364558
0.00816365173
0.00816365953
0.00816366796
0.00816367796
0.00816368856
0.00816370066
0.00816371331
0.0081637274
0.008163742
0.00816375797
0.00816377443
0.00816379218
0.00816381039
0.00816382982
0.00816384968
0.00816387069
0.00816389213
0.00816391549
0.00816394098
0.00816396963
0.00816400095
0.00816403608
0.00816407451
0.0081641175
0.00816416456
0.00816421705
0.00816427447
0.00816433828
0.00816440801
0.00816448516
0.00816456927
0.00816466184
0.00816476244
0.00816487246
0.00816499148
0.00816512067
0.00816525957
0.00816540898
0.00816556837
0.00816573796
0.00816591709
0.00816610519
0.0081663014
0.00816650418
0.00816671243
0.00816692354
0.00816713614
0.0081673467
0.00816755368
0.00816775299
0.00816794307
0.00816812017
0.00816828277
0.00816842865
0.00816855646
0.00816866634
0.00816875817
0.00816883387
0.00816889314
0.00816891627
0.00816891324
0.0081689114
0.00816891021
0.00816890953
0.00816890922
0.00816890909
0.00816890902
0.00816890898
0.00816890897
0.00816890897
0.00816890897
0.00816890897
0.00816890897
0.00816890897
0.00816890897
0.00816890897
0.00816890897
0.00816890897
0.00816890897
0.00816890897
0.00816890897
0.00816890897
0.00816890897
0.00816890897
0.00816890897
0.00816890897
0.00816890897
0.00816890897
0.00816890897
0.00816890897
0.00816890897
0.00816890897
0.00816890897
0.00816890897
)
;

boundaryField
{
    closed
    {
        type            calculated;
        value           nonuniform List<scalar> 0();
    }
    open
    {
        type            calculated;
        value           uniform 0.00816890897;
    }
    sides
    {
        type            empty;
    }
    procBoundary5to4
    {
        type            processor;
        value           uniform 0.00665426408;
    }
}


// ************************************************************************* //
