/*--------------------------------*- C++ -*----------------------------------*\
| =========                 |                                                 |
| \\      /  F ield         | OpenFOAM: The Open Source CFD Toolbox           |
|  \\    /   O peration     | Version:  2306                                  |
|   \\  /    A nd           | Website:  www.openfoam.com                      |
|    \\/     M anipulation  |                                                 |
\*---------------------------------------------------------------------------*/
FoamFile
{
    version     2.0;
    format      ascii;
    arch        "LSB;label=32;scalar=64";
    class       volScalarField;
    location    "0.00112";
    object      prefDPV_H2O;
}
// * * * * * * * * * * * * * * * * * * * * * * * * * * * * * * * * * * * * * //

dimensions      [1 -1 -1 0 0 0 0];

internalField   nonuniform List<scalar> 
530
(
1.09415371e-06
1.09551048e-06
1.09672068e-06
1.09802312e-06
1.09918769e-06
1.10043876e-06
1.10156023e-06
1.10276276e-06
1.1038435e-06
1.10500022e-06
1.10604251e-06
1.10715607e-06
1.10814032e-06
1.10916037e-06
1.11013062e-06
1.11117679e-06
1.11211549e-06
1.11312225e-06
1.11402639e-06
1.11499579e-06
1.11586695e-06
1.11680096e-06
1.11764064e-06
1.11854111e-06
1.11935079e-06
1.12021948e-06
1.12100063e-06
1.12183921e-06
1.12259323e-06
1.12340335e-06
1.12413155e-06
1.12490473e-06
1.12559662e-06
1.12634118e-06
1.12700787e-06
1.12772614e-06
1.12836844e-06
1.12906155e-06
1.12968024e-06
1.13034931e-06
1.13094507e-06
1.13159125e-06
1.13216465e-06
1.13278917e-06
1.13334066e-06
1.1339448e-06
1.13447469e-06
1.13505983e-06
1.13556828e-06
1.13613591e-06
1.13662295e-06
1.13717461e-06
1.13764038e-06
1.13817832e-06
1.13862299e-06
1.13914765e-06
1.13957083e-06
1.14008349e-06
1.14048554e-06
1.14097041e-06
1.14133639e-06
1.14180796e-06
1.14215447e-06
1.14260043e-06
1.1429376e-06
1.14336866e-06
1.14370599e-06
1.14410945e-06
1.14444571e-06
1.14482346e-06
1.14515724e-06
1.14551118e-06
1.14584135e-06
1.14617311e-06
1.1464992e-06
1.14680988e-06
1.14713135e-06
1.14742159e-06
1.14773847e-06
1.14800879e-06
1.14832124e-06
1.14857212e-06
1.14888022e-06
1.14911232e-06
1.14941571e-06
1.14963019e-06
1.14992768e-06
1.15012618e-06
1.15041645e-06
1.15059976e-06
1.15087938e-06
1.15105853e-06
1.15132293e-06
1.15149624e-06
1.15174689e-06
1.15191346e-06
1.15215155e-06
1.15231089e-06
1.15253737e-06
1.1526892e-06
1.15290484e-06
1.15304904e-06
1.15325446e-06
1.15339103e-06
1.15358675e-06
1.15371579e-06
1.15390137e-06
1.15401849e-06
1.15419057e-06
1.15430017e-06
1.1544634e-06
1.15456561e-06
1.15472007e-06
1.15481502e-06
1.15496077e-06
1.15504864e-06
1.15518574e-06
1.15526667e-06
1.15539517e-06
1.15546934e-06
1.15558928e-06
1.15565685e-06
1.1557683e-06
1.1558294e-06
1.15593243e-06
1.15598721e-06
1.15608188e-06
1.15613046e-06
1.15621688e-06
1.15625936e-06
1.15633765e-06
1.1563741e-06
1.15644439e-06
1.15647488e-06
1.15653733e-06
1.15656188e-06
1.15661669e-06
1.1566353e-06
1.15668266e-06
1.15669534e-06
1.15673545e-06
1.15674221e-06
1.15677527e-06
1.15677613e-06
1.15680228e-06
1.15679731e-06
1.15681669e-06
1.15680601e-06
1.15681868e-06
1.15680245e-06
1.15680844e-06
1.15678686e-06
1.15678616e-06
1.15675946e-06
1.15675202e-06
1.15672041e-06
1.15670623e-06
1.15666983e-06
1.15665217e-06
1.15661062e-06
1.1565848e-06
1.15653733e-06
1.15650584e-06
1.15645367e-06
1.15641586e-06
1.15635959e-06
1.15631531e-06
1.15625507e-06
1.1562045e-06
1.15614028e-06
1.15608369e-06
1.15601543e-06
1.15595311e-06
1.15588077e-06
1.15581298e-06
1.15573653e-06
1.15566351e-06
1.15558296e-06
1.15550494e-06
1.15542029e-06
1.15533747e-06
1.15524877e-06
1.15516134e-06
1.15506863e-06
1.15497677e-06
1.15488012e-06
1.15478399e-06
1.15468349e-06
1.15458324e-06
1.154479e-06
1.15437478e-06
1.15426679e-06
1.15415537e-06
1.15404045e-06
1.15392533e-06
1.15380718e-06
1.15368853e-06
1.15356727e-06
1.15344526e-06
1.15332103e-06
1.15319581e-06
1.15306874e-06
1.15294049e-06
1.15281071e-06
1.15267959e-06
1.15254725e-06
1.15241342e-06
1.15227867e-06
1.15214231e-06
1.15200529e-06
1.15186657e-06
1.15172743e-06
1.15158665e-06
1.15145001e-06
1.15131131e-06
1.15117299e-06
1.1510325e-06
1.15089258e-06
1.15075041e-06
1.15060898e-06
1.15046523e-06
1.15032237e-06
1.15017715e-06
1.15003295e-06
1.14988634e-06
1.1497409e-06
1.149593e-06
1.14944643e-06
1.14929766e-06
1.14915026e-06
1.14900011e-06
1.14885109e-06
1.14869943e-06
1.14854893e-06
1.14839587e-06
1.14824401e-06
1.14808965e-06
1.14793653e-06
1.14778099e-06
1.14762672e-06
1.14747011e-06
1.1473148e-06
1.14715724e-06
1.14700098e-06
1.14684257e-06
1.14668547e-06
1.14652633e-06
1.14636849e-06
1.14620871e-06
1.14605025e-06
1.14588994e-06
1.14573095e-06
1.1455702e-06
1.14541079e-06
1.14524971e-06
1.14508996e-06
1.14492865e-06
1.14476866e-06
1.14460723e-06
1.14444708e-06
1.14428563e-06
1.14412539e-06
1.14396403e-06
1.14380127e-06
1.14363518e-06
1.14347043e-06
1.14330494e-06
1.14314085e-06
1.14297607e-06
1.1428127e-06
1.14264869e-06
1.14248609e-06
1.14232294e-06
1.14216116e-06
1.14199892e-06
1.14183803e-06
1.14167677e-06
1.14151683e-06
1.1413566e-06
1.14119767e-06
1.14103852e-06
1.14088067e-06
1.14072266e-06
1.14056592e-06
1.1404091e-06
1.14025355e-06
1.14009798e-06
1.13994365e-06
1.13978937e-06
1.13963633e-06
1.13948338e-06
1.13933167e-06
1.13918011e-06
1.13902977e-06
1.13887964e-06
1.13873073e-06
1.13858207e-06
1.13843461e-06
1.13828747e-06
1.13814152e-06
1.13799592e-06
1.13785151e-06
1.13770751e-06
1.13756468e-06
1.1374223e-06
1.13728108e-06
1.13714036e-06
1.13700079e-06
1.13686176e-06
1.13672387e-06
1.13658655e-06
1.13645037e-06
1.1363148e-06
1.13618036e-06
1.13604656e-06
1.1359139e-06
1.13578188e-06
1.13565102e-06
1.13552079e-06
1.13539179e-06
1.13526335e-06
1.13513622e-06
1.13500988e-06
1.13488591e-06
1.13476241e-06
1.13464007e-06
1.13451832e-06
1.13439766e-06
1.13427767e-06
1.13415874e-06
1.13404055e-06
1.13392339e-06
1.133807e-06
1.13369165e-06
1.13357709e-06
1.13346356e-06
1.13335085e-06
1.13323918e-06
1.13312834e-06
1.13301853e-06
1.13290958e-06
1.13280167e-06
1.13269462e-06
1.13258861e-06
1.13248348e-06
1.13237939e-06
1.13227619e-06
1.13217403e-06
1.13207276e-06
1.13197253e-06
1.13187321e-06
1.13177493e-06
1.13167756e-06
1.13158122e-06
1.13148581e-06
1.13139141e-06
1.13129796e-06
1.13120551e-06
1.13111401e-06
1.13102351e-06
1.13093396e-06
1.1308454e-06
1.13075779e-06
1.13066798e-06
1.13057807e-06
1.13048921e-06
1.13040137e-06
1.13031458e-06
1.1302288e-06
1.13014406e-06
1.13006032e-06
1.12997762e-06
1.12989591e-06
1.12981522e-06
1.12973552e-06
1.12965683e-06
1.12957911e-06
1.12950241e-06
1.12942666e-06
1.12935191e-06
1.12927811e-06
1.1292053e-06
1.12913342e-06
1.12906252e-06
1.12899255e-06
1.12892354e-06
1.12885545e-06
1.1287883e-06
1.12872207e-06
1.12865676e-06
1.12859236e-06
1.12852887e-06
1.12846627e-06
1.12840457e-06
1.12834374e-06
1.12828381e-06
1.12822473e-06
1.12816653e-06
1.12810918e-06
1.12805269e-06
1.12799703e-06
1.12794222e-06
1.12788823e-06
1.12783507e-06
1.12778272e-06
1.12773119e-06
1.12768045e-06
1.1276305e-06
1.12758134e-06
1.12753296e-06
1.12748535e-06
1.12743851e-06
1.12739242e-06
1.12734708e-06
1.12730249e-06
1.12725862e-06
1.12721549e-06
1.12717307e-06
1.12713136e-06
1.12709036e-06
1.12705005e-06
1.12701044e-06
1.1269715e-06
1.12693324e-06
1.12689564e-06
1.1268587e-06
1.12682242e-06
1.12678677e-06
1.12675177e-06
1.12671739e-06
1.12668363e-06
1.12665048e-06
1.12661795e-06
1.12658601e-06
1.12655466e-06
1.12652389e-06
1.1264937e-06
1.12646408e-06
1.12643503e-06
1.12640652e-06
1.12637857e-06
1.12635115e-06
1.12632426e-06
1.12629791e-06
1.12627207e-06
1.12624674e-06
1.12622191e-06
1.12619758e-06
1.12617374e-06
1.12615039e-06
1.12612751e-06
1.1261051e-06
1.12608313e-06
1.12606082e-06
1.12603747e-06
1.12601305e-06
1.12598758e-06
1.12596106e-06
1.12593351e-06
1.12590496e-06
1.12587546e-06
1.12584507e-06
1.12581386e-06
1.12578193e-06
1.12574937e-06
1.12571633e-06
1.12568295e-06
1.12564942e-06
1.1256159e-06
1.12558264e-06
1.12554985e-06
1.1255178e-06
1.12548673e-06
1.12545695e-06
1.12542868e-06
1.12540227e-06
1.12537791e-06
1.12535589e-06
1.12533636e-06
1.12531955e-06
1.1253055e-06
1.12529429e-06
1.12528584e-06
1.12528008e-06
1.12527677e-06
1.12527566e-06
1.12527641e-06
1.12527865e-06
1.12528194e-06
1.12528594e-06
1.12529023e-06
1.12529455e-06
1.12529866e-06
1.12530243e-06
1.12530577e-06
1.12530634e-06
1.12530463e-06
1.12530386e-06
1.12530348e-06
1.12530332e-06
1.12530326e-06
1.12530324e-06
1.12530323e-06
1.12530322e-06
1.12530322e-06
1.12530322e-06
1.12530322e-06
1.12530322e-06
1.12530322e-06
1.12530322e-06
1.12530322e-06
1.12530322e-06
1.12530322e-06
1.12530322e-06
1.12530322e-06
1.12530322e-06
1.12530322e-06
1.12530322e-06
1.12530322e-06
1.12530322e-06
1.12530322e-06
1.12530322e-06
1.12530322e-06
1.12530322e-06
1.12530322e-06
1.12530322e-06
1.12530322e-06
1.12530322e-06
1.12530322e-06
1.12530322e-06
)
;

boundaryField
{
    closed
    {
        type            calculated;
        value           nonuniform List<scalar> 0();
    }
    open
    {
        type            calculated;
        value           uniform 1.12530322e-06;
    }
    sides
    {
        type            empty;
    }
    procBoundary5to4
    {
        type            processor;
        value           uniform 1.09289518e-06;
    }
}


// ************************************************************************* //
