/*--------------------------------*- C++ -*----------------------------------*\
| =========                 |                                                 |
| \\      /  F ield         | OpenFOAM: The Open Source CFD Toolbox           |
|  \\    /   O peration     | Version:  2306                                  |
|   \\  /    A nd           | Website:  www.openfoam.com                      |
|    \\/     M anipulation  |                                                 |
\*---------------------------------------------------------------------------*/
FoamFile
{
    version     2.0;
    format      ascii;
    arch        "LSB;label=32;scalar=64";
    class       volScalarField;
    location    "0.00112";
    object      sourcePV;
}
// * * * * * * * * * * * * * * * * * * * * * * * * * * * * * * * * * * * * * //

dimensions      [1 -3 -1 0 0 0 0];

internalField   nonuniform List<scalar> 
530
(
0.300113891
0.293196684
0.287097762
0.280488532
0.274623876
0.268303028
0.262658712
0.256607661
0.251171009
0.245372046
0.240131421
0.234567649
0.229789709
0.225105048
0.22060432
0.215825331
0.211488411
0.206920055
0.202759752
0.198389173
0.194397373
0.190212607
0.186381429
0.182371376
0.178693129
0.174847467
0.171314671
0.167623728
0.164229178
0.160683801
0.157420642
0.154431222
0.151725429
0.148895103
0.146291849
0.143566291
0.14106176
0.138435146
0.136025903
0.133492457
0.131175487
0.128729422
0.126502145
0.124137628
0.1219979
0.119709039
0.117655123
0.11543599
0.113466493
0.111311183
0.109424946
0.107327693
0.105522974
0.103475834
0.101750421
0.099751835
0.0981056768
0.0961512877
0.0945819699
0.0929763116
0.09175543
0.0902239178
0.0890596534
0.0875956203
0.0864594276
0.0850400501
0.0839049775
0.082562768
0.081429645
0.0801606272
0.0790310647
0.0778309108
0.0767064513
0.0755705207
0.07444985
0.0733744986
0.0722603416
0.071243918
0.0701362462
0.0691763976
0.068075095
0.0671693805
0.0660748696
0.0652202134
0.0641341877
0.0633265607
0.0622521239
0.0614871623
0.060426057
0.0597017729
0.0586697312
0.0579455929
0.0569585369
0.0562395798
0.0552925491
0.0545818969
0.0536709698
0.0529704475
0.0520923466
0.0514030978
0.050555018
0.0498778004
0.0490573337
0.0483926111
0.0475977096
0.0469456697
0.0462093687
0.0457520396
0.045213378
0.0447642337
0.0442403287
0.0437992646
0.0432896394
0.0428564628
0.0423607386
0.0419351915
0.0414530632
0.0410348447
0.0405660585
0.0401548446
0.0396991784
0.0392946392
0.0388518864
0.0384536993
0.0380236569
0.0376315162
0.037213976
0.0368276002
0.0364223425
0.0360414786
0.0356482681
0.0352726949
0.0348912776
0.0345208078
0.0341509095
0.0337853902
0.0334267158
0.0330660282
0.032718263
0.0323623202
0.0320251319
0.0316738752
0.0313469173
0.031000312
0.0306832266
0.0303412579
0.0300336756
0.0296963481
0.0293978843
0.0290652257
0.0287754733
0.0284475426
0.0281660687
0.0278429634
0.0275693324
0.0272512152
0.0269852294
0.0266716634
0.0264158724
0.0261074594
0.0258550201
0.0255526056
0.025306018
0.0250089203
0.0247680208
0.0244766045
0.0242408025
0.0239553686
0.0237241418
0.0234448551
0.0232178188
0.0229447203
0.0227216082
0.0224546505
0.022235279
0.0219743593
0.0217585976
0.0215035811
0.0212913291
0.0210420634
0.0208332391
0.0205895627
0.0203840942
0.0201458427
0.0199436632
0.0197106737
0.0195117182
0.0192838324
0.0190880359
0.0188651029
0.018672399
0.0184540418
0.0182560706
0.0180331954
0.0178382981
0.017619399
0.017427449
0.0172124006
0.017023272
0.0168119505
0.0166255197
0.0164178011
0.0162339472
0.0160297063
0.0158483112
0.0156474203
0.0154683686
0.0152706976
0.0150938741
0.014899292
0.014724578
0.0145329554
0.0143632238
0.0142778783
0.0142007099
0.014116018
0.0140393509
0.0139553192
0.0138791228
0.0137957517
0.0137200013
0.0136372835
0.0135619629
0.0134798802
0.0134049857
0.0133235064
0.0132490496
0.0131681307
0.0130893981
0.0130025754
0.0129229543
0.0128379947
0.0127598693
0.0126766873
0.0126000368
0.0125185648
0.0124433546
0.0123635371
0.0122897239
0.0122115113
0.012139048
0.0120623919
0.0119912318
0.0119160829
0.0118461814
0.0117724891
0.0117038043
0.0116315164
0.0115640093
0.0114930729
0.0114267063
0.0113570691
0.0112918058
0.0112234188
0.0111592191
0.0110920388
0.0110288574
0.0109628496
0.0109006334
0.0108357755
0.0107744638
0.0107107444
0.0106502729
0.0105845314
0.0105183696
0.0104497931
0.0103839574
0.010315734
0.0102501914
0.0101823482
0.0101170819
0.0100496346
0.00998464025
0.00991759582
0.00985287735
0.00978623746
0.00972180276
0.00965556696
0.0095914252
0.00952559295
0.00946175319
0.00939632484
0.00933279559
0.00926777257
0.00920456185
0.00913994654
0.00907706206
0.00901285758
0.00895030691
0.00888651688
0.00882430767
0.00876093604
0.00869907603
0.00863612704
0.00857462409
0.00851210218
0.00845096424
0.00838887417
0.00832810914
0.008266456
0.00820607164
0.00814486099
0.00808486475
0.00802410271
0.00796450162
0.00790419482
0.00784499568
0.00778515083
0.00772636076
0.0076669837
0.00760861134
0.00754970542
0.00749176277
0.0074333269
0.00737583153
0.00731785852
0.00726083531
0.00720331189
0.00714679311
0.00708970262
0.00703372537
0.00697705301
0.00691998184
0.0068560375
0.00679352369
0.00673066762
0.00666902005
0.00660718755
0.00654641678
0.00648555477
0.00642566354
0.00636573151
0.00630671459
0.00624768244
0.00618952861
0.00613137328
0.00607406787
0.00601677035
0.00596029742
0.00590384072
0.00584818443
0.00579255256
0.00573769775
0.00568287541
0.00562880772
0.00557478031
0.00552148603
0.00546823983
0.0054157056
0.00536322806
0.0053114405
0.00525972046
0.00520866591
0.00515769363
0.0051073582
0.00505712497
0.00500749559
0.0049579922
0.00490905957
0.00486027308
0.00481203657
0.00476394591
0.00471641591
0.00466980247
0.00462401597
0.00457834633
0.00453318398
0.00448814718
0.00444361131
0.00439919215
0.00435527612
0.00431146711
0.00426816161
0.00422495791
0.00418225403
0.00413965102
0.00409754105
0.00405553372
0.00401401108
0.00397259417
0.00393165307
0.00389082129
0.00385045654
0.00381020474
0.00377041154
0.00373073478
0.00369150865
0.00365240226
0.00361373896
0.00357519849
0.00353709398
0.00349911522
0.00346156565
0.00342414458
0.00338714625
0.00335027902
0.00331382838
0.0032775113
0.00324160489
0.00320583441
0.00317046888
0.00313524153
0.00310041362
0.00306572604
0.00303143254
0.00299728143
0.00296351919
0.0029299013
0.00289666719
0.00286357932
0.00283087023
0.00279830918
0.00276612202
0.00273408463
0.00270241629
0.00267089937
0.00263974673
0.0026087471
0.00257810701
0.00254762144
0.00251749073
0.00248751597
0.00245789143
0.00242842417
0.00239930253
0.00237033944
0.00234171737
0.00231325505
0.00228512917
0.00225716417
0.00222953103
0.00220205981
0.00217491589
0.00214793487
0.00212127659
0.00209478209
0.00206860578
0.00204259407
0.00201689597
0.00199136322
0.00196613952
0.00194108183
0.00191632862
0.00189174201
0.00186745529
0.0018433357
0.00181951141
0.00179585468
0.00177248867
0.00174929058
0.00172637861
0.00170363484
0.00168114892
0.00165801266
0.0016335544
0.00160759423
0.00158019649
0.0015511731
0.00152060248
0.00148829228
0.00145433802
0.00141854881
0.00138104078
0.00134163229
0.00130046413
0.00125737441
0.00121253276
0.00116581041
0.00111741013
0.00106725254
0.00101557709
0.000962372861
0.000907917899
0.00085229026
0.000795805572
0.000738650678
0.000681172839
0.000623682828
0.000566546152
0.000510201731
0.000455009647
0.000401521443
0.000350056126
0.000301231914
0.000255283269
0.000212808404
0.000173923093
0.000139072252
0.000108256773
8.16056591e-05
5.90368099e-05
4.02909226e-05
2.51099058e-05
1.29394262e-05
3.79787083e-06
9.94540488e-08
9.94523125e-08
9.94516802e-08
9.94514634e-08
9.9451421e-08
9.94514264e-08
9.94514354e-08
9.94514428e-08
9.94514476e-08
9.94514494e-08
9.945145e-08
9.94514502e-08
9.94514503e-08
9.94514503e-08
9.94514503e-08
9.94514503e-08
9.94514503e-08
9.94514503e-08
9.94514503e-08
9.94514503e-08
9.94514503e-08
9.94514503e-08
9.94514503e-08
9.94514503e-08
9.94514503e-08
9.94514503e-08
9.94514503e-08
9.94514503e-08
9.94514503e-08
9.94514503e-08
9.94514503e-08
9.94514503e-08
9.94514503e-08
9.94514503e-08
9.94514503e-08
)
;

boundaryField
{
    closed
    {
        type            calculated;
        value           nonuniform List<scalar> 0();
    }
    open
    {
        type            calculated;
        value           uniform 0;
    }
    sides
    {
        type            empty;
    }
    procBoundary5to4
    {
        type            processor;
        value           uniform 0;
    }
}


// ************************************************************************* //
