/*--------------------------------*- C++ -*----------------------------------*\
| =========                 |                                                 |
| \\      /  F ield         | OpenFOAM: The Open Source CFD Toolbox           |
|  \\    /   O peration     | Version:  2306                                  |
|   \\  /    A nd           | Website:  www.openfoam.com                      |
|    \\/     M anipulation  |                                                 |
\*---------------------------------------------------------------------------*/
FoamFile
{
    version     2.0;
    format      ascii;
    arch        "LSB;label=32;scalar=64";
    class       volScalarField;
    location    "0.00186";
    object      prefDh_H2;
}
// * * * * * * * * * * * * * * * * * * * * * * * * * * * * * * * * * * * * * //

dimensions      [1 1 -3 0 0 0 0];

internalField   nonuniform List<scalar> 
531
(
23.5798748
25.0376088
38.7065642
38.3202289
28.7363869
23.3778609
24.9025078
38.6888724
38.3634237
28.7992838
22.9779096
24.5611935
38.7549876
38.278892
28.7181768
22.2025483
23.861943
38.3893399
38.6467458
27.22829
26.297842
38.514373
38.5043341
27.3670725
26.5989723
38.7647155
38.205584
28.8074932
22.2758065
24.2658565
38.2070782
38.4633128
37.9722062
28.9855202
23.2726012
24.1330568
16.447507
18.3718917
37.972332
38.1206266
37.6455701
38.0223518
37.4481355
37.9587594
31.4532213
21.7002734
22.331033
38.9045454
38.1353633
28.912011
19.0567781
21.7720784
38.56176
38.4117527
38.409945
28.9860511
24.9855021
39.08943
38.3748123
27.2145723
27.4175225
39.0389071
38.2936466
29.4419365
28.096717
27.250826
25.2538518
24.8227023
19.7040235
21.3835278
38.5635898
38.2894097
38.3024729
38.2270977
29.2651491
27.1201864
38.9717866
38.0997274
28.8441172
24.0633957
25.2555477
38.9057696
38.1260003
28.831113
22.6285206
23.9792929
38.8476177
38.1209651
28.8893631
20.7318999
23.2627853
38.5722583
38.3758697
38.1984996
29.0867493
26.4422061
39.0242714
38.2353331
28.9776791
26.7129352
23.5480879
24.2741385
38.6806395
38.2095181
26.8547983
25.6414026
38.8581455
38.0179437
29.0377903
22.7037917
23.8909461
38.6336969
38.0146121
29.0834113
21.8804178
23.0201962
38.5924409
37.9550196
29.280882
19.122891
20.6843626
38.2917032
38.015865
38.1356708
37.9214855
29.312437
22.3431022
23.3548935
38.5610414
38.267184
27.7830069
25.3856354
38.8912049
38.1040983
28.9430933
22.8221385
23.6083372
38.6661132
38.1661079
28.9949602
22.4941314
23.2358803
38.7006566
38.1013107
28.8819983
21.7185773
22.813409
38.3535241
38.4464621
37.8873915
28.8392827
23.2143168
23.7937126
38.5070623
38.4306589
28.6104124
25.9707048
38.7549537
38.2041832
28.9562489
23.7902469
24.1367465
38.6725122
38.0992899
28.8659782
23.5415934
23.9411077
38.4523484
38.4341076
29.3963462
27.1117903
38.6280756
38.3287216
29.0783475
27.6020946
24.036061
24.0397605
38.4904324
38.1590461
29.3474211
19.853619
20.669933
38.2193302
38.0870867
38.133182
26.9088138
26.3559578
38.3886978
28.8815693
18.6763295
38.3957534
38.1043503
38.0841225
38.3154241
27.49868
26.9080913
38.3104219
29.2344716
21.6054836
38.4304523
38.0727297
38.1425394
29.3987343
20.7342043
20.7958992
38.1484413
38.0220646
29.3684562
19.0817741
20.3041568
37.965151
37.9950783
38.026314
28.3290088
26.9407685
38.0969949
29.4041882
22.1613672
38.0785998
37.9662697
38.0446275
29.4606092
21.3826619
21.4284887
37.8176221
37.9194557
29.5180079
20.0105014
20.0639361
37.7207768
37.7537847
29.1781514
14.1361011
15.7618849
37.3824921
38.0065632
37.6103037
38.1188586
37.8200572
38.1557455
38.0530074
29.3381764
25.3035587
20.7036216
20.7307964
37.705136
38.0985372
23.185869
23.0365937
37.6594204
38.1276776
37.9321712
29.1292686
19.3961575
22.8543786
37.8145394
29.3967895
20.7271078
37.8507647
37.9805788
25.2484748
25.0160205
37.7553102
38.1374811
37.9850884
29.050627
21.300364
22.3302711
37.7441376
38.2265741
37.9666991
29.0588325
23.8317022
24.6531604
17.9197475
18.0558451
37.6709458
38.1683921
38.0484295
38.271376
38.2019959
29.0511988
25.8889017
38.1516726
38.1871056
29.0848762
26.0992165
23.0052763
23.0189907
37.975187
38.1702252
27.1727635
24.0524517
38.1263118
38.0633758
29.0765413
22.0463277
22.0970831
37.9704957
38.2187563
28.3149618
23.9816746
38.1885811
38.0554335
29.0488643
20.9324713
21.1775971
37.9891613
38.3446956
25.3606141
24.4538783
38.0751208
38.2782288
38.2410711
27.7599053
24.7951942
38.2047943
38.3582057
38.2763741
29.0073027
20.7177602
21.0924584
38.045232
38.4943584
26.9420197
24.2049519
38.1547514
38.4162553
27.326026
25.3895896
38.2238753
38.3113992
29.4264549
25.7379777
22.4868246
22.5176433
37.9557347
38.2623162
24.9614357
23.6635205
38.0196426
38.246938
24.0691061
24.0959255
38.2273611
38.2096242
38.1862754
38.2268595
29.1114154
26.570249
23.926042
23.6245977
38.4167103
38.0996329
28.3272649
19.6343899
20.2161714
38.0858925
38.328465
24.8117472
22.7680068
38.4169094
38.2591231
23.2513359
23.7387027
38.5625185
38.2527777
38.284573
27.5530172
23.3709178
38.769309
38.1233643
26.6552394
23.982497
38.8523653
38.1074835
29.0735782
21.6382599
22.2611557
38.3754704
38.2983067
27.3654918
24.1140896
38.736034
38.1482396
29.0830834
22.1327491
22.7801772
38.4182711
38.2525219
27.4641971
24.2207434
38.8150047
38.082832
28.9645812
21.7064117
22.4383428
38.2807811
38.4885899
26.5026545
24.7165686
38.5951174
38.3974193
26.1296699
25.3825943
38.7483399
38.3005457
26.6779938
24.897345
38.9471205
38.1474269
28.9358409
21.5866222
22.5196377
38.4894395
38.4927028
25.7996373
24.8210122
38.7184752
38.2203378
24.8483841
26.1809157
38.7616524
38.4998583
38.2317479
27.853911
25.4012622
39.0917256
38.0488298
28.6882525
23.0914255
24.4257841
38.58463
38.4097559
27.9647352
27.6139802
38.8440649
38.2033487
28.8238205
27.8457389
25.745367
26.5649423
38.77008
38.119838
29.0774204
26.5830134
24.2256301
25.717272
38.3706273
29.2755355
22.306327
38.8258406
37.9345295
26.2058656
23.3939808
38.8219049
37.8085493
27.6963883
18.1084974
21.1941719
38.2473504
38.4402361
37.9769252
38.4212187
37.7913843
29.0614513
23.3059093
24.2469632
38.3390764
38.2220932
29.1672028
20.5055499
25.0318926
38.1799926
27.8333187
20.6189711
38.2539672
38.0878992
23.0069404
22.3713446
38.2845945
38.1663549
38.4439549
38.2224069
28.2283373
24.1227581
38.280243
38.3031981
29.0423091
20.8144068
22.9983516
38.1015367
38.3789591
38.398335
28.5885796
24.2985574
21.3102866
21.661991
38.2327325
38.3258676
38.3924776
29.134269
24.0376737
38.1576082
38.289509
28.5287122
27.0333414
38.2466439
38.2284678
28.8303509
27.7580145
25.5731697
25.6427299
38.169736
38.3087863
29.0073539
23.8631958
23.9077778
38.1601551
38.3950361
29.0382497
23.6216289
23.675083
38.2826394
38.2459956
28.9250219
21.7927003
24.0575885
38.0165095
38.4446961
38.1149607
)
;

boundaryField
{
    closed
    {
        type            calculated;
        value           nonuniform List<scalar> 0();
    }
    open
    {
        type            calculated;
        value           nonuniform List<scalar> 0();
    }
    sides
    {
        type            empty;
    }
    procBoundary3to2
    {
        type            processor;
        value           uniform 28.7557385;
    }
    procBoundary3to4
    {
        type            processor;
        value           uniform 28.9431738;
    }
}


// ************************************************************************* //
