/*--------------------------------*- C++ -*----------------------------------*\
| =========                 |                                                 |
| \\      /  F ield         | OpenFOAM: The Open Source CFD Toolbox           |
|  \\    /   O peration     | Version:  2306                                  |
|   \\  /    A nd           | Website:  www.openfoam.com                      |
|    \\/     M anipulation  |                                                 |
\*---------------------------------------------------------------------------*/
FoamFile
{
    version     2.0;
    format      ascii;
    arch        "LSB;label=32;scalar=64";
    class       volScalarField;
    location    "0.00186";
    object      prefDh_H;
}
// * * * * * * * * * * * * * * * * * * * * * * * * * * * * * * * * * * * * * //

dimensions      [1 1 -3 0 0 0 0];

internalField   nonuniform List<scalar> 
531
(
23055.1607
23143.2222
23970.593
23946.8442
23375.6603
23042.909
23135.3305
23969.3659
23949.3631
23377.4868
23019.1132
23114.5048
23973.254
23943.8794
23372.0759
22971.6165
23074.0921
23950.1661
23967.1776
23274.1921
23218.9329
23958.0287
23959.0683
23283.4112
23235.7235
23974.0854
23939.972
23376.6888
22975.5645
23097.7067
23938.1955
23957.5583
23924.925
23386.2137
23033.0075
23088.6303
22626.2717
22743.8428
23920.116
23932.7529
23900.7902
23927.0727
23890.653
23923.7852
23540.0143
22942.651
22978.4924
23982.0555
23934.26
23376.6111
22783.5654
22948.1219
23959.0832
23953.5725
23951.0069
23381.06
23139.2538
23994.8458
23951.2212
23275.1438
23285.6444
23991.2271
23947.357
23423.4342
23325.506
23275.0582
23154.2742
23129.5245
22822.3045
22924.4478
23958.892
23944.6428
23945.0399
23941.2659
23399.2047
23266.9931
23987.9145
23934.0625
23384.3839
23084.0092
23156.2386
23982.9851
23934.6482
23378.8294
22997.8639
23080.0426
23979.0929
23933.6124
23380.8337
22883.8732
23037.7179
23959.9298
23951.7665
23938.2663
23389.9627
23226.8022
23990.6286
23942.6674
23385.9711
23242.6392
23052.9871
23097.5073
23967.5648
23939.9724
23251.2125
23178.1944
23979.6706
23928.0553
23388.3331
23001.2597
23073.9941
23965.5055
23927.3657
23391.1665
22951.8896
23021.5335
23962.6566
23922.9925
23399.635
22786.3614
22881.7178
23941.7158
23927.2301
23934.4349
23921.703
23413.9004
22979.6814
23042.0713
23960.3092
23943.6398
23306.8243
23162.7956
23981.6971
23933.7053
23384.2789
23008.6451
23057.2918
23967.3706
23937.0731
23387.5361
22989.2731
23034.5733
23969.4173
23932.897
23382.1625
22942.1365
23010.3458
23946.8581
23956.2071
23919.9405
23380.4299
23031.28
23069.2797
23957.3698
23954.1673
23356.363
23198.1847
23973.1325
23940.4183
23387.1251
23066.9838
23088.112
23967.833
23933.515
23384.4772
23051.331
23077.6476
23954.15
23954.782
23403.4469
23266.8534
23965.3388
23949.2929
23392.7293
23295.6477
23081.3881
23082.2225
23955.3635
23936.3024
23402.6283
22830.4904
22880.4571
23937.3725
23932.861
23934.6391
23253.6157
23220.5153
23946.9038
23373.0429
22760.406
23947.1421
23932.6285
23930.6069
23946.706
23288.5395
23254.497
23942.8117
23396.3538
22935.3616
23949.9347
23932.8691
23934.8141
23406.0634
22882.8775
22887.5266
23934.4823
23927.0765
23404.5155
22783.7599
22858.0076
23921.2867
23927.4439
23928.0597
23338.4562
23254.7069
23929.5786
23406.023
22968.1726
23928.0721
23926.5298
23929.236
23409.9368
22920.8658
22924.7198
23913.7655
23921.0536
23412.3451
22838.644
22842.8324
23906.9826
23909.551
23389.6114
22487.4998
22586.91
23882.6391
23925.7939
23899.2236
23933.9436
23914.6923
23938.0272
23931.6878
23403.6159
23156.4024
22881.3984
22883.6654
23903.6531
23932.7315
23029.9116
23021.7019
23900.3691
23936.685
23921.2569
23400.0869
22802.3817
23011.0564
23911.7057
23404.5776
22882.0228
23914.3871
23925.8331
23153.9647
23139.7248
23907.1419
23937.775
23925.3669
23393.6248
22915.9503
22979.9107
23908.524
23942.7186
23925.692
23391.4818
23067.1616
23118.9651
22714.4661
22724.3424
23900.9436
23936.8391
23927.6674
23944.7117
23940.0973
23383.6821
23192.2334
23934.9022
23939.7817
23390.5439
23204.7464
23020.2081
23020.8865
23922.0513
23937.6714
23270.7662
23081.9179
23932.939
23930.8446
23389.7115
22961.4038
22966.3872
23923.4909
23940.4888
23339.4437
23077.6891
23937.2006
23930.1382
23387.8593
22894.699
22911.8381
23924.2044
23948.2688
23161.3838
23107.4092
23927.4189
23945.5528
23940.4641
23306.3942
23127.634
23936.216
23951.2235
23943.3756
23385.8495
22882.2735
22907.4488
23928.1813
23957.3428
23256.0625
23093.2095
23934.661
23953.4748
23279.4043
23163.6133
23939.8929
23947.3088
23406.8365
23183.5089
22988.1267
22991.3159
23921.5054
23943.2999
23136.0537
23059.8434
23925.7039
23942.783
23082.9233
23085.6654
23937.987
23940.7714
23938.475
23942.1976
23396.334
23233.1763
23075.0515
23056.882
23951.4852
23932.4627
23340.165
22817.0544
22854.3671
23930.8233
23946.6667
23127.7911
23006.4377
23950.8511
23943.3029
23035.3599
23064.2888
23959.4865
23943.9659
23943.2566
23294.0434
23041.3618
23974.3583
23934.8851
23241.1733
23077.7412
23980.0884
23933.4674
23387.8309
22937.4554
22977.0483
23949.8838
23945.3237
23282.5597
23086.0421
23973.1084
23936.1602
23389.0743
22967.2222
23007.7914
23952.5949
23942.609
23288.8715
23092.1052
23977.9768
23932.0528
23382.6198
22941.1781
22988.3981
23943.9307
23957.2261
23229.7614
23123.8164
23963.4214
23952.306
23208.3823
23163.4213
23973.0271
23946.2475
23242.3219
23133.5632
23986.1542
23935.8869
23380.5479
22934.6765
22993.9028
23956.9773
23957.1765
23188.0696
23130.9077
23970.8178
23940.6189
23132.0286
23212.691
23972.7925
23959.8371
23940.5429
23313.1332
23164.2082
23995.5594
23929.8363
23369.1866
23025.2107
23109.0017
23963.6114
23952.4922
23318.3948
23298.3352
23980.4347
23941.1429
23380.3323
23310.8932
23185.6703
23235.2049
23975.347
23935.1369
23389.3246
23234.3579
23094.0034
23184.2953
23947.9751
23397.8987
22978.4485
23978.5969
23921.9268
23214.0943
23042.2942
23978.259
23913.6541
23303.2416
22725.5867
22914.0738
23940.3743
23954.4238
23924.1025
23954.7791
23913.6473
23389.1617
23036.5566
23095.6411
23948.4054
23940.1746
23394.5332
22869.6141
23142.6348
23935.3239
23310.5196
22876.7932
23941.3086
23931.6056
23021.5347
22982.1267
23941.4155
23936.8974
23953.9927
23940.3266
23335.2057
23086.6082
23944.058
23945.7042
23386.1993
22888.375
23021.4327
23931.4209
23951.786
23952.0276
23356.3268
23096.8876
22919.7132
22939.7447
23938.0292
23948.2888
23949.538
23391.218
23082.1124
23935.8867
23945.7246
23353.6283
23261.3724
23941.7959
23942.9721
23380.973
23304.8473
23175.0766
23178.6268
23936.3661
23946.5675
23386.2169
23071.3019
23075.4482
23936.8271
23951.7722
23388.8709
23057.4042
23060.9101
23944.3475
23942.4198
23382.508
22946.531
23084.9568
23926.1563
23956.4932
23934.3366
)
;

boundaryField
{
    closed
    {
        type            calculated;
        value           nonuniform List<scalar> 0();
    }
    open
    {
        type            calculated;
        value           nonuniform List<scalar> 0();
    }
    sides
    {
        type            empty;
    }
    procBoundary3to2
    {
        type            processor;
        value           uniform 23377.1432;
    }
    procBoundary3to4
    {
        type            processor;
        value           uniform 23384.2825;
    }
}


// ************************************************************************* //
